FOO
138240
    1MOL0     O    1   8.479   7.916   6.304 -0.1847  0.9662  0.2030
    1MOL0     C    2   8.595   7.884   6.273 -0.8081 -0.1823  0.6177
    1MOL0     O    3   8.641   7.843   6.149 -0.0117 -1.1979 -0.7123
    1MOL0     C    4   8.538   7.800   6.064  0.5098  0.2037  0.6871
    1MOL0     C    5   8.444   7.703   6.104 -0.1338  0.1449  0.0893
    1MOL0     C    6   8.337   7.667   6.017 -0.1047 -0.9027 -0.4044
    1MOL0     C    7   8.330   7.729   5.892  0.3721  0.7552 -0.1424
    1MOL0     O    8   8.231   7.701   5.804 -0.4090  0.2066 -0.4106
    1MOL0     C    9   8.217   7.559   5.795  0.5369  0.7907  0.5023
    1MOL0     C   10   8.153   7.519   5.659  0.2098  0.4844  0.7250
    1MOL0     C   11   8.091   7.377   5.651  0.3672 -0.9125  0.0053
    1MOL0     C   12   7.946   7.368   5.706 -0.5805  0.2223  0.5237
    1MOL0     C   13   7.870   7.251   5.637  0.4940 -0.1174 -0.7788
    1MOL0     C   14   7.855   7.259   5.491 -0.0464  0.0195  0.3206
    1MOL0     C   15   7.716   7.190   5.444 -0.9483 -0.4262 -0.4868
    1MOL0     C   16   7.711   7.152   5.296  0.2033  0.4700  0.1999
    1MOL0     N   17   7.576   7.107   5.257 -0.0094 -0.5094  0.4707
    1MOL0     C   18   7.515   6.993   5.319  0.2924 -0.6030 -0.0232
    1MOL0     C   19   7.404   6.989   5.248  0.5385  0.3840 -1.3020
    1MOL0     C   20   7.308   6.876   5.269  0.7807  0.0951 -0.2001
    1MOL0     C   21   7.187   6.907   5.371 -0.5539  0.1916 -0.7068
    1MOL0     C   22   7.103   7.011   5.318 -0.0991 -0.4500 -0.3050
    1MOL0     C   23   6.988   7.057   5.412 -0.1743  0.1349 -0.3249
    1MOL0     O   24   6.871   7.056   5.340  0.0011  0.0319  0.5292
    1MOL0     C   25   6.763   7.095   5.413  0.9191  0.3817 -0.7055
    1MOL0     C   26   6.664   7.005   5.437  0.6898  0.5768  0.3407
    1MOL0     C   27   6.545   7.035   5.494  0.9626  1.0351  1.0687
    1MOL0     C   28   6.448   6.921   5.500 -0.6375  0.9294  0.0738
    1MOL0     C   29   6.527   7.167   5.552 -0.1698 -0.1165 -0.7553
    1MOL0     C   30   6.401   7.208   5.627 -0.6846 -0.6047  0.3061
    1MOL0     O   31   6.383   7.343   5.636 -0.1774 -0.4889 -0.0123
    1MOL0     C   32   6.265   7.392   5.689  0.2092 -0.1865  0.4732
    1MOL0     C   33   6.279   7.462   5.805 -0.8300 -0.3237 -0.4314
    1MOL0     C   34   6.164   7.519   5.862  0.4157  0.1491 -1.3126
    1MOL0     C   35   6.039   7.515   5.797 -0.7106  0.3521 -0.2125
    1MOL0     O   36   5.940   7.586   5.852 -0.9698  0.1810 -0.2921
    1MOL0     C   37   5.810   7.540   5.817  0.1160  0.1967  0.1303
    1MOL0     C   38   5.725   7.662   5.857  0.4067 -0.2369  0.8520
    1MOL0     C   39   5.571   7.628   5.854 -0.2384  0.6748  0.0036
    1MOL0     C   40   5.485   7.745   5.903  0.2004 -0.7534  0.1714
    1MOL0     C   41   5.338   7.717   5.934  0.3172 -0.2910  0.3376
    1MOL0     C   42   5.264   7.674   5.804  0.1378  0.6508  0.4629
    1MOL0     C   43   5.124   7.632   5.835  0.1278  0.2259 -0.5778
    1MOL0     C   44   5.034   7.694   5.730  0.4120 -0.3430  0.5698
    1MOL0    Cl   45   4.850   7.664   5.777  0.1199  0.2249 -0.0442
    1MOL0     C   46   6.036   7.457   5.661  0.1758 -1.0703  0.2593
    1MOL0     C   47   6.144   7.393   5.612  0.5856  0.7169 -0.5068
    1MOL0     O   48   6.325   7.128   5.673 -0.3018  0.4764  0.7651
    1MOL0     C   49   6.631   7.254   5.544 -1.1136  0.8139 -0.6200
    1MOL0     C   50   6.749   7.220   5.473  0.1709  0.3153  0.2432
    1MOL0     N   51   7.381   7.094   5.161  0.6293 -0.4688  0.6085
    1MOL0     N   52   7.481   7.172   5.176  0.1095  0.0178  0.1250
    1MOL0     C   53   8.418   7.832   5.849 -0.3390  1.2812  0.6789
    1MOL0     C   54   8.537   7.855   5.935 -0.4882  0.8021  0.2193
    1MOL0     C   55   8.705   7.912   6.368 -0.1600  0.4299 -0.2616
    1MOL0     C   56   8.696   8.020   6.458 -0.2479  0.5989  0.4029
    1MOL0     C   57   8.798   8.036   6.554  0.9472  0.8861 -0.0012
    1MOL0     C   58   8.917   7.957   6.555  0.3101 -0.1584 -1.1289
    1MOL0     O   59   9.013   8.003   6.642 -0.2100 -0.2746 -0.0687
    1MOL0     C   60   9.127   7.928   6.666 -0.7259 -0.1371 -0.1011
    1MOL0     C   61   9.234   7.950   6.554  0.2563 -0.0664  0.9497
    1MOL0     C   62   9.355   7.864   6.578  0.1794 -0.2854  1.0379
    1MOL0     C   63   9.432   7.877   6.708  0.3919  0.2080  0.5624
    1MOL0     C   64   9.489   8.005   6.727  1.0813 -0.7076 -0.2527
    1MOL0     C   65   9.536   8.113   6.752 -0.1257 -0.0957 -0.1186
    1MOL0     C   66   8.924   7.849   6.468 -0.7778  0.4844 -0.2904
    1MOL0     C   67   8.818   7.824   6.375  0.1665  0.4526  0.4613
    1MOL0     H   68   8.440   7.666   6.206  0.8487 -1.6359 -0.4794
    1MOL0     H   69   8.259   7.604   6.059 -2.1106  1.5661 -0.2101
    1MOL0     H   70   8.310   7.501   5.802 -0.0645 -0.0946  1.3464
    1MOL0     H   71   8.149   7.512   5.867 -0.1454 -2.2823 -1.9221
    1MOL0     H   72   8.081   7.595   5.624  0.3993 -0.2858 -1.5029
    1MOL0     H   73   8.236   7.508   5.590 -0.5511 -0.0727 -0.1239
    1MOL0     H   74   8.101   7.353   5.545  0.1991  0.1383 -0.2529
    1MOL0     H   75   8.147   7.300   5.707 -0.0937  0.4891  2.5633
    1MOL0     H   76   7.950   7.351   5.814 -0.1092 -0.6697  0.3741
    1MOL0     H   77   7.905   7.470   5.698  0.9288  0.8450  0.4567
    1MOL0     H   78   7.921   7.158   5.664  1.7275  0.7928  0.1771
    1MOL0     H   79   7.778   7.247   5.696  0.5964 -3.7189 -0.6107
    1MOL0     H   80   7.844   7.364   5.464  2.0209  1.1631  3.3669
    1MOL0     H   81   7.935   7.220   5.427 -1.6757 -1.0606 -1.1707
    1MOL0     H   82   7.696   7.100   5.502  1.1851 -1.2206 -0.9058
    1MOL0     H   83   7.639   7.262   5.473  0.2716 -0.2300  2.6932
    1MOL0     H   84   7.774   7.062   5.286 -2.8952 -2.1363  2.1154
    1MOL0     H   85   7.736   7.246   5.247  1.9217  0.6955  1.4251
    1MOL0     H   86   7.565   6.922   5.384  1.1965  0.6454  0.6726
    1MOL0     H   87   7.264   6.855   5.171  1.0480  0.2982 -0.3626
    1MOL0     H   88   7.355   6.781   5.296 -0.5015 -1.2240 -2.2501
    1MOL0     H   89   7.230   6.942   5.465 -4.2773  1.7754  0.5911
    1MOL0     H   90   7.129   6.818   5.397 -0.4332  0.1271 -0.6535
    1MOL0     H   91   7.066   6.987   5.218 -0.4330 -1.5109  0.0536
    1MOL0     H   92   7.166   7.099   5.304 -1.1691  0.5802  1.0466
    1MOL0     H   93   7.002   7.152   5.466 -2.7815 -0.3010  1.3461
    1MOL0     H   94   6.977   6.989   5.498  1.3849  0.6879  0.3440
    1MOL0     H   95   6.668   6.911   5.385 -1.1047  0.6704 -0.0240
    1MOL0     H   96   6.416   6.890   5.600  1.1556  0.8846  0.6722
    1MOL0     H   97   6.365   6.962   5.441 -0.4031  0.2287 -0.7740
    1MOL0     H   98   6.490   6.840   5.440 -0.9100  0.7967  0.0575
    1MOL0     H   99   6.382   7.474   5.838 -0.0962 -1.1508 -2.3051
    1MOL0     H  100   6.178   7.575   5.954  2.6067 -0.7043 -1.0599
    1MOL0     H  101   5.792   7.515   5.712  0.9247 -0.9501  0.2505
    1MOL0     H  102   5.787   7.451   5.876 -2.8525  1.2899  0.8013
    1MOL0     H  103   5.755   7.707   5.952  0.2902  0.5577  0.5291
    1MOL0     H  104   5.746   7.739   5.782  2.3830  0.6407  2.2243
    1MOL0     H  105   5.563   7.536   5.913 -0.8903 -2.8374 -4.9468
    1MOL0     H  106   5.540   7.610   5.751 -1.2067 -5.1916  1.0037
    1MOL0     H  107   5.534   7.782   5.994 -0.5027 -1.4608  0.8521
    1MOL0     H  108   5.490   7.828   5.833  2.3884  0.1146  1.2521
    1MOL0     H  109   5.300   7.810   5.977 -4.5191 -1.8236 -0.0266
    1MOL0     H  110   5.337   7.649   6.020  0.2874 -2.0068 -0.9567
    1MOL0     H  111   5.260   7.754   5.730  1.4959  0.6872  0.4144
    1MOL0     H  112   5.298   7.581   5.756 -0.6440  0.3375  0.5007
    1MOL0     H  113   5.093   7.656   5.937 -0.9443 -2.2599 -0.2496
    1MOL0     H  114   5.112   7.523   5.830  0.2778  0.1283  0.8710
    1MOL0     H  115   5.049   7.648   5.632 -2.7437  0.8479 -0.5947
    1MOL0     H  116   5.064   7.797   5.707  2.7879 -1.1373 -0.1517
    1MOL0     H  117   5.953   7.466   5.591 -0.0162 -0.4107  0.5558
    1MOL0     H  118   6.145   7.345   5.515 -2.6719  0.4470 -0.5054
    1MOL0     H  119   6.628   7.351   5.591  2.7049  1.7896 -2.0330
    1MOL0     H  120   6.836   7.283   5.465  0.2580  0.3502  1.2832
    1MOL0     H  121   8.419   7.871   5.748 -0.6086 -1.2193 -0.3647
    1MOL0     H  122   8.616   7.918   5.895 -0.7905  0.3181 -1.1986
    1MOL0     H  123   8.612   8.088   6.455 -2.6016 -2.0625  1.2550
    1MOL0     H  124   8.793   8.126   6.613  1.5551  0.2708  1.0161
    1MOL0     H  125   9.169   7.959   6.762 -0.4616  0.9874 -0.5702
    1MOL0     H  126   9.097   7.823   6.665  0.7796 -0.6050  0.5379
    1MOL0     H  127   9.267   8.054   6.554 -2.5742  1.0260 -2.6150
    1MOL0     H  128   9.194   7.915   6.458  0.9332  1.0765  0.2309
    1MOL0     H  129   9.431   7.896   6.506  0.3072  1.2466  1.8115
    1MOL0     H  130   9.332   7.759   6.556  1.0175 -0.3278  0.3232
    1MOL0     H  131   9.521   7.815   6.699  1.8265  2.4465 -2.0290
    1MOL0     H  132   9.383   7.835   6.796 -0.2615 -1.2348 -0.4567
    1MOL0     H  133   9.579   8.210   6.767 -0.2756 -0.1963  1.0704
    1MOL0     H  134   9.015   7.790   6.463 -1.2352 -0.1604 -1.2480
    1MOL0     H  135   8.823   7.738   6.309 -2.0769  0.2947  0.4158
    2MOL0     O  136   2.211   3.675   3.923  0.0485  0.2854  0.6069
    2MOL0     C  137   2.164   3.679   3.809  0.8564  0.1320 -0.8003
    2MOL0     O  138   2.219   3.634   3.692 -0.5112 -0.0564 -0.1675
    2MOL0     C  139   2.352   3.599   3.708  0.2070 -0.6955  0.1175
    2MOL0     C  140   2.395   3.485   3.769 -0.2715  1.1143  0.6821
    2MOL0     C  141   2.532   3.467   3.794 -0.0337 -0.6073  0.7659
    2MOL0     C  142   2.631   3.543   3.717 -0.1077  0.0598 -0.0252
    2MOL0     O  143   2.766   3.525   3.733  0.1078  0.7266  0.7753
    2MOL0     C  144   2.837   3.638   3.800  0.5352  1.0583 -0.6004
    2MOL0     C  145   2.940   3.699   3.701  0.2913 -0.3204  0.8721
    2MOL0     C  146   3.039   3.802   3.754 -0.6534  0.0160  0.5318
    2MOL0     C  147   2.997   3.901   3.855  0.5511 -0.2927  0.4634
    2MOL0     C  148   3.081   4.027   3.841 -0.0836 -0.1367 -0.5469
    2MOL0     C  149   3.243   4.008   3.848 -0.3197 -0.3847  0.6791
    2MOL0     C  150   3.283   3.950   3.979  0.0272  0.4194  0.3897
    2MOL0     C  151   3.437   3.967   4.022  0.3663 -0.2524  0.0179
    2MOL0     N  152   3.462   3.890   4.146  0.3325  0.7166  0.5849
    2MOL0     C  153   3.433   3.934   4.269  0.1447  0.2651 -0.2481
    2MOL0     C  154   3.484   3.845   4.354  0.3278  1.3855  0.0136
    2MOL0     C  155   3.466   3.853   4.499  0.9336 -0.9512 -0.2650
    2MOL0     C  156   3.584   3.931   4.555  0.4303 -0.0710 -0.1729
    2MOL0     C  157   3.608   3.903   4.708  0.7327  0.3158  0.8839
    2MOL0     C  158   3.736   3.990   4.746 -0.5093  0.8746  0.3368
    2MOL0     O  159   3.707   4.128   4.736 -0.0021 -0.3527  0.2199
    2MOL0     C  160   3.796   4.216   4.784 -0.0775  0.2666  0.3912
    2MOL0     C  161   3.759   4.351   4.790  0.3141 -0.8926  0.4263
    2MOL0     C  162   3.839   4.456   4.843  0.7477  0.5476 -0.7800
    2MOL0     C  163   3.778   4.587   4.864  0.6371 -0.5689 -0.6452
    2MOL0     C  164   3.983   4.432   4.858  0.6429 -0.8259 -0.7717
    2MOL0     C  165   4.090   4.531   4.891  0.3707  0.5904 -0.3785
    2MOL0     O  166   4.207   4.470   4.931  0.3948  0.9826 -0.9004
    2MOL0     C  167   4.320   4.554   4.930  0.2198 -0.0480 -1.2994
    2MOL0     C  168   4.409   4.535   4.828 -0.6636 -0.8996 -0.0379
    2MOL0     C  169   4.527   4.608   4.839  0.4746  0.7326  0.0112
    2MOL0     C  170   4.557   4.703   4.943  1.6037  0.2494  0.1593
    2MOL0     O  171   4.675   4.771   4.953 -0.5286 -0.3792 -0.9385
    2MOL0     C  172   4.743   4.809   4.835  0.0732 -0.3147  0.4580
    2MOL0     C  173   4.819   4.942   4.864 -0.4143 -0.0601 -0.0998
    2MOL0     C  174   4.918   4.925   4.978 -0.5663  0.1683  0.3131
    2MOL0     C  175   5.018   5.040   4.980 -0.3920  0.5639 -0.6727
    2MOL0     C  176   5.100   5.059   5.098  0.4737 -0.9365  0.0996
    2MOL0     C  177   5.184   5.192   5.108  0.2324  0.4023  0.1059
    2MOL0     C  178   5.231   5.219   5.251 -1.0155  0.1030 -0.2164
    2MOL0     C  179   5.226   5.371   5.265 -0.5476 -0.6303  0.4530
    2MOL0    Cl  180   5.329   5.421   5.404 -0.2886 -0.0762  0.2066
    2MOL0     C  181   4.458   4.709   5.048 -0.5846  0.1079  0.5776
    2MOL0     C  182   4.338   4.641   5.047 -0.7285  0.5790  0.3893
    2MOL0     O  183   4.069   4.650   4.891 -0.1667  0.4473  0.6556
    2MOL0     C  184   4.014   4.292   4.860  0.1892 -0.2102 -0.5530
    2MOL0     C  185   3.928   4.187   4.833 -0.2591 -0.1630  0.1196
    2MOL0     N  186   3.546   3.740   4.282 -0.5840 -0.8574 -0.2792
    2MOL0     N  187   3.529   3.772   4.154  0.6227  0.4831 -0.4230
    2MOL0     C  188   2.587   3.650   3.644 -0.5253  0.1160  0.6626
    2MOL0     C  189   2.448   3.678   3.639 -0.6971 -0.1124  0.4307
    2MOL0     C  190   2.040   3.761   3.787  0.2612 -1.0524  0.2123
    2MOL0     C  191   1.970   3.812   3.892  0.2787 -0.3996 -0.6685
    2MOL0     C  192   1.874   3.911   3.869 -0.2480  0.3291 -0.2938
    2MOL0     C  193   1.822   3.950   3.744  0.1351 -0.7303  0.3859
    2MOL0     O  194   1.714   4.040   3.729 -0.8438 -0.4052  0.9997
    2MOL0     C  195   1.599   3.990   3.665 -0.2993 -0.3266  0.3493
    2MOL0     C  196   1.480   4.041   3.744  0.0868 -0.3669 -0.4570
    2MOL0     C  197   1.499   4.038   3.891 -0.8023 -0.4700  0.0558
    2MOL0     C  198   1.510   3.895   3.945  0.0367 -0.5113  0.7230
    2MOL0     C  199   1.381   3.834   3.928  0.0039  0.3881 -0.5546
    2MOL0     C  200   1.283   3.768   3.918  0.6755  0.0604 -0.9319
    2MOL0     C  201   1.886   3.881   3.636 -0.0493 -0.1903  0.0997
    2MOL0     C  202   1.998   3.799   3.656  0.0996 -0.2192  0.6723
    2MOL0     H  203   2.317   3.418   3.804 -2.3347  1.6802 -2.4560
    2MOL0     H  204   2.571   3.395   3.866  2.3438 -1.0477 -0.8437
    2MOL0     H  205   2.762   3.705   3.844 -1.6390 -0.2266 -2.1279
    2MOL0     H  206   2.882   3.579   3.880  1.3890  0.7438 -1.3080
    2MOL0     H  207   3.003   3.618   3.665  3.0767  3.1360 -3.0628
    2MOL0     H  208   2.884   3.732   3.612  1.7382  2.8737  1.0194
    2MOL0     H  209   3.119   3.751   3.809 -2.1864 -0.0081  2.8731
    2MOL0     H  210   3.086   3.848   3.666  0.9949  0.7651  1.7416
    2MOL0     H  211   2.897   3.924   3.817  1.2731 -1.0666 -2.0414
    2MOL0     H  212   2.988   3.859   3.956  0.4103 -1.8956 -0.1921
    2MOL0     H  213   3.048   4.059   3.742  1.3714 -2.0124 -1.7137
    2MOL0     H  214   3.049   4.084   3.929  0.4804 -1.8977  0.8634
    2MOL0     H  215   3.284   3.958   3.759 -2.7329  0.6238 -1.1215
    2MOL0     H  216   3.282   4.109   3.839 -0.1028 -0.5222  0.0316
    2MOL0     H  217   3.239   4.010   4.060 -0.5921 -0.3461  0.6335
    2MOL0     H  218   3.239   3.850   3.972 -1.3649  1.1040 -1.9586
    2MOL0     H  219   3.462   4.073   4.028  2.0148 -0.6061 -0.0917
    2MOL0     H  220   3.493   3.925   3.938  1.8142 -0.6522  1.1341
    2MOL0     H  221   3.377   4.021   4.303  0.3974  0.9250 -1.4416
    2MOL0     H  222   3.364   3.889   4.514 -0.0308 -2.9128 -1.6317
    2MOL0     H  223   3.446   3.758   4.549  1.1697 -2.3440 -2.6429
    2MOL0     H  224   3.569   4.038   4.542  1.4976  0.1645  0.4392
    2MOL0     H  225   3.676   3.901   4.503  0.0445 -1.8274  0.0858
    2MOL0     H  226   3.625   3.797   4.731 -1.7205  0.0663  1.8545
    2MOL0     H  227   3.518   3.921   4.768  0.2140  0.9145 -0.0596
    2MOL0     H  228   3.817   3.957   4.681  1.7112  1.9466  2.3790
    2MOL0     H  229   3.763   3.970   4.850 -0.9656 -1.8317  0.0106
    2MOL0     H  230   3.657   4.362   4.754  0.4385  0.5068  0.4400
    2MOL0     H  231   3.817   4.622   4.960 -0.4537 -0.7816 -0.1074
    2MOL0     H  232   3.819   4.659   4.793 -0.1002 -0.4174 -0.9278
    2MOL0     H  233   3.670   4.595   4.849  0.7280 -0.6888 -1.3972
    2MOL0     H  234   4.392   4.475   4.740 -0.3308  0.4987 -1.0945
    2MOL0     H  235   4.593   4.583   4.757  0.5843  1.9056 -0.2640
    2MOL0     H  236   4.814   4.735   4.798  2.2887  0.6420  2.5522
    2MOL0     H  237   4.671   4.826   4.755  1.9079 -1.8806 -1.6503
    2MOL0     H  238   4.873   4.991   4.782 -0.8324 -0.9679 -0.9339
    2MOL0     H  239   4.735   5.006   4.892 -2.0187 -1.1420 -2.1263
    2MOL0     H  240   4.977   4.834   4.963  2.6850  1.9753  1.3054
    2MOL0     H  241   4.872   4.922   5.077 -0.0252 -3.4241  0.5976
    2MOL0     H  242   5.086   5.046   4.894 -0.3880  1.5615 -0.6091
    2MOL0     H  243   4.952   5.126   4.968 -0.7382  0.8366  2.4180
    2MOL0     H  244   5.163   4.972   5.118  0.2689 -0.8917  0.9833
    2MOL0     H  245   5.026   5.049   5.178 -0.6462  2.2042 -0.4155
    2MOL0     H  246   5.270   5.193   5.040  1.0921 -1.0179  1.1141
    2MOL0     H  247   5.119   5.276   5.082 -0.5297  0.2369  1.4017
    2MOL0     H  248   5.335   5.187   5.245 -0.8120  0.9051 -1.4341
    2MOL0     H  249   5.174   5.161   5.324 -0.0042 -0.2717  0.2936
    2MOL0     H  250   5.128   5.416   5.285  0.7569  1.9686  1.3577
    2MOL0     H  251   5.274   5.413   5.176  0.6694 -1.5056  0.6758
    2MOL0     H  252   4.494   4.777   5.125  3.9650  1.0087 -1.9947
    2MOL0     H  253   4.263   4.644   5.125  0.1121 -2.9128  1.5029
    2MOL0     H  254   4.119   4.267   4.868 -0.3424 -2.2026  1.1686
    2MOL0     H  255   3.959   4.083   4.844 -0.3622 -0.0213  2.0653
    2MOL0     H  256   2.665   3.706   3.593  0.3681 -0.1839  1.6395
    2MOL0     H  257   2.427   3.767   3.580  2.8759  0.0216 -0.9099
    2MOL0     H  258   1.992   3.793   3.997 -0.7824  0.8488 -0.1946
    2MOL0     H  259   1.840   3.961   3.959  2.6304  0.4822  0.8061
    2MOL0     H  260   1.582   4.009   3.559 -4.5860  0.5509  0.9941
    2MOL0     H  261   1.601   3.881   3.680 -0.4098 -0.3621  0.1094
    2MOL0     H  262   1.392   3.989   3.704 -0.2871  1.2728 -1.8808
    2MOL0     H  263   1.454   4.140   3.705  0.1524 -1.7050 -4.3039
    2MOL0     H  264   1.418   4.089   3.944  0.0108  2.0774 -0.9797
    2MOL0     H  265   1.594   4.082   3.922 -0.3466 -0.7654 -0.8873
    2MOL0     H  266   1.529   3.913   4.051 -2.9365  0.7875  1.1558
    2MOL0     H  267   1.598   3.847   3.901 -0.4678 -1.7444  1.0312
    2MOL0     H  268   1.212   3.689   3.904  2.4790 -2.1618  1.4316
    2MOL0     H  269   1.847   3.896   3.536 -3.7124 -1.2755  1.2261
    2MOL0     H  270   2.045   3.764   3.565  0.8077 -1.5043  1.5055
    3MOL0     O  271   7.027   1.516   1.729 -0.1400 -0.4943  0.5425
    3MOL0     C  272   6.987   1.498   1.842  1.0292  0.3246  0.2563
    3MOL0     O  273   6.989   1.385   1.914 -0.4938  0.2092  0.1333
    3MOL0     C  274   7.040   1.258   1.873  0.2614  0.2800 -0.1437
    3MOL0     C  275   7.079   1.180   1.984  0.6072  0.0571 -0.2551
    3MOL0     C  276   7.174   1.072   1.965 -0.0842 -0.1658  0.1968
    3MOL0     C  277   7.218   1.048   1.831 -0.5898  0.9477 -0.2363
    3MOL0     O  278   7.312   0.952   1.795 -0.1003  0.0752 -0.8366
    3MOL0     C  279   7.441   1.006   1.763  0.7646  0.5462  0.7962
    3MOL0     C  280   7.552   0.922   1.808 -0.2220 -0.8062  0.4652
    3MOL0     C  281   7.564   0.929   1.957 -0.4146  0.2786  0.2393
    3MOL0     C  282   7.696   0.874   2.016 -0.2075 -0.2475 -0.2430
    3MOL0     C  283   7.742   0.939   2.150 -0.1730 -0.2290 -0.3591
    3MOL0     C  284   7.639   0.920   2.251 -0.1658 -0.4468 -0.0248
    3MOL0     C  285   7.666   1.012   2.374  0.0447 -0.4928 -0.5168
    3MOL0     C  286   7.806   1.041   2.421  0.7474  0.2650  0.3265
    3MOL0     N  287   7.873   0.926   2.491 -0.7141 -0.2368 -1.1537
    3MOL0     C  288   7.902   0.799   2.429  0.2375 -0.0911  0.3409
    3MOL0     C  289   7.964   0.732   2.530 -0.1482  0.7703  0.0415
    3MOL0     C  290   8.008   0.581   2.540  0.9135  0.4595  0.6139
    3MOL0     C  291   7.902   0.480   2.568  0.2451  0.1099 -0.6785
    3MOL0     C  292   7.812   0.521   2.689 -0.7659 -0.0491  0.4828
    3MOL0     C  293   7.754   0.402   2.758  0.1534 -0.0336 -0.2595
    3MOL0     O  294   7.685   0.458   2.870 -0.0836  0.1179 -0.1188
    3MOL0     C  295   7.608   0.381   2.948  0.5600  1.4171 -0.2889
    3MOL0     C  296   7.606   0.240   2.956  0.0091 -0.2992 -0.2176
    3MOL0     C  297   7.507   0.169   3.028 -0.1769  0.0942  0.7882
    3MOL0     C  298   7.517   0.020   3.002 -0.5979 -1.1310 -0.2948
    3MOL0     C  299   7.404   0.241   3.104 -0.3376 -0.1907  0.1311
    3MOL0     C  300   7.284   0.183   3.171  1.1135 -0.7490 -0.3072
    3MOL0     O  301   7.204   0.280   3.217  0.8859  0.6833 -1.1305
    3MOL0     C  302   7.069   0.253   3.245 -1.3534  0.1099  1.0054
    3MOL0     C  303   7.001   0.182   3.150  0.2855 -0.4273  0.3696
    3MOL0     C  304   6.858   0.173   3.155 -0.3728  0.0663 -0.3780
    3MOL0     C  305   6.783   0.235   3.258  0.0642 -0.1692 -0.0583
    3MOL0     O  306   6.648   0.225   3.269  0.1978  0.1436 -0.5640
    3MOL0     C  307   6.567   0.213   3.157  0.8511 -0.7290 -0.2630
    3MOL0     C  308   6.570   0.307   3.036 -0.8354  0.1058  1.1352
    3MOL0     C  309   6.479   0.253   2.931 -0.2430 -0.0318  0.6059
    3MOL0     C  310   6.439   0.362   2.828  0.6981 -1.0720  0.0357
    3MOL0     C  311   6.352   0.311   2.709  0.3698 -0.1046  0.4485
    3MOL0     C  312   6.325   0.419   2.598  0.7928 -0.0983  1.0292
    3MOL0     C  313   6.438   0.480   2.522 -0.6492  0.5117 -0.4805
    3MOL0     C  314   6.537   0.377   2.449  0.3793  0.4855  0.0780
    3MOL0    Cl  315   6.438   0.307   2.324  0.1375  0.3077 -0.1483
    3MOL0     C  316   6.853   0.302   3.357  0.1831  0.1957  0.3177
    3MOL0     C  317   6.997   0.319   3.353  0.5668 -0.5460  1.2917
    3MOL0     O  318   7.286   0.069   3.202  0.4417 -0.1290  0.0912
    3MOL0     C  319   7.425   0.384   3.109 -0.2290 -0.5095  0.6310
    3MOL0     C  320   7.512   0.451   3.021 -1.0195  0.4123  1.5027
    3MOL0     N  321   7.971   0.801   2.649  0.0727 -0.9348  0.4407
    3MOL0     N  322   7.914   0.919   2.626 -0.6709  0.1273  0.6691
    3MOL0     C  323   7.165   1.120   1.725  0.5538 -1.1632  0.2823
    3MOL0     C  324   7.082   1.223   1.741 -0.2844 -0.7345 -0.2719
    3MOL0     C  325   6.919   1.614   1.909  0.3632  0.3443 -0.9530
    3MOL0     C  326   6.929   1.746   1.862  0.0232 -0.8740 -0.3279
    3MOL0     C  327   6.850   1.854   1.903  0.1987 -0.4040  0.4187
    3MOL0     C  328   6.760   1.822   2.002 -0.3483  0.3275 -0.7081
    3MOL0     O  329   6.688   1.924   2.053  0.0890  0.2559  0.7430
    3MOL0     C  330   6.544   1.914   2.044 -0.0168 -0.0431  0.0173
    3MOL0     C  331   6.487   2.028   1.954 -0.2728  0.0895  0.4902
    3MOL0     C  332   6.497   2.167   2.027  1.2220 -0.2841  0.0263
    3MOL0     C  333   6.434   2.288   1.950  0.4761 -0.3560 -0.1704
    3MOL0     C  334   6.468   2.304   1.808 -0.3773  0.0448  0.8758
    3MOL0     C  335   6.496   2.328   1.692  0.3472 -0.3508 -0.5368
    3MOL0     C  336   6.738   1.690   2.058 -0.9398  0.4935 -0.4240
    3MOL0     C  337   6.829   1.585   2.017 -0.0732 -0.8485  0.7555
    3MOL0     H  338   7.044   1.219   2.079  2.9467  1.6301  0.0378
    3MOL0     H  339   7.221   1.020   2.047 -0.8261 -0.1516  0.6402
    3MOL0     H  340   7.438   1.005   1.654  0.0135  2.1390  0.7712
    3MOL0     H  341   7.461   1.110   1.790 -1.6829  1.5571 -0.9505
    3MOL0     H  342   7.539   0.822   1.765  1.9157  0.6194 -4.1018
    3MOL0     H  343   7.641   0.971   1.769  0.8283 -3.7830 -1.2123
    3MOL0     H  344   7.550   1.030   1.996 -4.5564 -0.0255  0.0243
    3MOL0     H  345   7.473   0.882   1.996 -0.6214  0.5665  0.1179
    3MOL0     H  346   7.675   0.769   2.039  1.2815  0.0181  2.8172
    3MOL0     H  347   7.767   0.887   1.934  0.5994  2.0121  0.7503
    3MOL0     H  348   7.834   0.887   2.177 -1.5642 -1.3578  2.5704
    3MOL0     H  349   7.770   1.044   2.138  0.7390 -0.4931 -0.6452
    3MOL0     H  350   7.542   0.941   2.205  1.1883  2.8318 -1.6996
    3MOL0     H  351   7.630   0.812   2.268 -3.9514 -0.2145  0.2923
    3MOL0     H  352   7.624   1.109   2.344  0.7601  0.1945  0.6529
    3MOL0     H  353   7.600   0.968   2.449  0.7852  1.8015  1.6359
    3MOL0     H  354   7.799   1.134   2.477 -4.4657 -0.0136  0.6096
    3MOL0     H  355   7.865   1.057   2.330  2.0227  1.1731  1.2728
    3MOL0     H  356   7.889   0.759   2.329  1.0723 -1.4918  0.7618
    3MOL0     H  357   8.055   0.544   2.448  0.0390 -1.3996  0.8712
    3MOL0     H  358   8.085   0.570   2.616  0.8912 -3.1768  0.3075
    3MOL0     H  359   7.953   0.384   2.585  0.7909  0.2636 -1.4266
    3MOL0     H  360   7.836   0.471   2.482 -1.0925  0.2375  0.3048
    3MOL0     H  361   7.735   0.588   2.650  1.5351  2.6427  0.3003
    3MOL0     H  362   7.856   0.581   2.768 -2.3351  0.5199  0.9654
    3MOL0     H  363   7.837   0.347   2.803 -0.4441 -0.2989  0.5269
    3MOL0     H  364   7.701   0.334   2.691  1.5114 -2.9060  1.3718
    3MOL0     H  365   7.685   0.181   2.911  0.7752  0.9933 -0.6130
    3MOL0     H  366   7.619  -0.016   3.020  0.8126  2.8183  0.7004
    3MOL0     H  367   7.446  -0.042   3.057 -1.5713  0.6112  0.5054
    3MOL0     H  368   7.493   0.013   2.896 -0.0535  3.1822 -0.8840
    3MOL0     H  369   7.050   0.131   3.066 -2.6057 -0.3359 -1.4977
    3MOL0     H  370   6.808   0.113   3.079 -1.3597  2.0728 -1.3972
    3MOL0     H  371   6.594   0.114   3.117  2.0036 -0.4857 -0.1348
    3MOL0     H  372   6.463   0.220   3.188  0.4430 -0.2904 -1.6468
    3MOL0     H  373   6.540   0.408   3.065 -0.7143  1.5254 -3.0515
    3MOL0     H  374   6.672   0.322   2.998 -2.1312 -1.7547 -3.9387
    3MOL0     H  375   6.385   0.211   2.967 -1.0720  0.5596 -0.7535
    3MOL0     H  376   6.539   0.184   2.872  0.5118  0.9444  0.2006
    3MOL0     H  377   6.380   0.431   2.888  1.4441  1.1748 -1.6677
    3MOL0     H  378   6.529   0.413   2.792 -0.8475 -1.0750 -4.4876
    3MOL0     H  379   6.257   0.271   2.746 -1.3379  1.2649 -2.1979
    3MOL0     H  380   6.396   0.228   2.653 -0.9762 -2.3599  2.5119
    3MOL0     H  381   6.252   0.379   2.528  1.1235  1.1479 -0.0678
    3MOL0     H  382   6.270   0.506   2.635 -0.4214 -0.7727  0.8430
    3MOL0     H  383   6.505   0.528   2.594  2.1033 -2.5099 -0.7977
    3MOL0     H  384   6.399   0.563   2.463  0.6009  1.2327 -0.3328
    3MOL0     H  385   6.581   0.299   2.511 -1.5133  1.0971  2.3591
    3MOL0     H  386   6.619   0.435   2.407  0.6902 -0.1764 -0.2397
    3MOL0     H  387   6.784   0.346   3.428 -1.1843 -0.5654 -0.4989
    3MOL0     H  388   7.050   0.373   3.432 -0.6125  1.3003  0.8657
    3MOL0     H  389   7.363   0.450   3.168 -0.7936 -2.2966  2.1407
    3MOL0     H  390   7.511   0.559   3.015 -1.9543  0.5075  2.8878
    3MOL0     H  391   7.190   1.104   1.620 -1.3753 -0.8329 -0.2637
    3MOL0     H  392   7.050   1.285   1.658  0.5342  1.2332  0.8212
    3MOL0     H  393   6.997   1.755   1.778  1.4702  0.0877  0.9243
    3MOL0     H  394   6.861   1.956   1.867 -0.4120  0.1737  1.7845
    3MOL0     H  395   6.510   1.817   2.007  0.1094 -0.0468 -0.0889
    3MOL0     H  396   6.500   1.935   2.142  0.9010 -1.8192  0.8408
    3MOL0     H  397   6.381   2.011   1.933  0.3116  0.3189 -3.1946
    3MOL0     H  398   6.552   2.036   1.867  1.1829 -0.9356  1.4271
    3MOL0     H  399   6.602   2.188   2.048  1.2781  0.2340 -0.7739
    3MOL0     H  400   6.453   2.157   2.127  3.0490  1.3877  1.0767
    3MOL0     H  401   6.470   2.375   2.005  1.2343 -0.5896 -0.2755
    3MOL0     H  402   6.326   2.296   1.965  0.9346  1.6604  2.7780
    3MOL0     H  403   6.508   2.368   1.593  1.9944  3.0817  0.8826
    3MOL0     H  404   6.671   1.668   2.140  1.6918  1.6097  2.2293
    3MOL0     H  405   6.809   1.486   2.057 -1.0882 -1.2574 -0.6945
    4MOL0     O  406   5.731   0.743   0.831 -0.3891  0.2672 -0.4426
    4MOL0     C  407   5.683   0.818   0.916  0.6320 -0.4399 -0.4236
    4MOL0     O  408   5.548   0.829   0.946  0.0569 -0.1670  0.7459
    4MOL0     C  409   5.458   0.773   0.859  0.7750  1.0252 -0.8593
    4MOL0     C  410   5.458   0.777   0.716 -0.1493 -0.1460 -0.3519
    4MOL0     C  411   5.370   0.700   0.635 -0.0351 -0.4313 -0.7937
    4MOL0     C  412   5.261   0.629   0.690 -0.2147 -0.0155 -0.2295
    4MOL0     O  413   5.164   0.582   0.605  0.1245  0.1590  0.1587
    4MOL0     C  414   5.123   0.444   0.621 -1.3095  0.0386 -0.7526
    4MOL0     C  415   5.054   0.401   0.489 -0.0984 -0.9535  0.0931
    4MOL0     C  416   4.922   0.474   0.461  0.2145 -0.5401 -0.5939
    4MOL0     C  417   4.864   0.455   0.318 -0.3680  0.5913  0.0635
    4MOL0     C  418   4.769   0.332   0.296  0.1206 -0.1552  0.0148
    4MOL0     C  419   4.636   0.345   0.377 -0.1921 -1.4613 -1.0129
    4MOL0     C  420   4.543   0.224   0.353 -0.5523  0.4564 -0.2710
    4MOL0     C  421   4.583   0.096   0.433  0.4845 -1.0603 -0.2063
    4MOL0     N  422   4.499  -0.010   0.377  0.0438 -0.5685  1.0418
    4MOL0     C  423   4.367  -0.037   0.394  0.7315  0.4952  0.7753
    4MOL0     C  424   4.338  -0.151   0.330 -0.7204  0.7048 -0.1515
    4MOL0     C  425   4.219  -0.233   0.324 -0.6305  0.2530 -0.3214
    4MOL0     C  426   4.120  -0.209   0.441 -0.6901 -0.8680  0.9253
    4MOL0     C  427   4.000  -0.307   0.432 -0.3593  0.1258 -0.8280
    4MOL0     C  428   3.892  -0.292   0.539  0.8537 -0.5747  0.5908
    4MOL0     O  429   3.789  -0.207   0.507 -0.4157 -0.3744  0.4838
    4MOL0     C  430   3.664  -0.231   0.557  0.1342  0.3517 -0.7731
    4MOL0     C  431   3.634  -0.284   0.686 -0.3651  0.1743 -0.3325
    4MOL0     C  432   3.500  -0.280   0.732 -0.2222  0.3941 -0.0546
    4MOL0     C  433   3.471  -0.302   0.878 -0.2348 -0.2392 -0.8546
    4MOL0     C  434   3.393  -0.261   0.644  0.5369 -0.5816  0.9609
    4MOL0     C  435   3.254  -0.268   0.670  0.1370 -0.3344 -0.7036
    4MOL0     O  436   3.188  -0.203   0.769 -0.3974 -0.4405  0.0325
    4MOL0     C  437   3.055  -0.217   0.793  0.0311 -0.0201  0.0826
    4MOL0     C  438   3.013  -0.144   0.914 -0.0885 -0.4176 -0.6904
    4MOL0     C  439   2.880  -0.142   0.953 -0.2154  0.3005  0.5395
    4MOL0     C  440   2.779  -0.208   0.879  0.2712 -0.4034  0.4080
    4MOL0     O  441   2.637  -0.201   0.897  0.1780 -1.4558 -0.1132
    4MOL0     C  442   2.587  -0.062   0.887  0.7199  0.0572 -0.2808
    4MOL0     C  443   2.534  -0.002   1.012  0.5576 -0.0312  0.2853
    4MOL0     C  444   2.384  -0.052   1.024  0.2556 -0.6218  0.6658
    4MOL0     C  445   2.330  -0.034   1.169 -0.0498 -0.3145  0.4002
    4MOL0     C  446   2.187  -0.082   1.199 -0.3226 -0.2559  0.1925
    4MOL0     C  447   2.131  -0.039   1.335 -0.0971  0.1388  0.6810
    4MOL0     C  448   2.204  -0.098   1.459 -0.3156 -0.1606  0.1960
    4MOL0     C  449   2.126  -0.047   1.590 -0.5811  0.4607  1.1176
    4MOL0    Cl  450   2.135   0.129   1.582 -0.1498  0.2928 -0.2618
    4MOL0     C  451   2.816  -0.277   0.767  0.0448  0.2580 -0.8728
    4MOL0     C  452   2.951  -0.282   0.726  0.2503  0.7917 -0.0146
    4MOL0     O  453   3.203  -0.345   0.591  0.5428 -0.1036  0.5714
    4MOL0     C  454   3.427  -0.210   0.514  0.3534  0.3140 -0.0106
    4MOL0     C  455   3.559  -0.196   0.471  0.5093  0.0015  0.0377
    4MOL0     N  456   4.449  -0.185   0.255 -0.4747 -0.0590 -0.4788
    4MOL0     N  457   4.544  -0.101   0.281 -0.9957  0.1347  0.1390
    4MOL0     C  458   5.256   0.635   0.829 -0.0996  0.3473 -0.3350
    4MOL0     C  459   5.350   0.697   0.913  0.1301 -0.5628  1.2425
    4MOL0     C  460   5.776   0.913   1.002  0.0383 -0.9089  0.0461
    4MOL0     C  461   5.729   0.955   1.119 -0.6147  0.1070 -0.2041
    4MOL0     C  462   5.793   1.062   1.186 -1.1228 -0.2372 -0.4209
    4MOL0     C  463   5.919   1.103   1.135  0.4425  0.7117 -1.6235
    4MOL0     O  464   5.980   1.204   1.200 -0.4862  0.4094 -0.5358
    4MOL0     C  465   6.111   1.224   1.178 -1.0079 -1.9747  0.5499
    4MOL0     C  466   6.165   1.340   1.256  0.2941  0.2110 -0.2958
    4MOL0     C  467   6.318   1.315   1.277  1.4030 -0.0881 -0.1763
    4MOL0     C  468   6.410   1.319   1.145  0.1077  0.4585 -0.0797
    4MOL0     C  469   6.440   1.455   1.092 -0.5590  1.1381 -0.4169
    4MOL0     C  470   6.445   1.567   1.049 -0.3158  0.0293 -0.2216
    4MOL0     C  471   5.967   1.059   1.014 -0.6115 -0.1633 -0.2433
    4MOL0     C  472   5.897   0.962   0.951 -0.1582  0.2931  0.1939
    4MOL0     H  473   5.541   0.822   0.662  0.5862 -0.5485  0.4285
    4MOL0     H  474   5.400   0.698   0.531  2.7211  1.0969 -0.1290
    4MOL0     H  475   5.212   0.380   0.615 -0.5858  1.1170 -1.9956
    4MOL0     H  476   5.063   0.425   0.710 -0.8353  2.1507  0.0602
    4MOL0     H  477   5.126   0.425   0.410 -1.2328  0.9780 -0.4153
    4MOL0     H  478   5.045   0.293   0.505 -1.3396 -0.9506 -0.4911
    4MOL0     H  479   4.853   0.428   0.532 -1.5676  1.0170 -1.2390
    4MOL0     H  480   4.942   0.581   0.477 -2.6838  0.3439 -2.1897
    4MOL0     H  481   4.807   0.547   0.301 -1.0846 -0.3046 -2.9128
    4MOL0     H  482   4.934   0.451   0.235 -0.5645  1.9982 -0.1937
    4MOL0     H  483   4.737   0.332   0.192  1.7421  0.5400 -0.5173
    4MOL0     H  484   4.822   0.237   0.308  0.3784 -0.2721 -1.7780
    4MOL0     H  485   4.647   0.348   0.486  1.7739  0.8108 -1.1892
    4MOL0     H  486   4.590   0.440   0.348  1.0236 -0.7637 -0.7293
    4MOL0     H  487   4.438   0.241   0.381 -0.0428  0.2768  1.9651
    4MOL0     H  488   4.547   0.197   0.247  0.0370 -2.4312  0.4145
    4MOL0     H  489   4.562   0.119   0.538 -1.7079  0.6673 -0.9508
    4MOL0     H  490   4.690   0.077   0.419  1.5561  1.9512  2.4001
    4MOL0     H  491   4.292   0.023   0.445 -2.3943 -1.1567 -1.5504
    4MOL0     H  492   4.170  -0.230   0.226 -0.0533  0.0053 -0.6215
    4MOL0     H  493   4.248  -0.337   0.343  1.4238  0.7411 -0.5830
    4MOL0     H  494   4.080  -0.109   0.421 -2.2265 -2.1146 -3.0392
    4MOL0     H  495   4.172  -0.210   0.538  0.5980  2.0084  0.3893
    4MOL0     H  496   4.047  -0.403   0.454 -2.8088 -0.9788 -0.0749
    4MOL0     H  497   3.963  -0.301   0.329  1.2733  0.1912 -1.4502
    4MOL0     H  498   3.950  -0.256   0.625  2.5107  1.3819 -1.2410
    4MOL0     H  499   3.849  -0.389   0.564 -2.3140  0.2797 -0.9496
    4MOL0     H  500   3.712  -0.304   0.758 -0.3618  1.1255 -0.0711
    4MOL0     H  501   3.550  -0.360   0.927  0.3256  2.3745  1.6269
    4MOL0     H  502   3.468  -0.204   0.926 -2.9441  0.8404 -2.9815
    4MOL0     H  503   3.379  -0.360   0.894 -0.2838  0.6002  2.8745
    4MOL0     H  504   3.086  -0.098   0.979 -0.7557 -0.5038  0.1393
    4MOL0     H  505   2.856  -0.090   1.045 -2.0008  2.1926 -0.8919
    4MOL0     H  506   2.677  -0.008   0.856 -0.0462  0.1626 -2.5641
    4MOL0     H  507   2.507  -0.047   0.813 -1.1422  3.4065  2.1301
    4MOL0     H  508   2.598  -0.036   1.094  4.2603  0.1775 -2.3179
    4MOL0     H  509   2.541   0.107   1.009  3.2510  0.0101  3.2419
    4MOL0     H  510   2.366  -0.157   0.997  0.2917 -0.5514  0.3575
    4MOL0     H  511   2.324   0.009   0.956  3.4038  1.3700 -0.5388
    4MOL0     H  512   2.396  -0.084   1.241  0.2746  1.0899  1.1113
    4MOL0     H  513   2.338   0.072   1.194 -0.7313 -0.3709  0.8757
    4MOL0     H  514   2.173  -0.191   1.199 -1.8288 -0.0790  0.4062
    4MOL0     H  515   2.122  -0.032   1.126  0.6596 -0.8478 -1.1244
    4MOL0     H  516   2.136   0.071   1.336 -1.1349  0.1974  0.8182
    4MOL0     H  517   2.025  -0.065   1.346 -0.3946  0.9963 -0.0195
    4MOL0     H  518   2.308  -0.066   1.460  0.7476 -2.6815 -4.1682
    4MOL0     H  519   2.204  -0.208   1.455  1.2319 -0.1271 -1.3242
    4MOL0     H  520   2.179  -0.084   1.678  2.3269  1.2993 -0.1666
    4MOL0     H  521   2.025  -0.088   1.588 -0.5872  0.4114 -2.1939
    4MOL0     H  522   2.743  -0.332   0.709  2.0375 -2.1301 -1.2966
    4MOL0     H  523   2.976  -0.352   0.647 -1.6190 -0.6838  0.6200
    4MOL0     H  524   3.356  -0.195   0.433 -3.1661  0.1028  2.7703
    4MOL0     H  525   3.592  -0.160   0.374 -0.9029 -0.2980 -0.5868
    4MOL0     H  526   5.169   0.593   0.878  0.2926 -0.1213 -0.0285
    4MOL0     H  527   5.334   0.681   1.019 -0.0219 -3.0103  0.9224
    4MOL0     H  528   5.631   0.925   1.157 -0.5673 -0.6738 -0.6803
    4MOL0     H  529   5.755   1.100   1.280  1.0707 -0.0795  0.4666
    4MOL0     H  530   6.167   1.133   1.202  2.2663 -0.8836 -2.1135
    4MOL0     H  531   6.134   1.256   1.076  1.1440  0.6576  1.7429
    4MOL0     H  532   6.122   1.331   1.356  0.6205  2.1237  0.0537
    4MOL0     H  533   6.149   1.439   1.212  0.7682 -0.7007 -2.7190
    4MOL0     H  534   6.325   1.219   1.328  0.1881 -0.2168 -0.2121
    4MOL0     H  535   6.355   1.389   1.348  2.6165  0.4237 -1.2993
    4MOL0     H  536   6.364   1.257   1.069 -0.2550  1.5340 -0.7540
    4MOL0     H  537   6.506   1.273   1.172  1.1407  2.3964 -0.2638
    4MOL0     H  538   6.445   1.665   1.008 -0.3578 -0.2877 -0.9915
    4MOL0     H  539   6.054   1.105   0.968  0.4032  0.2992  2.0012
    4MOL0     H  540   5.942   0.932   0.857  2.8031  3.2698  0.4874
    5MOL0     O  541   5.002   5.497   4.495  0.4493  0.1670  0.0797
    5MOL0     C  542   5.081   5.467   4.406  0.1851  0.1661 -0.0478
    5MOL0     O  543   5.042   5.406   4.289  0.0791  0.0754 -0.7100
    5MOL0     C  544   4.911   5.353   4.273  0.0074  0.8572 -0.4531
    5MOL0     C  545   4.827   5.303   4.372  0.7176  0.3620 -0.6474
    5MOL0     C  546   4.686   5.271   4.341  0.4004  0.1906  0.5805
    5MOL0     C  547   4.648   5.261   4.208  0.1341  0.7315  0.4235
    5MOL0     O  548   4.525   5.197   4.182 -0.4166  0.0516 -0.2806
    5MOL0     C  549   4.509   5.142   4.049 -0.1597 -0.2816 -0.1529
    5MOL0     C  550   4.364   5.090   4.039 -0.7065 -0.0367 -0.0265
    5MOL0     C  551   4.329   5.062   3.892  0.6843  0.5398  0.6855
    5MOL0     C  552   4.183   5.095   3.856 -0.7457 -0.1846  0.7050
    5MOL0     C  553   4.079   4.992   3.902 -0.3496 -0.0357  0.1516
    5MOL0     C  554   3.935   5.043   3.915 -0.3755 -0.9783  0.7503
    5MOL0     C  555   3.912   5.165   4.003 -0.3008  0.8121  0.5700
    5MOL0     C  556   3.880   5.138   4.156  0.1331 -0.2645 -0.1429
    5MOL0     N  557   3.789   5.239   4.218 -1.3162 -0.4639  0.7518
    5MOL0     C  558   3.666   5.272   4.171  0.0195  0.3948 -0.1057
    5MOL0     C  559   3.624   5.372   4.256 -1.1470  0.0615  0.2079
    5MOL0     C  560   3.489   5.434   4.258  0.4844 -0.1212 -0.2638
    5MOL0     C  561   3.375   5.329   4.275  0.3285  0.3639  0.5285
    5MOL0     C  562   3.251   5.393   4.234 -0.3362  0.7189  0.3983
    5MOL0     C  563   3.143   5.302   4.288 -0.3035 -0.3856 -0.2187
    5MOL0     O  564   3.016   5.364   4.256 -0.3579  0.1796  0.1495
    5MOL0     C  565   2.938   5.317   4.157  0.1323 -0.5277 -0.0561
    5MOL0     C  566   2.993   5.253   4.045  0.4316  0.2483  0.3747
    5MOL0     C  567   2.915   5.180   3.949  0.3755 -0.8952 -0.2347
    5MOL0     C  568   2.975   5.132   3.822 -0.1700  0.0488  0.3863
    5MOL0     C  569   2.777   5.158   3.976  0.5798  0.3291  0.0089
    5MOL0     C  570   2.684   5.064   3.902 -1.5314  0.6634 -0.2578
    5MOL0     O  571   2.759   4.964   3.836  0.4114  0.4722 -0.1858
    5MOL0     C  572   2.694   4.866   3.763 -1.3083 -0.9377 -0.6277
    5MOL0     C  573   2.685   4.740   3.818  0.2551  0.3668 -0.2467
    5MOL0     C  574   2.624   4.642   3.750  0.7995 -0.2203  0.0656
    5MOL0     C  575   2.567   4.666   3.620  0.5513  0.6179 -1.3616
    5MOL0     O  576   2.505   4.567   3.554  0.3672 -0.1082  0.3892
    5MOL0     C  577   2.498   4.580   3.407  0.2510 -0.3013 -0.7210
    5MOL0     C  578   2.489   4.432   3.357 -0.0228 -0.0839 -0.1027
    5MOL0     C  579   2.452   4.433   3.215 -0.4110 -0.3940  0.0235
    5MOL0     C  580   2.354   4.310   3.188  0.0633  0.0683 -0.3922
    5MOL0     C  581   2.265   4.294   3.063  1.2243  0.0033  0.3598
    5MOL0     C  582   2.332   4.305   2.931 -0.5091 -0.2809  0.5766
    5MOL0     C  583   2.231   4.325   2.815 -0.4595  0.4443 -0.1140
    5MOL0     C  584   2.148   4.201   2.776  0.1814  0.3093 -1.1400
    5MOL0    Cl  585   2.199   4.106   2.639 -0.3771  0.0282 -0.0268
    5MOL0     C  586   2.574   4.790   3.574  0.2301 -0.1006  1.3184
    5MOL0     C  587   2.640   4.892   3.637 -0.1465  0.4351 -0.4287
    5MOL0     O  588   2.566   5.073   3.903 -0.2925  0.4966 -0.5254
    5MOL0     C  589   2.720   5.239   4.072 -0.3176 -1.3991 -0.2723
    5MOL0     C  590   2.800   5.313   4.167  0.1747  0.0969  0.1518
    5MOL0     N  591   3.726   5.402   4.343  0.0724  0.2560 -0.3121
    5MOL0     N  592   3.822   5.322   4.320  0.3308 -0.1633 -0.2841
    5MOL0     C  593   4.738   5.314   4.109  0.5711  0.5936 -0.4117
    5MOL0     C  594   4.863   5.353   4.142  0.1194  0.6362 -0.0113
    5MOL0     C  595   5.223   5.495   4.433  0.1863  0.6877 -0.4953
    5MOL0     C  596   5.320   5.445   4.346 -0.3694  0.7970  0.8690
    5MOL0     C  597   5.459   5.459   4.369 -0.6386 -0.2631 -0.7570
    5MOL0     C  598   5.495   5.541   4.486 -0.3424  1.3194  0.1473
    5MOL0     O  599   5.630   5.564   4.497  0.5532  0.6121 -0.5609
    5MOL0     C  600   5.664   5.691   4.558 -0.5674 -0.3492 -0.2171
    5MOL0     C  601   5.819   5.721   4.549 -0.5601  0.2030 -0.2500
    5MOL0     C  602   5.898   5.621   4.641 -0.2222  0.1928  0.3363
    5MOL0     C  603   6.048   5.645   4.643 -0.2644 -0.3637 -0.1003
    5MOL0     C  604   6.083   5.738   4.750  0.3788 -0.0244 -0.9549
    5MOL0     C  605   6.120   5.802   4.849  0.3892  0.5103  0.4530
    5MOL0     C  606   5.394   5.581   4.574  0.2922  0.4100 -0.2053
    5MOL0     C  607   5.260   5.557   4.558  0.6495  0.3605  0.1843
    5MOL0     H  608   4.856   5.296   4.476 -4.3875 -2.3054  0.9258
    5MOL0     H  609   4.624   5.237   4.423  1.1737  0.2175  1.1940
    5MOL0     H  610   4.528   5.222   3.977  1.5919 -1.3050 -0.9134
    5MOL0     H  611   4.584   5.066   4.023 -0.9856 -0.8056 -1.0860
    5MOL0     H  612   4.350   4.995   4.092  3.9443 -1.9067 -1.5532
    5MOL0     H  613   4.286   5.159   4.073 -2.2503 -0.6250 -2.1569
    5MOL0     H  614   4.385   5.127   3.824  0.2639 -1.9189 -2.2549
    5MOL0     H  615   4.350   4.955   3.879  1.8429  0.6464  1.5358
    5MOL0     H  616   4.162   5.199   3.883  1.1264  0.5821 -0.6175
    5MOL0     H  617   4.172   5.104   3.748 -0.4504 -0.0836  0.6838
    5MOL0     H  618   4.083   4.898   3.846 -0.1706 -1.8880  3.0251
    5MOL0     H  619   4.107   4.963   4.004  0.7744  0.6017  0.0335
    5MOL0     H  620   3.890   5.054   3.815 -1.2709  1.1533  1.3217
    5MOL0     H  621   3.873   4.972   3.970 -1.4352  0.0061  0.8776
    5MOL0     H  622   4.003   5.224   3.991  1.9099 -2.2345  1.2787
    5MOL0     H  623   3.825   5.217   3.960 -0.4679  0.0223 -0.0674
    5MOL0     H  624   3.971   5.113   4.211  0.2705 -2.2042 -1.1827
    5MOL0     H  625   3.812   5.052   4.159  0.6221 -0.6389  0.3330
    5MOL0     H  626   3.615   5.221   4.091 -0.4221 -2.5412  1.9120
    5MOL0     H  627   3.487   5.500   4.345  0.4683 -1.9743  1.2015
    5MOL0     H  628   3.478   5.486   4.162  0.2847  2.0818  0.9013
    5MOL0     H  629   3.372   5.290   4.377 -0.9350 -2.0365 -0.3366
    5MOL0     H  630   3.376   5.239   4.212 -0.9007  0.2124  0.6907
    5MOL0     H  631   3.234   5.413   4.128 -0.8352  3.8253  0.9712
    5MOL0     H  632   3.255   5.490   4.284 -1.8599  0.0660  1.8658
    5MOL0     H  633   3.149   5.298   4.397 -1.1293 -1.3526 -0.1912
    5MOL0     H  634   3.141   5.204   4.239  0.3797 -1.3575  1.6219
    5MOL0     H  635   3.100   5.269   4.032  0.4476  1.1737  1.5480
    5MOL0     H  636   3.078   5.169   3.824 -0.8685  2.3452 -1.1683
    5MOL0     H  637   2.969   5.023   3.827 -3.6034  0.1415  0.6124
    5MOL0     H  638   2.918   5.185   3.745 -0.1287  0.6766  0.7822
    5MOL0     H  639   2.743   4.709   3.905  1.1976 -1.6544 -1.4962
    5MOL0     H  640   2.624   4.544   3.797  1.9801 -1.6763 -2.6745
    5MOL0     H  641   2.404   4.634   3.390  0.6679 -0.3252 -3.5034
    5MOL0     H  642   2.580   4.637   3.362  0.6306 -0.6027 -0.4199
    5MOL0     H  643   2.582   4.376   3.366 -0.9666 -1.6996 -0.0634
    5MOL0     H  644   2.417   4.381   3.422  1.1733  1.5449  2.7028
    5MOL0     H  645   2.540   4.421   3.152 -2.0864  2.5718 -3.2600
    5MOL0     H  646   2.405   4.529   3.193  0.7076 -0.1480 -1.4521
    5MOL0     H  647   2.418   4.222   3.193 -0.0276 -0.0881 -1.5524
    5MOL0     H  648   2.293   4.316   3.278  1.5591 -0.3640  0.7001
    5MOL0     H  649   2.189   4.373   3.058 -1.8575 -2.4852  3.2469
    5MOL0     H  650   2.207   4.201   3.068 -3.2807  2.4630 -0.3041
    5MOL0     H  651   2.406   4.386   2.939 -1.6229  0.6750  1.6248
    5MOL0     H  652   2.392   4.214   2.920  2.4852  1.4611  1.2762
    5MOL0     H  653   2.282   4.351   2.722  0.3129  3.2004  0.9854
    5MOL0     H  654   2.165   4.407   2.843 -0.6562 -0.1443  1.2444
    5MOL0     H  655   2.042   4.230   2.775  0.2758  0.6984 -0.3504
    5MOL0     H  656   2.161   4.127   2.856 -1.4075  0.0486 -1.0923
    5MOL0     H  657   2.520   4.819   3.484 -0.5399 -2.3058  1.0073
    5MOL0     H  658   2.642   4.988   3.586  1.1183  0.0747 -1.0920
    5MOL0     H  659   2.612   5.246   4.081 -0.7778  2.5561 -4.8267
    5MOL0     H  660   2.749   5.368   4.245 -2.5423 -0.4993 -1.0600
    5MOL0     H  661   4.702   5.317   4.007 -0.4238 -0.6465 -0.1130
    5MOL0     H  662   4.919   5.385   4.056 -3.8971  1.7745 -2.4564
    5MOL0     H  663   5.287   5.393   4.257  3.1955  1.5226 -1.0523
    5MOL0     H  664   5.535   5.417   4.304  0.7427 -1.8868  1.7450
    5MOL0     H  665   5.605   5.770   4.509 -2.8580 -0.1615  2.5862
    5MOL0     H  666   5.631   5.699   4.662 -0.4000 -3.4154  0.1533
    5MOL0     H  667   5.826   5.828   4.574 -1.7725 -0.1900  2.1057
    5MOL0     H  668   5.867   5.698   4.454  0.2719 -1.8178  0.5921
    5MOL0     H  669   5.876   5.520   4.605 -0.5172  0.6431 -0.7749
    5MOL0     H  670   5.847   5.629   4.738 -0.6880 -2.0404  0.3336
    5MOL0     H  671   6.096   5.664   4.546  1.4390 -0.8814  0.6122
    5MOL0     H  672   6.102   5.554   4.671  0.9196  0.7368  1.3456
    5MOL0     H  673   6.155   5.846   4.940 -0.6931 -0.3961  1.3408
    5MOL0     H  674   5.416   5.644   4.659 -1.2694 -1.7204  1.9291
    5MOL0     H  675   5.189   5.581   4.636  1.6918  1.1906  0.9124
    6MOL0     O  676  11.167   2.340   4.711  0.4057 -0.6506  0.6295
    6MOL0     C  677  11.253   2.380   4.629  0.3290 -0.0025  1.0525
    6MOL0     O  678  11.231   2.451   4.512 -0.3517 -0.2688 -0.0651
    6MOL0     C  679  11.107   2.482   4.475 -0.7483 -0.0877 -0.6033
    6MOL0     C  680  11.032   2.420   4.370  0.4045  0.1323 -0.4918
    6MOL0     C  681  10.914   2.465   4.326 -0.7538  0.5717 -0.7794
    6MOL0     C  682  10.851   2.570   4.386 -0.2692 -0.3360 -0.8844
    6MOL0     O  683  10.722   2.601   4.350  0.6388 -0.3835  0.0641
    6MOL0     C  684  10.717   2.702   4.239 -0.5427 -0.2287  0.0405
    6MOL0     C  685  10.593   2.699   4.155 -0.5456 -0.8321 -0.8416
    6MOL0     C  686  10.601   2.823   4.056  0.3755 -0.5274 -0.4009
    6MOL0     C  687  10.488   2.832   3.956  0.1953  0.2049  0.5575
    6MOL0     C  688  10.439   2.976   3.928 -0.1637 -0.9582  0.1631
    6MOL0     C  689  10.305   2.973   3.869  0.4586  0.2889 -0.0494
    6MOL0     C  690  10.258   3.115   3.824 -0.2777 -0.3066  0.4725
    6MOL0     C  691  10.127   3.117   3.735  0.8273 -0.6030  0.3217
    6MOL0     N  692  10.016   3.095   3.822  0.2185 -0.0252 -0.1984
    6MOL0     C  693   9.952   3.198   3.883 -0.4826  0.2140  0.3392
    6MOL0     C  694   9.850   3.144   3.952  0.0191 -0.2133 -0.3030
    6MOL0     C  695   9.746   3.226   4.023  0.1579  0.4384  0.1555
    6MOL0     C  696   9.795   3.231   4.169 -0.7443 -0.7991 -0.5158
    6MOL0     C  697   9.677   3.290   4.243 -0.3642  0.3378 -0.1510
    6MOL0     C  698   9.706   3.300   4.395 -0.0432 -0.0297 -0.3232
    6MOL0     O  699   9.581   3.356   4.456  0.0126  0.1064 -0.4736
    6MOL0     C  700   9.571   3.364   4.594 -0.3075 -0.3947  0.2813
    6MOL0     C  701   9.668   3.337   4.682 -0.6171  0.4600 -0.0707
    6MOL0     C  702   9.664   3.352   4.820 -0.0897  0.5866 -0.1174
    6MOL0     C  703   9.782   3.307   4.902 -0.4853 -0.2141  0.2147
    6MOL0     C  704   9.532   3.384   4.877 -0.0947  0.1556  0.3776
    6MOL0     C  705   9.507   3.389   5.025 -0.3291 -0.6713  0.4558
    6MOL0     O  706   9.374   3.363   5.053 -0.6647 -0.5688  0.2993
    6MOL0     C  707   9.326   3.364   5.190 -0.9075 -0.2316 -0.0897
    6MOL0     C  708   9.353   3.473   5.266 -0.8057  0.8914 -0.0093
    6MOL0     C  709   9.294   3.482   5.391 -0.1613  0.5035  0.5243
    6MOL0     C  710   9.215   3.379   5.444 -1.0283  0.3006  0.5288
    6MOL0     O  711   9.153   3.381   5.565 -0.2591  0.1918  0.1221
    6MOL0     C  712   9.154   3.499   5.637  0.1228  0.1104 -0.2944
    6MOL0     C  713   9.051   3.472   5.753 -0.0498  0.1198 -0.2867
    6MOL0     C  714   8.909   3.448   5.705  1.4723  0.5151  0.2002
    6MOL0     C  715   8.823   3.426   5.834  0.5111  0.0212  0.0483
    6MOL0     C  716   8.683   3.376   5.796  0.5613  0.9179 -0.5722
    6MOL0     C  717   8.595   3.332   5.915  0.4837  0.5145  0.1547
    6MOL0     C  718   8.631   3.202   5.988  0.5762  0.0634  0.9654
    6MOL0     C  719   8.564   3.079   5.935  0.3777  0.7149 -1.0285
    6MOL0    Cl  720   8.395   3.079   5.984  0.5311 -0.3020  0.3919
    6MOL0     C  721   9.187   3.275   5.361 -0.0803 -0.1829 -0.4605
    6MOL0     C  722   9.237   3.267   5.229  0.7636  0.1720 -0.3447
    6MOL0     O  723   9.595   3.389   5.106  0.1266 -0.5409 -0.1527
    6MOL0     C  724   9.429   3.410   4.788  0.0141 -0.7438  0.1578
    6MOL0     C  725   9.451   3.400   4.650  0.0350 -0.4354  0.3235
    6MOL0     N  726   9.855   3.010   3.928 -0.8997  0.2033 -0.1054
    6MOL0     N  727   9.959   2.976   3.860  0.8137  0.2967  0.2318
    6MOL0     C  728  10.917   2.640   4.498 -0.2945 -0.2177  0.2210
    6MOL0     C  729  11.042   2.591   4.538 -0.7565  0.4769  0.5015
    6MOL0     C  730  11.396   2.348   4.667  0.2654  0.4946 -0.6180
    6MOL0     C  731  11.504   2.398   4.598 -0.5656  0.2546  0.1430
    6MOL0     C  732  11.637   2.368   4.625  0.3930  0.9149 -0.5738
    6MOL0     C  733  11.667   2.276   4.727  0.9748 -0.8523 -1.0955
    6MOL0     O  734  11.792   2.247   4.739 -0.2471 -0.1137 -0.1069
    6MOL0     C  735  11.842   2.153   4.836  0.5256  0.0311 -0.0907
    6MOL0     C  736  11.876   2.232   4.964 -0.1539  0.6979  0.0748
    6MOL0     C  737  11.993   2.328   4.954  0.0804  0.0423  0.0563
    6MOL0     C  738  11.995   2.399   5.093  0.5981  0.0746 -0.3433
    6MOL0     C  739  12.128   2.456   5.114 -1.2832 -0.2626  0.1411
    6MOL0     C  740  12.241   2.494   5.135 -0.1051 -0.2515  0.4286
    6MOL0     C  741  11.562   2.218   4.799 -0.0055 -0.5565  1.4698
    6MOL0     C  742  11.433   2.252   4.763  0.2273  0.1456 -0.5659
    6MOL0     H  743  11.090   2.341   4.324  0.7806 -0.6292  1.1934
    6MOL0     H  744  10.880   2.415   4.236  0.7406 -3.6559  0.7276
    6MOL0     H  745  10.723   2.800   4.287 -1.1625 -0.3445  0.3648
    6MOL0     H  746  10.807   2.694   4.178 -0.1618 -0.9724  0.6940
    6MOL0     H  747  10.589   2.605   4.099  1.8461 -1.5754  0.1057
    6MOL0     H  748  10.510   2.717   4.224  0.6852  1.1317  0.2181
    6MOL0     H  749  10.597   2.915   4.115 -0.3175 -1.1355  0.5109
    6MOL0     H  750  10.687   2.824   3.989  0.1798 -0.0448 -0.6574
    6MOL0     H  751  10.529   2.781   3.868 -2.1966  0.5523 -0.8313
    6MOL0     H  752  10.405   2.770   3.992  1.1132  0.0601  2.5763
    6MOL0     H  753  10.451   3.043   4.014  6.4917  1.2323 -1.8608
    6MOL0     H  754  10.511   3.014   3.855  0.8499  0.8991  2.0357
    6MOL0     H  755  10.301   2.906   3.783 -0.9181  0.0490  0.1699
    6MOL0     H  756  10.256   2.925   3.954  5.1849 -0.3921  2.6855
    6MOL0     H  757  10.217   3.156   3.917 -1.1616 -2.0956  0.9015
    6MOL0     H  758  10.341   3.171   3.780  1.0552 -2.2860  0.3502
    6MOL0     H  759  10.130   3.044   3.653  1.2623  0.4234 -0.5983
    6MOL0     H  760  10.128   3.210   3.677  0.2467 -0.6321  0.2665
    6MOL0     H  761   9.967   3.305   3.873  0.3558  0.1194  0.4713
    6MOL0     H  762   9.750   3.325   3.977 -1.5778  0.0687 -0.8624
    6MOL0     H  763   9.647   3.181   4.013  0.0176  1.1177 -1.9218
    6MOL0     H  764   9.880   3.300   4.168 -0.4673 -1.1279 -0.1416
    6MOL0     H  765   9.830   3.133   4.204 -1.2359 -0.7391  0.1637
    6MOL0     H  766   9.599   3.218   4.217  0.6899 -1.5040  1.4664
    6MOL0     H  767   9.654   3.385   4.196 -0.5616 -0.1909 -1.1551
    6MOL0     H  768   9.793   3.363   4.411 -1.0018  1.0184  1.0795
    6MOL0     H  769   9.737   3.202   4.433  2.2373  1.2225  1.2727
    6MOL0     H  770   9.765   3.306   4.645 -1.1356  0.8137 -1.8324
    6MOL0     H  771   9.802   3.388   4.972 -1.5782  1.8421 -1.7407
    6MOL0     H  772   9.761   3.217   4.961  2.3757 -1.1536 -0.0596
    6MOL0     H  773   9.864   3.296   4.830 -2.1104  2.4332 -2.2496
    6MOL0     H  774   9.409   3.557   5.227 -1.1001  1.3106  0.4549
    6MOL0     H  775   9.306   3.577   5.441  2.2547  0.8188 -0.4870
    6MOL0     H  776   9.254   3.505   5.681 -0.0478 -5.8269  1.8070
    6MOL0     H  777   9.116   3.578   5.572 -3.1930  0.1279  1.4405
    6MOL0     H  778   9.089   3.393   5.818  0.9368 -2.0728 -3.2934
    6MOL0     H  779   9.041   3.562   5.814  1.0819 -0.9160  1.5183
    6MOL0     H  780   8.895   3.366   5.635  1.3212 -0.0464  0.8798
    6MOL0     H  781   8.867   3.538   5.659 -0.1198  0.2103  0.9819
    6MOL0     H  782   8.870   3.351   5.897 -0.2271  0.9679  1.7935
    6MOL0     H  783   8.814   3.511   5.902 -3.9164 -0.8157  0.8388
    6MOL0     H  784   8.690   3.290   5.729  2.4602 -0.5370  1.3342
    6MOL0     H  785   8.630   3.456   5.743  0.3562  1.8260  0.9306
    6MOL0     H  786   8.594   3.406   5.996 -0.6927 -2.8107  3.5121
    6MOL0     H  787   8.490   3.329   5.886 -0.3895  1.4557  2.8430
    6MOL0     H  788   8.623   3.221   6.095  1.7883  0.4906  0.9985
    6MOL0     H  789   8.739   3.188   5.973  0.5409  1.9648 -1.9775
    6MOL0     H  790   8.602   2.979   5.961  0.9509  0.3522 -3.1141
    6MOL0     H  791   8.559   3.083   5.826 -2.8239  1.7705 -0.9608
    6MOL0     H  792   9.128   3.190   5.394  3.0404 -1.3774  2.7729
    6MOL0     H  793   9.206   3.186   5.164  0.8193 -0.4761  0.4095
    6MOL0     H  794   9.339   3.437   4.841  0.9003 -0.1198  1.3836
    6MOL0     H  795   9.368   3.408   4.581 -0.1565 -0.2165  0.5770
    6MOL0     H  796  10.874   2.724   4.552  1.2822 -1.5298  3.8403
    6MOL0     H  797  11.088   2.643   4.621 -1.9003  1.0429  0.8127
    6MOL0     H  798  11.488   2.452   4.506  0.0570 -0.7305 -0.5592
    6MOL0     H  799  11.709   2.401   4.551 -0.6480 -1.7979 -2.9626
    6MOL0     H  800  11.769   2.073   4.851  0.1565  0.3098 -0.3706
    6MOL0     H  801  11.929   2.095   4.804  1.4415 -0.0997  2.4227
    6MOL0     H  802  11.900   2.157   5.039 -2.1389 -0.4190 -0.3156
    6MOL0     H  803  11.779   2.276   4.992 -0.5497  0.0306 -0.2221
    6MOL0     H  804  11.977   2.403   4.876 -3.0243  0.4863  0.9522
    6MOL0     H  805  12.086   2.272   4.946  0.0743  0.1007 -0.4140
    6MOL0     H  806  11.973   2.324   5.169 -2.1246  1.3487  0.2618
    6MOL0     H  807  11.915   2.473   5.103 -1.1287 -1.8629  1.0721
    6MOL0     H  808  12.338   2.535   5.153 -0.7161  0.5553  2.1412
    6MOL0     H  809  11.578   2.151   4.883  2.2881 -0.4564  1.1590
    6MOL0     H  810  11.353   2.195   4.807  1.2845 -0.7049  0.3150
    7MOL0     O  811   6.510  10.479   5.987 -0.0032 -0.5164 -0.4261
    7MOL0     C  812   6.564  10.579   5.929  0.6409 -0.3947  0.7140
    7MOL0     O  813   6.501  10.661   5.842 -0.0019  0.0765  0.2216
    7MOL0     C  814   6.376  10.634   5.794 -0.2118 -0.2494  0.2490
    7MOL0     C  815   6.345  10.704   5.673  0.2297  0.6752  0.5543
    7MOL0     C  816   6.220  10.674   5.613 -0.2310  0.0115 -0.1659
    7MOL0     C  817   6.126  10.600   5.679 -1.0141 -0.0816  0.3667
    7MOL0     O  818   6.002  10.595   5.618  0.3521 -0.1391 -0.3067
    7MOL0     C  819   5.897  10.529   5.690 -0.0474  0.3591 -0.4233
    7MOL0     C  820   5.771  10.521   5.612  0.1014  0.4946  0.6781
    7MOL0     C  821   5.733  10.650   5.545 -0.7078 -0.1134  0.1355
    7MOL0     C  822   5.601  10.632   5.461  0.4619  0.5747 -0.3897
    7MOL0     C  823   5.467  10.625   5.537 -0.7014  0.5208 -0.1806
    7MOL0     C  824   5.345  10.580   5.448 -0.6881 -0.7582 -0.0901
    7MOL0     C  825   5.329  10.432   5.429  0.5958  0.1873  0.4473
    7MOL0     C  826   5.216  10.399   5.331 -0.2085 -0.3703  0.7751
    7MOL0     N  827   5.279  10.391   5.194  0.1621  0.6898  0.2105
    7MOL0     C  828   5.334  10.283   5.133 -0.1369  1.0199 -0.7862
    7MOL0     C  829   5.388  10.338   5.016  0.3629  0.9975 -0.1093
    7MOL0     C  830   5.431  10.255   4.898  0.6439 -0.7532  0.0204
    7MOL0     C  831   5.393  10.316   4.759  0.3033 -0.6297  0.8569
    7MOL0     C  832   5.253  10.276   4.716 -0.1275 -0.0982  0.6677
    7MOL0     C  833   5.143  10.358   4.774  0.6444  0.7758  0.0924
    7MOL0     O  834   5.013  10.314   4.727  0.2949 -0.5349 -0.4667
    7MOL0     C  835   4.903  10.386   4.773  0.5092 -0.3880  0.0636
    7MOL0     C  836   4.780  10.340   4.739  0.3865  0.3666  0.3293
    7MOL0     C  837   4.657  10.384   4.788  0.6171 -0.6161 -0.0318
    7MOL0     C  838   4.527  10.320   4.753  0.9332  0.5756  0.5330
    7MOL0     C  839   4.667  10.504   4.874 -0.0206 -0.6644  0.1004
    7MOL0     C  840   4.560  10.570   4.948  0.5210 -0.8096  0.0986
    7MOL0     O  841   4.437  10.506   4.968  0.1954 -0.0822 -0.0419
    7MOL0     C  842   4.350  10.585   5.036 -0.0433 -0.0928 -0.4576
    7MOL0     C  843   4.287  10.691   4.980 -0.4556 -0.5991 -0.7340
    7MOL0     C  844   4.185  10.761   5.041  0.3982 -0.0745 -0.4727
    7MOL0     C  845   4.143  10.717   5.165 -0.5778 -0.4815  0.3903
    7MOL0     O  846   4.036  10.773   5.228  0.5337 -0.1674 -0.1608
    7MOL0     C  847   4.029  10.921   5.226 -0.1548 -0.0344 -0.7717
    7MOL0     C  848   3.916  10.952   5.319  0.6536  0.3902  0.5844
    7MOL0     C  849   3.789  10.870   5.277  0.7730 -0.5350 -0.0338
    7MOL0     C  850   3.701  10.950   5.180 -0.0607 -0.2747  0.4322
    7MOL0     C  851   3.572  10.872   5.151 -0.6160 -0.3855  0.7974
    7MOL0     C  852   3.493  10.853   5.282  0.4700  0.5170 -0.2163
    7MOL0     C  853   3.351  10.811   5.250  0.2746  0.1859 -0.4734
    7MOL0     C  854   3.264  10.854   5.370  0.0675 -0.4942  0.0119
    7MOL0    Cl  855   3.091  10.841   5.321 -0.4121  0.2574  0.2446
    7MOL0     C  856   4.218  10.619   5.235 -0.1049 -0.1348  0.7227
    7MOL0     C  857   4.321  10.545   5.170  0.4399 -0.0183  0.0756
    7MOL0     O  858   4.588  10.685   4.991 -0.1604  0.2866  0.7620
    7MOL0     C  859   4.798  10.548   4.918  0.7837 -0.0723 -0.3842
    7MOL0     C  860   4.905  10.495   4.863 -0.8717 -0.1290  0.3980
    7MOL0     N  861   5.354  10.475   5.012  0.2135 -0.1852  0.7790
    7MOL0     N  862   5.306  10.510   5.125  0.3971  0.4069 -0.4327
    7MOL0     C  863   6.150  10.553   5.806  0.2005  0.4385 -1.2657
    7MOL0     C  864   6.270  10.576   5.870 -0.4577 -0.3618 -0.5916
    7MOL0     C  865   6.700  10.591   5.951 -0.1217 -0.0107  0.0651
    7MOL0     C  866   6.753  10.565   6.072 -0.2449  0.8436  0.1194
    7MOL0     C  867   6.886  10.575   6.091 -0.6662 -0.0730 -0.1919
    7MOL0     C  868   6.976  10.606   5.988  0.5870  0.3191  0.2147
    7MOL0     O  869   7.106  10.633   6.000  0.3598  0.4067 -0.2768
    7MOL0     C  870   7.175  10.647   6.125  0.3875 -0.2442  0.2072
    7MOL0     C  871   7.327  10.651   6.106 -0.4375 -0.1907 -0.3103
    7MOL0     C  872   7.393  10.517   6.071 -0.7024 -0.0070  0.2716
    7MOL0     C  873   7.558  10.520   6.078 -0.4974  0.9836  0.0714
    7MOL0     C  874   7.617  10.645   6.022  0.3230  0.4486  0.5854
    7MOL0     C  875   7.664  10.758   6.000  1.0309  0.3537 -0.0127
    7MOL0     C  876   6.924  10.619   5.860  0.4894  0.5672 -0.0556
    7MOL0     C  877   6.787  10.611   5.843 -0.2295  0.5484 -0.2887
    7MOL0     H  878   6.423  10.759   5.622  0.8159 -1.0734 -0.5347
    7MOL0     H  879   6.193  10.718   5.517 -0.0648 -2.6779 -1.5335
    7MOL0     H  880   5.935  10.428   5.705  2.3127  1.2128 -0.2266
    7MOL0     H  881   5.880  10.574   5.788  1.6154  0.3952 -0.1329
    7MOL0     H  882   5.791  10.444   5.536 -1.9209 -1.7990  2.3187
    7MOL0     H  883   5.701  10.479   5.684  0.4508 -0.2461  0.5956
    7MOL0     H  884   5.712  10.723   5.624 -0.4794  0.1991 -0.0920
    7MOL0     H  885   5.811  10.684   5.477  0.1201 -2.3058 -0.0747
    7MOL0     H  886   5.595  10.724   5.403 -1.2335  1.6010  1.2969
    7MOL0     H  887   5.606  10.545   5.396  0.4310 -2.3728  3.2226
    7MOL0     H  888   5.481  10.556   5.621 -0.4209  0.9589  0.1392
    7MOL0     H  889   5.445  10.722   5.584 -2.1081  1.3581 -2.4214
    7MOL0     H  890   5.256  10.606   5.505  0.5648 -1.2928  2.2114
    7MOL0     H  891   5.348  10.640   5.356 -1.7774  1.6885  1.3795
    7MOL0     H  892   5.425  10.404   5.385  2.8355  0.8246  4.5081
    7MOL0     H  893   5.316  10.371   5.519 -0.0191 -1.9326 -0.9946
    7MOL0     H  894   5.151  10.488   5.332  2.8978  2.1143 -0.6331
    7MOL0     H  895   5.155  10.311   5.352 -0.5729 -0.3507 -0.1548
    7MOL0     H  896   5.321  10.178   5.160  0.5288  0.7588 -1.4448
    7MOL0     H  897   5.539  10.247   4.912  0.3519 -0.6165  3.0358
    7MOL0     H  898   5.399  10.151   4.883  1.7424 -1.3520  1.5402
    7MOL0     H  899   5.473  10.274   4.697  1.4382 -0.4885  2.1591
    7MOL0     H  900   5.413  10.423   4.752  0.1081 -0.7131 -1.7261
    7MOL0     H  901   5.237  10.170   4.740  0.4107  0.0240  1.5799
    7MOL0     H  902   5.246  10.293   4.608  0.9371  1.6720  0.8347
    7MOL0     H  903   5.159  10.463   4.748 -2.1959  1.2511 -0.1150
    7MOL0     H  904   5.142  10.337   4.882  3.2918 -0.2813 -0.0058
    7MOL0     H  905   4.790  10.257   4.670  1.6292  1.1618 -0.5012
    7MOL0     H  906   4.445  10.392   4.764 -0.8361 -1.1499 -0.6876
    7MOL0     H  907   4.537  10.303   4.645 -2.5286  2.1963 -0.1756
    7MOL0     H  908   4.509  10.223   4.800 -1.0177  0.1688 -0.9450
    7MOL0     H  909   4.313  10.719   4.878  1.4007 -3.4100 -1.1399
    7MOL0     H  910   4.134  10.833   4.979  1.5995 -2.0882 -4.1273
    7MOL0     H  911   4.119  10.970   5.263 -0.7951  0.6595 -0.1011
    7MOL0     H  912   4.006  10.957   5.125  1.3402  0.9977 -0.7721
    7MOL0     H  913   3.950  10.925   5.419  1.2207 -0.1526  0.2591
    7MOL0     H  914   3.895  11.059   5.311 -0.9474 -0.0324 -2.8879
    7MOL0     H  915   3.727  10.848   5.364  2.5040  0.7869  1.5954
    7MOL0     H  916   3.810  10.775   5.227 -2.0365 -0.4040 -1.6969
    7MOL0     H  917   3.670  11.039   5.236 -0.8217 -0.1244 -0.2203
    7MOL0     H  918   3.747  10.970   5.083 -2.5798 -0.0782 -0.8107
    7MOL0     H  919   3.595  10.777   5.102 -0.2787  0.7937 -1.4629
    7MOL0     H  920   3.524  10.934   5.075 -0.0770 -2.2171 -1.1372
    7MOL0     H  921   3.534  10.771   5.341  1.2796  0.9888 -0.1214
    7MOL0     H  922   3.495  10.945   5.341 -0.2945  0.7718 -0.5734
    7MOL0     H  923   3.334  10.703   5.256  2.0306 -0.1627 -1.3599
    7MOL0     H  924   3.313  10.865   5.163  0.9213  1.6226  0.1172
    7MOL0     H  925   3.279  10.956   5.405  0.5470 -0.7945  0.7202
    7MOL0     H  926   3.290  10.788   5.454  2.0418  1.8625  1.3871
    7MOL0     H  927   4.195  10.598   5.339 -0.3443 -1.5391  0.4096
    7MOL0     H  928   4.365  10.453   5.207 -1.7808 -0.9127  0.6401
    7MOL0     H  929   4.802  10.616   5.002 -3.3278 -0.0713  0.0517
    7MOL0     H  930   5.003  10.537   4.886 -0.2567 -0.8367 -0.7983
    7MOL0     H  931   6.067  10.509   5.861  1.4161  0.8800  1.0376
    7MOL0     H  932   6.282  10.539   5.971  1.0521 -0.1548 -0.6726
    7MOL0     H  933   6.694  10.549   6.162  1.8584 -3.2682  1.0269
    7MOL0     H  934   6.942  10.562   6.183 -0.3890 -0.1578 -0.3714
    7MOL0     H  935   7.137  10.736   6.177  0.4808 -0.6163  0.9171
    7MOL0     H  936   7.148  10.568   6.194  0.8005  0.8873  1.7220
    7MOL0     H  937   7.377  10.697   6.192  1.6184  2.7160 -2.7998
    7MOL0     H  938   7.356  10.715   6.021 -0.3090  3.5356  2.2631
    7MOL0     H  939   7.379  10.496   5.964 -0.1690  5.4025 -1.1512
    7MOL0     H  940   7.339  10.442   6.129  1.0388 -1.8327 -0.3347
    7MOL0     H  941   7.592  10.433   6.020 -0.7319 -0.1391  1.5513
    7MOL0     H  942   7.586  10.503   6.182  0.9267 -2.2365 -0.6847
    7MOL0     H  943   7.710  10.854   5.990  0.0911  0.7971 -0.2313
    7MOL0     H  944   7.001  10.636   5.785 -0.0537 -0.3494 -0.8373
    7MOL0     H  945   6.739  10.619   5.745 -2.4647 -0.4528  0.6639
    8MOL0     O  946   3.104   0.012   9.861  0.1157 -0.5338 -0.1491
    8MOL0     C  947   3.152  -0.025   9.972 -0.5403  0.6551 -0.4014
    8MOL0     O  948   3.096  -0.128  10.049 -0.3069  0.2590  0.7323
    8MOL0     C  949   2.984  -0.181   9.997  0.2029  0.3817 -0.2920
    8MOL0     C  950   2.986  -0.270   9.887  0.4394  0.0981  0.2488
    8MOL0     C  951   2.862  -0.326   9.842 -0.0968 -0.2820  0.2184
    8MOL0     C  952   2.737  -0.303   9.894  0.0578 -0.0221  0.3079
    8MOL0     O  953   2.629  -0.364   9.840 -0.1148 -0.3513 -0.0500
    8MOL0     C  954   2.564  -0.269   9.743 -0.4304  1.1030  0.5719
    8MOL0     C  955   2.414  -0.312   9.734 -1.4258 -0.8181 -0.2541
    8MOL0     C  956   2.383  -0.401   9.617 -0.3728 -0.4858 -0.5514
    8MOL0     C  957   2.241  -0.397   9.584  0.0624 -0.0384  1.5490
    8MOL0     C  958   2.154  -0.468   9.684  0.1257 -0.4188 -0.8597
    8MOL0     C  959   1.998  -0.445   9.671 -0.2617  1.0217  0.3944
    8MOL0     C  960   1.918  -0.504   9.788  0.2999  0.1520  0.9971
    8MOL0     C  961   1.768  -0.469   9.778 -0.0463 -0.8450 -0.0805
    8MOL0     N  962   1.706  -0.472   9.641  0.0638  0.0677  0.1897
    8MOL0     C  963   1.721  -0.378   9.542  0.7638  0.3258  0.2706
    8MOL0     C  964   1.645  -0.418   9.442  0.9585 -0.8327  0.2900
    8MOL0     C  965   1.621  -0.353   9.308  0.1371 -0.3220  0.7044
    8MOL0     C  966   1.745  -0.277   9.247 -0.2222 -0.6508 -0.1898
    8MOL0     C  967   1.854  -0.383   9.220  0.4994  0.0385  1.1391
    8MOL0     C  968   1.983  -0.318   9.164 -0.1859  0.5902 -0.4389
    8MOL0     O  969   2.100  -0.409   9.159 -0.0111  0.0471  0.6950
    8MOL0     C  970   2.221  -0.360   9.130 -0.5717 -1.0616  0.2076
    8MOL0     C  971   2.246  -0.230   9.080  0.7269 -0.3564  0.0705
    8MOL0     C  972   2.371  -0.180   9.043  0.1935  0.2402  0.4159
    8MOL0     C  973   2.390  -0.041   8.977  0.5450 -0.1020  0.0954
    8MOL0     C  974   2.478  -0.271   9.061  0.7030 -0.1503 -0.5745
    8MOL0     C  975   2.618  -0.235   9.042 -0.3428 -0.3064  0.0498
    8MOL0     O  976   2.698  -0.311   8.965  0.4408 -0.2374  0.9289
    8MOL0     C  977   2.828  -0.271   8.930 -0.8259  0.5087  0.0669
    8MOL0     C  978   2.933  -0.347   8.968  0.1822 -0.1665 -0.5726
    8MOL0     C  979   3.065  -0.313   8.954 -0.5060 -0.1079 -0.2132
    8MOL0     C  980   3.097  -0.198   8.879  1.0115 -0.8390 -0.7368
    8MOL0     O  981   3.223  -0.158   8.860 -0.8786 -0.1086 -0.0534
    8MOL0     C  982   3.333  -0.204   8.945  1.4849  0.5483  0.0479
    8MOL0     C  983   3.464  -0.114   8.932 -0.7994  0.8578  0.5873
    8MOL0     C  984   3.445   0.020   8.999 -0.3173  0.5084 -0.6134
    8MOL0     C  985   3.576   0.102   9.016 -0.0236 -1.0439  0.1104
    8MOL0     C  986   3.555   0.218   9.114 -0.0386 -0.0247  0.0449
    8MOL0     C  987   3.678   0.309   9.116  0.0924  0.5348 -0.0328
    8MOL0     C  988   3.661   0.447   9.176  0.4516 -0.1133 -0.0356
    8MOL0     C  989   3.791   0.505   9.199  0.8349 -0.3311  1.5556
    8MOL0    Cl  990   3.896   0.411   9.307 -0.2490  0.1908 -0.2090
    8MOL0     C  991   2.991  -0.123   8.823 -1.3870  0.9090 -0.3136
    8MOL0     C  992   2.865  -0.158   8.848  0.5220  0.5777  0.0456
    8MOL0     O  993   2.661  -0.135   9.097 -0.2594 -0.2232  0.4858
    8MOL0     C  994   2.459  -0.402   9.117  0.2459  0.1264  0.8835
    8MOL0     C  995   2.331  -0.447   9.147  0.4226 -0.2152  0.7474
    8MOL0     N  996   1.588  -0.546   9.471  0.2032  0.2367 -0.1882
    8MOL0     N  997   1.633  -0.576   9.590  0.3398  0.1454 -0.2241
    8MOL0     C  998   2.738  -0.223  10.009 -0.4201 -0.4276 -0.4993
    8MOL0     C  999   2.862  -0.168  10.062 -0.3004 -0.4247 -0.1312
    8MOL0     C 1000   3.269   0.048  10.034  0.3781  0.4452  0.5745
    8MOL0     C 1001   3.336   0.147   9.967 -0.7953 -0.4750  1.1093
    8MOL0     C 1002   3.466   0.182  10.010  1.1337 -0.4164  0.0089
    8MOL0     C 1003   3.534   0.131  10.117 -0.4763 -0.1346  0.4858
    8MOL0     O 1004   3.663   0.183  10.147 -0.5509  0.4710  0.2786
    8MOL0     C 1005   3.733   0.119  10.256  0.1950 -0.7926 -0.5541
    8MOL0     C 1006   3.809  -0.014  10.214  0.2508 -0.4061  0.2722
    8MOL0     C 1007   3.951   0.024  10.170 -0.0740  0.0284  0.7824
    8MOL0     C 1008   4.022  -0.087  10.079  0.4089  0.3449 -0.6206
    8MOL0     C 1009   3.999  -0.061   9.931  0.4033  0.0830 -0.4861
    8MOL0     C 1010   3.963  -0.022   9.821 -0.5782  0.4269 -0.1255
    8MOL0     C 1011   3.465   0.025  10.191 -0.1620 -0.8862  0.3719
    8MOL0     C 1012   3.337  -0.016  10.148 -0.7582 -0.3844  0.5333
    8MOL0     H 1013   3.078  -0.289   9.832 -0.2023  1.6459 -1.4714
    8MOL0     H 1014   2.881  -0.394   9.759  1.1969 -1.6138  1.5492
    8MOL0     H 1015   2.558  -0.167   9.782 -1.0440  1.7078 -1.0651
    8MOL0     H 1016   2.633  -0.269   9.659  0.1997 -1.8680  0.9873
    8MOL0     H 1017   2.381  -0.375   9.817 -0.4139 -3.4937 -1.7530
    8MOL0     H 1018   2.351  -0.224   9.720 -0.7639 -0.2036  0.5304
    8MOL0     H 1019   2.439  -0.361   9.532  0.2129  4.4030  1.7861
    8MOL0     H 1020   2.417  -0.501   9.646 -1.1019 -1.3116 -2.4123
    8MOL0     H 1021   2.210  -0.293   9.569  2.2075  0.4982  0.3189
    8MOL0     H 1022   2.220  -0.432   9.482 -2.0861  1.0651  1.5446
    8MOL0     H 1023   2.185  -0.569   9.654 -0.2667 -0.6738 -0.4162
    8MOL0     H 1024   2.185  -0.452   9.787  2.8868  0.2657 -1.7326
    8MOL0     H 1025   1.975  -0.339   9.655 -3.3211  0.0729 -2.7078
    8MOL0     H 1026   1.965  -0.500   9.583  0.3245 -0.4139  1.0348
    8MOL0     H 1027   1.943  -0.611   9.790 -0.6724 -0.3258 -3.2600
    8MOL0     H 1028   1.949  -0.458   9.882  0.8153  0.9058  0.4677
    8MOL0     H 1029   1.749  -0.367   9.812  2.7039 -0.2664 -0.0506
    8MOL0     H 1030   1.707  -0.536   9.840 -1.3061  2.3944  2.4477
    8MOL0     H 1031   1.773  -0.283   9.533  2.9192 -0.8337 -0.0568
    8MOL0     H 1032   1.584  -0.421   9.230  1.0083 -0.3045  0.2571
    8MOL0     H 1033   1.546  -0.276   9.327 -0.8190 -0.2942 -2.6152
    8MOL0     H 1034   1.783  -0.207   9.322 -0.9455  0.2415 -0.6431
    8MOL0     H 1035   1.723  -0.222   9.155 -1.9893  2.7690  2.0515
    8MOL0     H 1036   1.826  -0.444   9.134  1.4867  3.0480 -1.5090
    8MOL0     H 1037   1.879  -0.430   9.316  2.6105  3.0724  2.2559
    8MOL0     H 1038   2.005  -0.231   9.226 -2.3959  1.7440 -1.1691
    8MOL0     H 1039   1.967  -0.278   9.064  0.7006  1.9210 -0.0821
    8MOL0     H 1040   2.169  -0.153   9.078  2.8905  2.3958  4.9617
    8MOL0     H 1041   2.437  -0.046   8.878 -0.1606 -1.0390 -0.2081
    8MOL0     H 1042   2.293   0.004   8.958  0.6629 -0.6116 -2.0406
    8MOL0     H 1043   2.447   0.027   9.040 -1.8528  0.3637  1.8941
    8MOL0     H 1044   2.916  -0.436   9.028  2.2296  1.1894  2.2387
    8MOL0     H 1045   3.139  -0.374   9.005  1.1523  2.1032  0.1357
    8MOL0     H 1046   3.303  -0.205   9.050 -0.1269  1.8758 -0.3578
    8MOL0     H 1047   3.360  -0.304   8.910  0.9500  0.4485 -0.0935
    8MOL0     H 1048   3.543  -0.165   8.988  0.9353  1.4677 -1.1699
    8MOL0     H 1049   3.495  -0.099   8.828  2.0102  1.6304  1.4326
    8MOL0     H 1050   3.396   0.005   9.095  2.1473  0.7988  0.7796
    8MOL0     H 1051   3.380   0.088   8.942 -1.1191  2.0593  2.0019
    8MOL0     H 1052   3.664   0.044   9.044  1.1904  0.7269  0.1678
    8MOL0     H 1053   3.603   0.148   8.921 -2.2947 -0.5143 -0.3307
    8MOL0     H 1054   3.521   0.174   9.208 -1.1057 -0.1350 -0.3768
    8MOL0     H 1055   3.475   0.288   9.090  1.7288  2.0800 -0.0017
    8MOL0     H 1056   3.746   0.256   9.183 -0.4426  0.0391  0.1308
    8MOL0     H 1057   3.715   0.325   9.014 -2.4792 -2.3185 -1.5611
    8MOL0     H 1058   3.613   0.435   9.274  1.1155 -2.6347  0.0499
    8MOL0     H 1059   3.599   0.506   9.108  0.8584  0.6853  0.2687
    8MOL0     H 1060   3.773   0.598   9.254  1.5204 -0.3933  1.8959
    8MOL0     H 1061   3.838   0.521   9.101  1.2763 -0.7964  1.6892
    8MOL0     H 1062   3.021  -0.032   8.774 -0.8462  0.5055 -0.7466
    8MOL0     H 1063   2.796  -0.080   8.818  2.0000  2.3678  0.9951
    8MOL0     H 1064   2.551  -0.458   9.132  2.8564  3.8722  0.0976
    8MOL0     H 1065   2.303  -0.547   9.178  0.1510  0.1968  1.8673
    8MOL0     H 1066   2.652  -0.196  10.070 -0.1425  2.1435 -1.1226
    8MOL0     H 1067   2.864  -0.127  10.163 -2.0340 -3.3495  1.2514
    8MOL0     H 1068   3.297   0.183   9.872  0.5529 -0.0443  0.7010
    8MOL0     H 1069   3.517   0.258   9.951  1.9119  0.9606  2.3330
    8MOL0     H 1070   3.799   0.193  10.301 -0.0825 -0.9678  0.1515
    8MOL0     H 1071   3.663   0.087  10.334  0.0971 -0.1673 -0.3825
    8MOL0     H 1072   3.754  -0.060  10.131 -0.2833 -0.5333  0.6910
    8MOL0     H 1073   3.824  -0.084  10.296  2.6283 -1.5662 -1.0527
    8MOL0     H 1074   4.009   0.044  10.260  1.2374  0.0101 -0.0308
    8MOL0     H 1075   3.945   0.111  10.104 -2.0912  0.3538  1.3117
    8MOL0     H 1076   3.981  -0.178  10.124  0.9271  1.0608  1.4510
    8MOL0     H 1077   4.126  -0.091  10.115 -0.4528  0.4963  2.1209
    8MOL0     H 1078   3.930   0.001   9.722 -0.6025 -0.1117 -0.2442
    8MOL0     H 1079   3.502  -0.022  10.281  3.8512  0.0811 -0.5893
    8MOL0     H 1080   3.290  -0.099  10.200 -2.5548 -0.4113 -0.9923
    9MOL0     O 1081   3.639   5.476   8.471  0.0153  0.2894 -0.0548
    9MOL0     C 1082   3.691   5.409   8.384 -0.2341 -0.1889 -0.9580
    9MOL0     O 1083   3.628   5.340   8.282 -0.2017  0.0115 -0.3726
    9MOL0     C 1084   3.490   5.332   8.275  0.5283 -0.7412  0.7996
    9MOL0     C 1085   3.399   5.357   8.376  0.3897  0.2021  0.1731
    9MOL0     C 1086   3.258   5.345   8.353  0.0406 -0.6708  0.8448
    9MOL0     C 1087   3.216   5.308   8.224 -0.2492 -0.3503  0.0330
    9MOL0     O 1088   3.078   5.294   8.197 -0.6773 -0.4484 -0.0783
    9MOL0     C 1089   2.978   5.348   8.285 -0.1064  0.9348 -0.4184
    9MOL0     C 1090   2.845   5.310   8.225  0.8035  0.1499 -0.2598
    9MOL0     C 1091   2.728   5.372   8.296 -0.1892 -0.5742 -0.2125
    9MOL0     C 1092   2.598   5.347   8.213  0.3625  0.5623 -0.3355
    9MOL0     C 1093   2.579   5.417   8.081  0.3070  0.3914 -0.3383
    9MOL0     C 1094   2.447   5.392   8.004  0.6152 -0.0155 -0.1570
    9MOL0     C 1095   2.315   5.415   8.083 -0.2589 -0.8410  0.2646
    9MOL0     C 1096   2.310   5.558   8.148 -0.9232  0.5309  0.0771
    9MOL0     N 1097   2.290   5.653   8.037 -1.4449 -1.1816  0.0967
    9MOL0     C 1098   2.177   5.685   7.970 -1.1126 -0.0156 -0.3381
    9MOL0     C 1099   2.219   5.789   7.881 -0.2293 -0.1110 -0.1600
    9MOL0     C 1100   2.123   5.864   7.792  0.5388  0.1581 -0.4388
    9MOL0     C 1101   1.981   5.840   7.833 -0.6098  0.6300 -0.4193
    9MOL0     C 1102   1.896   5.953   7.785 -0.1329 -0.9025  0.8156
    9MOL0     C 1103   1.747   5.913   7.789 -0.6622 -0.1884 -0.3763
    9MOL0     O 1104   1.666   6.031   7.764 -0.4045 -0.2193  0.1995
    9MOL0     C 1105   1.536   6.006   7.736  0.1594  0.4114 -0.6486
    9MOL0     C 1106   1.459   5.889   7.746  0.2764  0.3576 -0.2111
    9MOL0     C 1107   1.317   5.891   7.724  0.4517 -0.9718  0.3461
    9MOL0     C 1108   1.232   5.782   7.786 -0.4173  0.5801  0.3149
    9MOL0     C 1109   1.263   6.011   7.674  0.7914  0.0365 -0.4359
    9MOL0     C 1110   1.125   6.033   7.627  0.0034  0.2737  0.0185
    9MOL0     O 1111   1.072   6.161   7.623 -0.4670  0.7733  0.2870
    9MOL0     C 1112   0.959   6.186   7.546 -0.7108  0.4706 -1.2492
    9MOL0     C 1113   0.837   6.114   7.576  0.5526  1.2050  0.4402
    9MOL0     C 1114   0.711   6.137   7.500  0.7830 -0.2642  0.3080
    9MOL0     C 1115   0.704   6.243   7.410  0.7845  1.1393 -0.4037
    9MOL0     O 1116   0.589   6.265   7.346 -0.4258  0.8106 -0.1529
    9MOL0     C 1117   0.550   6.397   7.325 -0.4789 -0.8052  0.5492
    9MOL0     C 1118   0.405   6.392   7.265 -0.0395  0.5089  0.3180
    9MOL0     C 1119   0.360   6.533   7.231 -0.3033  0.3106  0.3690
    9MOL0     C 1120   0.207   6.532   7.203 -0.7285 -1.0199  0.2597
    9MOL0     C 1121   0.158   6.674   7.150  0.9370  0.2998  0.4696
    9MOL0     C 1122   0.016   6.668   7.094  0.0241  0.6473  0.3379
    9MOL0     C 1123  -0.043   6.801   7.070 -1.5144  0.4329 -0.3273
    9MOL0     C 1124  -0.190   6.776   7.022  0.0186 -0.6904  0.7829
    9MOL0    Cl 1125  -0.267   6.933   7.015  0.2447  0.4266 -0.6012
    9MOL0     C 1126   0.827   6.319   7.387  0.1616  0.6283  0.3195
    9MOL0     C 1127   0.948   6.288   7.457  0.0979 -0.1497  0.4658
    9MOL0     O 1128   1.076   5.930   7.578 -0.0163 -0.7502 -0.3647
    9MOL0     C 1129   1.344   6.135   7.668  0.1350 -0.6244 -0.1294
    9MOL0     C 1130   1.479   6.121   7.703 -0.8988 -0.0834  0.9020
    9MOL0     N 1131   2.355   5.813   7.902 -0.2776  0.2471  1.0603
    9MOL0     N 1132   2.397   5.735   7.989  0.0591  0.1691 -1.0704
    9MOL0     C 1133   3.312   5.279   8.117  0.0659  0.4393 -0.1704
    9MOL0     C 1134   3.451   5.290   8.138 -0.6446 -0.0750 -0.3352
    9MOL0     C 1135   3.841   5.406   8.382 -0.2376 -0.5454 -0.1317
    9MOL0     C 1136   3.914   5.469   8.488  0.6048  1.0840  0.4106
    9MOL0     C 1137   4.046   5.472   8.480 -0.0905 -0.6203  0.3212
    9MOL0     C 1138   4.111   5.421   8.370 -0.1054 -0.8766  0.2016
    9MOL0     O 1139   4.247   5.419   8.362 -0.2925  0.6344 -0.0164
    9MOL0     C 1140   4.307   5.549   8.358 -0.6083 -0.4693 -0.0728
    9MOL0     C 1141   4.453   5.549   8.333 -0.5295 -0.7853 -0.6341
    9MOL0     C 1142   4.502   5.695   8.342  0.6370  0.6502 -0.8542
    9MOL0     C 1143   4.657   5.685   8.329 -0.8099 -0.1387 -0.0052
    9MOL0     C 1144   4.700   5.823   8.279 -0.0668  0.6522 -1.0584
    9MOL0     C 1145   4.725   5.936   8.228 -1.2052 -0.1511 -0.0458
    9MOL0     C 1146   4.048   5.368   8.265  0.5332 -0.5380  0.5246
    9MOL0     C 1147   3.904   5.369   8.265  0.3836  0.2941 -0.2220
    9MOL0     H 1148   3.427   5.395   8.474  1.2625 -3.9170  1.7228
    9MOL0     H 1149   3.184   5.379   8.425  1.0957 -2.4638  2.8742
    9MOL0     H 1150   2.998   5.311   8.386  1.9890  1.8802 -0.4426
    9MOL0     H 1151   2.981   5.457   8.289  1.5085  0.8833  2.1394
    9MOL0     H 1152   2.841   5.349   8.122 -0.7395  0.1190 -0.2335
    9MOL0     H 1153   2.833   5.202   8.213  1.1722  0.3079 -2.5334
    9MOL0     H 1154   2.715   5.328   8.395  1.0122  0.4577  0.4368
    9MOL0     H 1155   2.735   5.479   8.318  0.3200 -0.7617  0.5746
    9MOL0     H 1156   2.578   5.240   8.202  1.2619  0.2551  0.8115
    9MOL0     H 1157   2.514   5.376   8.276  0.1222 -2.0426  0.6714
    9MOL0     H 1158   2.588   5.523   8.106  0.0313 -0.2675  2.9165
    9MOL0     H 1159   2.663   5.383   8.019 -0.8946 -1.6378 -0.9559
    9MOL0     H 1160   2.450   5.446   7.909 -2.7495  2.4552  0.9380
    9MOL0     H 1161   2.452   5.287   7.974  2.0337 -0.4899  1.5442
    9MOL0     H 1162   2.234   5.392   8.014 -0.6292  1.5190 -0.1458
    9MOL0     H 1163   2.292   5.348   8.167  0.0972  1.0394  1.9431
    9MOL0     H 1164   2.407   5.565   8.198 -0.8435  3.3677 -0.3630
    9MOL0     H 1165   2.233   5.580   8.223  0.7270  0.9571  1.7373
    9MOL0     H 1166   2.079   5.641   7.986 -0.3326 -1.3590  0.9702
    9MOL0     H 1167   2.153   5.969   7.789  5.1886 -0.9333  0.4518
    9MOL0     H 1168   2.145   5.833   7.690  3.2108  1.4293 -0.3285
    9MOL0     H 1169   1.974   5.830   7.941 -2.3236  0.7362 -0.4957
    9MOL0     H 1170   1.954   5.744   7.788  2.5686 -0.1081 -1.0085
    9MOL0     H 1171   1.916   5.985   7.682 -0.1285  0.3694  1.1958
    9MOL0     H 1172   1.901   6.037   7.855  0.5419 -0.5474  0.3470
    9MOL0     H 1173   1.729   5.878   7.891 -1.1684  1.1424  0.0159
    9MOL0     H 1174   1.730   5.836   7.713  0.5690 -1.0156  0.1433
    9MOL0     H 1175   1.509   5.796   7.773 -0.5290 -0.5499 -1.6626
    9MOL0     H 1176   1.286   5.706   7.842 -1.6427 -1.2261 -0.8357
    9MOL0     H 1177   1.142   5.815   7.839 -1.0073  0.1780 -0.4094
    9MOL0     H 1178   1.200   5.713   7.707  1.9474 -0.8386  0.5194
    9MOL0     H 1179   0.838   6.030   7.645  3.8233 -1.2543 -2.2921
    9MOL0     H 1180   0.630   6.068   7.519  0.6227 -0.6039 -1.4146
    9MOL0     H 1181   0.566   6.448   7.421  1.0203 -1.7600  0.8384
    9MOL0     H 1182   0.618   6.432   7.247  2.8844 -1.8563  2.8198
    9MOL0     H 1183   0.424   6.340   7.170 -0.5756  3.7693 -1.7069
    9MOL0     H 1184   0.340   6.326   7.324  1.5041 -1.7698 -0.3734
    9MOL0     H 1185   0.412   6.580   7.148  0.2442  0.7452  0.9491
    9MOL0     H 1186   0.370   6.598   7.319 -0.6007  1.2996 -0.3099
    9MOL0     H 1187   0.195   6.450   7.131  1.3827 -2.8315  1.8254
    9MOL0     H 1188   0.150   6.508   7.293  2.1026 -1.6235  2.0171
    9MOL0     H 1189   0.223   6.717   7.073 -0.3110  1.4916  0.0296
    9MOL0     H 1190   0.160   6.736   7.240 -0.0977  1.7646 -0.4728
    9MOL0     H 1191   0.011   6.608   7.003  1.5343  3.3231 -1.6382
    9MOL0     H 1192  -0.041   6.615   7.171  1.2615  0.3026  1.0388
    9MOL0     H 1193   0.020   6.858   7.002 -0.0084 -2.3193 -1.4288
    9MOL0     H 1194  -0.038   6.861   7.161  2.4951 -0.7507  0.3980
    9MOL0     H 1195  -0.259   6.710   7.075  0.1443 -1.9798 -0.6037
    9MOL0     H 1196  -0.179   6.725   6.926 -1.6443 -0.1459  0.2565
    9MOL0     H 1197   0.815   6.402   7.318 -1.9333  0.4923  0.4409
    9MOL0     H 1198   1.036   6.348   7.438  0.1066  0.0530  1.1412
    9MOL0     H 1199   1.306   6.232   7.638  1.7810  0.2943  0.6130
    9MOL0     H 1200   1.542   6.209   7.710  0.5960 -0.7286 -2.4588
    9MOL0     H 1201   3.268   5.253   8.021  2.0197 -1.8489 -0.5353
    9MOL0     H 1202   3.524   5.287   8.058  0.7556 -0.7862  0.9153
    9MOL0     H 1203   3.865   5.522   8.569 -3.7841 -0.5913 -0.8873
    9MOL0     H 1204   4.107   5.514   8.560  0.5132  0.3348 -0.6201
    9MOL0     H 1205   4.266   5.601   8.271  0.5751 -0.1824 -0.4753
    9MOL0     H 1206   4.289   5.613   8.444  1.5366  0.8508 -0.5247
    9MOL0     H 1207   4.488   5.511   8.237  3.9212  0.3739  0.2805
    9MOL0     H 1208   4.507   5.495   8.412  2.5090 -0.4459 -2.3423
    9MOL0     H 1209   4.485   5.722   8.446  0.8850 -3.1659  0.3442
    9MOL0     H 1210   4.453   5.764   8.273 -0.1571 -1.6301 -2.7119
    9MOL0     H 1211   4.680   5.612   8.251  2.8131 -1.4407  2.0727
    9MOL0     H 1212   4.698   5.651   8.425 -0.0854 -0.1161 -0.2986
    9MOL0     H 1213   4.736   6.040   8.205  1.2810  0.3671  2.8537
    9MOL0     H 1214   4.095   5.333   8.174 -1.1074 -3.2212  0.5897
    9MOL0     H 1215   3.855   5.339   8.173  0.5753  1.2890 -0.6694
   10MOL0     O 1216   0.084   9.768  11.398  0.3465  0.0935 -0.3236
   10MOL0     C 1217   0.121   9.661  11.451  0.1548 -0.0957  0.2391
   10MOL0     O 1218   0.038   9.572  11.513  0.6350 -0.3002 -0.4749
   10MOL0     C 1219  -0.092   9.604  11.534  0.6927 -0.2985 -0.7435
   10MOL0     C 1220  -0.133   9.718  11.609  0.0378 -0.8492 -0.0797
   10MOL0     C 1221  -0.271   9.742  11.625 -0.9431 -0.0510 -0.7314
   10MOL0     C 1222  -0.375   9.657  11.574 -0.8949  0.0229  0.0798
   10MOL0     O 1223  -0.510   9.695  11.586  0.0777 -0.3823  0.6572
   10MOL0     C 1224  -0.561   9.677  11.720  0.6139  0.4982  0.2063
   10MOL0     C 1225  -0.708   9.637  11.702  0.6766 -0.1900 -0.2453
   10MOL0     C 1226  -0.805   9.759  11.692 -0.0180  0.0573 -0.0102
   10MOL0     C 1227  -0.829   9.825  11.824 -0.0670  0.1564 -1.1214
   10MOL0     C 1228  -0.902   9.757  11.937 -0.6415  0.0015 -0.1829
   10MOL0     C 1229  -0.953   9.846  12.051 -0.2476 -0.0085 -0.0793
   10MOL0     C 1230  -0.993   9.762  12.174  0.1004 -0.1444 -0.6622
   10MOL0     C 1231  -1.037   9.855  12.290  0.0150 -0.3073 -0.2272
   10MOL0     N 1232  -1.104   9.764  12.384  0.3536 -1.1186 -0.2113
   10MOL0     C 1233  -1.036   9.700  12.480  0.5817  0.3609 -0.4112
   10MOL0     C 1234  -1.138   9.655  12.557 -0.4978  0.3529 -1.4210
   10MOL0     C 1235  -1.134   9.548  12.671 -0.0906  0.1343  0.1455
   10MOL0     C 1236  -1.121   9.619  12.808  0.0296 -0.1011 -0.0765
   10MOL0     C 1237  -1.220   9.579  12.923 -0.1772 -0.1941 -0.8129
   10MOL0     C 1238  -1.367   9.595  12.884  0.1390 -0.5116  0.3492
   10MOL0     O 1239  -1.406   9.729  12.894 -0.3753  0.2975 -0.5489
   10MOL0     C 1240  -1.485   9.773  12.791 -0.2914  1.4474  0.1563
   10MOL0     C 1241  -1.440   9.873  12.716  0.1851 -1.3489 -0.0550
   10MOL0     C 1242  -1.532   9.935  12.623  1.2398  0.0132 -0.0763
   10MOL0     C 1243  -1.478  10.054  12.551  0.5843  0.4927 -0.3450
   10MOL0     C 1244  -1.659   9.866  12.588  0.4754 -0.3965 -0.3344
   10MOL0     C 1245  -1.761   9.910  12.491 -0.1590 -0.6430  0.6936
   10MOL0     O 1246  -1.889   9.859  12.513 -0.5448  0.4853 -0.5079
   10MOL0     C 1247  -1.965   9.870  12.397  0.5154 -0.8070 -1.2344
   10MOL0     C 1248  -2.053   9.982  12.397 -0.0629  0.2879  0.6282
   10MOL0     C 1249  -2.128  10.013  12.291  0.6815  0.5312  0.2836
   10MOL0     C 1250  -2.139   9.929  12.182  0.4787  0.3084 -0.2574
   10MOL0     O 1251  -2.226   9.951  12.072  0.0995  0.2101  0.1140
   10MOL0     C 1252  -2.357   9.995  12.113  0.1920 -0.2198 -0.0309
   10MOL0     C 1253  -2.454   9.878  12.151  0.3535 -0.9464 -0.0097
   10MOL0     C 1254  -2.446   9.753  12.056  0.3752 -0.8255 -0.0479
   10MOL0     C 1255  -2.574   9.661  12.067 -0.1519 -0.3141 -0.3354
   10MOL0     C 1256  -2.566   9.511  12.023  0.2512  0.6714  0.2593
   10MOL0     C 1257  -2.692   9.443  12.013 -0.1801  0.1880 -0.8289
   10MOL0     C 1258  -2.701   9.310  11.929  0.3650  0.5487  0.5993
   10MOL0     C 1259  -2.843   9.241  11.927 -0.2379  0.0498  0.5694
   10MOL0    Cl 1260  -2.850   9.069  11.883 -0.1062  0.4192  0.4908
   10MOL0     C 1261  -2.066   9.814  12.186 -0.6330  0.7894 -0.5374
   10MOL0     C 1262  -1.978   9.787  12.294 -0.9836  0.2855  0.2208
   10MOL0     O 1263  -1.722   9.973  12.392  0.0515  0.5662  0.1679
   10MOL0     C 1264  -1.684   9.746  12.663  0.4604  0.0188 -0.0078
   10MOL0     C 1265  -1.601   9.701  12.755 -1.2388 -0.0708 -1.1171
   10MOL0     N 1266  -1.260   9.697  12.512 -0.0296  0.4487 -0.5329
   10MOL0     N 1267  -1.242   9.760  12.409 -0.3173  0.1529  0.8961
   10MOL0     C 1268  -0.323   9.545  11.508  0.0632 -0.5955 -0.7074
   10MOL0     C 1269  -0.192   9.517  11.488  0.3256  0.6371 -0.0066
   10MOL0     C 1270   0.264   9.631  11.411 -0.2985  1.1269 -0.4537
   10MOL0     C 1271   0.325   9.503  11.438  0.7670  0.6813  0.1737
   10MOL0     C 1272   0.461   9.480  11.415 -0.2212  0.4917 -0.0031
   10MOL0     C 1273   0.547   9.580  11.363  0.0907 -0.8112  0.4498
   10MOL0     O 1274   0.683   9.556  11.346 -0.6937  0.1084  0.9438
   10MOL0     C 1275   0.766   9.619  11.251 -0.6315  0.4850 -0.1173
   10MOL0     C 1276   0.869   9.709  11.324  0.2938  0.0046  0.0350
   10MOL0     C 1277   0.820   9.845  11.375 -0.2023 -0.4318 -0.4577
   10MOL0     C 1278   0.784   9.944  11.260 -0.9245  0.8655  1.1787
   10MOL0     C 1279   0.900   9.967  11.165  0.0166  1.0528  0.1975
   10MOL0     C 1280   1.014   9.988  11.116  0.4868  0.2304 -0.6803
   10MOL0     C 1281   0.482   9.699  11.322 -0.9482 -0.6483 -0.1035
   10MOL0     C 1282   0.348   9.726  11.348  1.1166  0.6674  0.2999
   10MOL0     H 1283  -0.068   9.797  11.646 -1.1606  0.4225 -0.6110
   10MOL0     H 1284  -0.305   9.832  11.674 -1.4770  0.1042 -1.3697
   10MOL0     H 1285  -0.514   9.597  11.778  3.6659  0.3365 -2.2054
   10MOL0     H 1286  -0.541   9.776  11.763  0.2028  1.0824 -0.9046
   10MOL0     H 1287  -0.726   9.576  11.612 -1.6925 -0.1218  0.1249
   10MOL0     H 1288  -0.738   9.581  11.791 -0.1901  0.4442 -0.1238
   10MOL0     H 1289  -0.775   9.830  11.615  0.4401 -0.8044 -0.6363
   10MOL0     H 1290  -0.902   9.716  11.663  0.9365 -1.7122 -0.7702
   10MOL0     H 1291  -0.743   9.868  11.877 -2.2495  0.2134  2.7185
   10MOL0     H 1292  -0.895   9.909  11.801 -0.6975  0.0120  0.0884
   10MOL0     H 1293  -0.990   9.700  11.904  0.6544 -2.3606  0.1934
   10MOL0     H 1294  -0.833   9.683  11.979 -1.7964 -2.0781 -1.7443
   10MOL0     H 1295  -0.872   9.913  12.082  0.6527 -0.3755 -1.5522
   10MOL0     H 1296  -1.035   9.910  12.021 -1.2768 -0.0112  2.4343
   10MOL0     H 1297  -1.074   9.695  12.141 -1.3782  1.1417  0.2142
   10MOL0     H 1298  -0.910   9.696  12.201  0.0689 -0.6448 -1.7312
   10MOL0     H 1299  -1.119   9.921  12.261  0.8886  0.8841 -0.0769
   10MOL0     H 1300  -0.957   9.914  12.337 -1.2267 -0.0813  1.6876
   10MOL0     H 1301  -0.930   9.685  12.501  0.0689  1.8572  4.5396
   10MOL0     H 1302  -1.223   9.485  12.662  1.2075 -1.4961 -2.7724
   10MOL0     H 1303  -1.042   9.488  12.670 -0.0457  0.2079 -0.2451
   10MOL0     H 1304  -1.119   9.728  12.795  1.6055 -0.3606 -2.7724
   10MOL0     H 1305  -1.020   9.596  12.843  0.5797 -0.2147 -1.6701
   10MOL0     H 1306  -1.201   9.648  13.005  0.5727 -0.5945 -0.6452
   10MOL0     H 1307  -1.198   9.480  12.963  0.2120  0.1783 -0.0974
   10MOL0     H 1308  -1.424   9.530  12.951  0.6860 -0.4879  0.8507
   10MOL0     H 1309  -1.371   9.560  12.781  2.1109 -0.3842  0.1885
   10MOL0     H 1310  -1.343   9.918  12.732 -0.6061  1.4997 -2.4595
   10MOL0     H 1311  -1.414  10.016  12.471 -1.9409  0.5527 -2.5260
   10MOL0     H 1312  -1.561  10.100  12.497 -1.6599  1.5984  3.6826
   10MOL0     H 1313  -1.423  10.125  12.614  2.0064  1.1414 -2.2058
   10MOL0     H 1314  -2.037  10.057  12.474  2.2334 -1.3806  1.9251
   10MOL0     H 1315  -2.180  10.108  12.298 -0.9006 -0.4044  2.2899
   10MOL0     H 1316  -2.354  10.080  12.181  0.2412 -1.9955  2.2868
   10MOL0     H 1317  -2.410  10.029  12.022 -0.4101  4.6531  1.8229
   10MOL0     H 1318  -2.423   9.852  12.253  1.8828  0.2324 -0.1440
   10MOL0     H 1319  -2.554   9.922  12.159 -0.6752 -2.8019 -1.7033
   10MOL0     H 1320  -2.358   9.693  12.080  1.0686 -0.0280 -0.5409
   10MOL0     H 1321  -2.428   9.788  11.954 -1.7094  0.8393  0.0696
   10MOL0     H 1322  -2.587   9.658  12.175  1.2928 -1.4376 -0.1715
   10MOL0     H 1323  -2.656   9.720  12.026  2.4922  2.7053 -1.6662
   10MOL0     H 1324  -2.502   9.456  12.093 -1.7356 -2.6437 -0.3581
   10MOL0     H 1325  -2.516   9.510  11.925 -0.0233  0.9467  0.1170
   10MOL0     H 1326  -2.716   9.409  12.114  0.9826  2.4380  0.2765
   10MOL0     H 1327  -2.774   9.509  11.981 -1.0414 -0.2725  0.3382
   10MOL0     H 1328  -2.619   9.243  11.956 -0.0254 -0.6053 -0.9084
   10MOL0     H 1329  -2.679   9.344  11.827 -0.4408 -1.0301 -0.1529
   10MOL0     H 1330  -2.917   9.301  11.873 -0.6528  0.3155  1.4126
   10MOL0     H 1331  -2.881   9.244  12.030 -1.6473 -0.4201  0.0839
   10MOL0     H 1332  -2.080   9.740  12.108  1.2342 -0.4847  0.2496
   10MOL0     H 1333  -1.924   9.694  12.283  2.9005  2.6133 -3.4210
   10MOL0     H 1334  -1.773   9.684  12.654  2.5142 -2.9795 -1.1006
   10MOL0     H 1335  -1.631   9.615  12.814 -1.4394  0.1242 -0.9281
   10MOL0     H 1336  -0.402   9.480  11.471 -0.9104  0.4348 -0.4841
   10MOL0     H 1337  -0.162   9.427  11.434  2.3077  1.0814  0.2823
   10MOL0     H 1338   0.260   9.429  11.485 -2.8565  1.7159 -2.6884
   10MOL0     H 1339   0.503   9.381  11.426 -1.7021  0.0852  3.8500
   10MOL0     H 1340   0.834   9.539  11.220  0.5857  0.6397  1.9470
   10MOL0     H 1341   0.710   9.664  11.169 -0.8542 -1.4982 -1.1185
   10MOL0     H 1342   0.959   9.724  11.265  0.2563  3.3554  0.6061
   10MOL0     H 1343   0.901   9.655  11.413  2.4151  2.4953  0.9059
   10MOL0     H 1344   0.897   9.895  11.434  0.6801  1.5522 -3.0550
   10MOL0     H 1345   0.740   9.836  11.450 -0.3567  0.9416 -0.4230
   10MOL0     H 1346   0.754  10.034  11.314 -1.4371  3.0437 -2.4317
   10MOL0     H 1347   0.697   9.910  11.202 -1.7165  3.1382  0.9219
   10MOL0     H 1348   1.104  10.012  11.064  2.2135  0.6553  2.2587
   10MOL0     H 1349   0.538   9.780  11.276  0.6813 -2.4511 -1.4995
   10MOL0     H 1350   0.309   9.826  11.328  1.9196  0.9191 -0.0784
   11MOL0     O 1351   3.312   1.086   3.029  0.6571  0.4104  0.7471
   11MOL0     C 1352   3.265   1.196   3.035 -0.7519 -0.0178 -0.3274
   11MOL0     O 1353   3.327   1.303   3.101  0.2570 -0.0872 -0.1280
   11MOL0     C 1354   3.454   1.288   3.144 -0.1577  0.3357  0.2109
   11MOL0     C 1355   3.488   1.222   3.266 -0.3169 -0.6073 -0.3078
   11MOL0     C 1356   3.621   1.205   3.316  0.3738 -0.7020 -0.5818
   11MOL0     C 1357   3.725   1.248   3.237 -0.4137 -0.5895 -0.8504
   11MOL0     O 1358   3.854   1.219   3.262  0.6029  1.1077  0.0526
   11MOL0     C 1359   3.888   1.093   3.329 -0.2101  0.1651 -0.0393
   11MOL0     C 1360   3.854   0.972   3.243  0.0290 -0.4187 -0.0700
   11MOL0     C 1361   3.927   0.977   3.108  0.1484 -0.2778 -0.8039
   11MOL0     C 1362   3.956   0.837   3.060 -0.2923 -0.2495 -0.2638
   11MOL0     C 1363   3.825   0.756   3.038 -0.7333 -0.1990  0.0811
   11MOL0     C 1364   3.842   0.649   2.926  1.7039 -0.1784  0.4199
   11MOL0     C 1365   3.950   0.543   2.948  0.4122  0.3304  0.3244
   11MOL0     C 1366   3.982   0.476   2.814 -0.9857  0.4152 -0.4237
   11MOL0     N 1367   3.866   0.427   2.742 -0.1254  0.6318 -0.5336
   11MOL0     C 1368   3.810   0.302   2.760  0.4631 -0.2276 -0.9124
   11MOL0     C 1369   3.726   0.298   2.653  0.6854 -0.8761 -0.1054
   11MOL0     C 1370   3.641   0.177   2.608 -0.2559  0.0256 -0.1704
   11MOL0     C 1371   3.487   0.198   2.646  0.7839 -0.1387  0.3845
   11MOL0     C 1372   3.416   0.307   2.569 -0.2143  0.9171 -0.4667
   11MOL0     C 1373   3.412   0.298   2.420 -0.6744 -0.0338 -1.2970
   11MOL0     O 1374   3.332   0.399   2.358 -0.1078 -0.2175 -0.0065
   11MOL0     C 1375   3.200   0.376   2.355  0.1557 -0.5772 -0.0626
   11MOL0     C 1376   3.124   0.258   2.377  0.2701 -0.4275  0.9799
   11MOL0     C 1377   2.982   0.254   2.367  0.1560  0.1553 -0.1089
   11MOL0     C 1378   2.909   0.128   2.387  0.4951  0.8167  0.3455
   11MOL0     C 1379   2.908   0.375   2.346  0.4642 -0.3330  0.3702
   11MOL0     C 1380   2.758   0.388   2.356 -0.3480 -0.1399  0.7942
   11MOL0     O 1381   2.709   0.512   2.324  0.4188 -0.4257  0.4220
   11MOL0     C 1382   2.595   0.560   2.376 -0.1872 -0.0047 -0.2724
   11MOL0     C 1383   2.609   0.656   2.477  0.3593  0.6013  0.7105
   11MOL0     C 1384   2.505   0.718   2.536  0.2187 -1.1190 -1.0187
   11MOL0     C 1385   2.376   0.678   2.500  0.4094 -1.3296 -0.0781
   11MOL0     O 1386   2.263   0.716   2.571  0.0913  0.1577  0.7744
   11MOL0     C 1387   2.249   0.844   2.625 -0.2700  0.1054  0.8331
   11MOL0     C 1388   2.100   0.877   2.665  0.3570  0.3877  0.7489
   11MOL0     C 1389   2.056   0.778   2.772  0.2754  0.0833 -0.8805
   11MOL0     C 1390   1.939   0.809   2.864  0.3811  0.4485 -0.4924
   11MOL0     C 1391   1.905   0.688   2.955 -0.1732 -0.1577  0.0209
   11MOL0     C 1392   2.020   0.622   3.032  0.0495 -0.1713  0.7255
   11MOL0     C 1393   1.988   0.529   3.144  0.1329  0.0233 -0.8443
   11MOL0     C 1394   2.118   0.474   3.209  1.1695 -0.5859  0.3567
   11MOL0    Cl 1395   2.232   0.590   3.255 -0.4206  0.4101 -0.3865
   11MOL0     C 1396   2.360   0.592   2.396 -0.1506  0.9258 -0.7511
   11MOL0     C 1397   2.465   0.523   2.334  0.1823  0.6705 -0.2881
   11MOL0     O 1398   2.689   0.301   2.388 -0.0859 -0.3849 -0.2816
   11MOL0     C 1399   2.982   0.486   2.315  0.1054  0.3669  0.8410
   11MOL0     C 1400   3.120   0.495   2.327 -0.6685  0.8114  0.7192
   11MOL0     N 1401   3.735   0.409   2.569  0.0659 -0.7968 -0.3452
   11MOL0     N 1402   3.814   0.491   2.629  0.0244 -0.0953 -0.8446
   11MOL0     C 1403   3.697   1.325   3.123 -0.0776  0.5546  0.4221
   11MOL0     C 1404   3.565   1.344   3.078 -0.8502 -0.2223 -0.0478
   11MOL0     C 1405   3.154   1.219   2.946 -0.1137 -0.4350 -0.5398
   11MOL0     C 1406   3.085   1.106   2.887 -0.1982  0.0605 -0.0081
   11MOL0     C 1407   2.966   1.126   2.823  0.0628  0.0416  0.2244
   11MOL0     C 1408   2.912   1.257   2.797  0.0715 -0.2996 -0.9183
   11MOL0     O 1409   2.792   1.289   2.728 -0.4935  0.6128 -0.8333
   11MOL0     C 1410   2.714   1.189   2.670  0.4838  0.1822  0.4540
   11MOL0     C 1411   2.770   1.135   2.541 -0.0661  0.6229 -0.5132
   11MOL0     C 1412   2.822   1.243   2.453  0.1858  0.7324  0.6594
   11MOL0     C 1413   2.835   1.188   2.312  0.1444  0.4005 -0.5661
   11MOL0     C 1414   2.701   1.172   2.245 -0.5419 -0.1341  0.1479
   11MOL0     C 1415   2.595   1.171   2.192 -0.1266  0.1565  0.2153
   11MOL0     C 1416   2.989   1.363   2.834 -1.0030 -1.0612 -0.0198
   11MOL0     C 1417   3.106   1.343   2.913  0.1560 -0.1485  0.5663
   11MOL0     H 1418   3.404   1.189   3.326 -0.9793  0.9991 -0.3217
   11MOL0     H 1419   3.634   1.160   3.414  1.8098  2.0937  0.6282
   11MOL0     H 1420   3.994   1.097   3.354 -0.8513  1.0965  3.0173
   11MOL0     H 1421   3.842   1.089   3.428  1.1704  0.0546  0.6215
   11MOL0     H 1422   3.873   0.882   3.302 -3.0426 -1.3552 -0.3018
   11MOL0     H 1423   3.746   0.970   3.225  0.4342 -0.5870 -2.9332
   11MOL0     H 1424   3.870   1.027   3.029  0.5170 -1.9755 -2.1858
   11MOL0     H 1425   4.027   1.020   3.107 -0.1250  0.3677 -1.2995
   11MOL0     H 1426   3.988   0.847   2.956  2.4958 -1.1274  0.4209
   11MOL0     H 1427   4.020   0.781   3.129 -3.1303 -2.0851  1.0503
   11MOL0     H 1428   3.797   0.701   3.128  0.9536 -0.3332  0.5704
   11MOL0     H 1429   3.744   0.821   3.005  1.2084  2.5136  0.2851
   11MOL0     H 1430   3.745   0.604   2.902  0.8727  1.6338  0.1332
   11MOL0     H 1431   3.849   0.704   2.832 -3.5923  0.2516 -0.0666
   11MOL0     H 1432   4.035   0.600   2.986  0.1811  2.5263 -2.1748
   11MOL0     H 1433   3.915   0.473   3.025  1.2616  1.8628  2.1950
   11MOL0     H 1434   4.043   0.389   2.842 -0.4023  1.6409  2.6324
   11MOL0     H 1435   4.046   0.538   2.750  1.7396  1.3302  2.8235
   11MOL0     H 1436   3.842   0.222   2.826 -0.8061 -0.5687 -0.6892
   11MOL0     H 1437   3.656   0.176   2.499  1.5364 -0.7396  0.0433
   11MOL0     H 1438   3.686   0.084   2.642  1.2537  1.0222  0.6823
   11MOL0     H 1439   3.477   0.205   2.754 -3.6578 -2.8983  0.4545
   11MOL0     H 1440   3.430   0.105   2.631 -1.6793  1.4150 -0.5275
   11MOL0     H 1441   3.459   0.403   2.601  3.6178 -1.7924  3.8167
   11MOL0     H 1442   3.313   0.317   2.607 -0.7186  1.4238 -1.9097
   11MOL0     H 1443   3.379   0.199   2.386 -3.0196  0.4872 -0.7261
   11MOL0     H 1444   3.513   0.304   2.380  0.1219 -0.6461  0.5656
   11MOL0     H 1445   3.174   0.162   2.377  1.4920  0.1602 -0.9038
   11MOL0     H 1446   2.984   0.051   2.405  0.6769  1.0177  0.4525
   11MOL0     H 1447   2.833   0.121   2.465  0.2583  0.8627  0.1226
   11MOL0     H 1448   2.860   0.116   2.290  0.9870 -1.1052  0.2954
   11MOL0     H 1449   2.704   0.700   2.505 -0.0882  1.7464  0.4969
   11MOL0     H 1450   2.532   0.795   2.608 -0.4812 -2.5817  0.9031
   11MOL0     H 1451   2.315   0.847   2.712  0.4763 -1.8000  0.3821
   11MOL0     H 1452   2.288   0.916   2.552  1.7752 -1.9125 -0.1840
   11MOL0     H 1453   2.086   0.981   2.696  0.1446 -0.0242  2.1175
   11MOL0     H 1454   2.045   0.869   2.571  1.2889  0.5287  0.1821
   11MOL0     H 1455   2.140   0.759   2.839 -0.9572  2.4919  1.5669
   11MOL0     H 1456   2.031   0.688   2.715  3.3144 -1.6090  0.2149
   11MOL0     H 1457   1.969   0.897   2.921  2.2206 -0.4317 -0.0235
   11MOL0     H 1458   1.851   0.835   2.804 -0.6934  0.3730  0.9934
   11MOL0     H 1459   1.876   0.605   2.890  2.1568 -1.3033  0.3511
   11MOL0     H 1460   1.825   0.709   3.026 -0.1814 -3.1507  1.0392
   11MOL0     H 1461   2.089   0.570   2.965  1.4947 -0.6134  2.4672
   11MOL0     H 1462   2.072   0.701   3.086  0.4875 -0.4944  0.7816
   11MOL0     H 1463   1.910   0.458   3.117  1.3584 -1.9155  0.4832
   11MOL0     H 1464   1.948   0.592   3.225  1.8236 -0.8236  0.7320
   11MOL0     H 1465   2.170   0.406   3.142  0.6909  2.3602 -3.3325
   11MOL0     H 1466   2.085   0.412   3.293 -1.0340 -0.1198 -0.0945
   11MOL0     H 1467   2.259   0.559   2.373  0.0598 -0.9840  0.8322
   11MOL0     H 1468   2.461   0.465   2.242 -1.0745  0.8081 -0.3414
   11MOL0     H 1469   2.925   0.571   2.278 -1.2101 -1.0126 -0.4173
   11MOL0     H 1470   3.172   0.582   2.288  2.1413 -0.7469  0.6824
   11MOL0     H 1471   3.779   1.374   3.071  0.9736  1.7164  3.0246
   11MOL0     H 1472   3.543   1.401   2.987 -0.7003 -0.8716 -0.4957
   11MOL0     H 1473   3.111   1.005   2.916 -1.4542  0.6551  3.7624
   11MOL0     H 1474   2.903   1.044   2.791 -1.0529  0.9697 -0.0311
   11MOL0     H 1475   2.690   1.111   2.743  1.0537 -3.9566 -3.3271
   11MOL0     H 1476   2.612   1.220   2.643 -0.1879 -1.5559  0.8528
   11MOL0     H 1477   2.687   1.079   2.498  0.2015  0.6504 -1.0834
   11MOL0     H 1478   2.852   1.065   2.561 -1.0236 -0.2228  0.5437
   11MOL0     H 1479   2.921   1.278   2.486  1.3453 -0.7823 -1.0308
   11MOL0     H 1480   2.756   1.330   2.449 -2.4552 -1.1943 -1.5515
   11MOL0     H 1481   2.896   1.097   2.304  3.5636  2.4710 -0.0114
   11MOL0     H 1482   2.888   1.261   2.251  1.5267  0.1539  0.2987
   11MOL0     H 1483   2.494   1.166   2.156 -0.5595  0.4763  1.3653
   11MOL0     H 1484   2.955   1.464   2.815 -0.9391 -0.1421  3.8035
   11MOL0     H 1485   3.162   1.430   2.946 -1.0788  0.7984  0.2483
   12MOL0     O 1486   0.878   9.419   1.361 -0.1665 -0.3939 -0.1948
   12MOL0     C 1487   0.925   9.397   1.472 -0.2277  0.8155  0.7766
   12MOL0     O 1488   0.864   9.311   1.561 -0.4901  0.3270 -0.6041
   12MOL0     C 1489   0.750   9.243   1.528 -0.3557 -0.3679  0.2560
   12MOL0     C 1490   0.710   9.206   1.397 -0.2970 -0.2625  0.9090
   12MOL0     C 1491   0.585   9.136   1.373 -0.5327  0.2273 -0.3966
   12MOL0     C 1492   0.494   9.118   1.479  0.5742  0.1836  0.7234
   12MOL0     O 1493   0.362   9.084   1.461 -0.4230 -0.2502 -0.3389
   12MOL0     C 1494   0.314   9.027   1.333 -0.2769  0.2727  0.5550
   12MOL0     C 1495   0.182   8.961   1.360  0.1723  0.5275 -0.0437
   12MOL0     C 1496   0.067   9.063   1.380 -0.9539  0.2174  0.2049
   12MOL0     C 1497  -0.065   8.992   1.419  0.4134 -0.0874 -0.6777
   12MOL0     C 1498  -0.112   8.878   1.329  0.1242  0.0396  0.3202
   12MOL0     C 1499  -0.125   8.932   1.178 -0.4026 -0.0135 -0.0610
   12MOL0     C 1500  -0.182   8.813   1.090 -0.6325 -0.0516 -0.8651
   12MOL0     C 1501  -0.226   8.875   0.952  1.1592 -0.1342 -0.1072
   12MOL0     N 1502  -0.343   8.800   0.902  0.7033  0.0586  0.0901
   12MOL0     C 1503  -0.351   8.689   0.824  0.0222 -0.7402 -0.5447
   12MOL0     C 1504  -0.479   8.682   0.782 -0.2051 -0.2250  0.0450
   12MOL0     C 1505  -0.523   8.581   0.675  1.1086  0.1467 -0.5769
   12MOL0     C 1506  -0.529   8.443   0.732 -0.0073  0.7450  0.2231
   12MOL0     C 1507  -0.544   8.338   0.619 -0.1513  0.8958 -0.1794
   12MOL0     C 1508  -0.648   8.236   0.667  0.0766  0.9466 -0.7005
   12MOL0     O 1509  -0.775   8.288   0.642  0.5784  0.0906 -0.9227
   12MOL0     C 1510  -0.886   8.223   0.693  0.4257  0.3827  1.1029
   12MOL0     C 1511  -0.897   8.099   0.759  0.0668  0.5496 -0.0333
   12MOL0     C 1512  -1.011   8.043   0.799 -0.1604  1.3268  0.3219
   12MOL0     C 1513  -1.014   7.916   0.889 -0.7211  0.0584  0.0263
   12MOL0     C 1514  -1.140   8.106   0.763 -0.3307 -0.1852  0.3844
   12MOL0     C 1515  -1.279   8.053   0.783 -0.5684  0.5895 -0.7928
   12MOL0     O 1516  -1.285   7.918   0.803  0.2732  0.1659 -1.2848
   12MOL0     C 1517  -1.401   7.842   0.805 -0.5360 -0.0630 -0.0426
   12MOL0     C 1518  -1.418   7.741   0.905 -0.1355  0.0597  0.1497
   12MOL0     C 1519  -1.546   7.682   0.921 -0.2019  0.1375  0.3766
   12MOL0     C 1520  -1.644   7.700   0.822  0.6357  0.1110  0.4270
   12MOL0     O 1521  -1.752   7.608   0.814 -0.6640 -0.9049  0.1736
   12MOL0     C 1522  -1.775   7.501   0.898 -0.2977 -0.3303 -0.8793
   12MOL0     C 1523  -1.928   7.461   0.876 -0.1236  0.1985  0.6080
   12MOL0     C 1524  -1.943   7.328   0.947  0.1260  0.1158  0.2784
   12MOL0     C 1525  -2.039   7.325   1.069  0.2304 -0.2890  0.1250
   12MOL0     C 1526  -2.187   7.305   1.014 -0.0963  0.0366  0.0317
   12MOL0     C 1527  -2.278   7.358   1.119 -0.0376  0.1554 -0.4333
   12MOL0     C 1528  -2.428   7.360   1.079 -0.2268 -0.3287  1.0185
   12MOL0     C 1529  -2.500   7.469   1.166 -0.5025 -0.1661  0.2818
   12MOL0    Cl 1530  -2.674   7.493   1.104 -0.6073 -0.2334 -0.1152
   12MOL0     C 1531  -1.618   7.781   0.711 -0.7302 -0.4030 -0.3810
   12MOL0     C 1532  -1.493   7.856   0.704 -0.1519  0.2623 -0.1273
   12MOL0     O 1533  -1.379   8.124   0.776 -0.1066  0.6378 -0.5155
   12MOL0     C 1534  -1.133   8.230   0.690  0.0899 -0.2551 -0.5809
   12MOL0     C 1535  -1.007   8.284   0.652  0.0276 -0.2034 -0.1967
   12MOL0     N 1536  -0.554   8.775   0.847  0.1402  0.9697 -0.2696
   12MOL0     N 1537  -0.474   8.851   0.913 -0.3483  0.0609 -0.4008
   12MOL0     C 1538   0.539   9.162   1.604  0.1814 -0.3738 -0.5322
   12MOL0     C 1539   0.659   9.222   1.629 -0.5373  0.1979  0.2009
   12MOL0     C 1540   1.049   9.488   1.504  1.6911 -0.0015 -0.7968
   12MOL0     C 1541   1.116   9.565   1.415 -0.2887  0.1823 -0.4148
   12MOL0     C 1542   1.224   9.644   1.447  0.7753 -0.5448 -0.8194
   12MOL0     C 1543   1.259   9.665   1.576  0.2892 -0.1072  0.0980
   12MOL0     O 1544   1.353   9.766   1.593 -0.3847 -0.2841  0.1886
   12MOL0     C 1545   1.473   9.737   1.672 -0.3400  0.2137  0.8259
   12MOL0     C 1546   1.590   9.833   1.630 -0.1679  0.0109 -0.5862
   12MOL0     C 1547   1.624   9.809   1.476  0.4577 -0.4973  0.8434
   12MOL0     C 1548   1.753   9.875   1.429 -0.8325 -0.6257 -0.4255
   12MOL0     C 1549   1.759  10.013   1.461  0.4005 -1.4998 -0.0334
   12MOL0     C 1550   1.757  10.133   1.480 -0.0853  0.2269 -0.6893
   12MOL0     C 1551   1.184   9.604   1.682 -0.4763 -0.2214  0.1282
   12MOL0     C 1552   1.084   9.519   1.643  0.4643  0.3687  0.1135
   12MOL0     H 1553   0.779   9.220   1.314 -1.5054  2.8894  0.2713
   12MOL0     H 1554   0.563   9.106   1.270  0.3596  1.7196 -1.0551
   12MOL0     H 1555   0.308   9.094   1.247  0.5811 -1.1110 -0.6177
   12MOL0     H 1556   0.380   8.945   1.305 -0.8966  0.2008 -0.7607
   12MOL0     H 1557   0.163   8.897   1.273  0.8264  0.6052 -0.2453
   12MOL0     H 1558   0.196   8.891   1.444  1.3618  2.0062  1.0370
   12MOL0     H 1559   0.100   9.142   1.448  0.8578 -0.8746  0.6466
   12MOL0     H 1560   0.051   9.110   1.283 -0.9454  0.7810  0.4736
   12MOL0     H 1561  -0.057   8.960   1.523  1.3297  0.3730 -0.5880
   12MOL0     H 1562  -0.145   9.066   1.413  0.5234  0.5749  3.3110
   12MOL0     H 1563  -0.042   8.794   1.321  0.7418  0.6726 -1.4640
   12MOL0     H 1564  -0.206   8.834   1.363 -0.9749  1.5076 -0.7291
   12MOL0     H 1565  -0.182   9.025   1.183  0.6875  0.6555  0.3064
   12MOL0     H 1566  -0.024   8.959   1.146  1.1932 -1.2634  3.3755
   12MOL0     H 1567  -0.123   8.721   1.079  1.8083  1.5143 -1.6788
   12MOL0     H 1568  -0.272   8.787   1.145 -1.2635  3.2799 -0.1191
   12MOL0     H 1569  -0.149   8.871   0.874  2.1918 -1.7165  0.9278
   12MOL0     H 1570  -0.250   8.980   0.966  1.2723  0.3903 -3.0893
   12MOL0     H 1571  -0.269   8.644   0.769  0.6373  1.0180 -1.1412
   12MOL0     H 1572  -0.624   8.602   0.639  1.0616 -0.7074 -0.9785
   12MOL0     H 1573  -0.453   8.594   0.591  1.9106  2.6319  0.3939
   12MOL0     H 1574  -0.612   8.425   0.802 -1.0577 -1.3323 -1.4590
   12MOL0     H 1575  -0.443   8.417   0.794 -0.5354 -1.4031  0.1436
   12MOL0     H 1576  -0.444   8.302   0.592  1.5867  4.8001  0.3668
   12MOL0     H 1577  -0.583   8.390   0.532  0.5911  1.8121  0.0200
   12MOL0     H 1578  -0.610   8.209   0.766  2.1058 -4.4845 -2.5719
   12MOL0     H 1579  -0.646   8.147   0.603  1.5888  0.4745 -0.0372
   12MOL0     H 1580  -0.807   8.044   0.784 -2.3128 -2.8571  1.7971
   12MOL0     H 1581  -1.082   7.929   0.974  0.3794 -1.6515  1.2357
   12MOL0     H 1582  -1.042   7.831   0.825 -0.5094 -1.0593  1.3632
   12MOL0     H 1583  -0.915   7.896   0.930 -0.4882  0.7726 -0.1768
   12MOL0     H 1584  -1.360   7.732   0.996 -0.6871  0.9969  0.6031
   12MOL0     H 1585  -1.567   7.618   1.007 -0.2781 -1.2640 -0.6599
   12MOL0     H 1586  -1.698   7.426   0.873  1.3439  1.9715 -3.1842
   12MOL0     H 1587  -1.775   7.539   1.001 -1.0376  0.9528 -1.3407
   12MOL0     H 1588  -1.991   7.534   0.928 -1.1579  0.2448 -0.6387
   12MOL0     H 1589  -1.949   7.450   0.769 -1.3944 -0.6526  0.9123
   12MOL0     H 1590  -1.846   7.296   0.985  0.8413  0.0966 -1.4666
   12MOL0     H 1591  -1.971   7.247   0.878 -0.2340 -0.5470  1.1897
   12MOL0     H 1592  -2.014   7.242   1.136 -1.7804 -2.0978 -1.2510
   12MOL0     H 1593  -2.030   7.415   1.131  1.5241 -0.1592 -0.2170
   12MOL0     H 1594  -2.207   7.199   0.996  3.0278 -0.6685  0.1937
   12MOL0     H 1595  -2.204   7.358   0.919 -2.4462 -0.4737  0.1041
   12MOL0     H 1596  -2.254   7.293   1.204  0.5966  0.1683 -0.5965
   12MOL0     H 1597  -2.246   7.458   1.148 -2.8738  1.1513 -0.3773
   12MOL0     H 1598  -2.477   7.265   1.100  2.0939 -2.1477 -1.1645
   12MOL0     H 1599  -2.434   7.381   0.972 -0.5407 -0.1597  1.0699
   12MOL0     H 1600  -2.446   7.564   1.165 -0.9719  0.1367 -2.2515
   12MOL0     H 1601  -2.505   7.435   1.269 -2.0240 -0.4342  0.1422
   12MOL0     H 1602  -1.686   7.787   0.627  2.6346  0.8059 -3.2655
   12MOL0     H 1603  -1.480   7.937   0.632 -0.9024  0.4910 -0.0121
   12MOL0     H 1604  -1.217   8.290   0.656  0.9984  0.0053 -2.4479
   12MOL0     H 1605  -1.006   8.385   0.611 -0.5627 -0.6122 -1.2545
   12MOL0     H 1606   0.464   9.168   1.683  1.5943 -1.2895  0.9262
   12MOL0     H 1607   0.679   9.256   1.730 -1.0244 -0.4633  0.5295
   12MOL0     H 1608   1.096   9.550   1.310  1.5761 -2.3373 -0.4895
   12MOL0     H 1609   1.277   9.686   1.362 -1.2916  0.4933 -1.6688
   12MOL0     H 1610   1.444   9.743   1.778  0.3197  1.0793  0.9662
   12MOL0     H 1611   1.510   9.637   1.647 -1.6254  0.5450 -2.9054
   12MOL0     H 1612   1.673   9.815   1.698  0.5006 -0.2759 -1.4625
   12MOL0     H 1613   1.559   9.938   1.632  0.0943  0.0749  0.6060
   12MOL0     H 1614   1.540   9.855   1.425  0.8386 -1.7407 -1.0162
   12MOL0     H 1615   1.630   9.701   1.459 -0.1965 -0.2502 -1.2343
   12MOL0     H 1616   1.771   9.854   1.323  3.6946  0.5613 -0.0822
   12MOL0     H 1617   1.838   9.831   1.483  0.7190  0.9172 -1.5053
   12MOL0     H 1618   1.737  10.232   1.515 -0.6280 -0.1135 -0.0058
   12MOL0     H 1619   1.209   9.616   1.787 -1.9099 -1.4234  0.6246
   12MOL0     H 1620   1.026   9.480   1.726 -0.6268  0.2987 -0.6712
   13MOL0     O 1621   8.866   5.294   4.458  0.5616 -0.0145  0.4687
   13MOL0     C 1622   8.925   5.358   4.373 -0.5626  0.7520 -0.2939
   13MOL0     O 1623   8.879   5.402   4.248 -0.0582 -0.0353  0.2482
   13MOL0     C 1624   8.750   5.384   4.241  0.5833  0.3114  0.1277
   13MOL0     C 1625   8.720   5.281   4.147 -0.4020 -1.1616 -0.1306
   13MOL0     C 1626   8.587   5.259   4.112  0.4704  0.1928  0.7974
   13MOL0     C 1627   8.487   5.323   4.183  0.4399  0.4180 -0.1592
   13MOL0     O 1628   8.353   5.295   4.164  0.1080 -0.1084 -0.1808
   13MOL0     C 1629   8.300   5.277   4.030 -0.7709  0.4260  0.3869
   13MOL0     C 1630   8.148   5.262   4.031  0.5526  0.0161  0.2765
   13MOL0     C 1631   8.099   5.155   4.135  0.5310 -0.6915 -0.3364
   13MOL0     C 1632   7.952   5.140   4.133  0.4665 -0.4656 -0.4424
   13MOL0     C 1633   7.915   5.059   4.255 -0.7238 -0.0390  0.2590
   13MOL0     C 1634   7.761   5.030   4.248  0.1282  0.6475  1.2953
   13MOL0     C 1635   7.670   5.145   4.277 -0.0581 -0.7498  0.2913
   13MOL0     C 1636   7.592   5.126   4.404 -0.2594 -1.1850 -0.0057
   13MOL0     N 1637   7.485   5.024   4.407  0.1188  0.8126  0.9053
   13MOL0     C 1638   7.395   4.999   4.307 -0.3232 -0.3414 -0.3980
   13MOL0     C 1639   7.322   4.893   4.354 -0.0215  1.0233 -0.5869
   13MOL0     C 1640   7.214   4.820   4.287 -0.7221 -0.0845 -0.3946
   13MOL0     C 1641   7.098   4.905   4.262  0.4732  0.4022  0.0898
   13MOL0     C 1642   6.991   4.840   4.169  0.5279 -0.2978  0.1362
   13MOL0     C 1643   6.896   4.728   4.221  0.0469  0.2239  0.1227
   13MOL0     O 1644   6.804   4.700   4.113 -0.0953  0.2451  0.6841
   13MOL0     C 1645   6.707   4.611   4.136  0.0655  0.6804 -0.3051
   13MOL0     C 1646   6.639   4.564   4.027 -0.5470 -0.8593  0.9814
   13MOL0     C 1647   6.544   4.464   4.030  0.0900  0.3001  0.6612
   13MOL0     C 1648   6.496   4.418   3.895 -0.6483  0.0745  0.3106
   13MOL0     C 1649   6.511   4.404   4.154  0.2546  0.5636  0.4831
   13MOL0     C 1650   6.399   4.307   4.178  0.1972 -1.1698  0.0575
   13MOL0     O 1651   6.390   4.251   4.300  0.2488 -0.1733  0.1213
   13MOL0     C 1652   6.273   4.186   4.337 -0.0454 -0.1725  0.5834
   13MOL0     C 1653   6.149   4.250   4.336  0.1788  0.5183  0.0401
   13MOL0     C 1654   6.034   4.188   4.375  0.2987 -0.4437 -0.7197
   13MOL0     C 1655   6.047   4.058   4.423  0.5142  0.3732  0.1246
   13MOL0     O 1656   5.920   4.002   4.432 -0.2442  0.4080  0.2934
   13MOL0     C 1657   5.903   3.870   4.489 -0.3702 -0.0756 -0.5111
   13MOL0     C 1658   5.761   3.825   4.525  0.6331  0.1032  0.3243
   13MOL0     C 1659   5.684   3.929   4.613 -0.1203  0.2017  0.7164
   13MOL0     C 1660   5.712   3.906   4.764 -0.3047  0.0065 -0.3807
   13MOL0     C 1661   5.607   3.984   4.838  1.5474 -0.3652  0.2351
   13MOL0     C 1662   5.643   4.004   4.989 -0.6279 -0.0403  0.0998
   13MOL0     C 1663   5.540   4.085   5.058 -0.5358  0.6075  0.2641
   13MOL0     C 1664   5.561   4.107   5.204 -0.8473  0.2936 -0.6113
   13MOL0    Cl 1665   5.433   4.221   5.266  0.0517 -0.5103 -0.2025
   13MOL0     C 1666   6.173   3.989   4.440  0.1357  0.1469  0.4515
   13MOL0     C 1667   6.286   4.057   4.390 -0.3623 -0.3281 -0.0489
   13MOL0     O 1668   6.309   4.292   4.088  0.2045  0.4815  0.0637
   13MOL0     C 1669   6.585   4.447   4.272  0.2852 -0.0393 -0.6214
   13MOL0     C 1670   6.685   4.546   4.265  0.7179 -0.3510  0.5788
   13MOL0     N 1671   7.377   4.855   4.475 -1.1887  0.0697  0.5625
   13MOL0     N 1672   7.476   4.934   4.508 -0.7964  0.0006  0.3628
   13MOL0     C 1673   8.515   5.417   4.276  0.1240  0.0166 -0.2718
   13MOL0     C 1674   8.646   5.448   4.306  0.1179  0.2085  0.5401
   13MOL0     C 1675   9.070   5.388   4.401  0.5996 -0.1566 -0.4369
   13MOL0     C 1676   9.115   5.371   4.532 -0.4244  0.0614  0.2392
   13MOL0     C 1677   9.253   5.364   4.569 -0.1037  0.0779 -0.2625
   13MOL0     C 1678   9.354   5.389   4.473  0.9782  0.5712 -0.4458
   13MOL0     O 1679   9.491   5.378   4.510  0.1514 -0.3286 -0.2899
   13MOL0     C 1680   9.590   5.408   4.409 -0.9125 -0.3132  0.4072
   13MOL0     C 1681   9.727   5.399   4.478 -1.2829 -0.2891  0.5958
   13MOL0     C 1682   9.843   5.461   4.397 -0.1182 -0.1252  0.1737
   13MOL0     C 1683   9.903   5.360   4.303  0.5398  0.1056  0.1094
   13MOL0     C 1684  10.021   5.417   4.230  0.2801 -0.1849  0.2881
   13MOL0     C 1685  10.110   5.456   4.169 -0.2367  0.3048  0.6719
   13MOL0     C 1686   9.310   5.421   4.343  0.3110  0.3022  0.9450
   13MOL0     C 1687   9.172   5.415   4.305  0.1534  0.1384  0.2000
   13MOL0     H 1688   8.805   5.231   4.103 -1.1751 -0.9090 -2.0194
   13MOL0     H 1689   8.549   5.186   4.042  0.6829  1.7662 -1.0679
   13MOL0     H 1690   8.322   5.363   3.966 -0.4122 -2.0275 -3.0524
   13MOL0     H 1691   8.345   5.196   3.972  3.5375  0.9093  2.6068
   13MOL0     H 1692   8.101   5.361   4.038 -0.4125  0.0411 -3.8157
   13MOL0     H 1693   8.118   5.224   3.933 -2.6985  1.4755  0.5400
   13MOL0     H 1694   8.153   5.064   4.108  0.1529 -0.6174 -1.3832
   13MOL0     H 1695   8.125   5.194   4.234 -0.6150  1.6842 -0.8900
   13MOL0     H 1696   7.904   5.238   4.131 -1.5644 -1.2787 -5.3495
   13MOL0     H 1697   7.910   5.097   4.042 -1.7987 -0.0086  0.3281
   13MOL0     H 1698   7.968   4.963   4.245 -1.6530 -0.4325 -1.3644
   13MOL0     H 1699   7.946   5.113   4.345  3.2117 -2.0514  0.3819
   13MOL0     H 1700   7.742   4.994   4.147  2.0222 -2.4544  1.9076
   13MOL0     H 1701   7.732   4.951   4.318 -0.0493 -1.7048 -1.2834
   13MOL0     H 1702   7.722   5.241   4.273  0.0845 -0.8563 -2.4850
   13MOL0     H 1703   7.607   5.153   4.188  1.6869  1.6909 -0.8374
   13MOL0     H 1704   7.554   5.223   4.438  2.3371 -0.1719  0.2076
   13MOL0     H 1705   7.665   5.102   4.481  0.7726 -2.5789 -1.3514
   13MOL0     H 1706   7.389   5.063   4.219  2.2650 -0.3671 -0.6932
   13MOL0     H 1707   7.260   4.782   4.195 -1.4061  3.0134 -2.1610
   13MOL0     H 1708   7.182   4.736   4.349  2.0879 -0.3476  0.8491
   13MOL0     H 1709   7.131   4.992   4.203 -1.1222  1.5748  0.8394
   13MOL0     H 1710   7.044   4.936   4.352 -3.8627  0.1446 -2.1845
   13MOL0     H 1711   7.040   4.794   4.082 -1.8109 -1.6584 -0.5249
   13MOL0     H 1712   6.934   4.925   4.130 -0.5816 -0.7988  0.6243
   13MOL0     H 1713   6.835   4.775   4.299 -0.7803  0.5026 -0.6748
   13MOL0     H 1714   6.947   4.637   4.254 -1.3152 -1.3729 -1.9830
   13MOL0     H 1715   6.675   4.620   3.941  1.9485 -1.7948  1.3509
   13MOL0     H 1716   6.506   4.309   3.894 -2.8214 -0.1779 -0.8286
   13MOL0     H 1717   6.388   4.434   3.881 -0.3120  2.6101  0.1175
   13MOL0     H 1718   6.552   4.454   3.808  2.9974 -0.0765  2.4318
   13MOL0     H 1719   6.142   4.348   4.290  1.4062  1.2978  1.4382
   13MOL0     H 1720   5.941   4.242   4.363  0.5046  0.6520  1.8645
   13MOL0     H 1721   5.954   3.803   4.419  2.4604  2.7813 -1.4751
   13MOL0     H 1722   5.955   3.860   4.584 -2.6610  1.7400  1.0457
   13MOL0     H 1723   5.703   3.797   4.437 -1.1095 -0.6950  1.6530
   13MOL0     H 1724   5.769   3.730   4.580  0.5417  0.2887  0.6598
   13MOL0     H 1725   5.579   3.904   4.595  0.4618 -1.9713  0.0910
   13MOL0     H 1726   5.693   4.035   4.586 -0.6625 -0.1883 -1.0817
   13MOL0     H 1727   5.697   3.801   4.790 -2.4527  0.2543 -0.4183
   13MOL0     H 1728   5.808   3.946   4.798 -1.8806  2.2191  1.8336
   13MOL0     H 1729   5.510   3.935   4.827  1.2372  0.6740 -2.3106
   13MOL0     H 1730   5.608   4.079   4.785  1.5875 -0.9611 -0.8545
   13MOL0     H 1731   5.660   3.905   5.034 -0.9370 -0.6966 -1.1743
   13MOL0     H 1732   5.737   4.060   4.985  0.7200 -2.2276 -2.2182
   13MOL0     H 1733   5.444   4.034   5.057 -1.2959  1.9307  1.4494
   13MOL0     H 1734   5.533   4.188   5.021 -0.2503  0.9985  1.2491
   13MOL0     H 1735   5.662   4.149   5.213 -0.2843 -0.9606 -0.8064
   13MOL0     H 1736   5.555   4.010   5.253  0.2616  0.3195 -0.3784
   13MOL0     H 1737   6.172   3.893   4.491 -1.2485  0.3375  0.8464
   13MOL0     H 1738   6.384   4.012   4.399  0.6219  0.7694 -3.5756
   13MOL0     H 1739   6.578   4.397   4.368  4.4883 -3.6329 -1.8382
   13MOL0     H 1740   6.755   4.572   4.344  1.9283  1.2400 -0.9296
   13MOL0     H 1741   8.439   5.470   4.332  0.5033 -0.7141  0.9792
   13MOL0     H 1742   8.667   5.514   4.389 -1.2683 -0.2338  1.2648
   13MOL0     H 1743   9.044   5.344   4.609 -2.1543 -4.8371 -2.6263
   13MOL0     H 1744   9.292   5.340   4.667  2.0001  1.8683 -0.5840
   13MOL0     H 1745   9.587   5.355   4.314  2.5312  1.5087 -0.8981
   13MOL0     H 1746   9.583   5.511   4.372  1.4474 -0.8706 -1.8750
   13MOL0     H 1747   9.753   5.294   4.493 -2.0711 -0.5342  0.3108
   13MOL0     H 1748   9.727   5.446   4.576  0.5121  0.5859  0.2207
   13MOL0     H 1749   9.918   5.487   4.472 -0.2457 -0.6542  0.4828
   13MOL0     H 1750   9.804   5.542   4.334  1.3568  1.2670  0.9650
   13MOL0     H 1751   9.818   5.329   4.240 -0.6011 -0.8749  2.0375
   13MOL0     H 1752   9.944   5.276   4.360  0.5916  1.6208  2.4200
   13MOL0     H 1753  10.194   5.499   4.118 -0.2381 -0.0032  0.4055
   13MOL0     H 1754   9.386   5.445   4.269  2.6686 -4.7311  1.2822
   13MOL0     H 1755   9.131   5.454   4.212  0.8247  3.6833  1.2269
   14MOL0     O 1756   1.663   5.710   4.301 -0.8180  0.4041 -0.1199
   14MOL0     C 1757   1.718   5.614   4.363 -1.0789 -0.4408  0.4051
   14MOL0     O 1758   1.658   5.537   4.452 -0.2944  0.4946 -0.8482
   14MOL0     C 1759   1.541   5.576   4.497 -0.8016  0.1631  0.0380
   14MOL0     C 1760   1.528   5.693   4.571  0.8199 -0.1417  0.2040
   14MOL0     C 1761   1.411   5.730   4.636  0.0810 -0.2053  0.0634
   14MOL0     C 1762   1.292   5.657   4.622 -0.4927  0.5507  0.2714
   14MOL0     O 1763   1.187   5.703   4.693  0.5164  0.5367 -0.1244
   14MOL0     C 1764   1.069   5.617   4.699 -0.5181 -0.5087  0.7114
   14MOL0     C 1765   0.957   5.681   4.780 -0.3059 -0.2619 -0.5930
   14MOL0     C 1766   0.996   5.657   4.926  0.4945 -0.3498 -0.4342
   14MOL0     C 1767   0.916   5.739   5.024  0.6869  0.4503 -0.7799
   14MOL0     C 1768   0.777   5.670   5.064 -0.7039 -0.1895  0.2599
   14MOL0     C 1769   0.749   5.681   5.221 -0.9849  0.3407  0.3540
   14MOL0     C 1770   0.749   5.821   5.269  0.0369 -0.1018  0.1276
   14MOL0     C 1771   0.634   5.903   5.213 -0.2276  0.0543  0.3097
   14MOL0     N 1772   0.586   6.015   5.289  0.0913  0.2469  0.3801
   14MOL0     C 1773   0.667   6.123   5.320 -0.1042  0.6628  0.0943
   14MOL0     C 1774   0.613   6.170   5.437 -0.4130  0.7703  0.0483
   14MOL0     C 1775   0.682   6.263   5.540 -0.0100 -0.4906  0.8119
   14MOL0     C 1776   0.742   6.383   5.463  0.3158  0.5254  0.8894
   14MOL0     C 1777   0.813   6.496   5.539  0.0041  0.3895 -0.4765
   14MOL0     C 1778   0.959   6.451   5.573 -0.6492 -1.0940  0.0215
   14MOL0     O 1779   0.973   6.353   5.678 -0.0287 -0.2250  0.9348
   14MOL0     C 1780   1.098   6.326   5.732 -0.2140 -0.7648  0.3764
   14MOL0     C 1781   1.214   6.399   5.712 -0.1270 -0.3304  0.2281
   14MOL0     C 1782   1.344   6.363   5.757  0.4052 -0.1248  0.6620
   14MOL0     C 1783   1.454   6.462   5.724 -0.3477 -0.6627 -0.9099
   14MOL0     C 1784   1.361   6.234   5.820 -0.7275 -0.6428  0.3306
   14MOL0     C 1785   1.493   6.183   5.877  0.5144 -1.8099  0.1299
   14MOL0     O 1786   1.506   6.052   5.908 -0.2757  0.2079  0.7914
   14MOL0     C 1787   1.626   5.999   5.952 -0.1520  0.1291 -0.2987
   14MOL0     C 1788   1.646   5.992   6.089 -1.0330 -0.6359  0.0386
   14MOL0     C 1789   1.765   5.944   6.141 -0.4164 -0.0989 -0.6140
   14MOL0     C 1790   1.862   5.894   6.048 -0.2999  0.9254  0.4976
   14MOL0     O 1791   1.991   5.868   6.088  0.2299 -0.2317 -0.3246
   14MOL0     C 1792   2.001   5.732   6.141  1.2935 -0.7243  0.0515
   14MOL0     C 1793   2.031   5.624   6.038  0.4893  0.2841 -0.3597
   14MOL0     C 1794   2.170   5.647   5.994  0.4122 -0.3214 -0.2994
   14MOL0     C 1795   2.190   5.737   5.874 -1.1779 -0.2844 -0.7945
   14MOL0     C 1796   2.340   5.785   5.854  0.0608 -0.1270 -0.1242
   14MOL0     C 1797   2.430   5.659   5.857 -0.2685 -0.8818  0.4108
   14MOL0     C 1798   2.570   5.685   5.813  0.5924 -0.7375  0.4435
   14MOL0     C 1799   2.658   5.559   5.816  0.5707  0.6376 -0.7767
   14MOL0    Cl 1800   2.627   5.455   5.679  0.8726 -0.1104 -0.6875
   14MOL0     C 1801   1.832   5.877   5.916  0.0315 -0.5771 -0.6557
   14MOL0     C 1802   1.715   5.931   5.870  0.1970  0.5964  0.1410
   14MOL0     O 1803   1.581   6.266   5.897 -0.0982  0.2861 -0.2282
   14MOL0     C 1804   1.245   6.161   5.836 -0.2367  0.2203 -0.5226
   14MOL0     C 1805   1.117   6.200   5.796  0.1957  0.1913 -0.2846
   14MOL0     N 1806   0.489   6.115   5.460  0.3366 -0.1506 -0.6760
   14MOL0     N 1807   0.477   6.021   5.368  0.0880  0.5369 -0.8589
   14MOL0     C 1808   1.305   5.540   4.541  0.4833 -0.1321  0.8259
   14MOL0     C 1809   1.427   5.503   4.481  0.2866  1.0365 -0.5832
   14MOL0     C 1810   1.860   5.588   4.327  1.3384 -0.5969 -0.3083
   14MOL0     C 1811   1.932   5.643   4.221 -0.3088  0.6851 -0.5438
   14MOL0     C 1812   2.066   5.607   4.196 -0.2572  0.4645  0.4316
   14MOL0     C 1813   2.133   5.519   4.282  0.1299  0.1882 -0.1846
   14MOL0     O 1814   2.260   5.475   4.269 -0.6391 -0.1510 -0.9733
   14MOL0     C 1815   2.354   5.564   4.210 -0.1898  0.9458  0.4741
   14MOL0     C 1816   2.403   5.689   4.275 -0.0230 -0.2743  0.6176
   14MOL0     C 1817   2.469   5.642   4.407  0.2876 -0.6449  0.2149
   14MOL0     C 1818   2.551   5.751   4.475 -0.0203 -0.3833 -0.2406
   14MOL0     C 1819   2.466   5.859   4.529  0.2868  0.6408  0.0246
   14MOL0     C 1820   2.416   5.966   4.577  0.1540  0.1670  0.0405
   14MOL0     C 1821   2.056   5.461   4.381  0.2835 -0.3265 -0.5696
   14MOL0     C 1822   1.923   5.492   4.405 -0.6246 -1.1716  0.1512
   14MOL0     H 1823   1.620   5.748   4.591  0.4708  0.6547 -0.3206
   14MOL0     H 1824   1.418   5.813   4.705  1.3850 -1.3057  1.2982
   14MOL0     H 1825   1.029   5.600   4.599 -2.6022  0.3041  1.3597
   14MOL0     H 1826   1.108   5.519   4.727  0.0576 -0.7798 -0.9355
   14MOL0     H 1827   0.941   5.787   4.761  2.4093  0.5700  1.2753
   14MOL0     H 1828   0.864   5.624   4.772 -1.5961  1.2685  2.0955
   14MOL0     H 1829   0.991   5.553   4.960  0.4188  0.5474  2.6271
   14MOL0     H 1830   1.100   5.681   4.952  0.3532 -0.4338  0.2262
   14MOL0     H 1831   0.979   5.758   5.111  0.5016 -0.0416 -0.5334
   14MOL0     H 1832   0.894   5.836   4.978 -0.3042  1.4444  1.6331
   14MOL0     H 1833   0.693   5.708   5.005  0.3631  1.2798 -0.3756
   14MOL0     H 1834   0.774   5.566   5.031 -1.5010 -0.3998  0.9676
   14MOL0     H 1835   0.657   5.626   5.242 -1.2828  0.1480 -1.3162
   14MOL0     H 1836   0.834   5.625   5.262 -0.7352  2.2547  2.6937
   14MOL0     H 1837   0.727   5.819   5.377  2.8902  0.3283  0.7909
   14MOL0     H 1838   0.847   5.867   5.257 -0.1885  0.0303 -1.3530
   14MOL0     H 1839   0.555   5.827   5.208  0.3327 -0.6052  1.2481
   14MOL0     H 1840   0.663   5.935   5.112  0.3478  1.9752  1.0418
   14MOL0     H 1841   0.768   6.137   5.284 -1.0743  0.8332 -2.8734
   14MOL0     H 1842   0.619   6.291   5.625  0.7811  1.4897  0.8145
   14MOL0     H 1843   0.766   6.204   5.578  1.1218 -0.5578 -1.5724
   14MOL0     H 1844   0.659   6.431   5.411  0.4574 -0.2138 -0.0373
   14MOL0     H 1845   0.791   6.357   5.369 -1.2010 -0.8070  0.4158
   14MOL0     H 1846   0.768   6.534   5.631  0.8757 -2.2977  1.1801
   14MOL0     H 1847   0.822   6.576   5.465  3.4216 -0.0997 -0.7831
   14MOL0     H 1848   1.010   6.541   5.608  1.1869 -1.8730 -0.5508
   14MOL0     H 1849   1.007   6.418   5.481  0.3812 -0.4411  0.3105
   14MOL0     H 1850   1.208   6.503   5.679 -1.2624 -0.6345 -0.6028
   14MOL0     H 1851   1.529   6.415   5.660 -2.4371 -3.0016 -1.8001
   14MOL0     H 1852   1.401   6.546   5.677 -3.9701 -1.7192  0.8919
   14MOL0     H 1853   1.502   6.484   5.820  0.2811 -4.0938 -0.3251
   14MOL0     H 1854   1.577   6.022   6.167 -1.0019 -0.9099  0.1708
   14MOL0     H 1855   1.797   5.945   6.245 -2.1128 -1.1466 -0.0387
   14MOL0     H 1856   2.086   5.739   6.210  1.2439 -2.1120  0.2884
   14MOL0     H 1857   1.917   5.712   6.208 -1.1511 -0.6698 -2.8381
   14MOL0     H 1858   2.010   5.527   6.084 -0.2155  1.5666  2.2312
   14MOL0     H 1859   1.964   5.636   5.953 -1.1431 -0.4717  0.7665
   14MOL0     H 1860   2.204   5.548   5.962 -0.7701 -1.0992  0.7401
   14MOL0     H 1861   2.235   5.673   6.078 -0.7101 -1.1915  0.8886
   14MOL0     H 1862   2.147   5.679   5.791 -2.4512  0.9561 -1.0501
   14MOL0     H 1863   2.130   5.828   5.886 -0.7654  0.0987 -1.5900
   14MOL0     H 1864   2.370   5.854   5.933  1.5721  0.2413 -0.9651
   14MOL0     H 1865   2.351   5.844   5.763 -2.4630  0.0960 -0.3437
   14MOL0     H 1866   2.440   5.620   5.959  3.7772  1.3684  1.0676
   14MOL0     H 1867   2.389   5.585   5.788  2.0890 -1.4717 -0.4262
   14MOL0     H 1868   2.607   5.761   5.883 -1.1759  2.5533 -1.9013
   14MOL0     H 1869   2.577   5.729   5.713  0.4843  1.8174  1.4779
   14MOL0     H 1870   2.649   5.522   5.919  1.3273  1.8448 -0.2517
   14MOL0     H 1871   2.763   5.588   5.801  0.6174  1.0676  0.2751
   14MOL0     H 1872   1.896   5.830   5.842  0.1935  0.3731 -1.1355
   14MOL0     H 1873   1.685   5.912   5.767  1.2254 -1.5270  0.1782
   14MOL0     H 1874   1.255   6.071   5.896 -0.6285  1.6165  1.8002
   14MOL0     H 1875   1.020   6.152   5.804 -0.9904  2.3886 -0.6030
   14MOL0     H 1876   1.224   5.468   4.536  0.5573 -0.1251 -0.9023
   14MOL0     H 1877   1.433   5.417   4.415 -1.7028  2.8560 -3.3556
   14MOL0     H 1878   1.875   5.705   4.152  0.8134  0.2770 -1.9046
   14MOL0     H 1879   2.107   5.635   4.099  0.3077  1.2379  0.8804
   14MOL0     H 1880   2.438   5.494   4.204 -2.5651 -1.9908 -0.7506
   14MOL0     H 1881   2.312   5.578   4.111 -1.3193 -1.0611  0.6062
   14MOL0     H 1882   2.324   5.761   4.296 -0.5578 -0.6280 -0.1166
   14MOL0     H 1883   2.489   5.723   4.217 -0.1298 -3.3181 -1.6274
   14MOL0     H 1884   2.537   5.561   4.379  0.8970  0.4678 -1.7116
   14MOL0     H 1885   2.399   5.590   4.473  0.6351 -1.9998 -0.4578
   14MOL0     H 1886   2.627   5.786   4.405  0.4011  0.2753  0.5226
   14MOL0     H 1887   2.606   5.706   4.558 -0.5430  1.9240  1.4730
   14MOL0     H 1888   2.368   6.050   4.623 -1.6165 -0.0382 -1.3267
   14MOL0     H 1889   2.100   5.380   4.439 -3.6768 -1.7610  0.7315
   14MOL0     H 1890   1.871   5.427   4.476  0.6003  0.9840  3.2635
   15MOL0     O 1891   3.680   2.875   2.312 -0.1830 -0.5152 -0.1928
   15MOL0     C 1892   3.698   2.803   2.416  0.4948 -1.0199 -0.3336
   15MOL0     O 1893   3.600   2.721   2.472  0.1533  0.2751  0.5853
   15MOL0     C 1894   3.500   2.678   2.390 -0.0680 -0.2128 -0.0583
   15MOL0     C 1895   3.508   2.550   2.352  0.2923  0.4879  0.6775
   15MOL0     C 1896   3.390   2.472   2.305 -0.9803  0.2235 -0.1332
   15MOL0     C 1897   3.268   2.546   2.299  0.1145  0.1023 -0.1558
   15MOL0     O 1898   3.155   2.477   2.279  0.1827  0.4805  1.0636
   15MOL0     C 1899   3.129   2.424   2.151  0.8077 -0.0350 -0.2163
   15MOL0     C 1900   3.000   2.341   2.156  1.1371 -0.8460  0.5385
   15MOL0     C 1901   2.875   2.439   2.181 -0.6599 -0.7810 -0.7812
   15MOL0     C 1902   2.753   2.356   2.192 -0.3514 -0.6944  0.6978
   15MOL0     C 1903   2.631   2.441   2.239 -0.2724  0.9809 -0.3105
   15MOL0     C 1904   2.488   2.374   2.244 -0.1614 -0.2867  0.1284
   15MOL0     C 1905   2.427   2.341   2.102 -0.4403  0.9765  0.3262
   15MOL0     C 1906   2.280   2.342   2.103  0.0209 -0.0359  0.0665
   15MOL0     N 1907   2.235   2.287   1.971  0.1905  0.7261  0.2798
   15MOL0     C 1908   2.265   2.329   1.844  0.1072 -0.2870  0.2208
   15MOL0     C 1909   2.240   2.228   1.761  0.9226  1.0454 -0.2386
   15MOL0     C 1910   2.257   2.240   1.611 -0.2970  0.0385  0.1047
   15MOL0     C 1911   2.313   2.115   1.536 -0.6259 -0.2124 -0.4695
   15MOL0     C 1912   2.457   2.087   1.585 -1.3278 -0.0564 -1.5618
   15MOL0     C 1913   2.557   2.206   1.593  0.2841  0.5461 -1.0116
   15MOL0     O 1914   2.684   2.163   1.549 -0.6838 -0.2079 -0.2011
   15MOL0     C 1915   2.793   2.234   1.591  0.0133 -1.1108 -0.0814
   15MOL0     C 1916   2.906   2.231   1.508  0.7462 -1.1592 -0.6896
   15MOL0     C 1917   3.026   2.291   1.547  0.2479 -0.8598 -0.5590
   15MOL0     C 1918   3.146   2.260   1.461  0.9421  0.8377  0.5140
   15MOL0     C 1919   3.020   2.368   1.666 -0.5971  0.5389  0.3784
   15MOL0     C 1920   3.148   2.416   1.721  0.9201  0.3312 -0.2969
   15MOL0     O 1921   3.240   2.320   1.735  0.2401  0.1015  0.6147
   15MOL0     C 1922   3.361   2.362   1.785 -0.1193  0.1630 -0.2873
   15MOL0     C 1923   3.452   2.422   1.699  0.3567  0.6051 -0.0846
   15MOL0     C 1924   3.581   2.453   1.752  0.5371 -0.5045  0.0902
   15MOL0     C 1925   3.620   2.423   1.883 -0.4910 -0.5597 -0.3658
   15MOL0     O 1926   3.734   2.457   1.949 -0.0817  0.3963  0.1235
   15MOL0     C 1927   3.849   2.489   1.875 -0.5867 -1.1818  0.2408
   15MOL0     C 1928   3.955   2.528   1.977 -0.3501 -0.6323 -0.1595
   15MOL0     C 1929   4.012   2.408   2.058 -0.6872  0.8610  0.2261
   15MOL0     C 1930   4.141   2.427   2.141 -0.6755  0.6404  1.4597
   15MOL0     C 1931   4.272   2.379   2.058 -0.3333  0.8644 -0.8065
   15MOL0     C 1932   4.375   2.482   2.083 -0.9333  0.4714  0.1209
   15MOL0     C 1933   4.361   2.606   1.997 -0.0246  0.0215  0.9187
   15MOL0     C 1934   4.490   2.642   1.933 -0.0197  0.3561 -0.0974
   15MOL0    Cl 1935   4.615   2.660   2.057  0.5369 -0.1860 -0.0883
   15MOL0     C 1936   3.541   2.333   1.955 -0.3625  0.0358 -0.1615
   15MOL0     C 1937   3.415   2.309   1.908  0.4069  0.7635  0.3432
   15MOL0     O 1938   3.150   2.524   1.778 -0.1565  0.4178 -0.0407
   15MOL0     C 1939   2.917   2.370   1.745 -0.1769 -0.3290 -0.5155
   15MOL0     C 1940   2.800   2.306   1.710  0.7467  0.2223 -0.4600
   15MOL0     N 1941   2.184   2.126   1.837 -0.2520  0.3669  0.0658
   15MOL0     N 1942   2.177   2.161   1.960  0.0997 -0.1158 -0.3748
   15MOL0     C 1943   3.265   2.680   2.334  0.3696 -0.5427  0.0875
   15MOL0     C 1944   3.379   2.743   2.390  0.6278 -0.1628  0.3695
   15MOL0     C 1945   3.833   2.812   2.472  0.1476 -0.8093 -0.8054
   15MOL0     C 1946   3.881   2.710   2.549 -0.7694  0.0326 -0.5703
   15MOL0     C 1947   4.007   2.716   2.621 -0.6145  0.1375  1.0968
   15MOL0     C 1948   4.077   2.845   2.623  0.1194 -0.0811 -0.0360
   15MOL0     O 1949   4.199   2.873   2.676 -0.4243  0.5058 -0.4624
   15MOL0     C 1950   4.295   2.761   2.686  0.2568 -0.3709  0.0073
   15MOL0     C 1951   4.330   2.678   2.559  0.4311 -0.3890  0.2036
   15MOL0     C 1952   4.386   2.776   2.452  0.5204 -0.1067 -0.4328
   15MOL0     C 1953   4.534   2.752   2.429 -0.6726  0.1050 -0.0933
   15MOL0     C 1954   4.615   2.816   2.536 -0.1500  1.1225 -0.7975
   15MOL0     C 1955   4.683   2.876   2.624 -0.4471  0.6288  0.5555
   15MOL0     C 1956   4.016   2.947   2.548 -0.2271 -0.2622 -0.6401
   15MOL0     C 1957   3.899   2.934   2.475 -0.4084 -0.5907 -0.6538
   15MOL0     H 1958   3.596   2.489   2.369 -0.0258 -0.6624 -1.3843
   15MOL0     H 1959   3.396   2.368   2.277  1.4773  0.2058  0.2211
   15MOL0     H 1960   3.109   2.499   2.074  2.4995  1.0213  0.3185
   15MOL0     H 1961   3.210   2.356   2.123 -0.0310 -1.9091  1.6083
   15MOL0     H 1962   2.992   2.287   2.061  1.6288 -1.7262  0.9802
   15MOL0     H 1963   2.993   2.282   2.248  2.1634  0.4440  1.4984
   15MOL0     H 1964   2.892   2.495   2.274  1.0866  0.4988 -1.8178
   15MOL0     H 1965   2.864   2.508   2.098  1.8950 -1.3481 -1.6721
   15MOL0     H 1966   2.724   2.326   2.092  0.3739  5.2167 -1.7252
   15MOL0     H 1967   2.766   2.269   2.257 -1.9762 -0.2492  1.6936
   15MOL0     H 1968   2.645   2.481   2.340 -0.8701  0.9370 -0.2077
   15MOL0     H 1969   2.613   2.529   2.177 -1.8767  2.0676  1.5733
   15MOL0     H 1970   2.490   2.282   2.303 -1.4902 -1.3026 -1.3230
   15MOL0     H 1971   2.409   2.430   2.295 -1.4854 -1.1042 -0.9285
   15MOL0     H 1972   2.464   2.404   2.021  1.7789  1.2541  1.4621
   15MOL0     H 1973   2.468   2.244   2.072 -0.6728  1.5337 -1.9437
   15MOL0     H 1974   2.232   2.438   2.121 -0.8582 -0.5466  0.5083
   15MOL0     H 1975   2.264   2.264   2.177  0.2731 -2.1020 -1.9345
   15MOL0     H 1976   2.310   2.426   1.823  2.1983 -0.6117  2.7955
   15MOL0     H 1977   2.163   2.253   1.558  0.2389 -2.9173 -1.8115
   15MOL0     H 1978   2.321   2.327   1.595 -0.4321  0.3988  1.4581
   15MOL0     H 1979   2.324   2.123   1.427 -3.5622  0.0889 -0.8102
   15MOL0     H 1980   2.256   2.022   1.542  1.2960 -1.3645  2.2370
   15MOL0     H 1981   2.508   2.005   1.533 -0.3703 -1.2257  1.0675
   15MOL0     H 1982   2.450   2.051   1.688 -0.2963 -0.0002 -1.4623
   15MOL0     H 1983   2.553   2.232   1.699  1.6133  0.8906 -1.0239
   15MOL0     H 1984   2.515   2.291   1.538 -0.5369  1.1868  0.5578
   15MOL0     H 1985   2.894   2.182   1.412 -1.2780  0.4850 -1.3497
   15MOL0     H 1986   3.207   2.342   1.421  3.2225 -0.9465  0.1310
   15MOL0     H 1987   3.219   2.198   1.513  1.7929  2.4344  1.3184
   15MOL0     H 1988   3.106   2.207   1.374  0.9351  2.8263 -0.7592
   15MOL0     H 1989   3.423   2.452   1.599 -1.9294 -0.2607  0.2565
   15MOL0     H 1990   3.654   2.497   1.685 -0.7346  1.8228  0.1234
   15MOL0     H 1991   3.883   2.403   1.817  2.6086 -0.8071  1.3890
   15MOL0     H 1992   3.829   2.571   1.806 -3.4467 -1.6526  0.3557
   15MOL0     H 1993   4.031   2.584   1.923  0.2347  1.1200  2.3152
   15MOL0     H 1994   3.916   2.611   2.037  1.6686  1.5606 -1.6950
   15MOL0     H 1995   4.026   2.321   1.993 -0.7128  0.0821  1.2327
   15MOL0     H 1996   3.927   2.367   2.113 -1.2285  0.6832 -0.7106
   15MOL0     H 1997   4.147   2.535   2.157 -3.0578  1.3631 -1.6071
   15MOL0     H 1998   4.146   2.374   2.236  2.6186  0.2283  1.1721
   15MOL0     H 1999   4.251   2.361   1.952 -0.8433  1.0564 -0.7410
   15MOL0     H 2000   4.308   2.288   2.107 -0.5028  0.6937 -0.9953
   15MOL0     H 2001   4.388   2.508   2.188  0.3158 -1.0386  0.3702
   15MOL0     H 2002   4.474   2.436   2.072 -0.7019 -0.2590  3.9840
   15MOL0     H 2003   4.329   2.688   2.062  1.4685  2.7373 -1.5374
   15MOL0     H 2004   4.280   2.588   1.926  0.6157  0.2620  0.1139
   15MOL0     H 2005   4.489   2.737   1.880 -1.0425  0.1581 -0.4605
   15MOL0     H 2006   4.525   2.562   1.868  1.5127  0.5907  0.4049
   15MOL0     H 2007   3.569   2.297   2.054  1.2307  0.1270 -0.5479
   15MOL0     H 2008   3.357   2.246   1.974  1.5861 -0.3823  0.3214
   15MOL0     H 2009   2.924   2.431   1.835 -1.5512 -3.0037  1.5500
   15MOL0     H 2010   2.717   2.308   1.780 -1.6229  5.4287 -2.8758
   15MOL0     H 2011   3.173   2.738   2.336  1.4257  1.2620 -1.0936
   15MOL0     H 2012   3.365   2.841   2.435  0.9664 -1.1749  2.8300
   15MOL0     H 2013   3.815   2.624   2.549 -0.2904 -0.3660 -2.0211
   15MOL0     H 2014   4.048   2.630   2.672 -1.0795 -1.0604 -0.4766
   15MOL0     H 2015   4.389   2.798   2.729  0.1383  0.1342 -0.1596
   15MOL0     H 2016   4.257   2.696   2.765  2.6372 -1.7715  0.0887
   15MOL0     H 2017   4.248   2.614   2.523 -0.0729 -0.8385  2.0028
   15MOL0     H 2018   4.410   2.610   2.589 -0.3366 -1.4110 -0.0117
   15MOL0     H 2019   4.366   2.881   2.475 -0.3315  0.5044 -3.5037
   15MOL0     H 2020   4.322   2.765   2.365 -1.2828  0.5179  0.7491
   15MOL0     H 2021   4.575   2.798   2.339  0.2068  0.2710  0.3796
   15MOL0     H 2022   4.551   2.645   2.416 -0.8883  0.2325 -1.6254
   15MOL0     H 2023   4.749   2.927   2.692  0.3749 -1.4084  1.3864
   15MOL0     H 2024   4.068   3.041   2.566  2.1938 -1.8307  1.1199
   15MOL0     H 2025   3.848   3.028   2.455  0.5558  0.1859  0.4143
   16MOL0     O 2026   6.401   2.525   5.576  0.1740 -0.3188  1.1357
   16MOL0     C 2027   6.303   2.476   5.525  0.7999 -0.1164 -0.0440
   16MOL0     O 2028   6.303   2.393   5.417  0.2942  0.0718 -0.4088
   16MOL0     C 2029   6.422   2.343   5.372 -0.6404 -0.3928 -0.4467
   16MOL0     C 2030   6.465   2.371   5.235  0.6781 -0.7746 -0.2654
   16MOL0     C 2031   6.598   2.341   5.205  0.2589 -0.1329  0.0234
   16MOL0     C 2032   6.679   2.268   5.290 -0.4476  0.6676  0.2359
   16MOL0     O 2033   6.804   2.229   5.246  0.5725 -0.4079  0.2321
   16MOL0     C 2034   6.872   2.120   5.308 -0.7441 -0.1575  0.0580
   16MOL0     C 2035   6.985   2.073   5.222  0.2557  0.9075 -0.5076
   16MOL0     C 2036   6.938   1.997   5.093 -0.3645  0.3829  0.1330
   16MOL0     C 2037   7.053   1.952   5.008 -0.7190 -0.2096 -0.6669
   16MOL0     C 2038   7.014   1.918   4.866 -1.1787 -0.1180  0.3154
   16MOL0     C 2039   6.931   1.788   4.869  0.2601  0.2751  0.0884
   16MOL0     C 2040   6.777   1.814   4.862 -0.6163 -0.0221 -0.4020
   16MOL0     C 2041   6.730   1.833   4.721 -0.9399 -0.4654 -1.6688
   16MOL0     N 2042   6.737   1.721   4.630 -0.2868  0.5694  0.1576
   16MOL0     C 2043   6.722   1.595   4.678 -0.9276 -0.6148  0.3325
   16MOL0     C 2044   6.757   1.513   4.571  0.5878 -0.1500  0.0147
   16MOL0     C 2045   6.769   1.369   4.571 -0.7077 -0.7806 -0.0459
   16MOL0     C 2046   6.638   1.287   4.545  0.0596  0.2226  0.5545
   16MOL0     C 2047   6.597   1.177   4.647  1.3143  1.2023  0.6921
   16MOL0     C 2048   6.445   1.149   4.620  0.5068  0.6240  0.3165
   16MOL0     O 2049   6.373   1.261   4.664  0.3442 -0.2293 -0.7699
   16MOL0     C 2050   6.236   1.259   4.652  0.0481 -1.0302 -0.2576
   16MOL0     C 2051   6.155   1.154   4.626  0.4308  0.7660  0.2538
   16MOL0     C 2052   6.014   1.155   4.645 -0.5884  0.0478  0.1956
   16MOL0     C 2053   5.957   1.016   4.612 -0.0024 -0.0297 -0.3075
   16MOL0     C 2054   5.948   1.272   4.688 -0.4146 -0.3067  0.6108
   16MOL0     C 2055   5.800   1.281   4.691 -0.9324  0.9211  0.9697
   16MOL0     O 2056   5.736   1.192   4.614  0.1682  0.5089 -0.3012
   16MOL0     C 2057   5.598   1.187   4.636  0.6579  0.7531 -0.2887
   16MOL0     C 2058   5.512   1.209   4.519  0.3458 -0.7330  0.1176
   16MOL0     C 2059   5.374   1.219   4.529  0.1667  0.0896 -0.3769
   16MOL0     C 2060   5.312   1.204   4.653 -0.1842  0.4884 -0.1812
   16MOL0     O 2061   5.175   1.197   4.682  0.0538  0.0296  0.1433
   16MOL0     C 2062   5.099   1.239   4.569  0.4449  0.3208  0.6349
   16MOL0     C 2063   4.953   1.233   4.611  0.4128 -0.4339  0.4359
   16MOL0     C 2064   4.896   1.095   4.657  0.3326  0.2042  1.1714
   16MOL0     C 2065   4.769   1.116   4.722 -0.3913 -0.8869  0.7935
   16MOL0     C 2066   4.664   1.013   4.681  0.3110  0.1589  0.6620
   16MOL0     C 2067   4.703   0.869   4.719 -0.8340 -0.7216 -0.0387
   16MOL0     C 2068   4.721   0.847   4.868  0.1706 -0.0216 -0.0519
   16MOL0     C 2069   4.616   0.896   4.962 -0.3624 -1.1377 -0.4790
   16MOL0    Cl 2070   4.603   0.831   5.133  0.2560  0.1540  0.3252
   16MOL0     C 2071   5.393   1.166   4.767  0.7876  0.3790 -0.9546
   16MOL0     C 2072   5.532   1.160   4.758  0.0813 -0.2934 -0.6369
   16MOL0     O 2073   5.756   1.370   4.757  0.7328 -0.2271 -0.4104
   16MOL0     C 2074   6.028   1.388   4.707  0.0698 -0.4692  0.1879
   16MOL0     C 2075   6.169   1.372   4.688  1.1687 -0.5789  0.1442
   16MOL0     N 2076   6.799   1.589   4.469 -0.4003  0.2535  0.5856
   16MOL0     N 2077   6.794   1.708   4.505  0.2860 -0.0044  0.8257
   16MOL0     C 2078   6.631   2.228   5.415 -0.6628 -0.2772  0.0589
   16MOL0     C 2079   6.503   2.271   5.453 -0.4504 -0.2211 -0.8035
   16MOL0     C 2080   6.167   2.529   5.585 -0.3631 -0.7733  0.5529
   16MOL0     C 2081   6.054   2.510   5.503 -0.1333 -0.6767  0.5076
   16MOL0     C 2082   5.928   2.551   5.546  0.0489 -0.3538  0.3324
   16MOL0     C 2083   5.913   2.606   5.681 -0.6084 -0.5932  1.3030
   16MOL0     O 2084   5.798   2.651   5.743  0.1881  0.1983 -0.2619
   16MOL0     C 2085   5.690   2.686   5.661  1.5229 -0.4416  0.5936
   16MOL0     C 2086   5.563   2.722   5.740 -0.1046 -0.3515  1.0486
   16MOL0     C 2087   5.577   2.830   5.843 -0.4975 -0.3181  0.2936
   16MOL0     C 2088   5.470   2.831   5.949 -0.6021 -0.1965 -0.8185
   16MOL0     C 2089   5.500   2.720   6.037 -0.0436  0.6158 -0.3976
   16MOL0     C 2090   5.510   2.624   6.116  0.2647 -0.2749 -0.3478
   16MOL0     C 2091   6.027   2.614   5.764  0.3819 -0.3485  0.0814
   16MOL0     C 2092   6.154   2.583   5.716  0.8681 -0.3668  0.1711
   16MOL0     H 2093   6.391   2.407   5.166  0.3990 -1.5442 -0.3794
   16MOL0     H 2094   6.627   2.349   5.100  1.9359 -0.6741  0.4122
   16MOL0     H 2095   6.912   2.145   5.406  1.2323 -1.3071 -0.4011
   16MOL0     H 2096   6.800   2.039   5.325 -0.2917 -0.1914  1.9792
   16MOL0     H 2097   7.050   2.156   5.191 -0.1778  1.2941 -0.4087
   16MOL0     H 2098   7.047   2.006   5.282  1.6372 -0.5076 -3.3101
   16MOL0     H 2099   6.882   1.911   5.132  0.2580  0.6854  1.7764
   16MOL0     H 2100   6.875   2.066   5.037  0.1901  0.4752 -0.3841
   16MOL0     H 2101   7.124   2.033   4.986  0.6284 -1.1919 -0.0821
   16MOL0     H 2102   7.111   1.871   5.054 -1.5874 -0.9935 -0.9346
   16MOL0     H 2103   6.969   2.006   4.818  2.1190  2.5825  1.7198
   16MOL0     H 2104   7.104   1.901   4.806 -0.7808  0.2161  0.8103
   16MOL0     H 2105   6.947   1.724   4.783 -0.7828  0.4664 -0.2709
   16MOL0     H 2106   6.942   1.731   4.962  0.0767 -0.1814 -0.1715
   16MOL0     H 2107   6.723   1.733   4.912  1.1737 -0.9152  0.1757
   16MOL0     H 2108   6.753   1.908   4.913  2.3901  1.0169 -0.7051
   16MOL0     H 2109   6.792   1.914   4.680  1.1493 -0.8109  0.5789
   16MOL0     H 2110   6.630   1.875   4.736 -0.8050 -0.4899 -0.6474
   16MOL0     H 2111   6.689   1.568   4.777  3.1855  0.0329  2.0639
   16MOL0     H 2112   6.846   1.348   4.496 -0.4786  2.0105 -0.6969
   16MOL0     H 2113   6.807   1.341   4.670  1.2707 -0.8444 -0.7718
   16MOL0     H 2114   6.650   1.239   4.447 -0.1473  1.3389 -0.0431
   16MOL0     H 2115   6.554   1.356   4.537 -0.2428 -0.1917  0.0496
   16MOL0     H 2116   6.597   1.218   4.748 -0.1624  1.4815  0.5946
   16MOL0     H 2117   6.655   1.085   4.636 -0.8485 -0.1005 -0.5745
   16MOL0     H 2118   6.423   1.061   4.682  0.7733  1.3999  1.5417
   16MOL0     H 2119   6.434   1.120   4.515  2.2849  2.0014 -0.3031
   16MOL0     H 2120   6.207   1.063   4.600  0.2613  0.7829 -0.1487
   16MOL0     H 2121   5.879   0.989   4.683  1.3545 -0.3085  1.1502
   16MOL0     H 2122   5.907   1.019   4.515  0.4124 -2.5740 -0.6531
   16MOL0     H 2123   6.025   0.931   4.602 -4.2687 -3.7216 -0.5716
   16MOL0     H 2124   5.555   1.242   4.426 -0.4636  0.6716  0.2214
   16MOL0     H 2125   5.313   1.237   4.441 -3.9828  2.1419  2.5774
   16MOL0     H 2126   5.119   1.344   4.543 -0.5123  0.8040  1.7553
   16MOL0     H 2127   5.109   1.175   4.481 -2.0559 -0.5981  0.9470
   16MOL0     H 2128   4.945   1.300   4.697  1.7636 -3.4882  3.1423
   16MOL0     H 2129   4.891   1.263   4.526  1.5695 -0.2686 -0.3587
   16MOL0     H 2130   4.965   1.055   4.732  5.2864  3.1383 -1.2609
   16MOL0     H 2131   4.894   1.024   4.574  0.8729  0.2654  1.1034
   16MOL0     H 2132   4.784   1.122   4.830  1.0778 -1.7340  0.6634
   16MOL0     H 2133   4.729   1.212   4.688 -0.2256 -0.9748  0.3387
   16MOL0     H 2134   4.649   1.022   4.573  1.1266 -0.1833  0.5197
   16MOL0     H 2135   4.566   1.042   4.722 -0.7784 -0.2686 -1.5003
   16MOL0     H 2136   4.629   0.796   4.684 -0.7258 -2.4942  3.0936
   16MOL0     H 2137   4.797   0.856   4.664  0.5288 -0.5139  2.1436
   16MOL0     H 2138   4.813   0.899   4.897  0.6230 -0.3431 -0.8660
   16MOL0     H 2139   4.732   0.739   4.883 -1.6995 -0.1453  0.6804
   16MOL0     H 2140   4.519   0.876   4.915 -2.0292 -0.6269  2.4738
   16MOL0     H 2141   4.611   1.004   4.977 -4.2980 -1.2187 -0.2104
   16MOL0     H 2142   5.348   1.140   4.862  1.7261 -5.2702 -1.7027
   16MOL0     H 2143   5.592   1.126   4.842  1.2466 -3.9830 -2.7095
   16MOL0     H 2144   5.980   1.474   4.752  1.3763  1.0182 -1.1682
   16MOL0     H 2145   6.237   1.453   4.712 -1.4888  1.9152 -0.1024
   16MOL0     H 2146   6.700   2.172   5.477 -1.4111 -0.2243  0.9586
   16MOL0     H 2147   6.473   2.245   5.554  2.1035  1.0023  0.3547
   16MOL0     H 2148   6.059   2.473   5.401 -2.2586  3.6784 -1.4395
   16MOL0     H 2149   5.835   2.545   5.491 -0.3512  0.8708  0.8374
   16MOL0     H 2150   5.703   2.769   5.591  0.2382 -1.1197 -0.5128
   16MOL0     H 2151   5.658   2.600   5.600  1.0082  0.6467 -0.7400
   16MOL0     H 2152   5.520   2.634   5.790 -1.8363  0.9040  1.8753
   16MOL0     H 2153   5.496   2.752   5.660  3.8298 -0.6213 -2.7006
   16MOL0     H 2154   5.555   2.921   5.788  2.4768 -0.2808 -1.0099
   16MOL0     H 2155   5.679   2.829   5.882 -0.4373 -1.3148  0.1571
   16MOL0     H 2156   5.368   2.829   5.908  0.2214  0.8820 -3.0727
   16MOL0     H 2157   5.479   2.926   6.003 -1.6086  0.1836 -1.3003
   16MOL0     H 2158   5.509   2.541   6.183  2.2274 -2.1800 -2.4601
   16MOL0     H 2159   6.023   2.645   5.868 -0.7691 -0.8936  0.2236
   16MOL0     H 2160   6.240   2.596   5.781  0.8718 -1.2991  0.3627
   17MOL0     O 2161  10.456  10.660   6.751 -1.2511 -0.1164  0.4965
   17MOL0     C 2162  10.558  10.655   6.689  0.2417  0.9128 -0.1896
   17MOL0     O 2163  10.558  10.628   6.563  0.1274  0.8396 -0.0969
   17MOL0     C 2164  10.439  10.616   6.492 -0.0459  0.5512 -0.9140
   17MOL0     C 2165  10.414  10.496   6.422 -0.1454 -0.6559 -0.6207
   17MOL0     C 2166  10.300  10.490   6.349 -0.3641  0.1908 -0.3749
   17MOL0     C 2167  10.207  10.588   6.339 -0.0639 -0.2632 -0.6482
   17MOL0     O 2168  10.097  10.572   6.253  0.7408  0.4759 -0.1525
   17MOL0     C 2169   9.992  10.672   6.249  0.0771 -0.2473  0.5106
   17MOL0     C 2170   9.883  10.618   6.160 -0.2268 -0.2938 -0.5654
   17MOL0     C 2171   9.810  10.498   6.213 -0.8178  0.1524 -0.3629
   17MOL0     C 2172   9.683  10.452   6.132  0.2798  0.0470 -0.3531
   17MOL0     C 2173   9.614  10.318   6.181  0.3576  0.2200 -0.0767
   17MOL0     C 2174   9.492  10.338   6.268  0.6753 -0.7079 -0.3149
   17MOL0     C 2175   9.422  10.205   6.291  0.1307 -0.2960  0.0693
   17MOL0     C 2176   9.284  10.221   6.340 -0.0928 -0.0936  0.2407
   17MOL0     N 2177   9.196  10.280   6.239 -0.5492 -0.1513 -0.3121
   17MOL0     C 2178   9.148  10.211   6.126 -0.8883  0.0725  0.0835
   17MOL0     C 2179   9.070  10.297   6.058  0.1300  0.5313  0.1654
   17MOL0     C 2180   8.995  10.268   5.941  0.5577  0.2631 -0.0347
   17MOL0     C 2181   8.856  10.205   5.958  0.7867  0.5865  0.9250
   17MOL0     C 2182   8.757  10.227   5.842 -0.1357 -1.0392 -0.9312
   17MOL0     C 2183   8.818  10.229   5.697  0.0426 -0.4640  0.6498
   17MOL0     O 2184   8.714  10.209   5.597 -0.1248 -0.6236  0.0825
   17MOL0     C 2185   8.631  10.319   5.572  0.0411 -0.5582 -0.5778
   17MOL0     C 2186   8.678  10.450   5.549 -0.2871 -0.0655  0.0489
   17MOL0     C 2187   8.590  10.556   5.522  0.2050 -0.1419 -0.2937
   17MOL0     C 2188   8.644  10.691   5.469  0.2043 -0.1247 -0.3328
   17MOL0     C 2189   8.445  10.539   5.521 -0.0032  0.2306 -0.7355
   17MOL0     C 2190   8.334  10.630   5.484  0.7992 -0.5029 -0.4688
   17MOL0     O 2191   8.209  10.585   5.526 -0.0342  0.0097 -0.5234
   17MOL0     C 2192   8.105  10.671   5.539 -0.0309  0.2017  0.4523
   17MOL0     C 2193   7.975  10.624   5.508 -0.1731  0.1551 -0.0854
   17MOL0     C 2194   7.863  10.698   5.507 -0.7441 -1.3262  0.5762
   17MOL0     C 2195   7.869  10.833   5.554 -0.1036 -0.1787 -0.4116
   17MOL0     O 2196   7.755  10.908   5.564 -0.2221 -0.0121  0.1368
   17MOL0     C 2197   7.692  10.921   5.690  0.8398 -0.2472 -0.1326
   17MOL0     C 2198   7.564  11.001   5.656 -0.0849 -0.7376 -0.1793
   17MOL0     C 2199   7.486  11.021   5.788  1.2538  0.5675 -0.2173
   17MOL0     C 2200   7.381  11.140   5.765 -0.4188  0.9256 -0.2740
   17MOL0     C 2201   7.264  11.158   5.873 -0.7847 -0.4970  0.2225
   17MOL0     C 2202   7.142  11.071   5.858 -0.1842 -0.2109 -0.4797
   17MOL0     C 2203   7.037  11.111   5.957 -0.4975 -0.6442 -0.5214
   17MOL0     C 2204   6.918  11.012   5.947 -0.8689  0.0042 -0.2447
   17MOL0    Cl 2205   6.817  11.053   6.083  0.2185 -0.1618  0.3661
   17MOL0     C 2206   8.000  10.882   5.586  0.1910  0.3017  0.3495
   17MOL0     C 2207   8.114  10.804   5.576  0.9782  0.0538  0.6221
   17MOL0     O 2208   8.355  10.736   5.424  0.4804  0.9377 -0.4104
   17MOL0     C 2209   8.410  10.403   5.544 -0.2557 -0.0437  1.2684
   17MOL0     C 2210   8.500  10.295   5.568  0.7937 -0.0211 -0.3080
   17MOL0     N 2211   9.061  10.415   6.127 -0.2691 -0.1487  0.3865
   17MOL0     N 2212   9.138  10.407   6.232  0.1933 -0.6358 -0.4809
   17MOL0     C 2213  10.236  10.708   6.410  0.2103 -0.2131  0.7300
   17MOL0     C 2214  10.346  10.716   6.487 -0.5900  0.1917  0.2555
   17MOL0     C 2215  10.683  10.707   6.750  0.5014  0.7492  0.2501
   17MOL0     C 2216  10.705  10.695   6.887 -0.1402  0.6208 -0.1983
   17MOL0     C 2217  10.820  10.749   6.948  0.8339 -0.4354 -0.6702
   17MOL0     C 2218  10.925  10.810   6.873 -0.2382  0.2530  0.6314
   17MOL0     O 2219  11.035  10.841   6.951 -0.2393 -0.2348  0.6048
   17MOL0     C 2220  11.161  10.847   6.877  0.3646  0.0979 -0.2445
   17MOL0     C 2221  11.200  10.704   6.840 -0.0359 -0.7680  0.0560
   17MOL0     C 2222  11.343  10.665   6.832 -0.4398 -0.5044 -0.3919
   17MOL0     C 2223  11.409  10.746   6.713 -0.5345 -0.3336  0.3210
   17MOL0     C 2224  11.530  10.671   6.683  0.5996 -0.1421  0.6861
   17MOL0     C 2225  11.612  10.590   6.645  0.0864  0.0735 -0.1001
   17MOL0     C 2226  10.900  10.813   6.730 -0.1865  0.2769  0.4164
   17MOL0     C 2227  10.780  10.764   6.675  0.0960  0.8391 -0.0969
   17MOL0     H 2228  10.496  10.426   6.405  2.2410  1.6529  0.5493
   17MOL0     H 2229  10.275  10.401   6.292  1.9192  0.3924 -1.7841
   17MOL0     H 2230   9.954  10.704   6.346 -1.9808 -0.7097 -0.0986
   17MOL0     H 2231  10.025  10.763   6.198 -1.4830  0.8687  1.4130
   17MOL0     H 2232   9.812  10.696   6.130 -1.7940 -2.7182 -3.7262
   17MOL0     H 2233   9.931  10.589   6.067 -1.1253 -2.3917 -0.4186
   17MOL0     H 2234   9.869  10.408   6.235 -3.0425 -1.3473 -0.1276
   17MOL0     H 2235   9.763  10.531   6.306 -2.2051  3.0001 -1.9314
   17MOL0     H 2236   9.610  10.533   6.132 -0.9895 -0.9576 -3.3754
   17MOL0     H 2237   9.713  10.440   6.027  1.3116 -0.3453 -0.0319
   17MOL0     H 2238   9.584  10.261   6.093 -2.0292 -0.2043  0.9407
   17MOL0     H 2239   9.682  10.252   6.236  0.6638  1.0083  0.5121
   17MOL0     H 2240   9.518  10.387   6.362  0.9587  2.0182 -1.7155
   17MOL0     H 2241   9.436  10.415   6.213  0.2068  0.2435  1.4117
   17MOL0     H 2242   9.425  10.149   6.198  1.0333  0.7750 -0.5656
   17MOL0     H 2243   9.484  10.147   6.359 -1.4792 -2.0143  0.1427
   17MOL0     H 2244   9.283  10.287   6.427 -1.4609 -0.3177  0.4065
   17MOL0     H 2245   9.243  10.126   6.376  1.6685 -1.3136 -0.8198
   17MOL0     H 2246   9.160  10.106   6.103 -2.0308 -0.4113  1.5149
   17MOL0     H 2247   8.988  10.363   5.887  0.3296 -0.5575 -1.4896
   17MOL0     H 2248   9.043  10.202   5.869  0.7701  1.5644 -1.1330
   17MOL0     H 2249   8.811  10.249   6.047 -1.6969  1.2036 -0.5361
   17MOL0     H 2250   8.866  10.096   5.967  0.6276  0.5924  1.1915
   17MOL0     H 2251   8.706  10.324   5.850 -0.3764 -1.0456 -2.2062
   17MOL0     H 2252   8.678  10.154   5.861 -1.0733  0.6215  2.5072
   17MOL0     H 2253   8.902  10.160   5.686  0.6741  0.0741  1.8913
   17MOL0     H 2254   8.866  10.327   5.696  0.9475 -0.7992  3.1422
   17MOL0     H 2255   8.785  10.464   5.548 -0.1594 -0.5566 -2.9036
   17MOL0     H 2256   8.643  10.685   5.360  2.4746 -0.7290 -0.3853
   17MOL0     H 2257   8.572  10.769   5.495 -1.3323 -0.6495 -2.7107
   17MOL0     H 2258   8.746  10.711   5.505  0.8244 -1.1916 -1.3999
   17MOL0     H 2259   7.970  10.523   5.470  2.0138  0.4812 -1.4571
   17MOL0     H 2260   7.762  10.664   5.488 -0.4773 -2.3936  0.9911
   17MOL0     H 2261   7.650  10.829   5.734 -3.7225 -0.4547 -4.1073
   17MOL0     H 2262   7.749  10.971   5.769 -0.9330 -0.3573  1.3019
   17MOL0     H 2263   7.583  11.103   5.621  0.2429 -0.1804  1.5148
   17MOL0     H 2264   7.501  10.948   5.585 -1.2746 -2.2698  1.9126
   17MOL0     H 2265   7.548  11.037   5.876  0.8832 -0.7210  0.3116
   17MOL0     H 2266   7.427  10.931   5.810  1.4556  0.9829  2.3454
   17MOL0     H 2267   7.432  11.236   5.768  0.4180  0.4746  0.5195
   17MOL0     H 2268   7.343  11.123   5.664  2.1877  0.7231 -1.2827
   17MOL0     H 2269   7.235  11.263   5.884  0.9798 -0.2536  4.0440
   17MOL0     H 2270   7.304  11.148   5.974 -0.0987  1.9418  0.2528
   17MOL0     H 2271   7.092  11.072   5.761  0.4913  0.4105 -0.8275
   17MOL0     H 2272   7.175  10.967   5.861  1.9508  0.4099 -0.6153
   17MOL0     H 2273   7.004  11.213   5.935 -3.1876 -1.6281 -1.4676
   17MOL0     H 2274   7.087  11.113   6.054 -1.6808  1.9041  0.1318
   17MOL0     H 2275   6.949  10.909   5.967  1.1355  0.9634  2.1310
   17MOL0     H 2276   6.861  11.020   5.854 -1.5716 -0.1391  0.1642
   17MOL0     H 2277   8.005  10.988   5.609 -3.0659  0.2554  1.9024
   17MOL0     H 2278   8.216  10.839   5.594  2.0088 -1.5090 -1.6412
   17MOL0     H 2279   8.303  10.385   5.556 -0.9799  0.8451 -2.5933
   17MOL0     H 2280   8.453  10.197   5.564  0.8794 -0.0240 -1.9836
   17MOL0     H 2281  10.178  10.798   6.397  0.7299 -0.3122 -3.6080
   17MOL0     H 2282  10.360  10.801   6.554 -1.9269  2.2676 -1.9378
   17MOL0     H 2283  10.624  10.653   6.947 -2.2446  1.7168 -2.1405
   17MOL0     H 2284  10.822  10.750   7.057 -1.1609  0.0389 -0.5926
   17MOL0     H 2285  11.150  10.916   6.792  0.0707  3.5589  2.3996
   17MOL0     H 2286  11.237  10.897   6.936  1.4205  0.2957 -1.7205
   17MOL0     H 2287  11.150  10.690   6.743 -0.1035  1.6456 -0.3195
   17MOL0     H 2288  11.154  10.639   6.914 -1.4397 -0.2441 -0.3154
   17MOL0     H 2289  11.341  10.558   6.811  2.2834 -1.2200  2.2260
   17MOL0     H 2290  11.404  10.687   6.921  0.4657  0.9734 -1.3274
   17MOL0     H 2291  11.427  10.849   6.744 -0.3597 -0.5294  0.8894
   17MOL0     H 2292  11.343  10.748   6.626  0.9251 -0.4820 -0.8138
   17MOL0     H 2293  11.646  10.500   6.598 -1.8824 -0.6056 -0.2874
   17MOL0     H 2294  10.969  10.840   6.651 -1.1841 -0.4553 -0.7285
   17MOL0     H 2295  10.770  10.764   6.567  4.1534 -3.2451 -0.8243
   18MOL0     O 2296   9.158  10.243   4.488 -0.1821  0.3023 -0.3377
   18MOL0     C 2297   9.271  10.276   4.526 -0.2883 -0.3676 -0.7614
   18MOL0     O 2298   9.312  10.404   4.552 -0.4570  0.3618  0.6477
   18MOL0     C 2299   9.225  10.508   4.514 -0.1295  0.2842 -0.1958
   18MOL0     C 2300   9.266  10.597   4.405  0.1596  0.4192  0.1220
   18MOL0     C 2301   9.202  10.724   4.393 -0.4063  0.4255 -0.0628
   18MOL0     C 2302   9.090  10.760   4.471 -0.1615  0.2306 -0.3118
   18MOL0     O 2303   9.009  10.876   4.476 -0.2453  1.1084 -0.5081
   18MOL0     C 2304   9.029  10.973   4.370 -0.3485  0.7267  0.8156
   18MOL0     C 2305   8.932  11.086   4.399 -0.5336 -0.1560  0.2621
   18MOL0     C 2306   8.878  11.092   4.553 -0.5084 -0.1610  0.8883
   18MOL0     C 2307   8.792  11.207   4.569 -0.2318 -1.3943 -0.3055
   18MOL0     C 2308   8.758  11.223   4.717  0.1463 -0.2922  0.3508
   18MOL0     C 2309   8.724  11.370   4.741 -0.0317 -0.6239  0.0686
   18MOL0     C 2310   8.633  11.432   4.632  0.3768 -0.3947  0.0045
   18MOL0     C 2311   8.546  11.548   4.685 -0.3830 -0.8639  0.8826
   18MOL0     N 2312   8.452  11.601   4.576 -0.4285  0.5383 -0.9109
   18MOL0     C 2313   8.314  11.576   4.581 -0.7802 -0.5930 -0.6912
   18MOL0     C 2314   8.270  11.656   4.482  1.2374 -0.5266  0.5927
   18MOL0     C 2315   8.132  11.662   4.426 -0.4615 -0.7406 -0.5538
   18MOL0     C 2316   8.028  11.739   4.506  0.7994  0.1683 -0.5023
   18MOL0     C 2317   8.053  11.889   4.514  0.0177  0.0398 -0.6680
   18MOL0     C 2318   7.932  11.968   4.575 -0.1362 -0.7782 -0.4601
   18MOL0     O 2319   7.818  11.954   4.491  0.4650 -0.2399 -0.5227
   18MOL0     C 2320   7.708  11.994   4.566 -0.4026 -0.3332 -0.1343
   18MOL0     C 2321   7.644  12.123   4.535 -0.5720 -0.3692  0.6471
   18MOL0     C 2322   7.525  12.162   4.605  0.0456  0.6361  0.3260
   18MOL0     C 2323   7.476  12.302   4.577 -0.1881  0.4220 -0.6696
   18MOL0     C 2324   7.465  12.064   4.699  0.5751  0.0339  0.0070
   18MOL0     C 2325   7.341  12.086   4.771  0.6078 -0.2495  0.2027
   18MOL0     O 2326   7.305  11.983   4.854 -0.3733  0.2887 -0.0902
   18MOL0     C 2327   7.188  11.983   4.932  0.1331 -0.4150  0.8139
   18MOL0     C 2328   7.181  11.966   5.069  0.5005 -0.1045  0.4549
   18MOL0     C 2329   7.065  11.971   5.142  0.2137  0.5434 -0.3574
   18MOL0     C 2330   6.941  11.983   5.071 -0.9229  0.0179  0.0300
   18MOL0     O 2331   6.810  11.974   5.129 -0.0079 -0.5776 -0.3362
   18MOL0     C 2332   6.796  11.935   5.270  0.4768 -0.6527 -0.3809
   18MOL0     C 2333   6.659  11.871   5.282 -0.9790 -0.3155 -0.5165
   18MOL0     C 2334   6.630  11.837   5.426 -0.0696 -0.2880  0.2398
   18MOL0     C 2335   6.485  11.801   5.452  0.6841 -0.2104  0.0338
   18MOL0     C 2336   6.454  11.658   5.429 -0.3560  0.2551  0.2089
   18MOL0     C 2337   6.297  11.642   5.453  0.7670  0.1118  0.5413
   18MOL0     C 2338   6.256  11.662   5.607 -0.0249  0.4094 -0.8925
   18MOL0     C 2339   6.152  11.562   5.645  0.2792  0.6024 -0.3526
   18MOL0    Cl 2340   5.996  11.630   5.619  0.2841  0.3743 -0.2159
   18MOL0     C 2341   6.946  11.989   4.935  0.0887  0.6573 -0.5403
   18MOL0     C 2342   7.066  11.990   4.863 -0.5312 -0.5153  0.0839
   18MOL0     O 2343   7.276  12.198   4.757 -0.5172 -0.5098 -0.6985
   18MOL0     C 2344   7.534  11.947   4.723 -0.1043  0.2752 -0.1622
   18MOL0     C 2345   7.652  11.908   4.658 -0.4279 -0.8779 -0.7451
   18MOL0     N 2346   8.369  11.706   4.406  0.2910 -0.2455  0.4379
   18MOL0     N 2347   8.476  11.679   4.459 -0.2049  0.2423 -0.0105
   18MOL0     C 2348   9.046  10.662   4.561  0.3424  0.5187  0.9991
   18MOL0     C 2349   9.111  10.543   4.581  0.0046  0.7344  0.4358
   18MOL0     C 2350   9.373  10.174   4.559  0.1748 -0.4007  0.5762
   18MOL0     C 2351   9.339  10.035   4.565  0.1970 -0.6955  0.1463
   18MOL0     C 2352   9.434   9.932   4.583  0.1211 -0.1043 -0.3177
   18MOL0     C 2353   9.563   9.971   4.619 -0.3931 -0.0333 -0.2523
   18MOL0     O 2354   9.647   9.866   4.664 -0.5728 -0.3155  0.2609
   18MOL0     C 2355   9.777   9.909   4.707 -0.8872 -0.4320 -0.0932
   18MOL0     C 2356   9.846   9.781   4.761 -0.0257 -0.6385 -0.3500
   18MOL0     C 2357   9.884   9.698   4.635  0.0557 -0.0984 -1.0739
   18MOL0     C 2358   9.979   9.589   4.680 -0.2442 -0.3528 -0.3177
   18MOL0     C 2359  10.029   9.523   4.559 -0.0213 -0.1359 -0.6012
   18MOL0     C 2360  10.045   9.457   4.460  0.2027 -0.3251 -1.2946
   18MOL0     C 2361   9.599  10.106   4.617  0.3507  0.0794  1.2040
   18MOL0     C 2362   9.511  10.203   4.572 -0.4691  0.6905 -0.0836
   18MOL0     H 2363   9.364  10.577   4.363  1.2693 -3.9564  4.0301
   18MOL0     H 2364   9.238  10.804   4.330  0.9017  3.2671  3.9205
   18MOL0     H 2365   9.130  11.012   4.358 -0.3143 -0.0268 -2.0317
   18MOL0     H 2366   9.006  10.936   4.270 -2.4550  4.3728 -0.2054
   18MOL0     H 2367   8.947  11.178   4.342 -1.9004 -0.1344 -0.1066
   18MOL0     H 2368   8.841  11.049   4.351 -2.3448  4.6611 -0.5995
   18MOL0     H 2369   8.828  10.998   4.578 -1.6904  0.5297  1.2223
   18MOL0     H 2370   8.961  11.101   4.623 -0.5638  0.0915  0.9230
   18MOL0     H 2371   8.842  11.298   4.535 -0.4271 -0.7872  0.9913
   18MOL0     H 2372   8.705  11.201   4.504  1.7237  0.7249 -3.4275
   18MOL0     H 2373   8.685  11.151   4.755  0.1505  0.6141  2.2157
   18MOL0     H 2374   8.854  11.207   4.768  1.1049  0.3831 -1.1507
   18MOL0     H 2375   8.683  11.394   4.840  0.1183  1.9059 -0.4280
   18MOL0     H 2376   8.813  11.431   4.727 -1.9314  2.5615  0.8880
   18MOL0     H 2377   8.690  11.468   4.546 -1.7524  0.6085 -1.0354
   18MOL0     H 2378   8.559  11.360   4.597 -1.3175  2.0153 -1.7389
   18MOL0     H 2379   8.615  11.628   4.713 -0.2518  0.3448 -2.4613
   18MOL0     H 2380   8.494  11.520   4.777  4.2939 -0.1465  4.1107
   18MOL0     H 2381   8.252  11.520   4.651  1.8474 -2.4039  0.3892
   18MOL0     H 2382   8.144  11.702   4.324 -0.5778  0.7031 -0.0270
   18MOL0     H 2383   8.095  11.560   4.411  2.7448 -2.1110  0.0900
   18MOL0     H 2384   8.017  11.695   4.606 -1.7106  3.3365  0.8150
   18MOL0     H 2385   7.928  11.712   4.470  0.5729 -1.8053  1.3899
   18MOL0     H 2386   8.076  11.933   4.417 -1.2312 -1.9528 -1.9368
   18MOL0     H 2387   8.145  11.903   4.572 -0.5765  2.9533 -0.2698
   18MOL0     H 2388   7.966  12.072   4.587  1.8304 -1.4009 -0.1758
   18MOL0     H 2389   7.912  11.933   4.676  0.2761  0.9356  0.2593
   18MOL0     H 2390   7.685  12.192   4.462 -1.1391 -0.2000  0.4799
   18MOL0     H 2391   7.384  12.341   4.622  2.8254  1.6115  5.6321
   18MOL0     H 2392   7.561  12.366   4.603  0.6136  0.0927 -2.3401
   18MOL0     H 2393   7.465  12.310   4.469 -2.2608 -1.8697 -0.7173
   18MOL0     H 2394   7.272  11.954   5.127  2.9487  5.3352 -1.5471
   18MOL0     H 2395   7.068  11.955   5.249 -1.5654  0.6254 -0.2605
   18MOL0     H 2396   6.869  11.864   5.310 -0.3898 -1.1003  0.4578
   18MOL0     H 2397   6.803  12.031   5.321 -2.2579  0.0262 -1.0990
   18MOL0     H 2398   6.571  11.925   5.247 -0.1482  1.2529 -0.2894
   18MOL0     H 2399   6.663  11.776   5.228 -2.5429  0.1035 -1.4035
   18MOL0     H 2400   6.658  11.926   5.483  0.0647 -1.0381  1.3691
   18MOL0     H 2401   6.691  11.753   5.458  0.8471 -0.3335 -1.5033
   18MOL0     H 2402   6.463  11.829   5.555  0.7443 -2.1942  0.6131
   18MOL0     H 2403   6.421  11.861   5.386  0.0583  1.0939  1.7435
   18MOL0     H 2404   6.514  11.610   5.507 -1.6981  0.5700  1.4678
   18MOL0     H 2405   6.488  11.641   5.326 -2.1986  1.6635 -0.6840
   18MOL0     H 2406   6.247  11.715   5.388 -1.3105 -0.1077  1.8023
   18MOL0     H 2407   6.266  11.542   5.422 -0.7800  0.3683  1.1630
   18MOL0     H 2408   6.225  11.762   5.638 -1.1612  0.1121 -1.0034
   18MOL0     H 2409   6.343  11.644   5.670 -0.8849 -0.1641  0.1711
   18MOL0     H 2410   6.152  11.541   5.753 -2.9513 -0.4512 -0.4670
   18MOL0     H 2411   6.171  11.469   5.590  1.4230 -1.3861  3.0729
   18MOL0     H 2412   6.855  11.998   4.877  0.6626  1.4304 -1.3440
   18MOL0     H 2413   7.061  11.989   4.755 -3.7274 -1.7174  0.1295
   18MOL0     H 2414   7.496  11.868   4.787  1.5749 -1.6551 -1.3934
   18MOL0     H 2415   7.703  11.814   4.677 -1.4786 -1.2556  0.2364
   18MOL0     H 2416   8.951  10.681   4.610 -0.2133  0.8500 -0.1610
   18MOL0     H 2417   9.080  10.499   4.675 -0.7071  2.9140  1.2917
   18MOL0     H 2418   9.237   9.998   4.557  0.2436 -1.3610  2.0867
   18MOL0     H 2419   9.401   9.829   4.592  1.2978 -0.3926  0.9982
   18MOL0     H 2420   9.835   9.953   4.626  2.2719 -0.0887  2.1593
   18MOL0     H 2421   9.776   9.991   4.779  0.7949  0.9080 -1.5192
   18MOL0     H 2422   9.773   9.731   4.826 -1.1552  3.2422  1.6520
   18MOL0     H 2423   9.935   9.806   4.820 -0.4475  1.7318 -0.6568
   18MOL0     H 2424   9.935   9.760   4.561  1.5494  2.3177  1.7428
   18MOL0     H 2425   9.790   9.658   4.596 -0.1427 -1.3592  0.5661
   18MOL0     H 2426   9.926   9.524   4.750  0.6626  1.2523  1.9879
   18MOL0     H 2427  10.068   9.636   4.722  0.9427  1.2047 -4.0782
   18MOL0     H 2428  10.059   9.390   4.378 -1.4454 -3.4737  0.7887
   18MOL0     H 2429   9.701  10.137   4.636  0.9726 -1.3892  0.4469
   18MOL0     H 2430   9.545  10.305   4.586 -0.1663  0.4339  1.2298
   19MOL0     O 2431   7.876   7.841   3.734  0.2815 -0.1830 -0.0427
   19MOL0     C 2432   7.947   7.853   3.838  0.5817  0.9316  0.5288
   19MOL0     O 2433   7.901   7.863   3.961  0.4352  0.2898  0.2074
   19MOL0     C 2434   7.773   7.907   3.995  0.0366  0.0816 -0.2116
   19MOL0     C 2435   7.743   7.934   4.131  0.3794 -0.1127 -0.3984
   19MOL0     C 2436   7.623   8.004   4.161 -0.3718 -0.7182 -0.3857
   19MOL0     C 2437   7.520   8.026   4.072 -0.2054 -0.2901 -0.2432
   19MOL0     O 2438   7.401   8.065   4.126 -0.0191 -1.1359 -0.2030
   19MOL0     C 2439   7.290   8.070   4.032 -0.1648 -0.1970  1.4935
   19MOL0     C 2440   7.162   8.103   4.087  1.8379 -0.3246  0.1508
   19MOL0     C 2441   7.054   8.147   3.979 -0.2395  0.0212  0.6330
   19MOL0     C 2442   6.907   8.152   4.035 -0.3128 -0.7885 -0.3445
   19MOL0     C 2443   6.792   8.129   3.937 -0.5954 -0.3304  0.5173
   19MOL0     C 2444   6.773   7.980   3.916  0.9167  0.6595  0.9291
   19MOL0     C 2445   6.631   7.967   3.850  0.1146 -0.2257  0.2967
   19MOL0     C 2446   6.647   7.973   3.702 -0.0809  0.3347  0.2129
   19MOL0     N 2447   6.511   7.976   3.636  0.4885 -0.0961 -0.2330
   19MOL0     C 2448   6.408   7.896   3.680 -0.5638  0.4926  0.3179
   19MOL0     C 2449   6.301   7.936   3.614 -0.1715  0.0323 -0.2151
   19MOL0     C 2450   6.162   7.870   3.603 -0.6440  0.4635 -0.6541
   19MOL0     C 2451   6.171   7.716   3.592  0.0392  1.3889  0.2814
   19MOL0     C 2452   6.247   7.671   3.459  0.3389  0.7767  0.0458
   19MOL0     C 2453   6.289   7.526   3.440  0.0709 -0.3158  0.0591
   19MOL0     O 2454   6.390   7.491   3.537  0.5579  0.2900  0.5731
   19MOL0     C 2455   6.518   7.536   3.524 -0.3433 -0.0829 -0.6849
   19MOL0     C 2456   6.606   7.530   3.637 -0.4010 -0.7416 -0.0724
   19MOL0     C 2457   6.735   7.580   3.648  0.1675 -0.3985  0.4738
   19MOL0     C 2458   6.803   7.585   3.776 -1.1517 -0.4435  0.1105
   19MOL0     C 2459   6.786   7.638   3.528 -0.4830 -0.2580  0.0552
   19MOL0     C 2460   6.924   7.710   3.509 -0.6414  0.0979 -0.3145
   19MOL0     O 2461   6.998   7.723   3.619 -0.1457  0.2066 -0.5041
   19MOL0     C 2462   7.116   7.795   3.624 -0.0464 -0.5951 -0.3400
   19MOL0     C 2463   7.126   7.923   3.665  0.5852 -0.1197  0.3594
   19MOL0     C 2464   7.246   7.997   3.668 -0.3330  0.4297  0.3918
   19MOL0     C 2465   7.362   7.942   3.615  0.0102 -0.0065 -0.7916
   19MOL0     O 2466   7.477   8.016   3.617 -0.1182 -0.5540 -0.5596
   19MOL0     C 2467   7.586   7.965   3.528 -0.9600 -0.4360 -0.2150
   19MOL0     C 2468   7.689   8.079   3.511  0.5298  1.2027 -0.7178
   19MOL0     C 2469   7.744   8.151   3.635  0.1784  0.0030 -0.1615
   19MOL0     C 2470   7.835   8.274   3.612  0.1114 -0.9560  0.6932
   19MOL0     C 2471   7.882   8.322   3.747 -0.5894 -0.0576 -0.4968
   19MOL0     C 2472   8.035   8.331   3.751 -0.2120 -0.4174 -0.9979
   19MOL0     C 2473   8.118   8.198   3.765 -0.0314  0.3601  0.4665
   19MOL0     C 2474   8.268   8.216   3.738  0.8616 -0.6775 -0.6566
   19MOL0    Cl 2475   8.368   8.062   3.731  0.3999  0.1080 -0.2326
   19MOL0     C 2476   7.350   7.805   3.568  0.2089 -0.6666 -0.3117
   19MOL0     C 2477   7.235   7.735   3.579  0.0426  0.1421  0.1860
   19MOL0     O 2478   6.964   7.752   3.401 -0.6355  0.0608  0.4214
   19MOL0     C 2479   6.704   7.636   3.412  0.2299 -0.3754  0.8702
   19MOL0     C 2480   6.573   7.588   3.412  0.1361 -0.1457 -0.1702
   19MOL0     N 2481   6.344   8.043   3.532  0.6521 -0.4502 -0.0402
   19MOL0     N 2482   6.467   8.060   3.537 -0.8787  0.1657 -0.3735
   19MOL0     C 2483   7.549   7.991   3.941 -0.0001  0.0840 -0.0626
   19MOL0     C 2484   7.668   7.932   3.898 -0.0399  0.9985  0.6169
   19MOL0     C 2485   8.093   7.821   3.828 -0.3172  0.8861 -0.1657
   19MOL0     C 2486   8.139   7.771   3.709 -0.6008  0.1010 -0.3811
   19MOL0     C 2487   8.273   7.719   3.693 -0.0491  0.5672  0.0500
   19MOL0     C 2488   8.367   7.727   3.796  0.3731  0.0563  0.2116
   19MOL0     O 2489   8.489   7.662   3.777 -0.5675  0.4985  0.3766
   19MOL0     C 2490   8.558   7.707   3.664 -0.1059 -0.0042 -0.6910
   19MOL0     C 2491   8.701   7.677   3.669  0.0830  0.2173 -0.3226
   19MOL0     C 2492   8.764   7.754   3.782  0.1879 -0.2017  0.1023
   19MOL0     C 2493   8.913   7.711   3.785 -0.3466 -0.1284 -0.0308
   19MOL0     C 2494   9.005   7.796   3.860  0.2827 -0.2243  0.3559
   19MOL0     C 2495   9.094   7.860   3.909 -0.3281  0.2650  1.1407
   19MOL0     C 2496   8.318   7.782   3.920 -0.8296 -0.1334  0.0697
   19MOL0     C 2497   8.187   7.822   3.939  0.2746  0.5193 -0.5094
   19MOL0     H 2498   7.814   7.918   4.212 -1.3288 -0.2012  1.1366
   19MOL0     H 2499   7.611   8.040   4.263  1.1850  2.2323 -1.1370
   19MOL0     H 2500   7.310   8.153   3.964 -0.9734 -0.3419  1.0682
   19MOL0     H 2501   7.282   7.985   3.963 -0.5752 -0.5631  1.9874
   19MOL0     H 2502   7.139   8.017   4.149  2.6137 -0.3490  0.4095
   19MOL0     H 2503   7.181   8.189   4.152 -0.9713  0.3927  0.1322
   19MOL0     H 2504   7.088   8.234   3.923 -1.1025 -0.3141 -0.4582
   19MOL0     H 2505   7.050   8.063   3.909  0.5157  0.6896 -0.2409
   19MOL0     H 2506   6.893   8.084   4.119  1.5969 -1.8494 -0.8477
   19MOL0     H 2507   6.899   8.253   4.075  1.5409  0.8690 -3.6911
   19MOL0     H 2508   6.711   8.170   3.997 -1.2101  0.8042 -1.0415
   19MOL0     H 2509   6.804   8.187   3.845 -0.5696 -0.3004  0.5398
   19MOL0     H 2510   6.851   7.943   3.848  0.2166  3.9389 -1.9835
   19MOL0     H 2511   6.775   7.924   4.010  3.3846  0.3821  0.7657
   19MOL0     H 2512   6.598   7.867   3.879  0.4449 -0.2080  0.7562
   19MOL0     H 2513   6.561   8.031   3.905 -0.9773 -0.2112 -1.0610
   19MOL0     H 2514   6.706   7.887   3.668  0.1173 -0.3842  2.2260
   19MOL0     H 2515   6.700   8.064   3.671 -2.3175  2.1232  1.2745
   19MOL0     H 2516   6.420   7.810   3.745 -1.6997 -1.3872 -1.8054
   19MOL0     H 2517   6.100   7.914   3.682  2.0521 -0.6379  2.2886
   19MOL0     H 2518   6.121   7.921   3.516 -4.4371 -0.2904  0.5022
   19MOL0     H 2519   6.068   7.684   3.576  1.0493 -1.2923 -1.5931
   19MOL0     H 2520   6.206   7.686   3.691  2.1209  3.6767  0.3517
   19MOL0     H 2521   6.337   7.730   3.437 -0.0478  0.7551 -1.7517
   19MOL0     H 2522   6.176   7.696   3.380  1.1507  1.3470 -0.5141
   19MOL0     H 2523   6.326   7.513   3.338  0.2073  0.8527 -0.0591
   19MOL0     H 2524   6.204   7.459   3.460  2.2655 -2.5779  2.6591
   19MOL0     H 2525   6.567   7.480   3.725 -0.5904 -1.1195 -0.3687
   19MOL0     H 2526   6.834   7.686   3.802  1.4747 -0.4152 -2.6008
   19MOL0     H 2527   6.757   7.541   3.866 -0.9082  2.1719  1.6129
   19MOL0     H 2528   6.895   7.526   3.776  1.2824  3.0388  1.4432
   19MOL0     H 2529   7.040   7.982   3.695  1.1619  1.0790 -0.2863
   19MOL0     H 2530   7.244   8.098   3.709 -0.1878  0.3128  0.6851
   19MOL0     H 2531   7.624   7.877   3.581 -0.1676  0.8608  1.4642
   19MOL0     H 2532   7.559   7.938   3.426  0.7849 -2.3698 -0.2272
   19MOL0     H 2533   7.768   8.031   3.451 -0.3815  0.3849 -1.2855
   19MOL0     H 2534   7.653   8.153   3.438  1.8823  0.4966 -2.1709
   19MOL0     H 2535   7.783   8.075   3.703 -1.4532 -1.5616 -0.9083
   19MOL0     H 2536   7.653   8.190   3.682  0.2901 -0.1726  0.2032
   19MOL0     H 2537   7.921   8.236   3.556  0.2165  0.1975  0.0372
   19MOL0     H 2538   7.791   8.351   3.548 -1.1238 -3.1220 -1.2135
   19MOL0     H 2539   7.837   8.268   3.831  1.3683  0.8775  1.2573
   19MOL0     H 2540   7.839   8.421   3.765 -0.4880  0.2165 -1.6895
   19MOL0     H 2541   8.061   8.383   3.659  0.4747  0.2101 -0.4625
   19MOL0     H 2542   8.058   8.396   3.836  2.3918 -0.9010 -1.2569
   19MOL0     H 2543   8.083   8.127   3.689  1.2688 -1.2561  1.3149
   19MOL0     H 2544   8.107   8.141   3.857  0.1659  1.4391  1.1759
   19MOL0     H 2545   8.307   8.280   3.818  1.6229 -1.2374 -0.5599
   19MOL0     H 2546   8.283   8.274   3.647  0.4947 -0.7309 -0.7486
   19MOL0     H 2547   7.437   7.755   3.527  1.0654 -0.1130  0.7623
   19MOL0     H 2548   7.235   7.629   3.556  4.3673 -1.3023  4.8921
   19MOL0     H 2549   6.733   7.670   3.312 -0.1836  0.3902  1.0019
   19MOL0     H 2550   6.526   7.587   3.314 -0.9455 -0.4247  0.3303
   19MOL0     H 2551   7.470   8.007   3.868 -0.8821 -0.1873  0.8107
   19MOL0     H 2552   7.667   7.904   3.793 -1.0897 -0.5642  1.0086
   19MOL0     H 2553   8.068   7.762   3.628 -2.0855 -0.3713  0.9238
   19MOL0     H 2554   8.294   7.674   3.597 -0.9567  2.0883 -0.9042
   19MOL0     H 2555   8.509   7.676   3.571  0.2149  0.8469 -1.1534
   19MOL0     H 2556   8.550   7.816   3.665  1.4196  0.1751  1.9121
   19MOL0     H 2557   8.738   7.696   3.568  0.8996  2.7871  0.3897
   19MOL0     H 2558   8.721   7.572   3.690  0.0401  0.2208 -0.2625
   19MOL0     H 2559   8.716   7.731   3.877 -2.6007 -0.5284 -1.2884
   19MOL0     H 2560   8.752   7.861   3.765  1.9415 -0.3308 -2.7124
   19MOL0     H 2561   8.936   7.725   3.679 -3.8706 -0.4562 -0.9623
   19MOL0     H 2562   8.937   7.612   3.824  3.3727 -0.4289 -2.5712
   19MOL0     H 2563   9.179   7.905   3.956  0.2744 -0.1961  0.5175
   19MOL0     H 2564   8.398   7.787   3.993 -1.3703  0.9014  0.6106
   19MOL0     H 2565   8.160   7.847   4.041  2.9430 -1.6379  0.8464
   20MOL0     O 2566   7.141   5.207   5.599  0.4174 -0.0982  0.9186
   20MOL0     C 2567   7.095   5.127   5.681  0.5440 -0.2745  0.2862
   20MOL0     O 2568   7.171   5.037   5.739  0.5364 -0.2108  0.1362
   20MOL0     C 2569   7.307   5.029   5.739 -0.3432 -0.8869  0.0649
   20MOL0     C 2570   7.383   5.017   5.624  1.3493  0.2238 -0.5683
   20MOL0     C 2571   7.518   5.014   5.636  0.1020  0.0646 -0.7504
   20MOL0     C 2572   7.589   5.022   5.760  0.1651  0.1857  0.5364
   20MOL0     O 2573   7.720   4.993   5.744 -0.2889  0.0273  0.0863
   20MOL0     C 2574   7.799   4.971   5.863  0.6518 -0.7879  0.8309
   20MOL0     C 2575   7.936   4.900   5.841 -0.5877  0.4569 -0.0821
   20MOL0     C 2576   8.046   4.986   5.772  0.3447 -0.7429 -0.5277
   20MOL0     C 2577   8.092   5.106   5.853  0.0598 -1.2683  0.6130
   20MOL0     C 2578   8.185   5.205   5.776 -0.0560 -0.0579 -0.9759
   20MOL0     C 2579   8.217   5.329   5.858 -0.9151 -0.6215  0.4518
   20MOL0     C 2580   8.316   5.419   5.780 -0.3464  0.0159 -0.3666
   20MOL0     C 2581   8.439   5.444   5.873 -0.1198  0.8590 -0.5232
   20MOL0     N 2582   8.537   5.338   5.862 -0.1916 -0.4802 -0.4326
   20MOL0     C 2583   8.528   5.202   5.883 -0.9996  0.5780 -0.9233
   20MOL0     C 2584   8.654   5.161   5.871  0.4506  0.4059 -1.4670
   20MOL0     C 2585   8.682   5.012   5.885  0.3619 -0.7978  0.1581
   20MOL0     C 2586   8.786   4.964   5.783  0.5185  0.6055  0.1481
   20MOL0     C 2587   8.929   4.950   5.837 -0.3764 -0.9550  0.4970
   20MOL0     C 2588   8.967   4.828   5.923  0.2426 -0.1947  0.0062
   20MOL0     O 2589   8.903   4.719   5.858  0.1912  1.0739  0.5132
   20MOL0     C 2590   8.955   4.646   5.756 -0.0048 -0.9413 -0.6180
   20MOL0     C 2591   9.099   4.646   5.723 -0.7231  0.8604  0.1705
   20MOL0     C 2592   9.138   4.551   5.630 -0.6306 -0.1368  0.5298
   20MOL0     C 2593   9.281   4.539   5.593 -0.6948  0.3053  0.1091
   20MOL0     C 2594   9.040   4.468   5.565 -0.1278  0.6736  0.0044
   20MOL0     C 2595   9.070   4.372   5.448 -0.3837  0.3186 -0.0298
   20MOL0     O 2596   8.970   4.275   5.426  0.0891 -0.2990  0.7869
   20MOL0     C 2597   8.979   4.197   5.311  1.1783 -0.2381 -1.3367
   20MOL0     C 2598   8.967   4.061   5.317 -0.0188  0.4239 -0.5608
   20MOL0     C 2599   8.999   3.972   5.221 -0.3391  0.8437 -0.4828
   20MOL0     C 2600   9.042   4.027   5.101  0.5777 -0.1339  0.5235
   20MOL0     O 2601   9.088   3.937   5.002 -0.3433 -0.7018 -0.2920
   20MOL0     C 2602   9.097   3.975   4.861 -0.6916  0.3444  0.1796
   20MOL0     C 2603   9.093   3.858   4.761 -0.5673  0.8841  0.2482
   20MOL0     C 2604   9.185   3.889   4.644  0.2593  0.0310 -0.4704
   20MOL0     C 2605   9.121   4.004   4.573  0.3411  0.4324 -0.9422
   20MOL0     C 2606   9.225   4.117   4.527 -0.1077  0.6187 -0.4543
   20MOL0     C 2607   9.324   4.043   4.439 -0.4081  0.2412 -0.0382
   20MOL0     C 2608   9.441   4.139   4.387  0.4449  0.6394 -0.0278
   20MOL0     C 2609   9.469   4.136   4.240  0.1280 -0.3504  0.2593
   20MOL0    Cl 2610   9.634   4.189   4.188  0.4666 -0.0865  0.1130
   20MOL0     C 2611   9.052   4.164   5.079  0.8615 -0.0720  0.0400
   20MOL0     C 2612   9.021   4.252   5.187  0.0363  0.5627  0.7538
   20MOL0     O 2613   9.166   4.394   5.374 -0.1444  0.2025  0.1673
   20MOL0     C 2614   8.899   4.488   5.587 -0.1637 -0.5483  0.4572
   20MOL0     C 2615   8.862   4.570   5.691 -0.0568  0.4303 -0.2269
   20MOL0     N 2616   8.735   5.258   5.847 -0.3528 -0.5063 -0.9751
   20MOL0     N 2617   8.668   5.369   5.844 -0.3334  0.1564  0.0229
   20MOL0     C 2618   7.510   5.038   5.874 -0.4066  0.1208 -0.5375
   20MOL0     C 2619   7.372   5.058   5.860  0.0663 -0.4256  0.3712
   20MOL0     C 2620   6.954   5.125   5.711 -0.2981  0.2342  1.1992
   20MOL0     C 2621   6.864   5.205   5.647  0.5359 -0.6008  0.4919
   20MOL0     C 2622   6.728   5.179   5.667 -1.1495  0.7790  0.4955
   20MOL0     C 2623   6.672   5.099   5.768 -0.2451  0.4928  0.5605
   20MOL0     O 2624   6.539   5.101   5.793 -0.8315  0.0326 -0.7027
   20MOL0     C 2625   6.485   5.036   5.911  0.9854  0.1236  0.2907
   20MOL0     C 2626   6.331   5.015   5.879 -0.1665  0.6270  0.4886
   20MOL0     C 2627   6.241   5.142   5.885 -0.6825  0.5004  0.7963
   20MOL0     C 2628   6.105   5.135   5.811  0.2472  0.1274 -0.5718
   20MOL0     C 2629   6.003   5.069   5.898  0.1012  1.0019  0.9923
   20MOL0     C 2630   5.927   5.027   5.983 -0.3585 -0.3700 -0.0198
   20MOL0     C 2631   6.768   5.041   5.845  0.0834 -0.1799 -0.8249
   20MOL0     C 2632   6.905   5.050   5.815  0.5979  0.7724 -0.1175
   20MOL0     H 2633   7.337   5.000   5.527 -1.8606 -2.1755  1.1661
   20MOL0     H 2634   7.573   5.005   5.543 -1.9762  0.6035 -2.0919
   20MOL0     H 2635   7.809   5.061   5.925 -4.1735 -0.1259  1.0443
   20MOL0     H 2636   7.732   4.911   5.924 -1.1027  0.2647  0.0032
   20MOL0     H 2637   7.982   4.878   5.938  0.4835  2.4459 -0.0894
   20MOL0     H 2638   7.918   4.810   5.782 -3.7849  0.2390  1.0577
   20MOL0     H 2639   8.129   4.916   5.758 -0.9397 -3.0955  2.4798
   20MOL0     H 2640   8.013   5.021   5.674  0.1951  1.2553  0.1958
   20MOL0     H 2641   8.008   5.169   5.885  1.1753  0.0705  0.9675
   20MOL0     H 2642   8.143   5.069   5.942 -0.0005 -0.2387  1.0882
   20MOL0     H 2643   8.277   5.156   5.743 -0.8459  0.1663 -3.6988
   20MOL0     H 2644   8.137   5.230   5.681 -1.8182 -0.1866 -0.1727
   20MOL0     H 2645   8.124   5.386   5.865  0.0760  0.9185  1.6732
   20MOL0     H 2646   8.253   5.295   5.955  1.1134 -3.6195 -1.1629
   20MOL0     H 2647   8.339   5.383   5.680  1.7102  1.5754 -0.5294
   20MOL0     H 2648   8.268   5.515   5.760  0.6685  0.0937 -2.8016
   20MOL0     H 2649   8.417   5.469   5.977  1.6796  0.9440 -0.1323
   20MOL0     H 2650   8.482   5.535   5.830 -1.1588  0.3053 -2.9201
   20MOL0     H 2651   8.442   5.144   5.913 -0.7443 -0.3637 -1.9447
   20MOL0     H 2652   8.720   4.982   5.983  0.2400  0.0952  0.4870
   20MOL0     H 2653   8.588   4.962   5.857  0.4538 -1.7066  1.3977
   20MOL0     H 2654   8.783   5.025   5.692 -0.2024 -0.5860 -0.6672
   20MOL0     H 2655   8.756   4.864   5.749 -2.6083  1.4879 -0.0217
   20MOL0     H 2656   8.956   5.037   5.896 -1.8005 -1.0965  1.4128
   20MOL0     H 2657   8.991   4.945   5.746 -2.1482 -0.4066 -0.8095
   20MOL0     H 2658   8.923   4.841   6.022 -0.9898 -0.2175 -0.5223
   20MOL0     H 2659   9.075   4.818   5.933  0.2236 -1.6623 -0.8831
   20MOL0     H 2660   9.167   4.714   5.774 -3.6477  0.0388  6.0639
   20MOL0     H 2661   9.306   4.581   5.495 -1.0029 -0.2578 -0.2196
   20MOL0     H 2662   9.341   4.584   5.672 -0.7588 -0.7542  0.7763
   20MOL0     H 2663   9.303   4.432   5.589 -1.9998  0.0458 -1.1650
   20MOL0     H 2664   8.938   4.015   5.411 -0.7321  2.3239  0.1894
   20MOL0     H 2665   9.001   3.864   5.227 -1.8764  0.6819 -2.0091
   20MOL0     H 2666   9.012   4.041   4.843  0.4169  1.2612 -2.2127
   20MOL0     H 2667   9.195   4.024   4.858 -1.5137  2.0094 -0.1348
   20MOL0     H 2668   9.120   3.765   4.810 -3.1572  1.2939  2.7232
   20MOL0     H 2669   8.990   3.832   4.734 -0.7534  1.2219  0.6300
   20MOL0     H 2670   9.197   3.800   4.581 -0.5230  0.7300 -1.6444
   20MOL0     H 2671   9.280   3.930   4.680  0.3605 -0.7897  0.2325
   20MOL0     H 2672   9.070   3.965   4.484 -0.6804  0.4243 -0.3665
   20MOL0     H 2673   9.039   4.049   4.629  1.0241 -1.2320  1.5406
   20MOL0     H 2674   9.269   4.170   4.613  1.2324  1.0261 -1.3579
   20MOL0     H 2675   9.174   4.197   4.473  0.1916  3.2328  2.7913
   20MOL0     H 2676   9.370   3.972   4.508 -0.6331  1.9983  2.0337
   20MOL0     H 2677   9.268   3.987   4.364  1.5390 -0.3411 -1.1270
   20MOL0     H 2678   9.527   4.100   4.442  2.6201  3.3554 -1.2591
   20MOL0     H 2679   9.419   4.242   4.420 -0.0457  0.4597  0.2182
   20MOL0     H 2680   9.396   4.202   4.191  1.2860  1.2604  0.6009
   20MOL0     H 2681   9.454   4.036   4.198 -0.2750 -0.3451  0.3941
   20MOL0     H 2682   9.090   4.209   4.988  0.4472  0.5345  0.1589
   20MOL0     H 2683   9.029   4.358   5.165  1.6112  0.6636  1.6638
   20MOL0     H 2684   8.816   4.445   5.531  0.2759  0.9683 -1.4768
   20MOL0     H 2685   8.755   4.575   5.705 -0.5494 -0.0023 -3.1906
   20MOL0     H 2686   7.553   5.044   5.974 -1.4107  3.7025 -0.1825
   20MOL0     H 2687   7.315   5.076   5.951  0.5130 -1.8888  0.9670
   20MOL0     H 2688   6.902   5.271   5.570  0.4311 -2.3117 -1.0941
   20MOL0     H 2689   6.667   5.242   5.603 -0.1625 -1.3496 -2.8221
   20MOL0     H 2690   6.531   4.941   5.940  0.4471  0.1324  1.2144
   20MOL0     H 2691   6.500   5.106   5.994  1.2570  4.0549 -2.7857
   20MOL0     H 2692   6.288   4.928   5.930  3.1667 -0.4801  1.6660
   20MOL0     H 2693   6.319   4.987   5.774 -0.9272  2.8396 -0.0757
   20MOL0     H 2694   6.296   5.221   5.832 -1.3025  0.8933  0.7359
   20MOL0     H 2695   6.224   5.170   5.989 -3.6717  2.2261 -0.0542
   20MOL0     H 2696   6.124   5.075   5.722  0.2991  1.1293 -1.2515
   20MOL0     H 2697   6.078   5.239   5.792 -1.6185  0.4091  2.8601
   20MOL0     H 2698   5.856   5.004   6.060 -1.4024  1.2947 -0.4183
   20MOL0     H 2699   6.737   4.974   5.924 -1.7040 -0.5766 -1.8168
   20MOL0     H 2700   6.974   4.999   5.881 -0.4687 -3.0325 -1.7023
   21MOL0     O 2701   7.650   4.311   4.637 -0.1956 -0.2608 -0.5919
   21MOL0     C 2702   7.708   4.317   4.523  0.4427  0.2743 -0.0606
   21MOL0     O 2703   7.645   4.351   4.408 -0.6295  0.0745 -1.0945
   21MOL0     C 2704   7.513   4.392   4.418 -0.0141 -0.0027  0.7299
   21MOL0     C 2705   7.466   4.498   4.492 -0.5122 -0.3225 -0.3168
   21MOL0     C 2706   7.328   4.526   4.513 -0.4836  0.2626  0.6823
   21MOL0     C 2707   7.241   4.445   4.442 -0.3639 -0.3796 -0.4193
   21MOL0     O 2708   7.108   4.461   4.453 -0.7834  0.8557 -0.5931
   21MOL0     C 2709   7.039   4.337   4.497 -0.6162 -0.7144  0.8771
   21MOL0     C 2710   7.075   4.285   4.634 -0.2005  0.8766 -0.3393
   21MOL0     C 2711   7.223   4.254   4.669 -0.0284  0.5820 -0.0699
   21MOL0     C 2712   7.234   4.163   4.788 -0.1200  0.3784  0.7067
   21MOL0     C 2713   7.379   4.150   4.839  0.0553 -0.9505 -0.5424
   21MOL0     C 2714   7.389   4.105   4.982 -0.1727 -0.2123 -0.0332
   21MOL0     C 2715   7.536   4.086   5.027 -0.6323  0.7322 -0.1611
   21MOL0     C 2716   7.594   3.956   4.972 -0.1749  0.6005 -0.2441
   21MOL0     N 2717   7.743   3.937   4.983  0.2644  0.7594 -0.3522
   21MOL0     C 2718   7.799   3.870   5.095  0.0943  0.4629  1.0776
   21MOL0     C 2719   7.927   3.863   5.061 -0.4180  0.3649  0.1540
   21MOL0     C 2720   8.048   3.795   5.130  0.1680  0.3336  0.0659
   21MOL0     C 2721   8.078   3.667   5.056  0.3476  0.2868 -0.2939
   21MOL0     C 2722   8.216   3.612   5.093  0.4974 -0.9149  0.5486
   21MOL0     C 2723   8.250   3.483   5.016  0.0599 -0.0862  0.1088
   21MOL0     O 2724   8.371   3.430   5.052  0.8992 -0.4617 -0.0968
   21MOL0     C 2725   8.439   3.355   4.962  0.1024  0.1509  0.0930
   21MOL0     C 2726   8.392   3.308   4.840  0.0872 -0.5245 -0.6608
   21MOL0     C 2727   8.475   3.227   4.760 -0.2937  0.7503 -0.6536
   21MOL0     C 2728   8.424   3.171   4.639  0.4277  0.1640 -0.2324
   21MOL0     C 2729   8.612   3.209   4.803  0.6934  1.2340 -0.7482
   21MOL0     C 2730   8.701   3.136   4.723 -0.1398 -0.2418  0.6894
   21MOL0     O 2731   8.777   3.209   4.616  0.3064  0.0168 -1.3285
   21MOL0     C 2732   8.854   3.144   4.532 -0.1597  0.0865  2.2552
   21MOL0     C 2733   8.992   3.177   4.513 -0.1037  0.0779 -0.4626
   21MOL0     C 2734   9.075   3.103   4.423 -0.0080 -0.4124 -0.1639
   21MOL0     C 2735   9.014   2.993   4.354  0.4841  0.7780  0.3135
   21MOL0     O 2736   9.076   2.919   4.257  0.2834 -0.2748  0.5025
   21MOL0     C 2737   9.181   2.986   4.188 -0.1912 -0.0406  0.4081
   21MOL0     C 2738   9.320   2.963   4.253 -0.5540 -0.2008  0.2957
   21MOL0     C 2739   9.424   2.953   4.140  0.6292  0.6646  0.2199
   21MOL0     C 2740   9.417   2.821   4.064 -0.5700  0.0603  0.0351
   21MOL0     C 2741   9.552   2.803   3.996  0.4581 -0.6246  0.9004
   21MOL0     C 2742   9.573   2.670   3.912  0.2370 -0.8653 -0.2890
   21MOL0     C 2743   9.718   2.650   3.865  0.2183 -0.1983 -0.3071
   21MOL0     C 2744   9.726   2.537   3.774  0.0976 -0.0081  0.2268
   21MOL0    Cl 2745   9.889   2.541   3.704  0.1797  0.1369 -0.0219
   21MOL0     C 2746   8.878   2.951   4.378  0.2368 -0.1485  1.2643
   21MOL0     C 2747   8.807   3.032   4.466  0.6719 -0.4459  0.1766
   21MOL0     O 2748   8.707   3.014   4.749  1.1189 -0.0348 -0.3033
   21MOL0     C 2749   8.665   3.260   4.919  0.6942 -0.6360  0.9103
   21MOL0     C 2750   8.573   3.329   4.994  0.1411 -0.1147 -0.8813
   21MOL0     N 2751   7.952   3.934   4.941  0.5315 -0.2546  0.0924
   21MOL0     N 2752   7.839   3.976   4.903  0.7393  0.1142  0.0784
   21MOL0     C 2753   7.290   4.355   4.342  0.5174  0.0042  0.2830
   21MOL0     C 2754   7.421   4.314   4.340  0.8843  0.3285  0.2649
   21MOL0     C 2755   7.860   4.291   4.518  1.0038 -0.4012  0.4299
   21MOL0     C 2756   7.930   4.295   4.394 -0.6269 -0.1608 -0.3841
   21MOL0     C 2757   8.064   4.260   4.398  0.1931  0.1014 -0.2204
   21MOL0     C 2758   8.130   4.205   4.509  1.1054 -0.3265 -0.8771
   21MOL0     O 2759   8.254   4.154   4.504  0.5052  0.3714  0.0331
   21MOL0     C 2760   8.250   4.014   4.532  0.1127  0.5801  0.4651
   21MOL0     C 2761   8.378   3.950   4.490  0.2458 -0.1893 -0.3651
   21MOL0     C 2762   8.493   4.048   4.528  0.1832  0.5095 -0.1527
   21MOL0     C 2763   8.632   3.977   4.530 -0.3435  0.0029  1.0486
   21MOL0     C 2764   8.667   3.907   4.403  0.1432  0.6569  0.2891
   21MOL0     C 2765   8.704   3.844   4.307  0.3510  0.3557 -0.3715
   21MOL0     C 2766   8.052   4.204   4.630 -0.2004  0.6732  0.9051
   21MOL0     C 2767   7.921   4.249   4.635 -0.0135 -0.1548  0.7011
   21MOL0     H 2768   7.544   4.563   4.531 -0.9223 -1.5766  2.9547
   21MOL0     H 2769   7.281   4.599   4.577 -1.9613  1.1103 -1.2599
   21MOL0     H 2770   6.931   4.354   4.489 -0.1635  1.7998 -1.3551
   21MOL0     H 2771   7.058   4.257   4.425 -0.3679  1.5391 -1.7266
   21MOL0     H 2772   7.045   4.365   4.702 -0.3057 -0.1768  0.8926
   21MOL0     H 2773   7.014   4.197   4.658  2.5676 -0.8295  0.8325
   21MOL0     H 2774   7.273   4.206   4.585 -0.4712  0.3089 -0.1763
   21MOL0     H 2775   7.265   4.348   4.708  3.0751 -1.2935  1.5054
   21MOL0     H 2776   7.160   4.195   4.862 -0.8021  1.8055 -0.5552
   21MOL0     H 2777   7.202   4.064   4.757 -0.7876  0.9274 -0.3786
   21MOL0     H 2778   7.424   4.082   4.766 -2.1043 -3.5083  0.3556
   21MOL0     H 2779   7.427   4.247   4.828  0.2284 -0.9678  0.0248
   21MOL0     H 2780   7.346   4.190   5.036 -0.8551  0.6493 -1.8769
   21MOL0     H 2781   7.330   4.014   4.998 -1.0068  0.5346  1.3966
   21MOL0     H 2782   7.597   4.172   4.996  1.9161 -1.1313 -0.6514
   21MOL0     H 2783   7.539   4.080   5.136 -5.7962 -0.6386  0.1542
   21MOL0     H 2784   7.573   3.957   4.865 -1.1115 -0.7624 -0.0953
   21MOL0     H 2785   7.533   3.880   5.023  1.6332 -0.2487  0.7595
   21MOL0     H 2786   7.756   3.834   5.188  1.4810  6.4041  4.5644
   21MOL0     H 2787   8.132   3.864   5.115  2.9661 -2.7738  0.1326
   21MOL0     H 2788   8.034   3.780   5.237  1.8045 -0.0297  0.2587
   21MOL0     H 2789   8.057   3.671   4.949 -3.9755 -0.6222  0.3110
   21MOL0     H 2790   8.014   3.586   5.091  0.7284  0.4660  0.8486
   21MOL0     H 2791   8.222   3.596   5.201  3.2922  0.3159  0.6684
   21MOL0     H 2792   8.291   3.685   5.060 -1.8663  0.9144 -1.1058
   21MOL0     H 2793   8.243   3.516   4.912 -0.6727 -2.0146 -0.5014
   21MOL0     H 2794   8.170   3.410   5.027  0.6153 -0.4990  1.6367
   21MOL0     H 2795   8.293   3.327   4.799  1.3271  1.0589 -3.1453
   21MOL0     H 2796   8.315   3.166   4.653  0.7771 -1.8894  2.9212
   21MOL0     H 2797   8.448   3.232   4.552 -0.6762  0.5672 -0.2684
   21MOL0     H 2798   8.458   3.069   4.616  0.3311 -0.1665  0.9831
   21MOL0     H 2799   9.037   3.259   4.568 -2.5948  0.4146  1.2073
   21MOL0     H 2800   9.168   3.152   4.398 -0.0807 -0.6853 -1.0103
   21MOL0     H 2801   9.182   2.944   4.087  0.7428  1.8379 -0.4184
   21MOL0     H 2802   9.163   3.094   4.184 -2.1207 -0.2417  2.0255
   21MOL0     H 2803   9.338   3.041   4.327  0.3781 -0.4703  0.3551
   21MOL0     H 2804   9.322   2.863   4.296 -2.2760 -0.9004 -1.0988
   21MOL0     H 2805   9.522   2.965   4.186  1.1305 -0.7326 -0.4499
   21MOL0     H 2806   9.419   3.036   4.069  0.1303 -2.6591 -3.9983
   21MOL0     H 2807   9.386   2.741   4.132 -0.4710  0.9114  1.1130
   21MOL0     H 2808   9.343   2.828   3.984  0.1324 -0.3225 -0.6686
   21MOL0     H 2809   9.633   2.819   4.067 -0.0270  1.3446  1.0584
   21MOL0     H 2810   9.557   2.882   3.921 -0.4327  0.1970  1.6801
   21MOL0     H 2811   9.548   2.582   3.972 -0.3922  1.4187  3.0887
   21MOL0     H 2812   9.509   2.670   3.824 -1.9951 -0.4317  1.2467
   21MOL0     H 2813   9.784   2.633   3.951  0.1409  0.7078 -0.0632
   21MOL0     H 2814   9.739   2.749   3.824 -0.0737 -0.3465 -0.8239
   21MOL0     H 2815   9.655   2.521   3.693  0.5081 -2.0382  0.2038
   21MOL0     H 2816   9.724   2.448   3.838  0.0454 -0.4361 -0.3622
   21MOL0     H 2817   8.838   2.865   4.326  2.0871  0.0083 -0.5449
   21MOL0     H 2818   8.713   2.984   4.489  0.7469 -1.6498 -1.8717
   21MOL0     H 2819   8.767   3.248   4.955  0.3034 -0.6222  2.0635
   21MOL0     H 2820   8.611   3.359   5.092 -1.1299 -0.2532 -0.3291
   21MOL0     H 2821   7.213   4.306   4.283 -0.4863  1.3955  0.3749
   21MOL0     H 2822   7.463   4.230   4.285 -0.4978  0.0920 -0.4657
   21MOL0     H 2823   7.881   4.330   4.304  2.1125 -0.7163 -2.1834
   21MOL0     H 2824   8.127   4.266   4.309 -0.8697  1.3746 -0.9215
   21MOL0     H 2825   8.249   3.991   4.638  0.7182 -1.5158  0.0599
   21MOL0     H 2826   8.168   3.968   4.475  0.7816  1.4232 -1.2528
   21MOL0     H 2827   8.379   3.935   4.381 -0.1345  2.0671 -0.7226
   21MOL0     H 2828   8.401   3.857   4.542  1.8620  0.9581  1.1048
   21MOL0     H 2829   8.475   4.089   4.628  0.1311  0.7295 -0.2520
   21MOL0     H 2830   8.512   4.128   4.456 -0.9406  0.7259 -0.2247
   21MOL0     H 2831   8.648   3.909   4.615  1.4717 -0.4201  0.4191
   21MOL0     H 2832   8.711   4.050   4.543  0.2229 -0.6375  1.2813
   21MOL0     H 2833   8.756   3.805   4.221  1.3528  1.1629 -0.1527
   21MOL0     H 2834   8.097   4.159   4.718 -0.2680 -1.1023  0.0858
   21MOL0     H 2835   7.870   4.252   4.731 -2.9149 -2.0914 -0.6351
   22MOL0     O 2836   0.481   4.419   4.283  0.4827 -1.1285  0.4791
   22MOL0     C 2837   0.548   4.321   4.267  0.0854 -0.0608 -0.1925
   22MOL0     O 2838   0.508   4.190   4.292  0.8072 -0.3961  0.3458
   22MOL0     C 2839   0.397   4.166   4.371 -0.7670 -0.2685  0.9818
   22MOL0     C 2840   0.383   4.216   4.503 -1.4744  0.1573 -0.5378
   22MOL0     C 2841   0.273   4.158   4.580 -1.2568 -0.8397 -0.0192
   22MOL0     C 2842   0.179   4.066   4.525 -0.1763 -0.6258 -0.0947
   22MOL0     O 2843   0.072   4.016   4.591  0.5534  0.5112  0.4138
   22MOL0     C 2844   0.061   4.042   4.725 -0.1103  0.2591 -0.6287
   22MOL0     C 2845  -0.067   3.979   4.765  0.3080  0.5015 -0.5216
   22MOL0     C 2846  -0.130   4.036   4.885 -0.2360 -0.3297  0.1513
   22MOL0     C 2847  -0.261   3.967   4.907  1.0190 -0.4936  1.1168
   22MOL0     C 2848  -0.311   4.030   5.035 -0.4670 -0.1696 -0.6118
   22MOL0     C 2849  -0.453   3.981   5.063 -0.4586  0.2477  0.4521
   22MOL0     C 2850  -0.507   4.057   5.181 -0.8242 -0.4652 -0.2860
   22MOL0     C 2851  -0.659   4.031   5.209  0.7720 -0.2396 -0.1872
   22MOL0     N 2852  -0.696   4.064   5.344  0.1093  1.2177 -0.1522
   22MOL0     C 2853  -0.764   3.976   5.423  0.1512  0.3162 -0.4495
   22MOL0     C 2854  -0.762   4.028   5.545 -0.7299  0.0094  0.2454
   22MOL0     C 2855  -0.826   3.958   5.662 -0.2622 -1.0597  0.9697
   22MOL0     C 2856  -0.743   3.959   5.793 -0.2586  0.1892  1.1034
   22MOL0     C 2857  -0.802   4.054   5.894  0.5233 -0.0148  0.4867
   22MOL0     C 2858  -0.756   4.202   5.877 -0.3487  0.1380  0.2008
   22MOL0     O 2859  -0.768   4.272   6.003  0.1429 -0.0036  0.1265
   22MOL0     C 2860  -0.734   4.403   6.012 -0.4416 -0.4668 -0.3447
   22MOL0     C 2861  -0.766   4.462   6.135  0.4694  0.5439  0.2446
   22MOL0     C 2862  -0.757   4.594   6.168  0.0243  0.4565 -0.7491
   22MOL0     C 2863  -0.807   4.629   6.303  0.1148  0.4623 -0.3666
   22MOL0     C 2864  -0.697   4.681   6.071  0.2512  0.5024  0.1713
   22MOL0     C 2865  -0.651   4.822   6.099  0.8240  1.2830  0.4259
   22MOL0     O 2866  -0.534   4.865   6.042  0.8733 -0.3380  0.5878
   22MOL0     C 2867  -0.505   4.991   6.089 -0.2228  0.4454 -0.2506
   22MOL0     C 2868  -0.578   5.109   6.078  0.7233 -0.6488  0.0883
   22MOL0     C 2869  -0.531   5.229   6.131  0.8844 -0.3310  1.5566
   22MOL0     C 2870  -0.401   5.238   6.184  0.4613  0.9450  0.5501
   22MOL0     O 2871  -0.363   5.363   6.223 -0.6684 -0.1123  0.3740
   22MOL0     C 2872  -0.242   5.398   6.283  0.0816  0.1441 -0.2422
   22MOL0     C 2873  -0.259   5.541   6.353 -0.6919  0.1151 -0.2275
   22MOL0     C 2874  -0.400   5.608   6.341  1.1396 -0.3482 -0.2902
   22MOL0     C 2875  -0.386   5.752   6.404  0.5496  0.2600  0.0572
   22MOL0     C 2876  -0.521   5.828   6.412  0.2359 -0.8113 -0.5761
   22MOL0     C 2877  -0.621   5.779   6.522 -1.3897 -0.1341  0.3383
   22MOL0     C 2878  -0.733   5.876   6.549 -0.2185  0.4580  1.0367
   22MOL0     C 2879  -0.696   5.964   6.661 -0.4180  0.5991 -0.2283
   22MOL0    Cl 2880  -0.605   6.106   6.618  0.8649 -0.3415 -0.0607
   22MOL0     C 2881  -0.321   5.123   6.185  0.8522 -1.4228 -1.6946
   22MOL0     C 2882  -0.382   5.008   6.149 -0.0670  0.3038  0.4923
   22MOL0     O 2883  -0.736   4.887   6.159  0.0113 -0.0999  0.1198
   22MOL0     C 2884  -0.651   4.620   5.948  0.2558  0.4708 -0.4667
   22MOL0     C 2885  -0.677   4.478   5.915  0.3415  0.1205  0.4435
   22MOL0     N 2886  -0.705   4.153   5.534  0.1812  0.5747 -0.3817
   22MOL0     N 2887  -0.666   4.173   5.414  0.6631 -0.1059  0.6622
   22MOL0     C 2888   0.181   4.038   4.385  0.2845  0.9248 -0.9875
   22MOL0     C 2889   0.293   4.084   4.316 -0.4905 -0.0878  0.2553
   22MOL0     C 2890   0.683   4.334   4.202 -0.0024  0.0008 -0.6016
   22MOL0     C 2891   0.761   4.222   4.203 -0.5171  0.7255  0.6803
   22MOL0     C 2892   0.880   4.228   4.131  0.4050 -0.1705  0.3571
   22MOL0     C 2893   0.919   4.336   4.055 -0.1648  0.3587  0.1528
   22MOL0     O 2894   1.029   4.343   3.962  0.3529  0.3270  0.7711
   22MOL0     C 2895   1.088   4.213   3.931 -0.3852  0.6616 -0.8841
   22MOL0     C 2896   1.148   4.203   3.793  0.0705 -0.4011  0.0749
   22MOL0     C 2897   1.061   4.212   3.669  0.9480 -0.5257 -0.7537
   22MOL0     C 2898   0.972   4.084   3.640  1.0383 -0.3178 -0.8396
   22MOL0     C 2899   0.882   4.111   3.528  0.2287  0.3153  0.9651
   22MOL0     C 2900   0.797   4.138   3.437 -0.1166  0.5361 -0.3797
   22MOL0     C 2901   0.844   4.450   4.054  0.2671 -0.8426 -0.3014
   22MOL0     C 2902   0.725   4.448   4.137 -0.3855  0.4510  1.3710
   22MOL0     H 2903   0.460   4.278   4.548 -0.0593 -0.8671 -1.4841
   22MOL0     H 2904   0.270   4.196   4.681  3.4787  1.3747 -0.4635
   22MOL0     H 2905   0.141   4.004   4.790  0.1693  1.7111 -0.0624
   22MOL0     H 2906   0.051   4.151   4.731 -1.0129  0.2942 -2.2364
   22MOL0     H 2907  -0.139   3.999   4.685  0.6673  2.7127 -0.3611
   22MOL0     H 2908  -0.062   3.871   4.784  1.7007  0.6964  0.3399
   22MOL0     H 2909  -0.068   4.019   4.973  0.2927  2.2976  0.3605
   22MOL0     H 2910  -0.138   4.144   4.869  0.7078 -0.3452 -0.5073
   22MOL0     H 2911  -0.330   3.983   4.824 -1.5673 -1.2565  2.9855
   22MOL0     H 2912  -0.244   3.860   4.921  1.0801 -0.4766  1.1727
   22MOL0     H 2913  -0.242   4.000   5.114  0.7184  0.9469 -1.1935
   22MOL0     H 2914  -0.314   4.139   5.025 -1.5315 -0.4062 -4.3802
   22MOL0     H 2915  -0.516   3.992   4.975  1.4553  0.9185 -0.9134
   22MOL0     H 2916  -0.443   3.872   5.072  1.2639  0.0411 -2.4534
   22MOL0     H 2917  -0.443   4.054   5.270 -0.6019 -0.4520 -0.4445
   22MOL0     H 2918  -0.497   4.164   5.162 -0.7140  0.0077  2.0955
   22MOL0     H 2919  -0.665   3.923   5.194  0.9370 -0.5408  1.7013
   22MOL0     H 2920  -0.719   4.094   5.142  2.3318  0.4741 -0.9590
   22MOL0     H 2921  -0.793   3.872   5.406 -1.9457  0.3624  2.2582
   22MOL0     H 2922  -0.919   4.013   5.680  1.5822  1.7466  2.7172
   22MOL0     H 2923  -0.850   3.853   5.643 -1.6014 -0.5845 -0.1169
   22MOL0     H 2924  -0.639   3.983   5.769 -0.0990 -0.4895  1.0907
   22MOL0     H 2925  -0.739   3.860   5.841  4.1890 -0.5758 -0.3962
   22MOL0     H 2926  -0.768   4.028   5.995 -0.0495  4.7840  2.1887
   22MOL0     H 2927  -0.910   4.038   5.901  0.8853 -2.3373  2.1932
   22MOL0     H 2928  -0.812   4.254   5.798 -1.8489 -0.2410  0.9873
   22MOL0     H 2929  -0.653   4.196   5.840 -0.7744 -0.4118 -0.9225
   22MOL0     H 2930  -0.797   4.395   6.215  1.6244 -0.9512 -0.5083
   22MOL0     H 2931  -0.788   4.734   6.330  0.2721  0.0855  1.0744
   22MOL0     H 2932  -0.914   4.609   6.313  0.1704  0.7203  0.9192
   22MOL0     H 2933  -0.751   4.567   6.373  1.6468  1.2687 -0.8415
   22MOL0     H 2934  -0.671   5.109   6.022  2.3731 -1.0584 -2.8542
   22MOL0     H 2935  -0.581   5.325   6.126  1.0061 -0.2546 -3.7673
   22MOL0     H 2936  -0.222   5.328   6.364 -2.0346 -0.9466 -0.5794
   22MOL0     H 2937  -0.154   5.401   6.217 -0.1272 -0.4380 -0.5588
   22MOL0     H 2938  -0.213   5.525   6.451  0.1083  0.7991 -0.4756
   22MOL0     H 2939  -0.190   5.602   6.293 -2.1833 -1.4798 -3.8618
   22MOL0     H 2940  -0.487   5.559   6.387  0.3851  2.5054  1.5829
   22MOL0     H 2941  -0.430   5.619   6.237 -4.0023 -0.4196  0.9242
   22MOL0     H 2942  -0.355   5.746   6.509 -1.8594 -0.5231  0.7983
   22MOL0     H 2943  -0.316   5.811   6.345  1.1694 -0.3960  0.1252
   22MOL0     H 2944  -0.574   5.833   6.317 -1.3076 -5.5805 -0.2547
   22MOL0     H 2945  -0.491   5.931   6.432  1.4038 -0.9137 -1.7270
   22MOL0     H 2946  -0.668   5.694   6.472  3.6526 -2.2006 -1.5662
   22MOL0     H 2947  -0.570   5.761   6.618  0.9640  1.9970 -0.4051
   22MOL0     H 2948  -0.821   5.814   6.563 -2.2829  2.1452 -2.8709
   22MOL0     H 2949  -0.757   5.934   6.459  1.8250 -1.2967 -0.7696
   22MOL0     H 2950  -0.651   5.891   6.728  0.4516 -2.2179 -3.5925
   22MOL0     H 2951  -0.787   6.008   6.704  0.7165  2.9154 -0.0167
   22MOL0     H 2952  -0.216   5.133   6.213  0.9952  2.4075 -3.0207
   22MOL0     H 2953  -0.313   4.925   6.158  1.8850  1.7096 -0.7398
   22MOL0     H 2954  -0.594   4.675   5.875  1.9104 -0.4131  0.1112
   22MOL0     H 2955  -0.642   4.440   5.820  0.9489  0.4010  0.5552
   22MOL0     H 2956   0.104   3.979   4.336 -1.1253  1.5860  0.3768
   22MOL0     H 2957   0.297   4.046   4.215 -6.0700  2.1132 -1.1614
   22MOL0     H 2958   0.735   4.125   4.246  0.3666 -0.2949 -1.0206
   22MOL0     H 2959   0.948   4.143   4.130  0.7608  0.0489 -2.8052
   22MOL0     H 2960   1.170   4.186   3.999 -0.1367 -1.0786 -1.8106
   22MOL0     H 2961   1.014   4.134   3.947  0.0857  0.6689  1.8893
   22MOL0     H 2962   1.205   4.112   3.772 -0.4304 -0.8100  0.4611
   22MOL0     H 2963   1.218   4.288   3.786 -0.0736 -0.3959 -1.9554
   22MOL0     H 2964   1.116   4.231   3.576  1.6851  3.1344  0.2622
   22MOL0     H 2965   0.994   4.297   3.684 -0.2993 -1.8585  1.8003
   22MOL0     H 2966   0.909   4.055   3.724  1.9897  1.9590  0.7749
   22MOL0     H 2967   1.046   4.006   3.621  0.7964 -1.1743  1.3975
   22MOL0     H 2968   0.720   4.149   3.363 -0.1385 -2.7247 -1.0270
   22MOL0     H 2969   0.855   4.539   3.993 -0.4291  0.4417  1.3512
   22MOL0     H 2970   0.656   4.532   4.141  0.0043  0.8969 -0.2284
   23MOL0     O 2971   7.401   7.938   6.518  0.3574  0.1242 -0.7650
   23MOL0     C 2972   7.449   7.828   6.549  0.0611  1.0823 -0.1226
   23MOL0     O 2973   7.568   7.804   6.602 -0.7786  0.6451 -0.0803
   23MOL0     C 2974   7.645   7.910   6.624 -0.0122  0.3440 -0.1216
   23MOL0     C 2975   7.634   7.980   6.748  0.4187 -0.1534  0.1076
   23MOL0     C 2976   7.710   8.101   6.761  0.2719 -0.7707 -0.3909
   23MOL0     C 2977   7.794   8.147   6.661 -0.0003 -0.4047  0.0926
   23MOL0     O 2978   7.864   8.256   6.692  0.4381 -0.5321 -0.1598
   23MOL0     C 2979   7.917   8.345   6.592  0.4968  0.0352  0.4893
   23MOL0     C 2980   7.984   8.461   6.660 -0.3578  0.1668 -0.3340
   23MOL0     C 2981   8.040   8.558   6.551 -0.9816  0.4623 -0.0633
   23MOL0     C 2982   7.992   8.562   6.403  0.3610 -0.4692  0.3132
   23MOL0     C 2983   8.086   8.639   6.311 -0.5908  0.1169  0.5832
   23MOL0     C 2984   8.039   8.612   6.170  0.1074 -0.1816  0.5937
   23MOL0     C 2985   8.048   8.733   6.076 -0.5963  0.3321  0.3294
   23MOL0     C 2986   7.954   8.847   6.106 -0.9848  0.3432  0.1252
   23MOL0     N 2987   7.838   8.793   6.174 -0.1500  0.3436  0.0600
   23MOL0     C 2988   7.782   8.851   6.284  0.6302  0.3684  0.1508
   23MOL0     C 2989   7.658   8.788   6.307  0.5372 -0.0201  0.5136
   23MOL0     C 2990   7.566   8.790   6.435  0.0445 -0.2849 -0.5232
   23MOL0     C 2991   7.641   8.858   6.554 -0.3718 -0.9415  0.7624
   23MOL0     C 2992   7.587   8.830   6.692  0.0689  0.1944  0.3246
   23MOL0     C 2993   7.438   8.887   6.719 -0.0242  0.1204  0.0801
   23MOL0     O 2994   7.344   8.821   6.629 -0.3855 -0.3115  0.0368
   23MOL0     C 2995   7.212   8.847   6.618  0.7884 -0.6851 -0.2561
   23MOL0     C 2996   7.140   8.925   6.703  0.8273 -0.5056 -0.2136
   23MOL0     C 2997   6.999   8.937   6.685 -0.3362 -0.7499  0.2170
   23MOL0     C 2998   6.928   9.022   6.784 -0.0191 -0.5376 -0.4772
   23MOL0     C 2999   6.947   8.878   6.574  0.7528  1.3334 -0.0652
   23MOL0     C 3000   6.799   8.871   6.541  0.4790 -0.1707  0.4443
   23MOL0     O 3001   6.763   8.803   6.430  0.0148  0.2763  0.1844
   23MOL0     C 3002   6.634   8.794   6.400  0.0615  0.0826  1.1000
   23MOL0     C 3003   6.574   8.679   6.418 -0.4328  0.9005 -0.8413
   23MOL0     C 3004   6.441   8.667   6.378  1.0775 -0.2684 -0.7633
   23MOL0     C 3005   6.367   8.776   6.339 -0.0777 -0.1138  0.8297
   23MOL0     O 3006   6.237   8.754   6.302 -0.1413  0.3000  0.2561
   23MOL0     C 3007   6.141   8.863   6.328 -0.6727  0.2263  0.1926
   23MOL0     C 3008   6.003   8.808   6.338  0.5878  0.1520 -0.1020
   23MOL0     C 3009   5.977   8.699   6.453 -0.3689 -0.2924  0.1688
   23MOL0     C 3010   5.838   8.700   6.519  0.7937  1.1734 -0.4752
   23MOL0     C 3011   5.816   8.563   6.595  0.1672 -0.7990 -0.5829
   23MOL0     C 3012   5.888   8.571   6.730 -0.2503  0.1699 -0.4164
   23MOL0     C 3013   5.891   8.436   6.813 -0.3334 -1.1072 -0.2399
   23MOL0     C 3014   5.930   8.471   6.953 -0.0040 -0.5146 -0.3639
   23MOL0    Cl 3015   5.802   8.556   7.038 -0.2282 -0.4930  0.1534
   23MOL0     C 3016   6.434   8.896   6.307 -0.0501 -0.2336  1.1718
   23MOL0     C 3017   6.569   8.909   6.339  0.1941  0.7327 -0.2636
   23MOL0     O 3018   6.719   8.924   6.614 -0.2262 -0.0489 -0.1215
   23MOL0     C 3019   7.023   8.792   6.491  0.2275 -0.5045  1.0850
   23MOL0     C 3020   7.153   8.783   6.502  0.4102  0.0521 -0.1459
   23MOL0     N 3021   7.637   8.707   6.195 -0.7138 -0.5081  0.4505
   23MOL0     N 3022   7.741   8.722   6.112 -0.5091 -0.2331 -0.1253
   23MOL0     C 3023   7.805   8.070   6.540  0.0007  0.6311 -1.0420
   23MOL0     C 3024   7.730   7.955   6.523  0.2147 -1.0061  1.0671
   23MOL0     C 3025   7.364   7.713   6.527  0.0027  0.1085  0.0844
   23MOL0     C 3026   7.233   7.732   6.509 -0.2039  0.1258 -0.4628
   23MOL0     C 3027   7.154   7.631   6.461  0.1331  0.3464 -0.6637
   23MOL0     C 3028   7.217   7.499   6.452  0.8420  0.8903 -0.3753
   23MOL0     O 3029   7.124   7.397   6.423  0.3435 -0.0144  0.1289
   23MOL0     C 3030   7.127   7.302   6.525  0.0495 -0.1357  0.4649
   23MOL0     C 3031   7.015   7.198   6.518  0.0196 -0.1488  0.4419
   23MOL0     C 3032   6.877   7.247   6.556  0.2939  0.6846  0.2184
   23MOL0     C 3033   6.878   7.294   6.701  0.0964  0.7768 -0.1850
   23MOL0     C 3034   6.886   7.172   6.795  0.9251 -0.4457  0.5476
   23MOL0     C 3035   6.893   7.075   6.868  0.2338  0.0520 -0.0002
   23MOL0     C 3036   7.355   7.479   6.473  0.0326  0.3629 -0.2327
   23MOL0     C 3037   7.427   7.586   6.506  0.9516  0.8721 -0.7147
   23MOL0     H 3038   7.571   7.949   6.830  0.0864  1.9749  0.7166
   23MOL0     H 3039   7.698   8.153   6.856 -2.2860  2.4599 -2.2415
   23MOL0     H 3040   7.991   8.296   6.527  1.1153  1.1596  0.3107
   23MOL0     H 3041   7.838   8.385   6.528 -0.0803 -0.7248  0.7265
   23MOL0     H 3042   7.911   8.511   6.724 -0.1602 -0.8755  0.7450
   23MOL0     H 3043   8.065   8.438   6.730  0.5949  1.6131 -0.8873
   23MOL0     H 3044   8.024   8.662   6.581 -1.6551  0.7166 -1.2501
   23MOL0     H 3045   8.148   8.539   6.550 -1.1171 -0.4736  1.2883
   23MOL0     H 3046   7.975   8.459   6.368  1.4932 -0.6497  0.2625
   23MOL0     H 3047   7.892   8.607   6.403 -0.3265 -1.8260  2.4012
   23MOL0     H 3048   8.093   8.744   6.339  0.4899 -0.0566  1.0398
   23MOL0     H 3049   8.187   8.597   6.318 -0.5544  0.3423  1.5286
   23MOL0     H 3050   8.114   8.548   6.124 -0.8309 -2.6336  2.2762
   23MOL0     H 3051   7.946   8.554   6.164  1.9477 -3.1537 -1.1347
   23MOL0     H 3052   8.150   8.772   6.085  1.1115 -3.5350 -0.1485
   23MOL0     H 3053   8.036   8.712   5.969  0.4176  0.2942  0.2140
   23MOL0     H 3054   7.922   8.897   6.014  2.1504 -1.2468 -1.9952
   23MOL0     H 3055   8.003   8.911   6.181 -0.6012  0.9182 -0.5972
   23MOL0     H 3056   7.835   8.924   6.346  0.4481  1.0640 -0.5046
   23MOL0     H 3057   7.478   8.851   6.412  0.7420  0.1891 -2.0916
   23MOL0     H 3058   7.536   8.690   6.469  1.9682 -1.8414 -2.9996
   23MOL0     H 3059   7.661   8.964   6.537 -0.5636 -0.9082  0.7369
   23MOL0     H 3060   7.738   8.810   6.566 -0.0139 -0.5844 -0.6385
   23MOL0     H 3061   7.647   8.884   6.765  1.8893  1.2747 -1.8643
   23MOL0     H 3062   7.590   8.721   6.702 -1.4070  0.1857  0.9994
   23MOL0     H 3063   7.444   8.993   6.692  0.4943  0.7532  2.4240
   23MOL0     H 3064   7.418   8.879   6.827  1.3814  0.1260  0.3547
   23MOL0     H 3065   7.186   8.967   6.791 -1.2730  1.3383  0.0647
   23MOL0     H 3066   7.006   9.096   6.805  0.7048 -1.0715 -1.2305
   23MOL0     H 3067   6.835   9.074   6.758 -0.5491 -0.6563  1.0372
   23MOL0     H 3068   6.919   8.961   6.874  1.4421  1.2446  0.9573
   23MOL0     H 3069   6.638   8.602   6.460 -2.1443  0.7287  1.6424
   23MOL0     H 3070   6.386   8.579   6.410  0.7804 -0.1231 -0.8706
   23MOL0     H 3071   6.162   8.914   6.422 -4.2586  1.9171  0.2465
   23MOL0     H 3072   6.157   8.941   6.252  0.9424 -0.4563 -0.2168
   23MOL0     H 3073   5.946   8.900   6.355 -0.1537  0.3451 -3.0997
   23MOL0     H 3074   5.985   8.777   6.235  1.5605  0.7974 -0.4855
   23MOL0     H 3075   6.060   8.714   6.523 -0.1685 -0.3902 -0.0441
   23MOL0     H 3076   5.985   8.601   6.405 -0.1956 -0.3853  0.3864
   23MOL0     H 3077   5.832   8.793   6.576  1.8713  0.8349  0.2393
   23MOL0     H 3078   5.755   8.691   6.449  1.2284  0.5302 -0.9225
   23MOL0     H 3079   5.857   8.485   6.529 -1.7845 -1.0528 -1.5784
   23MOL0     H 3080   5.714   8.537   6.623  0.5409 -0.7377  0.8926
   23MOL0     H 3081   5.989   8.610   6.716  1.7018 -2.7889  3.5336
   23MOL0     H 3082   5.841   8.650   6.789 -2.2044 -0.1391 -1.4881
   23MOL0     H 3083   5.969   8.364   6.787  1.3005 -0.8877  3.4385
   23MOL0     H 3084   5.792   8.389   6.817 -1.0992  0.4667  2.7332
   23MOL0     H 3085   6.015   8.539   6.951 -0.6667  0.3141 -1.2642
   23MOL0     H 3086   5.958   8.383   7.012 -0.9252 -0.8236 -0.3719
   23MOL0     H 3087   6.375   8.970   6.253 -2.4920 -1.4601  2.0232
   23MOL0     H 3088   6.621   9.000   6.310  0.1837  0.5987 -0.7039
   23MOL0     H 3089   6.975   8.732   6.414 -1.4318  2.6090 -0.4965
   23MOL0     H 3090   7.207   8.711   6.442 -0.1641 -1.0281  0.6148
   23MOL0     H 3091   7.859   8.106   6.453  1.3528  1.4057  0.0625
   23MOL0     H 3092   7.735   7.904   6.428  1.8122 -0.7371  0.9863
   23MOL0     H 3093   7.195   7.833   6.516  0.2920  0.3515 -0.9567
   23MOL0     H 3094   7.050   7.653   6.441 -0.3342  0.5004  1.6243
   23MOL0     H 3095   7.221   7.249   6.508 -1.1549 -2.4178  0.4838
   23MOL0     H 3096   7.142   7.344   6.625  2.4302 -0.5660  0.3388
   23MOL0     H 3097   7.045   7.113   6.580  1.0377 -1.2030 -1.3971
   23MOL0     H 3098   7.010   7.156   6.417  0.3695 -2.1670  1.2107
   23MOL0     H 3099   6.803   7.169   6.541 -0.1544  0.8772  1.3489
   23MOL0     H 3100   6.862   7.331   6.488  0.6858  0.7247  0.1760
   23MOL0     H 3101   6.775   7.331   6.713 -0.9800 -1.3819 -1.9239
   23MOL0     H 3102   6.957   7.367   6.721  0.1975  1.8691 -3.7237
   23MOL0     H 3103   6.899   7.000   6.945 -1.6900 -1.6949 -1.4498
   23MOL0     H 3104   7.393   7.377   6.474 -0.8315 -0.0109  2.8049
   23MOL0     H 3105   7.529   7.567   6.537  0.3708 -0.1754  0.7201
   24MOL0     O 3106   8.903  11.139   2.477  0.0249  0.5903  0.8944
   24MOL0     C 3107   8.833  11.222   2.423 -0.6392 -0.9335  0.2071
   24MOL0     O 3108   8.885  11.337   2.366  0.1368  0.1395  0.5401
   24MOL0     C 3109   9.013  11.387   2.394  0.2603  0.5327 -0.1642
   24MOL0     C 3110   9.009  11.523   2.393  0.6570 -0.1508  0.8012
   24MOL0     C 3111   9.122  11.585   2.430  0.4789 -0.5203  0.1042
   24MOL0     C 3112   9.246  11.527   2.460  0.0437 -0.7497  0.2667
   24MOL0     O 3113   9.348  11.619   2.466 -0.6686  0.1099  0.1929
   24MOL0     C 3114   9.475  11.599   2.526 -0.4268 -0.4021  0.0624
   24MOL0     C 3115   9.567  11.717   2.545 -0.1923 -0.6062 -0.7035
   24MOL0     C 3116   9.636  11.769   2.421  0.7073  0.6483  0.0887
   24MOL0     C 3117   9.759  11.854   2.443 -0.1897 -0.9613  0.1056
   24MOL0     C 3118   9.783  11.947   2.326  0.3789  0.0987  0.0221
   24MOL0     C 3119   9.795  11.869   2.198 -0.0562  0.5080 -1.1929
   24MOL0     C 3120   9.886  11.925   2.089  0.5166 -0.9977 -0.0406
   24MOL0     C 3121   9.886  11.845   1.962 -0.0361  0.2273  0.5328
   24MOL0     N 3122   9.937  11.930   1.847  0.1564  0.8242  0.5631
   24MOL0     C 3123  10.068  11.971   1.819 -0.4035 -0.0948  0.2542
   24MOL0     C 3124  10.058  12.033   1.700  0.1804 -0.5343 -0.4881
   24MOL0     C 3125  10.166  12.088   1.609 -0.4062  0.5391 -0.3610
   24MOL0     C 3126  10.211  12.229   1.647  0.6116 -0.2528  0.5834
   24MOL0     C 3127  10.298  12.301   1.544  0.8162  0.3616  0.0063
   24MOL0     C 3128  10.322  12.448   1.583  0.2110 -1.1094  0.3176
   24MOL0     O 3129  10.392  12.522   1.479 -0.0082 -0.1724 -0.0529
   24MOL0     C 3130  10.524  12.506   1.432 -0.0022 -0.3245  0.5819
   24MOL0     C 3131  10.564  12.599   1.340 -0.7919 -0.7092  0.8324
   24MOL0     C 3132  10.701  12.624   1.321  0.3863  0.0144  0.7119
   24MOL0     C 3133  10.726  12.747   1.239 -0.3805  0.2650  0.4230
   24MOL0     C 3134  10.802  12.549   1.388 -0.4798  0.5554 -1.0095
   24MOL0     C 3135  10.938  12.578   1.380  0.1089 -0.7550  0.0499
   24MOL0     O 3136  11.019  12.465   1.375  0.0168 -0.2631 -1.0901
   24MOL0     C 3137  11.152  12.479   1.336  0.1396  0.5324  0.1898
   24MOL0     C 3138  11.240  12.495   1.446  0.0919 -0.8067  0.0185
   24MOL0     C 3139  11.371  12.528   1.417 -0.3581  1.1487 -0.0480
   24MOL0     C 3140  11.413  12.521   1.278 -0.0487 -0.0104 -0.5020
   24MOL0     O 3141  11.539  12.523   1.228 -0.3457 -0.7517 -0.7884
   24MOL0     C 3142  11.640  12.496   1.324  0.5991  0.6540 -0.4767
   24MOL0     C 3143  11.765  12.429   1.266  0.1469 -0.3221  0.2761
   24MOL0     C 3144  11.893  12.479   1.332  0.5492 -0.4996  0.3479
   24MOL0     C 3145  12.005  12.389   1.278  0.2331 -0.7007  0.4205
   24MOL0     C 3146  12.139  12.405   1.347 -1.2004  0.0295 -0.4032
   24MOL0     C 3147  12.186  12.558   1.367 -0.6349 -0.3229  0.5326
   24MOL0     C 3148  12.195  12.653   1.244  0.1187  0.2281  0.2144
   24MOL0     C 3149  12.202  12.804   1.276 -0.0170  0.3007  0.0907
   24MOL0    Cl 3150  12.335  12.847   1.387 -0.4092 -0.4641  0.2563
   24MOL0     C 3151  11.323  12.486   1.182  0.2541 -0.0116 -0.1873
   24MOL0     C 3152  11.194  12.477   1.206  0.0851  0.0011 -0.6510
   24MOL0     O 3153  10.980  12.687   1.393  1.0459  0.0054  0.3744
   24MOL0     C 3154  10.759  12.446   1.467  0.6545  0.0775 -0.9612
   24MOL0     C 3155  10.628  12.431   1.494  0.4492 -0.1433 -0.0450
   24MOL0     N 3156   9.921  12.038   1.664  0.3229 -0.2348 -0.2487
   24MOL0     N 3157   9.852  11.967   1.749 -0.2061 -0.1772  0.0697
   24MOL0     C 3158   9.247  11.394   2.467 -0.0427  0.9822 -0.9542
   24MOL0     C 3159   9.132  11.318   2.429 -0.2196 -0.0185  0.4650
   24MOL0     C 3160   8.689  11.195   2.397  0.3580  0.1394 -0.0553
   24MOL0     C 3161   8.610  11.256   2.309  0.5577 -1.1235 -0.0523
   24MOL0     C 3162   8.478  11.219   2.283 -0.1792 -0.2898 -0.3466
   24MOL0     C 3163   8.426  11.111   2.355 -0.3593  0.4387 -0.9212
   24MOL0     O 3164   8.292  11.073   2.342  0.0477  0.8619  0.0926
   24MOL0     C 3165   8.231  11.078   2.210  0.1654 -1.0030 -0.0216
   24MOL0     C 3166   8.096  11.164   2.233 -0.1172  1.1521  0.6680
   24MOL0     C 3167   8.131  11.309   2.272  0.0891  0.4883 -0.8190
   24MOL0     C 3168   8.004  11.388   2.323 -0.9437  0.1167 -0.0338
   24MOL0     C 3169   8.041  11.524   2.342 -0.6328 -0.2148 -0.3475
   24MOL0     C 3170   8.067  11.640   2.366 -0.7542 -0.5527 -1.0706
   24MOL0     C 3171   8.502  11.043   2.452  0.3509  0.4033  0.5575
   24MOL0     C 3172   8.634  11.090   2.467 -0.7789  0.2920  0.4455
   24MOL0     H 3173   8.921  11.584   2.376  0.8810  0.2574  1.0915
   24MOL0     H 3174   9.114  11.693   2.433 -2.1587 -0.6754  1.5365
   24MOL0     H 3175   9.458  11.568   2.630 -4.1262  1.0492  0.0358
   24MOL0     H 3176   9.538  11.530   2.470  1.4037  2.2363 -1.3327
   24MOL0     H 3177   9.521  11.805   2.591 -3.6497 -1.7973 -1.5732
   24MOL0     H 3178   9.649  11.681   2.609 -1.5677 -1.6102  0.5845
   24MOL0     H 3179   9.663  11.682   2.360  2.3387  1.6397 -0.6726
   24MOL0     H 3180   9.566  11.827   2.360  1.3028 -0.6734 -1.9586
   24MOL0     H 3181   9.753  11.913   2.536 -1.6228  0.2372 -0.6948
   24MOL0     H 3182   9.847  11.791   2.459  0.1112  0.0042  2.7344
   24MOL0     H 3183   9.699  12.016   2.315  0.0316 -0.2566  0.4135
   24MOL0     H 3184   9.879  11.997   2.343 -0.2715  2.3342 -2.3297
   24MOL0     H 3185   9.834  11.771   2.225 -1.2941  0.2814 -0.1015
   24MOL0     H 3186   9.699  11.854   2.147 -2.6213 -0.3477  3.3151
   24MOL0     H 3187   9.856  12.029   2.080  2.3387  0.0729  4.0957
   24MOL0     H 3188   9.985  11.922   2.134  1.1271 -1.3829 -1.3424
   24MOL0     H 3189   9.790  11.803   1.931  1.2393 -1.6232 -1.1465
   24MOL0     H 3190   9.937  11.750   1.980 -1.1747 -0.2432  1.3462
   24MOL0     H 3191  10.163  11.973   1.872 -0.9877 -0.9085  1.3672
   24MOL0     H 3192  10.248  12.018   1.596 -1.7356 -1.0466 -0.5337
   24MOL0     H 3193  10.132  12.103   1.506  5.1590 -1.5765 -2.8764
   24MOL0     H 3194  10.265  12.219   1.742  0.3072  0.3155  0.8150
   24MOL0     H 3195  10.119  12.283   1.668 -1.4655 -3.2270 -0.2054
   24MOL0     H 3196  10.249  12.298   1.447 -2.5023 -1.4528  1.5629
   24MOL0     H 3197  10.391  12.246   1.530  1.5694  1.9187 -1.6063
   24MOL0     H 3198  10.378  12.444   1.677  1.7912 -0.2870 -0.5498
   24MOL0     H 3199  10.228  12.502   1.597  1.2881  1.3119 -1.1408
   24MOL0     H 3200  10.482  12.653   1.292  0.6139 -0.4082 -1.3792
   24MOL0     H 3201  10.752  12.721   1.136  1.6002  0.5460  0.8162
   24MOL0     H 3202  10.634  12.807   1.239 -0.7656 -0.2871  2.0376
   24MOL0     H 3203  10.801  12.812   1.284 -0.1772  1.3764 -1.4195
   24MOL0     H 3204  11.204  12.510   1.547 -0.9139  3.1877 -0.7874
   24MOL0     H 3205  11.447  12.531   1.494 -1.2980  1.0511  0.9018
   24MOL0     H 3206  11.686  12.584   1.370  2.5597  1.9104 -4.3845
   24MOL0     H 3207  11.596  12.424   1.394 -3.0004  2.5042 -0.6458
   24MOL0     H 3208  11.759  12.323   1.289  2.6963 -0.7175 -0.6700
   24MOL0     H 3209  11.773  12.435   1.158 -0.6274  1.1783  0.2578
   24MOL0     H 3210  11.884  12.458   1.439 -1.7924  1.4525  0.6177
   24MOL0     H 3211  11.906  12.586   1.315  2.3462 -0.8950 -1.0903
   24MOL0     H 3212  11.978  12.283   1.284 -1.9728 -0.1623  0.8340
   24MOL0     H 3213  12.032  12.413   1.174  0.5516  2.0138  1.0478
   24MOL0     H 3214  12.220  12.353   1.296  0.3191 -0.1436  2.0256
   24MOL0     H 3215  12.161  12.356   1.442  2.6667  0.9665 -0.6146
   24MOL0     H 3216  12.124  12.611   1.440 -0.9404  3.4049 -2.1234
   24MOL0     H 3217  12.285  12.556   1.414  0.3363  3.0934 -1.0262
   24MOL0     H 3218  12.104  12.637   1.185  0.2294 -1.1492  0.3836
   24MOL0     H 3219  12.286  12.631   1.186  2.1467  3.6888  1.7669
   24MOL0     H 3220  12.105  12.831   1.318  0.8093 -0.9603  3.1151
   24MOL0     H 3221  12.202  12.866   1.186 -0.1364 -0.7854 -0.6784
   24MOL0     H 3222  11.362  12.470   1.082  0.7293 -1.2704  0.1876
   24MOL0     H 3223  11.138  12.467   1.114  0.4845  0.0659 -0.9028
   24MOL0     H 3224  10.825  12.383   1.526 -1.1097 -0.5607  0.3981
   24MOL0     H 3225  10.582  12.364   1.566  0.2942 -1.1229 -1.0300
   24MOL0     H 3226   9.345  11.348   2.481 -0.7694  0.0082  1.3530
   24MOL0     H 3227   9.130  11.210   2.414 -1.8409  0.0630 -0.0585
   24MOL0     H 3228   8.645  11.342   2.252  0.5079  0.4721  2.1864
   24MOL0     H 3229   8.426  11.271   2.203 -1.8004 -1.8098 -0.3255
   24MOL0     H 3230   8.302  11.111   2.134  0.3703 -3.7633 -1.1174
   24MOL0     H 3231   8.208  10.978   2.172  1.2350 -1.1223 -0.3796
   24MOL0     H 3232   8.025  11.118   2.302 -1.9608  0.5753 -1.4841
   24MOL0     H 3233   8.040  11.164   2.139 -1.7515 -1.5787  1.5527
   24MOL0     H 3234   8.187  11.369   2.200  0.9541  1.6632  0.7479
   24MOL0     H 3235   8.201  11.295   2.354 -1.7806 -0.8932  0.6478
   24MOL0     H 3236   7.960  11.332   2.405 -0.0206  1.5418  1.4979
   24MOL0     H 3237   7.922  11.389   2.250 -0.6695 -2.7911 -0.4812
   24MOL0     H 3238   8.117  11.735   2.371 -0.3318 -0.5791 -3.5814
   24MOL0     H 3239   8.458  10.977   2.526  0.9235  0.4117  0.9106
   24MOL0     H 3240   8.696  11.050   2.546  0.1298  2.3645  0.8561
   25MOL0     O 3241   9.141   8.360   4.442 -0.4722  0.2173 -0.0564
   25MOL0     C 3242   9.095   8.292   4.349 -0.1689  1.3443 -0.8196
   25MOL0     O 3243   9.167   8.235   4.256  0.3185 -0.1882  0.0925
   25MOL0     C 3244   9.308   8.220   4.261 -0.2303  0.1998  0.5294
   25MOL0     C 3245   9.398   8.324   4.297 -0.3424 -1.3332  0.1523
   25MOL0     C 3246   9.541   8.296   4.297  0.6238  0.2106  0.1450
   25MOL0     C 3247   9.593   8.177   4.244 -0.4694  0.3208 -0.0862
   25MOL0     O 3248   9.730   8.168   4.227 -0.5506 -0.3649 -0.4853
   25MOL0     C 3249   9.817   8.276   4.197  0.0671 -0.0593 -0.5025
   25MOL0     C 3250   9.964   8.240   4.159  1.0397 -0.6695  0.5634
   25MOL0     C 3251  10.014   8.121   4.232  0.7606 -0.4136  1.4526
   25MOL0     C 3252  10.172   8.119   4.204  0.8032 -0.5207 -0.2321
   25MOL0     C 3253  10.237   7.980   4.237 -0.6736 -0.6193 -0.4585
   25MOL0     C 3254  10.233   7.955   4.389 -0.7273  0.3096 -0.1534
   25MOL0     C 3255  10.292   7.820   4.412 -0.1567  0.6126 -0.1429
   25MOL0     C 3256  10.185   7.721   4.457 -0.4632 -0.4548  0.1308
   25MOL0     N 3257  10.255   7.593   4.478 -0.1389  0.0491 -0.0010
   25MOL0     C 3258  10.305   7.541   4.594 -0.6143  0.6453  0.7044
   25MOL0     C 3259  10.390   7.442   4.563 -0.1476  0.4365  0.0468
   25MOL0     C 3260  10.474   7.357   4.657  0.2685  0.0885  0.6811
   25MOL0     C 3261  10.555   7.245   4.569  0.6274  1.0962 -0.8406
   25MOL0     C 3262  10.642   7.163   4.665  0.0839 -0.3043 -0.2905
   25MOL0     C 3263  10.568   7.035   4.703  0.7846 -0.1506  1.0311
   25MOL0     O 3264  10.607   6.979   4.828  0.4530  1.3854 -0.2871
   25MOL0     C 3265  10.716   6.888   4.839  0.2009  0.0558 -0.2999
   25MOL0     C 3266  10.713   6.818   4.958 -0.4442  1.0666  0.0509
   25MOL0     C 3267  10.812   6.720   4.987 -0.2405 -0.1890 -0.3432
   25MOL0     C 3268  10.819   6.654   5.126 -0.1043  1.5301  0.5050
   25MOL0     C 3269  10.907   6.681   4.882  0.2736  0.3393 -0.6998
   25MOL0     C 3270  11.014   6.569   4.898  0.0204 -0.3957  0.8000
   25MOL0     O 3271  11.041   6.508   5.019  0.3600 -0.3762 -0.0025
   25MOL0     C 3272  11.153   6.460   5.065 -0.4823 -0.2076  0.1523
   25MOL0     C 3273  11.262   6.432   4.983 -0.6790  0.4060 -0.5105
   25MOL0     C 3274  11.383   6.386   5.041 -0.7026  0.2637 -1.0129
   25MOL0     C 3275  11.386   6.364   5.180 -1.0126  0.8188  1.0889
   25MOL0     O 3276  11.506   6.314   5.225 -0.0119  0.5846 -0.5589
   25MOL0     C 3277  11.507   6.181   5.291 -0.1100  0.3805 -0.4254
   25MOL0     C 3278  11.544   6.069   5.186 -0.8405  0.7661  0.5716
   25MOL0     C 3279  11.668   6.100   5.095  0.0811 -0.3627 -0.2230
   25MOL0     C 3280  11.690   5.982   5.003 -0.3421  0.1916 -0.3270
   25MOL0     C 3281  11.804   6.005   4.914  0.3281 -0.0364  0.0543
   25MOL0     C 3282  11.821   5.882   4.823 -0.0143  0.0273  0.7845
   25MOL0     C 3283  11.960   5.878   4.759 -0.8327  0.0553 -0.4600
   25MOL0     C 3284  11.971   5.737   4.681 -0.0317  0.3544  0.0051
   25MOL0    Cl 3285  11.936   5.604   4.812 -0.0422 -0.0584  0.0407
   25MOL0     C 3286  11.284   6.408   5.260 -0.1683 -0.9303 -0.1987
   25MOL0     C 3287  11.167   6.450   5.205  0.5235  0.2932 -0.1092
   25MOL0     O 3288  11.034   6.521   4.787 -0.3868 -0.3149 -0.6454
   25MOL0     C 3289  10.904   6.758   4.764 -1.0293  1.1330  0.8015
   25MOL0     C 3290  10.812   6.852   4.736  0.3724  0.1513 -0.2660
   25MOL0     N 3291  10.400   7.437   4.429  0.0084  1.0486 -0.6368
   25MOL0     N 3292  10.321   7.528   4.377 -0.4211 -0.6037  0.7390
   25MOL0     C 3293   9.511   8.077   4.200  0.4024  0.2375  0.2829
   25MOL0     C 3294   9.370   8.097   4.212  0.6554  0.1364  0.1911
   25MOL0     C 3295   8.944   8.302   4.338 -0.3092  0.3464  0.3405
   25MOL0     C 3296   8.858   8.347   4.437 -0.0061 -0.3835 -0.9709
   25MOL0     C 3297   8.723   8.348   4.427 -0.7596  0.7597  0.0802
   25MOL0     C 3298   8.655   8.310   4.312 -0.0607  0.0807 -0.3824
   25MOL0     O 3299   8.521   8.326   4.305  0.2584  0.2993  0.3120
   25MOL0     C 3300   8.471   8.402   4.200 -0.5039  0.0361 -0.0161
   25MOL0     C 3301   8.413   8.315   4.092  0.7175  0.7019 -1.0564
   25MOL0     C 3302   8.308   8.202   4.143 -0.2357 -0.5402 -0.4451
   25MOL0     C 3303   8.210   8.261   4.248 -0.5879  0.9473 -0.4201
   25MOL0     C 3304   8.119   8.361   4.199 -0.5962  0.2171 -0.0868
   25MOL0     C 3305   8.068   8.467   4.174  0.7649  0.0962 -0.7317
   25MOL0     C 3306   8.738   8.265   4.203 -0.2636  0.3120  0.3009
   25MOL0     C 3307   8.876   8.256   4.216  0.2636 -0.3783  0.0490
   25MOL0     H 3308   9.370   8.425   4.323  2.5007  0.3196 -2.5624
   25MOL0     H 3309   9.608   8.374   4.331  2.1645 -1.6924  1.7343
   25MOL0     H 3310   9.770   8.338   4.121 -1.6125 -0.3973  0.2105
   25MOL0     H 3311   9.822   8.346   4.281  0.1187 -1.0500  0.3524
   25MOL0     H 3312   9.956   8.210   4.054 -1.6806  0.1709  0.4520
   25MOL0     H 3313  10.023   8.330   4.182 -2.3022  1.4906  1.2925
   25MOL0     H 3314   9.981   8.119   4.337 -1.6765 -1.0797  0.7410
   25MOL0     H 3315   9.978   8.026   4.191 -0.6956 -0.0154  1.7326
   25MOL0     H 3316  10.184   8.152   4.101 -2.9756  0.6408 -0.4345
   25MOL0     H 3317  10.228   8.187   4.270 -0.1686 -2.3832  2.7446
   25MOL0     H 3318  10.178   7.909   4.178 -4.5697  0.1927  2.0952
   25MOL0     H 3319  10.342   7.977   4.206 -0.9571 -1.4885 -1.3793
   25MOL0     H 3320  10.289   8.041   4.427 -0.6139  0.6337 -1.0233
   25MOL0     H 3321  10.137   7.953   4.441 -0.2859 -0.6272  0.6619
   25MOL0     H 3322  10.346   7.790   4.321 -2.6806  0.2305 -1.6102
   25MOL0     H 3323  10.367   7.841   4.489  0.3950  0.1207 -0.5258
   25MOL0     H 3324  10.123   7.719   4.366 -2.4393 -2.1939  1.4184
   25MOL0     H 3325  10.118   7.749   4.538 -0.1621 -0.1479  0.2757
   25MOL0     H 3326  10.266   7.578   4.689 -1.1219  1.7983  0.0645
   25MOL0     H 3327  10.544   7.424   4.707  1.5953  0.2312 -1.2568
   25MOL0     H 3328  10.407   7.313   4.732  1.4081  0.7194  2.1164
   25MOL0     H 3329  10.614   7.293   4.491 -2.0016  0.3791 -3.4626
   25MOL0     H 3330  10.493   7.174   4.515  0.1459  1.6938 -1.0874
   25MOL0     H 3331  10.677   7.229   4.745 -0.3147  1.9115 -1.8448
   25MOL0     H 3332  10.730   7.138   4.605 -1.8356 -0.6554 -3.1655
   25MOL0     H 3333  10.588   6.969   4.618 -0.1162  1.5081 -0.5437
   25MOL0     H 3334  10.462   7.064   4.699  0.2466 -1.8407  1.9805
   25MOL0     H 3335  10.634   6.842   5.029 -3.5374 -0.0764 -2.7578
   25MOL0     H 3336  10.816   6.546   5.111  2.1164  1.3581  0.8914
   25MOL0     H 3337  10.911   6.676   5.182 -0.4720 -1.9472  2.7414
   25MOL0     H 3338  10.733   6.665   5.193  2.1688 -0.8892  4.1936
   25MOL0     H 3339  11.265   6.448   4.876 -0.4910  0.0348 -0.5631
   25MOL0     H 3340  11.470   6.350   4.987 -0.3947  3.2652 -2.7177
   25MOL0     H 3341  11.571   6.175   5.379 -0.9579  3.8600  0.5984
   25MOL0     H 3342  11.410   6.168   5.340  1.4248 -1.4979  2.3363
   25MOL0     H 3343  11.570   5.978   5.242  2.3882  0.2513 -1.4640
   25MOL0     H 3344  11.457   6.050   5.123 -1.5031  3.3272  0.6093
   25MOL0     H 3345  11.751   6.125   5.162 -2.6935  0.6778  3.1310
   25MOL0     H 3346  11.652   6.187   5.032  0.2361  0.5886  1.0076
   25MOL0     H 3347  11.706   5.902   5.076  1.4694  2.2564  1.6903
   25MOL0     H 3348  11.605   5.953   4.940  0.5572  2.5686 -2.8371
   25MOL0     H 3349  11.895   6.016   4.973  0.9171 -0.4357 -0.7592
   25MOL0     H 3350  11.790   6.096   4.854  0.5090  0.6307  1.0064
   25MOL0     H 3351  11.811   5.795   4.889  3.0373 -0.7000  0.3925
   25MOL0     H 3352  11.746   5.887   4.744  1.6149  1.1683 -0.7551
   25MOL0     H 3353  12.037   5.888   4.837 -2.1545 -0.4939  0.9655
   25MOL0     H 3354  11.982   5.958   4.688  3.1136 -0.7754 -0.3857
   25MOL0     H 3355  12.074   5.727   4.644  1.0469 -0.0289  2.7905
   25MOL0     H 3356  11.906   5.733   4.594  2.3814 -2.8350 -1.8681
   25MOL0     H 3357  11.299   6.418   5.367  1.4458 -1.3907 -0.3517
   25MOL0     H 3358  11.082   6.483   5.264  0.6913  0.3128  0.1269
   25MOL0     H 3359  10.981   6.745   4.689 -0.3484  1.5600  1.4169
   25MOL0     H 3360  10.808   6.908   4.643  0.4882  0.3398 -0.1573
   25MOL0     H 3361   9.555   7.982   4.171  2.6359  1.1548  0.4932
   25MOL0     H 3362   9.307   8.020   4.171 -0.1227 -0.2982  2.0697
   25MOL0     H 3363   8.900   8.387   4.528 -0.0779 -1.7462 -0.3093
   25MOL0     H 3364   8.669   8.383   4.515  0.7338  1.8309  0.6246
   25MOL0     H 3365   8.398   8.477   4.230 -1.0068  1.7421 -4.6698
   25MOL0     H 3366   8.548   8.463   4.150 -0.0412 -0.2898  0.2880
   25MOL0     H 3367   8.496   8.263   4.042  0.3074 -1.5393  0.4346
   25MOL0     H 3368   8.361   8.375   4.017  2.9762  1.3849 -2.1471
   25MOL0     H 3369   8.370   8.116   4.171  3.4392  1.6959 -1.0266
   25MOL0     H 3370   8.249   8.174   4.055 -1.8228  2.0446 -0.3116
   25MOL0     H 3371   8.256   8.285   4.344 -0.2980 -0.5848 -0.1467
   25MOL0     H 3372   8.134   8.189   4.282 -1.1986  2.3170  1.2966
   25MOL0     H 3373   8.022   8.563   4.162  0.3754  0.2483  1.4805
   25MOL0     H 3374   8.691   8.251   4.106 -1.3805  0.6918  0.7660
   25MOL0     H 3375   8.930   8.218   4.130 -1.9702 -1.5153 -0.9179
   26MOL0     O 3376   9.856  10.200  11.353  0.2598  0.5513 -0.4659
   26MOL0     C 3377   9.844  10.320  11.367 -0.4339  0.1938 -0.2966
   26MOL0     O 3378   9.768  10.400  11.284  0.3276 -0.2154  0.4978
   26MOL0     C 3379   9.728  10.347  11.164 -0.0087  0.1924 -0.9387
   26MOL0     C 3380   9.625  10.238  11.163 -0.2068 -0.6485 -1.2676
   26MOL0     C 3381   9.603  10.177  11.035  0.3233 -0.7544 -0.6972
   26MOL0     C 3382   9.667  10.223  10.915  0.0592 -0.2325 -0.0585
   26MOL0     O 3383   9.617  10.168  10.798 -0.0709  0.6704  0.3541
   26MOL0     C 3384   9.643  10.233  10.675 -0.3030  0.2149  0.3378
   26MOL0     C 3385   9.542  10.193  10.568 -0.6650 -0.1804 -0.0517
   26MOL0     C 3386   9.406  10.267  10.606 -0.3587  0.7692  0.0330
   26MOL0     C 3387   9.302  10.221  10.495 -0.3710 -1.2192 -0.2002
   26MOL0     C 3388   9.170  10.293  10.487  0.6657 -0.4131  0.2084
   26MOL0     C 3389   9.189  10.443  10.447  0.2965  0.4531 -0.3113
   26MOL0     C 3390   9.087  10.529  10.523 -0.4042  0.2445  0.1495
   26MOL0     C 3391   9.089  10.678  10.477 -0.3915  0.7450 -0.0813
   26MOL0     N 3392   9.014  10.709  10.353  0.1386  0.1236 -0.2389
   26MOL0     C 3393   8.936  10.825  10.346  0.1080  0.3903  0.1654
   26MOL0     C 3394   8.885  10.835  10.221 -0.0385 -0.1723 -0.5263
   26MOL0     C 3395   8.817  10.951  10.162  0.4489  0.2318  0.5823
   26MOL0     C 3396   8.669  10.973  10.201 -0.0944  0.2019 -0.1093
   26MOL0     C 3397   8.590  10.879  10.113  0.1194  0.1175  0.2344
   26MOL0     C 3398   8.443  10.876  10.125  1.0413  0.4772  0.0388
   26MOL0     O 3399   8.395  10.996  10.060  0.5833  0.1191  0.5528
   26MOL0     C 3400   8.263  11.024  10.083  0.0587  0.0923  0.2557
   26MOL0     C 3401   8.211  11.131   9.997  0.2491 -0.0543 -0.4907
   26MOL0     C 3402   8.073  11.170  10.012  0.4878 -0.2939  0.4153
   26MOL0     C 3403   8.010  11.259   9.896 -0.0067  0.0381  0.3626
   26MOL0     C 3404   7.999  11.123  10.120  0.3693 -0.0443  0.3756
   26MOL0     C 3405   7.864  11.166  10.151 -0.0923  0.2189 -0.4670
   26MOL0     O 3406   7.812  11.124  10.274 -0.2192  0.2176  0.3178
   26MOL0     C 3407   7.716  11.194  10.331 -0.2197 -0.6734 -0.0746
   26MOL0     C 3408   7.702  11.333  10.349 -0.4108 -0.2761  0.1563
   26MOL0     C 3409   7.620  11.389  10.439  1.4673  0.7502 -0.3791
   26MOL0     C 3410   7.519  11.307  10.505 -0.0249  1.0302 -0.2531
   26MOL0     O 3411   7.423  11.356  10.584  0.2508  0.3508 -0.5959
   26MOL0     C 3412   7.365  11.478  10.573 -0.7755 -0.3413  0.0386
   26MOL0     C 3413   7.230  11.474  10.639  0.7019 -0.4012 -1.3484
   26MOL0     C 3414   7.191  11.616  10.680 -0.1445 -1.3187 -0.7737
   26MOL0     C 3415   7.094  11.604  10.799 -0.7737  0.3554  0.5478
   26MOL0     C 3416   6.993  11.712  10.791 -0.7975 -0.2605 -0.3106
   26MOL0     C 3417   6.927  11.739  10.924  0.0830  0.3839 -0.0367
   26MOL0     C 3418   7.004  11.850  11.008 -0.7556  0.4485  1.3540
   26MOL0     C 3419   6.902  11.889  11.108 -0.5451 -0.1228 -0.0999
   26MOL0    Cl 3420   6.959  12.041  11.187  0.0170  0.0100 -0.4041
   26MOL0     C 3421   7.522  11.168  10.481  0.2344  0.4507  0.0062
   26MOL0     C 3422   7.621  11.113  10.395  0.4578  0.3014  0.0400
   26MOL0     O 3423   7.809  11.246  10.084  0.0601  0.2703  0.3708
   26MOL0     C 3424   8.054  11.024  10.202  0.0864 -0.3958  0.2969
   26MOL0     C 3425   8.172  10.970  10.174  0.4362  0.3405 -0.4190
   26MOL0     N 3426   8.932  10.718  10.160  0.4825 -0.1501 -0.0149
   26MOL0     N 3427   8.987  10.641  10.244 -0.1869  0.5045 -0.1476
   26MOL0     C 3428   9.762  10.320  10.925  0.4430  0.0376  0.9256
   26MOL0     C 3429   9.790  10.384  11.044 -0.6959 -0.7475 -1.0539
   26MOL0     C 3430   9.890  10.373  11.505  0.0735 -0.2467 -0.4127
   26MOL0     C 3431   9.867  10.509  11.541  0.7075 -0.3478  0.6339
   26MOL0     C 3432   9.886  10.550  11.671  0.6039  0.0849  1.2605
   26MOL0     C 3433   9.939  10.458  11.766 -0.9605  0.5234  0.2865
   26MOL0     O 3434   9.963  10.500  11.891 -1.1221 -0.0919  0.2844
   26MOL0     C 3435   9.870  10.428  11.968 -0.7428 -0.4770 -0.6552
   26MOL0     C 3436   9.861  10.496  12.104 -0.2155  0.1019  1.2511
   26MOL0     C 3437   9.800  10.411  12.211  0.2852 -0.4632 -0.6957
   26MOL0     C 3438   9.824  10.481  12.345 -0.2849 -0.5718 -0.0731
   26MOL0     C 3439   9.748  10.394  12.433 -0.4181  0.0169 -0.0419
   26MOL0     C 3440   9.683  10.325  12.507 -0.8704  0.0097  0.0594
   26MOL0     C 3441   9.962  10.329  11.729  0.0059  0.6073  0.7282
   26MOL0     C 3442   9.939  10.283  11.602  0.2928 -0.3074 -0.2184
   26MOL0     H 3443   9.576  10.214  11.256 -1.0568  4.4589 -0.0814
   26MOL0     H 3444   9.551  10.082  11.026  0.7087 -1.2240  1.5366
   26MOL0     H 3445   9.647  10.340  10.696  0.7386  0.1319  0.6292
   26MOL0     H 3446   9.741  10.209  10.632 -0.3318  1.3336 -0.4027
   26MOL0     H 3447   9.563  10.221  10.464 -1.8540 -0.1576 -0.2976
   26MOL0     H 3448   9.522  10.086  10.561 -1.7159  0.0223 -0.3539
   26MOL0     H 3449   9.363  10.248  10.705  0.5797 -1.4495  0.0798
   26MOL0     H 3450   9.422  10.374  10.594 -2.0351  1.4819  3.0248
   26MOL0     H 3451   9.346  10.220  10.395  0.0812 -2.8574 -0.0010
   26MOL0     H 3452   9.276  10.116  10.514  1.9725 -1.8051 -0.0268
   26MOL0     H 3453   9.118  10.245  10.404  1.1696 -0.4184 -0.1072
   26MOL0     H 3454   9.121  10.290  10.584  1.5691 -0.7503  0.6672
   26MOL0     H 3455   9.289  10.481  10.468  0.4075  0.7931 -1.3911
   26MOL0     H 3456   9.168  10.452  10.340 -2.0793  0.7189  0.1071
   26MOL0     H 3457   8.986  10.487  10.518 -0.1734 -0.2041 -1.2372
   26MOL0     H 3458   9.123  10.515  10.625  1.0135  0.6455 -0.2683
   26MOL0     H 3459   9.193  10.711  10.467 -0.3498  1.2865  1.7818
   26MOL0     H 3460   9.050  10.733  10.563 -0.4517 -2.4605  2.1073
   26MOL0     H 3461   8.935  10.885  10.436 -0.6578 -2.2230  2.0243
   26MOL0     H 3462   8.876  11.038  10.191 -1.9251  2.3648 -0.5653
   26MOL0     H 3463   8.821  10.950  10.052  2.1753  2.1268  0.5784
   26MOL0     H 3464   8.645  11.077  10.178  1.5287  1.7510  4.1931
   26MOL0     H 3465   8.658  10.966  10.309 -0.8457 -1.0036 -0.2437
   26MOL0     H 3466   8.618  10.775  10.135  2.0714 -0.1301 -2.7982
   26MOL0     H 3467   8.611  10.898  10.007 -3.6773  1.6334 -0.3980
   26MOL0     H 3468   8.411  10.876  10.230 -1.2300 -0.0529 -0.5826
   26MOL0     H 3469   8.415  10.784  10.072  2.2342 -1.9429  3.2957
   26MOL0     H 3470   8.271  11.181   9.923  0.2467 -0.0397 -0.4821
   26MOL0     H 3471   7.967  11.355   9.925 -2.6333 -1.5273  2.1237
   26MOL0     H 3472   8.088  11.290   9.826 -0.1229 -2.1377 -0.8085
   26MOL0     H 3473   7.927  11.195   9.865  2.8618 -3.3773 -0.9011
   26MOL0     H 3474   7.782  11.387  10.300  0.4781  0.3201  2.1427
   26MOL0     H 3475   7.619  11.496  10.456  4.4594  1.2077 -2.2577
   26MOL0     H 3476   7.434  11.557  10.603 -1.8677  1.3787 -1.7509
   26MOL0     H 3477   7.352  11.495  10.466  0.8312 -0.9605 -0.2967
   26MOL0     H 3478   7.152  11.435  10.572  0.5003 -1.2619 -0.6386
   26MOL0     H 3479   7.231  11.413  10.730  0.8561 -1.7824 -2.2469
   26MOL0     H 3480   7.161  11.682  10.598 -1.0181  1.1398  1.3788
   26MOL0     H 3481   7.275  11.672  10.722 -1.0947 -0.0378 -0.5020
   26MOL0     H 3482   7.040  11.509  10.790  1.8063 -1.3414  1.7513
   26MOL0     H 3483   7.155  11.599  10.889  0.8740 -3.2508 -0.5669
   26MOL0     H 3484   6.921  11.687  10.712  1.2597 -3.3001 -1.4147
   26MOL0     H 3485   7.038  11.804  10.754 -0.4875 -0.4969 -0.5299
   26MOL0     H 3486   6.821  11.764  10.911  0.3162  0.7925 -1.2883
   26MOL0     H 3487   6.934  11.639  10.967 -0.6270  0.0768 -0.6277
   26MOL0     H 3488   7.025  11.935  10.942 -0.7844 -1.3469 -1.1418
   26MOL0     H 3489   7.101  11.818  11.046  0.9623  3.9357  0.3489
   26MOL0     H 3490   6.895  11.812  11.185 -1.5484  0.4167  0.3698
   26MOL0     H 3491   6.802  11.904  11.067  0.2484 -1.0912 -2.5150
   26MOL0     H 3492   7.450  11.105  10.532  1.1773 -0.0897  0.7059
   26MOL0     H 3493   7.620  11.007  10.373 -0.6194  0.3954 -0.4170
   26MOL0     H 3494   8.004  10.977  10.286 -0.5293 -0.6454 -0.2012
   26MOL0     H 3495   8.207  10.889  10.237  0.2899  0.4947 -0.1367
   26MOL0     H 3496   9.805  10.356  10.832 -1.8794 -0.3167 -0.3472
   26MOL0     H 3497   9.854  10.471  11.054 -2.0930  0.2079 -0.0992
   26MOL0     H 3498   9.837  10.585  11.470 -1.2270 -0.0159  1.7317
   26MOL0     H 3499   9.858  10.648  11.706  1.1578  1.7899 -2.5831
   26MOL0     H 3500   9.772  10.435  11.920 -1.7680 -2.6333  0.9713
   26MOL0     H 3501   9.901  10.324  11.979 -3.4019 -1.5480 -2.2431
   26MOL0     H 3502   9.805  10.590  12.097 -0.3530 -0.0112  0.7965
   26MOL0     H 3503   9.958  10.535  12.135  1.0452  1.5437 -3.5972
   26MOL0     H 3504   9.845  10.312  12.222  0.5214 -0.2210  0.6839
   26MOL0     H 3505   9.692  10.403  12.196  0.2959  0.2832 -1.2315
   26MOL0     H 3506   9.778  10.580  12.350  1.7680  0.3662  2.1039
   26MOL0     H 3507   9.929  10.489  12.376 -0.1197  0.7411 -0.8871
   26MOL0     H 3508   9.629  10.251  12.563  0.1208 -0.3401  0.5762
   26MOL0     H 3509  10.001  10.253  11.797  1.9474 -0.1151 -1.0572
   26MOL0     H 3510   9.945  10.177  11.579  0.1603 -1.0556  2.8415
   27MOL0     O 3511   0.113  11.181   6.270  0.2097 -0.1429  0.5608
   27MOL0     C 3512   0.131  11.271   6.194  0.1867  0.1850  0.4981
   27MOL0     O 3513   0.048  11.308   6.087  0.0691 -0.3373  0.0529
   27MOL0     C 3514  -0.064  11.235   6.059  0.1769  0.9524  0.4642
   27MOL0     C 3515  -0.052  11.118   5.991  0.0828 -0.6304 -0.1249
   27MOL0     C 3516  -0.161  11.062   5.940  0.6341  0.5143 -0.9860
   27MOL0     C 3517  -0.289  11.119   5.959  0.4488  0.3879  0.4337
   27MOL0     O 3518  -0.403  11.088   5.893 -0.4325 -0.1341 -0.0632
   27MOL0     C 3519  -0.406  10.977   5.795 -0.0220  0.6763 -0.3565
   27MOL0     C 3520  -0.558  10.966   5.766 -1.1939 -0.0885 -0.3649
   27MOL0     C 3521  -0.586  10.827   5.720  0.3791 -0.1095  0.6532
   27MOL0     C 3522  -0.676  10.847   5.598 -0.0204 -0.4826  0.2893
   27MOL0     C 3523  -0.752  10.720   5.569 -1.0117  0.3953  0.0908
   27MOL0     C 3524  -0.868  10.741   5.467 -0.7610  0.6023 -0.3287
   27MOL0     C 3525  -0.941  10.605   5.453 -0.2608 -0.2938 -0.7104
   27MOL0     C 3526  -1.055  10.608   5.549  0.3182 -0.3438  0.1675
   27MOL0     N 3527  -1.173  10.680   5.492 -0.6034  0.4683 -0.1602
   27MOL0     C 3528  -1.257  10.610   5.403 -0.4839  0.2998  0.1382
   27MOL0     C 3529  -1.351  10.707   5.374  0.3071  0.3636 -0.2043
   27MOL0     C 3530  -1.467  10.698   5.282  0.1100  0.0502  0.2620
   27MOL0     C 3531  -1.429  10.676   5.137 -0.1527  0.0699 -0.1678
   27MOL0     C 3532  -1.380  10.800   5.062  0.4245 -0.4279  0.5749
   27MOL0     C 3533  -1.253  10.868   5.112 -0.8003  0.2106  0.1791
   27MOL0     O 3534  -1.140  10.780   5.100 -0.2701 -1.1167  0.4976
   27MOL0     C 3535  -1.007  10.829   5.089  0.0664 -0.4046 -0.8056
   27MOL0     C 3536  -0.967  10.967   5.114 -0.0718  0.2173  0.4992
   27MOL0     C 3537  -0.839  11.009   5.068  0.2840 -0.0139  0.0784
   27MOL0     C 3538  -0.804  11.148   5.064 -0.4277 -1.0745  0.5161
   27MOL0     C 3539  -0.742  10.912   5.028  0.0578 -0.1610  0.6079
   27MOL0     C 3540  -0.598  10.935   4.997 -0.5112  0.4724  0.0495
   27MOL0     O 3541  -0.515  10.833   5.023 -0.4397 -0.0212  0.0666
   27MOL0     C 3542  -0.382  10.846   4.996 -0.9047  0.3901 -0.2550
   27MOL0     C 3543  -0.322  10.738   4.947 -1.0840  0.8152  0.6461
   27MOL0     C 3544  -0.182  10.737   4.919 -0.1764  0.8359  1.0862
   27MOL0     C 3545  -0.095  10.847   4.933  0.6355  0.0222 -0.4836
   27MOL0     O 3546   0.037  10.833   4.915  0.0451 -0.2661 -0.0323
   27MOL0     C 3547   0.128  10.921   4.974  0.3448  0.1988 -0.4742
   27MOL0     C 3548   0.257  10.846   4.967  0.5891 -0.3050  0.2506
   27MOL0     C 3549   0.364  10.935   5.030 -0.3208  0.5864  0.7531
   27MOL0     C 3550   0.353  10.964   5.183  0.5051  0.0804  0.0719
   27MOL0     C 3551   0.481  10.986   5.252 -0.6287 -0.4423 -0.3954
   27MOL0     C 3552   0.579  10.865   5.246 -0.4595  0.1606 -0.1849
   27MOL0     C 3553   0.681  10.878   5.350 -0.1771  0.6486  0.2966
   27MOL0     C 3554   0.790  10.767   5.335 -0.3597 -0.4204 -0.1908
   27MOL0    Cl 3555   0.932  10.792   5.445 -0.2785  0.1707 -0.4512
   27MOL0     C 3556  -0.162  10.962   4.983  0.3480  0.6286  0.0568
   27MOL0     C 3557  -0.301  10.956   5.013 -0.0193  0.3887  0.1176
   27MOL0     O 3558  -0.561  11.049   4.956  0.2760  0.3314  0.4499
   27MOL0     C 3559  -0.788  10.778   5.019  0.2345 -0.2369  0.4662
   27MOL0     C 3560  -0.922  10.738   5.048 -0.3034  0.1381 -0.0656
   27MOL0     N 3561  -1.322  10.833   5.444  0.9614  0.5338  0.6150
   27MOL0     N 3562  -1.214  10.808   5.508 -0.2466 -0.0720  0.0253
   27MOL0     C 3563  -0.303  11.240   6.022  1.3120 -0.0622 -0.4390
   27MOL0     C 3564  -0.188  11.297   6.077  0.5451 -0.3371 -0.0364
   27MOL0     C 3565   0.264  11.343   6.218  0.3392  0.4749  0.8092
   27MOL0     C 3566   0.319  11.336   6.350 -0.0037  1.2774  0.4191
   27MOL0     C 3567   0.426  11.414   6.391 -0.1759 -0.0528  0.3657
   27MOL0     C 3568   0.482  11.497   6.302 -0.3131 -0.0955  0.7312
   27MOL0     O 3569   0.591  11.565   6.341 -0.4668  0.6102  0.1897
   27MOL0     C 3570   0.605  11.701   6.303  0.4546  0.6423 -1.0099
   27MOL0     C 3571   0.754  11.726   6.299  0.3519  0.9509  1.0148
   27MOL0     C 3572   0.855  11.649   6.389  0.3741  0.9321 -0.3120
   27MOL0     C 3573   0.999  11.679   6.349  0.7114 -0.9146  0.3138
   27MOL0     C 3574   1.091  11.597   6.415  0.6481  0.5736  0.7529
   27MOL0     C 3575   1.163  11.517   6.475 -0.3129 -0.3381  0.5245
   27MOL0     C 3576   0.428  11.501   6.170  1.0830 -0.1042 -0.1492
   27MOL0     C 3577   0.309  11.437   6.129 -0.3568 -0.7494  0.1773
   27MOL0     H 3578   0.046  11.071   5.987  0.9091  0.9711  0.5657
   27MOL0     H 3579  -0.137  10.971   5.887  0.0163 -1.2279  1.4992
   27MOL0     H 3580  -0.346  10.999   5.706  1.6716 -0.6926  0.3951
   27MOL0     H 3581  -0.368  10.886   5.842 -0.0319  0.3394 -0.9984
   27MOL0     H 3582  -0.628  10.985   5.849 -3.1950  0.3337 -2.0743
   27MOL0     H 3583  -0.585  11.036   5.686 -2.4024 -2.7566 -2.4588
   27MOL0     H 3584  -0.498  10.763   5.708  0.6848  0.1955  1.2086
   27MOL0     H 3585  -0.644  10.775   5.798 -0.9540  0.4024  0.0311
   27MOL0     H 3586  -0.755  10.923   5.606  0.2970  0.3538 -3.0318
   27MOL0     H 3587  -0.612  10.870   5.513  1.4941  0.1019  1.5381
   27MOL0     H 3588  -0.687  10.638   5.539  1.1925  0.5292  3.8865
   27MOL0     H 3589  -0.787  10.687   5.667  1.9747  2.1006  1.8715
   27MOL0     H 3590  -0.940  10.812   5.508 -1.1620 -0.1918  0.3969
   27MOL0     H 3591  -0.830  10.774   5.370  2.5850  1.7130  1.2186
   27MOL0     H 3592  -0.979  10.586   5.352 -2.8668 -1.2562  0.3653
   27MOL0     H 3593  -0.869  10.528   5.485 -0.2920 -0.1126 -0.1911
   27MOL0     H 3594  -1.036  10.655   5.647  0.0739 -0.3492  0.2192
   27MOL0     H 3595  -1.082  10.503   5.563 -0.1106 -0.8573 -3.5347
   27MOL0     H 3596  -1.271  10.505   5.381 -2.8273 -0.2968  3.6538
   27MOL0     H 3597  -1.540  10.621   5.309 -1.2141  1.2493  0.2172
   27MOL0     H 3598  -1.528  10.787   5.298 -1.4072 -1.1438  1.4987
   27MOL0     H 3599  -1.515  10.626   5.091  0.3305 -0.9768  0.0553
   27MOL0     H 3600  -1.352  10.599   5.142 -1.7462 -1.7735 -1.8887
   27MOL0     H 3601  -1.468  10.863   5.049 -0.1849 -1.6367 -1.7067
   27MOL0     H 3602  -1.350  10.778   4.959  3.4935 -0.8014  1.4525
   27MOL0     H 3603  -1.266  10.906   5.214 -2.3505  0.2093  0.0104
   27MOL0     H 3604  -1.236  10.952   5.044 -0.1123  0.7417  0.9946
   27MOL0     H 3605  -1.032  11.049   5.141  0.5157  1.9747 -2.7607
   27MOL0     H 3606  -0.725  11.161   5.138 -1.1819  0.7068  1.0741
   27MOL0     H 3607  -0.781  11.193   4.967 -2.3220 -1.4519 -0.1543
   27MOL0     H 3608  -0.888  11.208   5.101 -1.3860 -2.7100  1.1144
   27MOL0     H 3609  -0.387  10.653   4.931 -0.1254  0.2245 -0.2113
   27MOL0     H 3610  -0.135  10.650   4.876  0.7967  1.9624 -0.2416
   27MOL0     H 3611   0.138  11.008   4.909  1.8487 -1.5035 -2.6652
   27MOL0     H 3612   0.096  10.955   5.072 -2.3157 -1.9334 -0.4603
   27MOL0     H 3613   0.237  10.753   5.022 -2.3714 -0.3690 -0.7348
   27MOL0     H 3614   0.271  10.814   4.863 -3.7584  2.0306 -1.3185
   27MOL0     H 3615   0.387  11.027   4.975  2.6082  0.1915  1.1686
   27MOL0     H 3616   0.457  10.881   5.012  0.0275  1.3531  0.1602
   27MOL0     H 3617   0.288  11.051   5.195 -1.9268 -2.0078  3.4925
   27MOL0     H 3618   0.318  10.871   5.229  3.4827 -1.2789 -0.1775
   27MOL0     H 3619   0.459  11.003   5.358 -3.3195 -0.5701 -0.8686
   27MOL0     H 3620   0.532  11.074   5.211 -2.2852  1.5047  1.4782
   27MOL0     H 3621   0.519  10.776   5.263  2.3841 -1.6434  1.2312
   27MOL0     H 3622   0.616  10.858   5.144 -1.4416 -0.7482 -0.4935
   27MOL0     H 3623   0.637  10.885   5.450  4.1205  2.1045  2.3341
   27MOL0     H 3624   0.737  10.972   5.339 -0.6069  0.7083 -2.0234
   27MOL0     H 3625   0.834  10.786   5.237  1.2920 -1.0757  0.3734
   27MOL0     H 3626   0.742  10.669   5.347 -2.2843  0.1970 -2.2442
   27MOL0     H 3627  -0.109  11.050   5.018  0.5713  1.0623 -1.3462
   27MOL0     H 3628  -0.330  11.048   5.064  0.1004  0.4380  0.0940
   27MOL0     H 3629  -0.715  10.704   4.988 -0.9446 -0.9787 -0.6610
   27MOL0     H 3630  -0.952  10.636   5.029 -1.8333  0.6041 -0.3427
   27MOL0     H 3631  -0.407  11.269   6.031  0.5438 -1.8581 -2.6453
   27MOL0     H 3632  -0.189  11.400   6.111 -0.2013 -1.2599  3.0295
   27MOL0     H 3633   0.270  11.274   6.424  2.2156 -0.9479  0.1709
   27MOL0     H 3634   0.472  11.403   6.489  1.8460 -0.7097 -0.6119
   27MOL0     H 3635   0.558  11.722   6.206 -0.7073  1.7222 -0.2401
   27MOL0     H 3636   0.552  11.771   6.368 -2.9270 -1.3492 -1.3951
   27MOL0     H 3637   0.763  11.833   6.322  0.2754  1.1622  0.0825
   27MOL0     H 3638   0.779  11.702   6.196 -3.2565 -0.7265  0.3940
   27MOL0     H 3639   0.839  11.541   6.394  0.1616  1.0049  1.7601
   27MOL0     H 3640   0.838  11.675   6.494  0.7409  2.6785 -0.6596
   27MOL0     H 3641   1.018  11.779   6.389 -3.0060 -0.1775  0.6072
   27MOL0     H 3642   1.025  11.674   6.242  4.0388 -0.7794  1.0167
   27MOL0     H 3643   1.201  11.447   6.547 -2.5177  0.0992  2.2329
   27MOL0     H 3644   0.478  11.562   6.096  2.4356 -0.7700  0.1742
   27MOL0     H 3645   0.262  11.459   6.034  0.8983 -1.9850 -0.7684
   28MOL0     O 3646   1.313   8.635   9.058 -0.1807 -0.5379  0.2525
   28MOL0     C 3647   1.196   8.616   9.096  0.0887 -0.8273  0.5417
   28MOL0     O 3648   1.160   8.535   9.199 -0.8309  0.5145  0.3128
   28MOL0     C 3649   1.270   8.466   9.257  0.9691  1.5169 -0.0473
   28MOL0     C 3650   1.235   8.339   9.306 -1.0539 -0.5901  0.3735
   28MOL0     C 3651   1.335   8.254   9.367  0.7538 -1.0449  0.6731
   28MOL0     C 3652   1.457   8.306   9.401  0.3468 -0.6694  0.1080
   28MOL0     O 3653   1.543   8.228   9.473  0.1114 -0.5231  0.0913
   28MOL0     C 3654   1.658   8.275   9.547  0.4691 -0.1306 -0.0080
   28MOL0     C 3655   1.786   8.275   9.456  0.5474  0.2854  0.0400
   28MOL0     C 3656   1.911   8.282   9.550 -0.1768  0.5553  0.6660
   28MOL0     C 3657   2.040   8.247   9.483 -0.2302 -0.1060  0.6931
   28MOL0     C 3658   2.154   8.245   9.588 -0.7881  0.9069 -0.6721
   28MOL0     C 3659   2.165   8.377   9.663 -0.3639 -0.9101  0.5367
   28MOL0     C 3660   2.263   8.388   9.778 -0.6097 -0.9188 -0.9771
   28MOL0     C 3661   2.233   8.298   9.901  0.9580 -0.2341 -0.7280
   28MOL0     N 3662   2.112   8.354   9.960  0.5373  0.5420  0.1845
   28MOL0     C 3663   1.984   8.294   9.957 -0.5732  0.1299 -0.9541
   28MOL0     C 3664   1.907   8.362  10.046 -0.1263  0.6884  0.5840
   28MOL0     C 3665   1.764   8.337  10.087 -0.0717  0.0243  1.4467
   28MOL0     C 3666   1.676   8.322   9.958 -0.1452 -0.3530 -0.4443
   28MOL0     C 3667   1.531   8.373   9.985 -0.0490  0.6842 -0.2760
   28MOL0     C 3668   1.436   8.364   9.871 -1.2172  0.7481 -0.8373
   28MOL0     O 3669   1.321   8.426   9.918 -0.3912 -0.5108 -0.6024
   28MOL0     C 3670   1.215   8.447   9.833 -0.5843  0.0615  0.1609
   28MOL0     C 3671   1.086   8.428   9.875 -0.7621 -0.6130 -0.8872
   28MOL0     C 3672   0.972   8.433   9.794  0.3410 -0.3933  0.3568
   28MOL0     C 3673   0.830   8.408   9.850 -0.7690 -0.6339 -0.2675
   28MOL0     C 3674   0.993   8.449   9.649 -0.5101 -1.3727 -0.3682
   28MOL0     C 3675   0.875   8.460   9.556  0.2028  0.7775 -0.1894
   28MOL0     O 3676   0.905   8.493   9.428  0.0642 -0.3533 -0.0187
   28MOL0     C 3677   0.804   8.515   9.333 -0.1800  0.7616 -0.0604
   28MOL0     C 3678   0.711   8.611   9.351 -0.4229  0.0632 -0.4273
   28MOL0     C 3679   0.605   8.609   9.259  0.8725  0.2484 -0.0659
   28MOL0     C 3680   0.586   8.520   9.146  0.0077 -0.2334 -0.3632
   28MOL0     O 3681   0.475   8.551   9.073  0.1500  0.1116 -0.3804
   28MOL0     C 3682   0.439   8.437   8.995 -0.3024 -1.3243  0.8497
   28MOL0     C 3683   0.298   8.470   8.961  0.2169  0.4450 -0.4086
   28MOL0     C 3684   0.260   8.535   8.828  0.5037  0.2536  0.3777
   28MOL0     C 3685   0.326   8.479   8.701  0.9005 -0.9428 -0.3319
   28MOL0     C 3686   0.297   8.338   8.680 -0.3977  0.6347  0.2064
   28MOL0     C 3687   0.347   8.309   8.537 -0.0903  0.3682 -0.7265
   28MOL0     C 3688   0.261   8.368   8.426 -0.1182 -0.2859 -0.7561
   28MOL0     C 3689   0.280   8.287   8.301 -0.0494  0.0330 -0.2195
   28MOL0    Cl 3690   0.463   8.238   8.277  0.1607  0.1997  0.5012
   28MOL0     C 3691   0.687   8.421   9.130  0.2379  1.1585  0.4425
   28MOL0     C 3692   0.792   8.419   9.225  0.4755  0.6550 -0.0617
   28MOL0     O 3693   0.762   8.416   9.590  0.1244  0.4015 -0.2279
   28MOL0     C 3694   1.125   8.479   9.612  0.4634 -0.0757  1.0086
   28MOL0     C 3695   1.232   8.474   9.699  0.1674  0.1361 -0.0231
   28MOL0     N 3696   1.984   8.475  10.082  0.2847  0.4068 -0.4347
   28MOL0     N 3697   2.100   8.469  10.034 -0.7958 -0.0030 -0.3652
   28MOL0     C 3698   1.485   8.437   9.365  0.2639  0.2935 -0.4908
   28MOL0     C 3699   1.395   8.514   9.292 -0.4741 -0.3210  0.3485
   28MOL0     C 3700   1.096   8.687   9.017 -0.6223 -0.0727  0.1592
   28MOL0     C 3701   0.953   8.664   9.018  0.0309 -0.5412 -0.5088
   28MOL0     C 3702   0.859   8.746   8.951  0.3092 -0.1013 -0.4549
   28MOL0     C 3703   0.886   8.866   8.890 -0.8076 -0.2093 -0.5801
   28MOL0     O 3704   0.781   8.951   8.882  0.2299 -0.4046 -0.3868
   28MOL0     C 3705   0.802   9.089   8.834 -0.4962  0.9908  0.5317
   28MOL0     C 3706   0.658   9.157   8.826 -0.9790  0.1313  0.7359
   28MOL0     C 3707   0.577   9.167   8.955  0.2317  0.6263 -0.2161
   28MOL0     C 3708   0.617   9.285   9.048 -0.3117 -0.3067 -0.4500
   28MOL0     C 3709   0.761   9.298   9.079  0.1045  0.2266 -0.1947
   28MOL0     C 3710   0.877   9.307   9.098 -1.2052 -0.3584  0.8031
   28MOL0     C 3711   1.028   8.887   8.896 -0.0554 -1.3086 -0.0209
   28MOL0     C 3712   1.130   8.805   8.946 -0.4530 -0.6568 -0.2058
   28MOL0     H 3713   1.132   8.309   9.290 -1.0732 -0.3573  0.0571
   28MOL0     H 3714   1.304   8.150   9.376  0.7371 -1.0029  1.1021
   28MOL0     H 3715   1.640   8.376   9.585  4.2570  0.5313  0.4737
   28MOL0     H 3716   1.675   8.214   9.636  1.7898 -1.2729 -1.0020
   28MOL0     H 3717   1.788   8.182   9.399  2.7508  0.0590  0.4278
   28MOL0     H 3718   1.788   8.356   9.382 -0.8294  3.2435  2.9383
   28MOL0     H 3719   1.918   8.381   9.595  2.3614  0.7358  0.0674
   28MOL0     H 3720   1.905   8.202   9.624 -1.0638  1.3059  1.4191
   28MOL0     H 3721   2.022   8.157   9.423  1.0827  1.6234 -2.5692
   28MOL0     H 3722   2.053   8.326   9.409 -1.5106 -0.3836  0.1464
   28MOL0     H 3723   2.132   8.179   9.673 -0.1697  2.6298  0.8859
   28MOL0     H 3724   2.251   8.220   9.543 -1.8064  2.0309 -3.7071
   28MOL0     H 3725   2.199   8.458   9.598  0.8764  0.4067  2.7090
   28MOL0     H 3726   2.071   8.413   9.706  1.2626  3.6825  0.8884
   28MOL0     H 3727   2.359   8.356   9.736  0.5815 -0.5147  1.2956
   28MOL0     H 3728   2.281   8.487   9.822  0.3329 -1.9188  1.0169
   28MOL0     H 3729   2.311   8.314   9.976 -0.7011  2.5591  0.5613
   28MOL0     H 3730   2.221   8.193   9.874 -3.2459 -0.1626  0.2752
   28MOL0     H 3731   1.945   8.198   9.923 -0.7622 -1.2839  2.7666
   28MOL0     H 3732   1.769   8.251  10.154  1.4482 -0.5005  0.7012
   28MOL0     H 3733   1.739   8.428  10.142  1.9282  1.2541  0.4568
   28MOL0     H 3734   1.686   8.216   9.932  1.1599 -0.1065 -1.0770
   28MOL0     H 3735   1.721   8.379   9.876  2.3145 -1.4450  0.0557
   28MOL0     H 3736   1.534   8.479  10.014 -0.1690  0.4635  0.5587
   28MOL0     H 3737   1.483   8.307  10.058  1.1124 -2.4743 -2.1798
   28MOL0     H 3738   1.422   8.259   9.843 -0.1490  0.0437  1.1174
   28MOL0     H 3739   1.492   8.415   9.791  3.3825 -1.6732  0.4703
   28MOL0     H 3740   1.090   8.438   9.983 -0.0520  1.4563 -1.0432
   28MOL0     H 3741   0.846   8.391   9.957  3.0574  0.3101 -0.5513
   28MOL0     H 3742   0.747   8.479   9.836 -0.8948 -0.2939  1.8804
   28MOL0     H 3743   0.796   8.307   9.824  0.2754 -0.7745 -1.1693
   28MOL0     H 3744   0.731   8.694   9.418 -1.6692  0.4142 -0.4658
   28MOL0     H 3745   0.527   8.679   9.288  2.2874  0.4661  3.7685
   28MOL0     H 3746   0.501   8.423   8.905 -4.0338  0.8652 -2.3810
   28MOL0     H 3747   0.435   8.352   9.063 -2.3587 -0.4544  1.8984
   28MOL0     H 3748   0.243   8.375   8.965  1.4357 -0.4299 -2.6590
   28MOL0     H 3749   0.250   8.529   9.039 -3.7390 -0.7904 -1.6209
   28MOL0     H 3750   0.305   8.634   8.837 -0.6776  0.7019  1.5553
   28MOL0     H 3751   0.152   8.549   8.818  0.0180 -1.3409  2.5832
   28MOL0     H 3752   0.286   8.545   8.623  1.2016 -0.3286  0.0214
   28MOL0     H 3753   0.434   8.478   8.719  0.8396 -0.1974  0.1276
   28MOL0     H 3754   0.191   8.314   8.693 -1.0486  4.4006  4.4508
   28MOL0     H 3755   0.354   8.288   8.758  1.3712  0.0981 -1.3542
   28MOL0     H 3756   0.449   8.345   8.518  0.3943  0.1226  1.1834
   28MOL0     H 3757   0.337   8.201   8.522  0.9480  0.4356 -2.1482
   28MOL0     H 3758   0.298   8.469   8.407 -4.2041  0.9576 -3.1592
   28MOL0     H 3759   0.156   8.372   8.454  0.1124  2.4621 -0.0436
   28MOL0     H 3760   0.246   8.335   8.209  0.0178 -1.3036 -0.9700
   28MOL0     H 3761   0.228   8.192   8.316 -0.4473  0.6085  2.6962
   28MOL0     H 3762   0.690   8.345   9.052 -0.6189 -0.0243  1.5247
   28MOL0     H 3763   0.866   8.340   9.219 -0.1727  0.0614 -0.4109
   28MOL0     H 3764   1.135   8.519   9.511  0.5828  3.7831  2.4000
   28MOL0     H 3765   1.331   8.497   9.662 -0.1395  1.2642 -0.1886
   28MOL0     H 3766   1.584   8.469   9.394  0.5332 -1.1481  0.2550
   28MOL0     H 3767   1.433   8.608   9.252  0.7363 -0.7725  0.3807
   28MOL0     H 3768   0.921   8.578   9.076  0.4359 -0.5604 -0.3125
   28MOL0     H 3769   0.754   8.727   8.972  0.4836 -0.9371 -0.2990
   28MOL0     H 3770   0.879   9.143   8.890  0.6624  0.6970 -0.7230
   28MOL0     H 3771   0.840   9.076   8.733  1.4763 -1.7888  1.5093
   28MOL0     H 3772   0.602   9.103   8.749 -1.6638 -0.8835  1.8992
   28MOL0     H 3773   0.670   9.259   8.790  0.6917 -0.9130 -1.9450
   28MOL0     H 3774   0.590   9.074   9.011 -2.8908  0.4315  0.3896
   28MOL0     H 3775   0.473   9.173   8.922  0.2477  0.6459 -0.2627
   28MOL0     H 3776   0.572   9.285   9.147  1.1727  3.1007  0.3566
   28MOL0     H 3777   0.579   9.381   9.012 -0.3066  0.8920  2.5140
   28MOL0     H 3778   0.981   9.314   9.124 -0.9727  1.8369 -0.4763
   28MOL0     H 3779   1.073   8.984   8.877  3.4229 -2.6419  0.6559
   28MOL0     H 3780   1.230   8.844   8.932 -1.2484  1.8566  0.5532
   29MOL0     O 3781   9.973   4.035   8.055  0.2743 -0.5541  0.1081
   29MOL0     C 3782   9.917   4.077   7.953 -0.2413  0.3936  0.2581
   29MOL0     O 3783   9.787   4.052   7.917 -0.2408  0.8108  0.3158
   29MOL0     C 3784   9.693   3.972   7.976 -0.3925  1.1110  0.0349
   29MOL0     C 3785   9.573   3.987   7.919 -0.0701  0.1283 -0.4627
   29MOL0     C 3786   9.458   3.918   7.963  0.1819 -0.3412  0.4976
   29MOL0     C 3787   9.460   3.841   8.083 -0.9897 -0.0082 -0.5695
   29MOL0     O 3788   9.347   3.778   8.137  0.5735 -1.0343 -0.0701
   29MOL0     C 3789   9.219   3.794   8.069  0.3128  0.5575 -0.2140
   29MOL0     C 3790   9.104   3.767   8.167 -0.2583 -0.4407  0.4561
   29MOL0     C 3791   8.973   3.766   8.080  0.3081 -0.0541 -0.6068
   29MOL0     C 3792   8.853   3.791   8.174 -0.2912 -0.2329  0.8684
   29MOL0     C 3793   8.719   3.808   8.100  0.1209 -0.6618 -0.1240
   29MOL0     C 3794   8.608   3.815   8.208 -0.7043 -0.5049  0.0413
   29MOL0     C 3795   8.484   3.858   8.130 -0.2281 -0.7406 -0.1172
   29MOL0     C 3796   8.350   3.838   8.208 -0.8020 -0.1500 -0.0434
   29MOL0     N 3797   8.337   3.901   8.338  0.4459 -0.4979 -0.4135
   29MOL0     C 3798   8.399   4.009   8.395 -0.3400  0.2872 -0.3583
   29MOL0     C 3799   8.344   4.016   8.526 -0.0869  0.0750 -0.1604
   29MOL0     C 3800   8.377   4.138   8.616 -0.6547  0.1281 -0.5079
   29MOL0     C 3801   8.262   4.157   8.712  0.7092  0.0108 -0.2930
   29MOL0     C 3802   8.262   4.291   8.776 -0.3713  0.7820  0.0495
   29MOL0     C 3803   8.139   4.299   8.861  0.0398 -0.1821 -0.3464
   29MOL0     O 3804   8.134   4.422   8.941  0.0412 -0.4493  0.6791
   29MOL0     C 3805   8.029   4.423   9.030 -0.1896 -0.1131  0.3813
   29MOL0     C 3806   7.947   4.313   9.075 -0.0392  0.9366 -0.1021
   29MOL0     C 3807   7.846   4.326   9.171 -0.2222 -0.1176  0.4935
   29MOL0     C 3808   7.756   4.203   9.181 -0.1614  0.0710 -0.7804
   29MOL0     C 3809   7.830   4.448   9.239  0.2111  0.4772 -0.1691
   29MOL0     C 3810   7.735   4.475   9.344 -0.0766  0.7452  0.1947
   29MOL0     O 3811   7.652   4.581   9.324  0.1245 -0.1247  0.4504
   29MOL0     C 3812   7.552   4.593   9.415  0.1773 -0.1128  1.0147
   29MOL0     C 3813   7.422   4.537   9.412  0.2356  0.0898 -0.5326
   29MOL0     C 3814   7.334   4.569   9.515  0.0939  0.6616 -0.0581
   29MOL0     C 3815   7.357   4.669   9.607  0.9296  0.7558  0.8731
   29MOL0     O 3816   7.271   4.708   9.705  0.8805 -0.6840  0.7685
   29MOL0     C 3817   7.144   4.636   9.717 -0.3980  0.9110  0.1895
   29MOL0     C 3818   7.061   4.700   9.830 -0.4266  0.4130 -0.5363
   29MOL0     C 3819   7.111   4.677   9.974  0.4192  0.3065 -0.7046
   29MOL0     C 3820   7.036   4.764  10.078  0.4133  0.8381  1.4621
   29MOL0     C 3821   6.975   4.900  10.031 -0.6370  0.6727  0.0001
   29MOL0     C 3822   6.912   4.951  10.153  0.2479 -0.3869 -0.3016
   29MOL0     C 3823   6.802   5.064  10.117 -0.0065  0.1721  1.0551
   29MOL0     C 3824   6.724   5.115  10.241 -0.1202 -0.6872 -0.0721
   29MOL0    Cl 3825   6.826   5.232  10.320 -0.1872 -0.1929 -0.3685
   29MOL0     C 3826   7.476   4.736   9.588 -0.7208  0.1462 -0.2907
   29MOL0     C 3827   7.580   4.689   9.510  0.2524 -0.1787 -0.1151
   29MOL0     O 3828   7.746   4.401   9.445  0.0596 -0.6798  0.4907
   29MOL0     C 3829   7.903   4.558   9.196 -0.1631 -0.5801  0.1496
   29MOL0     C 3830   8.006   4.545   9.098  0.0896  1.2555  0.3655
   29MOL0     N 3831   8.260   3.901   8.547 -0.6120  0.4796  0.7156
   29MOL0     N 3832   8.257   3.839   8.437  0.7909  0.3257 -0.3678
   29MOL0     C 3833   9.584   3.836   8.149 -0.3002  0.2391  0.5418
   29MOL0     C 3834   9.699   3.902   8.100 -0.0664  0.5733 -0.1472
   29MOL0     C 3835   9.995   4.166   7.864 -0.0154 -0.3931 -0.4175
   29MOL0     C 3836   9.966   4.179   7.728  0.2665  0.1763 -0.0253
   29MOL0     C 3837  10.047   4.249   7.637  0.2289  0.3396  0.5231
   29MOL0     C 3838  10.152   4.328   7.683 -0.4453 -0.1239  0.8647
   29MOL0     O 3839  10.211   4.403   7.586  0.5189  0.3008 -0.2613
   29MOL0     C 3840  10.300   4.512   7.636 -0.5854 -0.6225 -0.5732
   29MOL0     C 3841  10.317   4.612   7.525  0.4877 -0.5614  0.4510
   29MOL0     C 3842  10.419   4.545   7.421  0.0902  1.0363  0.2488
   29MOL0     C 3843  10.451   4.630   7.305  0.0021 -0.2502  0.5372
   29MOL0     C 3844  10.545   4.738   7.340  0.3286 -1.0459 -0.5850
   29MOL0     C 3845  10.628   4.817   7.365  0.3173 -0.5701  0.2150
   29MOL0     C 3846  10.168   4.339   7.827 -0.1428 -0.2699 -0.3332
   29MOL0     C 3847  10.096   4.252   7.911  0.2290  0.2197 -0.0633
   29MOL0     H 3848   9.570   4.045   7.827  1.0518 -1.4178 -1.5225
   29MOL0     H 3849   9.363   3.926   7.912  0.9367  1.3502 -0.7541
   29MOL0     H 3850   9.197   3.894   8.031  0.6623  0.5119 -0.5459
   29MOL0     H 3851   9.207   3.725   7.985 -1.7389  1.2611 -0.5442
   29MOL0     H 3852   9.127   3.673   8.218 -0.3163 -1.8014 -1.8455
   29MOL0     H 3853   9.097   3.846   8.242  1.9591 -0.3204  0.6069
   29MOL0     H 3854   8.967   3.836   7.996 -2.4467  0.3523 -0.1817
   29MOL0     H 3855   8.968   3.665   8.038 -0.9204 -0.5190  0.5692
   29MOL0     H 3856   8.862   3.704   8.241 -2.5299 -3.3165 -2.4277
   29MOL0     H 3857   8.859   3.879   8.239  0.4016  0.1075  0.3503
   29MOL0     H 3858   8.731   3.900   8.043  0.3223  0.5732  1.8246
   29MOL0     H 3859   8.705   3.727   8.026 -0.4213  0.5016 -1.3379
   29MOL0     H 3860   8.593   3.721   8.262 -4.1361 -0.1950 -0.1048
   29MOL0     H 3861   8.636   3.887   8.286  0.1504  2.3968 -2.7230
   29MOL0     H 3862   8.492   3.963   8.100  1.5090 -1.3483 -1.9983
   29MOL0     H 3863   8.469   3.790   8.045 -0.4645 -0.6208 -0.1734
   29MOL0     H 3864   8.323   3.733   8.226  0.9113 -0.7114 -0.5822
   29MOL0     H 3865   8.268   3.872   8.143 -0.3536  1.1184  0.0454
   29MOL0     H 3866   8.463   4.090   8.361 -1.0870  1.1812  0.3101
   29MOL0     H 3867   8.464   4.112   8.676 -2.5626 -0.8885  2.0382
   29MOL0     H 3868   8.413   4.226   8.562  3.0730 -0.8988  0.0807
   29MOL0     H 3869   8.285   4.096   8.799  3.3475 -0.6034 -1.3296
   29MOL0     H 3870   8.166   4.127   8.667  0.0704 -1.5286  1.9300
   29MOL0     H 3871   8.273   4.379   8.712 -0.7121 -0.8213 -2.3457
   29MOL0     H 3872   8.357   4.295   8.830  0.6152 -0.0473 -1.5535
   29MOL0     H 3873   8.147   4.210   8.924  1.1939 -0.6401 -1.1164
   29MOL0     H 3874   8.047   4.306   8.801 -0.8820  2.2210  1.1817
   29MOL0     H 3875   7.949   4.222   9.017 -0.5673  1.4617 -0.9620
   29MOL0     H 3876   7.802   4.116   9.134 -1.5223 -2.2904  1.9492
   29MOL0     H 3877   7.736   4.178   9.286  1.2953  0.1092 -0.4599
   29MOL0     H 3878   7.660   4.224   9.134 -2.1177  2.0172  3.5475
   29MOL0     H 3879   7.390   4.460   9.343  0.0329 -1.9833  1.7260
   29MOL0     H 3880   7.240   4.515   9.507 -0.2309  1.3895 -1.3935
   29MOL0     H 3881   7.101   4.646   9.617  2.7810 -0.7958 -1.5111
   29MOL0     H 3882   7.152   4.530   9.744 -2.2573  0.6943  0.0643
   29MOL0     H 3883   7.062   4.807   9.807 -1.7443  0.8428  1.2518
   29MOL0     H 3884   6.962   4.653   9.834 -0.0626 -0.3545 -0.2740
   29MOL0     H 3885   7.214   4.714   9.966  0.5136 -0.0512 -1.2425
   29MOL0     H 3886   7.099   4.570   9.988 -1.3176  0.5948  0.2416
   29MOL0     H 3887   6.955   4.703  10.118 -0.7163  0.6139 -1.0045
   29MOL0     H 3888   7.108   4.778  10.160 -0.4000  0.3199  2.2816
   29MOL0     H 3889   6.911   4.879   9.945  2.9527 -2.1810 -2.3027
   29MOL0     H 3890   7.057   4.959   9.989 -2.0408  0.9728 -2.5555
   29MOL0     H 3891   6.860   4.868  10.202 -0.4193 -1.1977 -2.2941
   29MOL0     H 3892   6.982   4.988  10.228 -0.6564  2.6559 -0.8019
   29MOL0     H 3893   6.738   5.027  10.036  1.3346 -2.5177  1.1160
   29MOL0     H 3894   6.849   5.156  10.081 -1.8097 -0.0626 -2.2983
   29MOL0     H 3895   6.702   5.023  10.296 -0.9098  0.7167  2.0996
   29MOL0     H 3896   6.632   5.171  10.221 -0.4327 -0.8826  0.7517
   29MOL0     H 3897   7.499   4.815   9.658 -1.7209  0.0010  0.2244
   29MOL0     H 3898   7.673   4.745   9.518 -1.1044  2.4967 -1.6839
   29MOL0     H 3899   7.882   4.659   9.229  2.6559 -0.5167  2.0753
   29MOL0     H 3900   8.061   4.638   9.090  1.6390  0.3502  0.1915
   29MOL0     H 3901   9.587   3.778   8.241  0.8166  1.0374  1.0360
   29MOL0     H 3902   9.790   3.890   8.159  0.3172  0.8093 -0.6763
   29MOL0     H 3903   9.888   4.113   7.691 -1.2168  2.3186 -0.9334
   29MOL0     H 3904  10.036   4.229   7.531  2.4627  0.7863  0.1735
   29MOL0     H 3905  10.262   4.566   7.723  0.5511  0.4119 -0.6918
   29MOL0     H 3906  10.398   4.471   7.662 -0.1723 -0.2416 -1.4881
   29MOL0     H 3907  10.366   4.706   7.551 -1.4006  0.3931  0.7907
   29MOL0     H 3908  10.218   4.628   7.481  1.3930 -1.1926 -2.0065
   29MOL0     H 3909  10.375   4.452   7.384 -0.5552  1.8939 -1.2225
   29MOL0     H 3910  10.518   4.512   7.452 -1.0271 -5.5096 -1.5527
   29MOL0     H 3911  10.355   4.668   7.268 -0.4310 -0.4478  1.4350
   29MOL0     H 3912  10.496   4.563   7.232  0.2003  0.2552  0.1907
   29MOL0     H 3913  10.687   4.897   7.404 -1.4376  0.9851 -0.2220
   29MOL0     H 3914  10.244   4.404   7.871  0.4945 -0.9589 -0.3931
   29MOL0     H 3915  10.107   4.250   8.019  1.9348 -0.4094 -0.2072
   30MOL0     O 3916   2.384   0.591   7.054 -0.0669 -0.2311  0.5392
   30MOL0     C 3917   2.364   0.598   7.178 -0.3152  0.0947  1.0725
   30MOL0     O 3918   2.245   0.633   7.239  0.2307 -0.1156  0.5766
   30MOL0     C 3919   2.140   0.689   7.165  0.6265  0.1880  0.5530
   30MOL0     C 3920   2.148   0.781   7.050 -0.4540  0.9834  0.0855
   30MOL0     C 3921   2.035   0.838   6.994  0.8263  1.4363  0.1066
   30MOL0     C 3922   1.907   0.804   7.056  0.1176  0.6757  0.5356
   30MOL0     O 3923   1.786   0.842   7.009 -0.4468 -0.3172  0.3816
   30MOL0     C 3924   1.772   0.833   6.869  0.2086 -0.0502 -0.3109
   30MOL0     C 3925   1.653   0.735   6.844 -0.5584 -0.0738  0.7453
   30MOL0     C 3926   1.527   0.812   6.872  0.7596  0.0308  0.0438
   30MOL0     C 3927   1.392   0.729   6.859 -0.0595  1.1172 -0.1845
   30MOL0     C 3928   1.338   0.723   6.721 -0.1953  0.7124  0.2406
   30MOL0     C 3929   1.207   0.639   6.707  0.3948 -0.2480 -0.8819
   30MOL0     C 3930   1.249   0.513   6.646 -0.1656  0.3718 -0.8720
   30MOL0     C 3931   1.146   0.408   6.638 -0.3927 -0.3391  0.1578
   30MOL0     N 3932   1.101   0.333   6.754 -0.1256  0.8031 -0.2978
   30MOL0     C 3933   1.176   0.308   6.865  0.0367 -0.6274 -0.3521
   30MOL0     C 3934   1.101   0.211   6.932  0.1983 -0.5431 -0.3313
   30MOL0     C 3935   1.145   0.150   7.064 -0.4277 -0.6880  1.3604
   30MOL0     C 3936   1.022   0.135   7.160  0.2884 -0.1110  0.4280
   30MOL0     C 3937   1.050   0.074   7.300 -0.5211  0.3925 -0.0046
   30MOL0     C 3938   1.103  -0.074   7.307  0.6142  0.5112  0.5088
   30MOL0     O 3939   1.053  -0.178   7.221 -0.3843 -0.2023  0.6020
   30MOL0     C 3940   0.927  -0.232   7.240  0.3105 -0.7843 -0.4735
   30MOL0     C 3941   0.873  -0.321   7.153 -0.4204 -0.6523 -0.1591
   30MOL0     C 3942   0.759  -0.383   7.170  0.5472 -0.5287 -0.3823
   30MOL0     C 3943   0.711  -0.475   7.062  0.4521  0.0513  0.6231
   30MOL0     C 3944   0.676  -0.352   7.278 -0.0174 -0.0817  0.0227
   30MOL0     C 3945   0.546  -0.402   7.310 -0.2223 -0.6019  0.1061
   30MOL0     O 3946   0.507  -0.384   7.443 -0.2159  0.7862 -0.3581
   30MOL0     C 3947   0.395  -0.453   7.481  0.4405 -0.0307  0.1736
   30MOL0     C 3948   0.273  -0.390   7.495  0.3867  0.3989  0.4791
   30MOL0     C 3949   0.169  -0.464   7.559  0.4285  0.2044 -0.3771
   30MOL0     C 3950   0.183  -0.587   7.620  0.0892 -1.0585  0.4475
   30MOL0     O 3951   0.074  -0.639   7.686 -0.8108 -0.1305  0.2242
   30MOL0     C 3952   0.073  -0.779   7.717 -0.6129  0.1875 -0.0674
   30MOL0     C 3953  -0.061  -0.830   7.760 -0.7335  0.3850 -0.0922
   30MOL0     C 3954  -0.171  -0.785   7.662  0.1019 -0.4874 -0.2792
   30MOL0     C 3955  -0.315  -0.805   7.711 -0.0501  0.4411  0.4122
   30MOL0     C 3956  -0.345  -0.681   7.804  0.2012  0.0927  0.5907
   30MOL0     C 3957  -0.457  -0.709   7.891  0.4963  0.3580  0.2555
   30MOL0     C 3958  -0.573  -0.761   7.824 -0.0843 -0.2166  0.3977
   30MOL0     C 3959  -0.704  -0.737   7.897 -0.6295 -0.6187  0.4925
   30MOL0    Cl 3960  -0.832  -0.826   7.808 -0.0006  0.3002  0.2410
   30MOL0     C 3961   0.306  -0.656   7.589  0.2283 -0.3680 -0.2980
   30MOL0     C 3962   0.407  -0.591   7.520 -0.8174 -0.3390 -0.6349
   30MOL0     O 3963   0.473  -0.432   7.212  1.0639  0.2791 -0.4907
   30MOL0     C 3964   0.719  -0.249   7.363 -0.4211 -0.6836  0.9144
   30MOL0     C 3965   0.850  -0.198   7.353 -0.6418 -0.1224 -1.0103
   30MOL0     N 3966   0.972   0.195   6.879 -0.4256 -1.0029 -0.7855
   30MOL0     N 3967   0.973   0.267   6.767  0.1003  0.4300  0.3457
   30MOL0     C 3968   1.906   0.721   7.177 -0.2124 -0.3438 -0.6099
   30MOL0     C 3969   2.019   0.671   7.233  0.0052 -0.5482 -0.3630
   30MOL0     C 3970   2.479   0.567   7.271  0.3742  1.1747 -0.3254
   30MOL0     C 3971   2.459   0.571   7.405 -0.0281 -0.5269 -0.1405
   30MOL0     C 3972   2.560   0.546   7.502  0.0891 -0.3342 -0.3647
   30MOL0     C 3973   2.690   0.522   7.457 -0.0142  0.5151  0.3031
   30MOL0     O 3974   2.784   0.482   7.550 -0.4664  0.4109 -0.5570
   30MOL0     C 3975   2.807   0.556   7.676  0.7325  0.6480  0.4575
   30MOL0     C 3976   2.881   0.690   7.653 -0.4317 -0.6269  0.4838
   30MOL0     C 3977   2.788   0.798   7.594 -0.7574  0.6122 -0.0428
   30MOL0     C 3978   2.838   0.946   7.595  0.6765 -0.2717 -0.4596
   30MOL0     C 3979   2.927   0.971   7.483 -0.9804  0.5932  0.4407
   30MOL0     C 3980   3.023   0.982   7.406 -0.9041  0.0398 -0.7695
   30MOL0     C 3981   2.720   0.527   7.320  0.4001  0.2670 -0.3876
   30MOL0     C 3982   2.614   0.547   7.230 -0.3718  0.0771 -0.8163
   30MOL0     H 3983   2.244   0.797   7.004 -0.6800 -1.3658 -1.3932
   30MOL0     H 3984   2.055   0.904   6.911  0.7421  0.3152 -0.8245
   30MOL0     H 3985   1.766   0.933   6.826  2.6897 -0.0969 -0.9409
   30MOL0     H 3986   1.853   0.790   6.809  2.4797  3.2515  0.1236
   30MOL0     H 3987   1.654   0.710   6.737  1.2273  2.3463  0.1080
   30MOL0     H 3988   1.665   0.638   6.893  0.6763 -0.6140 -0.5625
   30MOL0     H 3989   1.525   0.847   6.975 -1.4411 -1.4024  0.5564
   30MOL0     H 3990   1.520   0.903   6.810 -0.7003  0.5288  0.8892
   30MOL0     H 3991   1.395   0.624   6.888 -2.3025  0.5410 -1.7914
   30MOL0     H 3992   1.321   0.784   6.922  2.1236  3.0368  0.7509
   30MOL0     H 3993   1.314   0.826   6.691  0.5238  0.2860 -1.9861
   30MOL0     H 3994   1.408   0.686   6.646 -1.5354  0.2449 -0.7908
   30MOL0     H 3995   1.161   0.639   6.806 -1.5595  2.8634 -1.6589
   30MOL0     H 3996   1.137   0.700   6.649  0.8633  1.3584  0.1862
   30MOL0     H 3997   1.283   0.529   6.543  2.7046 -4.1047 -0.8754
   30MOL0     H 3998   1.339   0.477   6.698 -1.1211  1.5320  1.7657
   30MOL0     H 3999   1.203   0.342   6.571 -1.3101 -0.2914 -0.6825
   30MOL0     H 4000   1.058   0.448   6.588  1.4442  0.8263 -2.3719
   30MOL0     H 4001   1.273   0.350   6.891  0.0922 -0.5950 -0.6060
   30MOL0     H 4002   1.194   0.053   7.048 -1.5392 -0.7355 -2.9711
   30MOL0     H 4003   1.226   0.210   7.107  1.5951  0.0690 -2.9642
   30MOL0     H 4004   0.948   0.068   7.115 -1.2769  1.5286  0.4350
   30MOL0     H 4005   0.967   0.230   7.166  0.9984  0.8716 -4.4370
   30MOL0     H 4006   0.962   0.083   7.364 -0.8968 -0.2530 -0.4195
   30MOL0     H 4007   1.127   0.137   7.345  1.2303 -1.4818 -0.2715
   30MOL0     H 4008   1.107  -0.104   7.412 -2.0735  2.3647  1.2289
   30MOL0     H 4009   1.211  -0.065   7.291  0.6199  2.8736  1.5551
   30MOL0     H 4010   0.936  -0.345   7.069 -1.8908  0.2978 -1.5821
   30MOL0     H 4011   0.793  -0.539   7.030 -1.5763 -1.4064 -2.1192
   30MOL0     H 4012   0.644  -0.550   7.105  0.3427 -0.4497 -0.3867
   30MOL0     H 4013   0.675  -0.426   6.971  1.0344 -0.2380  0.2298
   30MOL0     H 4014   0.270  -0.295   7.442  1.1573 -0.4996 -1.2863
   30MOL0     H 4015   0.071  -0.419   7.552  0.0409 -0.7970 -2.0644
   30MOL0     H 4016   0.100  -0.831   7.624 -1.3393 -0.4579  0.0774
   30MOL0     H 4017   0.145  -0.793   7.799 -0.9353 -1.1236  0.0035
   30MOL0     H 4018  -0.057  -0.937   7.781  3.4258  0.0561 -1.6955
   30MOL0     H 4019  -0.076  -0.787   7.859 -1.2706 -0.7824  0.3425
   30MOL0     H 4020  -0.154  -0.841   7.570 -1.5680 -2.5916  0.6087
   30MOL0     H 4021  -0.150  -0.680   7.642  4.0393 -0.0851  4.1933
   30MOL0     H 4022  -0.398  -0.800   7.640 -0.4328  1.1426  0.8876
   30MOL0     H 4023  -0.315  -0.904   7.756 -0.8026 -0.9612 -2.4739
   30MOL0     H 4024  -0.358  -0.584   7.754  1.2328 -0.5208 -0.9571
   30MOL0     H 4025  -0.259  -0.660   7.867  1.2083  1.2512 -1.0825
   30MOL0     H 4026  -0.428  -0.777   7.972  0.5657  0.4694  0.3242
   30MOL0     H 4027  -0.489  -0.620   7.945 -0.7665 -0.0509  0.2006
   30MOL0     H 4028  -0.560  -0.867   7.798 -1.2833 -0.2849  0.0413
   30MOL0     H 4029  -0.573  -0.712   7.727 -0.2761  0.7701  0.8845
   30MOL0     H 4030  -0.722  -0.629   7.890  2.6586 -0.0037 -0.0986
   30MOL0     H 4031  -0.697  -0.770   8.001 -1.4670 -2.6156 -0.0349
   30MOL0     H 4032   0.326  -0.754   7.633 -1.5668 -0.3540  0.6217
   30MOL0     H 4033   0.492  -0.655   7.496 -0.0716 -0.2156  1.4425
   30MOL0     H 4034   0.659  -0.213   7.446 -0.6864 -1.0523  0.8858
   30MOL0     H 4035   0.884  -0.133   7.433 -1.2725  2.1117 -2.4771
   30MOL0     H 4036   1.810   0.701   7.222  0.9452  0.7333  2.5922
   30MOL0     H 4037   2.020   0.624   7.330 -2.4059  3.6188  1.9876
   30MOL0     H 4038   2.362   0.592   7.449 -0.5109  1.1612 -1.8509
   30MOL0     H 4039   2.529   0.545   7.606  0.4384  1.2784 -0.2291
   30MOL0     H 4040   2.715   0.568   7.733 -1.2839  0.3810 -2.5298
   30MOL0     H 4041   2.873   0.483   7.723  0.6983 -1.0353 -1.9269
   30MOL0     H 4042   2.970   0.676   7.591 -0.6350 -1.4258  0.3578
   30MOL0     H 4043   2.920   0.720   7.751  0.0401  0.2308  0.0418
   30MOL0     H 4044   2.690   0.777   7.637 -0.4143 -2.0227 -0.3883
   30MOL0     H 4045   2.776   0.761   7.492 -0.0758  0.3126 -0.0183
   30MOL0     H 4046   2.875   0.986   7.690 -0.7648 -1.6085  0.7081
   30MOL0     H 4047   2.756   1.009   7.560  0.7314  0.3448  0.4850
   30MOL0     H 4048   3.110   0.977   7.342  2.1194  1.6098  2.8030
   30MOL0     H 4049   2.822   0.514   7.284  1.0626 -1.9611  1.9266
   30MOL0     H 4050   2.639   0.521   7.128 -3.4852 -2.5050 -1.0665
   31MOL0     O 4051   2.089   8.006   9.966 -0.4749  0.1070  0.4208
   31MOL0     C 4052   2.105   7.949   9.855 -0.1424 -0.8062 -0.4322
   31MOL0     O 4053   2.006   7.908   9.773 -0.8203 -0.2281  0.2496
   31MOL0     C 4054   1.872   7.941   9.803 -0.3319  0.3558 -0.2985
   31MOL0     C 4055   1.814   7.942   9.929  0.2288  0.4375 -0.8537
   31MOL0     C 4056   1.678   7.959   9.954 -1.3181  0.7148 -0.6004
   31MOL0     C 4057   1.593   7.959   9.845 -0.2300  0.5915 -0.1552
   31MOL0     O 4058   1.456   7.964   9.867  0.0374  0.2665  0.3207
   31MOL0     C 4059   1.369   7.912   9.763  0.9466  0.1370 -0.0622
   31MOL0     C 4060   1.234   7.858   9.827 -0.1965 -0.3667  0.5626
   31MOL0     C 4061   1.158   7.984   9.854 -0.5505  0.2552 -0.1607
   31MOL0     C 4062   1.010   7.977   9.886  0.6932 -0.0815 -0.0275
   31MOL0     C 4063   0.993   7.940  10.035 -0.3644  0.5751 -0.7003
   31MOL0     C 4064   0.844   7.925  10.080 -0.5202  0.3727 -0.1283
   31MOL0     C 4065   0.844   7.880  10.232  0.8135  0.2352  0.5092
   31MOL0     C 4066   0.696   7.875  10.277 -0.3279  1.0907 -0.3239
   31MOL0     N 4067   0.665   7.804  10.403 -0.3066 -0.2839 -0.8758
   31MOL0     C 4068   0.754   7.723  10.476  0.8837  1.2271 -0.2953
   31MOL0     C 4069   0.669   7.654  10.560 -0.8731 -0.4553  0.2331
   31MOL0     C 4070   0.695   7.563  10.676 -0.0706 -0.3185 -0.3342
   31MOL0     C 4071   0.806   7.459  10.652 -0.5296 -0.3159 -0.1971
   31MOL0     C 4072   0.785   7.337  10.743 -0.1237  0.8559  0.6242
   31MOL0     C 4073   0.833   7.357  10.890  0.3743 -0.5520  0.2628
   31MOL0     O 4074   0.824   7.238  10.977 -0.5379 -0.1641 -0.1512
   31MOL0     C 4075   0.710   7.212  11.056 -0.6587  0.4130 -0.1249
   31MOL0     C 4076   0.588   7.275  11.042  0.7798  0.6265 -0.7209
   31MOL0     C 4077   0.495   7.269  11.156 -0.3406 -0.5906  0.8332
   31MOL0     C 4078   0.372   7.365  11.141  0.0978  0.4792 -0.6277
   31MOL0     C 4079   0.525   7.184  11.272  0.7877 -0.3266 -0.2334
   31MOL0     C 4080   0.438   7.174  11.397 -0.3267  0.1335  1.1107
   31MOL0     O 4081   0.498   7.164  11.508  0.6686  0.5229  0.2158
   31MOL0     C 4082   0.424   7.135  11.625  0.3748  0.6406 -0.2153
   31MOL0     C 4083   0.474   7.036  11.704 -0.1547 -0.0926 -0.1242
   31MOL0     C 4084   0.413   7.005  11.826 -0.0959  0.2959 -0.3821
   31MOL0     C 4085   0.304   7.079  11.873 -0.2554 -1.0910  0.0078
   31MOL0     O 4086   0.246   7.059  12.000  0.1183 -0.8276  0.0402
   31MOL0     C 4087   0.253   6.936  12.071  0.0032 -0.4468 -0.6311
   31MOL0     C 4088   0.159   6.825  12.014  0.2584 -0.0639 -0.9504
   31MOL0     C 4089   0.014   6.853  12.013  1.1494 -0.3083 -0.1875
   31MOL0     C 4090  -0.055   6.742  11.931 -0.5354  0.4640 -0.6731
   31MOL0     C 4091  -0.208   6.753  11.940  0.4373 -0.2322  0.7890
   31MOL0     C 4092  -0.283   6.663  11.842 -0.8276  0.8215 -0.3504
   31MOL0     C 4093  -0.438   6.664  11.868  0.4645  0.8910 -0.4413
   31MOL0     C 4094  -0.498   6.529  11.825 -0.6850 -0.0839 -0.2367
   31MOL0    Cl 4095  -0.663   6.541  11.768 -0.0667  0.3148 -0.5012
   31MOL0     C 4096   0.267   7.190  11.792 -0.0896 -0.2294 -0.6832
   31MOL0     C 4097   0.324   7.216  11.671  0.5876 -0.5538  0.1779
   31MOL0     O 4098   0.314   7.167  11.369 -0.4333 -0.4116 -0.1897
   31MOL0     C 4099   0.637   7.107  11.263 -0.3073 -0.2198 -0.6364
   31MOL0     C 4100   0.734   7.121  11.161 -0.1414 -0.9492 -0.2197
   31MOL0     N 4101   0.542   7.690  10.531 -0.3548 -0.4887 -0.5866
   31MOL0     N 4102   0.539   7.773  10.440 -0.2851 -0.7845 -0.7492
   31MOL0     C 4103   1.652   7.960   9.716  0.3901 -0.2801 -0.3589
   31MOL0     C 4104   1.783   7.951   9.700 -0.8453 -0.0203 -0.2039
   31MOL0     C 4105   2.239   7.906   9.828 -0.1752 -0.1097 -0.2485
   31MOL0     C 4106   2.280   7.912   9.695 -0.5526 -0.9197 -0.6290
   31MOL0     C 4107   2.414   7.918   9.663  0.2358  0.4891 -0.6904
   31MOL0     C 4108   2.509   7.926   9.770 -0.8976  1.4399  0.5173
   31MOL0     O 4109   2.637   7.948   9.724 -0.5054  0.0943  0.3858
   31MOL0     C 4110   2.726   8.026   9.803 -0.2245 -0.0651  0.3964
   31MOL0     C 4111   2.720   8.182   9.763  0.4611 -0.0711 -0.5024
   31MOL0     C 4112   2.780   8.216   9.633  0.2113  0.4198  0.0079
   31MOL0     C 4113   2.753   8.365   9.607  0.2442  0.4626  0.4551
   31MOL0     C 4114   2.789   8.404   9.470 -0.0457  1.5836 -0.7801
   31MOL0     C 4115   2.824   8.425   9.356 -1.0484  0.7913  0.8635
   31MOL0     C 4116   2.465   7.909   9.904  0.2275 -1.0013  0.1265
   31MOL0     C 4117   2.333   7.899   9.932 -0.0037  0.0863 -0.4184
   31MOL0     H 4118   1.884   7.933  10.011  2.3914  0.4158 -2.6399
   31MOL0     H 4119   1.643   7.967  10.056 -0.2880  0.5400 -0.2170
   31MOL0     H 4120   1.351   8.005   9.708  0.0737 -1.5884 -2.8926
   31MOL0     H 4121   1.415   7.836   9.699 -1.0699 -0.1808 -1.2132
   31MOL0     H 4122   1.185   7.791   9.755  1.3642 -0.2144 -0.7019
   31MOL0     H 4123   1.253   7.793   9.913 -1.5300  1.3867  2.2514
   31MOL0     H 4124   1.201   8.053   9.927  1.2485 -2.7039  1.7754
   31MOL0     H 4125   1.159   8.037   9.758  1.7063 -0.0959 -0.3695
   31MOL0     H 4126   0.953   8.069   9.868 -1.6093 -1.4932 -0.3808
   31MOL0     H 4127   0.955   7.903   9.827  1.0857 -0.7959  0.4842
   31MOL0     H 4128   1.040   7.843  10.056 -4.1687 -0.8745  2.2266
   31MOL0     H 4129   1.039   8.015  10.100 -0.8889  0.8085 -0.5936
   31MOL0     H 4130   0.804   8.025  10.064 -0.8396  0.9593  3.5222
   31MOL0     H 4131   0.796   7.847  10.019 -0.6672  1.5700 -1.5990
   31MOL0     H 4132   0.891   7.782  10.242 -0.9813 -0.9126 -1.3708
   31MOL0     H 4133   0.916   7.946  10.282  2.4930 -2.1067  1.3205
   31MOL0     H 4134   0.643   7.820  10.198  1.2024 -0.7989 -0.1100
   31MOL0     H 4135   0.655   7.976  10.281  0.3866  1.3395  1.1528
   31MOL0     H 4136   0.862   7.725  10.476  1.1224 -2.7318 -1.9314
   31MOL0     H 4137   0.728   7.620  10.763 -0.0698  0.2541 -0.7029
   31MOL0     H 4138   0.603   7.508  10.698  1.7804 -3.2079  0.8598
   31MOL0     H 4139   0.912   7.489  10.654  0.3173 -2.9980 -0.5395
   31MOL0     H 4140   0.811   7.426  10.548 -1.4572  1.8610 -0.9910
   31MOL0     H 4141   0.837   7.249  10.705 -0.1117  1.3481 -0.5687
   31MOL0     H 4142   0.679   7.312  10.749 -0.4679  2.1243  0.1559
   31MOL0     H 4143   0.785   7.444  10.937  3.0465 -0.5582  3.3554
   31MOL0     H 4144   0.936   7.395  10.880 -0.4878  1.5999 -1.2464
   31MOL0     H 4145   0.578   7.335  10.952  2.5173  0.8940 -0.7697
   31MOL0     H 4146   0.305   7.359  11.228  1.6075  1.7053  0.6711
   31MOL0     H 4147   0.401   7.469  11.127 -0.8084  0.8673  0.2418
   31MOL0     H 4148   0.326   7.341  11.044  1.0242  0.1724 -0.9986
   31MOL0     H 4149   0.552   6.971  11.667  1.4882  0.5157  2.1144
   31MOL0     H 4150   0.444   6.926  11.893 -0.6088  1.0427  0.7799
   31MOL0     H 4151   0.355   6.898  12.072 -0.0513 -0.6200  1.0699
   31MOL0     H 4152   0.230   6.962  12.175 -0.1659  2.1319 -1.2375
   31MOL0     H 4153   0.184   6.810  11.909 -3.6482 -1.2628 -1.8810
   31MOL0     H 4154   0.187   6.729  12.059  0.1388 -0.1915 -1.1484
   31MOL0     H 4155  -0.010   6.957  11.989 -1.0474 -0.5073  0.9475
   31MOL0     H 4156  -0.024   6.828  12.112 -0.8959 -1.7882 -1.2777
   31MOL0     H 4157  -0.019   6.738  11.828 -0.0387  2.2996 -0.6115
   31MOL0     H 4158  -0.030   6.648  11.982 -1.0515  1.2427  1.1196
   31MOL0     H 4159  -0.255   6.851  11.933 -2.9251 -1.5959  2.2574
   31MOL0     H 4160  -0.231   6.716  12.041  2.5820  0.5687  1.6281
   31MOL0     H 4161  -0.265   6.693  11.738 -0.4842  2.6865  0.2066
   31MOL0     H 4162  -0.241   6.563  11.853  0.6167  1.1366 -2.3509
   31MOL0     H 4163  -0.465   6.742  11.797  2.4870  1.6901 -0.4206
   31MOL0     H 4164  -0.463   6.691  11.971 -1.2429 -0.1735 -0.5428
   31MOL0     H 4165  -0.478   6.457  11.905  2.8078 -1.4086 -2.1237
   31MOL0     H 4166  -0.434   6.484  11.749  0.0084 -0.7901  0.7403
   31MOL0     H 4167   0.181   7.245  11.829 -1.6846 -2.7160 -0.4171
   31MOL0     H 4168   0.286   7.305  11.622  0.2723 -0.0843  1.2402
   31MOL0     H 4169   0.667   7.034  11.338  1.1145  1.2710  0.3178
   31MOL0     H 4170   0.826   7.064  11.163 -0.2811 -1.1582  1.6729
   31MOL0     H 4171   1.592   7.963   9.625  0.0553 -1.7137 -0.2183
   31MOL0     H 4172   1.838   7.965   9.607 -0.6237  1.1019  0.0808
   31MOL0     H 4173   2.202   7.914   9.619 -1.0249  0.0602 -0.1336
   31MOL0     H 4174   2.447   7.914   9.560 -0.1706 -0.9540 -0.7811
   31MOL0     H 4175   2.705   8.030   9.910  3.8449  0.0668  1.3680
   31MOL0     H 4176   2.826   7.986   9.786 -0.5735  0.0697 -2.3200
   31MOL0     H 4177   2.754   8.234   9.852 -3.1952 -1.1006  1.7076
   31MOL0     H 4178   2.617   8.219   9.761  0.0249 -1.2293 -1.9501
   31MOL0     H 4179   2.731   8.156   9.556 -0.4767 -0.8885  1.4289
   31MOL0     H 4180   2.888   8.200   9.636  0.7431  3.4715  1.2300
   31MOL0     H 4181   2.812   8.422   9.680 -0.7670 -0.9762  2.5074
   31MOL0     H 4182   2.650   8.393   9.632  0.6951  1.2536  1.5093
   31MOL0     H 4183   2.865   8.436   9.258 -3.5369  3.0171 -0.0349
   31MOL0     H 4184   2.521   7.907   9.997 -0.0531  0.1576  0.3330
   31MOL0     H 4185   2.305   7.878  10.035  0.5131 -1.7085 -0.6189
   32MOL0     O 4186   5.021   7.748   0.164  0.2763  0.1217  0.4938
   32MOL0     C 4187   5.021   7.733   0.285 -0.0982  0.1778 -0.2090
   32MOL0     O 4188   5.121   7.682   0.356 -0.5288 -0.3175  0.1804
   32MOL0     C 4189   5.209   7.590   0.302  0.2663 -0.7416  0.1769
   32MOL0     C 4190   5.170   7.500   0.198 -0.0650 -0.4195 -0.2373
   32MOL0     C 4191   5.276   7.424   0.134 -0.1822  0.5675 -0.0376
   32MOL0     C 4192   5.408   7.432   0.182  0.0560 -0.1662  0.6456
   32MOL0     O 4193   5.504   7.370   0.106  0.5222 -0.1662 -0.0897
   32MOL0     C 4194   5.624   7.325   0.167 -0.3530  0.3431 -0.4735
   32MOL0     C 4195   5.722   7.256   0.068  0.3600 -0.7634 -0.9562
   32MOL0     C 4196   5.773   7.360  -0.038  0.0249 -1.1304  0.0718
   32MOL0     C 4197   5.862   7.287  -0.138 -0.1503 -0.9819  0.8119
   32MOL0     C 4198   5.909   7.400  -0.240 -0.7351 -0.1809 -0.8429
   32MOL0     C 4199   5.801   7.442  -0.343 -0.1726 -0.6588  0.8057
   32MOL0     C 4200   5.766   7.339  -0.453  0.4618 -0.0363 -0.0276
   32MOL0     C 4201   5.669   7.402  -0.555 -1.0542 -0.5925  0.8401
   32MOL0     N 4202   5.629   7.286  -0.628  1.1267  0.9259  0.1135
   32MOL0     C 4203   5.499   7.234  -0.620  0.9118  0.8230 -0.1085
   32MOL0     C 4204   5.492   7.113  -0.683  0.4615 -0.6260  1.0279
   32MOL0     C 4205   5.375   7.024  -0.679 -0.3284 -0.7857 -0.0170
   32MOL0     C 4206   5.301   7.029  -0.811  0.4355 -0.4695  0.8472
   32MOL0     C 4207   5.177   6.941  -0.800 -0.0033  0.1426  0.6989
   32MOL0     C 4208   5.129   6.886  -0.929  0.1783  0.2019 -0.0234
   32MOL0     O 4209   5.008   6.809  -0.910  0.3508  0.0476  0.5087
   32MOL0     C 4210   4.935   6.766  -1.014  0.7248  0.3433  0.4484
   32MOL0     C 4211   4.803   6.727  -0.989  0.2497  0.8149 -0.2443
   32MOL0     C 4212   4.713   6.696  -1.086  0.5142  0.2044 -0.0032
   32MOL0     C 4213   4.581   6.670  -1.029  0.5882  0.1917 -0.4688
   32MOL0     C 4214   4.752   6.703  -1.228 -0.1023  0.1769 -0.7183
   32MOL0     C 4215   4.667   6.670  -1.345  0.9228  0.1957  0.0513
   32MOL0     O 4216   4.739   6.654  -1.466  0.0787 -0.0628  0.6699
   32MOL0     C 4217   4.681   6.596  -1.581  0.2776  0.2014 -0.1350
   32MOL0     C 4218   4.686   6.662  -1.700 -0.2071  0.4982  0.5106
   32MOL0     C 4219   4.615   6.626  -1.812  0.0988  0.0094  0.2907
   32MOL0     C 4220   4.534   6.511  -1.803  0.6565 -0.2996  0.4039
   32MOL0     O 4221   4.474   6.457  -1.913  0.3947 -0.9348  0.5852
   32MOL0     C 4222   4.448   6.537  -2.030  0.7161 -0.5928  0.1144
   32MOL0     C 4223   4.343   6.477  -2.122 -0.3178 -0.3086 -0.1708
   32MOL0     C 4224   4.213   6.439  -2.052 -0.5319 -0.5059  0.8737
   32MOL0     C 4225   4.143   6.554  -1.966 -0.0795  0.5375 -0.1267
   32MOL0     C 4226   4.026   6.487  -1.900 -0.0707 -0.8797  0.3873
   32MOL0     C 4227   3.902   6.532  -1.975  1.0963  0.7240 -0.0716
   32MOL0     C 4228   3.786   6.474  -1.899  0.5188 -1.5438  0.2206
   32MOL0     C 4229   3.650   6.490  -1.970  0.5440 -0.2018 -0.3237
   32MOL0    Cl 4230   3.662   6.408  -2.124 -0.0594  0.4572  0.0699
   32MOL0     C 4231   4.525   6.442  -1.681 -0.9672 -0.2218  0.3815
   32MOL0     C 4232   4.604   6.480  -1.575  0.3315  0.4478 -0.1681
   32MOL0     O 4233   4.554   6.626  -1.327 -0.2371 -0.5848 -0.1797
   32MOL0     C 4234   4.888   6.740  -1.251  0.1248 -0.3681 -0.0978
   32MOL0     C 4235   4.972   6.769  -1.144 -0.2806  0.9908 -0.1156
   32MOL0     N 4236   5.620   7.096  -0.730 -0.1951  0.7735  0.0577
   32MOL0     N 4237   5.702   7.195  -0.700  1.1986  0.6838 -0.9824
   32MOL0     C 4238   5.431   7.517   0.291 -0.2474  0.4490 -0.1136
   32MOL0     C 4239   5.337   7.598   0.357  0.9434 -0.2750 -0.1841
   32MOL0     C 4240   4.907   7.787   0.359 -0.2791 -0.0041 -0.4894
   32MOL0     C 4241   4.900   7.766   0.496  0.0574 -0.4113 -0.0095
   32MOL0     C 4242   4.792   7.810   0.561  0.4144 -0.1855 -0.3711
   32MOL0     C 4243   4.676   7.866   0.499 -0.2414  0.6725 -0.9035
   32MOL0     O 4244   4.566   7.920   0.559 -0.5404  0.4365  0.7122
   32MOL0     C 4245   4.585   7.958   0.690 -0.7205  0.1475 -0.1309
   32MOL0     C 4246   4.477   8.072   0.725  0.1325  0.8329  0.9598
   32MOL0     C 4247   4.526   8.144   0.849  0.3650 -0.8036  0.1934
   32MOL0     C 4248   4.521   8.052   0.976 -0.3238  0.1188  0.3566
   32MOL0     C 4249   4.388   8.063   1.031  0.6459 -0.3053 -0.4938
   32MOL0     C 4250   4.280   8.090   1.077 -0.2044 -0.7039 -0.7710
   32MOL0     C 4251   4.685   7.868   0.363  0.4702 -0.3965  0.0795
   32MOL0     C 4252   4.797   7.830   0.293 -0.0788  0.6877  0.0712
   32MOL0     H 4253   5.070   7.490   0.156  0.2852 -2.3382 -0.7013
   32MOL0     H 4254   5.242   7.356   0.057  0.1137  0.4719 -0.0848
   32MOL0     H 4255   5.675   7.413   0.208  0.9566 -0.4232 -0.4022
   32MOL0     H 4256   5.606   7.251   0.245  0.2626  1.3583  0.6587
   32MOL0     H 4257   5.812   7.219   0.119  1.6620  0.3327 -2.3869
   32MOL0     H 4258   5.675   7.171   0.017 -1.3973  0.7137 -1.9361
   32MOL0     H 4259   5.691   7.418  -0.081  1.7614  1.3588 -0.0468
   32MOL0     H 4260   5.827   7.440   0.013 -1.7871  0.8793 -1.0087
   32MOL0     H 4261   5.944   7.236  -0.087  0.3802 -0.9614  0.0120
   32MOL0     H 4262   5.808   7.211  -0.197 -1.7426  0.4791  0.3156
   32MOL0     H 4263   5.929   7.484  -0.174 -1.7083 -2.5750  2.8057
   32MOL0     H 4264   5.996   7.363  -0.295 -1.5399 -2.1000 -0.9000
   32MOL0     H 4265   5.715   7.484  -0.291 -1.1576 -2.5975  0.8478
   32MOL0     H 4266   5.836   7.536  -0.387 -0.1069  0.0663  2.3533
   32MOL0     H 4267   5.859   7.306  -0.500 -0.3464 -2.3559 -0.1291
   32MOL0     H 4268   5.723   7.249  -0.409  0.4722 -0.5195 -0.9691
   32MOL0     H 4269   5.719   7.481  -0.612  1.0021 -1.7225  0.9862
   32MOL0     H 4270   5.590   7.450  -0.497 -1.3398  0.1518 -0.1283
   32MOL0     H 4271   5.412   7.286  -0.581  2.1739  1.7410  1.5876
   32MOL0     H 4272   5.414   6.925  -0.654 -0.2035 -0.9637 -0.8867
   32MOL0     H 4273   5.302   7.051  -0.602 -0.0152 -1.0980  0.3973
   32MOL0     H 4274   5.362   7.001  -0.897 -1.4706  0.9187 -1.0852
   32MOL0     H 4275   5.280   7.136  -0.825  2.4381 -0.4481 -3.1725
   32MOL0     H 4276   5.097   7.001  -0.757  0.3828  0.0926  1.5061
   32MOL0     H 4277   5.201   6.860  -0.730  0.2256  0.5545  1.1015
   32MOL0     H 4278   5.206   6.818  -0.967 -2.4202 -3.6251  0.9915
   32MOL0     H 4279   5.118   6.981  -0.983 -2.3488  3.2154  5.0013
   32MOL0     H 4280   4.776   6.709  -0.885 -0.5905 -2.7376 -0.9557
   32MOL0     H 4281   4.534   6.578  -1.067  1.8024 -1.1986  1.2258
   32MOL0     H 4282   4.569   6.677  -0.920  0.0184  2.9176 -0.6572
   32MOL0     H 4283   4.514   6.748  -1.065 -1.1038 -0.8626  0.2356
   32MOL0     H 4284   4.752   6.748  -1.710  0.5881 -0.1007  0.5345
   32MOL0     H 4285   4.624   6.682  -1.905 -2.4116  0.0838  0.0216
   32MOL0     H 4286   4.425   6.640  -2.003  0.8234  0.3001 -2.8305
   32MOL0     H 4287   4.545   6.530  -2.080  0.9794 -1.7458  0.7491
   32MOL0     H 4288   4.321   6.550  -2.201 -1.0181 -0.6284 -0.2701
   32MOL0     H 4289   4.380   6.385  -2.169 -2.1258 -0.5096 -1.2701
   32MOL0     H 4290   4.244   6.353  -1.992  3.3149  0.4940  0.6201
   32MOL0     H 4291   4.130   6.419  -2.120 -0.1638  0.5850  0.0546
   32MOL0     H 4292   4.199   6.587  -1.878 -1.8667  0.6508  1.0235
   32MOL0     H 4293   4.120   6.642  -2.027 -0.7761  1.4995  1.4238
   32MOL0     H 4294   4.031   6.520  -1.796  1.8802 -1.4753  0.5262
   32MOL0     H 4295   4.041   6.378  -1.904  2.9070 -0.5301 -2.5492
   32MOL0     H 4296   3.891   6.641  -1.984  4.0030  1.1557  0.6580
   32MOL0     H 4297   3.894   6.485  -2.073 -6.7461 -2.3735  1.2765
   32MOL0     H 4298   3.786   6.528  -1.804 -2.0320 -3.0816  1.2120
   32MOL0     H 4299   3.808   6.369  -1.874  1.7202 -1.2548  0.4099
   32MOL0     H 4300   3.622   6.593  -1.992 -1.4696 -0.9696 -1.5858
   32MOL0     H 4301   3.576   6.446  -1.903  1.1706 -1.9000 -0.6976
   32MOL0     H 4302   4.464   6.354  -1.666  0.4392 -1.0676  1.3920
   32MOL0     H 4303   4.615   6.419  -1.486 -0.0646 -0.8361 -0.9770
   32MOL0     H 4304   4.925   6.758  -1.352 -1.0972  0.8846 -0.3600
   32MOL0     H 4305   5.070   6.800  -1.180  0.1800 -0.7502 -0.4354
   32MOL0     H 4306   5.530   7.503   0.334  0.2986  0.8196 -1.2003
   32MOL0     H 4307   5.351   7.659   0.446 -0.1066  0.3393 -0.4224
   32MOL0     H 4308   4.989   7.737   0.551  0.2936  1.3107  0.5573
   32MOL0     H 4309   4.782   7.807   0.669  0.8485  0.7828 -0.2932
   32MOL0     H 4310   4.577   7.871   0.756 -5.1751 -0.0017 -0.5874
   32MOL0     H 4311   4.680   8.007   0.711 -1.2391  0.7644  0.8788
   32MOL0     H 4312   4.387   8.020   0.758  1.4824 -1.0845  1.8513
   32MOL0     H 4313   4.463   8.140   0.641  1.6792 -1.0703 -0.9692
   32MOL0     H 4314   4.456   8.227   0.855  0.8894  0.1192 -3.8020
   32MOL0     H 4315   4.627   8.180   0.830 -0.2532  0.3378 -1.1093
   32MOL0     H 4316   4.585   8.096   1.053 -2.0383 -0.1039  2.0013
   32MOL0     H 4317   4.538   7.944   0.963  1.6464  0.5406 -0.9440
   32MOL0     H 4318   4.179   8.096   1.113 -0.1076  0.9154 -0.6819
   32MOL0     H 4319   4.594   7.912   0.322  0.1065 -0.3550  0.9149
   32MOL0     H 4320   4.800   7.851   0.186 -0.7712  1.6180  0.2198
   33MOL0     O 4321   6.985  10.930  11.165 -0.7010 -0.5671  0.0536
   33MOL0     C 4322   6.924  10.872  11.252  0.8178  0.5370  0.4645
   33MOL0     O 4323   6.833  10.781  11.237 -0.2425  0.7267  0.1101
   33MOL0     C 4324   6.785  10.760  11.113 -1.6316  0.1194 -0.9826
   33MOL0     C 4325   6.726  10.867  11.049  0.7056 -0.4395 -0.1342
   33MOL0     C 4326   6.693  10.863  10.914  1.1380 -0.0761 -0.9008
   33MOL0     C 4327   6.704  10.748  10.842 -0.0162  0.6720  0.6575
   33MOL0     O 4328   6.685  10.750  10.706 -0.5225  0.1025 -0.1616
   33MOL0     C 4329   6.795  10.701  10.625  0.5345  0.5580  0.1425
   33MOL0     C 4330   6.744  10.687  10.486  0.7744 -1.3931 -0.3490
   33MOL0     C 4331   6.637  10.590  10.473  0.2605 -0.0284 -0.5075
   33MOL0     C 4332   6.620  10.554  10.324  0.0562 -0.4976  0.1450
   33MOL0     C 4333   6.492  10.472  10.315 -1.0284  0.4005  0.3260
   33MOL0     C 4334   6.474  10.432  10.172  0.0621  0.5770  0.3549
   33MOL0     C 4335   6.335  10.365  10.139  0.0948  0.0411  0.8260
   33MOL0     C 4336   6.339  10.294  10.000 -0.4143 -0.0092 -0.3190
   33MOL0     N 4337   6.367  10.147  10.025  0.1160 -0.7294  0.2130
   33MOL0     C 4338   6.482  10.112  10.082 -0.0083  1.4373  0.6403
   33MOL0     C 4339   6.465   9.983  10.131  0.3743 -0.4770  0.9456
   33MOL0     C 4340   6.565   9.904  10.206 -0.1769  0.6300  0.5462
   33MOL0     C 4341   6.693   9.978  10.231 -0.4913  0.5076  0.1105
   33MOL0     C 4342   6.684  10.080  10.349  0.7204 -0.3210  0.4483
   33MOL0     C 4343   6.690  10.025  10.494  0.0580  0.0167 -0.6943
   33MOL0     O 4344   6.817   9.979  10.523  0.1017  0.9089 -0.4706
   33MOL0     C 4345   6.877  10.052  10.616 -0.3749 -1.2519  0.0428
   33MOL0     C 4346   6.869  10.028  10.749 -0.1011 -0.3239  0.8874
   33MOL0     C 4347   6.927  10.105  10.859 -0.8043  0.0941  0.8825
   33MOL0     C 4348   6.906  10.049  10.998 -0.2079 -0.6386 -0.6711
   33MOL0     C 4349   6.996  10.228  10.820  0.2759  0.1829 -0.0487
   33MOL0     C 4350   7.055  10.329  10.907 -0.3800  0.7261  0.1432
   33MOL0     O 4351   7.071  10.285  11.032  0.3016  0.7792  0.1563
   33MOL0     C 4352   7.127  10.374  11.119  0.3570  0.0464 -0.5407
   33MOL0     C 4353   7.264  10.397  11.111  0.5819  1.1408 -0.5545
   33MOL0     C 4354   7.335  10.475  11.199 -0.8853  0.2632 -0.2509
   33MOL0     C 4355   7.269  10.546  11.306 -0.0522  0.2754  0.5254
   33MOL0     O 4356   7.348  10.631  11.376 -0.4924  0.1391  0.6155
   33MOL0     C 4357   7.274  10.748  11.418 -0.5380  0.4085 -0.1732
   33MOL0     C 4358   7.359  10.851  11.498 -0.3153 -0.2453 -0.1406
   33MOL0     C 4359   7.427  10.807  11.627  0.9613  0.0076  0.8340
   33MOL0     C 4360   7.318  10.781  11.730 -0.4006 -0.5720 -0.1049
   33MOL0     C 4361   7.363  10.697  11.857 -0.4700 -0.2797  0.3737
   33MOL0     C 4362   7.255  10.675  11.966  0.2607  0.2995  0.5047
   33MOL0     C 4363   7.266  10.796  12.065 -0.2634  1.0829 -0.6054
   33MOL0     C 4364   7.209  10.779  12.209 -0.4649  0.6519 -0.0591
   33MOL0    Cl 4365   7.032  10.755  12.198 -0.0405 -0.2342 -0.0189
   33MOL0     C 4366   7.135  10.529  11.315 -0.1164 -0.2194 -0.8188
   33MOL0     C 4367   7.060  10.450  11.226  0.7350  0.5856 -0.3694
   33MOL0     O 4368   7.096  10.434  10.860 -0.1734 -0.4964 -0.2579
   33MOL0     C 4369   7.004  10.246  10.674  0.8012 -0.0910  0.6004
   33MOL0     C 4370   6.941  10.167  10.574 -0.2652  0.9449 -0.1901
   33MOL0     N 4371   6.336   9.946  10.088  0.8028  0.2819  0.2221
   33MOL0     N 4372   6.275  10.044  10.026 -1.1168 -0.1570 -0.5056
   33MOL0     C 4373   6.744  10.636  10.911  0.2005  0.4005  0.0939
   33MOL0     C 4374   6.799  10.646  11.043  0.8937  0.3751 -0.2781
   33MOL0     C 4375   6.958  10.906  11.395 -0.6936  0.2797 -0.1177
   33MOL0     C 4376   6.903  10.841  11.501  0.6467  0.9893 -0.2252
   33MOL0     C 4377   6.921  10.880  11.636 -0.5937  0.7975  0.8534
   33MOL0     C 4378   6.990  11.000  11.661  1.0394  0.5823 -0.4010
   33MOL0     O 4379   7.001  11.033  11.795  0.2652 -0.1963  0.1589
   33MOL0     C 4380   7.050  11.163  11.836  0.7737  0.2326  0.4489
   33MOL0     C 4381   6.989  11.210  11.969  0.0354 -0.3894  0.2605
   33MOL0     C 4382   6.993  11.116  12.094  0.0753  0.0130 -0.0371
   33MOL0     C 4383   6.976  11.204  12.214 -0.0346  0.5857 -0.2273
   33MOL0     C 4384   6.990  11.124  12.342 -0.2592  0.6448  0.0922
   33MOL0     C 4385   7.005  11.054  12.438 -0.2343 -0.2644 -0.8447
   33MOL0     C 4386   7.063  11.056  11.554 -0.7791  0.4192 -0.0664
   33MOL0     C 4387   7.046  11.015  11.421  0.0727 -0.9220 -0.4134
   33MOL0     H 4388   6.701  10.958  11.102  1.5596 -0.1695 -0.1816
   33MOL0     H 4389   6.651  10.952  10.868 -3.1023 -3.0749 -3.4497
   33MOL0     H 4390   6.881  10.768  10.633  2.0817 -0.9331 -2.5870
   33MOL0     H 4391   6.821  10.599  10.652 -1.7519 -0.3857 -0.8933
   33MOL0     H 4392   6.718  10.789  10.455  1.4044 -0.2315  2.6217
   33MOL0     H 4393   6.828  10.643  10.432 -0.9041 -4.8596 -0.3637
   33MOL0     H 4394   6.649  10.504  10.538  2.7694  0.8922  0.3615
   33MOL0     H 4395   6.546  10.642  10.505 -0.3881 -1.2831 -0.2642
   33MOL0     H 4396   6.612  10.644  10.263  0.0232 -1.8520 -1.9625
   33MOL0     H 4397   6.713  10.504  10.294  0.4584 -0.0412  0.6032
   33MOL0     H 4398   6.499  10.376  10.367 -0.5129 -1.4298 -2.8253
   33MOL0     H 4399   6.412  10.533  10.358 -1.1091 -1.1934  2.6664
   33MOL0     H 4400   6.490  10.515  10.102  1.6338 -0.9224 -1.1493
   33MOL0     H 4401   6.558  10.363  10.162  0.7846  0.6823  4.1349
   33MOL0     H 4402   6.326  10.288  10.217  2.5446 -0.2889  0.8563
   33MOL0     H 4403   6.255  10.439  10.144  1.1524  1.2382  0.3633
   33MOL0     H 4404   6.413  10.327   9.927  0.4668 -1.4492 -0.0971
   33MOL0     H 4405   6.237  10.293   9.960 -2.1593  2.5599  3.3555
   33MOL0     H 4406   6.569  10.176  10.094  0.1154  0.8089  3.7756
   33MOL0     H 4407   6.528   9.867  10.302 -0.4527  0.5122  0.3957
   33MOL0     H 4408   6.586   9.820  10.139 -2.3581  0.4846 -0.0312
   33MOL0     H 4409   6.732  10.016  10.136  0.4657  0.5242  0.4991
   33MOL0     H 4410   6.771   9.912  10.270 -1.8995 -0.5217  1.3061
   33MOL0     H 4411   6.588  10.132  10.344  0.4938 -0.7981 -0.2295
   33MOL0     H 4412   6.770  10.146  10.331  1.7821 -1.2979  1.7643
   33MOL0     H 4413   6.608   9.952  10.499 -2.8049  2.9477 -1.3835
   33MOL0     H 4414   6.656  10.095  10.571 -0.0108 -0.0282 -0.6833
   33MOL0     H 4415   6.822   9.933  10.774  1.9395 -1.6374 -0.0023
   33MOL0     H 4416   6.858  10.130  11.054  1.1044  0.8731 -1.6278
   33MOL0     H 4417   6.845   9.959  10.996  0.3251 -1.0485 -3.7041
   33MOL0     H 4418   7.004  10.022  11.038  1.5426 -2.2077 -5.3266
   33MOL0     H 4419   7.314  10.352  11.026  0.8978  0.6272 -0.1044
   33MOL0     H 4420   7.442  10.487  11.189 -0.4050 -1.2170  2.2834
   33MOL0     H 4421   7.253  10.797  11.322  3.8024 -0.7167 -1.9465
   33MOL0     H 4422   7.190  10.722  11.482  0.9016 -0.9119  1.2842
   33MOL0     H 4423   7.439  10.881  11.429  0.3988  2.3586  1.6707
   33MOL0     H 4424   7.300  10.941  11.519 -0.1495  0.0066 -0.7268
   33MOL0     H 4425   7.492  10.883  11.671  1.3699 -0.0288  0.3016
   33MOL0     H 4426   7.492  10.720  11.612  0.9026 -0.2688  2.0581
   33MOL0     H 4427   7.272  10.876  11.760  4.5957  1.4015  2.4744
   33MOL0     H 4428   7.235  10.724  11.686 -0.1037 -3.2543  2.4884
   33MOL0     H 4429   7.451  10.743  11.902 -1.0413  1.8905 -0.5911
   33MOL0     H 4430   7.392  10.601  11.813  1.6236 -1.1641  3.4107
   33MOL0     H 4431   7.160  10.669  11.913  0.0821  1.1928  0.7025
   33MOL0     H 4432   7.264  10.579  12.018 -2.9420 -2.4621 -3.3627
   33MOL0     H 4433   7.226  10.883  12.012 -2.1999 -0.7198 -2.2312
   33MOL0     H 4434   7.374  10.813  12.076 -0.3164  2.0080 -1.3638
   33MOL0     H 4435   7.239  10.864  12.272  1.6049  0.1005 -0.2458
   33MOL0     H 4436   7.237  10.690  12.265 -1.0279 -0.5153 -1.5752
   33MOL0     H 4437   7.071  10.585  11.382 -3.4089 -1.1804 -2.8943
   33MOL0     H 4438   6.951  10.450  11.229  0.7177  0.4753 -0.8104
   33MOL0     H 4439   7.047  10.334  10.626 -1.2043  0.7434  0.2334
   33MOL0     H 4440   6.958  10.201  10.472  0.0888 -0.4296 -0.6150
   33MOL0     H 4441   6.742  10.541  10.857  1.1491 -0.4795  1.5226
   33MOL0     H 4442   6.847  10.560  11.090 -1.8135 -0.8251  0.4977
   33MOL0     H 4443   6.826  10.764  11.504  1.4532  0.0273  4.6780
   33MOL0     H 4444   6.866  10.826  11.712 -2.1700 -2.8050 -2.5126
   33MOL0     H 4445   7.159  11.158  11.836  0.7637 -1.3698  2.7373
   33MOL0     H 4446   7.016  11.242  11.769 -0.7206  0.9707  2.0116
   33MOL0     H 4447   6.882  11.229  11.959 -0.1471 -0.6318  1.5696
   33MOL0     H 4448   7.033  11.305  12.001  0.1801 -1.4802  3.7505
   33MOL0     H 4449   7.086  11.059  12.097 -0.6306 -1.1416  0.4758
   33MOL0     H 4450   6.917  11.037  12.093  1.7257 -1.6995 -3.1436
   33MOL0     H 4451   6.878  11.252  12.205 -1.0496 -0.8801  2.0394
   33MOL0     H 4452   7.049  11.285  12.212  0.1474  0.4444  0.4219
   33MOL0     H 4453   7.010  10.998  12.529 -0.3124  3.0137  1.3852
   33MOL0     H 4454   7.135  11.136  11.570  1.7092 -1.2325 -2.3196
   33MOL0     H 4455   7.094  11.071  11.342 -0.6676  0.9907  0.4280
   34MOL0     O 4456   3.624   1.477  10.870 -0.0994 -0.3154  0.3015
   34MOL0     C 4457   3.692   1.427  10.958 -0.5472  0.5057  0.0392
   34MOL0     O 4458   3.660   1.413  11.085 -0.0791 -0.2829 -0.5604
   34MOL0     C 4459   3.553   1.484  11.138 -0.0791  0.6692 -0.6745
   34MOL0     C 4460   3.467   1.423  11.234 -0.7553 -0.0246  0.5603
   34MOL0     C 4461   3.352   1.484  11.289  0.0503  0.1719 -0.4470
   34MOL0     C 4462   3.322   1.609  11.255  0.0802  0.5155 -0.2226
   34MOL0     O 4463   3.225   1.672  11.328  0.3079  0.0696  0.5196
   34MOL0     C 4464   3.098   1.670  11.267  0.6117 -0.1745 -1.0597
   34MOL0     C 4465   2.998   1.740  11.364 -0.0378  0.7741 -0.0171
   34MOL0     C 4466   3.017   1.896  11.372 -0.7155  0.4960 -0.1719
   34MOL0     C 4467   2.913   1.964  11.470 -0.7136  0.5014 -0.0055
   34MOL0     C 4468   2.945   2.103  11.509 -0.1934 -0.0727 -0.2060
   34MOL0     C 4469   2.909   2.201  11.393 -0.4069  0.8402  0.2345
   34MOL0     C 4470   2.936   2.347  11.434  0.8244  1.0354 -0.2619
   34MOL0     C 4471   2.920   2.452  11.329  0.4466  0.5265  0.4789
   34MOL0     N 4472   2.779   2.476  11.299  0.0083  0.1157 -0.2930
   34MOL0     C 4473   2.713   2.422  11.192 -0.3500 -0.7962  0.5145
   34MOL0     C 4474   2.588   2.462  11.212 -0.3990  0.4714  0.3371
   34MOL0     C 4475   2.470   2.413  11.129  0.3895  0.9409  0.2713
   34MOL0     C 4476   2.453   2.500  11.010  0.0899  0.0975 -0.2520
   34MOL0     C 4477   2.382   2.631  11.041  1.1502  0.4814 -1.7586
   34MOL0     C 4478   2.386   2.741  10.924  0.3453  0.5441 -0.1621
   34MOL0     O 4479   2.279   2.842  10.937  0.4451 -0.4066  0.3532
   34MOL0     C 4480   2.145   2.801  10.921  0.0285  1.0742 -0.4408
   34MOL0     C 4481   2.106   2.687  10.850 -0.0504 -0.1766  0.1585
   34MOL0     C 4482   1.964   2.655  10.841  0.0235 -0.7293  0.4128
   34MOL0     C 4483   1.936   2.542  10.747 -0.4688 -0.0107 -0.8753
   34MOL0     C 4484   1.863   2.735  10.908  0.5559 -0.1384  0.7719
   34MOL0     C 4485   1.718   2.709  10.902 -0.0804  1.1821 -0.8393
   34MOL0     O 4486   1.631   2.817  10.901  0.2203 -0.3570 -0.2520
   34MOL0     C 4487   1.502   2.782  10.872  1.3078 -0.2661  0.1546
   34MOL0     C 4488   1.408   2.748  10.976  0.2502 -0.4963  0.6049
   34MOL0     C 4489   1.269   2.716  10.942 -0.1479  0.4656 -0.0901
   34MOL0     C 4490   1.223   2.726  10.812 -0.4659  0.3327  0.5372
   34MOL0     O 4491   1.093   2.695  10.768 -0.2188  0.8183  0.4594
   34MOL0     C 4492   0.994   2.659  10.864 -0.2967 -0.5674  0.4284
   34MOL0     C 4493   0.854   2.670  10.802  0.9421  0.3108  0.6526
   34MOL0     C 4494   0.750   2.605  10.884  0.7974  0.0329  0.0720
   34MOL0     C 4495   0.618   2.678  10.869 -0.3561 -0.1056 -0.2722
   34MOL0     C 4496   0.545   2.662  10.729 -0.1656 -0.6704  0.1362
   34MOL0     C 4497   0.489   2.522  10.693  0.7604  0.1254 -0.0468
   34MOL0     C 4498   0.389   2.462  10.795  0.9151 -1.1771 -0.0741
   34MOL0     C 4499   0.259   2.543  10.815  0.5905 -0.6785 -0.5432
   34MOL0    Cl 4500   0.203   2.566  10.651  0.0863  0.3933  0.2493
   34MOL0     C 4501   1.313   2.770  10.716 -0.4188 -0.2056  0.1377
   34MOL0     C 4502   1.444   2.798  10.746 -0.2686  1.4724 -0.1023
   34MOL0     O 4503   1.676   2.587  10.913 -0.5858  0.0881 -0.0163
   34MOL0     C 4504   1.908   2.854  10.971  0.1918 -0.5308  0.0366
   34MOL0     C 4505   2.044   2.884  10.977 -0.3702  0.5389 -0.0705
   34MOL0     N 4506   2.586   2.556  11.317  0.1718 -0.3513  0.4772
   34MOL0     N 4507   2.700   2.551  11.376 -0.4985  0.0105 -0.0828
   34MOL0     C 4508   3.406   1.677  11.163  0.5529  0.1015  0.1749
   34MOL0     C 4509   3.516   1.614  11.105  0.1002 -0.5608 -0.0615
   34MOL0     C 4510   3.830   1.380  10.924 -0.6530 -0.0731  1.3762
   34MOL0     C 4511   3.894   1.435  10.800 -0.7236  0.1526 -0.9501
   34MOL0     C 4512   4.010   1.373  10.755 -0.5467  0.5541 -0.2994
   34MOL0     C 4513   4.078   1.281  10.827  0.2633 -0.3250 -0.7769
   34MOL0     O 4514   4.191   1.251  10.762 -0.6081  0.2074  0.7718
   34MOL0     C 4515   4.280   1.159  10.836  0.1351 -0.8400 -0.3452
   34MOL0     C 4516   4.391   1.125  10.740 -1.6122 -0.7882 -0.0933
   34MOL0     C 4517   4.480   1.250  10.733 -0.7648 -0.3016 -0.3912
   34MOL0     C 4518   4.586   1.253  10.625 -0.1308 -0.7563  0.3997
   34MOL0     C 4519   4.540   1.284  10.486 -0.4548  0.5320 -0.1567
   34MOL0     C 4520   4.506   1.320  10.375 -0.7901  0.6578 -0.9662
   34MOL0     C 4521   4.014   1.227  10.939  0.2303  0.5129 -0.4330
   34MOL0     C 4522   3.892   1.267  10.986 -0.0019 -0.8230 -0.1979
   34MOL0     H 4523   3.495   1.323  11.266 -3.9766 -1.1312  0.2332
   34MOL0     H 4524   3.286   1.437  11.362 -0.3007  4.6915  2.5776
   34MOL0     H 4525   3.098   1.722  11.171 -0.3511  1.0936 -0.4004
   34MOL0     H 4526   3.068   1.567  11.248  0.3198 -0.1540 -0.7313
   34MOL0     H 4527   2.898   1.731  11.322 -0.3131  0.3194  0.7189
   34MOL0     H 4528   3.003   1.684  11.458  3.1548  0.6954 -0.1326
   34MOL0     H 4529   3.116   1.909  11.418 -1.1050 -0.5896  1.0464
   34MOL0     H 4530   3.017   1.948  11.276  1.2092 -1.0836 -1.1081
   34MOL0     H 4531   2.817   1.952  11.418  0.4344  0.2172 -2.1596
   34MOL0     H 4532   2.906   1.896  11.556 -3.0330  0.3551 -0.2321
   34MOL0     H 4533   2.875   2.118  11.591 -0.6454 -0.1713 -0.5676
   34MOL0     H 4534   3.050   2.114  11.540 -0.1464 -2.5587  0.7423
   34MOL0     H 4535   2.971   2.185  11.304  0.7843  0.6526  1.0603
   34MOL0     H 4536   2.810   2.171  11.360  0.3043 -0.2819 -0.9810
   34MOL0     H 4537   2.880   2.375  11.524 -3.3107 -1.0909 -1.8933
   34MOL0     H 4538   3.044   2.339  11.443  0.7620 -1.4655 -0.9039
   34MOL0     H 4539   2.962   2.431  11.230 -0.6812  1.7844 -0.3051
   34MOL0     H 4540   2.968   2.544  11.365  2.4982  0.1498 -1.0942
   34MOL0     H 4541   2.746   2.347  11.122 -3.4989 -1.9387  0.1241
   34MOL0     H 4542   2.490   2.308  11.104  3.0401  0.9049  2.0803
   34MOL0     H 4543   2.374   2.417  11.182 -1.4160  1.0654 -2.7886
   34MOL0     H 4544   2.390   2.440  10.944 -0.5869  0.4964  0.0214
   34MOL0     H 4545   2.554   2.500  10.967  0.4437  2.2264  0.4488
   34MOL0     H 4546   2.431   2.682  11.124  0.1199 -0.7141 -0.3610
   34MOL0     H 4547   2.278   2.619  11.072  1.2497 -0.0802 -1.6207
   34MOL0     H 4548   2.376   2.686  10.830 -0.7660 -2.0288  1.3600
   34MOL0     H 4549   2.485   2.787  10.917  1.9423 -2.5471  0.5126
   34MOL0     H 4550   2.183   2.639  10.791  2.3268  1.7940  1.4722
   34MOL0     H 4551   1.874   2.474  10.807 -0.6526  1.8801  1.2046
   34MOL0     H 4552   1.883   2.580  10.659 -2.9743 -1.2818 -0.0272
   34MOL0     H 4553   2.023   2.489  10.708 -0.7512 -0.5496 -0.7920
   34MOL0     H 4554   1.438   2.733  11.079  0.4644 -1.0681  0.4656
   34MOL0     H 4555   1.215   2.666  11.022  1.0040 -0.3209  0.2207
   34MOL0     H 4556   1.015   2.556  10.893 -2.3491 -2.2791 -3.4696
   34MOL0     H 4557   1.011   2.726  10.949  1.8382 -0.4496 -0.0279
   34MOL0     H 4558   0.824   2.770  10.772 -0.5347  0.1719  1.5526
   34MOL0     H 4559   0.868   2.617  10.707  2.5765  0.7760  0.5994
   34MOL0     H 4560   0.775   2.607  10.990  0.8900 -0.6161  0.0670
   34MOL0     H 4561   0.751   2.499  10.858  3.7946 -0.1538  0.4886
   34MOL0     H 4562   0.551   2.633  10.942 -0.8632  1.8950  0.5685
   34MOL0     H 4563   0.625   2.784  10.894  1.3696 -0.0489 -0.8826
   34MOL0     H 4564   0.616   2.683  10.649 -0.3089 -1.9595 -0.3530
   34MOL0     H 4565   0.462   2.734  10.734  1.8891  1.7530  2.3991
   34MOL0     H 4566   0.437   2.531  10.597 -2.0607 -2.0670  1.1295
   34MOL0     H 4567   0.562   2.442  10.674  0.4652 -1.1817  3.4926
   34MOL0     H 4568   0.446   2.456  10.888 -1.7268  1.2456  1.8869
   34MOL0     H 4569   0.361   2.362  10.762  1.1829 -0.4988 -2.5543
   34MOL0     H 4570   0.270   2.646  10.851  1.3955 -0.6804 -0.7706
   34MOL0     H 4571   0.188   2.480  10.870 -0.0050 -0.4977 -1.0979
   34MOL0     H 4572   1.270   2.772  10.617  1.1652 -0.3840 -0.5915
   34MOL0     H 4573   1.503   2.831  10.661 -3.1291 -1.0706 -3.3333
   34MOL0     H 4574   1.834   2.912  11.024  0.5493 -0.3643  0.3551
   34MOL0     H 4575   2.072   2.980  11.019  2.0849  0.1870 -0.7473
   34MOL0     H 4576   3.376   1.779  11.144  0.3636 -0.2971 -1.8455
   34MOL0     H 4577   3.582   1.665  11.035 -0.4524 -2.1523 -1.8158
   34MOL0     H 4578   3.844   1.512  10.742 -1.9213  0.8385  0.9230
   34MOL0     H 4579   4.049   1.395  10.656 -1.1564 -0.9991 -0.9333
   34MOL0     H 4580   4.315   1.213  10.924  1.1856  0.8138 -1.6986
   34MOL0     H 4581   4.235   1.065  10.869  0.6930 -0.9662  0.0708
   34MOL0     H 4582   4.360   1.096  10.639  0.3831  0.2068 -1.0596
   34MOL0     H 4583   4.446   1.037  10.777 -0.3335  0.5362  1.2981
   34MOL0     H 4584   4.541   1.236  10.823  1.4514  1.3981 -1.5559
   34MOL0     H 4585   4.430   1.347  10.746 -0.2175 -0.2075  1.2785
   34MOL0     H 4586   4.634   1.155  10.630 -0.2927 -0.7897  1.5615
   34MOL0     H 4587   4.666   1.324  10.651  0.4696 -0.0262 -2.9823
   34MOL0     H 4588   4.469   1.345  10.278 -3.1696 -2.8143 -1.1403
   34MOL0     H 4589   4.060   1.137  10.980 -1.0215 -0.5299 -1.2102
   34MOL0     H 4590   3.857   1.216  11.075 -1.1853 -0.4393 -0.4333
   35MOL0     O 4591   7.982  11.402   4.655 -0.3595 -0.5331 -0.4892
   35MOL0     C 4592   7.920  11.303   4.694  0.3358  0.8120  0.1027
   35MOL0     O 4593   7.975  11.206   4.770 -0.0483  0.3410 -0.0454
   35MOL0     C 4594   8.095  11.245   4.834  0.8051  0.1658 -0.2345
   35MOL0     C 4595   8.218  11.254   4.770 -0.2542 -0.0120 -0.0328
   35MOL0     C 4596   8.328  11.307   4.830 -0.4977  0.0037  0.1062
   35MOL0     C 4597   8.323  11.358   4.961  0.3213  0.8384  1.3155
   35MOL0     O 4598   8.423  11.429   5.012  0.6713 -0.3467  0.6631
   35MOL0     C 4599   8.443  11.437   5.149 -0.0640 -0.3385 -0.9326
   35MOL0     C 4600   8.582  11.492   5.161  0.7152  0.1864  0.4953
   35MOL0     C 4601   8.587  11.644   5.135  0.6885 -0.1700  0.5981
   35MOL0     C 4602   8.712  11.706   5.086 -0.4533  0.1971  0.5004
   35MOL0     C 4603   8.709  11.859   5.090 -0.2676 -0.1575 -0.3008
   35MOL0     C 4604   8.816  11.925   4.998 -0.4823 -0.1355 -0.5256
   35MOL0     C 4605   8.964  11.863   5.031  0.9861  0.6161  0.6430
   35MOL0     C 4606   8.997  11.898   5.170  0.1139 -0.3075 -0.8730
   35MOL0     N 4607   9.121  11.827   5.210 -0.2403  0.0907  0.0137
   35MOL0     C 4608   9.147  11.691   5.205 -0.4535 -0.3362  0.6032
   35MOL0     C 4609   9.282  11.681   5.192  0.3320  0.5485 -0.8276
   35MOL0     C 4610   9.344  11.541   5.191  0.0157  0.2293  0.2846
   35MOL0     C 4611   9.494  11.548   5.150 -0.7300 -0.1243  0.2920
   35MOL0     C 4612   9.538  11.436   5.037  1.3492 -0.5213 -1.0341
   35MOL0     C 4613   9.682  11.405   5.031  0.0170 -0.0647 -0.0839
   35MOL0     O 4614   9.712  11.295   4.952 -0.1676 -0.1858 -0.2482
   35MOL0     C 4615   9.848  11.274   4.921  0.2964 -0.3928 -0.2781
   35MOL0     C 4616   9.969  11.332   4.972  0.8252  0.0113  0.6124
   35MOL0     C 4617  10.095  11.269   4.942 -0.3933 -0.5134 -0.1551
   35MOL0     C 4618  10.212  11.339   5.013  0.3564 -0.9321 -0.0184
   35MOL0     C 4619  10.102  11.152   4.860 -0.6121 -0.0724  0.2214
   35MOL0     C 4620  10.231  11.094   4.790 -0.8629  0.3915 -0.8227
   35MOL0     O 4621  10.216  11.001   4.686  0.4926 -0.0247 -0.2652
   35MOL0     C 4622  10.328  10.945   4.636  0.1965  0.0175 -0.0022
   35MOL0     C 4623  10.345  10.949   4.504  0.5023 -0.0566  0.3057
   35MOL0     C 4624  10.459  10.888   4.437 -0.2869 -0.7981  0.3479
   35MOL0     C 4625  10.555  10.832   4.520 -0.3338 -0.2130 -0.7929
   35MOL0     O 4626  10.675  10.800   4.461 -0.5235 -0.7535  0.1277
   35MOL0     C 4627  10.724  10.664   4.451 -0.6915 -0.3092 -0.0881
   35MOL0     C 4628  10.825  10.640   4.570 -0.8664 -0.7314 -0.4168
   35MOL0     C 4629  10.945  10.740   4.560 -0.4192  0.4251  0.4477
   35MOL0     C 4630  11.027  10.744   4.432  0.4780 -0.0376  0.4915
   35MOL0     C 4631  11.149  10.838   4.445  0.2772 -0.0274  0.3840
   35MOL0     C 4632  11.274  10.741   4.459  0.1543  0.0643 -0.6147
   35MOL0     C 4633  11.282  10.685   4.610  0.4892  0.2346  0.6520
   35MOL0     C 4634  11.394  10.595   4.635  0.5672  0.0850  0.3665
   35MOL0    Cl 4635  11.389  10.453   4.518  0.3701 -0.2099 -0.1997
   35MOL0     C 4636  10.541  10.842   4.664 -0.9381 -1.3119  0.9615
   35MOL0     C 4637  10.422  10.885   4.719  0.1217 -0.7221  0.7928
   35MOL0     O 4638  10.344  11.132   4.831  0.3012  0.2630  0.9571
   35MOL0     C 4639   9.987  11.110   4.800  0.1165  0.1454  1.0917
   35MOL0     C 4640   9.864  11.166   4.838  0.2844  0.6064 -0.7952
   35MOL0     N 4641   9.340  11.804   5.189 -0.4653 -0.5134  0.3848
   35MOL0     N 4642   9.246  11.884   5.205  0.3811 -0.2362 -0.1394
   35MOL0     C 4643   8.194  11.339   5.028 -0.0834 -0.2609  0.7370
   35MOL0     C 4644   8.083  11.283   4.968  0.0886 -0.9919 -0.2311
   35MOL0     C 4645   7.776  11.285   4.654 -0.0542  0.6317 -0.1260
   35MOL0     C 4646   7.701  11.183   4.710  0.2774 -1.1995 -0.1251
   35MOL0     C 4647   7.565  11.165   4.679 -0.4533  0.5666  0.0518
   35MOL0     C 4648   7.505  11.244   4.584  0.6389 -1.3363 -0.5870
   35MOL0     O 4649   7.375  11.224   4.546  0.2369 -0.3225 -0.4207
   35MOL0     C 4650   7.304  11.115   4.602  0.1445  0.8780  0.7786
   35MOL0     C 4651   7.166  11.149   4.576  0.0980 -0.2688  0.3006
   35MOL0     C 4652   7.074  11.069   4.664 -0.1721 -0.9685 -0.5158
   35MOL0     C 4653   6.926  11.128   4.656  0.4505  0.5731 -0.6550
   35MOL0     C 4654   6.914  11.269   4.697 -0.1365 -0.6434  0.0041
   35MOL0     C 4655   6.903  11.385   4.729  0.3008  0.1444  0.1645
   35MOL0     C 4656   7.566  11.353   4.529  0.0860 -0.3001 -1.0544
   35MOL0     C 4657   7.703  11.375   4.564  0.1704 -0.9230  0.5952
   35MOL0     H 4658   8.220  11.209   4.671 -1.1205 -2.3964  0.9609
   35MOL0     H 4659   8.415  11.316   4.765 -1.7683  2.1023 -1.4400
   35MOL0     H 4660   8.385  11.514   5.199  1.2900  0.6601 -0.8320
   35MOL0     H 4661   8.422  11.338   5.191 -2.3536  0.4713 -0.0053
   35MOL0     H 4662   8.627  11.476   5.259 -0.3023  2.8745  1.4866
   35MOL0     H 4663   8.643  11.441   5.085  0.3119 -1.0882  1.0001
   35MOL0     H 4664   8.513  11.676   5.061 -0.4898  0.1632  1.8965
   35MOL0     H 4665   8.565  11.685   5.234  0.9093 -2.5670  1.7131
   35MOL0     H 4666   8.797  11.670   5.144 -0.3825 -2.3513 -1.0338
   35MOL0     H 4667   8.715  11.664   4.985  0.4282  0.3442  0.4552
   35MOL0     H 4668   8.608  11.887   5.061  0.0313  0.5229 -0.6966
   35MOL0     H 4669   8.725  11.903   5.189 -2.3496  1.5068 -0.6494
   35MOL0     H 4670   8.799  11.889   4.896 -1.1497 -1.7374  0.1138
   35MOL0     H 4671   8.800  12.033   4.997 -0.6602 -0.1209  1.0067
   35MOL0     H 4672   8.966  11.755   5.011  1.8436  1.0336 -1.9957
   35MOL0     H 4673   9.037  11.911   4.965  1.0769  0.2115  0.4450
   35MOL0     H 4674   8.928  11.859   5.245  1.0134  0.5013  0.4036
   35MOL0     H 4675   9.014  12.006   5.172  2.7903 -0.6132  2.3935
   35MOL0     H 4676   9.078  11.608   5.205  0.3394 -1.0576 -1.0420
   35MOL0     H 4677   9.345  11.506   5.295 -1.2349 -2.3780 -0.4861
   35MOL0     H 4678   9.292  11.470   5.125  3.9839 -0.8101 -2.1197
   35MOL0     H 4679   9.561  11.540   5.236  2.1329 -1.0253 -1.8642
   35MOL0     H 4680   9.519  11.640   5.097 -0.8983 -0.7128 -0.8466
   35MOL0     H 4681   9.506  11.478   4.941  0.8819  0.3949 -0.4912
   35MOL0     H 4682   9.483  11.343   5.052  0.2559  0.2280 -0.1470
   35MOL0     H 4683   9.711  11.379   5.134  0.2398 -1.1527 -0.4098
   35MOL0     H 4684   9.740  11.493   5.000  1.3329 -0.1590  1.9096
   35MOL0     H 4685   9.975  11.416   5.041  2.4643  0.7800 -0.4242
   35MOL0     H 4686  10.185  11.373   5.114  0.8468  3.0713 -1.0843
   35MOL0     H 4687  10.288  11.262   5.032 -1.0365 -2.7959 -1.5683
   35MOL0     H 4688  10.244  11.427   4.957  0.5482 -1.0337 -0.0695
   35MOL0     H 4689  10.272  11.002   4.443  3.2694  1.2914 -2.0543
   35MOL0     H 4690  10.477  10.894   4.330 -1.5220  0.9443  0.1991
   35MOL0     H 4691  10.635  10.600   4.450 -1.5342  0.8339  0.3201
   35MOL0     H 4692  10.780  10.655   4.358 -0.3160 -4.2338  0.3326
   35MOL0     H 4693  10.780  10.649   4.670  0.7019  0.0760  0.2458
   35MOL0     H 4694  10.857  10.536   4.561 -1.1741 -1.0507  1.6905
   35MOL0     H 4695  11.005  10.712   4.648 -3.1313 -1.4964  1.8359
   35MOL0     H 4696  10.908  10.839   4.587  2.0060  0.5717  3.8618
   35MOL0     H 4697  11.055  10.642   4.403  0.3381  0.6086 -2.1613
   35MOL0     H 4698  10.960  10.780   4.354 -1.1407 -0.1929  1.7541
   35MOL0     H 4699  11.143  10.902   4.534 -2.3378  0.7318 -0.2550
   35MOL0     H 4700  11.161  10.896   4.353 -2.1351  1.6714  1.0338
   35MOL0     H 4701  11.261  10.661   4.385 -0.0221  0.2970 -0.8372
   35MOL0     H 4702  11.370  10.788   4.438  0.9985 -1.5249 -0.4546
   35MOL0     H 4703  11.189  10.640   4.644  0.2744 -2.5471 -2.9686
   35MOL0     H 4704  11.312  10.775   4.664  4.3818  0.3796 -1.3707
   35MOL0     H 4705  11.393  10.556   4.737 -0.1465 -0.9573 -0.0268
   35MOL0     H 4706  11.494  10.639   4.621  0.7794  0.2220  2.1132
   35MOL0     H 4707  10.624  10.814   4.727  0.0236  1.9982  1.3762
   35MOL0     H 4708  10.395  10.877   4.824  0.1446 -0.9490  0.7818
   35MOL0     H 4709   9.993  11.027   4.731  0.3810  1.6433 -0.7868
   35MOL0     H 4710   9.778  11.121   4.789  0.9555  0.1680 -1.5901
   35MOL0     H 4711   8.184  11.389   5.124  1.7491 -0.5443  1.1001
   35MOL0     H 4712   7.990  11.297   5.022  0.8580  3.5030  0.2686
   35MOL0     H 4713   7.748  11.108   4.772 -2.0855 -3.1944 -0.5663
   35MOL0     H 4714   7.525  11.077   4.728  0.0478  0.2759 -0.0561
   35MOL0     H 4715   7.319  11.013   4.565 -1.7532 -0.7842  4.1307
   35MOL0     H 4716   7.313  11.113   4.711  1.9636 -0.0652  0.6529
   35MOL0     H 4717   7.140  11.121   4.473  3.0132 -0.3515 -0.5162
   35MOL0     H 4718   7.155  11.258   4.579  0.4822 -0.1815 -0.8208
   35MOL0     H 4719   7.099  11.091   4.768  0.8248  1.7208 -1.2262
   35MOL0     H 4720   7.082  10.963   4.636 -1.4385 -0.5894 -2.5048
   35MOL0     H 4721   6.867  11.061   4.720 -3.6498  1.9387 -2.6367
   35MOL0     H 4722   6.900  11.115   4.550  4.0684 -1.2386 -1.4541
   35MOL0     H 4723   6.901  11.487   4.761  0.6061  0.0670  0.4356
   35MOL0     H 4724   7.499  11.414   4.469 -1.0084 -0.8821 -0.4552
   35MOL0     H 4725   7.747  11.466   4.526 -2.3463  0.5428  0.9721
   36MOL0     O 4726  10.151  10.844  11.265  0.0056  0.5135  0.3608
   36MOL0     C 4727  10.275  10.838  11.260 -0.0148  0.1284 -0.1196
   36MOL0     O 4728  10.342  10.720  11.236 -0.1266  0.7421 -0.4277
   36MOL0     C 4729  10.277  10.612  11.193 -0.2295  0.6989  0.9079
   36MOL0     C 4730  10.237  10.507  11.279  0.3622 -0.4372  0.5144
   36MOL0     C 4731  10.187  10.389  11.222 -0.1200  0.1532  0.0333
   36MOL0     C 4732  10.172  10.364  11.082  0.8060 -0.1812 -0.3094
   36MOL0     O 4733  10.124  10.245  11.028 -0.3859  0.5241  0.3252
   36MOL0     C 4734  10.059  10.145  11.107 -0.0867 -0.0046 -0.4033
   36MOL0     C 4735  10.070  10.011  11.033  0.6452  1.0373  0.5694
   36MOL0     C 4736   9.967   9.992  10.930  0.7192  0.0146 -0.1418
   36MOL0     C 4737   9.992   9.867  10.850 -0.5536 -0.0869  0.2115
   36MOL0     C 4738   9.920   9.854  10.713  0.6861  0.2728  0.4410
   36MOL0     C 4739   9.772   9.878  10.711 -0.2107  0.4520  0.0933
   36MOL0     C 4740   9.687   9.779  10.788  0.9291 -0.1726  0.9312
   36MOL0     C 4741   9.547   9.838  10.824 -0.2233  0.1238 -0.2855
   36MOL0     N 4742   9.466   9.724  10.880  0.5622 -0.1477  0.1691
   36MOL0     C 4743   9.395   9.633  10.810 -0.5067  0.5961  0.6862
   36MOL0     C 4744   9.331   9.549  10.891  0.1462 -0.6502  0.5135
   36MOL0     C 4745   9.222   9.451  10.852  0.8710 -0.7975  0.2737
   36MOL0     C 4746   9.234   9.332  10.941  0.6498  1.0342  0.4800
   36MOL0     C 4747   9.347   9.243  10.871 -0.5028  0.0314 -0.1417
   36MOL0     C 4748   9.344   9.108  10.938  1.3361  0.5054  0.1693
   36MOL0     O 4749   9.211   9.064  10.980  0.1210  0.6596  0.2784
   36MOL0     C 4750   9.130   9.018  10.868 -0.8681 -1.5973 -0.4641
   36MOL0     C 4751   9.187   8.971  10.749  0.3229 -0.1249  0.1769
   36MOL0     C 4752   9.098   8.929  10.642  0.2775 -0.6206 -1.1351
   36MOL0     C 4753   9.162   8.860  10.520 -0.7911 -0.7090 -0.2960
   36MOL0     C 4754   8.954   8.925  10.660  0.9004 -0.1616  0.0122
   36MOL0     C 4755   8.857   8.871  10.552  0.2067  0.3595  0.4898
   36MOL0     O 4756   8.728   8.864  10.590 -0.2423  0.4369 -0.2043
   36MOL0     C 4757   8.619   8.825  10.517  0.1061 -0.4852  0.3026
   36MOL0     C 4758   8.615   8.794  10.383 -0.3139  0.2030  0.7987
   36MOL0     C 4759   8.495   8.773  10.311  0.1755  0.4168 -0.1839
   36MOL0     C 4760   8.369   8.789  10.377  0.2268  0.1109  0.7386
   36MOL0     O 4761   8.254   8.783  10.299  0.4157 -0.3535 -0.3360
   36MOL0     C 4762   8.127   8.839  10.357 -0.7714 -0.6386  0.0191
   36MOL0     C 4763   8.004   8.830  10.263 -0.7418 -0.7937 -0.3383
   36MOL0     C 4764   7.879   8.881  10.335  0.7147 -0.5939 -0.2262
   36MOL0     C 4765   7.773   8.931  10.231  0.2765  0.2424 -0.6777
   36MOL0     C 4766   7.645   8.982  10.296  0.7190  0.4066  1.1981
   36MOL0     C 4767   7.668   9.115  10.353  0.3324 -0.3127 -0.0212
   36MOL0     C 4768   7.538   9.195  10.381  1.2934  0.1647 -0.8552
   36MOL0     C 4769   7.431   9.120  10.461 -0.4559  0.0794 -0.2958
   36MOL0    Cl 4770   7.310   9.230  10.510  0.3539  0.1322 -0.3171
   36MOL0     C 4771   8.374   8.805  10.517  0.1863 -0.1632 -0.0572
   36MOL0     C 4772   8.497   8.829  10.581  0.4017  0.9878 -0.3735
   36MOL0     O 4773   8.894   8.836  10.441 -0.7051 -0.3946  0.2827
   36MOL0     C 4774   8.905   8.971  10.783  0.2683  0.7773 -0.2035
   36MOL0     C 4775   8.990   9.020  10.882 -0.1666  0.7724  0.1779
   36MOL0     N 4776   9.375   9.586  11.017 -0.0723 -0.2655  0.2851
   36MOL0     N 4777   9.451   9.693  11.012  0.1171 -0.3202  0.4797
   36MOL0     C 4778  10.199  10.478  11.000 -0.3159 -0.9355  0.1962
   36MOL0     C 4779  10.257  10.596  11.057 -0.4731  0.3444  1.3688
   36MOL0     C 4780  10.358  10.949  11.301 -0.2832  0.1157  1.1025
   36MOL0     C 4781  10.499  10.939  11.286 -0.5823  0.2223  0.3473
   36MOL0     C 4782  10.576  11.055  11.301  0.4074  0.5334  0.4433
   36MOL0     C 4783  10.521  11.167  11.355  0.1511  0.0875 -0.4863
   36MOL0     O 4784  10.607  11.268  11.381 -0.3864 -0.1612 -0.3855
   36MOL0     C 4785  10.557  11.390  11.420  0.1260 -1.0816  0.1179
   36MOL0     C 4786  10.653  11.508  11.425  0.4721 -0.5877  0.0069
   36MOL0     C 4787  10.739  11.506  11.552 -0.7400 -0.0842 -0.1969
   36MOL0     C 4788  10.844  11.400  11.537 -0.0089 -0.1976 -1.2471
   36MOL0     C 4789  10.943  11.425  11.632  0.5849  0.3256 -0.1686
   36MOL0     C 4790  11.032  11.427  11.715  0.3252  0.0668 -0.0646
   36MOL0     C 4791  10.386  11.177  11.380  0.3165  0.3745 -0.5619
   36MOL0     C 4792  10.303  11.074  11.340  0.2987  0.3336 -0.7039
   36MOL0     H 4793  10.264  10.518  11.383  1.6157  0.5338  0.1299
   36MOL0     H 4794  10.167  10.311  11.295 -1.1105 -2.9664 -3.2586
   36MOL0     H 4795  10.101  10.129  11.207  0.3279 -1.0477 -0.7301
   36MOL0     H 4796   9.951  10.163  11.110 -0.3714 -1.3979 -1.3597
   36MOL0     H 4797  10.172  10.003  10.994  0.9383  0.7075  1.3645
   36MOL0     H 4798  10.055   9.930  11.106 -2.2179  1.4655  0.5729
   36MOL0     H 4799   9.865   9.982  10.969 -0.1975 -1.0471 -2.5960
   36MOL0     H 4800   9.973  10.083  10.869  0.9960  1.6095  2.1636
   36MOL0     H 4801  10.094   9.890  10.818 -0.0401  0.1318  1.8939
   36MOL0     H 4802   9.989   9.777  10.911  1.4711 -1.6819 -1.8682
   36MOL0     H 4803   9.967   9.921  10.640 -0.4265 -1.7782 -2.3279
   36MOL0     H 4804   9.952   9.759  10.669  0.4849  1.1208 -1.6444
   36MOL0     H 4805   9.764   9.978  10.753  0.3032  0.1618  0.9080
   36MOL0     H 4806   9.744   9.870  10.605  0.2487  1.1536 -0.0856
   36MOL0     H 4807   9.671   9.684  10.738  0.4375 -0.6519  1.9802
   36MOL0     H 4808   9.735   9.750  10.882  1.9723 -1.4480  0.0242
   36MOL0     H 4809   9.484   9.880  10.745 -0.6100  1.8381  0.8639
   36MOL0     H 4810   9.562   9.917  10.899 -2.8633  1.5907 -1.1567
   36MOL0     H 4811   9.382   9.637  10.702  0.3122  0.5571  0.5799
   36MOL0     H 4812   9.127   9.500  10.875 -0.1828 -2.2439 -0.8286
   36MOL0     H 4813   9.225   9.429  10.745  1.2310 -0.5204  0.2228
   36MOL0     H 4814   9.137   9.282  10.948  0.6906  0.6406 -1.2310
   36MOL0     H 4815   9.266   9.363  11.040  3.3130 -1.6791  0.6319
   36MOL0     H 4816   9.443   9.295  10.873 -1.8948  3.1103 -2.6010
   36MOL0     H 4817   9.321   9.232  10.765  1.4052  0.6003 -0.7016
   36MOL0     H 4818   9.413   9.117  11.022  0.4432  1.5799  0.8150
   36MOL0     H 4819   9.394   9.031  10.880 -1.2530  0.3933 -2.0888
   36MOL0     H 4820   9.291   8.956  10.721 -0.1798  1.5619 -3.1808
   36MOL0     H 4821   9.271   8.855  10.530 -0.6632 -1.0495 -1.6729
   36MOL0     H 4822   9.121   8.758  10.516 -2.5872 -0.0206 -0.5299
   36MOL0     H 4823   9.134   8.927  10.438 -0.0235  0.5270  0.4218
   36MOL0     H 4824   8.704   8.794  10.320 -2.7554  2.2555 -3.0443
   36MOL0     H 4825   8.501   8.749  10.206 -3.2304  0.4464 -0.4837
   36MOL0     H 4826   8.106   8.776  10.443  2.5110 -2.5881 -0.4068
   36MOL0     H 4827   8.136   8.944  10.384  0.7291 -1.1214  1.5982
   36MOL0     H 4828   8.020   8.894  10.177  0.2624 -1.1200 -0.4090
   36MOL0     H 4829   7.982   8.729  10.227 -0.4224 -0.5047 -1.3521
   36MOL0     H 4830   7.901   8.959  10.408 -1.2223 -0.1795 -0.0285
   36MOL0     H 4831   7.829   8.799  10.386 -0.7272 -0.5406 -1.4844
   36MOL0     H 4832   7.816   9.012  10.171 -0.2667 -0.3611 -1.9288
   36MOL0     H 4833   7.752   8.847  10.163 -0.0452  0.1241 -0.4307
   36MOL0     H 4834   7.602   8.915  10.371 -1.6646  0.2499 -0.1946
   36MOL0     H 4835   7.567   8.985  10.219  1.5332 -1.3404  0.2468
   36MOL0     H 4836   7.720   9.103  10.449  0.9284 -0.1316 -0.3199
   36MOL0     H 4837   7.728   9.184  10.294  2.6024 -0.5837  1.8344
   36MOL0     H 4838   7.500   9.229  10.284  0.7274  2.1498  0.0051
   36MOL0     H 4839   7.552   9.288  10.437  1.7799 -0.2695 -0.2259
   36MOL0     H 4840   7.471   9.061  10.543  0.2291  1.2180  0.2235
   36MOL0     H 4841   7.383   9.056  10.386 -0.7850 -0.1690  0.1261
   36MOL0     H 4842   8.288   8.815  10.582  2.2096  1.7121  2.5951
   36MOL0     H 4843   8.498   8.844  10.688  1.6737 -1.0617 -0.0455
   36MOL0     H 4844   8.797   8.973  10.794 -0.2690 -1.5871 -3.5639
   36MOL0     H 4845   8.951   9.057  10.977 -0.0105 -1.1736  1.0539
   36MOL0     H 4846  10.185  10.466  10.893 -0.7611  0.2461  0.1067
   36MOL0     H 4847  10.286  10.682  10.997 -0.9921  1.2101  2.3146
   36MOL0     H 4848  10.536  10.843  11.251 -3.8827 -0.1790 -2.6700
   36MOL0     H 4849  10.681  11.048  11.272  0.1649  3.4400 -1.5746
   36MOL0     H 4850  10.474  11.419  11.354 -0.9019  0.5478  2.0264
   36MOL0     H 4851  10.517  11.383  11.521  1.1052 -0.0511  0.5977
   36MOL0     H 4852  10.589  11.597  11.428  1.9973  0.5532  1.2652
   36MOL0     H 4853  10.709  11.516  11.331 -0.1599  1.2848 -0.2641
   36MOL0     H 4854  10.689  11.479  11.645  1.3832  0.7242  1.2534
   36MOL0     H 4855  10.779  11.608  11.553 -0.6617  0.0095 -3.2678
   36MOL0     H 4856  10.890  11.420  11.440  0.7773  1.2624 -0.5951
   36MOL0     H 4857  10.799  11.300  11.534 -1.7395  0.4439  0.8685
   36MOL0     H 4858  11.114  11.422  11.784  0.3557  1.9776  0.0893
   36MOL0     H 4859  10.340  11.265  11.425 -0.9898 -1.5809  2.2470
   36MOL0     H 4860  10.195  11.083  11.346  0.2201 -1.0996  0.8252
   37MOL0     O 4861   5.939   8.348  10.499 -0.4458 -0.1993 -0.1603
   37MOL0     C 4862   5.890   8.447  10.437  0.1069  0.5326 -0.5228
   37MOL0     O 4863   5.786   8.527  10.481 -0.4998  0.5819  0.0144
   37MOL0     C 4864   5.715   8.492  10.595 -0.2463 -0.6843  0.0690
   37MOL0     C 4865   5.716   8.578  10.704 -0.3569 -0.8346 -0.6974
   37MOL0     C 4866   5.645   8.541  10.825  0.3095 -0.7755  1.1466
   37MOL0     C 4867   5.573   8.424  10.834 -0.3391  0.3671  0.4567
   37MOL0     O 4868   5.503   8.392  10.945 -0.6022  0.3101 -0.2231
   37MOL0     C 4869   5.465   8.255  10.979 -0.4895  0.0725 -0.5778
   37MOL0     C 4870   5.385   8.265  11.113 -1.4918  0.6514 -0.5062
   37MOL0     C 4871   5.336   8.126  11.153 -0.2436  0.4442 -0.5541
   37MOL0     C 4872   5.309   8.119  11.302  0.3937  0.1956  0.1222
   37MOL0     C 4873   5.240   7.989  11.353 -1.6631 -0.6431  0.1421
   37MOL0     C 4874   5.304   7.859  11.329 -0.8962  0.0206  0.4047
   37MOL0     C 4875   5.459   7.859  11.361  0.1265  0.0942 -0.0547
   37MOL0     C 4876   5.519   7.719  11.359 -0.0852 -0.6532 -0.7345
   37MOL0     N 4877   5.659   7.726  11.392 -0.4362  0.6670  0.3099
   37MOL0     C 4878   5.703   7.723  11.517 -0.0000  0.5438 -0.5772
   37MOL0     C 4879   5.842   7.733  11.510  1.2963  0.1857 -0.5921
   37MOL0     C 4880   5.945   7.737  11.619 -0.6749  0.6921  1.1175
   37MOL0     C 4881   5.956   7.873  11.686  0.0595 -1.0061 -0.4228
   37MOL0     C 4882   5.866   7.909  11.801 -0.4246  1.2717  0.5843
   37MOL0     C 4883   5.900   7.830  11.930 -0.0891 -0.2794 -0.5664
   37MOL0     O 4884   5.847   7.701  11.936 -0.2157 -0.1062 -0.4056
   37MOL0     C 4885   5.766   7.680  12.042  0.0864 -0.1239 -0.2704
   37MOL0     C 4886   5.816   7.642  12.171  0.0707  0.3213  0.5027
   37MOL0     C 4887   5.725   7.624  12.282  0.2288 -0.3126 -0.8727
   37MOL0     C 4888   5.784   7.585  12.418 -0.4101  0.3142  0.5557
   37MOL0     C 4889   5.583   7.632  12.260  0.3339  0.1535  0.6296
   37MOL0     C 4890   5.478   7.620  12.364  0.0040 -0.4763 -0.0970
   37MOL0     O 4891   5.500   7.664  12.497 -0.8989  0.2809  0.3043
   37MOL0     C 4892   5.402   7.622  12.584  0.4642  0.2312 -0.1879
   37MOL0     C 4893   5.416   7.505  12.654 -0.9669 -0.1852 -0.2172
   37MOL0     C 4894   5.315   7.457  12.730  0.6564  0.7220  0.9571
   37MOL0     C 4895   5.203   7.539  12.762 -1.6088 -0.0254 -0.6092
   37MOL0     O 4896   5.100   7.469  12.830  0.8207 -0.5688  0.9801
   37MOL0     C 4897   4.974   7.529  12.874 -0.7610  0.5100 -0.2765
   37MOL0     C 4898   4.912   7.438  12.979 -0.4799 -0.3986  0.4543
   37MOL0     C 4899   4.773   7.488  13.025  0.2873  0.6634  0.1139
   37MOL0     C 4900   4.760   7.627  13.086  0.5557 -0.0798  0.1017
   37MOL0     C 4901   4.622   7.673  13.118  0.0128 -0.7495  0.3879
   37MOL0     C 4902   4.632   7.789  13.200 -0.2536 -0.5629 -0.8903
   37MOL0     C 4903   4.498   7.866  13.203  0.0122 -0.2924 -0.6710
   37MOL0     C 4904   4.505   7.966  13.325  1.0087 -0.3193 -0.3476
   37MOL0    Cl 4905   4.390   8.094  13.288  0.5580 -0.1229  0.3024
   37MOL0     C 4906   5.197   7.668  12.701  0.4924 -0.4654 -1.4008
   37MOL0     C 4907   5.295   7.708  12.606 -0.4035  0.0137  0.3986
   37MOL0     O 4908   5.368   7.581  12.319 -0.0559 -0.2613 -0.0577
   37MOL0     C 4909   5.540   7.673  12.126  0.1460 -0.3272 -0.2824
   37MOL0     C 4910   5.631   7.697  12.024  0.0810  0.8071  0.2022
   37MOL0     N 4911   5.867   7.737  11.372  0.1716 -0.5910 -1.1179
   37MOL0     N 4912   5.757   7.739  11.299  0.1199  0.4903 -0.5228
   37MOL0     C 4913   5.568   8.337  10.722 -0.3524 -0.0374 -0.3034
   37MOL0     C 4914   5.641   8.373  10.605  0.0680  0.0528  0.3253
   37MOL0     C 4915   5.970   8.494  10.325 -0.1638 -0.2961  0.2243
   37MOL0     C 4916   5.951   8.615  10.250  0.7568  0.0843  0.4028
   37MOL0     C 4917   6.030   8.654  10.142  0.3889  0.1156 -0.5543
   37MOL0     C 4918   6.148   8.581  10.114 -0.4156  0.3670 -0.4528
   37MOL0     O 4919   6.244   8.615  10.029 -0.7666  0.8757  0.3210
   37MOL0     C 4920   6.232   8.721   9.939 -0.4087  0.3178  0.5388
   37MOL0     C 4921   6.367   8.716   9.856 -0.1679  0.0534  0.0853
   37MOL0     C 4922   6.485   8.787   9.930 -0.5896 -0.2272  0.1309
   37MOL0     C 4923   6.625   8.740   9.904  0.9006  0.7563  0.1339
   37MOL0     C 4924   6.660   8.715   9.760 -0.6105  0.0732  0.6528
   37MOL0     C 4925   6.692   8.693   9.645 -0.2442  0.5320 -0.4223
   37MOL0     C 4926   6.174   8.467  10.195 -0.3563  1.3367 -0.5306
   37MOL0     C 4927   6.090   8.420  10.294  0.4744  0.3655  0.6664
   37MOL0     H 4928   5.763   8.676  10.705 -0.6126 -0.7100 -0.6958
   37MOL0     H 4929   5.639   8.620  10.899 -0.4970  1.1766 -0.8865
   37MOL0     H 4930   5.404   8.225  10.894 -1.3650  0.3391 -0.0520
   37MOL0     H 4931   5.547   8.183  10.988 -0.3102  0.1802 -1.3101
   37MOL0     H 4932   5.450   8.316  11.184 -1.8737  1.0859 -0.4606
   37MOL0     H 4933   5.297   8.319  11.077 -1.2080  1.3269 -0.2015
   37MOL0     H 4934   5.245   8.104  11.097 -1.2827 -0.9559  1.5263
   37MOL0     H 4935   5.407   8.045  11.132 -1.7924 -0.7160 -1.5362
   37MOL0     H 4936   5.402   8.132  11.357  1.3376  0.3448 -1.4306
   37MOL0     H 4937   5.243   8.204  11.321 -0.0574  0.2030 -1.3035
   37MOL0     H 4938   5.243   7.997  11.462  0.1696  0.5979  0.0397
   37MOL0     H 4939   5.142   7.983  11.306 -1.1247  2.8028 -1.7540
   37MOL0     H 4940   5.253   7.785  11.391  0.7184 -5.1339 -3.6590
   37MOL0     H 4941   5.295   7.836  11.222  0.9909 -0.4988  0.3090
   37MOL0     H 4942   5.516   7.911  11.283 -2.0295  2.2998 -0.2687
   37MOL0     H 4943   5.474   7.905  11.459  0.0314  2.1838 -0.9648
   37MOL0     H 4944   5.509   7.668  11.263  0.5348 -0.5731 -0.8458
   37MOL0     H 4945   5.467   7.665  11.439 -2.7487  1.1874 -1.0771
   37MOL0     H 4946   5.653   7.715  11.613  0.7427 -0.1538 -0.2353
   37MOL0     H 4947   5.929   7.663  11.698  0.7031 -1.6526 -0.6478
   37MOL0     H 4948   6.045   7.721  11.577 -0.5675  3.6063  0.0512
   37MOL0     H 4949   5.943   7.946  11.606  2.0825 -0.9230 -0.7231
   37MOL0     H 4950   6.057   7.893  11.722  0.0040  1.3489 -1.3966
   37MOL0     H 4951   5.762   7.883  11.777  0.4055 -1.6305 -0.2682
   37MOL0     H 4952   5.856   8.015  11.827  0.4618  1.6472 -0.5206
   37MOL0     H 4953   5.866   7.890  12.015  1.4214 -0.3820  0.1536
   37MOL0     H 4954   6.008   7.832  11.946 -0.2666 -0.4118  0.7723
   37MOL0     H 4955   5.924   7.627  12.179  0.1776  0.8635  0.1791
   37MOL0     H 4956   5.818   7.669  12.479 -2.2583  1.3614  0.2154
   37MOL0     H 4957   5.718   7.517  12.471  0.4522  0.3961  1.7861
   37MOL0     H 4958   5.872   7.521  12.405 -0.9604 -0.9441  2.6398
   37MOL0     H 4959   5.503   7.450  12.619 -1.0168 -0.0307 -0.5907
   37MOL0     H 4960   5.317   7.352  12.760 -2.9231  0.1948 -0.1643
   37MOL0     H 4961   4.992   7.626  12.922  1.5642  1.5098 -2.8872
   37MOL0     H 4962   4.909   7.530  12.787 -0.8738 -0.7339 -0.2193
   37MOL0     H 4963   4.903   7.333  12.950  0.4289 -0.2679 -0.3492
   37MOL0     H 4964   4.980   7.449  13.064  0.2324 -0.1147 -0.1357
   37MOL0     H 4965   4.738   7.420  13.103 -0.5517  0.7680 -0.1589
   37MOL0     H 4966   4.692   7.475  12.952 -1.6917  0.4126  2.2341
   37MOL0     H 4967   4.808   7.623  13.184 -1.0735  3.5123  1.1953
   37MOL0     H 4968   4.806   7.702  13.022 -2.7697 -0.7360 -3.4308
   37MOL0     H 4969   4.563   7.604  13.178  0.3148 -0.5621  0.9084
   37MOL0     H 4970   4.569   7.696  13.025  0.7338 -0.7558 -0.0271
   37MOL0     H 4971   4.664   7.768  13.302 -2.2592  0.9628  0.1191
   37MOL0     H 4972   4.704   7.860  13.159 -1.4967  0.3020 -1.6608
   37MOL0     H 4973   4.410   7.802  13.208 -1.5480  1.7851 -0.2448
   37MOL0     H 4974   4.491   7.923  13.110  0.2776  0.4276 -0.2586
   37MOL0     H 4975   4.601   8.015  13.346 -0.5606  1.2923  4.4692
   37MOL0     H 4976   4.484   7.917  13.421  2.5774  0.4506  0.4325
   37MOL0     H 4977   5.108   7.725  12.727  0.9562 -0.1566 -0.4517
   37MOL0     H 4978   5.299   7.801  12.552  0.9932  2.1455  3.8459
   37MOL0     H 4979   5.433   7.679  12.107 -0.3701 -2.3766  1.5139
   37MOL0     H 4980   5.590   7.723  11.927 -1.0553  0.5190  0.5888
   37MOL0     H 4981   5.494   8.258  10.714  0.2303 -0.4615 -1.9272
   37MOL0     H 4982   5.624   8.309  10.519 -1.7928  1.2667 -0.2766
   37MOL0     H 4983   5.859   8.666  10.274  1.2394  1.0854  0.1646
   37MOL0     H 4984   6.008   8.743  10.084 -0.9407  0.2585  0.1334
   37MOL0     H 4985   6.146   8.724   9.871  0.9802 -1.3478 -1.4111
   37MOL0     H 4986   6.229   8.821   9.984 -2.3274  0.6125 -0.1564
   37MOL0     H 4987   6.346   8.756   9.756 -0.5448 -2.7739 -1.0677
   37MOL0     H 4988   6.399   8.614   9.831 -1.2443 -0.9877  2.6763
   37MOL0     H 4989   6.471   8.777  10.038  0.5170 -3.0312  0.1040
   37MOL0     H 4990   6.482   8.893   9.906  1.5844  0.2870  1.7870
   37MOL0     H 4991   6.629   8.640   9.947 -0.6953  1.1479  1.2927
   37MOL0     H 4992   6.705   8.796   9.953 -0.1029  0.6827  1.9121
   37MOL0     H 4993   6.723   8.683   9.543 -0.2621 -1.0225 -0.3036
   37MOL0     H 4994   6.263   8.415  10.162  0.4729  3.1534 -1.3392
   37MOL0     H 4995   6.121   8.337  10.357 -2.7954  0.2487  2.3453
   38MOL0     O 4996   7.742   8.058  11.166 -0.0445 -0.0658 -0.0714
   38MOL0     C 4997   7.817   7.965  11.183  0.3508  0.7129 -0.9754
   38MOL0     O 4998   7.779   7.843  11.238  0.4344 -0.2284  0.6640
   38MOL0     C 4999   7.649   7.814  11.289  0.5387  0.3637  0.3948
   38MOL0     C 5000   7.537   7.900  11.269  0.3954  0.1878  0.7126
   38MOL0     C 5001   7.415   7.859  11.315 -0.1171  0.9895  0.6049
   38MOL0     C 5002   7.393   7.729  11.361  1.5506 -0.4803 -0.3657
   38MOL0     O 5003   7.264   7.694  11.393 -0.3449  0.3027 -0.1899
   38MOL0     C 5004   7.247   7.707  11.534  1.1871  0.5952 -0.3157
   38MOL0     C 5005   7.095   7.715  11.568 -0.1790  0.0907 -0.0869
   38MOL0     C 5006   7.043   7.854  11.592 -1.2074 -0.1344 -0.5422
   38MOL0     C 5007   7.046   7.956  11.472 -0.6914 -0.3410 -0.7770
   38MOL0     C 5008   6.930   7.952  11.385 -0.4903 -0.2237  0.5225
   38MOL0     C 5009   6.940   8.060  11.278  1.0669 -0.3528 -1.1689
   38MOL0     C 5010   6.848   8.038  11.160 -0.3564  0.4574 -1.2426
   38MOL0     C 5011   6.844   8.157  11.054 -0.2803 -0.4668  0.2190
   38MOL0     N 5012   6.820   8.288  11.122  0.7424 -0.0645 -0.3897
   38MOL0     C 5013   6.724   8.304  11.221  0.4507 -0.1043  0.3469
   38MOL0     C 5014   6.748   8.440  11.255  0.2730  0.3409  0.0860
   38MOL0     C 5015   6.672   8.522  11.371 -0.8534 -0.5486 -0.0612
   38MOL0     C 5016   6.765   8.631  11.434 -0.3983 -0.2640 -0.4460
   38MOL0     C 5017   6.702   8.744  11.510  0.0458 -0.6543  0.7082
   38MOL0     C 5018   6.796   8.824  11.602 -0.1320  0.9692 -0.2985
   38MOL0     O 5019   6.787   8.965  11.573  0.0597 -0.2278 -0.0144
   38MOL0     C 5020   6.718   9.035  11.668 -0.7362 -0.3091 -0.6564
   38MOL0     C 5021   6.613   8.984  11.759  0.5610  0.1516  0.8402
   38MOL0     C 5022   6.542   9.068  11.847 -0.1775  0.1836  0.2501
   38MOL0     C 5023   6.424   9.004  11.917 -1.0590  1.0065  0.1499
   38MOL0     C 5024   6.583   9.206  11.854  0.7227 -0.7713  0.3285
   38MOL0     C 5025   6.506   9.295  11.944 -0.2938 -0.4255 -0.0306
   38MOL0     O 5026   6.455   9.410  11.888  0.1502  0.5475 -0.5519
   38MOL0     C 5027   6.429   9.510  11.980 -0.0584  0.3053  0.4018
   38MOL0     C 5028   6.515   9.544  12.087 -0.5172  0.1999 -1.0256
   38MOL0     C 5029   6.488   9.662  12.163 -0.7976 -0.5058 -0.7897
   38MOL0     C 5030   6.387   9.748  12.124  0.2125 -1.0196  1.0048
   38MOL0     O 5031   6.363   9.860  12.195 -0.1160 -0.2785  0.0883
   38MOL0     C 5032   6.444   9.902  12.303  0.8208 -0.0050  0.3705
   38MOL0     C 5033   6.384  10.038  12.358  0.6297 -0.0645 -0.1917
   38MOL0     C 5034   6.466  10.085  12.481 -0.2676 -0.2834 -0.2881
   38MOL0     C 5035   6.551  10.197  12.433  0.4837 -0.3411  0.2493
   38MOL0     C 5036   6.633  10.266  12.547 -0.6032  0.0965  0.9957
   38MOL0     C 5037   6.675  10.407  12.506 -0.1980 -0.2427  0.5127
   38MOL0     C 5038   6.780  10.394  12.389  0.6012 -0.4586 -0.7857
   38MOL0     C 5039   6.825  10.527  12.339 -0.3823 -0.0380 -0.0941
   38MOL0    Cl 5040   6.870  10.650  12.474  0.2415  0.4717 -0.3345
   38MOL0     C 5041   6.302   9.715  12.017 -0.3820  0.6917  0.3806
   38MOL0     C 5042   6.322   9.595  11.952 -0.3048 -0.3566  0.4562
   38MOL0     O 5043   6.492   9.264  12.063 -0.0108  0.0618 -0.1381
   38MOL0     C 5044   6.680   9.256  11.765 -0.8097  0.1606  0.3452
   38MOL0     C 5045   6.747   9.168  11.683 -0.0945  0.1819 -0.8467
   38MOL0     N 5046   6.838   8.493  11.169 -0.8298 -0.9694 -0.5792
   38MOL0     N 5047   6.876   8.405  11.084  0.2324 -0.2423 -0.6992
   38MOL0     C 5048   7.500   7.641  11.376  0.8989 -0.9341 -1.0800
   38MOL0     C 5049   7.627   7.687  11.345 -0.1533  0.5416  0.6763
   38MOL0     C 5050   7.966   7.972  11.152  0.4106  0.1322  0.5968
   38MOL0     C 5051   8.019   8.079  11.083 -0.2685 -0.3468 -0.3200
   38MOL0     C 5052   8.154   8.099  11.048  0.2012  0.1628 -0.7182
   38MOL0     C 5053   8.248   7.990  11.063  0.6044  0.0616 -0.3466
   38MOL0     O 5054   8.378   7.980  11.016  0.2555  0.0767 -0.3950
   38MOL0     C 5055   8.421   8.094  10.941 -0.3487  0.1837 -0.2457
   38MOL0     C 5056   8.550   8.135  11.009 -0.7495 -0.1446 -0.2170
   38MOL0     C 5057   8.664   8.032  11.019  0.2619 -0.4169 -0.4293
   38MOL0     C 5058   8.791   8.088  11.093  0.6996  0.3320  1.0227
   38MOL0     C 5059   8.865   8.184  11.017  0.1299 -0.9931  0.2232
   38MOL0     C 5060   8.927   8.273  10.950 -0.4011  0.2388  0.4909
   38MOL0     C 5061   8.186   7.877  11.120  0.0338 -1.5442  0.7055
   38MOL0     C 5062   8.050   7.865  11.166  0.0623  1.1685  0.6895
   38MOL0     H 5063   7.542   7.993  11.215  0.4677 -0.5771 -0.6426
   38MOL0     H 5064   7.327   7.920  11.299 -1.9305 -1.9467 -1.6122
   38MOL0     H 5065   7.289   7.619  11.583  0.5042  1.9072  2.8537
   38MOL0     H 5066   7.296   7.799  11.569  0.6534  0.7053  0.1576
   38MOL0     H 5067   7.034   7.678  11.485  1.7845 -1.2024 -1.0502
   38MOL0     H 5068   7.078   7.649  11.654  0.7013  1.8408  1.4989
   38MOL0     H 5069   6.944   7.849  11.639  0.3661  0.3013  3.1444
   38MOL0     H 5070   7.113   7.891  11.668 -2.0274  0.4913 -0.0785
   38MOL0     H 5071   7.054   8.057  11.513  1.2199 -0.6364 -0.2900
   38MOL0     H 5072   7.133   7.956  11.405 -2.0041 -0.5802 -2.5572
   38MOL0     H 5073   6.929   7.851  11.341  2.2437  0.0405 -0.3836
   38MOL0     H 5074   6.835   7.955  11.438  0.5379 -1.0721  2.5018
   38MOL0     H 5075   6.910   8.142  11.344 -0.7522 -2.4431  0.7958
   38MOL0     H 5076   7.040   8.080  11.238  1.4163 -5.0845 -3.2918
   38MOL0     H 5077   6.894   7.955  11.106  0.7684  1.0000 -1.1414
   38MOL0     H 5078   6.746   8.021  11.195 -0.1305  2.1784  0.3839
   38MOL0     H 5079   6.763   8.132  10.985 -2.7815  1.3946  2.2911
   38MOL0     H 5080   6.935   8.170  10.995  0.5451 -1.6212  1.1886
   38MOL0     H 5081   6.653   8.230  11.258  1.3937 -1.2759 -0.0928
   38MOL0     H 5082   6.584   8.573  11.331 -0.8520  0.3053  0.9927
   38MOL0     H 5083   6.636   8.455  11.450 -1.9972  0.5297  0.3684
   38MOL0     H 5084   6.824   8.663  11.348  0.3040 -2.2419 -0.7738
   38MOL0     H 5085   6.823   8.564  11.499 -1.1780 -1.9725 -1.4180
   38MOL0     H 5086   6.615   8.704  11.563 -0.7204  3.4244  2.9980
   38MOL0     H 5087   6.679   8.814  11.430  2.8883 -1.7647 -1.2454
   38MOL0     H 5088   6.901   8.804  11.579 -0.4414  0.2995 -1.1580
   38MOL0     H 5089   6.785   8.802  11.709  1.9600  0.2925 -0.1893
   38MOL0     H 5090   6.580   8.880  11.757  0.6113  0.1226  1.4077
   38MOL0     H 5091   6.458   8.982  12.019  0.6553 -0.7083 -0.7288
   38MOL0     H 5092   6.337   9.069  11.927 -2.1939 -0.7649  3.0966
   38MOL0     H 5093   6.391   8.907  11.881  0.2245  0.6571 -0.1416
   38MOL0     H 5094   6.603   9.483  12.101 -0.0991  0.7415 -1.2914
   38MOL0     H 5095   6.542   9.685  12.254 -2.1662  4.0371 -0.9263
   38MOL0     H 5096   6.436   9.819  12.373 -3.7691 -0.1351 -0.0036
   38MOL0     H 5097   6.548   9.908  12.268  1.0917  0.4815  1.2258
   38MOL0     H 5098   6.376  10.121  12.286  1.8444  3.3829  3.2982
   38MOL0     H 5099   6.280  10.011  12.379 -0.0917  0.7685 -2.3891
   38MOL0     H 5100   6.540  10.008  12.507  3.8040  3.4057  0.2674
   38MOL0     H 5101   6.396  10.107  12.562 -0.0716  0.7781 -0.3984
   38MOL0     H 5102   6.611  10.167  12.347 -2.0754 -0.7181 -1.5098
   38MOL0     H 5103   6.493  10.284  12.400  2.6292  0.5080 -1.5560
   38MOL0     H 5104   6.723  10.214  12.580  0.0085  2.4657  3.4677
   38MOL0     H 5105   6.566  10.282  12.632 -1.0317  0.3230  0.6183
   38MOL0     H 5106   6.592  10.465  12.465 -0.7517 -1.8861 -0.7995
   38MOL0     H 5107   6.726  10.458  12.588  0.0730 -0.4286  0.4616
   38MOL0     H 5108   6.747  10.329  12.307  1.8625 -0.1589 -1.5515
   38MOL0     H 5109   6.874  10.359  12.431  1.1690 -0.4477 -2.0144
   38MOL0     H 5110   6.751  10.572  12.272  1.5849  2.4799 -0.7065
   38MOL0     H 5111   6.912  10.500  12.279 -0.9346 -3.1428  0.2965
   38MOL0     H 5112   6.218   9.776  11.986 -1.3800 -0.9755 -0.3580
   38MOL0     H 5113   6.250   9.580  11.873  2.0766  2.7638 -2.6450
   38MOL0     H 5114   6.699   9.363  11.757  0.2521 -0.0858 -0.7067
   38MOL0     H 5115   6.816   9.194  11.603  0.3167 -0.1328 -0.6027
   38MOL0     H 5116   7.475   7.547  11.425 -0.2472 -0.7300 -1.2407
   38MOL0     H 5117   7.706   7.614  11.334 -1.1214 -0.4334  0.0343
   38MOL0     H 5118   7.944   8.153  11.057 -0.5922 -0.6410 -0.2312
   38MOL0     H 5119   8.179   8.195  11.005  2.9202 -0.6645 -1.1716
   38MOL0     H 5120   8.447   8.054  10.843  1.9168 -1.5898  0.9734
   38MOL0     H 5121   8.353   8.179  10.935 -0.5865  0.0568  0.4832
   38MOL0     H 5122   8.534   8.176  11.109 -3.1680 -2.1728  0.3255
   38MOL0     H 5123   8.594   8.213  10.946 -0.8199 -0.1095 -0.2229
   38MOL0     H 5124   8.695   7.994  10.921 -1.9988  1.0534 -1.7906
   38MOL0     H 5125   8.624   7.950  11.079  1.9350 -1.6367 -0.8888
   38MOL0     H 5126   8.845   7.995  11.114 -0.5680 -0.6528  0.1460
   38MOL0     H 5127   8.753   8.129  11.187  0.5050 -2.2131  2.1371
   38MOL0     H 5128   8.980   8.331  10.878  1.8852 -1.2536  0.8641
   38MOL0     H 5129   8.252   7.792  11.135  0.1901 -1.1883  2.2084
   38MOL0     H 5130   8.014   7.769  11.202 -2.3152  0.4573 -3.0258
   39MOL0     O 5131   4.336  11.136  10.198 -0.3565  0.3813  0.3284
   39MOL0     C 5132   4.413  11.173  10.286 -0.6572 -0.1846  0.0079
   39MOL0     O 5133   4.390  11.167  10.423 -0.0375  0.1721  0.5594
   39MOL0     C 5134   4.263  11.135  10.464  0.2786 -0.7220  0.0828
   39MOL0     C 5135   4.223  11.003  10.463  0.2250  0.7372 -0.6844
   39MOL0     C 5136   4.091  10.970  10.502  0.4638  1.0528 -0.2608
   39MOL0     C 5137   4.003  11.071  10.533 -0.8724  0.0453 -0.1557
   39MOL0     O 5138   3.883  11.030  10.573 -0.4890  0.0169 -0.0106
   39MOL0     C 5139   3.769  11.089  10.508 -0.0806 -0.0683  0.0265
   39MOL0     C 5140   3.772  11.077  10.356 -0.1196  0.2400  0.6595
   39MOL0     C 5141   3.787  10.930  10.299 -0.0671  0.0935 -0.6345
   39MOL0     C 5142   3.802  10.923  10.147  0.7494 -0.9083 -0.3921
   39MOL0     C 5143   3.776  10.788  10.081 -0.0475 -0.4912  0.3660
   39MOL0     C 5144   3.775  10.797   9.922 -0.2046  0.1361  0.0514
   39MOL0     C 5145   3.694  10.678   9.864  0.5246 -0.2380 -0.1117
   39MOL0     C 5146   3.741  10.551   9.919  0.0951 -0.4286 -0.6096
   39MOL0     N 5147   3.881  10.517   9.881  0.0270  0.6553  0.2800
   39MOL0     C 5148   3.937  10.496   9.752  0.0305  0.0895  0.0870
   39MOL0     C 5149   4.070  10.473   9.764  0.2682 -0.2923 -0.6953
   39MOL0     C 5150   4.157  10.445   9.646 -0.0531 -0.6762  0.4954
   39MOL0     C 5151   4.214  10.296   9.652  0.1903 -0.2652 -0.2853
   39MOL0     C 5152   4.327  10.270   9.556 -0.7140 -0.0103  0.2276
   39MOL0     C 5153   4.409  10.143   9.581  0.0628 -0.3341 -0.1542
   39MOL0     O 5154   4.343  10.011   9.556  0.0945  0.0520  0.5011
   39MOL0     C 5155   4.306   9.991   9.427 -0.9619  0.0472 -0.0244
   39MOL0     C 5156   4.166   9.983   9.403 -0.3944  0.9188  1.0342
   39MOL0     C 5157   4.110   9.962   9.279  0.7016  0.2578  0.5016
   39MOL0     C 5158   3.958   9.939   9.281 -0.6777 -1.0280  0.2884
   39MOL0     C 5159   4.196   9.941   9.167 -0.0021  0.8429 -0.4988
   39MOL0     C 5160   4.156   9.896   9.029 -0.3233  0.1348 -0.4331
   39MOL0     O 5161   4.255   9.903   8.942 -0.3403  0.0776 -0.3960
   39MOL0     C 5162   4.256   9.864   8.810  0.2518 -0.5617 -0.0204
   39MOL0     C 5163   4.360   9.906   8.732  0.1627  0.4529 -0.7519
   39MOL0     C 5164   4.371   9.872   8.597  1.0024  0.4366  0.5422
   39MOL0     C 5165   4.273   9.801   8.534  1.1029 -0.1729  0.7171
   39MOL0     O 5166   4.284   9.757   8.404 -0.0390  0.1990  0.5470
   39MOL0     C 5167   4.362   9.636   8.398  0.1928  0.6141 -0.1551
   39MOL0     C 5168   4.509   9.655   8.414 -0.2945  0.1025  0.4051
   39MOL0     C 5169   4.574   9.525   8.403 -0.7101 -0.2086  0.2076
   39MOL0     C 5170   4.712   9.552   8.352  0.8212  0.8759  1.0389
   39MOL0     C 5171   4.781   9.422   8.307  0.0314 -0.0939 -0.8924
   39MOL0     C 5172   4.927   9.453   8.278  0.6589 -0.7220 -0.1281
   39MOL0     C 5173   5.018   9.325   8.250  0.0231 -0.3179 -0.3684
   39MOL0     C 5174   5.152   9.353   8.190  0.2984 -0.5992 -0.1945
   39MOL0    Cl 5175   5.151   9.441   8.031 -0.4535  0.1459 -0.0109
   39MOL0     C 5176   4.167   9.756   8.605 -0.8076 -0.5542  0.2812
   39MOL0     C 5177   4.158   9.787   8.746  0.0632  0.4400  0.8230
   39MOL0     O 5178   4.040   9.859   9.008  0.2497  0.0904 -0.7313
   39MOL0     C 5179   4.336   9.939   9.205 -0.9673 -0.4692  0.5771
   39MOL0     C 5180   4.395   9.970   9.325 -0.3661 -0.4508 -0.8483
   39MOL0     N 5181   4.103  10.476   9.899 -0.1956  0.0874 -0.3085
   39MOL0     N 5182   3.989  10.492   9.966 -0.2301 -0.0412 -1.0829
   39MOL0     C 5183   4.045  11.206  10.532  0.3672 -0.2074 -0.0442
   39MOL0     C 5184   4.176  11.239  10.490 -0.1760  0.4555 -0.3390
   39MOL0     C 5185   4.541  11.235  10.257  0.8040 -0.2688  0.6124
   39MOL0     C 5186   4.616  11.180  10.154  0.5696 -0.8054 -0.3823
   39MOL0     C 5187   4.729  11.248  10.113 -0.1421 -1.0879 -0.6684
   39MOL0     C 5188   4.787  11.359  10.188  0.1463  0.1769 -0.4476
   39MOL0     O 5189   4.911  11.406  10.156  0.6878 -0.1087  0.8570
   39MOL0     C 5190   5.003  11.381  10.268  0.1315 -0.9787  0.7662
   39MOL0     C 5191   5.143  11.422  10.230  0.9689  0.4178  0.1210
   39MOL0     C 5192   5.151  11.570  10.195  0.4138 -0.0840 -0.4049
   39MOL0     C 5193   5.264  11.594  10.092 -0.2149  0.2578  0.4647
   39MOL0     C 5194   5.276  11.726  10.035  0.5791  0.3863  0.3792
   39MOL0     C 5195   5.268  11.836   9.986  0.2311 -0.3032 -0.4854
   39MOL0     C 5196   4.709  11.409  10.297 -0.2131 -0.0561 -0.5686
   39MOL0     C 5197   4.585  11.347  10.330  0.7163  0.6150 -0.0107
   39MOL0     H 5198   4.296  10.929  10.431 -1.5322 -0.5330 -1.9721
   39MOL0     H 5199   4.065  10.865  10.517  0.3273  0.7576 -2.2705
   39MOL0     H 5200   3.677  11.038  10.538  0.3564 -1.2120 -0.5205
   39MOL0     H 5201   3.754  11.191  10.545  0.2946  0.4118 -1.0840
   39MOL0     H 5202   3.683  11.124  10.314 -0.7368 -0.4683  1.1566
   39MOL0     H 5203   3.864  11.125  10.321  1.4038 -0.9770  2.7772
   39MOL0     H 5204   3.878  10.884  10.338 -0.1990  2.0238  2.2448
   39MOL0     H 5205   3.701  10.869  10.328  1.0772 -0.5601  1.6613
   39MOL0     H 5206   3.722  10.989  10.114  1.6587 -0.8299 -2.5992
   39MOL0     H 5207   3.900  10.963  10.119 -0.3097  0.4263 -2.4984
   39MOL0     H 5208   3.852  10.715  10.110 -0.9560 -2.1874 -1.2966
   39MOL0     H 5209   3.679  10.750  10.115  1.3111 -4.0810  0.7065
   39MOL0     H 5210   3.730  10.890   9.885 -0.2009  0.0220 -0.2440
   39MOL0     H 5211   3.877  10.795   9.885 -0.9672 -2.6245 -2.2244
   39MOL0     H 5212   3.588  10.687   9.891  0.6064 -2.9794  1.4474
   39MOL0     H 5213   3.694  10.677   9.754 -1.0416 -0.7400 -0.1350
   39MOL0     H 5214   3.679  10.468   9.884 -0.0556 -0.8782  0.6624
   39MOL0     H 5215   3.730  10.559  10.027 -2.6477  2.0222 -0.9430
   39MOL0     H 5216   3.875  10.491   9.663  1.4899 -0.6236 -0.9364
   39MOL0     H 5217   4.106  10.466   9.551  1.3565 -1.0857 -0.3967
   39MOL0     H 5218   4.236  10.521   9.652 -1.2268  0.5452  1.0240
   39MOL0     H 5219   4.133  10.225   9.635 -2.6740  2.7814 -0.2436
   39MOL0     H 5220   4.266  10.281   9.747  0.7106  1.3702 -0.2811
   39MOL0     H 5221   4.397  10.354   9.559 -1.4959  0.6972 -0.7522
   39MOL0     H 5222   4.296  10.274   9.451 -0.7193  2.4439  0.2740
   39MOL0     H 5223   4.439  10.136   9.686  0.2950 -1.3999 -0.2733
   39MOL0     H 5224   4.507  10.145   9.531  0.3649 -1.3024  0.3789
   39MOL0     H 5225   4.100   9.989   9.489 -0.0428  2.3021  1.2355
   39MOL0     H 5226   3.909  10.009   9.213 -1.3586  1.2643  2.9897
   39MOL0     H 5227   3.939   9.835   9.252 -0.5867 -1.6585  2.3636
   39MOL0     H 5228   3.920   9.964   9.380  2.5864 -0.6991  1.6035
   39MOL0     H 5229   4.438   9.957   8.789 -1.1143  1.3323  0.2536
   39MOL0     H 5230   4.455   9.901   8.535  1.3011 -1.5986 -0.0868
   39MOL0     H 5231   4.327   9.556   8.464 -0.8831 -0.8932 -2.4546
   39MOL0     H 5232   4.350   9.586   8.302 -2.5741  0.4211  0.2093
   39MOL0     H 5233   4.536   9.728   8.337 -0.5142  2.6061  2.5566
   39MOL0     H 5234   4.515   9.690   8.517 -3.7872 -2.6471  1.7185
   39MOL0     H 5235   4.527   9.460   8.328 -1.6739 -0.6259  1.1498
   39MOL0     H 5236   4.573   9.472   8.498  1.2628 -0.3537  0.1768
   39MOL0     H 5237   4.709   9.625   8.270  2.2881  0.0356  0.1899
   39MOL0     H 5238   4.754   9.605   8.438  0.4126  2.7625  0.1350
   39MOL0     H 5239   4.731   9.362   8.231  0.4916 -0.9862 -0.5018
   39MOL0     H 5240   4.774   9.353   8.392 -1.6149  3.1472  1.8515
   39MOL0     H 5241   4.924   9.513   8.186  0.7526 -1.3307 -0.5303
   39MOL0     H 5242   4.977   9.499   8.364 -4.0407  2.4940  1.3497
   39MOL0     H 5243   4.954   9.259   8.191 -1.4527  1.7003 -1.1278
   39MOL0     H 5244   5.032   9.263   8.339  1.8564  0.9026  0.2445
   39MOL0     H 5245   5.197   9.255   8.174 -0.0515 -0.8265  0.2231
   39MOL0     H 5246   5.224   9.405   8.254 -1.7375 -0.2806  1.9458
   39MOL0     H 5247   4.093   9.689   8.562 -0.4241 -0.3037 -0.8107
   39MOL0     H 5248   4.093   9.733   8.814  0.7679 -0.1219  1.0666
   39MOL0     H 5249   4.415   9.923   9.132  1.6590 -0.6584  3.2892
   39MOL0     H 5250   4.502   9.964   9.337 -0.0011 -1.0661 -3.6185
   39MOL0     H 5251   3.971  11.279  10.564  0.6781  0.2671 -0.3943
   39MOL0     H 5252   4.203  11.343  10.500 -2.6116  1.0562  0.5845
   39MOL0     H 5253   4.572  11.097  10.100 -1.0133 -0.6787  0.6471
   39MOL0     H 5254   4.791  11.231  10.025  1.3161  1.4007 -0.2117
   39MOL0     H 5255   4.980  11.445  10.354  0.2561  0.1430 -0.0162
   39MOL0     H 5256   5.004  11.274  10.294  3.2894 -2.3660 -3.8722
   39MOL0     H 5257   5.179  11.371  10.140 -0.2866  1.8598 -1.2584
   39MOL0     H 5258   5.204  11.410  10.320  1.6247  1.3290 -0.1832
   39MOL0     H 5259   5.188  11.624  10.282 -0.5335  1.9400 -1.2054
   39MOL0     H 5260   5.057  11.611  10.158  0.8866  0.6859 -0.7907
   39MOL0     H 5261   5.256  11.527  10.007  2.8499  0.4849 -0.1183
   39MOL0     H 5262   5.360  11.572  10.141 -0.1985 -1.3477 -0.2373
   39MOL0     H 5263   5.259  11.933   9.940 -0.1291  1.2584  2.6087
   39MOL0     H 5264   4.748  11.479  10.370 -1.0372 -1.4727  1.3319
   39MOL0     H 5265   4.512  11.374  10.406 -0.5709 -0.1869 -0.9110
   40MOL0     O 5266   6.601   9.257   5.969 -0.1629  0.0185  0.5867
   40MOL0     C 5267   6.557   9.329   6.061 -1.4723  0.7504  0.7456
   40MOL0     O 5268   6.434   9.331   6.106  0.2036  0.0115 -0.0825
   40MOL0     C 5269   6.329   9.250   6.076 -0.7045 -0.2951 -0.1067
   40MOL0     C 5270   6.205   9.298   6.115 -0.5659 -1.2398  0.6961
   40MOL0     C 5271   6.090   9.223   6.095  0.7245 -0.3088 -0.0780
   40MOL0     C 5272   6.104   9.096   6.039 -0.3589 -0.5208  0.1796
   40MOL0     O 5273   5.988   9.023   6.035  0.5795 -0.0200 -0.6682
   40MOL0     C 5274   5.969   8.907   5.942 -0.2759 -0.0453 -0.1139
   40MOL0     C 5275   5.829   8.861   5.950  0.5394 -1.0523  0.7200
   40MOL0     C 5276   5.739   8.973   5.891  0.3423 -0.6680 -0.0416
   40MOL0     C 5277   5.596   8.939   5.903  0.1381  0.3385  0.0869
   40MOL0     C 5278   5.530   9.054   5.836 -0.2744 -0.7034  0.1583
   40MOL0     C 5279   5.383   9.072   5.865 -0.3778 -0.9688  0.4608
   40MOL0     C 5280   5.328   9.205   5.808 -0.7965 -0.0058  0.3808
   40MOL0     C 5281   5.316   9.230   5.663  0.4223  0.3670  0.7909
   40MOL0     N 5282   5.275   9.366   5.634 -1.1833  0.0518  0.0818
   40MOL0     C 5283   5.235   9.412   5.516 -0.5047  0.1166 -0.5096
   40MOL0     C 5284   5.166   9.522   5.548 -0.3992 -0.0088 -0.1904
   40MOL0     C 5285   5.101   9.621   5.458  0.5740  0.1713 -0.0626
   40MOL0     C 5286   4.994   9.550   5.380 -0.7001  0.3030 -1.5085
   40MOL0     C 5287   4.947   9.643   5.276  0.4624 -0.3718 -0.2408
   40MOL0     C 5288   4.812   9.605   5.224 -0.3794 -0.0881  0.7112
   40MOL0     O 5289   4.806   9.469   5.207  0.0495  0.7457  0.1017
   40MOL0     C 5290   4.683   9.412   5.225 -0.7902  0.7107 -0.7058
   40MOL0     C 5291   4.621   9.420   5.348  1.2402 -0.2325 -0.3158
   40MOL0     C 5292   4.490   9.363   5.376 -1.4167  0.6256 -0.0012
   40MOL0     C 5293   4.424   9.395   5.503  0.0195  0.6995 -0.8513
   40MOL0     C 5294   4.426   9.294   5.272  0.7008 -0.2654  0.5854
   40MOL0     C 5295   4.291   9.236   5.295  1.0452 -0.8899  0.6881
   40MOL0     O 5296   4.266   9.172   5.414 -0.3976  0.2245 -0.0652
   40MOL0     C 5297   4.141   9.107   5.430 -0.1008  0.3539 -0.5230
   40MOL0     C 5298   4.047   9.069   5.337 -0.2386  0.3051  0.0899
   40MOL0     C 5299   3.931   9.012   5.382  0.7198  0.3913  0.5188
   40MOL0     C 5300   3.901   8.988   5.514 -0.1679  0.2322  0.0190
   40MOL0     O 5301   3.786   8.934   5.566 -0.2459 -0.6707  0.1170
   40MOL0     C 5302   3.669   8.902   5.479 -0.1106  0.3338 -0.1741
   40MOL0     C 5303   3.661   8.744   5.454 -0.8816  0.4107 -0.2057
   40MOL0     C 5304   3.550   8.716   5.355  0.0023 -0.2859  1.0447
   40MOL0     C 5305   3.518   8.565   5.325  0.2932 -0.0610 -0.2744
   40MOL0     C 5306   3.460   8.484   5.444 -0.3092 -0.1853 -0.1169
   40MOL0     C 5307   3.326   8.542   5.500 -0.2265 -0.2176  0.2951
   40MOL0     C 5308   3.205   8.472   5.428 -0.0442 -0.5065 -0.1387
   40MOL0     C 5309   3.065   8.539   5.448 -0.0672 -0.0823 -0.7815
   40MOL0    Cl 5310   2.945   8.455   5.340  0.3526  0.5616 -0.1858
   40MOL0     C 5311   4.005   9.016   5.606 -0.8774 -0.0432  0.3204
   40MOL0     C 5312   4.123   9.066   5.560 -0.0325  0.9943  0.9309
   40MOL0     O 5313   4.210   9.266   5.211 -0.3111  0.0414  0.0831
   40MOL0     C 5314   4.478   9.311   5.137 -0.0533  0.1685 -0.1017
   40MOL0     C 5315   4.606   9.367   5.116 -0.9416  0.0403  0.4337
   40MOL0     N 5316   5.181   9.546   5.683 -0.3700  1.0612  0.8290
   40MOL0     N 5317   5.245   9.448   5.733 -0.8259 -0.0878 -0.4524
   40MOL0     C 5318   6.232   9.048   6.006  0.4305  0.3552  0.5690
   40MOL0     C 5319   6.346   9.117   6.032  0.5218 -1.3179 -0.2371
   40MOL0     C 5320   6.640   9.451   6.085 -0.2607 -0.2885 -0.2269
   40MOL0     C 5321   6.776   9.442   6.066 -1.0421 -0.5215 -0.8518
   40MOL0     C 5322   6.866   9.552   6.081 -0.9985  0.0909 -0.2243
   40MOL0     C 5323   6.815   9.671   6.130 -1.1178 -0.4513 -0.0326
   40MOL0     O 5324   6.904   9.777   6.150  0.2732  0.2037 -0.2489
   40MOL0     C 5325   6.852   9.884   6.234  0.0398  1.0883 -0.9182
   40MOL0     C 5326   6.954   9.994   6.260  0.1687 -0.5688  0.5242
   40MOL0     C 5327   6.963  10.103   6.153 -0.9097  1.3796  0.3032
   40MOL0     C 5328   7.085  10.198   6.179 -1.1200 -0.6387 -0.0484
   40MOL0     C 5329   7.185  10.184   6.073  0.9150  0.0478  0.2905
   40MOL0     C 5330   7.281  10.177   6.001  0.3419  0.4915 -0.2134
   40MOL0     C 5331   6.679   9.684   6.161 -0.1531 -0.1367  0.1354
   40MOL0     C 5332   6.592   9.570   6.131 -0.5293  0.4320 -0.4756
   40MOL0     H 5333   6.180   9.395   6.158  0.8323  0.8291 -2.7076
   40MOL0     H 5334   5.989   9.252   6.123  1.3738 -0.9535  3.5098
   40MOL0     H 5335   6.003   8.931   5.841  1.7872 -2.3788 -0.0747
   40MOL0     H 5336   6.034   8.823   5.971  3.5779  1.1101 -4.3304
   40MOL0     H 5337   5.807   8.777   5.884  1.8259 -2.0115  1.4701
   40MOL0     H 5338   5.811   8.848   6.057  0.7642 -0.8922  0.7773
   40MOL0     H 5339   5.770   9.060   5.948  0.0356 -2.7092  3.5522
   40MOL0     H 5340   5.767   8.988   5.787  0.2272 -1.0820 -0.1362
   40MOL0     H 5341   5.575   8.845   5.852  1.0218 -1.2298  2.4445
   40MOL0     H 5342   5.566   8.924   6.007  0.0246 -0.4862 -0.0596
   40MOL0     H 5343   5.583   9.139   5.879  0.2712 -0.7850 -0.3333
   40MOL0     H 5344   5.547   9.048   5.728 -5.1248 -2.6564 -0.7572
   40MOL0     H 5345   5.333   8.985   5.822 -1.4842 -0.6750  1.0905
   40MOL0     H 5346   5.382   9.058   5.974 -0.7030  1.3162  0.8106
   40MOL0     H 5347   5.227   9.226   5.845 -1.8644  3.0096 -3.6096
   40MOL0     H 5348   5.405   9.276   5.839  1.3284 -0.6846 -2.9554
   40MOL0     H 5349   5.251   9.156   5.614  1.1957 -1.0993  1.9353
   40MOL0     H 5350   5.417   9.220   5.622 -0.2248 -2.0923 -0.3800
   40MOL0     H 5351   5.250   9.367   5.418 -3.2484 -1.2443 -0.4055
   40MOL0     H 5352   5.046   9.694   5.519 -2.3100 -0.8163 -1.2729
   40MOL0     H 5353   5.181   9.666   5.399  1.8784  0.4905  1.8839
   40MOL0     H 5354   4.912   9.543   5.452  0.0140  0.0943 -0.7126
   40MOL0     H 5355   5.014   9.448   5.347  0.7577  0.7097 -1.9301
   40MOL0     H 5356   5.022   9.657   5.198 -0.6978 -1.5750 -1.6364
   40MOL0     H 5357   4.931   9.743   5.316 -3.6253 -1.2017  0.6634
   40MOL0     H 5358   4.804   9.662   5.131  0.1807  0.4189  0.9639
   40MOL0     H 5359   4.735   9.647   5.289 -1.4900  1.1665 -1.3112
   40MOL0     H 5360   4.673   9.457   5.435 -2.5720 -0.6550  2.4270
   40MOL0     H 5361   4.386   9.316   5.568  1.0195  3.6562  3.7633
   40MOL0     H 5362   4.490   9.452   5.569 -0.7925 -1.1711  1.7335
   40MOL0     H 5363   4.339   9.462   5.485  0.0782  1.0365  0.0759
   40MOL0     H 5364   4.056   9.074   5.229  0.7538 -3.2312 -0.1260
   40MOL0     H 5365   3.859   8.966   5.314  0.6557  1.8869 -0.4607
   40MOL0     H 5366   3.583   8.931   5.540  0.1444 -0.4899  0.6123
   40MOL0     H 5367   3.656   8.967   5.392  0.3676  2.1964  1.0790
   40MOL0     H 5368   3.756   8.709   5.411  0.3752  4.4843 -1.2788
   40MOL0     H 5369   3.633   8.706   5.552  3.8101 -0.2983  1.0923
   40MOL0     H 5370   3.577   8.760   5.258 -1.4318  2.9534  2.0092
   40MOL0     H 5371   3.464   8.776   5.385  1.2211  2.2421 -0.1808
   40MOL0     H 5372   3.447   8.534   5.248 -1.1621 -0.6204  1.2183
   40MOL0     H 5373   3.616   8.522   5.304 -0.3473 -1.8271  0.1577
   40MOL0     H 5374   3.530   8.487   5.528 -0.6894 -3.0187  0.4022
   40MOL0     H 5375   3.439   8.380   5.418  2.8546 -0.7950 -0.6309
   40MOL0     H 5376   3.337   8.519   5.606  2.2857 -0.4784  0.0351
   40MOL0     H 5377   3.321   8.652   5.497  0.2365 -0.1344  1.8931
   40MOL0     H 5378   3.203   8.370   5.467  2.9720 -0.3750  0.5681
   40MOL0     H 5379   3.217   8.465   5.320 -2.4419 -1.2612 -0.4264
   40MOL0     H 5380   3.071   8.645   5.421 -0.0880 -0.3775 -1.9709
   40MOL0     H 5381   3.037   8.538   5.554  4.1921  3.3709  0.6903
   40MOL0     H 5382   3.997   8.978   5.707  0.7688  0.1984  0.5677
   40MOL0     H 5383   4.207   9.083   5.627 -1.3842  1.2242  2.6420
   40MOL0     H 5384   4.419   9.281   5.051  0.8563  0.2295 -0.7612
   40MOL0     H 5385   4.657   9.370   5.020  2.6863 -1.5276  2.1104
   40MOL0     H 5386   6.240   8.953   5.953  2.7271  0.0371  1.3596
   40MOL0     H 5387   6.443   9.081   6.001  0.5844 -0.7732 -0.7010
   40MOL0     H 5388   6.816   9.344   6.042  1.3345  0.9188 -3.3713
   40MOL0     H 5389   6.970   9.540   6.054 -1.2799 -1.2346 -0.7562
   40MOL0     H 5390   6.760   9.928   6.195 -2.2940 -2.0088  0.5835
   40MOL0     H 5391   6.833   9.847   6.335  2.1231 -0.8268 -1.1319
   40MOL0     H 5392   7.047   9.950   6.295  0.0792 -1.3636 -0.2283
   40MOL0     H 5393   6.912  10.044   6.348  0.1111  1.3626 -0.5397
   40MOL0     H 5394   6.868  10.158   6.160 -0.6626  1.6959  1.5148
   40MOL0     H 5395   6.969  10.064   6.052 -1.2063 -1.7515  1.3984
   40MOL0     H 5396   7.133  10.177   6.275 -1.9970 -1.7590  0.1652
   40MOL0     H 5397   7.048  10.301   6.184  1.8152  0.6030 -1.3402
   40MOL0     H 5398   7.366  10.185   5.937 -0.2837  3.6460 -0.8159
   40MOL0     H 5399   6.626   9.767   6.206 -2.3864 -2.1852  1.5701
   40MOL0     H 5400   6.487   9.569   6.160 -0.4038 -2.2764  0.0995
   41MOL0     O 5401  10.835   7.397   7.695 -0.5526  0.2296  0.5423
   41MOL0     C 5402  10.806   7.463   7.794 -0.4309  1.6035 -1.4852
   41MOL0     O 5403  10.820   7.424   7.927  0.3165  0.9845  0.0353
   41MOL0     C 5404  10.869   7.296   7.950  0.6280  0.4725  0.1054
   41MOL0     C 5405  10.985   7.276   8.029  0.2135  0.4650  0.7340
   41MOL0     C 5406  11.031   7.148   8.054  0.4747 -0.6935  0.7117
   41MOL0     C 5407  10.945   7.040   8.015 -0.8400  1.1682 -0.8386
   41MOL0     O 5408  10.954   6.901   8.048  0.2432 -0.7069 -0.3583
   41MOL0     C 5409  11.029   6.874   8.163  0.1445 -0.6155  0.6525
   41MOL0     C 5410  11.026   6.725   8.199 -0.4165 -0.1446 -0.5873
   41MOL0     C 5411  10.908   6.700   8.292  0.5764  0.2704 -0.3171
   41MOL0     C 5412  10.892   6.554   8.338  0.2387  0.4610  0.3260
   41MOL0     C 5413  10.789   6.527   8.443  0.3727 -0.5346 -0.5806
   41MOL0     C 5414  10.659   6.596   8.434  0.2330 -0.0112  0.5700
   41MOL0     C 5415  10.579   6.528   8.321 -0.6719  0.2196 -0.0505
   41MOL0     C 5416  10.468   6.623   8.278 -0.5121  0.3936 -0.0980
   41MOL0     N 5417  10.359   6.574   8.204  0.3849 -0.1436  0.6412
   41MOL0     C 5418  10.242   6.527   8.256  0.4138 -0.3915 -0.3005
   41MOL0     C 5419  10.179   6.451   8.163 -0.3250 -0.6686 -1.1873
   41MOL0     C 5420  10.045   6.378   8.176  0.0946 -1.1838 -0.4772
   41MOL0     C 5421   9.976   6.388   8.033 -0.5424 -1.2004  1.5141
   41MOL0     C 5422   9.842   6.322   8.019  0.4458  0.8290  0.2296
   41MOL0     C 5423   9.845   6.173   8.064  0.9882  0.7826 -1.2573
   41MOL0     O 5424   9.727   6.092   8.033 -0.7681 -0.1875 -0.5025
   41MOL0     C 5425   9.608   6.107   8.106  0.0223  0.1643  0.1580
   41MOL0     C 5426   9.590   6.174   8.221  1.2449  0.3501 -0.6675
   41MOL0     C 5427   9.457   6.176   8.284 -0.0525 -0.2879  0.3994
   41MOL0     C 5428   9.450   6.242   8.419  0.0943 -0.4410  0.0369
   41MOL0     C 5429   9.346   6.121   8.205  0.0417  0.1727 -0.2652
   41MOL0     C 5430   9.210   6.129   8.263 -0.3806 -0.4592  0.7525
   41MOL0     O 5431   9.127   6.029   8.230  0.4867 -0.5341  0.0089
   41MOL0     C 5432   9.008   5.995   8.293  0.2670 -0.5002  0.8117
   41MOL0     C 5433   8.913   6.091   8.337  0.0104 -0.2446 -0.5326
   41MOL0     C 5434   8.796   6.057   8.386  0.1188  0.6960 -0.2709
   41MOL0     C 5435   8.764   5.922   8.416  0.3311 -0.0007 -0.0808
   41MOL0     O 5436   8.649   5.914   8.484 -0.3854  0.5078 -0.7469
   41MOL0     C 5437   8.595   5.778   8.495  1.0075  0.0006 -0.5827
   41MOL0     C 5438   8.475   5.770   8.589 -0.1866 -0.3246  0.3873
   41MOL0     C 5439   8.333   5.782   8.529 -0.2754  0.4411  0.7559
   41MOL0     C 5440   8.236   5.752   8.637  0.7093  0.8334  0.7308
   41MOL0     C 5441   8.094   5.737   8.569  0.8010 -0.3109  0.2075
   41MOL0     C 5442   7.979   5.710   8.667  0.2017  0.2046 -0.2440
   41MOL0     C 5443   7.847   5.669   8.593 -0.1829 -0.0858  0.4596
   41MOL0     C 5444   7.749   5.625   8.700  0.0201 -0.3478  0.7357
   41MOL0    Cl 5445   7.742   5.717   8.849 -0.8019  0.6293 -0.1006
   41MOL0     C 5446   8.849   5.824   8.357  0.5245 -0.2392 -0.1934
   41MOL0     C 5447   8.965   5.866   8.288  0.9114  0.7875 -0.0411
   41MOL0     O 5448   9.186   6.215   8.340 -0.3082 -0.7798  0.4206
   41MOL0     C 5449   9.367   6.050   8.092  0.0257 -0.2612 -0.1090
   41MOL0     C 5450   9.496   6.045   8.047  0.1472  0.3566 -0.5684
   41MOL0     N 5451  10.268   6.445   8.056  0.0593 -0.2100 -0.1204
   41MOL0     N 5452  10.377   6.508   8.082  0.8776 -0.0858  0.1462
   41MOL0     C 5453  10.830   7.057   7.940 -0.1249 -0.8238  0.6169
   41MOL0     C 5454  10.795   7.189   7.906 -0.0364  0.8928 -0.1608
   41MOL0     C 5455  10.752   7.596   7.780 -0.5728 -0.2677  0.0127
   41MOL0     C 5456  10.689   7.661   7.894  0.1335 -0.0272 -1.0938
   41MOL0     C 5457  10.614   7.781   7.875  1.3447  0.8388  0.6010
   41MOL0     C 5458  10.626   7.850   7.756 -0.5559  0.3888  0.2798
   41MOL0     O 5459  10.560   7.963   7.733 -0.0856 -0.2744  0.0750
   41MOL0     C 5460  10.416   7.952   7.733 -0.5955  0.3092  0.3035
   41MOL0     C 5461  10.361   8.078   7.672  0.5332 -0.8072 -0.2591
   41MOL0     C 5462  10.206   8.102   7.672  0.1956  0.1977 -0.1707
   41MOL0     C 5463  10.120   7.981   7.620 -0.5020  0.0184  0.1347
   41MOL0     C 5464   9.978   8.017   7.623  0.1072  0.4782 -0.6629
   41MOL0     C 5465   9.857   8.037   7.610 -0.5141  0.0939  0.6726
   41MOL0     C 5466  10.702   7.806   7.656  0.1551  0.4220  0.4322
   41MOL0     C 5467  10.767   7.679   7.665  0.2480  0.3300 -0.5801
   41MOL0     H 5468  11.038   7.355   8.082 -1.7470  0.8462  2.2620
   41MOL0     H 5469  11.129   7.137   8.098  0.6499  0.4043  0.6101
   41MOL0     H 5470  11.130   6.910   8.142 -0.2338  0.9816  1.4373
   41MOL0     H 5471  11.001   6.933   8.250  0.8300  1.9162 -0.7493
   41MOL0     H 5472  11.021   6.661   8.111 -1.6198  0.7193 -1.1721
   41MOL0     H 5473  11.119   6.717   8.257  1.5414  3.1704 -2.9058
   41MOL0     H 5474  10.927   6.757   8.384 -0.8266 -1.2320  0.9658
   41MOL0     H 5475  10.814   6.727   8.243  0.1418 -0.0517  0.3246
   41MOL0     H 5476  10.864   6.497   8.249  1.8306 -0.0490  0.1223
   41MOL0     H 5477  10.987   6.531   8.386  0.4149 -0.0511 -0.2489
   41MOL0     H 5478  10.763   6.421   8.446 -0.7562 -0.2997 -1.3783
   41MOL0     H 5479  10.835   6.557   8.538 -0.4404 -1.2642  0.0632
   41MOL0     H 5480  10.611   6.569   8.528  0.9342  2.1520  1.6119
   41MOL0     H 5481  10.663   6.706   8.427  1.8054 -0.0181  0.8821
   41MOL0     H 5482  10.633   6.494   8.232  1.6331  3.9401 -0.2847
   41MOL0     H 5483  10.554   6.439   8.379  2.4138  0.3156  1.6277
   41MOL0     H 5484  10.507   6.707   8.220 -1.2554  1.3890  0.8045
   41MOL0     H 5485  10.435   6.669   8.372  1.0404 -2.1221  1.7819
   41MOL0     H 5486  10.206   6.531   8.358  3.3058 -0.2968  0.8089
   41MOL0     H 5487  10.055   6.273   8.205 -1.0030 -1.2124 -0.1211
   41MOL0     H 5488   9.982   6.428   8.251  0.0282  2.9613 -2.9565
   41MOL0     H 5489  10.040   6.342   7.958 -3.0613 -1.9131 -0.3510
   41MOL0     H 5490   9.967   6.487   7.987 -2.2406 -0.8832  2.4474
   41MOL0     H 5491   9.824   6.321   7.911  1.3052 -1.2081  0.0648
   41MOL0     H 5492   9.757   6.375   8.063 -1.2391 -1.2727 -0.3164
   41MOL0     H 5493   9.874   6.173   8.170  2.5681  1.6651 -1.6495
   41MOL0     H 5494   9.925   6.120   8.013  0.0191 -2.1594  0.0625
   41MOL0     H 5495   9.664   6.239   8.267 -0.8159  2.0920  0.3816
   41MOL0     H 5496   9.547   6.266   8.463  0.9015 -2.1802 -0.7097
   41MOL0     H 5497   9.399   6.338   8.406  1.7874  0.2985 -1.5529
   41MOL0     H 5498   9.393   6.182   8.491 -2.3089  0.8953 -0.6329
   41MOL0     H 5499   8.917   6.198   8.318 -2.4924 -0.0078 -0.0885
   41MOL0     H 5500   8.729   6.134   8.425 -1.7650 -1.2607  0.5652
   41MOL0     H 5501   8.562   5.742   8.397 -1.5710  2.1108 -0.6072
   41MOL0     H 5502   8.673   5.711   8.533  0.0581 -1.7417 -1.5529
   41MOL0     H 5503   8.490   5.670   8.631 -0.6415 -0.7130 -0.3601
   41MOL0     H 5504   8.485   5.853   8.659 -2.3863  0.6671 -0.4064
   41MOL0     H 5505   8.322   5.718   8.441  3.8744 -1.9096  1.6903
   41MOL0     H 5506   8.307   5.884   8.496  0.0597  1.1078  2.4772
   41MOL0     H 5507   8.259   5.659   8.690  2.7881  1.1913  0.5210
   41MOL0     H 5508   8.229   5.833   8.709 -3.4307 -0.1111  1.6701
   41MOL0     H 5509   8.106   5.656   8.497 -2.5382 -0.3062 -0.5227
   41MOL0     H 5510   8.073   5.827   8.511 -0.6078 -0.0932  1.0091
   41MOL0     H 5511   7.986   5.627   8.739 -1.0551  0.3031  0.0128
   41MOL0     H 5512   7.964   5.803   8.722 -0.8110 -1.0910  1.8249
   41MOL0     H 5513   7.862   5.590   8.519 -2.2130  0.4035 -0.5742
   41MOL0     H 5514   7.803   5.754   8.540 -2.3547 -0.9982  0.6827
   41MOL0     H 5515   7.790   5.530   8.736  0.2190 -0.1937  0.9200
   41MOL0     H 5516   7.646   5.610   8.664  0.0445  0.8661  0.1228
   41MOL0     H 5517   8.821   5.719   8.358  0.8027 -0.3349 -1.3628
   41MOL0     H 5518   9.020   5.784   8.242 -2.3201 -3.0682  2.3388
   41MOL0     H 5519   9.283   6.010   8.035  1.0431 -0.3050 -1.6252
   41MOL0     H 5520   9.510   5.993   7.953  0.8934 -1.3077  0.4277
   41MOL0     H 5521  10.776   6.968   7.908 -0.8403 -0.3745  0.5432
   41MOL0     H 5522  10.707   7.203   7.844  0.5188  4.2508 -0.3681
   41MOL0     H 5523  10.671   7.612   7.990 -2.0045  0.2273 -1.3304
   41MOL0     H 5524  10.550   7.828   7.948  2.3210 -0.3613  2.2961
   41MOL0     H 5525  10.384   7.864   7.678  0.3219  0.0728  0.1449
   41MOL0     H 5526  10.383   7.940   7.837 -1.5279  1.2736  0.1431
   41MOL0     H 5527  10.401   8.091   7.571  1.6062  1.6336  0.3957
   41MOL0     H 5528  10.399   8.164   7.728  2.0497 -2.8351  2.0314
   41MOL0     H 5529  10.185   8.184   7.603 -0.9156  0.5520  0.5486
   41MOL0     H 5530  10.171   8.132   7.772  0.8944  0.0546  0.1180
   41MOL0     H 5531  10.130   7.899   7.692  0.4348  0.7764  0.8839
   41MOL0     H 5532  10.142   7.943   7.520  0.3403  0.4086  0.1654
   41MOL0     H 5533   9.755   8.059   7.586 -0.7946 -0.6135  1.1567
   41MOL0     H 5534  10.692   7.871   7.569 -0.7167  1.2448  1.1295
   41MOL0     H 5535  10.825   7.638   7.583  1.2147 -0.8078  0.6323
   42MOL0     O 5536   0.291   3.158   6.573  0.7556  0.0235  0.0063
   42MOL0     C 5537   0.357   3.254   6.546 -0.5539  0.1212  0.2553
   42MOL0     O 5538   0.316   3.361   6.485  0.1337  0.1967 -0.2637
   42MOL0     C 5539   0.175   3.375   6.468 -0.6471 -0.0892 -0.1978
   42MOL0     C 5540   0.111   3.311   6.366 -0.8827  1.2018  0.2522
   42MOL0     C 5541  -0.019   3.341   6.334 -1.1814 -0.5729  0.2555
   42MOL0     C 5542  -0.089   3.443   6.406  0.1832  1.0958  0.8292
   42MOL0     O 5543  -0.212   3.488   6.365 -0.5572 -0.3740  1.0109
   42MOL0     C 5544  -0.315   3.395   6.374 -0.6478  0.3189 -0.1135
   42MOL0     C 5545  -0.349   3.393   6.532  0.0003  0.1235  0.7173
   42MOL0     C 5546  -0.463   3.282   6.553  0.2167 -0.2999 -0.2174
   42MOL0     C 5547  -0.599   3.325   6.504 -0.3825  0.2745  0.3588
   42MOL0     C 5548  -0.692   3.199   6.517 -0.0387 -0.7504  0.3995
   42MOL0     C 5549  -0.831   3.206   6.451  0.5714 -0.3711  0.2236
   42MOL0     C 5550  -0.911   3.319   6.505  0.1152 -0.4527 -0.4953
   42MOL0     C 5551  -1.064   3.306   6.469  0.1410 -0.8168 -0.1408
   42MOL0     N 5552  -1.145   3.434   6.470  0.1263  0.6330 -0.0766
   42MOL0     C 5553  -1.127   3.534   6.555  0.6668 -1.0385  0.4339
   42MOL0     C 5554  -1.218   3.635   6.509 -0.0964  1.1627  0.2275
   42MOL0     C 5555  -1.231   3.774   6.559  0.4441  0.5059  0.3476
   42MOL0     C 5556  -1.333   3.778   6.674 -0.0411 -0.0755  0.8237
   42MOL0     C 5557  -1.473   3.747   6.621 -0.4719  0.4711  0.7579
   42MOL0     C 5558  -1.533   3.828   6.503 -0.3557 -0.6217 -0.6396
   42MOL0     O 5559  -1.676   3.808   6.494  0.1330 -0.0372 -0.5144
   42MOL0     C 5560  -1.734   3.686   6.458 -1.5206 -0.0004 -0.0717
   42MOL0     C 5561  -1.673   3.568   6.419 -0.2306  0.1941 -0.2572
   42MOL0     C 5562  -1.741   3.454   6.384  0.5648 -0.0108 -0.8603
   42MOL0     C 5563  -1.657   3.334   6.341  0.0619 -0.5788 -0.2152
   42MOL0     C 5564  -1.882   3.446   6.384  0.1373 -0.0883  0.8656
   42MOL0     C 5565  -1.969   3.325   6.360 -0.2694 -0.8771 -0.2938
   42MOL0     O 5566  -2.099   3.351   6.323 -0.3612 -0.2793 -0.0449
   42MOL0     C 5567  -2.175   3.246   6.279  1.6299  0.8379 -0.6777
   42MOL0     C 5568  -2.197   3.135   6.363  0.0016 -0.0851 -0.3624
   42MOL0     C 5569  -2.284   3.028   6.319 -0.1835  0.1873  1.2411
   42MOL0     C 5570  -2.355   3.050   6.201  1.3206  1.5848 -0.8049
   42MOL0     O 5571  -2.458   2.956   6.182 -0.2715 -0.1750 -0.2701
   42MOL0     C 5572  -2.497   2.925   6.050  1.2737  0.0435 -0.7664
   42MOL0     C 5573  -2.575   2.798   6.040 -0.0616 -0.8492 -0.1055
   42MOL0     C 5574  -2.604   2.760   5.891  0.0628  0.5175  0.4331
   42MOL0     C 5575  -2.715   2.660   5.881 -0.1798  0.3709 -0.0594
   42MOL0     C 5576  -2.702   2.534   5.983  0.5746 -0.4437  0.9734
   42MOL0     C 5577  -2.757   2.395   5.935  0.2075  0.1884  0.1106
   42MOL0     C 5578  -2.717   2.334   5.800  0.2649 -0.2588 -0.4336
   42MOL0     C 5579  -2.808   2.210   5.772  0.5922  0.0444 -0.5215
   42MOL0    Cl 5580  -2.752   2.069   5.882  0.5947 -0.0288 -0.0151
   42MOL0     C 5581  -2.336   3.163   6.119 -0.0714 -0.2089 -0.3886
   42MOL0     C 5582  -2.236   3.252   6.159  0.0200 -0.0691  0.6292
   42MOL0     O 5583  -1.917   3.217   6.364  0.0766  1.5722 -0.9063
   42MOL0     C 5584  -1.945   3.566   6.411 -0.4696 -0.8093 -0.1388
   42MOL0     C 5585  -1.872   3.685   6.447  0.3317  0.2080 -0.2824
   42MOL0     N 5586  -1.284   3.581   6.403  0.3562 -0.2119 -0.2732
   42MOL0     N 5587  -1.240   3.460   6.376  0.1327 -0.5507 -0.4127
   42MOL0     C 5588  -0.027   3.501   6.521  1.4141  0.6099  0.1524
   42MOL0     C 5589   0.109   3.467   6.551  0.1037 -1.1357  0.1996
   42MOL0     C 5590   0.485   3.259   6.623  0.5042 -0.8159  0.2209
   42MOL0     C 5591   0.534   3.385   6.666 -0.9144  0.2023  0.8106
   42MOL0     C 5592   0.646   3.397   6.741 -0.3283  0.0797 -0.4217
   42MOL0     C 5593   0.707   3.285   6.792  0.6548  0.8463 -0.5531
   42MOL0     O 5594   0.822   3.303   6.854 -0.5943 -0.5902 -0.7310
   42MOL0     C 5595   0.848   3.231   6.975  0.0632 -0.5587 -0.8330
   42MOL0     C 5596   0.925   3.327   7.070 -1.0538  0.4611 -0.3392
   42MOL0     C 5597   1.072   3.338   7.016  0.1421  0.2352 -0.1593
   42MOL0     C 5598   1.162   3.411   7.117 -1.1477 -0.2183  0.4907
   42MOL0     C 5599   1.294   3.412   7.059  0.7810 -0.2779  0.3585
   42MOL0     C 5600   1.411   3.393   7.021 -0.1736  0.6882  0.3155
   42MOL0     C 5601   0.655   3.157   6.761 -0.4221  0.1599  0.2060
   42MOL0     C 5602   0.549   3.143   6.680  0.6227  0.5230  0.7607
   42MOL0     H 5603   0.161   3.238   6.302 -1.2085  0.8598  0.3848
   42MOL0     H 5604  -0.068   3.291   6.251  0.0408  1.1147 -1.5760
   42MOL0     H 5605  -0.397   3.444   6.321 -1.6695 -0.4494  0.7191
   42MOL0     H 5606  -0.296   3.297   6.329  2.5473  0.5717  0.4301
   42MOL0     H 5607  -0.259   3.357   6.582  2.0489  0.9452 -2.0870
   42MOL0     H 5608  -0.377   3.494   6.562  0.0720  0.0551  1.0090
   42MOL0     H 5609  -0.426   3.190   6.507  1.0161  0.5303 -1.2719
   42MOL0     H 5610  -0.482   3.279   6.661  2.1271  0.4985  0.1815
   42MOL0     H 5611  -0.634   3.409   6.565 -1.3990  1.7048 -2.0543
   42MOL0     H 5612  -0.594   3.369   6.404 -0.2083 -1.3758 -0.3930
   42MOL0     H 5613  -0.646   3.116   6.463  0.1511  0.2947 -1.0970
   42MOL0     H 5614  -0.714   3.180   6.623  0.6919  1.0364  0.9103
   42MOL0     H 5615  -0.814   3.203   6.343  1.0305 -1.4332  0.3141
   42MOL0     H 5616  -0.892   3.116   6.464 -0.2148  0.3569  1.8705
   42MOL0     H 5617  -0.893   3.324   6.613  0.3774 -2.0811 -0.4410
   42MOL0     H 5618  -0.873   3.411   6.458 -1.6773  0.9823  0.7217
   42MOL0     H 5619  -1.107   3.231   6.535  0.2821 -1.0547 -0.3161
   42MOL0     H 5620  -1.076   3.273   6.365 -0.0424  0.9149 -0.7172
   42MOL0     H 5621  -1.069   3.535   6.647 -1.8234  1.4410  2.1657
   42MOL0     H 5622  -1.135   3.796   6.606 -0.2332  1.3665  1.3783
   42MOL0     H 5623  -1.250   3.835   6.469  2.1662 -0.7972 -0.9608
   42MOL0     H 5624  -1.339   3.877   6.720 -0.4292 -1.1108  3.1594
   42MOL0     H 5625  -1.312   3.696   6.743  0.6212  0.3068  1.0788
   42MOL0     H 5626  -1.540   3.759   6.707  0.2354 -0.0965  1.4081
   42MOL0     H 5627  -1.483   3.639   6.610 -1.6347  0.3487  2.6013
   42MOL0     H 5628  -1.490   3.790   6.410 -0.7741 -1.3470 -0.5444
   42MOL0     H 5629  -1.505   3.933   6.512  2.1096 -1.3977  2.3494
   42MOL0     H 5630  -1.565   3.565   6.434 -0.3028  0.2492  0.2855
   42MOL0     H 5631  -1.665   3.322   6.233  1.7335 -0.7400 -0.3577
   42MOL0     H 5632  -1.553   3.345   6.374 -0.3098  0.6595  0.6452
   42MOL0     H 5633  -1.693   3.241   6.384 -3.3432  0.1985 -1.1084
   42MOL0     H 5634  -2.164   3.122   6.466 -2.3701 -2.2062  0.2341
   42MOL0     H 5635  -2.283   2.935   6.375  0.2687 -0.4208  0.2519
   42MOL0     H 5636  -2.561   3.005   6.011  1.9124 -0.5537 -3.1834
   42MOL0     H 5637  -2.418   2.918   5.975 -0.4523 -0.7213 -2.6161
   42MOL0     H 5638  -2.515   2.718   6.084  2.7376 -0.7381 -3.3185
   42MOL0     H 5639  -2.670   2.815   6.092  1.6226  1.7541  2.4483
   42MOL0     H 5640  -2.520   2.733   5.826 -0.7688  1.8337 -1.2788
   42MOL0     H 5641  -2.638   2.847   5.835  1.7545  1.3459  0.6311
   42MOL0     H 5642  -2.812   2.706   5.904  0.0677  1.6154 -1.3763
   42MOL0     H 5643  -2.729   2.627   5.778  0.4866 -1.0318  0.2750
   42MOL0     H 5644  -2.742   2.554   6.083 -0.9316 -1.6198  0.6388
   42MOL0     H 5645  -2.596   2.519   6.008  1.9038  5.1892  0.1032
   42MOL0     H 5646  -2.725   2.321   6.009  1.1391 -0.7733 -1.2112
   42MOL0     H 5647  -2.865   2.412   5.929  0.2236 -0.0597 -1.2890
   42MOL0     H 5648  -2.617   2.294   5.817  0.0530 -1.2231 -1.3263
   42MOL0     H 5649  -2.727   2.400   5.713  0.9790 -1.4555 -1.4609
   42MOL0     H 5650  -2.797   2.179   5.668 -1.0459  0.8593 -0.9691
   42MOL0     H 5651  -2.914   2.230   5.789  1.1676  2.4115  0.6970
   42MOL0     H 5652  -2.390   3.178   6.026  1.1192 -0.0097 -1.0677
   42MOL0     H 5653  -2.212   3.344   6.106 -0.4613 -1.0290 -1.3456
   42MOL0     H 5654  -2.053   3.569   6.399 -0.5748 -1.0358  0.6809
   42MOL0     H 5655  -1.931   3.774   6.467 -0.5478 -0.1370 -1.2276
   42MOL0     H 5656  -0.082   3.573   6.581  0.5352  0.1539 -0.0917
   42MOL0     H 5657   0.157   3.528   6.627  2.9351  0.5528 -2.6721
   42MOL0     H 5658   0.478   3.473   6.634 -1.2590 -0.4625 -0.4737
   42MOL0     H 5659   0.686   3.493   6.772 -0.1775  0.1921 -0.9507
   42MOL0     H 5660   0.749   3.205   7.014 -1.0998  2.6939 -1.2506
   42MOL0     H 5661   0.902   3.140   6.949 -0.9094 -0.5498 -3.1795
   42MOL0     H 5662   0.934   3.279   7.168  0.1083 -2.8779 -1.9272
   42MOL0     H 5663   0.873   3.423   7.071  1.2765  1.8655 -2.0964
   42MOL0     H 5664   1.076   3.394   6.922 -1.3712  1.3281  0.3825
   42MOL0     H 5665   1.110   3.239   6.993 -1.3518 -0.3811 -0.0650
   42MOL0     H 5666   1.154   3.368   7.217 -0.7617  0.8956  1.0089
   42MOL0     H 5667   1.120   3.511   7.125 -1.6063 -0.3427 -0.2508
   42MOL0     H 5668   1.513   3.375   6.996 -1.4061 -1.8308 -3.9877
   42MOL0     H 5669   0.721   3.072   6.777 -1.6062 -1.0377 -1.0010
   42MOL0     H 5670   0.514   3.043   6.658  0.7200  0.9225 -1.4253
   43MOL0     O 5671  10.849   3.178   9.502  0.1978 -0.4247 -0.9676
   43MOL0     C 5672  10.921   3.247   9.573  0.1350  0.5743 -0.2462
   43MOL0     O 5673  10.935   3.245   9.714  0.1753 -0.3825  0.3300
   43MOL0     C 5674  10.884   3.135   9.783  0.3792 -0.7749  0.0206
   43MOL0     C 5675  10.838   3.165   9.912 -1.3482 -0.5850  0.2924
   43MOL0     C 5676  10.789   3.066   9.998  0.2370 -0.1376 -0.1099
   43MOL0     C 5677  10.793   2.933   9.955 -0.2789  0.5319  1.0613
   43MOL0     O 5678  10.748   2.817  10.023 -0.2852 -0.5546 -0.3034
   43MOL0     C 5679  10.753   2.814  10.164 -0.5797 -0.0740  0.2924
   43MOL0     C 5680  10.723   2.677  10.211 -0.2108 -0.1040 -0.1711
   43MOL0     C 5681  10.592   2.617  10.155  0.2126 -1.1770 -0.1176
   43MOL0     C 5682  10.470   2.689  10.203  0.9372 -1.0226 -0.0655
   43MOL0     C 5683  10.352   2.632  10.139  1.1100  0.4649 -0.2570
   43MOL0     C 5684  10.215   2.697  10.183 -1.0300  0.8631 -0.7664
   43MOL0     C 5685  10.096   2.611  10.146 -0.3226  0.2082  0.0100
   43MOL0     C 5686  10.059   2.607   9.994 -1.0147 -0.3149  0.1825
   43MOL0     N 5687   9.954   2.507   9.974 -0.7835 -0.5890 -0.5956
   43MOL0     C 5688   9.839   2.555   9.925  0.3442  0.2245  0.1989
   43MOL0     C 5689   9.783   2.433   9.881  0.7178 -0.5959  0.1686
   43MOL0     C 5690   9.665   2.412   9.795 -0.6846 -1.4255  0.6308
   43MOL0     C 5691   9.537   2.365   9.868  0.2730  0.2288 -1.3724
   43MOL0     C 5692   9.436   2.333   9.762  0.8521 -0.3734 -0.3295
   43MOL0     C 5693   9.306   2.285   9.826  0.1733 -0.0162  0.4865
   43MOL0     O 5694   9.195   2.315   9.739  0.6714  0.6721  0.4036
   43MOL0     C 5695   9.077   2.265   9.789 -0.8569 -0.1131  0.4808
   43MOL0     C 5696   9.058   2.130   9.825 -0.3193 -0.2688  0.0159
   43MOL0     C 5697   8.938   2.081   9.873 -0.7482  0.2354  0.9736
   43MOL0     C 5698   8.929   1.944   9.925 -0.5028  0.4580  1.0637
   43MOL0     C 5699   8.837   2.165   9.874  0.9917 -0.3422 -0.1770
   43MOL0     C 5700   8.697   2.125   9.921 -1.3305  0.2443  0.3213
   43MOL0     O 5701   8.590   2.210   9.879 -0.5170  0.5668 -0.6332
   43MOL0     C 5702   8.465   2.160   9.911 -0.5584 -0.2805 -0.0611
   43MOL0     C 5703   8.433   2.028   9.884  1.0269 -0.5919 -0.0960
   43MOL0     C 5704   8.299   1.982   9.892 -0.2059  1.2312 -0.5105
   43MOL0     C 5705   8.201   2.060   9.948  0.1474 -0.5554  0.3436
   43MOL0     O 5706   8.078   1.996   9.961  0.8784 -0.4873  0.2289
   43MOL0     C 5707   7.972   2.082  10.013 -0.5013 -0.1578 -0.2638
   43MOL0     C 5708   7.845   1.996  10.036 -0.7771  0.8805 -0.2181
   43MOL0     C 5709   7.851   1.865  10.116  0.0994  1.9560  0.7685
   43MOL0     C 5710   7.888   1.881  10.265  0.0626  0.6820  0.3388
   43MOL0     C 5711   7.874   1.742  10.335  0.5795 -0.4627 -0.8605
   43MOL0     C 5712   7.905   1.734  10.491 -0.2437 -0.7920 -0.4321
   43MOL0     C 5713   8.059   1.778  10.514 -0.4495  0.4494 -0.3907
   43MOL0     C 5714   8.106   1.738  10.655  0.2560  1.2523  0.2340
   43MOL0    Cl 5715   8.280   1.774  10.685 -0.1293  0.1325 -0.1772
   43MOL0     C 5716   8.238   2.195   9.969  0.6716 -0.3862 -0.8079
   43MOL0     C 5717   8.365   2.245   9.948  0.2807 -0.4968 -0.6624
   43MOL0     O 5718   8.688   2.031   9.998 -0.5685  0.0691  0.8096
   43MOL0     C 5719   8.848   2.305   9.832 -0.2083  0.1776 -0.5076
   43MOL0     C 5720   8.972   2.355   9.792  0.2698  0.0803 -0.6272
   43MOL0     N 5721   9.867   2.331   9.900 -0.6211  0.8970 -0.0311
   43MOL0     N 5722   9.973   2.381   9.947 -0.2431  0.7404  0.5943
   43MOL0     C 5723  10.829   2.905   9.825  0.8321 -0.0611  0.2318
   43MOL0     C 5724  10.878   3.001   9.739 -0.4351 -0.1298  0.3579
   43MOL0     C 5725  11.026   3.325   9.495 -0.3682 -0.2199  0.0082
   43MOL0     C 5726  11.134   3.383   9.560 -0.5163 -0.2253  0.0932
   43MOL0     C 5727  11.246   3.427   9.496 -0.9893  0.0978  0.0752
   43MOL0     C 5728  11.254   3.430   9.354  0.9972 -0.2021  0.1948
   43MOL0     O 5729  11.366   3.467   9.278 -0.0729 -0.8090  0.0726
   43MOL0     C 5730  11.474   3.520   9.353 -0.0990  0.8450  0.1735
   43MOL0     C 5731  11.569   3.581   9.244  0.7060 -0.1502 -1.2477
   43MOL0     C 5732  11.696   3.633   9.310 -0.2048  0.7382 -0.7335
   43MOL0     C 5733  11.766   3.736   9.222 -0.2558 -0.3950  0.0033
   43MOL0     C 5734  11.790   3.703   9.079  0.7141  0.0090 -0.6039
   43MOL0     C 5735  11.788   3.675   8.967 -0.4231 -0.0404  0.3530
   43MOL0     C 5736  11.144   3.393   9.281 -0.3162 -0.2187 -0.3122
   43MOL0     C 5737  11.031   3.335   9.352 -0.0816  0.0117 -0.1166
   43MOL0     H 5738  10.848   3.266   9.949 -1.8911  0.4760 -2.2665
   43MOL0     H 5739  10.748   3.081  10.097  3.3331 -0.8873  1.4336
   43MOL0     H 5740  10.848   2.850  10.203 -1.1184  2.3421 -0.4883
   43MOL0     H 5741  10.673   2.875  10.207 -0.5631  1.8018 -2.1180
   43MOL0     H 5742  10.798   2.620  10.155 -1.4000  0.3102 -2.2818
   43MOL0     H 5743  10.739   2.664  10.318 -2.8349 -0.8138  0.1907
   43MOL0     H 5744  10.586   2.618  10.045 -0.4711  0.0052 -0.0841
   43MOL0     H 5745  10.590   2.512  10.185  0.7684 -0.4165  2.8199
   43MOL0     H 5746  10.455   2.681  10.311  0.2527  1.9188  0.1417
   43MOL0     H 5747  10.476   2.792  10.169 -2.4047 -0.9222 -0.6394
   43MOL0     H 5748  10.363   2.649  10.031  2.7902  3.3142  0.2565
   43MOL0     H 5749  10.358   2.525  10.159 -0.3521 -0.0436 -2.1707
   43MOL0     H 5750  10.218   2.717  10.290  1.6095 -0.9917 -0.4034
   43MOL0     H 5751  10.210   2.795  10.134 -0.1801  1.8280  0.9819
   43MOL0     H 5752  10.100   2.513  10.194 -0.9501  0.1788  0.0029
   43MOL0     H 5753  10.013   2.657  10.200  1.0634  0.7082  1.8484
   43MOL0     H 5754  10.149   2.568   9.946 -0.2014  1.8117 -0.1161
   43MOL0     H 5755  10.049   2.703   9.942  2.0400  0.6300  1.0773
   43MOL0     H 5756   9.801   2.656   9.913  0.1286 -0.0914 -2.4208
   43MOL0     H 5757   9.653   2.502   9.734  0.4505 -2.6427 -1.5049
   43MOL0     H 5758   9.692   2.335   9.723  2.3699  2.1156 -2.4729
   43MOL0     H 5759   9.507   2.451   9.928  0.3769 -0.0176 -0.9655
   43MOL0     H 5760   9.556   2.282   9.936 -2.7721  0.4263 -0.1158
   43MOL0     H 5761   9.473   2.258   9.692 -0.9597 -1.1574 -0.4932
   43MOL0     H 5762   9.423   2.424   9.702 -0.0399  0.7244  1.4200
   43MOL0     H 5763   9.289   2.340   9.919 -2.1410  0.6807 -0.2684
   43MOL0     H 5764   9.312   2.177   9.845  1.8552 -0.4057 -1.8448
   43MOL0     H 5765   9.136   2.055   9.833 -1.4428 -1.5138 -0.3195
   43MOL0     H 5766   9.010   1.882   9.885 -1.6172 -0.7679  0.6079
   43MOL0     H 5767   8.923   1.949  10.034  3.4473  1.6490  1.3758
   43MOL0     H 5768   8.837   1.896   9.889 -0.3635  2.1546 -1.8951
   43MOL0     H 5769   8.512   1.971   9.837  0.3094  0.8096 -3.2563
   43MOL0     H 5770   8.269   1.880   9.871  1.6649  0.6003 -0.3181
   43MOL0     H 5771   8.015   2.135  10.099 -2.8241  0.3962  0.6543
   43MOL0     H 5772   7.943   2.160   9.942  1.4255  0.2782 -0.6198
   43MOL0     H 5773   7.767   2.057  10.082 -0.4820  2.2478 -1.4348
   43MOL0     H 5774   7.809   1.975   9.934  0.1388 -1.2576 -0.1611
   43MOL0     H 5775   7.909   1.790  10.061 -0.1869  0.3895  2.5076
   43MOL0     H 5776   7.753   1.818  10.128 -0.6597  2.4563 -2.4536
   43MOL0     H 5777   7.995   1.904  10.273  1.5675 -4.9813  0.8391
   43MOL0     H 5778   7.828   1.951  10.324  2.5246  3.7694 -0.5589
   43MOL0     H 5779   7.925   1.668  10.273 -0.1124 -1.5083 -0.2018
   43MOL0     H 5780   7.769   1.712  10.332  0.3213  0.3794 -0.6942
   43MOL0     H 5781   7.836   1.803  10.540  1.0388  1.9133 -2.2191
   43MOL0     H 5782   7.874   1.640  10.538  0.1186  0.1695  1.8336
   43MOL0     H 5783   8.074   1.885  10.497 -0.7116  0.2442 -2.0525
   43MOL0     H 5784   8.118   1.723  10.440 -0.9390 -0.6743  0.0371
   43MOL0     H 5785   8.080   1.633  10.667  0.6578  1.0127 -0.9357
   43MOL0     H 5786   8.038   1.791  10.722 -1.5484  0.2686 -0.7490
   43MOL0     H 5787   8.155   2.259   9.996 -0.1562 -1.5384 -0.5854
   43MOL0     H 5788   8.382   2.352   9.955  2.5377 -0.9016  1.2721
   43MOL0     H 5789   8.760   2.367   9.841 -0.2205  0.0155  0.6636
   43MOL0     H 5790   8.981   2.455   9.751  0.6305 -0.6405 -2.3906
   43MOL0     H 5791  10.836   2.800   9.800 -0.7620 -0.3157  0.7137
   43MOL0     H 5792  10.922   2.972   9.644 -0.4780 -1.9644  0.8529
   43MOL0     H 5793  11.159   3.377   9.666 -1.1207 -1.9333  0.1727
   43MOL0     H 5794  11.334   3.463   9.548 -0.4749 -0.2777 -0.5158
   43MOL0     H 5795  11.440   3.603   9.417 -0.5021 -0.3130  1.5148
   43MOL0     H 5796  11.514   3.443   9.419 -1.3218  0.4947  0.5264
   43MOL0     H 5797  11.508   3.665   9.209 -0.9951  0.7178  3.1603
   43MOL0     H 5798  11.594   3.509   9.166  4.7483 -2.2870  1.6628
   43MOL0     H 5799  11.770   3.554   9.327  1.7336  2.1220 -2.2397
   43MOL0     H 5800  11.681   3.680   9.407  1.0952 -1.0416  0.4084
   43MOL0     H 5801  11.865   3.750   9.266  0.0241 -3.4126  0.5568
   43MOL0     H 5802  11.708   3.829   9.222 -0.6917 -0.6103 -2.3115
   43MOL0     H 5803  11.796   3.642   8.865 -0.2652  0.9374  0.0442
   43MOL0     H 5804  11.146   3.408   9.174 -0.7681 -1.3133 -0.4959
   43MOL0     H 5805  10.948   3.294   9.296 -0.8984 -0.3980  1.3235
   44MOL0     O 5806   1.041  10.471   0.851 -0.5840  0.2211  0.0014
   44MOL0     C 5807   1.086  10.587   0.818 -0.0941 -0.0900  0.3929
   44MOL0     O 5808   1.017  10.705   0.829 -1.1114 -0.3162  0.5389
   44MOL0     C 5809   0.907  10.728   0.908 -0.6539  0.2225 -1.0052
   44MOL0     C 5810   0.825  10.835   0.876  1.1152  1.0491 -0.4699
   44MOL0     C 5811   0.716  10.874   0.949  0.4112 -0.1963 -0.5856
   44MOL0     C 5812   0.679  10.796   1.057 -0.5129  0.7112 -0.0726
   44MOL0     O 5813   0.564  10.815   1.129  0.5623  0.6300  0.6145
   44MOL0     C 5814   0.450  10.885   1.072 -0.0954  1.3398 -0.3429
   44MOL0     C 5815   0.341  10.890   1.179 -0.0394  0.4500  1.0143
   44MOL0     C 5816   0.346  11.020   1.257  0.9587  0.0395 -0.0896
   44MOL0     C 5817   0.330  11.146   1.172 -0.5668 -0.5834 -0.6197
   44MOL0     C 5818   0.218  11.141   1.069  0.4593 -0.5115  0.3052
   44MOL0     C 5819   0.221  11.257   0.971 -0.0180  0.2860 -0.0970
   44MOL0     C 5820   0.089  11.268   0.885  0.2482  0.5932 -0.6699
   44MOL0     C 5821   0.095  11.359   0.761  1.5405 -0.4694 -0.4223
   44MOL0     N 5822  -0.041  11.367   0.712  0.8050 -0.2154  0.7632
   44MOL0     C 5823  -0.142  11.449   0.765  0.2566 -0.1970 -0.5029
   44MOL0     C 5824  -0.239  11.434   0.673  0.2530  0.5960 -0.3797
   44MOL0     C 5825  -0.375  11.501   0.678 -0.9146  0.0271  0.3713
   44MOL0     C 5826  -0.485  11.396   0.651 -0.6501 -0.0014  0.5055
   44MOL0     C 5827  -0.626  11.472   0.649  1.5547  0.8869 -0.3149
   44MOL0     C 5828  -0.735  11.411   0.566 -0.2620  0.0727 -0.7169
   44MOL0     O 5829  -0.853  11.490   0.586  0.2369 -0.3805 -0.3011
   44MOL0     C 5830  -0.953  11.458   0.495 -0.3551 -0.4547 -0.0644
   44MOL0     C 5831  -0.996  11.543   0.389  0.1314  0.2612 -0.0246
   44MOL0     C 5832  -1.100  11.501   0.305 -0.5033 -0.7446  1.3484
   44MOL0     C 5833  -1.141  11.597   0.211  0.1623 -0.3767  0.1432
   44MOL0     C 5834  -1.163  11.376   0.324  0.5388 -0.3086 -0.1236
   44MOL0     C 5835  -1.259  11.306   0.225  0.0910 -0.6773 -0.7001
   44MOL0     O 5836  -1.318  11.189   0.266 -0.3731 -0.2077  0.1394
   44MOL0     C 5837  -1.408  11.124   0.189 -0.4921  0.6126  0.7710
   44MOL0     C 5838  -1.387  10.988   0.176  0.2555 -0.4805 -0.0751
   44MOL0     C 5839  -1.479  10.906   0.095  0.8612  0.0432 -0.4317
   44MOL0     C 5840  -1.597  10.967   0.042  1.0310  0.1098  0.1102
   44MOL0     O 5841  -1.674  10.899  -0.045  0.5531  0.2177 -0.5295
   44MOL0     C 5842  -1.599  10.840  -0.150  0.5999 -0.1574 -0.3431
   44MOL0     C 5843  -1.689  10.745  -0.227  0.5427 -0.1452 -0.3641
   44MOL0     C 5844  -1.812  10.815  -0.282 -0.0719 -0.1714 -0.2521
   44MOL0     C 5845  -1.912  10.713  -0.340 -0.4254  0.1423 -0.1299
   44MOL0     C 5846  -1.973  10.772  -0.461 -0.5637 -0.5905 -0.8609
   44MOL0     C 5847  -2.075  10.681  -0.534  0.1053 -0.6089 -1.6978
   44MOL0     C 5848  -2.012  10.552  -0.582 -0.3807 -0.6657  0.0858
   44MOL0     C 5849  -2.046  10.433  -0.490  0.0418 -0.5412  0.7388
   44MOL0    Cl 5850  -2.203  10.377  -0.536  0.6066 -0.3477  0.1235
   44MOL0     C 5851  -1.611  11.107   0.056  0.2557 -0.6187  0.2686
   44MOL0     C 5852  -1.514  11.181   0.124  1.0161 -0.0821  0.0972
   44MOL0     O 5853  -1.276  11.356   0.113 -0.0369  0.0123  0.4700
   44MOL0     C 5854  -1.123  11.298   0.429 -0.4472 -0.1288 -0.0737
   44MOL0     C 5855  -1.026  11.343   0.519  0.1280  0.2134  0.5673
   44MOL0     N 5856  -0.199  11.352   0.576  0.2106  0.5414  1.0033
   44MOL0     N 5857  -0.074  11.318   0.589  0.4627 -0.4476 -0.2898
   44MOL0     C 5858   0.759  10.693   1.095  0.6278  0.5360  0.1472
   44MOL0     C 5859   0.877  10.655   1.019  0.2028 -0.4553 -0.7599
   44MOL0     C 5860   1.222  10.604   0.772 -0.2608  0.6045 -0.4298
   44MOL0     C 5861   1.307  10.480   0.779  0.1210  0.0301 -0.2938
   44MOL0     C 5862   1.445  10.497   0.758 -0.5643  0.3361  0.5298
   44MOL0     C 5863   1.511  10.620   0.741 -0.2369 -0.2891 -0.2439
   44MOL0     O 5864   1.646  10.613   0.735  0.8401  0.2504  0.9332
   44MOL0     C 5865   1.727  10.728   0.723  0.4274  0.2021 -0.0371
   44MOL0     C 5866   1.869  10.682   0.738  0.5895 -0.6761  0.0584
   44MOL0     C 5867   1.923  10.593   0.628 -0.1151 -0.1307 -0.0243
   44MOL0     C 5868   1.938  10.450   0.676  0.7058 -0.6443  0.2677
   44MOL0     C 5869   2.042  10.423   0.777  0.1702 -0.0733 -0.3268
   44MOL0     C 5870   2.139  10.433   0.846 -0.1116 -0.0952 -1.0228
   44MOL0     C 5871   1.430  10.734   0.729  0.0395 -0.1980  0.6151
   44MOL0     C 5872   1.291  10.720   0.738  0.2201 -0.0661  0.1284
   44MOL0     H 5873   0.847  10.894   0.787  5.4413  1.8617  0.9230
   44MOL0     H 5874   0.662  10.960   0.910  2.3588  1.1636 -0.4361
   44MOL0     H 5875   0.478  10.988   1.049  0.3839  1.2466 -0.2067
   44MOL0     H 5876   0.409  10.842   0.980  0.5191  2.1152 -0.9905
   44MOL0     H 5877   0.245  10.885   1.127 -0.4491 -3.0638  1.8345
   44MOL0     H 5878   0.343  10.794   1.233 -1.6822  0.0852  0.4716
   44MOL0     H 5879   0.262  11.028   1.326  1.0985 -1.1067  0.2372
   44MOL0     H 5880   0.439  11.033   1.314 -0.5368 -0.9873  2.8070
   44MOL0     H 5881   0.312  11.224   1.246  0.3263 -2.8568  2.2014
   44MOL0     H 5882   0.422  11.176   1.122 -2.8593  2.1950 -3.5764
   44MOL0     H 5883   0.218  11.056   1.000 -4.1002  0.7614 -1.7028
   44MOL0     H 5884   0.123  11.144   1.124 -0.2886  0.2117 -0.9728
   44MOL0     H 5885   0.243  11.347   1.028 -3.6985  0.2338  1.6491
   44MOL0     H 5886   0.306  11.228   0.909  2.0968  0.3757  2.5706
   44MOL0     H 5887   0.063  11.169   0.845 -0.0493  0.2954  0.2427
   44MOL0     H 5888   0.012  11.302   0.955 -0.1452 -1.0936 -0.2560
   44MOL0     H 5889   0.162  11.314   0.687 -0.4055 -1.2603 -1.7911
   44MOL0     H 5890   0.142  11.456   0.781  0.0496 -0.0238  1.1917
   44MOL0     H 5891  -0.148  11.522   0.845 -0.0063 -0.5800 -0.1727
   44MOL0     H 5892  -0.401  11.526   0.782 -1.5673  0.9718 -0.0041
   44MOL0     H 5893  -0.391  11.580   0.604 -2.9824 -1.4428 -0.8402
   44MOL0     H 5894  -0.489  11.317   0.727  0.8780  0.1981  0.8316
   44MOL0     H 5895  -0.468  11.350   0.553 -0.7543  0.6444  0.1789
   44MOL0     H 5896  -0.616  11.573   0.609  1.0798  1.1269  0.1601
   44MOL0     H 5897  -0.641  11.487   0.756  1.5258  1.3728 -0.3847
   44MOL0     H 5898  -0.745  11.304   0.590  5.9238 -0.6237  0.4701
   44MOL0     H 5899  -0.694  11.412   0.465  1.2302 -1.4687 -0.1811
   44MOL0     H 5900  -0.932  11.629   0.373 -0.7046  1.2700  1.7243
   44MOL0     H 5901  -1.220  11.649   0.266  2.4053  1.3128  1.9513
   44MOL0     H 5902  -1.057  11.664   0.194 -0.2247  1.2234  3.6057
   44MOL0     H 5903  -1.181  11.557   0.117 -0.1736  1.1835 -0.3969
   44MOL0     H 5904  -1.296  10.940   0.212  2.3318  1.7064 -2.1076
   44MOL0     H 5905  -1.469  10.798   0.096  0.4126 -0.1079  3.1742
   44MOL0     H 5906  -1.551  10.911  -0.219  1.1097  2.3274  2.3718
   44MOL0     H 5907  -1.516  10.780  -0.113 -0.1384 -0.8279  0.2446
   44MOL0     H 5908  -1.633  10.699  -0.309 -1.6752  1.5838 -3.0284
   44MOL0     H 5909  -1.736  10.671  -0.163  1.3983 -0.8920 -0.5804
   44MOL0     H 5910  -1.772  10.889  -0.352 -0.6961  1.1221  0.6892
   44MOL0     H 5911  -1.873  10.885  -0.223 -0.0427  2.4240 -3.0682
   44MOL0     H 5912  -1.872  10.616  -0.371  2.7087  1.3929 -0.4116
   44MOL0     H 5913  -1.979  10.689  -0.257  2.6596 -1.1634  2.1818
   44MOL0     H 5914  -1.893  10.803  -0.528  2.5658  1.4415  3.3811
   44MOL0     H 5915  -2.033  10.859  -0.434 -0.4942 -0.7233 -0.2665
   44MOL0     H 5916  -2.167  10.676  -0.475 -1.1495  1.6126 -3.3038
   44MOL0     H 5917  -2.103  10.745  -0.619  1.8859 -0.7099 -2.3981
   44MOL0     H 5918  -1.904  10.560  -0.592 -0.4103 -0.8927 -0.4547
   44MOL0     H 5919  -2.044  10.537  -0.686 -0.2216 -1.1287  0.1009
   44MOL0     H 5920  -2.043  10.468  -0.386  1.4777  0.0023  0.5376
   44MOL0     H 5921  -1.967  10.359  -0.505  0.4614  0.5031 -3.6841
   44MOL0     H 5922  -1.696  11.162   0.016 -1.7806 -3.6808  0.0632
   44MOL0     H 5923  -1.526  11.289   0.127 -0.0747 -0.1191 -1.4567
   44MOL0     H 5924  -1.175  11.207   0.456 -0.6039  0.7110  2.8092
   44MOL0     H 5925  -0.993  11.284   0.605 -0.0533 -1.5476 -0.5255
   44MOL0     H 5926   0.741  10.636   1.186  0.2577 -0.7578 -0.7040
   44MOL0     H 5927   0.938  10.572   1.053  1.3771  1.1066  1.1742
   44MOL0     H 5928   1.272  10.379   0.794  1.4931 -0.1468  2.3650
   44MOL0     H 5929   1.489  10.398   0.754 -0.7075  0.2590  0.8340
   44MOL0     H 5930   1.699  10.757   0.621  1.0602 -1.0879 -0.6031
   44MOL0     H 5931   1.705  10.806   0.796  1.7736 -0.1633  0.7974
   44MOL0     H 5932   1.892  10.643   0.837 -0.8300  0.3386  0.8242
   44MOL0     H 5933   1.919  10.777   0.718 -0.0634 -0.7388 -2.1571
   44MOL0     H 5934   2.025  10.622   0.600  0.1446 -1.0032 -0.0060
   44MOL0     H 5935   1.854  10.590   0.543  1.5743 -0.0769 -1.4680
   44MOL0     H 5936   1.956  10.398   0.581 -0.3589  0.1894 -0.4119
   44MOL0     H 5937   1.846  10.403   0.715 -0.3266 -0.8133 -2.1797
   44MOL0     H 5938   2.222  10.433   0.913  0.5856  0.1743 -1.8748
   44MOL0     H 5939   1.473  10.829   0.699  0.2962 -0.8959 -1.3691
   44MOL0     H 5940   1.238  10.811   0.713  1.4953  0.0071 -2.6128
   45MOL0     O 5941   2.254   3.029   6.957  0.2603  0.3201  0.2459
   45MOL0     C 5942   2.196   3.057   6.852 -0.1022 -0.3086  1.3714
   45MOL0     O 5943   2.260   3.056   6.732  0.6911 -0.1668 -0.3887
   45MOL0     C 5944   2.381   2.998   6.714 -1.0549  0.0609  0.0605
   45MOL0     C 5945   2.403   2.932   6.585 -0.0652 -1.1348 -0.5764
   45MOL0     C 5946   2.525   2.876   6.562 -0.2217  0.5830 -0.4348
   45MOL0     C 5947   2.634   2.879   6.647 -0.2702 -0.7971  0.4939
   45MOL0     O 5948   2.748   2.807   6.622  0.2937 -0.7140  0.2921
   45MOL0     C 5949   2.811   2.729   6.721  0.0921  0.6132 -0.3812
   45MOL0     C 5950   2.920   2.645   6.657  0.3932 -0.3646  0.4213
   45MOL0     C 5951   3.005   2.551   6.750 -0.2543  0.6195  0.0352
   45MOL0     C 5952   3.124   2.488   6.678  0.2623  0.5598  0.0158
   45MOL0     C 5953   3.202   2.425   6.789  0.9730  0.0493 -0.0324
   45MOL0     C 5954   3.293   2.312   6.728 -0.2527 -0.1436 -0.3880
   45MOL0     C 5955   3.369   2.226   6.838 -0.3141 -0.1280  0.2790
   45MOL0     C 5956   3.440   2.095   6.795  0.6600  0.6117  0.0195
   45MOL0     N 5957   3.551   2.122   6.699 -0.3395  1.3601  0.1787
   45MOL0     C 5958   3.683   2.088   6.724  0.2268  0.2919  0.1456
   45MOL0     C 5959   3.737   2.088   6.604  0.3302  0.5110  0.1792
   45MOL0     C 5960   3.883   2.057   6.590  0.4589 -0.4963 -0.2590
   45MOL0     C 5961   3.907   1.929   6.514 -0.3306 -0.2313 -0.8761
   45MOL0     C 5962   4.032   1.860   6.572 -0.1554 -0.5778  0.0138
   45MOL0     C 5963   4.082   1.754   6.475  0.4460  0.4690  0.3630
   45MOL0     O 5964   4.079   1.791   6.340  0.2444 -0.5501 -0.3655
   45MOL0     C 5965   4.137   1.722   6.236  0.3122 -0.7760 -0.0235
   45MOL0     C 5966   4.226   1.614   6.247  1.1255 -0.2562 -0.1279
   45MOL0     C 5967   4.286   1.560   6.137 -0.7998  0.2558 -0.2166
   45MOL0     C 5968   4.360   1.426   6.159 -0.0370 -0.7184  0.4972
   45MOL0     C 5969   4.287   1.633   6.010  0.1522  0.2912 -0.0402
   45MOL0     C 5970   4.339   1.583   5.873  0.5591  1.3196  0.4743
   45MOL0     O 5971   4.328   1.673   5.766  0.6685  0.7021  0.2391
   45MOL0     C 5972   4.301   1.618   5.642 -0.2957  0.0427  0.1373
   45MOL0     C 5973   4.331   1.703   5.538  0.7391 -0.8717 -0.2437
   45MOL0     C 5974   4.301   1.667   5.408 -0.0981 -0.3233 -0.4147
   45MOL0     C 5975   4.241   1.546   5.378 -0.3196  1.1518  0.4427
   45MOL0     O 5976   4.192   1.508   5.250 -0.0835  0.3722 -0.3498
   45MOL0     C 5977   4.168   1.605   5.150  1.0588 -0.8576 -0.0645
   45MOL0     C 5978   4.029   1.670   5.183 -0.6062  0.1032  0.5675
   45MOL0     C 5979   3.911   1.578   5.170  0.7314  0.1552 -0.2765
   45MOL0     C 5980   3.782   1.630   5.230 -0.6234 -0.5533  0.4612
   45MOL0     C 5981   3.779   1.641   5.380 -0.0513 -0.3379  0.1464
   45MOL0     C 5982   3.661   1.736   5.433 -0.9339  0.0153  0.2300
   45MOL0     C 5983   3.634   1.731   5.589 -0.7542 -0.1943  0.3662
   45MOL0     C 5984   3.486   1.728   5.628  0.6770 -0.3060  0.7379
   45MOL0    Cl 5985   3.368   1.628   5.533 -0.0532  0.1048  0.1068
   45MOL0     C 5986   4.218   1.455   5.481  0.4384 -1.2909  0.7021
   45MOL0     C 5987   4.241   1.495   5.610  0.1808  0.7494 -0.5566
   45MOL0     O 5988   4.386   1.468   5.870 -0.0383  0.1118 -0.0985
   45MOL0     C 5989   4.205   1.747   5.999  0.9770  0.7615 -0.2980
   45MOL0     C 5990   4.120   1.780   6.108  0.0740 -0.0886 -0.0051
   45MOL0     N 5991   3.639   2.123   6.516  0.0828  0.3563  0.1035
   45MOL0     N 5992   3.527   2.143   6.566 -0.1865  0.3829 -0.2629
   45MOL0     C 5993   2.615   2.943   6.767 -0.2197 -0.3628  0.3236
   45MOL0     C 5994   2.490   3.004   6.795  0.5934 -0.2912 -0.6443
   45MOL0     C 5995   2.053   3.082   6.856  0.5023  0.5367  0.2314
   45MOL0     C 5996   1.975   3.095   6.738 -0.2072 -0.9459 -0.2450
   45MOL0     C 5997   1.836   3.107   6.745  0.6695  0.7895  0.3982
   45MOL0     C 5998   1.774   3.070   6.865 -0.6441 -0.2045  0.1731
   45MOL0     O 5999   1.636   3.069   6.879  0.0692  0.5323 -0.3875
   45MOL0     C 6000   1.540   3.091   6.770 -0.4361  0.8358  0.1761
   45MOL0     C 6001   1.393   3.053   6.814  0.1900 -0.5275  0.3660
   45MOL0     C 6002   1.290   3.126   6.729 -0.1524  0.4422 -0.1834
   45MOL0     C 6003   1.147   3.056   6.734  0.3685  0.3617 -0.0489
   45MOL0     C 6004   1.043   3.127   6.651  0.0788  0.3987 -0.3111
   45MOL0     C 6005   0.958   3.179   6.582  0.6655  0.8297 -0.3276
   45MOL0     C 6006   1.859   3.045   6.979  0.5068 -0.5078  0.9481
   45MOL0     C 6007   1.992   3.067   6.980  0.4181  0.1732  0.1322
   45MOL0     H 6008   2.310   2.942   6.529 -0.3784  2.9032  0.3542
   45MOL0     H 6009   2.542   2.810   6.477  0.8576 -1.1935  1.0742
   45MOL0     H 6010   2.869   2.802   6.779  3.6271 -1.1512 -1.3830
   45MOL0     H 6011   2.733   2.683   6.781  1.0288  1.2264  1.3837
   45MOL0     H 6012   2.871   2.583   6.581  0.0128  2.2157 -1.5775
   45MOL0     H 6013   2.996   2.709   6.612 -0.3034 -0.7624 -1.4440
   45MOL0     H 6014   3.046   2.601   6.838  1.0037 -3.1185  1.7709
   45MOL0     H 6015   2.932   2.479   6.789 -0.3563  0.6026 -0.1873
   45MOL0     H 6016   3.084   2.416   6.606  2.6485 -1.1038  0.2505
   45MOL0     H 6017   3.179   2.566   6.625 -2.1140  1.6764 -0.9784
   45MOL0     H 6018   3.260   2.504   6.838 -0.0270  0.3209  0.7387
   45MOL0     H 6019   3.135   2.399   6.872  3.2172  1.8900  2.5660
   45MOL0     H 6020   3.233   2.243   6.668  1.4558 -1.1229 -1.0363
   45MOL0     H 6021   3.364   2.350   6.655 -1.1424  0.1035 -1.1413
   45MOL0     H 6022   3.456   2.282   6.875 -0.2811  0.8087 -1.1365
   45MOL0     H 6023   3.302   2.198   6.920  0.9407 -1.0717  1.0315
   45MOL0     H 6024   3.366   2.023   6.759  0.9308  0.6920 -0.7085
   45MOL0     H 6025   3.484   2.065   6.890  1.1014  3.0151  0.6358
   45MOL0     H 6026   3.732   2.086   6.821 -0.9929 -1.5897  0.7912
   45MOL0     H 6027   3.941   2.132   6.535 -0.6686  0.2244 -0.5156
   45MOL0     H 6028   3.933   2.056   6.687  0.7189 -1.7047 -0.3996
   45MOL0     H 6029   3.912   1.948   6.407  1.5839 -0.5652 -0.8646
   45MOL0     H 6030   3.826   1.856   6.530  1.4023 -1.8234  1.2639
   45MOL0     H 6031   4.003   1.810   6.665 -1.9922 -1.2981 -0.9124
   45MOL0     H 6032   4.114   1.927   6.600  0.7611 -0.8284 -1.9176
   45MOL0     H 6033   4.027   1.661   6.489  3.0046 -0.9665  1.5016
   45MOL0     H 6034   4.180   1.724   6.514  2.1099  1.6993 -2.5313
   45MOL0     H 6035   4.249   1.578   6.347  1.0711 -0.1065 -0.0609
   45MOL0     H 6036   4.443   1.408   6.090 -3.7779 -1.2250 -4.3859
   45MOL0     H 6037   4.393   1.414   6.263 -1.7220 -1.5433  0.9709
   45MOL0     H 6038   4.290   1.349   6.125 -1.6827  1.1314 -0.5219
   45MOL0     H 6039   4.378   1.794   5.574 -2.2715  0.1279  1.5368
   45MOL0     H 6040   4.334   1.726   5.323 -1.5878 -1.0875 -1.5688
   45MOL0     H 6041   4.244   1.684   5.150  0.4566 -0.2684 -0.4944
   45MOL0     H 6042   4.177   1.576   5.045 -1.6747  3.1842 -1.6750
   45MOL0     H 6043   4.024   1.719   5.280 -0.2895  2.2144 -0.4384
   45MOL0     H 6044   4.009   1.739   5.101 -0.3686  1.2583  1.4679
   45MOL0     H 6045   3.927   1.491   5.234  3.4494  1.1122  0.4962
   45MOL0     H 6046   3.904   1.539   5.068  2.5156 -2.0178  0.3534
   45MOL0     H 6047   3.767   1.729   5.187 -0.1540  0.1445  1.8519
   45MOL0     H 6048   3.696   1.569   5.202 -0.2841 -1.2439  0.8934
   45MOL0     H 6049   3.870   1.694   5.409  0.5580 -1.2339 -0.1239
   45MOL0     H 6050   3.767   1.542   5.424  2.0241  0.3382  2.5303
   45MOL0     H 6051   3.676   1.840   5.403 -1.9679  0.7037  1.9816
   45MOL0     H 6052   3.576   1.681   5.390 -0.2422 -0.9455  0.0511
   45MOL0     H 6053   3.671   1.825   5.630 -2.5820  1.9293 -2.5293
   45MOL0     H 6054   3.684   1.643   5.632  2.5218  1.5308  0.3970
   45MOL0     H 6055   3.440   1.826   5.618  1.7303  0.6119  3.7585
   45MOL0     H 6056   3.486   1.711   5.736  2.6739 -0.0437  0.8191
   45MOL0     H 6057   4.173   1.360   5.456  2.9101 -2.6432  1.0422
   45MOL0     H 6058   4.216   1.425   5.689  0.2663 -0.1573 -1.3231
   45MOL0     H 6059   4.181   1.793   5.904 -0.5099  1.2803  0.3010
   45MOL0     H 6060   4.048   1.856   6.079 -0.0778 -0.1153  0.2988
   45MOL0     H 6061   2.706   2.941   6.826 -0.4723 -0.7881  0.7062
   45MOL0     H 6062   2.481   3.057   6.890 -2.6399  0.2832 -1.1445
   45MOL0     H 6063   2.019   3.105   6.640 -0.5333 -3.1833 -0.6774
   45MOL0     H 6064   1.775   3.135   6.660  1.6458 -0.4828 -0.7623
   45MOL0     H 6065   1.541   3.199   6.756 -0.7419  1.1698  2.3007
   45MOL0     H 6066   1.574   3.045   6.677  0.2481  2.8755 -0.6406
   45MOL0     H 6067   1.379   3.083   6.918  2.7503  0.1794  0.5707
   45MOL0     H 6068   1.394   2.943   6.812  0.2889 -0.5266  0.3967
   45MOL0     H 6069   1.318   3.138   6.624 -2.3263 -1.4416 -1.0686
   45MOL0     H 6070   1.276   3.223   6.778 -3.1345  0.1996 -0.3658
   45MOL0     H 6071   1.121   3.049   6.840  0.7482 -3.4972 -0.0560
   45MOL0     H 6072   1.152   2.950   6.706  3.0333 -0.3492  2.5166
   45MOL0     H 6073   0.876   3.221   6.528  1.6273 -1.8495 -4.2857
   45MOL0     H 6074   1.813   3.000   7.067 -2.1306  0.2965  0.0717
   45MOL0     H 6075   2.046   3.052   7.073  2.2988 -1.2064 -1.1136
   46MOL0     O 6076  11.045   5.029   0.098  0.0245  0.0257 -0.5645
   46MOL0     C 6077  11.112   4.968   0.189  0.9341 -0.9829  0.1601
   46MOL0     O 6078  11.060   4.888   0.284 -0.5829 -0.2208 -0.7588
   46MOL0     C 6079  10.938   4.826   0.262  0.1455 -0.1930  0.6378
   46MOL0     C 6080  10.860   4.816   0.374 -0.6802  0.0420  0.3269
   46MOL0     C 6081  10.734   4.755   0.373 -1.2053 -0.3341  0.0126
   46MOL0     C 6082  10.693   4.697   0.247 -0.5402  0.8545 -0.0282
   46MOL0     O 6083  10.595   4.603   0.245 -0.0889  0.3750  0.7585
   46MOL0     C 6084  10.520   4.579   0.362 -0.1667 -0.0169 -0.5993
   46MOL0     C 6085  10.399   4.493   0.313  0.2995  0.6998 -0.2031
   46MOL0     C 6086  10.290   4.579   0.244 -0.0043 -0.0343 -0.0832
   46MOL0     C 6087  10.169   4.493   0.215 -1.1370 -0.6113 -0.1511
   46MOL0     C 6088  10.062   4.562   0.143  0.8516  0.5312  0.0016
   46MOL0     C 6089  10.095   4.618   0.008  0.0200  0.2308 -0.8388
   46MOL0     C 6090   9.998   4.730  -0.021  0.0594 -0.2789 -0.3810
   46MOL0     C 6091  10.029   4.789  -0.160 -0.0861 -0.9368 -0.6485
   46MOL0     N 6092   9.925   4.887  -0.187 -0.3607  0.0123 -0.3567
   46MOL0     C 6093   9.898   5.005  -0.118 -0.8019  0.3363  0.2192
   46MOL0     C 6094   9.816   5.077  -0.198  0.7615 -0.4028  0.0040
   46MOL0     C 6095   9.767   5.213  -0.159  0.9818 -0.6953  0.1037
   46MOL0     C 6096   9.858   5.324  -0.185 -0.2273  0.7336 -0.2504
   46MOL0     C 6097   9.911   5.319  -0.328 -0.9403 -0.0237  0.5576
   46MOL0     C 6098  10.025   5.427  -0.355  0.8589  0.0606  0.1933
   46MOL0     O 6099  10.157   5.378  -0.307  0.0808  0.1646  0.3189
   46MOL0     C 6100  10.246   5.471  -0.282 -0.8928  0.0498  0.0161
   46MOL0     C 6101  10.263   5.599  -0.349  0.2561 -0.6046  0.4393
   46MOL0     C 6102  10.355   5.690  -0.301  0.6976  0.9898 -0.1830
   46MOL0     C 6103  10.353   5.826  -0.369  0.1013  0.3604  0.3529
   46MOL0     C 6104  10.444   5.646  -0.196 -0.5765 -0.9973 -0.1751
   46MOL0     C 6105  10.557   5.734  -0.153 -0.5926  0.3499 -0.3155
   46MOL0     O 6106  10.620   5.810  -0.247 -0.5749  0.2811  0.0029
   46MOL0     C 6107  10.732   5.872  -0.217 -0.7255  0.1399  0.2022
   46MOL0     C 6108  10.835   5.849  -0.306 -0.5559 -0.0978 -0.3155
   46MOL0     C 6109  10.961   5.901  -0.280  0.4021 -0.3779 -0.0169
   46MOL0     C 6110  10.994   5.976  -0.164  0.0689  0.1209  0.4388
   46MOL0     O 6111  11.127   6.010  -0.127  0.5339 -0.0578 -0.1170
   46MOL0     C 6112  11.161   6.132  -0.054  0.2015 -0.9627 -0.2066
   46MOL0     C 6113  11.313   6.146  -0.030  0.1342 -0.6910  0.3456
   46MOL0     C 6114  11.336   6.278   0.051 -0.0552  0.5889 -0.3243
   46MOL0     C 6115  11.476   6.282   0.106  0.8506  0.3014  0.4382
   46MOL0     C 6116  11.499   6.410   0.184 -0.6598 -1.0337  0.5648
   46MOL0     C 6117  11.652   6.436   0.190  0.7406  0.4266 -0.0032
   46MOL0     C 6118  11.673   6.528   0.313  0.9738  0.0549 -0.4199
   46MOL0     C 6119  11.820   6.544   0.337  0.4070  0.4671  0.5549
   46MOL0    Cl 6120  11.842   6.635   0.483 -0.1097  0.2686  0.2552
   46MOL0     C 6121  10.889   6.004  -0.082  0.2849  0.0098 -0.7996
   46MOL0     C 6122  10.761   5.952  -0.101  0.1967 -0.4527  0.5148
   46MOL0     O 6123  10.569   5.735  -0.034 -0.2481 -0.2840  0.1445
   46MOL0     C 6124  10.424   5.527  -0.133  1.0296  0.2842  0.8614
   46MOL0     C 6125  10.321   5.442  -0.175 -0.6564 -0.2298  0.3274
   46MOL0     N 6126   9.783   4.992  -0.302  0.2200 -0.4223 -0.1067
   46MOL0     N 6127   9.844   4.881  -0.295  0.9966 -0.3072  0.0411
   46MOL0     C 6128  10.774   4.703   0.134 -0.3823 -0.1088  0.7963
   46MOL0     C 6129  10.892   4.778   0.140  0.6605 -0.1364 -0.0295
   46MOL0     C 6130  11.243   5.019   0.224 -0.1588  0.0001 -1.0859
   46MOL0     C 6131  11.312   4.961   0.336 -0.4119  0.2301  0.1011
   46MOL0     C 6132  11.445   4.991   0.352  0.3158  0.3376  0.1859
   46MOL0     C 6133  11.513   5.090   0.280  0.0472  0.5520  0.8308
   46MOL0     O 6134  11.644   5.107   0.320 -0.4315 -0.6299  0.3639
   46MOL0     C 6135  11.720   5.209   0.256 -0.5128  0.6584  0.9258
   46MOL0     C 6136  11.847   5.267   0.331  0.5165 -0.2333 -0.1616
   46MOL0     C 6137  11.923   5.148   0.406  0.5743  0.5506 -0.2510
   46MOL0     C 6138  12.076   5.159   0.404  0.8474  0.8876  0.3095
   46MOL0     C 6139  12.118   5.284   0.450  1.1263 -0.0308 -0.7957
   46MOL0     C 6140  12.135   5.400   0.481  0.3725  1.0481  0.7665
   46MOL0     C 6141  11.448   5.149   0.167 -0.6722 -0.0622 -1.0799
   46MOL0     C 6142  11.310   5.121   0.143 -0.1282 -0.7140 -0.3522
   46MOL0     H 6143  10.907   4.855   0.464  0.9889 -2.7215  0.7631
   46MOL0     H 6144  10.675   4.752   0.464  0.1367 -1.9782  0.8777
   46MOL0     H 6145  10.579   4.530   0.440  0.0927 -2.8328 -2.4303
   46MOL0     H 6146  10.475   4.672   0.399  0.1661 -0.0758 -0.0297
   46MOL0     H 6147  10.435   4.417   0.243 -1.7341  1.3940 -2.1027
   46MOL0     H 6148  10.361   4.441   0.401 -0.5269 -1.1684 -1.5931
   46MOL0     H 6149  10.263   4.660   0.312  0.8850  0.0411  0.1983
   46MOL0     H 6150  10.337   4.636   0.163  0.6134 -0.1425  0.1907
   46MOL0     H 6151  10.210   4.420   0.145  0.2571 -0.7382  0.7548
   46MOL0     H 6152  10.142   4.431   0.301  1.1710 -2.6630 -0.7987
   46MOL0     H 6153   9.975   4.497   0.133  0.7913  0.7721 -1.2063
   46MOL0     H 6154  10.027   4.641   0.210 -0.1311  1.1713 -1.2004
   46MOL0     H 6155  10.194   4.665   0.004  1.8572 -2.9115  2.0336
   46MOL0     H 6156  10.090   4.546  -0.074  1.5593  0.0764 -0.8338
   46MOL0     H 6157   9.904   4.674  -0.022 -1.7091  2.4515  0.3475
   46MOL0     H 6158   9.996   4.805   0.058  0.3350 -0.4977 -0.1652
   46MOL0     H 6159  10.018   4.705  -0.229 -4.4081  0.3200 -1.7832
   46MOL0     H 6160  10.130   4.831  -0.164 -0.2202 -0.6815 -1.5481
   46MOL0     H 6161   9.949   5.041  -0.029 -1.8299 -3.0434  2.3757
   46MOL0     H 6162   9.684   5.218  -0.230  0.8845 -0.6495  0.2231
   46MOL0     H 6163   9.731   5.228  -0.057  0.9668  3.1570 -0.3274
   46MOL0     H 6164   9.947   5.307  -0.123  1.4576  0.5567 -2.5825
   46MOL0     H 6165   9.800   5.413  -0.158  1.0189  1.1185  1.2851
   46MOL0     H 6166   9.835   5.337  -0.405 -2.3463 -4.6114  0.5716
   46MOL0     H 6167   9.943   5.220  -0.362 -0.6234  0.5196 -0.8027
   46MOL0     H 6168   9.987   5.520  -0.311  1.2595 -0.1240  0.9424
   46MOL0     H 6169  10.034   5.435  -0.464  2.4627 -2.3804  0.0646
   46MOL0     H 6170  10.190   5.626  -0.424 -0.0861 -2.7880 -0.0906
   46MOL0     H 6171  10.260   5.836  -0.426 -1.9428  0.0178  3.3883
   46MOL0     H 6172  10.354   5.907  -0.294 -0.4796  1.0022 -0.3177
   46MOL0     H 6173  10.449   5.832  -0.421  2.1262 -2.5072  3.3411
   46MOL0     H 6174  10.822   5.778  -0.388 -1.2942 -2.2254  1.5486
   46MOL0     H 6175  11.040   5.879  -0.351 -0.6089 -2.9152 -0.4410
   46MOL0     H 6176  11.125   6.216  -0.114  0.0713 -2.0592 -1.7162
   46MOL0     H 6177  11.106   6.121   0.040  1.2217 -2.2934  0.2683
   46MOL0     H 6178  11.348   6.060   0.028  3.5467  0.8861  0.8909
   46MOL0     H 6179  11.367   6.163  -0.123  0.6751 -0.7391  0.6499
   46MOL0     H 6180  11.265   6.297   0.131  0.4712  0.5414  0.1608
   46MOL0     H 6181  11.339   6.362  -0.020 -0.4286  0.6215 -0.3014
   46MOL0     H 6182  11.490   6.196   0.171 -1.9286  0.5841  1.5164
   46MOL0     H 6183  11.551   6.278   0.026  2.0267  1.7776  1.4205
   46MOL0     H 6184  11.448   6.399   0.280  2.5934 -0.9133  2.4499
   46MOL0     H 6185  11.470   6.501   0.131  1.4537  0.6584  2.1794
   46MOL0     H 6186  11.706   6.341   0.198  0.7265  0.1509 -2.3763
   46MOL0     H 6187  11.686   6.479   0.095  0.1302 -1.2794 -1.0557
   46MOL0     H 6188  11.616   6.505   0.404  1.1345 -0.4260 -0.4382
   46MOL0     H 6189  11.633   6.624   0.278  1.1758  0.1968 -0.2615
   46MOL0     H 6190  11.863   6.611   0.261 -1.3652  2.8497  1.5286
   46MOL0     H 6191  11.874   6.449   0.342  1.9250  1.1966 -0.8192
   46MOL0     H 6192  10.883   6.072   0.002 -1.9762  0.6244 -1.3763
   46MOL0     H 6193  10.686   5.971  -0.025  0.4148  0.4212  0.5277
   46MOL0     H 6194  10.488   5.502  -0.049  0.0555 -4.0380  0.5031
   46MOL0     H 6195  10.303   5.355  -0.112  0.0801  0.0405  0.9237
   46MOL0     H 6196  10.736   4.645   0.051 -3.8009  0.4058  1.8487
   46MOL0     H 6197  10.963   4.799   0.060  0.1065  2.3910  0.0388
   46MOL0     H 6198  11.273   4.877   0.392 -0.4586 -1.0040 -1.6894
   46MOL0     H 6199  11.497   4.934   0.429 -0.2129 -2.2768 -1.2708
   46MOL0     H 6200  11.749   5.164   0.161 -0.4028  2.2129  0.2012
   46MOL0     H 6201  11.662   5.300   0.238 -1.3032 -0.5292 -3.5876
   46MOL0     H 6202  11.820   5.350   0.397  0.3759 -1.3577  1.2274
   46MOL0     H 6203  11.913   5.307   0.252 -0.9572  0.4860 -1.0827
   46MOL0     H 6204  11.901   5.057   0.349 -1.0295 -0.0807  1.2656
   46MOL0     H 6205  11.884   5.129   0.507  4.1227  3.0180  1.7939
   46MOL0     H 6206  12.103   5.150   0.298  1.9105  0.7726  0.5780
   46MOL0     H 6207  12.129   5.082   0.460  0.5531 -0.0656 -0.6750
   46MOL0     H 6208  12.135   5.507   0.488 -1.6020  1.2961 -1.4266
   46MOL0     H 6209  11.510   5.193   0.090  0.4498  1.3386  0.5265
   46MOL0     H 6210  11.259   5.169   0.060  2.8119  0.0895 -1.8402
   47MOL0     O 6211   1.513   0.198   0.851 -0.6218  1.0807  0.2704
   47MOL0     C 6212   1.486   0.217   0.731 -0.1965 -0.7367  0.1180
   47MOL0     O 6213   1.388   0.149   0.666 -0.2010 -0.1968  0.5988
   47MOL0     C 6214   1.312   0.057   0.733  0.8524  0.0558  0.1718
   47MOL0     C 6215   1.299  -0.072   0.676 -0.1037 -0.5786 -0.4330
   47MOL0     C 6216   1.213  -0.164   0.733 -1.1443 -0.5965 -0.4451
   47MOL0     C 6217   1.146  -0.135   0.849 -0.7894 -0.3739  0.1202
   47MOL0     O 6218   1.075  -0.239   0.902  0.4771  0.3674  0.3446
   47MOL0     C 6219   0.932  -0.209   0.921 -1.2236  0.3536  1.0801
   47MOL0     C 6220   0.904  -0.234   1.069 -0.3013  0.5698  0.7665
   47MOL0     C 6221   0.771  -0.176   1.116  0.0382  0.4531  0.3077
   47MOL0     C 6222   0.781  -0.024   1.158  0.0058  0.4652  0.4551
   47MOL0     C 6223   0.650   0.036   1.170  0.1962  0.8810 -1.0929
   47MOL0     C 6224   0.584  -0.010   1.304  0.2304 -0.4378 -0.4457
   47MOL0     C 6225   0.607   0.099   1.407  0.0302 -0.4897  0.2225
   47MOL0     C 6226   0.514   0.076   1.526 -0.3823 -0.5538 -0.4481
   47MOL0     N 6227   0.568   0.133   1.657 -0.9390 -0.4666 -0.1282
   47MOL0     C 6228   0.688   0.117   1.731  0.4299  0.4765 -0.7734
   47MOL0     C 6229   0.675   0.199   1.841 -0.0342 -0.4436  0.1609
   47MOL0     C 6230   0.787   0.221   1.942 -0.2786 -0.5631  0.2279
   47MOL0     C 6231   0.847   0.355   1.898  0.2339  0.1379  0.4498
   47MOL0     C 6232   0.967   0.385   1.984  0.0690  0.6417  0.1784
   47MOL0     C 6233   1.103   0.327   1.934 -0.3612 -0.5103 -0.0591
   47MOL0     O 6234   1.213   0.372   2.020  0.4037  0.2477  0.1966
   47MOL0     C 6235   1.341   0.359   1.977 -0.0745 -0.1169 -0.3237
   47MOL0     C 6236   1.382   0.319   1.844 -0.2092  0.3323 -0.3955
   47MOL0     C 6237   1.513   0.308   1.814  0.2560 -0.2560 -0.4243
   47MOL0     C 6238   1.540   0.245   1.673  0.6051 -0.1574  0.8645
   47MOL0     C 6239   1.614   0.346   1.900 -0.4480 -0.0206 -1.3470
   47MOL0     C 6240   1.760   0.343   1.862  0.5387 -0.7275  0.5294
   47MOL0     O 6241   1.836   0.311   1.967 -0.0839  1.2305  0.0524
   47MOL0     C 6242   1.973   0.315   1.944  0.1614  0.0627 -0.3441
   47MOL0     C 6243   2.032   0.445   1.945 -1.3686  1.2133 -0.2245
   47MOL0     C 6244   2.175   0.455   1.955  0.2959 -0.4114  0.9863
   47MOL0     C 6245   2.259   0.345   1.961  0.9236  1.1812 -0.5148
   47MOL0     O 6246   2.391   0.372   1.947  0.3585  0.9345 -0.7691
   47MOL0     C 6247   2.480   0.273   1.998 -0.6670 -0.7928 -0.5429
   47MOL0     C 6248   2.619   0.335   2.004 -0.2374 -0.1076  0.1156
   47MOL0     C 6249   2.724   0.219   1.993 -0.4023  0.3072 -0.4715
   47MOL0     C 6250   2.856   0.255   1.935  0.0459  0.2084 -0.4812
   47MOL0     C 6251   2.957   0.139   1.929 -0.3947  0.0630  0.6217
   47MOL0     C 6252   3.086   0.193   1.871 -0.8843 -0.1238 -0.0265
   47MOL0     C 6253   3.177   0.258   1.976  0.1145 -0.1106  0.0028
   47MOL0     C 6254   3.288   0.334   1.915  0.0223 -0.0947  0.4381
   47MOL0    Cl 6255   3.378   0.243   1.793  0.1693  0.0879  0.0285
   47MOL0     C 6256   2.193   0.223   1.976  0.3913  1.0754  0.1850
   47MOL0     C 6257   2.051   0.206   1.975 -0.2493  0.3503  0.1620
   47MOL0     O 6258   1.796   0.392   1.755  0.3175  0.4083  0.4593
   47MOL0     C 6259   1.576   0.389   2.022 -0.9259  0.2934 -0.5165
   47MOL0     C 6260   1.443   0.389   2.067  0.6728 -0.5055 -0.6003
   47MOL0     N 6261   0.560   0.272   1.834  0.1602 -0.7154  0.7194
   47MOL0     N 6262   0.500   0.239   1.718  0.2820 -0.0582  0.0582
   47MOL0     C 6263   1.172  -0.011   0.917 -0.3091 -0.6079  0.8396
   47MOL0     C 6264   1.248   0.087   0.856 -0.0243 -0.3870  0.2271
   47MOL0     C 6265   1.572   0.306   0.652 -0.8844 -0.5374  0.1072
   47MOL0     C 6266   1.549   0.324   0.513  0.2917 -0.0206  0.2787
   47MOL0     C 6267   1.612   0.430   0.444 -0.0950  0.8174  0.5449
   47MOL0     C 6268   1.716   0.504   0.512  0.2726  0.4420 -0.4647
   47MOL0     O 6269   1.805   0.571   0.431 -0.1688 -0.2139  0.1905
   47MOL0     C 6270   1.806   0.711   0.466  0.0125 -0.2687  0.3048
   47MOL0     C 6271   1.892   0.787   0.369 -0.3321 -0.1978  0.2295
   47MOL0     C 6272   2.041   0.749   0.371  0.4843 -0.2923  0.2858
   47MOL0     C 6273   2.138   0.830   0.280 -0.5323 -0.1692  0.2771
   47MOL0     C 6274   2.174   0.961   0.332 -0.0032 -0.5543 -0.3657
   47MOL0     C 6275   2.195   1.079   0.376 -0.5649  0.1049 -0.8379
   47MOL0     C 6276   1.755   0.480   0.649  0.9569  0.4096  1.0268
   47MOL0     C 6277   1.667   0.384   0.718  0.8554  0.0744  0.1311
   47MOL0     H 6278   1.359  -0.106   0.592  3.1270 -1.0439  1.8698
   47MOL0     H 6279   1.199  -0.263   0.690  0.6015 -0.7268 -0.7696
   47MOL0     H 6280   0.918  -0.104   0.893  2.6517  0.4443 -1.1168
   47MOL0     H 6281   0.876  -0.280   0.859  0.3856  0.5927 -0.7276
   47MOL0     H 6282   0.908  -0.343   1.076  0.6445  0.4181 -1.3206
   47MOL0     H 6283   0.977  -0.188   1.136 -0.3611  0.6874  0.7517
   47MOL0     H 6284   0.684  -0.193   1.051 -0.2976  2.1994  0.2562
   47MOL0     H 6285   0.725  -0.219   1.206 -0.5917  1.3774  0.4417
   47MOL0     H 6286   0.830  -0.029   1.255  0.0212 -2.5311  0.4024
   47MOL0     H 6287   0.846   0.034   1.092 -0.7773  0.6414 -0.1802
   47MOL0     H 6288   0.674   0.142   1.161  0.8050  0.7865 -0.6109
   47MOL0     H 6289   0.581   0.005   1.091 -0.9460 -1.6307  0.7231
   47MOL0     H 6290   0.478  -0.011   1.276  0.4022  2.6951 -1.6202
   47MOL0     H 6291   0.627  -0.101   1.345  0.2028 -0.6325 -0.8461
   47MOL0     H 6292   0.714   0.094   1.431 -0.1371 -2.0980  0.7486
   47MOL0     H 6293   0.577   0.189   1.353 -1.7860  0.3225  2.4113
   47MOL0     H 6294   0.488  -0.029   1.540  0.8797 -1.1760 -2.3901
   47MOL0     H 6295   0.426   0.138   1.507  0.7803  0.4962 -2.7642
   47MOL0     H 6296   0.762   0.041   1.708  0.7707  1.3673 -2.7622
   47MOL0     H 6297   0.733   0.222   2.037 -1.2654  0.7920 -0.3104
   47MOL0     H 6298   0.858   0.138   1.941 -0.9637 -1.1794  1.0475
   47MOL0     H 6299   0.768   0.428   1.919 -0.9470 -0.8442 -0.4788
   47MOL0     H 6300   0.865   0.365   1.790  2.6783  1.4211  0.9122
   47MOL0     H 6301   0.965   0.340   2.083  3.2658 -2.3519 -0.9059
   47MOL0     H 6302   0.962   0.494   1.998 -0.3907  0.5379  0.8531
   47MOL0     H 6303   1.130   0.371   1.838  0.7633  1.8043  1.2272
   47MOL0     H 6304   1.107   0.218   1.931  1.1566 -0.5605  1.6009
   47MOL0     H 6305   1.302   0.284   1.780  0.7718  0.2055 -1.5784
   47MOL0     H 6306   1.603   0.155   1.679  1.8655  0.4731 -1.6384
   47MOL0     H 6307   1.450   0.206   1.625  0.4934  1.7232 -0.5428
   47MOL0     H 6308   1.597   0.310   1.606  1.3269 -1.1587  0.4819
   47MOL0     H 6309   1.968   0.530   1.927  0.0807  1.7864 -3.5503
   47MOL0     H 6310   2.228   0.550   1.949  0.4123 -0.5421 -0.2946
   47MOL0     H 6311   2.454   0.231   2.095 -1.4141 -0.4172 -0.5681
   47MOL0     H 6312   2.475   0.189   1.928 -0.3743 -0.4563 -0.9688
   47MOL0     H 6313   2.635   0.397   1.915  3.1464  2.3057  2.1941
   47MOL0     H 6314   2.638   0.400   2.090  0.4734 -1.1243  0.7408
   47MOL0     H 6315   2.687   0.137   1.930 -1.1139  1.0849 -1.0899
   47MOL0     H 6316   2.734   0.165   2.088 -1.2239  2.0355  0.6493
   47MOL0     H 6317   2.833   0.286   1.833 -1.3539 -2.1400 -0.9348
   47MOL0     H 6318   2.884   0.334   2.006 -1.6444 -1.0699  1.7470
   47MOL0     H 6319   2.914   0.053   1.878 -2.5479 -0.1899  2.7044
   47MOL0     H 6320   2.980   0.095   2.026 -0.5274 -2.5005 -0.4292
   47MOL0     H 6321   3.143   0.107   1.835 -1.8026  0.3982 -2.9546
   47MOL0     H 6322   3.067   0.259   1.786  0.5995  2.7240  1.6864
   47MOL0     H 6323   3.222   0.176   2.034 -0.4992 -0.7367 -0.3823
   47MOL0     H 6324   3.113   0.319   2.041 -2.9085 -1.8228 -1.1520
   47MOL0     H 6325   3.346   0.344   2.007  0.2726 -1.2699  0.4311
   47MOL0     H 6326   3.267   0.436   1.883  1.2381 -0.5730 -2.1415
   47MOL0     H 6327   2.248   0.134   2.003 -0.3055  0.1603 -1.2755
   47MOL0     H 6328   2.003   0.111   1.998  0.1775 -0.1348 -0.8937
   47MOL0     H 6329   1.645   0.438   2.090 -1.0710 -1.6116  1.1269
   47MOL0     H 6330   1.419   0.417   2.169 -0.6916 -3.4167 -0.0176
   47MOL0     H 6331   1.120   0.002   1.012  2.2419 -1.4533  2.4552
   47MOL0     H 6332   1.277   0.184   0.896 -2.3217  0.7117 -0.6238
   47MOL0     H 6333   1.469   0.280   0.453  0.1253  1.8382 -0.9605
   47MOL0     H 6334   1.600   0.446   0.338  2.6384 -1.0096 -0.1469
   47MOL0     H 6335   1.708   0.760   0.468  0.3184  0.3700  1.9573
   47MOL0     H 6336   1.832   0.717   0.572 -2.1471 -0.6674  0.8998
   47MOL0     H 6337   1.882   0.891   0.399  0.0965 -0.0803 -0.0271
   47MOL0     H 6338   1.846   0.763   0.272 -0.2797  1.2966 -0.1878
   47MOL0     H 6339   2.044   0.640   0.363 -2.3287 -0.4508  0.1425
   47MOL0     H 6340   2.075   0.778   0.471  0.1913  1.2060 -0.0282
   47MOL0     H 6341   2.095   0.843   0.180  1.4508  0.0415 -0.5875
   47MOL0     H 6342   2.233   0.776   0.269 -0.2054  0.3647  0.4798
   47MOL0     H 6343   2.221   1.176   0.414  0.3558 -1.1417  1.9436
   47MOL0     H 6344   1.840   0.529   0.696  2.0901  1.6367 -2.0616
   47MOL0     H 6345   1.681   0.374   0.825 -5.7697  3.2384  1.8540
   48MOL0     O 6346   3.414   3.501   9.898  0.5388  0.8010 -0.1247
   48MOL0     C 6347   3.395   3.395   9.956  0.4560 -0.9377  0.5717
   48MOL0     O 6348   3.283   3.322   9.938 -0.3056  0.8770 -0.0160
   48MOL0     C 6349   3.190   3.377   9.849  0.0443  0.0093 -0.5821
   48MOL0     C 6350   3.208   3.395   9.708 -0.6468  0.3137 -0.2380
   48MOL0     C 6351   3.111   3.465   9.643  0.1435  0.6151  0.0772
   48MOL0     C 6352   2.995   3.512   9.705  0.0641  0.3833  0.0807
   48MOL0     O 6353   2.883   3.555   9.629 -0.0541 -0.3047 -0.2556
   48MOL0     C 6354   2.855   3.515   9.490 -0.4505  0.8525 -0.5863
   48MOL0     C 6355   2.710   3.478   9.461  0.1228 -0.0930 -0.7280
   48MOL0     C 6356   2.603   3.587   9.498  0.4389 -0.3407 -0.1571
   48MOL0     C 6357   2.458   3.534   9.468  0.2673 -0.2602 -0.6556
   48MOL0     C 6358   2.334   3.632   9.484  0.7864 -0.1324  0.1030
   48MOL0     C 6359   2.300   3.673   9.630 -0.2707 -0.4472 -0.0566
   48MOL0     C 6360   2.179   3.765   9.636  0.4149 -0.2459 -0.1942
   48MOL0     C 6361   2.155   3.811   9.780  0.2020 -0.0927  0.2811
   48MOL0     N 6362   2.029   3.877   9.789  0.1447  0.0308  0.2558
   48MOL0     C 6363   1.910   3.805   9.791 -0.3065 -0.1986  0.2772
   48MOL0     C 6364   1.814   3.907   9.786 -0.5579 -0.2921 -0.6608
   48MOL0     C 6365   1.674   3.887   9.790  0.6163  0.3537 -0.3928
   48MOL0     C 6366   1.601   3.978   9.898  0.0445 -0.1936 -0.6544
   48MOL0     C 6367   1.462   3.936   9.920  0.1274 -0.4165 -0.3394
   48MOL0     C 6368   1.376   4.053   9.977  0.2249  0.7455 -0.7488
   48MOL0     O 6369   1.244   4.013  10.027 -0.7729  0.7178 -0.3528
   48MOL0     C 6370   1.138   4.100  10.023  0.6080 -0.1289  0.9854
   48MOL0     C 6371   1.010   4.036  10.030  0.0107 -0.6149  0.3451
   48MOL0     C 6372   0.889   4.115  10.039 -0.2114 -0.2158 -0.3654
   48MOL0     C 6373   0.757   4.039  10.052 -0.0831 -0.2864 -0.2565
   48MOL0     C 6374   0.896   4.259  10.031 -0.4393 -0.4912 -0.4026
   48MOL0     C 6375   0.774   4.351  10.058 -0.2396  0.1028 -1.0587
   48MOL0     O 6376   0.674   4.295  10.128 -0.2050 -0.1943  0.4201
   48MOL0     C 6377   0.543   4.348  10.151  0.8594  0.9076 -0.1084
   48MOL0     C 6378   0.515   4.487  10.183  0.0525 -0.8010 -0.1994
   48MOL0     C 6379   0.385   4.527  10.201 -0.0931  0.5679 -0.3765
   48MOL0     C 6380   0.278   4.432  10.187 -0.3622  0.4991  0.6457
   48MOL0     O 6381   0.144   4.454  10.191 -0.5836 -0.0475  0.3218
   48MOL0     C 6382   0.099   4.579  10.133 -0.4162  0.2645  0.4688
   48MOL0     C 6383   0.034   4.666  10.244  0.1975  0.4467 -0.1952
   48MOL0     C 6384  -0.092   4.608  10.298 -0.0318 -0.4747 -0.4947
   48MOL0     C 6385  -0.146   4.723  10.393  0.0703  0.3257  0.2946
   48MOL0     C 6386  -0.294   4.713  10.419 -1.6592 -0.0875  0.2532
   48MOL0     C 6387  -0.320   4.834  10.513  0.0151  0.1458  0.5554
   48MOL0     C 6388  -0.459   4.840  10.559  0.7897 -0.9687 -0.5515
   48MOL0     C 6389  -0.492   4.929  10.686  0.4570  0.9321 -0.6831
   48MOL0    Cl 6390  -0.432   4.840  10.837  0.0597  0.3745  0.2924
   48MOL0     C 6391   0.303   4.293  10.172 -0.4492 -0.3699  0.7850
   48MOL0     C 6392   0.434   4.251  10.143 -0.0744 -0.1003  1.0213
   48MOL0     O 6393   0.781   4.471  10.038 -1.2394 -0.4248  0.0161
   48MOL0     C 6394   1.027   4.317  10.014  0.5826  0.4995 -0.1925
   48MOL0     C 6395   1.147   4.237  10.013  0.4452 -0.6882  0.2954
   48MOL0     N 6396   1.876   4.030   9.776  0.3691  0.1999 -0.2237
   48MOL0     N 6397   2.005   4.008   9.768  0.8340 -0.5675  0.3851
   48MOL0     C 6398   2.980   3.499   9.843  1.3072  0.4888  0.0265
   48MOL0     C 6399   3.084   3.439   9.910 -0.3918  0.5767  0.0147
   48MOL0     C 6400   3.503   3.351  10.038 -0.3168  0.3299  0.0326
   48MOL0     C 6401   3.611   3.439  10.064  0.1919 -0.0982 -0.1871
   48MOL0     C 6402   3.715   3.394  10.146  0.0698  0.4577 -0.4701
   48MOL0     C 6403   3.726   3.258  10.182  0.2417  0.1194 -0.1113
   48MOL0     O 6404   3.834   3.212  10.251 -0.4512  0.0198 -0.1272
   48MOL0     C 6405   3.826   3.099  10.335 -0.4379  0.3931  0.4659
   48MOL0     C 6406   3.969   3.071  10.393 -0.1065 -0.8122  0.7965
   48MOL0     C 6407   4.020   3.149  10.515 -0.3088 -0.3766  0.6239
   48MOL0     C 6408   4.017   3.307  10.479  0.1933  1.4261 -0.0215
   48MOL0     C 6409   4.069   3.385  10.589  0.1467  1.0745  0.2778
   48MOL0     C 6410   4.106   3.440  10.693  0.5092  0.5838  0.2359
   48MOL0     C 6411   3.615   3.177  10.151 -0.5033 -0.5828 -0.8908
   48MOL0     C 6412   3.501   3.221  10.088  0.1619  0.3221  0.5464
   48MOL0     H 6413   3.299   3.348   9.671  0.3382  0.0129  2.3625
   48MOL0     H 6414   3.114   3.480   9.536 -1.8183 -0.0850 -0.1241
   48MOL0     H 6415   2.897   3.592   9.425 -0.0583  0.6867 -0.5314
   48MOL0     H 6416   2.909   3.422   9.469 -0.6623  0.2863  1.1669
   48MOL0     H 6417   2.703   3.456   9.354 -1.6886  2.0816 -1.1261
   48MOL0     H 6418   2.703   3.384   9.518  2.8128 -0.2274 -0.5010
   48MOL0     H 6419   2.609   3.606   9.605 -3.9965 -1.4245  0.4618
   48MOL0     H 6420   2.607   3.680   9.441 -0.7063 -0.0849  0.1615
   48MOL0     H 6421   2.458   3.498   9.365 -1.7395 -1.9305 -0.1465
   48MOL0     H 6422   2.439   3.447   9.532 -3.2558  3.9132  4.9617
   48MOL0     H 6423   2.336   3.723   9.425 -2.7802  1.5362  2.1982
   48MOL0     H 6424   2.242   3.580   9.454  0.1121  0.5993  0.8152
   48MOL0     H 6425   2.286   3.586   9.695 -2.5209 -0.5073 -0.5317
   48MOL0     H 6426   2.386   3.731   9.663  1.2410 -1.5219 -1.8933
   48MOL0     H 6427   2.197   3.848   9.567 -1.4742 -1.9577 -2.9591
   48MOL0     H 6428   2.091   3.715   9.594  0.1467 -0.1974  0.2955
   48MOL0     H 6429   2.242   3.872   9.804  0.6566  0.2550 -1.9978
   48MOL0     H 6430   2.162   3.725   9.847  2.1932 -1.5655 -1.6879
   48MOL0     H 6431   1.904   3.697   9.799 -2.2131 -0.4477 -2.8490
   48MOL0     H 6432   1.631   3.909   9.692 -3.1971  0.3119  1.0953
   48MOL0     H 6433   1.658   3.779   9.799  3.7861 -0.3567 -1.8430
   48MOL0     H 6434   1.590   4.082   9.867  2.0260  0.5298  0.7781
   48MOL0     H 6435   1.655   3.983   9.994  1.3430  0.6677 -1.3985
   48MOL0     H 6436   1.461   3.849   9.987  1.7084 -1.1346 -1.1840
   48MOL0     H 6437   1.424   3.913   9.821  0.4418  3.6539 -1.5795
   48MOL0     H 6438   1.357   4.130   9.902  1.0330  0.2384 -1.4861
   48MOL0     H 6439   1.434   4.102  10.056 -1.6113  0.0787  1.1078
   48MOL0     H 6440   1.001   3.929  10.046  2.5773 -0.5691  2.8954
   48MOL0     H 6441   0.668   4.083  10.006 -0.3440 -0.1890  0.3305
   48MOL0     H 6442   0.765   3.934  10.021 -0.7380 -1.3992  2.9408
   48MOL0     H 6443   0.727   4.036  10.157  0.4250 -2.8531 -0.1091
   48MOL0     H 6444   0.596   4.558  10.189 -0.4265 -0.3749  3.0239
   48MOL0     H 6445   0.345   4.626  10.222  1.4477  0.9217  1.0831
   48MOL0     H 6446   0.183   4.626  10.081  1.1789 -2.6553  0.1741
   48MOL0     H 6447   0.027   4.554  10.054 -2.5046  2.3205  1.6036
   48MOL0     H 6448   0.098   4.673  10.332  0.4419 -0.8251 -0.2472
   48MOL0     H 6449   0.019   4.769  10.213  1.0451  0.6213 -0.0339
   48MOL0     H 6450  -0.062   4.522  10.358  0.2232 -0.7294 -0.9828
   48MOL0     H 6451  -0.160   4.569  10.222  1.7420 -2.0364 -1.3438
   48MOL0     H 6452  -0.093   4.717  10.488 -0.8901  0.9736  0.8903
   48MOL0     H 6453  -0.118   4.823  10.359  4.6469 -0.3911  1.3444
   48MOL0     H 6454  -0.309   4.620  10.474 -0.3595  1.2647  3.1234
   48MOL0     H 6455  -0.355   4.717  10.328 -0.5723 -0.5567 -0.5261
   48MOL0     H 6456  -0.255   4.830  10.601  0.8062  2.3056  0.1390
   48MOL0     H 6457  -0.291   4.929  10.465  0.4008  0.6358  1.7256
   48MOL0     H 6458  -0.507   4.745  10.581 -1.4662  0.1231 -0.5178
   48MOL0     H 6459  -0.526   4.877  10.480 -0.3511 -1.2148  0.2817
   48MOL0     H 6460  -0.601   4.928  10.695  0.3813  0.6094 -1.5698
   48MOL0     H 6461  -0.455   5.031  10.670  0.8399  1.5154  2.9484
   48MOL0     H 6462   0.221   4.223  10.163  1.1158 -2.3050  0.9464
   48MOL0     H 6463   0.449   4.146  10.122 -0.2939  0.0245  0.2173
   48MOL0     H 6464   1.030   4.425  10.003 -1.6212  0.4757 -1.7713
   48MOL0     H 6465   1.242   4.289  10.016  0.5551 -0.9024  0.7738
   48MOL0     H 6466   2.884   3.535   9.879  0.6740 -0.3865 -0.7280
   48MOL0     H 6467   3.078   3.435  10.018  1.9352 -0.4159  0.1555
   48MOL0     H 6468   3.604   3.544  10.035 -2.1694 -0.3943 -0.8810
   48MOL0     H 6469   3.800   3.461  10.158 -0.5540  1.3166 -0.7190
   48MOL0     H 6470   3.761   3.114  10.422 -1.1440 -1.0079  0.2027
   48MOL0     H 6471   3.787   3.007  10.291 -1.8679  0.3167  1.8229
   48MOL0     H 6472   4.036   3.071  10.307 -1.0212  0.7457  0.0565
   48MOL0     H 6473   3.971   2.967  10.428 -3.3393 -0.8951  1.0354
   48MOL0     H 6474   4.116   3.110  10.551 -1.0494 -2.6484  0.2937
   48MOL0     H 6475   3.953   3.133  10.600 -1.1324 -0.1678  0.0305
   48MOL0     H 6476   3.915   3.337  10.452  0.7481  1.4329 -2.3418
   48MOL0     H 6477   4.075   3.326  10.388 -0.2581 -2.7618 -1.3962
   48MOL0     H 6478   4.139   3.475  10.789  0.1968 -0.5475  0.7816
   48MOL0     H 6479   3.623   3.071  10.176 -0.9748  0.0091  2.2068
   48MOL0     H 6480   3.410   3.162  10.079 -0.5279  0.8153  3.3291
   49MOL0     O 6481   5.728   3.445   2.524  0.1176  0.2364 -0.3598
   49MOL0     C 6482   5.788   3.482   2.420 -0.6120  0.3166  0.8306
   49MOL0     O 6483   5.725   3.520   2.306  0.5082  0.1773 -0.9755
   49MOL0     C 6484   5.599   3.485   2.273 -0.5636  0.4075 -0.0422
   49MOL0     C 6485   5.513   3.391   2.338 -0.8948  0.1100  0.0115
   49MOL0     C 6486   5.379   3.367   2.296 -0.4624  0.5426 -0.3768
   49MOL0     C 6487   5.324   3.446   2.192 -0.0159  0.3203  0.5994
   49MOL0     O 6488   5.195   3.426   2.139 -0.1180 -0.1790  0.3478
   49MOL0     C 6489   5.095   3.357   2.210 -0.4319 -0.2852 -0.7050
   49MOL0     C 6490   4.973   3.333   2.123 -0.9527  0.3713 -0.0802
   49MOL0     C 6491   4.901   3.463   2.086  0.8112  0.3830  0.7686
   49MOL0     C 6492   4.759   3.433   2.016  0.0051  0.1786 -0.1798
   49MOL0     C 6493   4.695   3.564   1.951 -0.1764  1.0838  0.7051
   49MOL0     C 6494   4.564   3.548   1.882  0.1412 -0.2718 -0.4500
   49MOL0     C 6495   4.522   3.688   1.830  0.2714  0.5525 -0.8134
   49MOL0     C 6496   4.419   3.660   1.718 -0.3036  0.8150  0.3252
   49MOL0     N 6497   4.299   3.595   1.777 -0.9872  0.4112 -0.5753
   49MOL0     C 6498   4.282   3.459   1.777  0.5056  0.9542  0.3516
   49MOL0     C 6499   4.185   3.431   1.868 -0.7649 -1.1331  0.0300
   49MOL0     C 6500   4.160   3.293   1.916  0.2717  0.2103 -0.6751
   49MOL0     C 6501   4.056   3.281   2.038  0.3702  0.4347 -0.3490
   49MOL0     C 6502   3.903   3.303   2.020 -0.2738 -0.0689  0.6502
   49MOL0     C 6503   3.805   3.253   2.131  0.3624  0.2161  0.5442
   49MOL0     O 6504   3.676   3.303   2.100 -0.6668 -0.4028  0.4428
   49MOL0     C 6505   3.575   3.269   2.184 -0.6294  0.5401 -0.1451
   49MOL0     C 6506   3.583   3.205   2.310  0.3026  0.2082  0.2740
   49MOL0     C 6507   3.470   3.203   2.393 -0.1097  0.4604 -1.1230
   49MOL0     C 6508   3.482   3.137   2.530 -0.1117 -0.4817  0.8538
   49MOL0     C 6509   3.342   3.250   2.356  0.2559 -1.8886 -0.3604
   49MOL0     C 6510   3.232   3.248   2.450 -0.3377 -1.1510  0.3015
   49MOL0     O 6511   3.184   3.372   2.492  0.6708 -0.7793 -0.0058
   49MOL0     C 6512   3.103   3.395   2.603 -0.9078 -0.3375  0.3745
   49MOL0     C 6513   3.028   3.509   2.602  0.5398 -0.5265 -0.9818
   49MOL0     C 6514   2.941   3.539   2.709 -0.5249  0.6173  0.5882
   49MOL0     C 6515   2.936   3.445   2.818 -0.4047 -0.3184  0.4514
   49MOL0     O 6516   2.856   3.465   2.925  0.7971 -0.0166  0.3115
   49MOL0     C 6517   2.808   3.595   2.954 -0.6079  0.2915  0.2653
   49MOL0     C 6518   2.779   3.609   3.103  0.2230  0.3817  0.0463
   49MOL0     C 6519   2.639   3.547   3.115 -0.0278 -0.1033 -0.4166
   49MOL0     C 6520   2.605   3.526   3.258  0.0848 -0.4146 -0.5213
   49MOL0     C 6521   2.451   3.538   3.290 -0.3670  0.1826  0.7406
   49MOL0     C 6522   2.389   3.671   3.244 -0.0991 -0.2046 -0.6063
   49MOL0     C 6523   2.249   3.693   3.296 -0.0884  0.8854  0.6644
   49MOL0     C 6524   2.223   3.846   3.311  1.2473  0.3181  0.1603
   49MOL0    Cl 6525   2.255   3.953   3.168 -0.3977  0.0439 -0.2702
   49MOL0     C 6526   3.015   3.332   2.816  0.0692  0.1892 -0.6685
   49MOL0     C 6527   3.106   3.312   2.718 -0.8241  0.1402  0.9200
   49MOL0     O 6528   3.175   3.141   2.474  0.6317  0.0724 -0.6717
   49MOL0     C 6529   3.334   3.317   2.229 -1.3345 -0.6900 -0.8371
   49MOL0     C 6530   3.450   3.330   2.151 -0.3834 -0.5765 -0.2480
   49MOL0     N 6531   4.136   3.553   1.921 -0.7773 -0.4426 -0.7132
   49MOL0     N 6532   4.207   3.644   1.857  0.1317 -0.7199  0.4139
   49MOL0     C 6533   5.405   3.540   2.122 -0.4809  0.1659  0.0413
   49MOL0     C 6534   5.537   3.551   2.166 -0.4597 -0.5139 -0.2020
   49MOL0     C 6535   5.929   3.500   2.430  0.6726 -0.3284  0.7302
   49MOL0     C 6536   5.988   3.584   2.334 -0.3351 -0.5390 -0.4531
   49MOL0     C 6537   6.120   3.619   2.352  0.6589 -0.3042 -0.2928
   49MOL0     C 6538   6.196   3.576   2.458  0.6824 -0.5855  0.3570
   49MOL0     O 6539   6.331   3.609   2.456 -0.1048  0.4369 -0.3483
   49MOL0     C 6540   6.414   3.602   2.582  0.0782  0.1720  0.1734
   49MOL0     C 6541   6.521   3.702   2.566  0.4456  0.3389  0.7672
   49MOL0     C 6542   6.634   3.689   2.669  0.2382 -0.0801 -0.8951
   49MOL0     C 6543   6.761   3.775   2.653  0.8230 -0.6606 -0.0985
   49MOL0     C 6544   6.833   3.779   2.522  0.4361 -0.3214  0.0151
   49MOL0     C 6545   6.900   3.814   2.431  0.3686 -0.6596  0.9525
   49MOL0     C 6546   6.136   3.501   2.563  0.1647 -1.0557  0.0049
   49MOL0     C 6547   6.004   3.462   2.547 -0.8002  0.4109 -0.1170
   49MOL0     H 6548   5.542   3.329   2.423 -3.1787 -0.9792  0.0584
   49MOL0     H 6549   5.321   3.287   2.342 -0.8163  1.8884  1.6541
   49MOL0     H 6550   5.126   3.258   2.243  2.1061  0.0103 -1.9570
   49MOL0     H 6551   5.069   3.416   2.298 -3.8875 -2.5725  0.0123
   49MOL0     H 6552   5.007   3.296   2.026 -0.4616  1.5660 -0.3798
   49MOL0     H 6553   4.908   3.264   2.179  1.2877  0.6246  3.1078
   49MOL0     H 6554   4.877   3.514   2.179  0.0058  1.6173 -0.0748
   49MOL0     H 6555   4.968   3.530   2.030  0.6008  0.5747  0.7420
   49MOL0     H 6556   4.786   3.352   1.948  2.7544  0.3879  0.5267
   49MOL0     H 6557   4.700   3.382   2.092 -3.0075  1.9677 -1.1694
   49MOL0     H 6558   4.696   3.654   2.014  1.3696  2.0538 -0.6392
   49MOL0     H 6559   4.764   3.599   1.874 -0.3866  3.0835  1.3813
   49MOL0     H 6560   4.579   3.471   1.806 -1.5189 -1.8562  0.7413
   49MOL0     H 6561   4.489   3.508   1.951 -2.3948  1.9270 -1.7779
   49MOL0     H 6562   4.489   3.743   1.919 -0.3442 -2.4224  0.9370
   49MOL0     H 6563   4.594   3.750   1.776 -1.3576  2.3246 -1.0455
   49MOL0     H 6564   4.461   3.594   1.643 -1.6475 -0.4499  0.6539
   49MOL0     H 6565   4.377   3.754   1.680 -1.2607  0.1473 -0.2769
   49MOL0     H 6566   4.346   3.385   1.730  0.2989  1.0927 -0.1528
   49MOL0     H 6567   4.111   3.238   1.835 -0.0814 -0.6380  0.0934
   49MOL0     H 6568   4.256   3.241   1.928  0.0074 -0.7299 -2.3619
   49MOL0     H 6569   4.080   3.350   2.119 -0.7522  0.6655 -0.1968
   49MOL0     H 6570   4.059   3.181   2.081 -1.5629  0.3809 -0.2542
   49MOL0     H 6571   3.873   3.271   1.920  2.0845 -0.2344 -0.0561
   49MOL0     H 6572   3.901   3.413   2.017  0.4992  0.0580 -4.2403
   49MOL0     H 6573   3.836   3.289   2.229 -1.2688 -1.5500  1.7677
   49MOL0     H 6574   3.809   3.144   2.145  1.3434  0.4007  1.8993
   49MOL0     H 6575   3.679   3.159   2.331  0.4731 -1.0610 -2.8015
   49MOL0     H 6576   3.398   3.067   2.542 -1.6081  1.4698  2.3385
   49MOL0     H 6577   3.578   3.085   2.542  0.7014  0.6170 -0.5540
   49MOL0     H 6578   3.480   3.215   2.606  3.0963  0.3716  0.2079
   49MOL0     H 6579   3.028   3.579   2.519 -1.3919 -0.3537 -0.9019
   49MOL0     H 6580   2.880   3.629   2.716 -0.0053  0.8808  1.9223
   49MOL0     H 6581   2.876   3.675   2.924 -0.5308 -0.6321 -2.2809
   49MOL0     H 6582   2.722   3.621   2.891 -0.2103 -0.3501 -0.5582
   49MOL0     H 6583   2.855   3.566   3.169 -0.8571  0.0844  1.1351
   49MOL0     H 6584   2.782   3.716   3.125  0.6869  0.8156 -1.9814
   49MOL0     H 6585   2.627   3.455   3.057 -4.3383  0.3592 -0.5782
   49MOL0     H 6586   2.569   3.617   3.069  1.2511  2.3686  1.2139
   49MOL0     H 6587   2.652   3.441   3.309  0.5781 -0.4969 -1.1092
   49MOL0     H 6588   2.647   3.613   3.308 -3.0005  0.8394  0.1456
   49MOL0     H 6589   2.439   3.531   3.398 -0.6505  3.8676  1.0781
   49MOL0     H 6590   2.402   3.459   3.233 -2.8735  3.0828 -1.4691
   49MOL0     H 6591   2.446   3.760   3.272 -1.9947  1.6875 -2.3972
   49MOL0     H 6592   2.383   3.676   3.135  3.3393 -0.7687 -0.9492
   49MOL0     H 6593   2.231   3.651   3.396  1.2271  0.1267  0.6010
   49MOL0     H 6594   2.179   3.669   3.216  0.8205 -0.8362  0.3434
   49MOL0     H 6595   2.283   3.880   3.395  0.1844  0.8459  0.7348
   49MOL0     H 6596   2.118   3.859   3.340  0.9082 -0.4603 -0.6630
   49MOL0     H 6597   3.023   3.262   2.899  0.5726  1.2310  0.1826
   49MOL0     H 6598   3.184   3.239   2.736 -0.9867  0.5389  3.7049
   49MOL0     H 6599   3.249   3.372   2.188  1.2488  4.2710 -0.2254
   49MOL0     H 6600   3.449   3.398   2.066  0.3063  0.1246  0.2932
   49MOL0     H 6601   5.375   3.592   2.032  0.4859  2.0248  0.7451
   49MOL0     H 6602   5.591   3.624   2.106 -0.6994 -1.3577 -1.4926
   49MOL0     H 6603   5.935   3.617   2.246 -0.5757 -1.8633 -0.8258
   49MOL0     H 6604   6.171   3.675   2.274  3.1128 -3.4184 -1.1510
   49MOL0     H 6605   6.354   3.623   2.671 -1.6737  0.6358 -1.0657
   49MOL0     H 6606   6.440   3.496   2.595 -3.0964 -1.0178 -2.0453
   49MOL0     H 6607   6.482   3.804   2.568  1.1509  0.6136  0.7464
   49MOL0     H 6608   6.567   3.682   2.469 -0.4625  1.1478  0.1482
   49MOL0     H 6609   6.661   3.584   2.660 -1.7206 -0.6984 -0.1116
   49MOL0     H 6610   6.583   3.700   2.765 -2.5412  1.8499 -2.4268
   49MOL0     H 6611   6.831   3.730   2.724  1.9526 -0.2958 -0.9695
   49MOL0     H 6612   6.744   3.875   2.695 -0.0375  0.8098 -3.6152
   49MOL0     H 6613   6.962   3.848   2.350 -1.9811 -0.4566 -0.8865
   49MOL0     H 6614   6.186   3.480   2.657 -0.1997  0.0515  0.4688
   49MOL0     H 6615   5.959   3.404   2.626  1.3787 -0.7818  0.3035
   50MOL0     O 6616   9.541  10.751   4.462  0.4195  0.4524 -0.0463
   50MOL0     C 6617   9.632  10.803   4.520  0.0263  0.5717  0.2570
   50MOL0     O 6618   9.631  10.850   4.646 -0.0997 -0.5018 -0.1596
   50MOL0     C 6619   9.517  10.876   4.718  0.2917  0.1539  0.0210
   50MOL0     C 6620   9.523  10.851   4.854 -0.2948 -0.4862 -0.2642
   50MOL0     C 6621   9.405  10.868   4.931  0.2062 -0.8107 -0.0780
   50MOL0     C 6622   9.281  10.911   4.881 -0.2656 -1.1632 -0.4324
   50MOL0     O 6623   9.171  10.934   4.961  0.5938 -0.1252 -0.2822
   50MOL0     C 6624   9.052  10.879   4.905 -0.8300 -0.7858  0.0792
   50MOL0     C 6625   8.938  10.897   5.004  0.2796  0.0931  0.5030
   50MOL0     C 6626   8.803  10.900   4.931 -0.6334  0.4934  0.7571
   50MOL0     C 6627   8.706  10.983   5.005  0.2132 -0.1306 -0.5843
   50MOL0     C 6628   8.562  11.006   4.953  0.3844  0.3435 -0.0071
   50MOL0     C 6629   8.474  10.884   4.992 -0.3373  1.0062 -0.0356
   50MOL0     C 6630   8.327  10.908   4.972 -0.0351 -0.3279  0.2394
   50MOL0     C 6631   8.246  10.779   4.987 -0.9700 -0.5338 -0.1936
   50MOL0     N 6632   8.098  10.790   4.984  1.3912  0.1236  0.6805
   50MOL0     C 6633   8.010  10.810   5.092  1.1168 -0.4752  0.1463
   50MOL0     C 6634   7.885  10.809   5.032  0.1849 -0.6646 -1.0056
   50MOL0     C 6635   7.749  10.816   5.102  0.2702  0.5653  0.4887
   50MOL0     C 6636   7.679  10.682   5.106  0.0679 -0.5953 -0.1528
   50MOL0     C 6637   7.769  10.590   5.185  1.1779  0.4440 -0.3303
   50MOL0     C 6638   7.675  10.492   5.250  0.0901 -0.4268  0.9433
   50MOL0     O 6639   7.725  10.406   5.349  0.6855 -0.1797 -0.0950
   50MOL0     C 6640   7.817  10.308   5.319 -0.5165 -0.8188  0.2903
   50MOL0     C 6641   7.895  10.265   5.427  0.3819  0.5195 -0.2095
   50MOL0     C 6642   7.985  10.159   5.410  0.5652  0.4894  1.1229
   50MOL0     C 6643   8.056  10.111   5.521 -0.3660  0.0767  0.2345
   50MOL0     C 6644   8.013  10.116   5.272 -0.0518  0.4380 -0.0838
   50MOL0     C 6645   8.125  10.029   5.234  0.4289  0.3983 -0.0123
   50MOL0     O 6646   8.130   9.979   5.101  0.2460  0.7235  0.1211
   50MOL0     C 6647   8.241   9.924   5.047 -0.7656 -0.5417 -0.9846
   50MOL0     C 6648   8.366   9.974   5.083  0.2292  0.7989 -0.0700
   50MOL0     C 6649   8.482   9.916   5.032 -0.2374  0.4245 -1.0099
   50MOL0     C 6650   8.478   9.819   4.930 -0.0973  0.3877  0.0118
   50MOL0     O 6651   8.601   9.777   4.896 -0.5742 -0.2549 -0.3319
   50MOL0     C 6652   8.619   9.768   4.752 -0.1559  0.7387  0.2173
   50MOL0     C 6653   8.751   9.688   4.731 -0.2572 -0.1241  0.0831
   50MOL0     C 6654   8.868   9.775   4.786  0.4580 -0.2599 -0.4396
   50MOL0     C 6655   9.012   9.716   4.769  0.5141 -0.2311 -0.1657
   50MOL0     C 6656   9.048   9.702   4.620 -0.6340  0.4997 -0.0078
   50MOL0     C 6657   9.179   9.626   4.595  0.6518  0.4796  0.0392
   50MOL0     C 6658   9.207   9.606   4.441 -0.0255 -1.0240  0.4344
   50MOL0     C 6659   9.315   9.502   4.425 -0.5373 -0.3235  0.4006
   50MOL0    Cl 6660   9.457   9.564   4.504  0.5246  0.1369 -0.0871
   50MOL0     C 6661   8.350   9.783   4.884 -0.6432 -1.3059 -0.3624
   50MOL0     C 6662   8.232   9.825   4.943 -0.2568 -0.0447 -0.5154
   50MOL0     O 6663   8.216  10.012   5.313 -0.3790  0.3180 -0.5548
   50MOL0     C 6664   7.942  10.171   5.165 -0.2296  0.5913  0.0891
   50MOL0     C 6665   7.846  10.262   5.185 -0.0901  0.0313  0.1462
   50MOL0     N 6666   7.897  10.806   4.895 -0.2456  0.5030 -0.4161
   50MOL0     N 6667   8.030  10.780   4.869  0.4026  0.1215 -0.1608
   50MOL0     C 6668   9.285  10.953   4.746 -1.2137  0.0279  0.9182
   50MOL0     C 6669   9.399  10.934   4.663 -0.4151 -0.1717 -0.2957
   50MOL0     C 6670   9.750  10.819   4.444  0.1089 -1.0267  0.9619
   50MOL0     C 6671   9.838  10.916   4.487  0.1472 -0.3675 -0.4037
   50MOL0     C 6672   9.963  10.938   4.436 -0.0022 -0.1215  0.4425
   50MOL0     C 6673  10.016  10.847   4.340 -0.2746 -0.0909 -1.7347
   50MOL0     O 6674  10.143  10.864   4.297 -0.5991  0.1628  0.0919
   50MOL0     C 6675  10.176  10.830   4.164 -0.5975  0.3797  0.0152
   50MOL0     C 6676  10.232  10.688   4.163 -0.4008 -0.2937 -0.2789
   50MOL0     C 6677  10.376  10.668   4.210 -0.6732 -0.0173 -0.3886
   50MOL0     C 6678  10.455  10.540   4.187  0.8756 -0.7279  0.4758
   50MOL0     C 6679  10.374  10.420   4.204 -0.4128 -0.2702 -0.0565
   50MOL0     C 6680  10.325  10.312   4.232 -0.0598  0.4811  0.2043
   50MOL0     C 6681   9.929  10.750   4.293  0.1065  0.5148 -0.3738
   50MOL0     C 6682   9.804  10.731   4.348 -0.5354  0.3095  1.1469
   50MOL0     H 6683   9.606  10.817   4.915 -0.7139 -2.0177 -0.5012
   50MOL0     H 6684   9.403  10.846   5.037 -1.4439  0.7220  0.2553
   50MOL0     H 6685   9.036  10.936   4.813  1.5584  2.1706  1.3415
   50MOL0     H 6686   9.066  10.775   4.875  0.2849 -0.3836 -0.8643
   50MOL0     H 6687   8.939  10.808   5.068  0.7251 -0.4640 -0.2575
   50MOL0     H 6688   8.952  10.990   5.059  0.2557  0.0383  0.6009
   50MOL0     H 6689   8.813  10.942   4.831  0.2601 -0.0555  0.6069
   50MOL0     H 6690   8.755  10.803   4.916  0.5370  0.2230 -1.6033
   50MOL0     H 6691   8.684  10.936   5.101 -2.2126 -0.4309 -1.2356
   50MOL0     H 6692   8.759  11.076   5.029 -3.8198  2.4388 -0.7701
   50MOL0     H 6693   8.526  11.098   5.000  0.1011  1.2832 -1.9583
   50MOL0     H 6694   8.556  11.002   4.843  2.3677  2.5851 -0.2703
   50MOL0     H 6695   8.507  10.815   4.914 -0.7978  1.5818 -0.7567
   50MOL0     H 6696   8.494  10.849   5.094  1.5115  2.0241  0.0116
   50MOL0     H 6697   8.290  10.983   5.041 -3.9161 -1.5949 -0.2356
   50MOL0     H 6698   8.314  10.955   4.874 -1.7811  1.9237  1.4818
   50MOL0     H 6699   8.261  10.750   5.091 -1.8654  2.0369  0.7228
   50MOL0     H 6700   8.284  10.716   4.906 -1.0659 -1.6104  0.5802
   50MOL0     H 6701   8.035  10.818   5.197  0.5939  1.3849  0.1616
   50MOL0     H 6702   7.755  10.876   5.193  0.4208  0.6728  0.4098
   50MOL0     H 6703   7.682  10.871   5.035  0.9570  0.6269 -0.1618
   50MOL0     H 6704   7.676  10.646   5.002  0.9306  1.0790 -0.8039
   50MOL0     H 6705   7.579  10.699   5.147 -0.7481 -2.0541 -1.4444
   50MOL0     H 6706   7.824  10.654   5.255  1.9006  1.9340 -2.1511
   50MOL0     H 6707   7.843  10.537   5.125  0.4507  0.6673 -1.4582
   50MOL0     H 6708   7.630  10.438   5.167  1.0626 -0.2543  0.2930
   50MOL0     H 6709   7.601  10.553   5.302 -1.7821 -0.3986 -1.5901
   50MOL0     H 6710   7.875  10.310   5.524 -0.9706 -0.3529 -0.0588
   50MOL0     H 6711   8.153  10.161   5.522 -1.4019  2.1763  1.0895
   50MOL0     H 6712   7.998  10.134   5.611 -0.7268  3.3223 -0.7311
   50MOL0     H 6713   8.071  10.002   5.513 -1.6175 -0.0101 -1.4319
   50MOL0     H 6714   8.392  10.053   5.153  4.1120 -0.4387  0.1379
   50MOL0     H 6715   8.579   9.942   5.075 -0.6603 -1.5954  1.3767
   50MOL0     H 6716   8.538   9.719   4.697  0.3948  1.4585 -1.2859
   50MOL0     H 6717   8.621   9.868   4.708 -2.8407  1.5324  1.6783
   50MOL0     H 6718   8.750   9.598   4.793  2.7586 -1.3056 -1.3978
   50MOL0     H 6719   8.750   9.666   4.624 -1.2367  0.5138 -0.0549
   50MOL0     H 6720   8.851   9.792   4.892 -1.9129 -4.1764  0.0235
   50MOL0     H 6721   8.868   9.864   4.722  1.6798  0.7740  0.9395
   50MOL0     H 6722   9.079   9.779   4.829  2.3084 -0.6166 -1.6632
   50MOL0     H 6723   9.016   9.620   4.820  3.9196 -1.0288 -1.5816
   50MOL0     H 6724   9.064   9.807   4.592  2.1667 -0.1113 -1.0049
   50MOL0     H 6725   8.965   9.655   4.565 -0.6414 -0.0241  0.4500
   50MOL0     H 6726   9.258   9.684   4.644  1.4527 -1.0971  0.6720
   50MOL0     H 6727   9.185   9.525   4.635  1.8695 -0.0580 -1.4074
   50MOL0     H 6728   9.248   9.700   4.402 -0.5468 -0.7841  0.4554
   50MOL0     H 6729   9.116   9.580   4.387  0.7258  0.7608 -1.8465
   50MOL0     H 6730   9.329   9.481   4.319 -3.5596 -0.3822 -0.0906
   50MOL0     H 6731   9.268   9.413   4.469  0.8483 -0.7494  1.0674
   50MOL0     H 6732   8.358   9.707   4.807  2.1197 -2.8236  1.2239
   50MOL0     H 6733   8.139   9.776   4.915 -0.9037  0.1517  1.1590
   50MOL0     H 6734   7.972  10.152   5.062 -1.1446 -0.9609  0.0758
   50MOL0     H 6735   7.788  10.303   5.103  1.6640  1.3982 -0.4514
   50MOL0     H 6736   9.205  10.998   4.687  0.9112  0.4608 -1.8271
   50MOL0     H 6737   9.413  10.971   4.562  2.2852  1.5491  0.5774
   50MOL0     H 6738   9.803  10.987   4.562  3.6372  0.7360  0.3769
   50MOL0     H 6739  10.027  11.019   4.469 -1.4861  0.2246  2.6759
   50MOL0     H 6740  10.087  10.826   4.100 -2.0041  0.5260  1.8677
   50MOL0     H 6741  10.252  10.895   4.121 -1.2604 -0.8735 -3.4044
   50MOL0     H 6742  10.225  10.662   4.057 -0.7463  2.4884 -1.0156
   50MOL0     H 6743  10.168  10.628   4.228  0.0186 -0.8253 -0.3437
   50MOL0     H 6744  10.381  10.691   4.317  2.6101  0.0593 -0.4550
   50MOL0     H 6745  10.426  10.743   4.148  0.1281 -1.1578 -1.1606
   50MOL0     H 6746  10.536  10.526   4.260  1.0061 -0.7686  0.3245
   50MOL0     H 6747  10.506  10.550   4.091 -0.6889 -0.6983 -0.3820
   50MOL0     H 6748  10.289  10.211   4.232 -0.7709  0.5406 -4.0395
   50MOL0     H 6749   9.954  10.682   4.212  2.9686 -1.1572  1.7504
   50MOL0     H 6750   9.734  10.655   4.313 -1.9695  3.2815 -3.2460
   51MOL0     O 6751   2.929   1.995   9.246 -0.2315 -0.4271  0.0332
   51MOL0     C 6752   2.929   1.948   9.132 -0.1050 -0.1129  0.2272
   51MOL0     O 6753   2.823   1.961   9.046 -0.0074 -0.4375  0.1822
   51MOL0     C 6754   2.722   2.053   9.077 -0.4758 -0.0631 -0.7132
   51MOL0     C 6755   2.605   2.014   9.141  0.0636  0.2499  0.4892
   51MOL0     C 6756   2.507   2.105   9.185 -0.1776 -0.3202 -0.7368
   51MOL0     C 6757   2.522   2.245   9.159 -0.5395  0.0027 -0.4516
   51MOL0     O 6758   2.423   2.322   9.200 -0.1860  0.1050 -0.1898
   51MOL0     C 6759   2.461   2.424   9.299 -1.3022 -0.4182 -0.3058
   51MOL0     C 6760   2.386   2.542   9.254  0.4544  0.4801 -0.4514
   51MOL0     C 6761   2.369   2.569   9.098 -0.0684 -0.2434 -0.4408
   51MOL0     C 6762   2.344   2.712   9.074  0.2317  0.1628 -0.1459
   51MOL0     C 6763   2.311   2.724   8.921 -0.4941  0.3547 -1.2168
   51MOL0     C 6764   2.196   2.821   8.914 -0.4957 -0.4679 -0.4515
   51MOL0     C 6765   2.066   2.752   8.969 -1.0556 -0.2048 -0.6629
   51MOL0     C 6766   2.015   2.617   8.906 -1.0377 -0.3277 -0.3929
   51MOL0     N 6767   1.871   2.605   8.913  0.5793  0.3278 -0.4065
   51MOL0     C 6768   1.783   2.560   8.811 -0.4029 -0.5725  0.1651
   51MOL0     C 6769   1.667   2.531   8.881 -0.5965 -0.2218 -0.3880
   51MOL0     C 6770   1.533   2.477   8.826  0.7203 -0.1664 -0.3790
   51MOL0     C 6771   1.523   2.498   8.665 -1.1932 -0.1688 -0.8479
   51MOL0     C 6772   1.403   2.425   8.616 -0.3944 -0.5937  0.6981
   51MOL0     C 6773   1.265   2.492   8.660 -0.6829  0.4182  0.0743
   51MOL0     O 6774   1.161   2.423   8.596  0.2092 -0.0995  0.1521
   51MOL0     C 6775   1.042   2.491   8.593  0.8089  0.3939 -0.6892
   51MOL0     C 6776   0.928   2.442   8.528  0.8625 -0.8385 -0.0797
   51MOL0     C 6777   0.798   2.506   8.531  0.1505  0.5571  0.1014
   51MOL0     C 6778   0.685   2.433   8.465 -0.7802  0.3325  0.0183
   51MOL0     C 6779   0.772   2.626   8.600 -0.5520 -0.1756  0.4218
   51MOL0     C 6780   0.636   2.696   8.602 -0.0328  0.1291 -0.5914
   51MOL0     O 6781   0.511   2.633   8.571 -0.0390  0.2373 -0.1362
   51MOL0     C 6782   0.401   2.712   8.546  0.4231  1.3310 -0.3058
   51MOL0     C 6783   0.314   2.679   8.438  0.9150 -0.1854 -0.0579
   51MOL0     C 6784   0.200   2.756   8.411  0.2214 -0.1368  0.4041
   51MOL0     C 6785   0.160   2.857   8.498  0.8737 -0.5188  0.5407
   51MOL0     O 6786   0.049   2.930   8.459 -0.3203 -0.0808  0.0470
   51MOL0     C 6787   0.011   3.030   8.555  0.0475 -1.1917  0.3081
   51MOL0     C 6788  -0.114   3.095   8.505  1.1651 -0.1733  0.3731
   51MOL0     C 6789  -0.233   3.001   8.505  0.4091 -0.0445 -0.4752
   51MOL0     C 6790  -0.362   3.074   8.450 -0.3281  0.5951 -0.3802
   51MOL0     C 6791  -0.502   3.031   8.510  0.1040 -0.8085  0.6960
   51MOL0     C 6792  -0.525   2.885   8.468  0.1812  0.4484  0.5374
   51MOL0     C 6793  -0.563   2.858   8.316 -0.9922  0.2725 -0.3296
   51MOL0     C 6794  -0.614   2.720   8.301  1.0154 -0.2668  0.5820
   51MOL0    Cl 6795  -0.797   2.713   8.337  0.1269  0.1688  0.1268
   51MOL0     C 6796   0.240   2.881   8.607  0.1934 -0.3746 -0.0126
   51MOL0     C 6797   0.359   2.816   8.626  0.3494 -0.1460  0.0184
   51MOL0     O 6798   0.642   2.813   8.622  0.3655 -0.0156 -0.2909
   51MOL0     C 6799   0.882   2.683   8.662  0.1764  0.1144 -0.5108
   51MOL0     C 6800   1.008   2.607   8.669 -0.2426  0.3127 -0.3694
   51MOL0     N 6801   1.684   2.567   9.012 -0.1856 -0.0822  0.1959
   51MOL0     N 6802   1.799   2.618   9.026  0.4857 -0.2110 -1.2306
   51MOL0     C 6803   2.633   2.281   9.076 -0.1029  0.0746  0.7289
   51MOL0     C 6804   2.738   2.190   9.043  0.1609 -0.3091 -0.7114
   51MOL0     C 6805   3.056   1.885   9.083  0.5435  0.0861  0.5247
   51MOL0     C 6806   3.049   1.803   8.965  0.3937 -0.3587  0.0662
   51MOL0     C 6807   3.158   1.738   8.922 -0.2980 -0.1966 -0.5999
   51MOL0     C 6808   3.278   1.748   8.997 -0.2490  0.0737  0.2969
   51MOL0     O 6809   3.401   1.698   8.953 -0.5908 -0.2558  0.6083
   51MOL0     C 6810   3.409   1.616   8.838 -1.1181 -0.3046  0.3336
   51MOL0     C 6811   3.551   1.559   8.821 -0.7100  0.0431  0.1220
   51MOL0     C 6812   3.609   1.487   8.936  0.3814 -0.6385 -0.0695
   51MOL0     C 6813   3.747   1.422   8.895  0.8029 -1.3784  0.9450
   51MOL0     C 6814   3.817   1.350   9.000  0.9793  0.2222  1.0968
   51MOL0     C 6815   3.866   1.309   9.102  0.2994 -0.9467 -0.8803
   51MOL0     C 6816   3.278   1.814   9.119 -0.6082 -0.2050  1.6107
   51MOL0     C 6817   3.173   1.891   9.159  1.2630 -0.0425 -1.3139
   51MOL0     H 6818   2.591   1.908   9.161  2.4277  0.1294  1.8939
   51MOL0     H 6819   2.427   2.064   9.246  0.8679  0.4022  1.2172
   51MOL0     H 6820   2.436   2.400   9.403  0.0722 -1.0078 -0.0838
   51MOL0     H 6821   2.568   2.443   9.287 -1.2378 -1.5131 -1.6418
   51MOL0     H 6822   2.283   2.544   9.291 -0.1970  0.3332 -2.1692
   51MOL0     H 6823   2.427   2.631   9.303  1.0873  0.6501 -1.2794
   51MOL0     H 6824   2.461   2.544   9.045 -0.9170  1.1007 -2.7275
   51MOL0     H 6825   2.290   2.505   9.057  0.7621 -0.7278 -1.3299
   51MOL0     H 6826   2.273   2.753   9.147 -0.5307 -1.1346 -0.1313
   51MOL0     H 6827   2.432   2.777   9.084 -1.5141  2.8095 -1.0497
   51MOL0     H 6828   2.396   2.752   8.857  0.9316  2.4158  1.3457
   51MOL0     H 6829   2.280   2.626   8.884  0.9725 -2.1236  3.2918
   51MOL0     H 6830   2.216   2.921   8.953  1.6156 -0.8386 -0.4826
   51MOL0     H 6831   2.177   2.847   8.809 -2.7603  1.3197  0.3102
   51MOL0     H 6832   2.076   2.735   9.077 -1.5963 -0.1623 -0.6045
   51MOL0     H 6833   1.980   2.819   8.963 -0.3158  1.3003  2.9174
   51MOL0     H 6834   2.062   2.534   8.958 -1.3117  2.3534  4.8027
   51MOL0     H 6835   2.042   2.605   8.801 -1.3753 -1.7432 -0.3367
   51MOL0     H 6836   1.809   2.535   8.709 -0.0774 -4.0639  0.9868
   51MOL0     H 6837   1.512   2.376   8.863  0.5650 -0.6756 -1.7593
   51MOL0     H 6838   1.458   2.536   8.878  0.4690 -0.9995  0.2275
   51MOL0     H 6839   1.612   2.461   8.613 -0.8399  0.0014 -0.3689
   51MOL0     H 6840   1.529   2.604   8.639  0.1264  0.0366  0.1967
   51MOL0     H 6841   1.415   2.320   8.643  0.1300 -1.0649 -1.1898
   51MOL0     H 6842   1.388   2.422   8.507 -3.4759  0.1033  0.9993
   51MOL0     H 6843   1.264   2.594   8.622 -0.3794  0.5099  0.3077
   51MOL0     H 6844   1.263   2.488   8.769  0.7685 -1.0829  0.0861
   51MOL0     H 6845   0.942   2.340   8.493  1.2734 -0.2624 -1.7106
   51MOL0     H 6846   0.639   2.494   8.386 -1.7718 -1.0974 -0.5513
   51MOL0     H 6847   0.730   2.343   8.423  0.0093  2.0380 -3.1424
   51MOL0     H 6848   0.615   2.408   8.545 -0.1708  3.2581  1.6031
   51MOL0     H 6849   0.335   2.595   8.373 -1.0467 -0.6729 -0.1197
   51MOL0     H 6850   0.130   2.742   8.329 -3.0390 -0.3778  3.0630
   51MOL0     H 6851  -0.008   2.991   8.655  0.3131  1.3409  1.4083
   51MOL0     H 6852   0.087   3.108   8.559 -1.4044  0.3420 -0.6833
   51MOL0     H 6853  -0.148   3.181   8.564 -3.9298 -0.1500 -2.0952
   51MOL0     H 6854  -0.103   3.142   8.407 -2.2763  1.4542  0.6073
   51MOL0     H 6855  -0.251   2.946   8.598  1.5753 -2.3607 -1.5281
   51MOL0     H 6856  -0.217   2.923   8.430  1.4797 -1.8435  1.5048
   51MOL0     H 6857  -0.348   3.182   8.464 -1.0684  0.7026 -0.4226
   51MOL0     H 6858  -0.365   3.047   8.344 -3.0289 -0.7029 -0.0477
   51MOL0     H 6859  -0.571   3.098   8.457  1.2539 -1.0502 -1.1985
   51MOL0     H 6860  -0.515   3.052   8.616 -2.3426 -1.0863  0.5092
   51MOL0     H 6861  -0.436   2.827   8.497  0.0800  0.7672  1.5367
   51MOL0     H 6862  -0.610   2.843   8.522 -0.1792 -0.8247 -0.9458
   51MOL0     H 6863  -0.469   2.875   8.263  0.1958  0.8423  1.8376
   51MOL0     H 6864  -0.640   2.926   8.279 -0.7525 -0.6003 -2.5857
   51MOL0     H 6865  -0.561   2.646   8.361  3.1976  0.3265 -0.5140
   51MOL0     H 6866  -0.603   2.685   8.198  1.9678 -3.4656  1.6693
   51MOL0     H 6867   0.219   2.967   8.670 -3.2605 -2.3670  1.8178
   51MOL0     H 6868   0.420   2.835   8.713 -0.5414 -1.1604  0.8931
   51MOL0     H 6869   0.868   2.779   8.710  0.3915 -0.3591  0.5089
   51MOL0     H 6870   1.072   2.656   8.741 -1.7743  0.1257  1.1846
   51MOL0     H 6871   2.646   2.386   9.052 -0.5304 -0.6022 -3.2120
   51MOL0     H 6872   2.819   2.236   8.987  0.8946 -0.4359  0.2295
   51MOL0     H 6873   2.965   1.797   8.897  0.9302 -0.7008 -0.5766
   51MOL0     H 6874   3.161   1.692   8.824  0.7308  1.1040 -1.2161
   51MOL0     H 6875   3.333   1.540   8.856  1.9822 -3.5016  1.0010
   51MOL0     H 6876   3.377   1.668   8.747 -2.0129  1.3394  1.5214
   51MOL0     H 6877   3.624   1.630   8.782 -0.8314 -0.9778 -2.1194
   51MOL0     H 6878   3.552   1.476   8.749  1.9112 -1.1695  1.4414
   51MOL0     H 6879   3.537   1.409   8.961 -2.1026  1.3447 -0.7196
   51MOL0     H 6880   3.610   1.549   9.026 -0.3038  0.8632 -1.0642
   51MOL0     H 6881   3.812   1.499   8.853 -1.9620 -0.1270 -1.4082
   51MOL0     H 6882   3.718   1.354   8.813 -0.9921  0.3953  0.0051
   51MOL0     H 6883   3.904   1.266   9.192  2.0320  1.9746 -0.0946
   51MOL0     H 6884   3.373   1.829   9.168  0.4944 -0.2382 -0.4214
   51MOL0     H 6885   3.186   1.943   9.253  1.2320  3.6485 -3.1829
   52MOL0     O 6886   2.435   0.569   3.944 -0.5559 -0.4778  0.4917
   52MOL0     C 6887   2.435   0.644   3.853 -0.8904 -0.2627 -0.1822
   52MOL0     O 6888   2.453   0.619   3.718 -0.3126 -0.5299  0.1198
   52MOL0     C 6889   2.499   0.494   3.673 -0.1391  0.1457  1.2992
   52MOL0     C 6890   2.420   0.428   3.581  0.1627  0.5513 -0.8187
   52MOL0     C 6891   2.458   0.312   3.521 -1.0222 -0.3622 -0.3491
   52MOL0     C 6892   2.576   0.241   3.562 -0.2920  0.4604  0.8582
   52MOL0     O 6893   2.617   0.122   3.508  0.9648  0.3189  0.2228
   52MOL0     C 6894   2.539   0.052   3.409 -0.0932 -0.5939 -0.7418
   52MOL0     C 6895   2.412  -0.017   3.457 -0.6843  0.3251 -0.5962
   52MOL0     C 6896   2.311  -0.011   3.346  0.0471  0.7626  0.2024
   52MOL0     C 6897   2.201  -0.117   3.375  0.0033 -0.3438  0.5047
   52MOL0     C 6898   2.105  -0.119   3.253  0.3967  0.4920  0.2871
   52MOL0     C 6899   1.968  -0.160   3.295  0.5357 -0.5042  0.6372
   52MOL0     C 6900   1.868  -0.179   3.187 -0.0576 -0.3659 -0.5262
   52MOL0     C 6901   1.821  -0.048   3.116  0.3773 -0.2341 -0.1955
   52MOL0     N 6902   1.734   0.041   3.194  0.8475 -0.7539  0.0990
   52MOL0     C 6903   1.766   0.144   3.290 -0.3122  0.4679 -0.4213
   52MOL0     C 6904   1.651   0.187   3.339  0.0566  0.7022  0.1960
   52MOL0     C 6905   1.640   0.294   3.435 -0.0613 -0.0951 -0.0571
   52MOL0     C 6906   1.721   0.412   3.397 -0.3891  0.5119  0.0142
   52MOL0     C 6907   1.725   0.515   3.507 -0.3825  0.7463 -0.1232
   52MOL0     C 6908   1.599   0.596   3.527  0.7203 -0.0571  0.5187
   52MOL0     O 6909   1.551   0.645   3.398  0.6814 -0.2711 -0.7832
   52MOL0     C 6910   1.621   0.749   3.339  0.2694 -0.0561  0.1738
   52MOL0     C 6911   1.573   0.770   3.212 -0.0197  0.0523 -0.2630
   52MOL0     C 6912   1.612   0.870   3.129  0.4295 -0.4101  0.3587
   52MOL0     C 6913   1.525   0.897   3.017 -0.1551 -0.8429  0.0203
   52MOL0     C 6914   1.719   0.952   3.171 -0.0521 -0.5229  0.1626
   52MOL0     C 6915   1.777   1.064   3.084  0.9575  0.4855 -0.2800
   52MOL0     O 6916   1.863   1.149   3.141 -0.3994  0.4904 -0.3204
   52MOL0     C 6917   1.947   1.210   3.056 -0.4837 -1.1123  0.1650
   52MOL0     C 6918   1.927   1.343   3.021 -0.4432  0.0218  0.5613
   52MOL0     C 6919   2.034   1.394   2.942 -0.3170 -1.3093  0.2780
   52MOL0     C 6920   2.161   1.329   2.911  0.2274 -0.6301 -0.5512
   52MOL0     O 6921   2.266   1.390   2.846  0.7433  0.0741 -1.6933
   52MOL0     C 6922   2.274   1.534   2.868  0.2950  0.4571  0.1340
   52MOL0     C 6923   2.397   1.585   2.817  0.0145 -0.7012 -0.0944
   52MOL0     C 6924   2.519   1.562   2.909 -0.6683 -0.3558  0.0435
   52MOL0     C 6925   2.645   1.635   2.853  0.6022 -0.0601  0.1306
   52MOL0     C 6926   2.754   1.636   2.961 -0.2750  0.5618  0.0135
   52MOL0     C 6927   2.871   1.729   2.917  1.0576  0.2109  0.2490
   52MOL0     C 6928   2.990   1.720   3.011  0.1154 -0.7508  0.4114
   52MOL0     C 6929   3.131   1.774   2.966  1.3732  0.6955 -0.0406
   52MOL0    Cl 6930   3.254   1.717   3.096 -0.4206 -0.0646 -0.0453
   52MOL0     C 6931   2.167   1.197   2.960 -0.5380 -0.3457  0.1539
   52MOL0     C 6932   2.064   1.135   3.031  0.3006  0.0722  0.2154
   52MOL0     O 6933   1.742   1.066   2.965 -0.0372  0.6536  0.4855
   52MOL0     C 6934   1.773   0.930   3.297  0.7167  0.3328 -0.5727
   52MOL0     C 6935   1.718   0.836   3.388 -0.2497 -0.4211  0.2687
   52MOL0     N 6936   1.548   0.115   3.277  0.3038  0.2368 -0.3872
   52MOL0     N 6937   1.599   0.036   3.184 -0.1404  0.2513  0.4791
   52MOL0     C 6938   2.661   0.302   3.647 -0.8928  0.0220  0.4898
   52MOL0     C 6939   2.626   0.427   3.701  0.9374  0.0252  0.2656
   52MOL0     C 6940   2.417   0.787   3.887  0.2934  0.3625  0.3513
   52MOL0     C 6941   2.370   0.885   3.796 -1.0607  0.4426 -0.7124
   52MOL0     C 6942   2.362   1.022   3.835  0.0893  0.7908 -0.6164
   52MOL0     C 6943   2.400   1.062   3.971 -0.1182  0.3890  0.6906
   52MOL0     O 6944   2.392   1.200   3.990  0.3485  0.1969 -0.2803
   52MOL0     C 6945   2.420   1.248   4.119  0.0597 -0.4107  0.0974
   52MOL0     C 6946   2.309   1.221   4.224 -0.2664  0.5796  0.7687
   52MOL0     C 6947   2.197   1.334   4.234  0.7152 -0.1724 -0.1916
   52MOL0     C 6948   2.070   1.276   4.300  0.6479 -0.4119 -0.0086
   52MOL0     C 6949   1.973   1.231   4.204  0.7075  1.0005 -0.6932
   52MOL0     C 6950   1.899   1.180   4.127  0.6226  0.5710 -0.6782
   52MOL0     C 6951   2.458   0.966   4.057 -0.0139  0.9058 -0.2392
   52MOL0     C 6952   2.463   0.830   4.013  0.7396  0.0358  0.0491
   52MOL0     H 6953   2.325   0.475   3.557  0.2349  1.5187  0.6365
   52MOL0     H 6954   2.390   0.256   3.459 -1.1860 -0.5018 -0.0431
   52MOL0     H 6955   2.523   0.124   3.328 -0.5550 -0.8559 -0.8839
   52MOL0     H 6956   2.614  -0.012   3.362  1.1730  0.1814  0.1468
   52MOL0     H 6957   2.430  -0.118   3.497 -1.0242  0.7104  0.5743
   52MOL0     H 6958   2.385   0.044   3.544  3.1026  1.3075  0.0832
   52MOL0     H 6959   2.259   0.085   3.339 -2.0242 -0.3873 -3.8537
   52MOL0     H 6960   2.363  -0.036   3.253 -3.5915  0.0692 -1.8540
   52MOL0     H 6961   2.254  -0.208   3.403  0.6702  0.7655  3.1358
   52MOL0     H 6962   2.137  -0.085   3.457 -0.1455 -1.5691  0.8821
   52MOL0     H 6963   2.091  -0.016   3.219 -3.0512 -0.0305 -0.2811
   52MOL0     H 6964   2.148  -0.174   3.169  2.7136  2.2231  0.2737
   52MOL0     H 6965   1.972  -0.249   3.357 -0.1036 -1.5129 -0.7180
   52MOL0     H 6966   1.933  -0.074   3.353 -1.1293  0.2742 -1.3815
   52MOL0     H 6967   1.881  -0.253   3.107 -3.9665 -1.4624 -0.3896
   52MOL0     H 6968   1.785  -0.227   3.241  1.2923 -1.6638  0.4774
   52MOL0     H 6969   1.764  -0.089   3.032 -1.2966 -1.0923  1.2906
   52MOL0     H 6970   1.910   0.008   3.086 -0.9316  2.4445  0.6001
   52MOL0     H 6971   1.861   0.175   3.333 -2.0439  3.6449  1.4101
   52MOL0     H 6972   1.536   0.324   3.448  0.9118  4.0171 -0.3639
   52MOL0     H 6973   1.690   0.253   3.524  6.3005  3.5416 -1.3188
   52MOL0     H 6974   1.676   0.446   3.304  1.0824 -1.1070 -1.3630
   52MOL0     H 6975   1.825   0.383   3.377 -0.6060 -1.1632  1.1272
   52MOL0     H 6976   1.804   0.587   3.482  0.6615  0.5389  2.2893
   52MOL0     H 6977   1.759   0.475   3.603 -1.0637  2.3624  0.8292
   52MOL0     H 6978   1.602   0.677   3.600 -1.9509 -0.4079  1.1318
   52MOL0     H 6979   1.518   0.529   3.558 -2.0337  1.7667 -2.0703
   52MOL0     H 6980   1.492   0.705   3.178  0.3583  0.5777 -2.3042
   52MOL0     H 6981   1.590   0.884   2.930  0.3551 -1.6637  0.5057
   52MOL0     H 6982   1.435   0.836   3.002 -0.1361 -1.5065  2.1801
   52MOL0     H 6983   1.490   0.998   3.038 -0.8173 -1.0009 -0.2851
   52MOL0     H 6984   1.853   1.411   3.063  0.3541  0.7220  0.8553
   52MOL0     H 6985   2.011   1.492   2.900  1.4117 -0.0413  2.0974
   52MOL0     H 6986   2.196   1.590   2.815 -0.6767 -0.7336  0.2470
   52MOL0     H 6987   2.265   1.555   2.974  1.8352  2.7302 -0.1217
   52MOL0     H 6988   2.416   1.543   2.718  1.7745 -1.9700  0.7327
   52MOL0     H 6989   2.393   1.693   2.798  1.2101 -0.8987 -1.6617
   52MOL0     H 6990   2.544   1.457   2.922  1.9264  0.0916 -0.8312
   52MOL0     H 6991   2.499   1.619   3.001 -1.2882  2.2183 -1.5583
   52MOL0     H 6992   2.685   1.580   2.767 -0.2413 -2.8500  1.4094
   52MOL0     H 6993   2.625   1.738   2.821 -1.2016  0.6907  3.2734
   52MOL0     H 6994   2.790   1.533   2.972 -0.7243 -0.0643 -3.3143
   52MOL0     H 6995   2.721   1.675   3.057  2.8977 -0.7619  1.7782
   52MOL0     H 6996   2.892   1.709   2.812 -1.2747  0.5363 -0.3302
   52MOL0     H 6997   2.838   1.833   2.916  1.2948  0.2885 -1.4104
   52MOL0     H 6998   3.015   1.615   3.030 -0.4551 -0.7497  1.1765
   52MOL0     H 6999   2.957   1.769   3.102  0.4760  1.0854 -0.3928
   52MOL0     H 7000   3.144   1.882   2.953  1.5353  0.8342  1.1211
   52MOL0     H 7001   3.149   1.726   2.869 -0.6843  0.3377 -0.2725
   52MOL0     H 7002   2.254   1.133   2.947 -0.3646  0.2340 -1.9126
   52MOL0     H 7003   2.082   1.032   3.060  1.7641 -0.7942 -3.2019
   52MOL0     H 7004   1.854   0.989   3.339  0.3418  1.1214 -0.9500
   52MOL0     H 7005   1.761   0.806   3.483 -1.3058 -0.7899  0.6426
   52MOL0     H 7006   2.757   0.256   3.665 -0.0941  1.4560  0.1007
   52MOL0     H 7007   2.701   0.462   3.771  0.7142  0.3554  0.3469
   52MOL0     H 7008   2.335   0.847   3.701  1.2396  0.9388 -1.8242
   52MOL0     H 7009   2.312   1.084   3.761 -2.6046 -1.8433 -1.2038
   52MOL0     H 7010   2.514   1.201   4.146  0.4861 -0.0718 -0.7616
   52MOL0     H 7011   2.426   1.357   4.112 -1.3867 -0.3772 -1.4400
   52MOL0     H 7012   2.356   1.214   4.322 -1.4401 -0.2448  1.2962
   52MOL0     H 7013   2.275   1.122   4.192  2.9453 -0.4806  0.2947
   52MOL0     H 7014   2.176   1.387   4.141 -3.0795 -0.1979  0.4991
   52MOL0     H 7015   2.236   1.410   4.303  1.4376 -2.1362  1.6742
   52MOL0     H 7016   2.025   1.356   4.360 -0.9013 -1.6490  0.5420
   52MOL0     H 7017   2.095   1.191   4.365 -1.1308 -0.4005  0.7319
   52MOL0     H 7018   1.819   1.152   4.061  0.2128  3.2026 -1.4099
   52MOL0     H 7019   2.492   0.977   4.160  1.8095 -3.4561 -0.1601
   52MOL0     H 7020   2.489   0.756   4.088 -0.5217 -1.5049 -0.9862
   53MOL0     O 7021   8.082   0.130   4.058 -0.5412 -0.3613 -0.0898
   53MOL0     C 7022   8.020   0.232   4.087 -0.8173 -0.0060  0.6779
   53MOL0     O 7023   8.055   0.362   4.041 -0.0318  0.9270  0.3838
   53MOL0     C 7024   8.175   0.398   3.991 -0.6181 -0.0800  0.2700
   53MOL0     C 7025   8.177   0.496   3.889  0.2585 -0.3990  0.6586
   53MOL0     C 7026   8.300   0.538   3.824 -0.4554 -0.3705 -0.3236
   53MOL0     C 7027   8.426   0.487   3.871 -0.2992 -0.2906  0.0581
   53MOL0     O 7028   8.551   0.523   3.816  0.1970  0.2905 -0.1825
   53MOL0     C 7029   8.655   0.554   3.906 -0.7583  0.5119  0.3801
   53MOL0     C 7030   8.768   0.454   3.909  0.0113  0.4351  0.3222
   53MOL0     C 7031   8.832   0.436   3.765 -1.0656 -0.4986 -0.9749
   53MOL0     C 7032   8.944   0.332   3.753 -0.5825 -0.5834  0.7802
   53MOL0     C 7033   9.001   0.318   3.610  0.2311  0.0518 -0.3998
   53MOL0     C 7034   8.887   0.278   3.506 -0.6396  0.4575  0.3620
   53MOL0     C 7035   8.951   0.265   3.369 -0.3524 -0.2101  0.2428
   53MOL0     C 7036   8.861   0.200   3.255 -0.1704 -0.8827  0.1655
   53MOL0     N 7037   8.796   0.073   3.296 -0.0012 -0.1016  0.0185
   53MOL0     C 7038   8.669   0.056   3.350  0.0082 -0.7787 -0.8918
   53MOL0     C 7039   8.651  -0.077   3.355 -0.0820 -0.5610  0.1581
   53MOL0     C 7040   8.525  -0.141   3.404 -1.1155  0.4096  0.2256
   53MOL0     C 7041   8.448  -0.201   3.286  0.0769  0.1754  0.5396
   53MOL0     C 7042   8.308  -0.225   3.317  0.5717 -0.9068  0.0273
   53MOL0     C 7043   8.244  -0.332   3.229 -0.8872  0.1481 -0.2274
   53MOL0     O 7044   8.272  -0.314   3.086  0.6486  0.0826  0.4527
   53MOL0     C 7045   8.191  -0.377   2.991 -0.0736 -0.0071 -0.1009
   53MOL0     C 7046   8.203  -0.339   2.858  0.2573  0.0025  0.3249
   53MOL0     C 7047   8.129  -0.392   2.754 -0.1497 -0.6516  0.6690
   53MOL0     C 7048   8.157  -0.344   2.607 -0.1350  1.6487  0.1059
   53MOL0     C 7049   8.028  -0.493   2.787 -0.2316 -0.0807 -0.1969
   53MOL0     C 7050   7.961  -0.579   2.691  1.1348 -0.1712 -0.7828
   53MOL0     O 7051   7.899  -0.694   2.726  0.1323 -0.7402 -0.6132
   53MOL0     C 7052   7.876  -0.772   2.625  1.0835  0.8462  0.6319
   53MOL0     C 7053   7.974  -0.832   2.544 -0.6953 -0.0859  0.1217
   53MOL0     C 7054   7.946  -0.919   2.433 -0.3026 -0.6123 -1.2860
   53MOL0     C 7055   7.808  -0.949   2.407 -0.6968 -0.3765 -0.4808
   53MOL0     O 7056   7.757  -1.015   2.297 -0.5644 -0.8452  0.3849
   53MOL0     C 7057   7.852  -1.049   2.200 -0.1016 -0.1028  0.2273
   53MOL0     C 7058   7.781  -1.105   2.076 -0.3910 -0.3246 -0.3354
   53MOL0     C 7059   7.689  -1.000   2.013  0.6518  0.6264 -0.8932
   53MOL0     C 7060   7.640  -1.055   1.871  0.1268  0.2084  0.4296
   53MOL0     C 7061   7.596  -0.947   1.769 -0.6877 -0.3035  0.2924
   53MOL0     C 7062   7.481  -0.855   1.817  0.5509 -0.6953 -0.0733
   53MOL0     C 7063   7.435  -0.758   1.706 -0.3317  0.3331 -0.0637
   53MOL0     C 7064   7.298  -0.691   1.726 -0.6601 -0.0080 -0.7398
   53MOL0    Cl 7065   7.158  -0.804   1.718  0.1769 -0.0795 -0.5832
   53MOL0     C 7066   7.712  -0.894   2.496  0.0418  1.3498  0.4059
   53MOL0     C 7067   7.740  -0.815   2.609 -0.0282 -0.3205  0.1337
   53MOL0     O 7068   7.946  -0.531   2.585 -0.1433  0.2712  0.6881
   53MOL0     C 7069   8.015  -0.532   2.920  0.1226  0.6180 -0.0025
   53MOL0     C 7070   8.094  -0.475   3.018 -0.3651  0.5688 -0.1139
   53MOL0     N 7071   8.769  -0.144   3.316  0.5257 -0.3642 -0.3361
   53MOL0     N 7072   8.852  -0.048   3.283 -0.5358 -0.4630 -0.4136
   53MOL0     C 7073   8.420   0.384   3.967 -0.0312  0.2120  0.3685
   53MOL0     C 7074   8.303   0.338   4.020  0.9378  0.5138  0.6908
   53MOL0     C 7075   7.898   0.225   4.164  0.5446  0.3607  0.0466
   53MOL0     C 7076   7.837   0.108   4.210  0.0422  0.3205 -0.0840
   53MOL0     C 7077   7.724   0.118   4.288 -0.1522 -0.1177  0.1488
   53MOL0     C 7078   7.650   0.240   4.300  0.5242  0.6430  0.2828
   53MOL0     O 7079   7.538   0.247   4.383 -0.5938 -0.2510 -1.0078
   53MOL0     C 7080   7.427   0.329   4.350 -0.2200 -0.4356  1.1984
   53MOL0     C 7081   7.298   0.283   4.414 -0.2021 -0.2498 -1.0783
   53MOL0     C 7082   7.290   0.355   4.547  0.1046 -0.3164 -0.7014
   53MOL0     C 7083   7.161   0.298   4.624 -0.5679 -1.1464 -0.6441
   53MOL0     C 7084   7.036   0.358   4.570 -0.9381 -0.8927 -0.6370
   53MOL0     C 7085   6.941   0.417   4.527  0.0245 -0.8574 -0.3300
   53MOL0     C 7086   7.701   0.352   4.237  0.1636 -0.5922  0.1315
   53MOL0     C 7087   7.827   0.345   4.178 -0.3392 -0.1089  0.1767
   53MOL0     H 7088   8.087   0.538   3.846 -0.6767 -1.2536  1.7461
   53MOL0     H 7089   8.295   0.608   3.742 -0.3413  0.0394  0.0122
   53MOL0     H 7090   8.690   0.654   3.879 -0.8045  0.0522 -1.4995
   53MOL0     H 7091   8.610   0.570   4.004 -3.3461 -0.0025 -0.6389
   53MOL0     H 7092   8.846   0.496   3.974  1.0046  1.1142 -1.2381
   53MOL0     H 7093   8.736   0.358   3.950  0.3254  0.7700  1.3964
   53MOL0     H 7094   8.743   0.405   3.709 -0.2681 -3.9999 -0.5213
   53MOL0     H 7095   8.865   0.532   3.724  2.0996 -1.3163 -0.5407
   53MOL0     H 7096   9.027   0.361   3.817  0.6803 -0.0006 -1.0374
   53MOL0     H 7097   8.920   0.232   3.789  2.4348 -1.0147  1.7960
   53MOL0     H 7098   9.052   0.407   3.573  0.8948 -0.1377  0.0519
   53MOL0     H 7099   9.080   0.243   3.617  2.2787  2.2695  3.1541
   53MOL0     H 7100   8.846   0.183   3.541 -0.1728  0.7935  1.8994
   53MOL0     H 7101   8.818   0.363   3.508  0.8019  1.6929 -0.3533
   53MOL0     H 7102   8.996   0.364   3.354  3.1868 -1.6920  0.1054
   53MOL0     H 7103   9.033   0.195   3.387 -0.3705 -0.5707 -0.9791
   53MOL0     H 7104   8.932   0.195   3.171  0.5723  1.2968  0.6074
   53MOL0     H 7105   8.780   0.260   3.212  0.6144 -0.4410 -0.7412
   53MOL0     H 7106   8.598   0.136   3.368  1.6164  0.8452 -1.4359
   53MOL0     H 7107   8.538  -0.218   3.481 -3.6403  2.6961  3.2104
   53MOL0     H 7108   8.454  -0.065   3.438 -1.7874  0.3084 -0.8762
   53MOL0     H 7109   8.493  -0.298   3.264  0.4174  0.4405  0.0445
   53MOL0     H 7110   8.455  -0.137   3.197 -1.2239 -3.7897 -2.7213
   53MOL0     H 7111   8.241  -0.138   3.307 -1.9638 -2.5117  1.7923
   53MOL0     H 7112   8.291  -0.244   3.424 -3.1510 -0.8780 -0.4221
   53MOL0     H 7113   8.136  -0.318   3.240 -0.8463  1.9182 -1.7061
   53MOL0     H 7114   8.265  -0.432   3.270  1.3305 -0.3824 -2.4129
   53MOL0     H 7115   8.271  -0.255   2.845 -1.6629  1.4937 -0.5572
   53MOL0     H 7116   8.257  -0.300   2.608  0.9643 -0.6078 -0.9793
   53MOL0     H 7117   8.155  -0.426   2.534 -1.9698  2.6732 -1.0931
   53MOL0     H 7118   8.082  -0.275   2.568 -0.0220  0.6863 -1.9730
   53MOL0     H 7119   8.076  -0.812   2.575 -0.2549  2.2874 -2.4776
   53MOL0     H 7120   8.027  -0.958   2.371 -0.4106 -0.3445 -1.5974
   53MOL0     H 7121   7.900  -0.957   2.166  1.4900 -1.5252 -1.6287
   53MOL0     H 7122   7.926  -1.117   2.243  1.5342  1.1354 -0.5146
   53MOL0     H 7123   7.865  -1.123   2.009 -0.4876 -1.8382 -0.0905
   53MOL0     H 7124   7.729  -1.197   2.107 -0.3709  0.4384  2.2091
   53MOL0     H 7125   7.738  -0.904   1.995 -1.2075  1.5428 -1.3092
   53MOL0     H 7126   7.600  -0.979   2.072 -0.0796 -1.8329 -1.0215
   53MOL0     H 7127   7.718  -1.124   1.837 -1.9684 -2.1185  0.0396
   53MOL0     H 7128   7.551  -1.115   1.891 -0.6398  0.9424 -0.6408
   53MOL0     H 7129   7.569  -1.001   1.677  0.1059  2.9841 -2.0378
   53MOL0     H 7130   7.689  -0.892   1.751 -0.2052 -0.1891  2.7895
   53MOL0     H 7131   7.392  -0.916   1.838  0.0614 -0.6640 -1.8734
   53MOL0     H 7132   7.495  -0.788   1.903 -1.3962 -2.7450  1.9635
   53MOL0     H 7133   7.427  -0.826   1.620 -0.8181  1.5853 -1.0309
   53MOL0     H 7134   7.510  -0.678   1.700  0.4827 -0.2907  1.2020
   53MOL0     H 7135   7.294  -0.618   1.645  2.3261  1.1587  0.0210
   53MOL0     H 7136   7.300  -0.636   1.821 -0.2647 -0.0779 -0.7045
   53MOL0     H 7137   7.614  -0.930   2.469  0.0598  0.3444  1.5794
   53MOL0     H 7138   7.668  -0.777   2.681 -0.0627 -0.3214  0.0996
   53MOL0     H 7139   7.937  -0.604   2.943 -1.5649  3.0686  2.7081
   53MOL0     H 7140   8.082  -0.528   3.112 -0.9464 -0.0734 -0.5437
   53MOL0     H 7141   8.513   0.341   4.004  1.1863  2.4683  0.1082
   53MOL0     H 7142   8.305   0.253   4.087 -1.7738 -0.5576 -0.4414
   53MOL0     H 7143   7.881   0.009   4.195 -0.9217  0.0916 -1.5370
   53MOL0     H 7144   7.681   0.022   4.313 -0.0384  0.0107  0.8521
   53MOL0     H 7145   7.461   0.433   4.355  1.4546  0.0667 -6.7023
   53MOL0     H 7146   7.422   0.316   4.241  0.2520 -0.6459  1.1994
   53MOL0     H 7147   7.288   0.175   4.423 -5.4630  0.1376  3.2850
   53MOL0     H 7148   7.208   0.314   4.360 -2.6749 -2.7129  1.2964
   53MOL0     H 7149   7.302   0.463   4.548  3.7305 -0.5645  1.9817
   53MOL0     H 7150   7.386   0.333   4.596  0.7614  0.8416 -1.4224
   53MOL0     H 7151   7.172   0.330   4.728 -0.8278  1.8961 -1.4603
   53MOL0     H 7152   7.155   0.190   4.611 -1.4006 -1.4187  1.4506
   53MOL0     H 7153   6.850   0.462   4.495  0.2848 -0.7934 -0.9910
   53MOL0     H 7154   7.658   0.451   4.242 -0.0704 -0.5705 -1.6231
   53MOL0     H 7155   7.859   0.440   4.135 -0.8880 -0.1332 -0.2938
   54MOL0     O 7156   0.865  11.235   1.765 -0.1270  0.1365 -0.0414
   54MOL0     C 7157   0.893  11.178   1.656  0.0164  1.0393  0.3030
   54MOL0     O 7158   0.813  11.096   1.591  0.3176  1.2396  0.2081
   54MOL0     C 7159   0.691  11.066   1.644 -0.2689 -0.0788  0.6230
   54MOL0     C 7160   0.667  11.021   1.770 -0.9440 -0.1942  0.0233
   54MOL0     C 7161   0.533  11.006   1.813  0.3944 -0.5543  0.2947
   54MOL0     C 7162   0.419  11.033   1.732 -0.4166  0.5906  0.3692
   54MOL0     O 7163   0.290  11.008   1.765 -0.3414 -0.0674 -0.1573
   54MOL0     C 7164   0.269  11.011   1.906  0.7610  0.5748 -0.1689
   54MOL0     C 7165   0.125  11.046   1.940  0.9390 -0.5243  0.6179
   54MOL0     C 7166   0.023  10.943   1.878  0.1841 -0.1794 -0.0866
   54MOL0     C 7167  -0.124  10.986   1.904  0.4591  0.1223  0.6362
   54MOL0     C 7168  -0.220  10.860   1.879  0.2861 -0.4724  0.2322
   54MOL0     C 7169  -0.366  10.877   1.930  0.2548  0.1853 -0.0057
   54MOL0     C 7170  -0.466  10.751   1.898 -0.6854 -0.8008  0.8821
   54MOL0     C 7171  -0.420  10.620   1.956 -0.7944 -0.7750  0.3539
   54MOL0     N 7172  -0.530  10.542   2.009  0.1799  0.6357 -0.5245
   54MOL0     C 7173  -0.628  10.485   1.934 -0.2778  0.7214  0.0284
   54MOL0     C 7174  -0.713  10.430   2.020  0.2532 -1.7717 -0.3086
   54MOL0     C 7175  -0.829  10.349   2.000 -0.5891 -0.1497  0.7061
   54MOL0     C 7176  -0.942  10.364   2.101  0.7540  0.0017 -0.5750
   54MOL0     C 7177  -1.008  10.503   2.101 -0.0729  0.9095  0.0013
   54MOL0     C 7178  -1.160  10.504   2.164 -1.2748 -0.1847 -0.1395
   54MOL0     O 7179  -1.260  10.469   2.073 -0.1002  0.1672 -0.0720
   54MOL0     C 7180  -1.392  10.485   2.112  0.6911  0.2310 -0.6537
   54MOL0     C 7181  -1.486  10.418   2.032  0.0117  0.1140  0.4099
   54MOL0     C 7182  -1.623  10.420   2.057  0.2554  0.8567 -1.2518
   54MOL0     C 7183  -1.714  10.327   1.972  0.3103 -0.3645 -0.4955
   54MOL0     C 7184  -1.665  10.494   2.174  1.0250  0.0126  0.0685
   54MOL0     C 7185  -1.803  10.492   2.224  0.1818  0.0231  0.2086
   54MOL0     O 7186  -1.853  10.608   2.272  0.2424 -0.1825 -0.4153
   54MOL0     C 7187  -1.988  10.617   2.294  0.8496 -0.4406  0.3051
   54MOL0     C 7188  -2.027  10.662   2.422  0.2028 -0.6036  0.0347
   54MOL0     C 7189  -2.164  10.673   2.456 -0.2445 -0.0561  0.3911
   54MOL0     C 7190  -2.264  10.655   2.357 -0.5317 -0.2410 -0.5294
   54MOL0     O 7191  -2.396  10.690   2.371  0.0605 -0.3761 -0.3073
   54MOL0     C 7192  -2.445  10.747   2.493 -0.8613 -0.7551 -0.3518
   54MOL0     C 7193  -2.603  10.752   2.515 -0.4423  0.2549 -0.1508
   54MOL0     C 7194  -2.669  10.616   2.552 -0.4761  0.9261 -0.2495
   54MOL0     C 7195  -2.692  10.532   2.413  0.1410 -0.1932  0.5982
   54MOL0     C 7196  -2.768  10.399   2.439 -0.2390 -0.2370  0.0865
   54MOL0     C 7197  -2.802  10.313   2.313  0.3422 -0.0019  0.1661
   54MOL0     C 7198  -2.883  10.185   2.353 -0.2721 -0.1878  0.6013
   54MOL0     C 7199  -3.029  10.191   2.339  0.6365 -0.7230 -0.0555
   54MOL0    Cl 7200  -3.089  10.333   2.441 -0.1614 -0.1281  0.5623
   54MOL0     C 7201  -2.230  10.596   2.230  0.5729  0.2047 -0.4445
   54MOL0     C 7202  -2.090  10.582   2.197  0.1353  0.2500 -0.0808
   54MOL0     O 7203  -1.877  10.393   2.200  0.2756 -0.0728 -0.3622
   54MOL0     C 7204  -1.574  10.567   2.248  0.1344 -0.3944  0.2869
   54MOL0     C 7205  -1.441  10.553   2.219 -0.2801 -0.5330  0.4068
   54MOL0     N 7206  -0.667  10.462   2.144  0.4341 -0.6101  0.4165
   54MOL0     N 7207  -0.558  10.535   2.144 -0.2413 -0.1336  0.6016
   54MOL0     C 7208   0.446  11.061   1.597 -0.1196 -0.7988  0.0865
   54MOL0     C 7209   0.575  11.086   1.559 -0.1531 -0.0462 -0.4748
   54MOL0     C 7210   1.013  11.236   1.582  0.3852 -0.0155  0.2976
   54MOL0     C 7211   1.078  11.349   1.626  0.1869  0.3286 -0.8232
   54MOL0     C 7212   1.166  11.418   1.539  0.0032 -0.7213 -0.4709
   54MOL0     C 7213   1.185  11.375   1.411  0.6361 -0.5583  1.2204
   54MOL0     O 7214   1.290  11.442   1.340 -0.6897 -0.1866  0.8827
   54MOL0     C 7215   1.359  11.375   1.231 -0.2643 -1.1004 -0.2051
   54MOL0     C 7216   1.452  11.473   1.161 -0.4030 -0.0080  0.1143
   54MOL0     C 7217   1.573  11.499   1.254  0.2599  0.9203 -0.4883
   54MOL0     C 7218   1.659  11.618   1.208  0.8490 -0.0031 -0.0355
   54MOL0     C 7219   1.774  11.631   1.301  0.4851 -0.0531 -0.5093
   54MOL0     C 7220   1.863  11.620   1.385  0.1936  0.1346 -0.6510
   54MOL0     C 7221   1.124  11.259   1.366 -0.2395 -0.5260  0.2809
   54MOL0     C 7222   1.041  11.189   1.449 -0.1299 -0.1431 -0.1804
   54MOL0     H 7223   0.760  11.020   1.826 -0.2975 -3.1616 -0.9109
   54MOL0     H 7224   0.512  10.973   1.914 -1.0205  0.9699  0.5454
   54MOL0     H 7225   0.292  10.911   1.946  0.0847  0.2867 -0.4749
   54MOL0     H 7226   0.342  11.079   1.949  1.8707 -1.0847  0.7075
   54MOL0     H 7227   0.117  11.048   2.049 -0.5105 -1.9104  0.5701
   54MOL0     H 7228   0.098  11.143   1.898 -0.2648 -1.4071 -0.7685
   54MOL0     H 7229   0.035  10.925   1.770 -1.8956 -1.5257 -0.1444
   54MOL0     H 7230   0.046  10.846   1.924  0.1803 -0.2180 -0.1652
   54MOL0     H 7231  -0.129  11.007   2.011  2.5557 -1.3335  1.0821
   54MOL0     H 7232  -0.153  11.073   1.844 -0.7741  0.3166  1.4717
   54MOL0     H 7233  -0.216  10.850   1.770  2.9631  0.0167  0.2067
   54MOL0     H 7234  -0.173  10.772   1.923  2.1643  0.7679  0.8327
   54MOL0     H 7235  -0.377  10.885   2.038 -0.0574  0.1764 -0.0348
   54MOL0     H 7236  -0.404  10.970   1.888 -0.1216 -0.3651 -0.9431
   54MOL0     H 7237  -0.567  10.761   1.939 -1.6988 -2.4342 -1.0065
   54MOL0     H 7238  -0.470  10.748   1.788  0.3556 -1.9294  0.8539
   54MOL0     H 7239  -0.339  10.635   2.028 -2.2548  0.0676  1.8844
   54MOL0     H 7240  -0.376  10.560   1.876 -1.3889 -1.0594  0.2380
   54MOL0     H 7241  -0.631  10.479   1.826  1.8847 -2.2017  0.0339
   54MOL0     H 7242  -0.864  10.368   1.898 -0.0588  0.3249  0.6093
   54MOL0     H 7243  -0.797  10.245   1.991 -1.8240 -0.5377  0.6644
   54MOL0     H 7244  -0.918  10.325   2.200  1.2102 -0.4552 -0.8637
   54MOL0     H 7245  -1.017  10.295   2.060  2.0392 -1.1878 -0.9652
   54MOL0     H 7246  -1.015  10.541   1.999 -0.2160  0.4107 -0.1766
   54MOL0     H 7247  -0.955  10.570   2.169 -0.8487  3.3904 -1.7126
   54MOL0     H 7248  -1.174  10.600   2.213  1.0574 -0.1995  0.7071
   54MOL0     H 7249  -1.160  10.422   2.237 -2.9555 -3.3006 -3.2742
   54MOL0     H 7250  -1.439  10.360   1.953  1.9444 -2.5664  3.2836
   54MOL0     H 7251  -1.647  10.274   1.904  1.7017  1.3611 -0.5256
   54MOL0     H 7252  -1.767  10.257   2.038 -1.2214  0.4448 -0.8348
   54MOL0     H 7253  -1.778  10.395   1.916 -0.9878 -2.0479 -1.1504
   54MOL0     H 7254  -1.957  10.702   2.495 -3.3293 -0.8623  3.9530
   54MOL0     H 7255  -2.191  10.715   2.552 -0.6247 -1.5639  0.9620
   54MOL0     H 7256  -2.405  10.683   2.573 -0.0722 -3.1126 -2.4998
   54MOL0     H 7257  -2.405  10.849   2.497 -0.9270 -0.7492  0.2390
   54MOL0     H 7258  -2.628  10.820   2.597 -2.8322 -0.8736  0.1521
   54MOL0     H 7259  -2.646  10.786   2.420  2.1365  1.0444 -1.1380
   54MOL0     H 7260  -2.765  10.633   2.601 -0.6202  2.4963 -1.0298
   54MOL0     H 7261  -2.603  10.560   2.620  0.0230  1.2202 -0.4831
   54MOL0     H 7262  -2.754  10.600   2.355  2.9031  1.8548 -0.1667
   54MOL0     H 7263  -2.601  10.525   2.352  0.6194 -1.6006  1.4220
   54MOL0     H 7264  -2.860  10.423   2.492 -0.6351  0.6089 -0.9505
   54MOL0     H 7265  -2.703  10.334   2.498  0.0838 -0.6825 -0.7367
   54MOL0     H 7266  -2.852  10.372   2.236 -1.5894 -2.0232 -0.2171
   54MOL0     H 7267  -2.703  10.278   2.282  1.6403  2.1571  1.5820
   54MOL0     H 7268  -2.844  10.164   2.453  0.8365 -1.4512 -0.0518
   54MOL0     H 7269  -2.845  10.105   2.288 -0.8498 -0.7539  0.9439
   54MOL0     H 7270  -3.072  10.099   2.379 -0.4968 -1.1711 -2.1459
   54MOL0     H 7271  -3.065  10.191   2.235  1.9232  2.4582 -0.6289
   54MOL0     H 7272  -2.307  10.579   2.155 -2.6138 -1.0566  2.8354
   54MOL0     H 7273  -2.073  10.562   2.091 -0.5645 -0.4151 -0.0746
   54MOL0     H 7274  -1.602  10.630   2.331  2.6012  1.4130 -0.1294
   54MOL0     H 7275  -1.372  10.616   2.275  0.0545 -0.4567 -0.0852
   54MOL0     H 7276   0.377  11.064   1.513  0.9036  2.4228 -0.7823
   54MOL0     H 7277   0.577  11.121   1.456  1.7530  1.1093 -0.0905
   54MOL0     H 7278   1.056  11.386   1.725  2.0044 -0.0647 -0.2293
   54MOL0     H 7279   1.212  11.510   1.572 -0.9637  0.1728 -1.5238
   54MOL0     H 7280   1.409  11.283   1.261  2.8703  0.2056 -0.9775
   54MOL0     H 7281   1.282  11.349   1.157 -1.1385 -2.1804  1.0532
   54MOL0     H 7282   1.415  11.576   1.152  0.7951  0.2859 -2.8310
   54MOL0     H 7283   1.483  11.435   1.063 -0.8634  0.7042 -0.3216
   54MOL0     H 7284   1.629  11.404   1.254  0.8351  1.1459 -3.7030
   54MOL0     H 7285   1.543  11.518   1.357 -1.0563 -1.1319 -0.4311
   54MOL0     H 7286   1.591  11.704   1.203  0.8019 -0.0936 -3.8792
   54MOL0     H 7287   1.704  11.599   1.110  2.2304  3.2839 -0.1832
   54MOL0     H 7288   1.933  11.634   1.465  0.8363  0.5509 -1.2736
   54MOL0     H 7289   1.122  11.229   1.262 -0.7208 -1.5110  0.5644
   54MOL0     H 7290   0.991  11.098   1.419 -2.5199  0.5432  1.4060
   55MOL0     O 7291   3.037   4.472   7.994  0.3418 -0.0124  0.0293
   55MOL0     C 7292   3.059   4.520   7.883 -0.3785 -0.4513  0.0157
   55MOL0     O 7293   2.965   4.542   7.787  0.0138 -0.2409 -0.2701
   55MOL0     C 7294   2.827   4.526   7.804  0.1072 -0.7704 -0.0898
   55MOL0     C 7295   2.761   4.428   7.885 -1.3610 -0.2047  0.0127
   55MOL0     C 7296   2.620   4.435   7.894  0.2670 -0.4532 -0.0602
   55MOL0     C 7297   2.541   4.519   7.818 -1.1095  0.3980  0.3365
   55MOL0     O 7298   2.401   4.537   7.829  0.0955 -0.1579 -0.1678
   55MOL0     C 7299   2.320   4.468   7.929 -0.1423 -0.8109 -0.9812
   55MOL0     C 7300   2.234   4.358   7.871 -0.3298 -0.4617  0.8963
   55MOL0     C 7301   2.152   4.261   7.946 -0.8713 -0.0839 -0.3258
   55MOL0     C 7302   2.011   4.318   7.971 -0.2226 -0.1422 -0.7021
   55MOL0     C 7303   1.995   4.444   8.065  0.5759  0.2158 -0.7106
   55MOL0     C 7304   2.033   4.411   8.206 -0.0701 -0.1275  0.4705
   55MOL0     C 7305   1.943   4.314   8.284 -0.0055 -0.0434  0.8532
   55MOL0     C 7306   1.974   4.164   8.272  0.0610  0.2895 -0.0112
   55MOL0     N 7307   2.110   4.121   8.295 -0.2638  0.0117 -0.2287
   55MOL0     C 7308   2.180   4.025   8.232 -0.7446  0.4957  0.4515
   55MOL0     C 7309   2.311   4.049   8.263 -0.2174  0.1366  1.3541
   55MOL0     C 7310   2.422   3.960   8.207 -0.3315 -0.4711 -0.3922
   55MOL0     C 7311   2.564   3.998   8.259 -0.6822 -0.4597  0.3274
   55MOL0     C 7312   2.643   4.103   8.172  0.1810 -0.1571 -0.7446
   55MOL0     C 7313   2.773   4.146   8.233  0.7910  0.2889  0.1122
   55MOL0     O 7314   2.862   4.036   8.228  0.4610 -0.9327 -0.0746
   55MOL0     C 7315   2.993   4.054   8.194 -0.8379  0.0327 -0.0144
   55MOL0     C 7316   3.057   3.934   8.197 -0.0603 -0.4740 -0.4475
   55MOL0     C 7317   3.195   3.929   8.166 -0.3004 -0.5059 -0.7615
   55MOL0     C 7318   3.255   3.791   8.158 -0.4742  0.2772 -1.0363
   55MOL0     C 7319   3.268   4.046   8.122 -0.7452  0.3898 -0.1437
   55MOL0     C 7320   3.412   4.045   8.097  0.1185 -0.2998  0.3878
   55MOL0     O 7321   3.461   4.144   8.017  0.2370  0.0636  0.4919
   55MOL0     C 7322   3.579   4.200   8.065  0.4888  0.2361  0.4854
   55MOL0     C 7323   3.702   4.183   8.003  0.2910  0.1431  0.5710
   55MOL0     C 7324   3.826   4.234   8.050 -0.8108  0.3937 -0.3001
   55MOL0     C 7325   3.824   4.316   8.158  0.2539 -0.2924  0.1351
   55MOL0     O 7326   3.928   4.376   8.211 -0.2776  0.1150 -0.1185
   55MOL0     C 7327   4.065   4.377   8.150  0.0184  1.2323 -0.8142
   55MOL0     C 7328   4.072   4.479   8.036 -0.4132 -0.7546  0.0394
   55MOL0     C 7329   4.197   4.568   8.053  0.3917  0.5305 -0.8478
   55MOL0     C 7330   4.194   4.660   8.180 -0.2944 -0.1582  0.1755
   55MOL0     C 7331   4.326   4.732   8.189 -0.1304  0.6439  0.0113
   55MOL0     C 7332   4.452   4.643   8.214  0.4220  0.2299  0.4961
   55MOL0     C 7333   4.569   4.732   8.247  0.1164 -0.2460 -0.2512
   55MOL0     C 7334   4.691   4.632   8.271  0.5874  1.0535 -0.5127
   55MOL0    Cl 7335   4.758   4.552   8.115  0.2060 -0.3031 -0.1020
   55MOL0     C 7336   3.701   4.330   8.223 -0.9407  1.1025 -0.5490
   55MOL0     C 7337   3.581   4.276   8.179  0.3308 -0.3697  0.6315
   55MOL0     O 7338   3.480   3.969   8.166 -0.4618 -0.0011  0.4818
   55MOL0     C 7339   3.198   4.164   8.111  0.6799  0.0652 -0.1682
   55MOL0     C 7340   3.058   4.175   8.148 -0.4411 -0.7654  0.1244
   55MOL0     N 7341   2.317   4.148   8.353 -0.4611 -0.6372 -0.1134
   55MOL0     N 7342   2.200   4.190   8.370  0.0486  0.5698 -0.0600
   55MOL0     C 7343   2.605   4.604   7.730  0.2410 -0.3465 -0.2118
   55MOL0     C 7344   2.743   4.609   7.723  0.7556  0.7274 -0.5156
   55MOL0     C 7345   3.196   4.547   7.849  0.2040  0.3739  0.4807
   55MOL0     C 7346   3.229   4.628   7.739  0.0196  0.0712  0.5868
   55MOL0     C 7347   3.366   4.656   7.709 -0.1427  0.2341 -0.0171
   55MOL0     C 7348   3.473   4.624   7.796  0.0552  0.7945  0.4163
   55MOL0     O 7349   3.608   4.646   7.769 -0.1473 -0.3603  0.2381
   55MOL0     C 7350   3.653   4.705   7.645 -0.7242 -0.4609 -0.2918
   55MOL0     C 7351   3.803   4.732   7.634 -0.2419 -0.3302 -0.1729
   55MOL0     C 7352   3.857   4.820   7.752  0.3899 -0.3672 -0.2714
   55MOL0     C 7353   3.966   4.924   7.719  0.9642  0.1698 -0.1148
   55MOL0     C 7354   4.090   4.862   7.660  0.5070  0.8720 -0.1216
   55MOL0     C 7355   4.186   4.810   7.608 -0.0864  0.0974  0.0296
   55MOL0     C 7356   3.447   4.549   7.910  0.1399 -0.0125  0.5836
   55MOL0     C 7357   3.310   4.518   7.934 -0.4267 -0.4475 -0.0164
   55MOL0     H 7358   2.813   4.359   7.952 -0.7119  1.4771  1.3000
   55MOL0     H 7359   2.575   4.356   7.953 -2.3346 -0.9958 -2.5262
   55MOL0     H 7360   2.385   4.436   8.011 -0.3253  0.3025 -0.3780
   55MOL0     H 7361   2.253   4.538   7.981  0.2405  1.4425 -3.3211
   55MOL0     H 7362   2.173   4.412   7.798  1.7510  1.1762  0.2575
   55MOL0     H 7363   2.306   4.296   7.816 -1.5276  0.0080 -1.3362
   55MOL0     H 7364   2.137   4.175   7.879  0.1618  2.5916 -4.4057
   55MOL0     H 7365   2.197   4.232   8.041  3.3487  1.0498 -1.7730
   55MOL0     H 7366   1.958   4.352   7.882  0.2140  2.9793  0.1114
   55MOL0     H 7367   1.952   4.237   8.015  0.8885 -0.3977  0.3911
   55MOL0     H 7368   2.058   4.528   8.036  0.5214  0.4798 -0.0723
   55MOL0     H 7369   1.889   4.472   8.053 -0.5395 -3.7327 -1.6897
   55MOL0     H 7370   2.138   4.380   8.216  0.2730  1.0027  0.4832
   55MOL0     H 7371   2.016   4.505   8.258 -3.2274  0.6476 -1.6932
   55MOL0     H 7372   1.945   4.333   8.392  1.4677 -1.2843  1.0838
   55MOL0     H 7373   1.839   4.326   8.253 -0.4057  0.6606  2.3673
   55MOL0     H 7374   1.945   4.123   8.175  3.9331 -1.6385 -0.5888
   55MOL0     H 7375   1.922   4.110   8.351  3.1985 -0.8907  1.3986
   55MOL0     H 7376   2.150   3.942   8.169  1.0301 -0.2766  0.5662
   55MOL0     H 7377   2.403   3.856   8.235  2.7062 -1.4924 -1.7385
   55MOL0     H 7378   2.419   3.961   8.098 -2.5325 -0.5034 -0.3882
   55MOL0     H 7379   2.624   3.907   8.264  0.2310  0.2051  2.3965
   55MOL0     H 7380   2.561   4.030   8.363 -0.1211  0.9553 -0.0661
   55MOL0     H 7381   2.579   4.192   8.169  0.0780 -0.0513  1.9248
   55MOL0     H 7382   2.657   4.054   8.076  1.9270 -0.7796 -0.2064
   55MOL0     H 7383   2.768   4.199   8.328  1.7088  0.5973  0.0074
   55MOL0     H 7384   2.810   4.219   8.160  1.6407  0.0827  0.3239
   55MOL0     H 7385   2.998   3.846   8.222 -2.0872  0.9491  0.1088
   55MOL0     H 7386   3.180   3.715   8.183  0.8735 -1.2528 -1.5508
   55MOL0     H 7387   3.290   3.766   8.058  0.6800 -3.8706  0.2071
   55MOL0     H 7388   3.340   3.784   8.226 -1.7257  0.0048  0.5692
   55MOL0     H 7389   3.702   4.116   7.917  0.3221  0.7850  0.0623
   55MOL0     H 7390   3.912   4.223   7.985 -1.7539  1.3725 -1.7833
   55MOL0     H 7391   4.136   4.396   8.231  0.9983 -1.7520 -0.8793
   55MOL0     H 7392   4.090   4.275   8.121 -1.0037  0.2413  1.5561
   55MOL0     H 7393   4.073   4.437   7.935  0.5522 -0.2888 -0.1578
   55MOL0     H 7394   3.983   4.542   8.040  0.7390  1.0600 -1.4842
   55MOL0     H 7395   4.204   4.631   7.964 -1.6056 -0.5090 -1.8057
   55MOL0     H 7396   4.280   4.497   8.051 -0.7000 -0.7565 -2.3555
   55MOL0     H 7397   4.111   4.729   8.162  0.5817  1.1300  0.8823
   55MOL0     H 7398   4.180   4.602   8.271 -0.4442  2.6443  2.0528
   55MOL0     H 7399   4.322   4.802   8.273 -1.1090  1.3162 -0.5740
   55MOL0     H 7400   4.348   4.792   8.101 -0.7084  0.6468 -0.1329
   55MOL0     H 7401   4.423   4.584   8.301  0.2884  1.1233  1.0608
   55MOL0     H 7402   4.470   4.578   8.127 -1.2145 -1.2025  1.1726
   55MOL0     H 7403   4.544   4.775   8.345 -2.9182 -0.5979 -0.7682
   55MOL0     H 7404   4.602   4.813   8.181  1.5135  1.8576  2.7730
   55MOL0     H 7405   4.657   4.557   8.344  2.3176 -0.2532 -0.9808
   55MOL0     H 7406   4.775   4.685   8.317  0.5827 -0.5566  1.5419
   55MOL0     H 7407   3.699   4.384   8.318  1.4205  1.0044 -0.3732
   55MOL0     H 7408   3.485   4.288   8.229  0.4221 -1.2968  1.0392
   55MOL0     H 7409   3.247   4.257   8.085 -0.0219  1.0963  1.9757
   55MOL0     H 7410   3.014   4.274   8.145 -0.5337 -0.7978  0.3866
   55MOL0     H 7411   2.546   4.682   7.682 -2.5489 -1.5620  1.0247
   55MOL0     H 7412   2.785   4.692   7.667  0.6755  0.8496 -0.3954
   55MOL0     H 7413   3.157   4.661   7.665  2.1505 -0.2004 -1.7662
   55MOL0     H 7414   3.385   4.713   7.619 -0.0172  0.8238  0.3772
   55MOL0     H 7415   3.617   4.643   7.563  1.8359 -1.2090 -0.9447
   55MOL0     H 7416   3.604   4.802   7.636  1.3322  0.5113 -1.8805
   55MOL0     H 7417   3.830   4.770   7.536  0.8152 -0.8481 -0.0988
   55MOL0     H 7418   3.843   4.631   7.647 -0.5590 -0.1446  3.4657
   55MOL0     H 7419   3.887   4.754   7.834 -0.4456 -0.8423 -0.3380
   55MOL0     H 7420   3.779   4.889   7.786  0.2327 -0.3590 -0.6510
   55MOL0     H 7421   4.005   4.974   7.808  4.2144 -0.3848 -1.1152
   55MOL0     H 7422   3.921   4.995   7.649 -3.7519 -1.8637  0.4407
   55MOL0     H 7423   4.267   4.761   7.556 -1.3149 -2.7449  0.5840
   55MOL0     H 7424   3.524   4.510   7.976  1.4887 -2.9856 -2.4290
   55MOL0     H 7425   3.286   4.469   8.027 -1.8971  0.3182  0.0348
   56MOL0     O 7426   3.315   2.267  10.517 -0.1411  0.7646  0.7547
   56MOL0     C 7427   3.397   2.354  10.542 -0.4624 -0.5102 -0.5707
   56MOL0     O 7428   3.371   2.487  10.562  0.0644  0.2157 -0.2555
   56MOL0     C 7429   3.240   2.532  10.550 -0.2910 -0.3733 -0.0614
   56MOL0     C 7430   3.205   2.632  10.644  0.1659  0.0447  0.3995
   56MOL0     C 7431   3.071   2.683  10.648  0.5294 -0.7925  0.5124
   56MOL0     C 7432   2.974   2.636  10.563 -0.3390 -0.4219  0.7839
   56MOL0     O 7433   2.841   2.677  10.558  0.1761  0.7029 -0.4912
   56MOL0     C 7434   2.806   2.797  10.628 -0.0520 -0.1415  0.7300
   56MOL0     C 7435   2.651   2.795  10.645  0.0045  0.4297 -0.2547
   56MOL0     C 7436   2.582   2.862  10.527  0.2860  0.9320 -0.0075
   56MOL0     C 7437   2.430   2.852  10.541  0.1195 -0.2318  0.3082
   56MOL0     C 7438   2.344   2.915  10.435  0.9943 -0.0070 -0.8623
   56MOL0     C 7439   2.193   2.930  10.472 -0.2727 -0.3580 -1.0772
   56MOL0     C 7440   2.118   3.000  10.358 -0.4415  0.1559  0.6297
   56MOL0     C 7441   1.988   3.057  10.409  0.1303  0.1474  0.6718
   56MOL0     N 7442   1.879   2.959  10.409 -0.2007 -0.3262 -0.6527
   56MOL0     C 7443   1.842   2.883  10.301 -0.0466  0.2131 -0.8523
   56MOL0     C 7444   1.757   2.787  10.356 -0.3907 -1.5008 -0.2613
   56MOL0     C 7445   1.665   2.699  10.285  0.3486 -0.2913  0.3205
   56MOL0     C 7446   1.543   2.661  10.366 -0.4179  0.0205 -0.1746
   56MOL0     C 7447   1.460   2.556  10.287 -1.2371 -0.4678 -0.0506
   56MOL0     C 7448   1.329   2.522  10.339  0.2857 -0.6341  1.0516
   56MOL0     O 7449   1.231   2.626  10.306 -0.0448 -0.0910 -0.0510
   56MOL0     C 7450   1.100   2.608  10.341 -0.4581 -0.1584  0.7749
   56MOL0     C 7451   1.060   2.502  10.420 -0.1341 -0.0225 -0.2126
   56MOL0     C 7452   0.929   2.475  10.430  0.1042 -0.2667  0.0514
   56MOL0     C 7453   0.896   2.362  10.526 -0.0425 -0.4154  0.3513
   56MOL0     C 7454   0.838   2.543  10.352  0.6620 -0.0629 -0.2602
   56MOL0     C 7455   0.690   2.517  10.335  0.5554  0.6289 -0.0307
   56MOL0     O 7456   0.612   2.627  10.307  0.4494 -0.4628 -0.0556
   56MOL0     C 7457   0.488   2.602  10.250 -0.8289 -1.1412  0.7457
   56MOL0     C 7458   0.366   2.616  10.319  1.0119 -0.0909 -0.4102
   56MOL0     C 7459   0.246   2.593  10.249 -0.1540  0.0877 -0.1183
   56MOL0     C 7460   0.241   2.542  10.122 -1.4127 -0.5233  0.1000
   56MOL0     O 7461   0.115   2.517  10.075 -0.0941  0.1213 -0.1331
   56MOL0     C 7462   0.109   2.462   9.945 -0.6380  0.9198  0.7604
   56MOL0     C 7463   0.133   2.311   9.943 -1.0256 -0.2027  0.6409
   56MOL0     C 7464   0.106   2.272   9.797 -0.9673  0.7384 -0.3297
   56MOL0     C 7465   0.122   2.118   9.771 -0.5419  0.7568  0.4479
   56MOL0     C 7466   0.030   2.020   9.840 -0.5248 -0.0346 -0.0228
   56MOL0     C 7467  -0.113   2.049   9.778  0.9222 -0.0330  0.4427
   56MOL0     C 7468  -0.220   1.937   9.806 -0.2667  0.1419 -0.3159
   56MOL0     C 7469  -0.364   2.001   9.800  0.0816  0.0711 -0.2856
   56MOL0    Cl 7470  -0.368   2.078   9.633 -0.0835 -0.4178 -0.8386
   56MOL0     C 7471   0.366   2.535  10.061 -0.3520  0.9828  0.1591
   56MOL0     C 7472   0.487   2.564  10.113  0.1299  0.6597  0.1902
   56MOL0     O 7473   0.656   2.399  10.336  0.5803 -0.0618 -0.1344
   56MOL0     C 7474   0.880   2.651  10.276 -0.8283 -0.1569  0.0487
   56MOL0     C 7475   1.013   2.685  10.267  0.8474  0.2746 -0.8389
   56MOL0     N 7476   1.763   2.803  10.491 -0.1600 -0.0050 -0.2025
   56MOL0     N 7477   1.835   2.905  10.522 -0.3546  0.5914 -0.3737
   56MOL0     C 7478   3.009   2.535  10.469  1.3054  1.1086 -0.7245
   56MOL0     C 7479   3.139   2.490  10.461 -0.4637 -0.0318 -0.1154
   56MOL0     C 7480   3.540   2.312  10.534 -0.4277  0.3457  0.1317
   56MOL0     C 7481   3.651   2.388  10.581 -0.4771 -0.1555  0.9263
   56MOL0     C 7482   3.783   2.352  10.549  0.0272 -0.8035 -0.7900
   56MOL0     C 7483   3.800   2.233  10.479 -0.2377  0.3172  0.0277
   56MOL0     O 7484   3.926   2.196  10.443  0.5480  0.0946 -0.1525
   56MOL0     C 7485   3.945   2.239  10.308  0.1654 -0.3283  0.1748
   56MOL0     C 7486   4.104   2.246  10.284 -0.1403  0.2856  1.3084
   56MOL0     C 7487   4.163   2.354  10.377 -0.0940  0.0690  0.1156
   56MOL0     C 7488   4.152   2.494  10.313 -0.1312 -0.0135 -0.3592
   56MOL0     C 7489   4.210   2.597  10.397  0.0101 -0.0433  0.0792
   56MOL0     C 7490   4.263   2.670  10.476  0.4896  0.6050 -0.0563
   56MOL0     C 7491   3.694   2.148  10.448 -0.7203  0.2349 -0.7565
   56MOL0     C 7492   3.565   2.191  10.480  0.1327  0.6848  0.5606
   56MOL0     H 7493   3.274   2.667  10.720  0.3307  0.1036  0.2209
   56MOL0     H 7494   3.053   2.759  10.724 -1.7255  0.2394 -0.9414
   56MOL0     H 7495   2.849   2.795  10.729 -2.1272 -0.0542  1.6892
   56MOL0     H 7496   2.829   2.888  10.573  0.5762 -1.2691 -0.9526
   56MOL0     H 7497   2.614   2.694  10.669  2.9734 -0.5342  0.7678
   56MOL0     H 7498   2.624   2.854  10.733  0.8268  2.1756 -1.1234
   56MOL0     H 7499   2.611   2.968  10.525 -2.2874  1.7305  1.0454
   56MOL0     H 7500   2.611   2.815  10.433 -1.2820  1.9313 -1.0332
   56MOL0     H 7501   2.406   2.746  10.555  3.6357 -1.5643 -2.3153
   56MOL0     H 7502   2.406   2.899  10.637 -2.4467 -0.5828 -0.0767
   56MOL0     H 7503   2.384   3.017  10.431  0.1486  0.4066  0.6332
   56MOL0     H 7504   2.357   2.866  10.338  1.6653 -1.4367 -0.0819
   56MOL0     H 7505   2.163   2.826  10.486  4.5250 -2.2123 -2.4467
   56MOL0     H 7506   2.173   2.983  10.566 -2.6699 -1.0787 -1.1205
   56MOL0     H 7507   2.183   3.077  10.315 -0.0482 -0.0668  0.8188
   56MOL0     H 7508   2.106   2.933  10.273  1.0336  1.1052 -0.3690
   56MOL0     H 7509   1.961   3.146  10.352  3.3683  1.9670  1.7236
   56MOL0     H 7510   1.993   3.098  10.511  1.2459  1.1397  0.2310
   56MOL0     H 7511   1.865   2.897  10.196 -0.1461  0.5688 -0.8255
   56MOL0     H 7512   1.625   2.745  10.194  2.8299  4.2336  1.2485
   56MOL0     H 7513   1.725   2.610  10.264 -0.0772 -0.5252  0.0707
   56MOL0     H 7514   1.479   2.750  10.374 -1.0354 -0.3963 -0.4147
   56MOL0     H 7515   1.561   2.629  10.469  2.9948 -0.1038 -0.6948
   56MOL0     H 7516   1.517   2.462  10.289 -0.0668  0.2246  0.6715
   56MOL0     H 7517   1.447   2.595  10.185  0.5537  0.5951  0.0839
   56MOL0     H 7518   1.340   2.495  10.445 -1.1183 -2.3667  0.7958
   56MOL0     H 7519   1.275   2.441  10.291 -2.3158  2.0632 -0.9694
   56MOL0     H 7520   1.131   2.445  10.480  0.1979 -0.8669 -1.3618
   56MOL0     H 7521   0.896   2.265  10.475  1.0773  0.0433 -0.5601
   56MOL0     H 7522   0.972   2.350  10.605  1.6405  4.0079 -0.3099
   56MOL0     H 7523   0.800   2.385  10.572  1.0460  1.8612  1.6820
   56MOL0     H 7524   0.373   2.641  10.424  0.1842 -2.2644  0.2205
   56MOL0     H 7525   0.151   2.600  10.300  0.9896  0.3739  2.0957
   56MOL0     H 7526   0.015   2.483   9.894  0.2183 -1.3657 -1.9793
   56MOL0     H 7527   0.178   2.507   9.873  0.3251 -2.5114 -0.6145
   56MOL0     H 7528   0.232   2.286   9.980 -0.9194  2.4571  2.4595
   56MOL0     H 7529   0.058   2.264  10.007  0.1881 -2.1007  0.7233
   56MOL0     H 7530   0.188   2.322   9.744  0.6394  0.5585  1.8331
   56MOL0     H 7531   0.014   2.306   9.749  0.6308  1.8950 -2.8107
   56MOL0     H 7532   0.116   2.101   9.663 -1.9868  0.8778  0.4781
   56MOL0     H 7533   0.222   2.091   9.804 -1.5996 -3.7535  0.6305
   56MOL0     H 7534   0.037   2.030   9.949 -2.4041  4.1813 -0.0764
   56MOL0     H 7535   0.052   1.921   9.800 -0.2043  0.6250 -1.5408
   56MOL0     H 7536  -0.152   2.139   9.826  1.2328  0.6567 -0.5704
   56MOL0     H 7537  -0.103   2.068   9.671 -0.9739 -1.0087  0.0314
   56MOL0     H 7538  -0.198   1.896   9.905 -2.0456 -2.1850 -0.7881
   56MOL0     H 7539  -0.203   1.862   9.728  1.6806  1.0364 -0.8161
   56MOL0     H 7540  -0.359   2.070   9.885  2.8474 -2.8871  2.2015
   56MOL0     H 7541  -0.456   1.943   9.813  0.1826 -0.5525 -2.1477
   56MOL0     H 7542   0.367   2.505   9.956  0.9715 -1.1313  0.7064
   56MOL0     H 7543   0.572   2.557  10.047 -0.8392 -0.4392 -1.0090
   56MOL0     H 7544   0.813   2.707  10.211 -0.2638 -1.0383 -1.3339
   56MOL0     H 7545   1.039   2.783  10.229  0.3573  0.3548 -0.9824
   56MOL0     H 7546   2.938   2.481  10.407  0.4995 -0.2079  1.2520
   56MOL0     H 7547   3.163   2.407  10.394 -1.4041  1.2702 -2.1543
   56MOL0     H 7548   3.637   2.480  10.637  3.4080  0.9489  0.3791
   56MOL0     H 7549   3.863   2.424  10.568 -1.8318  1.1627 -0.0367
   56MOL0     H 7550   3.906   2.167  10.235 -2.4318  1.6523 -0.5705
   56MOL0     H 7551   3.899   2.336  10.287 -1.4271 -0.7208  1.5853
   56MOL0     H 7552   4.124   2.267  10.179  0.3325 -0.4468  1.2447
   56MOL0     H 7553   4.139   2.148  10.317 -2.0314  0.3327  3.8086
   56MOL0     H 7554   4.265   2.326  10.405  0.2361  1.4004  0.2785
   56MOL0     H 7555   4.104   2.352  10.469 -1.1432 -2.4391 -0.4993
   56MOL0     H 7556   4.046   2.518  10.302 -1.5617 -4.1190  2.1636
   56MOL0     H 7557   4.201   2.496  10.215  0.3916 -0.8243 -0.1207
   56MOL0     H 7558   4.325   2.727  10.542 -1.2007 -0.4751  2.6204
   56MOL0     H 7559   3.710   2.049  10.409 -1.1471  0.3241 -1.1717
   56MOL0     H 7560   3.486   2.119  10.462  1.2355  0.1232 -2.6557
   57MOL0     O 7561   2.840   3.609   2.276  0.7027  0.0968  0.8742
   57MOL0     C 7562   2.840   3.498   2.219 -0.6289 -0.1494  0.1538
   57MOL0     O 7563   2.766   3.389   2.266  0.2657  0.1487  0.1753
   57MOL0     C 7564   2.707   3.404   2.383 -1.1694  0.0944 -0.2746
   57MOL0     C 7565   2.758   3.343   2.493  0.2401  0.0895 -0.4743
   57MOL0     C 7566   2.694   3.338   2.620 -0.3471 -0.0424 -0.7041
   57MOL0     C 7567   2.569   3.393   2.635 -0.2685 -0.7219  0.4180
   57MOL0     O 7568   2.508   3.405   2.764  0.5955 -0.2975  1.1311
   57MOL0     C 7569   2.501   3.289   2.837 -0.1706 -0.3852  0.1807
   57MOL0     C 7570   2.384   3.303   2.940  0.1101 -0.1249  0.3287
   57MOL0     C 7571   2.246   3.337   2.882 -0.4807  0.2769 -0.7743
   57MOL0     C 7572   2.140   3.370   2.983  0.6693 -0.5046 -0.6415
   57MOL0     C 7573   2.095   3.237   3.054  0.8915 -0.3681  0.2347
   57MOL0     C 7574   2.009   3.257   3.179  0.2252 -0.3831 -0.0764
   57MOL0     C 7575   2.090   3.329   3.283  1.1629  0.1108  0.2940
   57MOL0     C 7576   2.028   3.335   3.427  0.1521 -0.0200 -0.0813
   57MOL0     N 7577   1.900   3.403   3.435  0.2044  0.0660  0.4887
   57MOL0     C 7578   1.851   3.433   3.558 -0.8331 -0.4941 -0.2605
   57MOL0     C 7579   1.740   3.505   3.528  0.2210 -0.2842 -0.8605
   57MOL0     C 7580   1.654   3.574   3.628 -0.2449  0.6068 -0.6486
   57MOL0     C 7581   1.544   3.483   3.687 -0.0793 -0.0897  0.4225
   57MOL0     C 7582   1.424   3.451   3.596  0.6087  0.6924  0.4583
   57MOL0     C 7583   1.329   3.340   3.644  0.4074  0.0963  0.5419
   57MOL0     O 7584   1.267   3.383   3.768 -0.1609  0.1163 -0.3487
   57MOL0     C 7585   1.206   3.290   3.844  0.7779 -0.0239 -0.0256
   57MOL0     C 7586   1.197   3.152   3.807  0.4822  0.5819  0.5946
   57MOL0     C 7587   1.135   3.062   3.887 -0.0308 -0.0223 -0.5011
   57MOL0     C 7588   1.138   2.918   3.844  0.9138 -0.2762  0.0138
   57MOL0     C 7589   1.093   3.095   4.021  0.8416  0.4002  0.1177
   57MOL0     C 7590   1.046   3.000   4.130 -0.3928  0.2532  0.3644
   57MOL0     O 7591   1.018   3.058   4.249 -0.2096 -0.2284 -1.0037
   57MOL0     C 7592   0.932   2.989   4.346 -0.8719 -0.6921  0.4238
   57MOL0     C 7593   0.966   3.002   4.479 -0.9647 -0.2500 -0.1881
   57MOL0     C 7594   0.903   2.926   4.578  0.7306 -0.9646 -0.1068
   57MOL0     C 7595   0.795   2.848   4.545  0.1746 -0.3933 -0.2494
   57MOL0     O 7596   0.715   2.781   4.642  0.1400  0.1263  0.7614
   57MOL0     C 7597   0.733   2.806   4.780 -1.1596 -0.2118  0.8748
   57MOL0     C 7598   0.624   2.739   4.865  0.1527  0.5773 -0.1915
   57MOL0     C 7599   0.514   2.838   4.884  0.0040  0.3079 -0.4420
   57MOL0     C 7600   0.393   2.777   4.957 -0.1202  0.3949 -0.9494
   57MOL0     C 7601   0.286   2.734   4.864  0.2997  0.7451 -0.6174
   57MOL0     C 7602   0.155   2.702   4.942 -0.2481 -0.2831  0.6229
   57MOL0     C 7603   0.040   2.653   4.843  0.2707 -0.1384 -0.0212
   57MOL0     C 7604  -0.103   2.637   4.904 -0.5160  0.1446 -0.7423
   57MOL0    Cl 7605  -0.102   2.479   5.000  0.1150  0.1658  0.5587
   57MOL0     C 7606   0.749   2.841   4.409  0.1049  0.5713 -0.4427
   57MOL0     C 7607   0.813   2.920   4.317 -0.3395  0.2850  1.3415
   57MOL0     O 7608   1.038   2.880   4.108 -0.4490  0.0168  0.3382
   57MOL0     C 7609   1.098   3.235   4.051 -1.3064 -0.0816 -0.2484
   57MOL0     C 7610   1.150   3.332   3.965 -0.8920 -0.2487  0.4872
   57MOL0     N 7611   1.726   3.511   3.395  1.3980  0.5788  0.2160
   57MOL0     N 7612   1.823   3.456   3.331  0.6624 -0.2789 -0.0269
   57MOL0     C 7613   2.511   3.459   2.527  0.0624  0.4978  0.5305
   57MOL0     C 7614   2.577   3.457   2.403 -0.4514  0.3693 -0.2854
   57MOL0     C 7615   2.937   3.475   2.099 -0.0684  0.6542 -0.3983
   57MOL0     C 7616   2.920   3.366   2.018 -1.0229  0.5417  0.1471
   57MOL0     C 7617   3.010   3.348   1.913  0.4325  0.5171 -0.1504
   57MOL0     C 7618   3.102   3.439   1.874  0.0512 -0.1253  0.0532
   57MOL0     O 7619   3.197   3.400   1.779  0.6859 -0.2177  0.1260
   57MOL0     C 7620   3.289   3.510   1.733 -0.2702  0.3105 -0.1410
   57MOL0     C 7621   3.376   3.460   1.623 -0.8294 -0.6571  0.4542
   57MOL0     C 7622   3.435   3.324   1.644  0.7702 -1.1457 -0.0035
   57MOL0     C 7623   3.527   3.302   1.766 -0.0541  0.3974  0.3419
   57MOL0     C 7624   3.654   3.383   1.763  0.6995  1.1725 -0.4028
   57MOL0     C 7625   3.748   3.456   1.756  0.4180 -0.1293 -0.2804
   57MOL0     C 7626   3.114   3.557   1.948  0.3346 -0.7280  0.1031
   57MOL0     C 7627   3.029   3.576   2.057  0.3459 -0.2173 -0.2663
   57MOL0     H 7628   2.855   3.296   2.480  0.2478 -0.6683  1.8067
   57MOL0     H 7629   2.739   3.296   2.709 -2.6405  0.9432  1.0353
   57MOL0     H 7630   2.474   3.209   2.767 -2.2281  0.3842  0.0231
   57MOL0     H 7631   2.598   3.267   2.884  0.5272 -0.2484 -1.1453
   57MOL0     H 7632   2.370   3.209   2.994  0.6861  0.9792  2.4682
   57MOL0     H 7633   2.411   3.375   3.017 -1.1841  1.6305 -0.7829
   57MOL0     H 7634   2.256   3.411   2.802 -1.1350 -0.1056 -1.2226
   57MOL0     H 7635   2.206   3.247   2.834 -3.2122  1.2038 -0.4634
   57MOL0     H 7636   2.173   3.449   3.051  2.7713  0.0350 -2.1881
   57MOL0     H 7637   2.046   3.407   2.940 -0.2859 -1.0756  0.8671
   57MOL0     H 7638   2.034   3.188   2.978  1.7556  1.0991 -1.4563
   57MOL0     H 7639   2.184   3.181   3.083  2.2530  0.7511 -1.6224
   57MOL0     H 7640   1.915   3.304   3.149  0.7951  2.8472  2.6757
   57MOL0     H 7641   1.965   3.167   3.223 -1.7844  0.8241  0.5195
   57MOL0     H 7642   2.186   3.277   3.294  0.5268 -1.4737 -1.1275
   57MOL0     H 7643   2.119   3.430   3.252  2.1130  0.1909  1.3768
   57MOL0     H 7644   2.104   3.379   3.492 -1.5149  2.1882  0.5108
   57MOL0     H 7645   2.013   3.234   3.465  1.4790 -0.0311  0.4604
   57MOL0     H 7646   1.908   3.427   3.650 -0.6263 -0.2218 -0.3725
   57MOL0     H 7647   1.732   3.597   3.700 -1.3535  0.6119  0.5934
   57MOL0     H 7648   1.620   3.671   3.589 -0.2329  0.7456 -0.3134
   57MOL0     H 7649   1.500   3.525   3.777  0.0827 -2.7163  1.8102
   57MOL0     H 7650   1.599   3.394   3.716 -0.4689 -0.7765 -0.8574
   57MOL0     H 7651   1.458   3.425   3.496  2.7617  2.8894  0.5330
   57MOL0     H 7652   1.357   3.537   3.579  1.6237  1.1455 -1.4720
   57MOL0     H 7653   1.393   3.253   3.666  1.2766 -0.5755 -3.6231
   57MOL0     H 7654   1.261   3.319   3.561  3.4394 -0.3424 -2.0544
   57MOL0     H 7655   1.245   3.109   3.719 -0.5130  2.1745 -0.7785
   57MOL0     H 7656   1.214   2.874   3.910  1.6980  2.6357  1.2125
   57MOL0     H 7657   1.042   2.866   3.851  0.0107  1.4190  1.0593
   57MOL0     H 7658   1.161   2.908   3.738 -1.6204  2.0309 -0.8663
   57MOL0     H 7659   1.056   3.054   4.508 -1.7883 -0.1164  2.3775
   57MOL0     H 7660   0.945   2.932   4.678  1.0351 -2.1075 -0.1467
   57MOL0     H 7661   0.833   2.769   4.805 -1.6418 -2.5384 -0.4116
   57MOL0     H 7662   0.725   2.914   4.800 -0.2098  0.3906 -1.6592
   57MOL0     H 7663   0.585   2.653   4.811 -0.3667 -0.3736  1.6099
   57MOL0     H 7664   0.663   2.701   4.960  1.0291 -0.9291 -1.1108
   57MOL0     H 7665   0.483   2.905   4.802 -0.6608  0.2774 -0.2242
   57MOL0     H 7666   0.554   2.912   4.954  0.1716  0.7058 -0.9539
   57MOL0     H 7667   0.410   2.711   5.043 -5.3807 -1.0338 -0.6812
   57MOL0     H 7668   0.362   2.864   5.016  0.5489 -1.1051  1.8028
   57MOL0     H 7669   0.322   2.654   4.798  2.0770  0.9820  0.0082
   57MOL0     H 7670   0.258   2.819   4.801 -0.3845  0.8396 -0.1969
   57MOL0     H 7671   0.171   2.633   5.026 -1.0979 -0.1595  0.8922
   57MOL0     H 7672   0.131   2.798   4.989 -1.5168 -0.2567 -0.0408
   57MOL0     H 7673   0.072   2.560   4.793 -0.5568  0.3652 -1.5445
   57MOL0     H 7674   0.031   2.726   4.762  4.6982 -0.3340 -0.9842
   57MOL0     H 7675  -0.182   2.635   4.829  0.7064 -0.6275 -2.0797
   57MOL0     H 7676  -0.118   2.724   4.968  2.0845  0.7498 -0.8076
   57MOL0     H 7677   0.670   2.769   4.390 -0.0556  0.8956 -1.0461
   57MOL0     H 7678   0.771   2.920   4.217  2.3074 -2.0959  0.1037
   57MOL0     H 7679   1.059   3.277   4.143 -2.5269 -2.9570  0.6690
   57MOL0     H 7680   1.155   3.434   4.000 -0.9633 -0.2122  0.3933
   57MOL0     H 7681   2.418   3.515   2.530 -2.0375 -2.7070  1.1562
   57MOL0     H 7682   2.520   3.491   2.317  1.1862  2.4330 -0.6607
   57MOL0     H 7683   2.856   3.283   2.046  0.6071 -0.3385  1.4467
   57MOL0     H 7684   3.004   3.256   1.855 -1.3135  1.8489 -2.2549
   57MOL0     H 7685   3.248   3.607   1.705  0.1724  0.6619  0.4017
   57MOL0     H 7686   3.361   3.529   1.814  0.5422 -2.3082 -0.1472
   57MOL0     H 7687   3.458   3.530   1.604 -1.0327 -0.7659 -0.9524
   57MOL0     H 7688   3.323   3.458   1.527 -1.5323 -0.7200  0.8427
   57MOL0     H 7689   3.487   3.292   1.554 -0.4648 -0.6237 -0.9214
   57MOL0     H 7690   3.357   3.247   1.650  1.3681 -1.8271 -0.8248
   57MOL0     H 7691   3.555   3.198   1.783  1.6973  0.2821 -2.6099
   57MOL0     H 7692   3.467   3.323   1.856 -0.2804 -2.0515  0.8263
   57MOL0     H 7693   3.822   3.532   1.742 -0.7249  0.8683 -1.2183
   57MOL0     H 7694   3.170   3.643   1.913 -1.9848  0.5771 -0.6112
   57MOL0     H 7695   3.032   3.667   2.116 -0.1063 -0.4481  0.1210
   58MOL0     O 7696   4.033  10.602   3.127 -0.6883 -1.1485 -0.2168
   58MOL0     C 7697   4.116  10.673   3.066 -0.0578 -0.6990  0.2908
   58MOL0     O 7698   4.087  10.798   3.022 -0.9429 -0.1169  0.5822
   58MOL0     C 7699   3.976  10.860   3.066 -0.0891  0.7443 -0.1794
   58MOL0     C 7700   3.848  10.807   3.049 -0.3515 -0.1876  0.1195
   58MOL0     C 7701   3.740  10.865   3.114 -0.5845  0.4587  0.1933
   58MOL0     C 7702   3.754  10.989   3.184 -0.1691  0.4228  0.2856
   58MOL0     O 7703   3.642  11.054   3.228  0.1876  0.3497  0.4965
   58MOL0     C 7704   3.638  11.064   3.367  0.3830 -0.4690  0.7830
   58MOL0     C 7705   3.509  11.131   3.434 -0.3647 -0.7271  0.0439
   58MOL0     C 7706   3.453  11.247   3.352 -0.0799  0.4656  0.1369
   58MOL0     C 7707   3.313  11.292   3.405 -0.1738  0.6331  0.3887
   58MOL0     C 7708   3.255  11.408   3.332  0.2679  0.1116  0.3148
   58MOL0     C 7709   3.156  11.484   3.416  0.3423  0.6074 -0.3199
   58MOL0     C 7710   3.084  11.600   3.346  0.6892  0.7523  0.3438
   58MOL0     C 7711   2.951  11.640   3.415 -0.0772 -0.0041  0.1900
   58MOL0     N 7712   2.877  11.738   3.340 -0.3506  0.2150 -0.2840
   58MOL0     C 7713   2.807  11.845   3.394  0.2728  0.5440 -0.0984
   58MOL0     C 7714   2.706  11.869   3.303  0.2318 -0.5457 -0.0154
   58MOL0     C 7715   2.597  11.967   3.329  0.2029  0.0343  0.3308
   58MOL0     C 7716   2.636  12.099   3.276 -0.1955 -0.1342  0.9448
   58MOL0     C 7717   2.516  12.198   3.272  0.8020  0.3358 -0.0051
   58MOL0     C 7718   2.448  12.226   3.407  0.0835 -0.4610 -1.0162
   58MOL0     O 7719   2.310  12.269   3.376  0.0135 -0.5731  0.3216
   58MOL0     C 7720   2.285  12.406   3.378  0.2377 -0.3396  0.5325
   58MOL0     C 7721   2.379  12.510   3.355  0.2800  0.8611 -0.0778
   58MOL0     C 7722   2.344  12.643   3.377  0.7090  0.2036  0.7956
   58MOL0     C 7723   2.458  12.744   3.392 -0.1141 -1.3470  0.2473
   58MOL0     C 7724   2.215  12.678   3.411  0.4524  0.9425  0.5007
   58MOL0     C 7725   2.169  12.817   3.425 -0.5750  0.3340 -0.1153
   58MOL0     O 7726   2.067  12.830   3.512 -0.4008  0.3772  0.4382
   58MOL0     C 7727   1.993  12.942   3.514  0.6889 -0.5277  0.0297
   58MOL0     C 7728   1.856  12.928   3.534  1.0548  0.3493 -0.9531
   58MOL0     C 7729   1.770  13.042   3.542 -0.1428  0.5669 -0.3338
   58MOL0     C 7730   1.827  13.171   3.527 -0.5531  0.4994  0.6167
   58MOL0     O 7731   1.747  13.284   3.529  0.2158  0.5299 -0.3600
   58MOL0     C 7732   1.625  13.289   3.602  0.2442 -0.1350 -1.1251
   58MOL0     C 7733   1.543  13.416   3.564 -0.3717  0.3889 -0.7194
   58MOL0     C 7734   1.423  13.439   3.662 -0.5130 -0.1566 -0.0173
   58MOL0     C 7735   1.321  13.529   3.611  0.3846 -0.2808  0.0799
   58MOL0     C 7736   1.216  13.587   3.707  0.2872  0.0308  0.2969
   58MOL0     C 7737   1.146  13.468   3.777  0.3350  0.4321 -0.6200
   58MOL0     C 7738   1.048  13.525   3.878 -0.2008 -0.1458  0.3784
   58MOL0     C 7739   0.978  13.425   3.966  0.2196  1.0779  0.4676
   58MOL0    Cl 7740   0.854  13.511   4.071 -0.2469  0.0599  0.5764
   58MOL0     C 7741   1.965  13.185   3.520 -0.4319  0.1334  0.8327
   58MOL0     C 7742   2.043  13.068   3.514 -0.0558 -0.4487  0.1911
   58MOL0     O 7743   2.214  12.904   3.356 -0.1139 -0.7834 -0.6981
   58MOL0     C 7744   2.124  12.579   3.429  0.2900  0.0824 -0.6607
   58MOL0     C 7745   2.162  12.442   3.420  0.9836  0.7270 -0.1399
   58MOL0     N 7746   2.729  11.790   3.192  0.0533  0.7060 -0.7720
   58MOL0     N 7747   2.825  11.716   3.222  0.4854 -0.3674 -0.4406
   58MOL0     C 7748   3.880  11.051   3.190 -0.2717 -0.5374  0.9852
   58MOL0     C 7749   3.991  10.986   3.134  0.0227  0.5527 -0.4257
   58MOL0     C 7750   4.257  10.621   3.037 -0.5321  0.4142  0.5609
   58MOL0     C 7751   4.295  10.493   3.084 -0.1339 -0.0292  0.7045
   58MOL0     C 7752   4.427  10.447   3.057  0.6206 -0.0637  0.3522
   58MOL0     C 7753   4.526  10.535   3.001  0.3647 -0.2384  0.7956
   58MOL0     O 7754   4.659  10.501   3.006  0.6811  0.2233  0.2078
   58MOL0     C 7755   4.694  10.370   2.961 -0.4369 -0.7372 -0.6942
   58MOL0     C 7756   4.832  10.384   2.903 -1.1165 -0.4031  0.6251
   58MOL0     C 7757   4.925  10.459   2.995 -0.1147  0.7682 -0.1476
   58MOL0     C 7758   5.071  10.476   2.947 -0.4695  0.3057  0.1430
   58MOL0     C 7759   5.140  10.348   2.918 -0.0672 -1.7339 -0.0570
   58MOL0     C 7760   5.176  10.233   2.921  1.6343 -0.1646  0.7065
   58MOL0     C 7761   4.493  10.667   2.971 -0.9905 -0.5623 -0.3412
   58MOL0     C 7762   4.358  10.701   2.978  1.3457 -0.0675 -0.2485
   58MOL0     H 7763   3.827  10.709   3.009  1.7132 -1.1232  1.1872
   58MOL0     H 7764   3.645  10.815   3.099 -0.6565 -0.1481  2.3791
   58MOL0     H 7765   3.659  10.965   3.410 -0.0599 -1.0813 -0.3564
   58MOL0     H 7766   3.720  11.132   3.386  0.6376 -0.4174 -0.4313
   58MOL0     H 7767   3.432  11.054   3.443  1.9805 -3.2669 -0.1468
   58MOL0     H 7768   3.528  11.170   3.534 -2.9538  0.6440  0.0713
   58MOL0     H 7769   3.518  11.335   3.362 -2.0039  2.0311 -0.4766
   58MOL0     H 7770   3.440  11.218   3.248 -3.1853  1.2814  0.1894
   58MOL0     H 7771   3.240  11.213   3.386 -0.5098  1.0700 -0.1651
   58MOL0     H 7772   3.313  11.324   3.510 -1.3758  1.0723  0.2699
   58MOL0     H 7773   3.333  11.480   3.305  0.2200 -0.7986 -2.5414
   58MOL0     H 7774   3.215  11.376   3.235 -0.8702 -2.1417  1.4482
   58MOL0     H 7775   3.083  11.413   3.455  0.7892 -0.2878 -1.0683
   58MOL0     H 7776   3.197  11.531   3.505 -1.2775 -0.0425  0.8200
   58MOL0     H 7777   3.150  11.687   3.353  0.9673  0.5517  0.2235
   58MOL0     H 7778   3.051  11.574   3.245  0.0906  0.7985  0.5216
   58MOL0     H 7779   2.968  11.684   3.514  0.9068 -1.6705  0.8016
   58MOL0     H 7780   2.882  11.555   3.420 -2.0785  1.4436 -1.0249
   58MOL0     H 7781   2.824  11.894   3.489  0.4778  0.5892 -0.1584
   58MOL0     H 7782   2.505  11.937   3.278 -0.3185  0.4651  1.0061
   58MOL0     H 7783   2.576  11.983   3.436  0.0363  1.7070  0.0602
   58MOL0     H 7784   2.692  12.101   3.182  1.4405  0.6898  1.8820
   58MOL0     H 7785   2.702  12.153   3.345 -3.8324  1.5713  3.4002
   58MOL0     H 7786   2.442  12.171   3.195  0.3722 -1.3267  0.9554
   58MOL0     H 7787   2.547  12.296   3.233  1.0613  0.3420  0.2172
   58MOL0     H 7788   2.505  12.300   3.464  1.0889  1.0161 -3.7367
   58MOL0     H 7789   2.432  12.136   3.468 -0.9097 -3.0537 -4.7572
   58MOL0     H 7790   2.484  12.488   3.336  0.3926  0.8445  0.5501
   58MOL0     H 7791   2.475  12.798   3.298  0.1044 -1.2027  0.3691
   58MOL0     H 7792   2.444  12.811   3.477 -4.0210 -1.0001 -0.4991
   58MOL0     H 7793   2.547  12.683   3.409  0.0703 -0.9548  0.7214
   58MOL0     H 7794   1.812  12.830   3.553  2.8399  0.0205  2.0405
   58MOL0     H 7795   1.667  13.031   3.573  0.5546  0.7534  2.2877
   58MOL0     H 7796   1.553  13.211   3.577 -2.2962  2.8267 -3.9262
   58MOL0     H 7797   1.660  13.291   3.706  1.1926 -0.4219 -1.4284
   58MOL0     H 7798   1.617  13.496   3.555  0.1589  0.1926  1.4346
   58MOL0     H 7799   1.507  13.389   3.465  2.9247  0.1822 -2.0097
   58MOL0     H 7800   1.471  13.481   3.751  1.5874  1.0437 -1.6173
   58MOL0     H 7801   1.385  13.337   3.654  0.7940 -0.5082 -3.3864
   58MOL0     H 7802   1.379  13.613   3.571  2.9471 -2.4374 -1.1257
   58MOL0     H 7803   1.268  13.486   3.526 -1.1100  0.0252  0.8310
   58MOL0     H 7804   1.143  13.647   3.652 -3.2208 -2.5966  1.7316
   58MOL0     H 7805   1.259  13.652   3.784 -0.1886 -0.5856  1.0871
   58MOL0     H 7806   1.094  13.408   3.702  3.7360  1.7460 -4.3992
   58MOL0     H 7807   1.207  13.394   3.830 -0.8717  0.1395  0.4293
   58MOL0     H 7808   0.966  13.574   3.824  0.4712  0.0871 -0.4575
   58MOL0     H 7809   1.093  13.599   3.945 -0.4732 -1.3773  1.9836
   58MOL0     H 7810   1.044  13.364   4.028  1.1230 -2.2040 -3.2726
   58MOL0     H 7811   0.931  13.350   3.901  0.0570 -1.5013  3.3083
   58MOL0     H 7812   2.018  13.278   3.500  0.5465  0.0758  2.8535
   58MOL0     H 7813   2.149  13.090   3.503  0.0548 -1.2444 -0.4359
   58MOL0     H 7814   2.021  12.611   3.441 -0.4890 -2.3347 -0.3405
   58MOL0     H 7815   2.090  12.368   3.453  1.2223  0.5698  0.0352
   58MOL0     H 7816   3.886  11.145   3.245  2.2793  0.2708 -0.5184
   58MOL0     H 7817   4.085  11.039   3.149  1.3421 -1.6362 -0.5644
   58MOL0     H 7818   4.222  10.430   3.134  0.3727  0.7309  2.4886
   58MOL0     H 7819   4.468  10.350   3.081  1.6407  0.2639 -0.0126
   58MOL0     H 7820   4.701  10.310   3.052 -1.2419  1.4239  0.8953
   58MOL0     H 7821   4.622  10.326   2.892 -4.7164  0.1243  2.7990
   58MOL0     H 7822   4.825  10.450   2.816 -0.8533  0.4752  1.2564
   58MOL0     H 7823   4.876  10.293   2.861 -0.3080 -1.0384  2.7064
   58MOL0     H 7824   4.913  10.409   3.091 -3.0307 -0.5717 -1.1030
   58MOL0     H 7825   4.881  10.559   3.000 -2.1167 -0.0756 -0.3920
   58MOL0     H 7826   5.116  10.530   3.031  1.6389  0.5403 -1.0741
   58MOL0     H 7827   5.079  10.546   2.863 -1.8045  0.6286  0.2588
   58MOL0     H 7828   5.220  10.136   2.931 -0.6577 -1.3942 -0.5742
   58MOL0     H 7829   4.579  10.723   2.936  1.4810 -2.6981  1.8898
   58MOL0     H 7830   4.323  10.799   2.945 -0.3962 -0.1648  1.1532
   59MOL0     O 7831   5.425   1.183   9.304 -0.1541 -0.0417 -0.1477
   59MOL0     C 7832   5.430   1.143   9.416 -0.3164  0.0689 -0.7046
   59MOL0     O 7833   5.324   1.148   9.509 -0.0016  0.3110  0.1338
   59MOL0     C 7834   5.226   1.239   9.472 -0.0188  0.3020  0.1940
   59MOL0     C 7835   5.131   1.227   9.368  0.1987 -0.4918  0.5320
   59MOL0     C 7836   5.048   1.325   9.326  0.2882 -0.1476 -0.1692
   59MOL0     C 7837   5.043   1.444   9.395 -0.9614  1.0063 -0.8126
   59MOL0     O 7838   4.956   1.543   9.350  0.2056 -0.6127 -0.5253
   59MOL0     C 7839   4.824   1.513   9.390  0.4364 -0.4392 -0.6415
   59MOL0     C 7840   4.729   1.601   9.318  0.3208 -0.0864  0.1426
   59MOL0     C 7841   4.581   1.583   9.344  0.1784  0.1200  0.0073
   59MOL0     C 7842   4.493   1.654   9.239  0.1213  0.0498 -0.0611
   59MOL0     C 7843   4.343   1.626   9.264  0.2014 -0.8818 -1.0066
   59MOL0     C 7844   4.247   1.710   9.173 -0.1354  0.1147  0.7433
   59MOL0     C 7845   4.102   1.720   9.225 -0.1911 -0.3209 -0.4122
   59MOL0     C 7846   4.021   1.590   9.217  0.6090  0.6599  0.6107
   59MOL0     N 7847   3.896   1.605   9.290 -0.7515 -0.3322  0.9016
   59MOL0     C 7848   3.830   1.518   9.373 -0.0944 -0.7865 -0.4890
   59MOL0     C 7849   3.707   1.566   9.390 -0.1889  0.0840  0.5103
   59MOL0     C 7850   3.591   1.499   9.460 -0.2414  0.3635  0.1580
   59MOL0     C 7851   3.501   1.418   9.362 -1.2693 -0.1071  0.3837
   59MOL0     C 7852   3.422   1.504   9.269  0.5749  0.2572  0.3067
   59MOL0     C 7853   3.334   1.419   9.177 -0.2050 -0.5333 -0.3811
   59MOL0     O 7854   3.246   1.360   9.260  0.3956  0.2715 -0.5335
   59MOL0     C 7855   3.114   1.407   9.280 -0.4108  0.3660  0.0989
   59MOL0     C 7856   3.030   1.321   9.353 -0.4104  0.5152 -0.6212
   59MOL0     C 7857   2.902   1.351   9.390  0.7287  0.2123  0.1442
   59MOL0     C 7858   2.817   1.249   9.466 -0.3273 -0.1058 -0.8695
   59MOL0     C 7859   2.841   1.470   9.335  0.8701  0.2587  0.4871
   59MOL0     C 7860   2.703   1.517   9.362  0.3679 -0.0323 -0.2586
   59MOL0     O 7861   2.633   1.462   9.465 -1.2474 -0.1401 -0.4741
   59MOL0     C 7862   2.520   1.522   9.518  0.7336  0.2777 -0.5427
   59MOL0     C 7863   2.414   1.447   9.557 -0.2609 -0.1778  0.3936
   59MOL0     C 7864   2.302   1.512   9.607 -0.7032  0.5568  0.3721
   59MOL0     C 7865   2.290   1.647   9.634 -0.1002 -0.2715 -0.5455
   59MOL0     O 7866   2.171   1.700   9.684 -0.7213  0.3924 -0.3371
   59MOL0     C 7867   2.180   1.836   9.733  0.2311  0.5120 -0.7416
   59MOL0     C 7868   2.046   1.870   9.786  0.4491 -0.0525 -0.8071
   59MOL0     C 7869   1.954   1.933   9.688  0.5238  0.1446 -0.6167
   59MOL0     C 7870   1.849   2.010   9.756  0.5324 -0.0852 -0.5734
   59MOL0     C 7871   1.752   2.069   9.660  1.3437 -0.0917 -0.1904
   59MOL0     C 7872   1.631   2.125   9.737  0.2460 -0.5432 -0.2616
   59MOL0     C 7873   1.515   2.145   9.644  0.1818  0.6407  0.4194
   59MOL0     C 7874   1.445   2.016   9.599  0.5735  0.2346 -0.0239
   59MOL0    Cl 7875   1.290   2.059   9.519  0.6488  0.2951  0.2434
   59MOL0     C 7876   2.407   1.723   9.606 -0.8176  0.4245 -0.2546
   59MOL0     C 7877   2.511   1.654   9.534 -0.9469 -0.2982  0.4014
   59MOL0     O 7878   2.661   1.596   9.281  0.1299 -0.3186  0.2942
   59MOL0     C 7879   2.923   1.551   9.257  0.7549 -0.1964  0.4106
   59MOL0     C 7880   3.056   1.528   9.230 -0.5738  0.7441 -0.3899
   59MOL0     N 7881   3.695   1.676   9.315  0.0221 -0.2902 -0.1163
   59MOL0     N 7882   3.803   1.703   9.262 -0.2477 -0.2633  0.5600
   59MOL0     C 7883   5.131   1.460   9.510  0.4005 -0.5418 -0.0875
   59MOL0     C 7884   5.225   1.362   9.541  0.4968 -0.6962  0.0034
   59MOL0     C 7885   5.563   1.085   9.463 -0.6766  0.6557 -0.1345
   59MOL0     C 7886   5.565   1.016   9.588  1.2576  1.2927  0.1126
   59MOL0     C 7887   5.680   0.966   9.633  0.9259  0.6014  0.7732
   59MOL0     C 7888   5.800   0.972   9.565 -0.7398  0.0665  1.2016
   59MOL0     O 7889   5.909   0.905   9.597 -0.5180 -0.7562  0.0130
   59MOL0     C 7890   5.916   0.776   9.532 -1.0625  0.2611  0.0376
   59MOL0     C 7891   5.918   0.763   9.380  0.4558 -0.8275 -0.3361
   59MOL0     C 7892   5.953   0.620   9.332 -0.4426 -0.3260 -0.3438
   59MOL0     C 7893   5.843   0.508   9.350  0.3961  0.7020 -0.4683
   59MOL0     C 7894   5.884   0.387   9.276 -0.5935  0.3383  0.3648
   59MOL0     C 7895   5.936   0.294   9.218  0.6994  0.3926 -0.2176
   59MOL0     C 7896   5.798   1.047   9.442 -0.4159  0.4664  0.3487
   59MOL0     C 7897   5.683   1.108   9.392 -0.3256  0.0619 -0.0023
   59MOL0     H 7898   5.140   1.144   9.299  2.0747  0.7608 -0.8188
   59MOL0     H 7899   4.991   1.293   9.239  0.0067  2.1151 -0.8925
   59MOL0     H 7900   4.803   1.411   9.355  0.7792  0.2259 -2.9833
   59MOL0     H 7901   4.810   1.517   9.498  1.5579 -1.3971 -0.4421
   59MOL0     H 7902   4.747   1.707   9.340  0.2939  0.3713 -1.8073
   59MOL0     H 7903   4.756   1.603   9.212  0.0025  0.1577  0.0667
   59MOL0     H 7904   4.552   1.478   9.353  0.5195  0.0376  0.1705
   59MOL0     H 7905   4.547   1.639   9.432 -2.4998  2.5857 -2.3651
   59MOL0     H 7906   4.508   1.762   9.237 -2.3991  0.4568 -0.5011
   59MOL0     H 7907   4.516   1.616   9.139 -1.1630 -0.3585 -0.2167
   59MOL0     H 7908   4.333   1.523   9.228 -0.3079 -0.7287 -1.3150
   59MOL0     H 7909   4.309   1.635   9.367 -1.3034 -0.2875 -1.5212
   59MOL0     H 7910   4.290   1.810   9.161  0.6970 -0.4280 -1.0636
   59MOL0     H 7911   4.238   1.657   9.078 -0.1810  2.2304 -0.4989
   59MOL0     H 7912   4.107   1.760   9.327 -2.6687  1.5503 -0.9140
   59MOL0     H 7913   4.061   1.808   9.174 -0.2098  1.1304  1.9611
   59MOL0     H 7914   4.065   1.500   9.262 -1.8365 -1.0386 -0.1939
   59MOL0     H 7915   4.007   1.561   9.112  2.2711 -0.9317  0.7783
   59MOL0     H 7916   3.874   1.430   9.419  0.4051  0.1930  0.9796
   59MOL0     H 7917   3.624   1.422   9.530 -0.7028 -1.4193 -1.4913
   59MOL0     H 7918   3.535   1.574   9.517 -0.5100 -1.0098  1.7978
   59MOL0     H 7919   3.453   1.340   9.421 -1.7314 -0.7970 -0.8620
   59MOL0     H 7920   3.573   1.362   9.302  1.0204  2.2493  0.7466
   59MOL0     H 7921   3.488   1.568   9.210 -0.2682  0.1820 -0.7675
   59MOL0     H 7922   3.364   1.576   9.328 -0.6839  0.0935 -0.6770
   59MOL0     H 7923   3.405   1.348   9.134  1.4782  1.2076 -0.6447
   59MOL0     H 7924   3.290   1.482   9.099  1.4509 -0.4839 -1.3220
   59MOL0     H 7925   3.084   1.232   9.386  0.2745  1.0854 -0.1783
   59MOL0     H 7926   2.799   1.284   9.568 -1.3396 -2.6254 -0.1306
   59MOL0     H 7927   2.720   1.228   9.421  0.1475 -1.7134 -1.1983
   59MOL0     H 7928   2.874   1.156   9.461  0.0987  0.1739 -1.3269
   59MOL0     H 7929   2.421   1.343   9.530  2.0275  0.2921 -1.0992
   59MOL0     H 7930   2.211   1.454   9.622 -0.8074  0.5571 -0.2262
   59MOL0     H 7931   2.251   1.834   9.816 -0.6121 -0.3766 -0.0278
   59MOL0     H 7932   2.210   1.905   9.654 -1.3677  0.6905 -1.2213
   59MOL0     H 7933   2.003   1.782   9.834  5.0375 -1.8588  0.5330
   59MOL0     H 7934   2.050   1.943   9.867 -0.8456  0.8450 -1.4883
   59MOL0     H 7935   1.899   1.852   9.638  1.8711 -1.1414 -0.0870
   59MOL0     H 7936   2.011   1.988   9.612  3.0863 -1.4037  0.0550
   59MOL0     H 7937   1.798   1.941   9.823 -0.2818  1.9122  0.9512
   59MOL0     H 7938   1.899   2.094   9.805  1.1242  0.4197 -1.9888
   59MOL0     H 7939   1.714   1.989   9.596  1.5123 -1.1831  1.0428
   59MOL0     H 7940   1.803   2.151   9.608 -0.5059  1.6890  0.6834
   59MOL0     H 7941   1.610   2.074   9.832 -1.1377 -0.8847 -0.7261
   59MOL0     H 7942   1.652   2.224   9.779  2.9501 -0.1520 -2.3078
   59MOL0     H 7943   1.540   2.214   9.563 -1.6243  0.5039 -0.2992
   59MOL0     H 7944   1.437   2.196   9.702 -1.7696 -2.2235  0.5045
   59MOL0     H 7945   1.422   1.958   9.688 -0.1091 -1.3178 -1.1784
   59MOL0     H 7946   1.504   1.966   9.521 -0.3486  0.4859 -0.8932
   59MOL0     H 7947   2.419   1.826   9.635  0.1693  0.4111 -0.5857
   59MOL0     H 7948   2.593   1.715   9.497 -0.4675  0.2044  2.1914
   59MOL0     H 7949   2.887   1.647   9.225  0.5525 -0.7178 -0.9676
   59MOL0     H 7950   3.118   1.598   9.175  2.5712 -0.1761  1.6464
   59MOL0     H 7951   5.121   1.536   9.586  0.8430 -2.9514  2.5478
   59MOL0     H 7952   5.296   1.389   9.618 -2.3340  2.7651  1.7212
   59MOL0     H 7953   5.475   1.005   9.649  0.6821 -1.9956 -1.1038
   59MOL0     H 7954   5.676   0.917   9.730  0.8821  1.7332  1.3653
   59MOL0     H 7955   6.012   0.738   9.569 -2.0017 -3.5052 -0.9930
   59MOL0     H 7956   5.846   0.703   9.572 -0.2464 -2.1874 -2.6874
   59MOL0     H 7957   5.990   0.834   9.339 -0.1274 -0.5442 -0.8838
   59MOL0     H 7958   5.818   0.778   9.340  0.2111 -0.8391  0.2555
   59MOL0     H 7959   6.040   0.575   9.379 -0.0241 -1.0873 -1.7761
   59MOL0     H 7960   5.991   0.634   9.230 -0.9076  5.3913 -0.0402
   59MOL0     H 7961   5.756   0.549   9.297  0.3517  1.9483  0.5235
   59MOL0     H 7962   5.807   0.492   9.452  0.1667  0.2839 -0.6124
   59MOL0     H 7963   5.983   0.215   9.162  1.4923 -0.0742  1.0585
   59MOL0     H 7964   5.891   1.058   9.388 -0.1077 -0.9368  0.5509
   59MOL0     H 7965   5.691   1.163   9.299  0.7651  0.2668  0.1946
   60MOL0     O 7966   5.235   7.436   0.566  0.8933 -0.3556 -0.9111
   60MOL0     C 7967   5.252   7.316   0.546  0.0084 -0.2490 -0.7059
   60MOL0     O 7968   5.155   7.228   0.500 -0.8312  0.6521 -0.8542
   60MOL0     C 7969   5.032   7.270   0.502  0.3486 -0.6526  0.5324
   60MOL0     C 7970   4.951   7.273   0.619  0.8030  0.3104  0.3901
   60MOL0     C 7971   4.816   7.324   0.606  0.0714 -0.0015 -0.5294
   60MOL0     C 7972   4.766   7.377   0.486 -0.6605 -0.0282 -0.4799
   60MOL0     O 7973   4.648   7.424   0.497  0.2499  0.5582  0.1700
   60MOL0     C 7974   4.571   7.476   0.393 -0.4280 -0.1803  0.6520
   60MOL0     C 7975   4.444   7.525   0.454  0.0159  0.3789  0.1711
   60MOL0     C 7976   4.359   7.623   0.360 -0.4192 -0.1390 -0.8274
   60MOL0     C 7977   4.217   7.642   0.418 -0.2041 -0.1114 -0.4012
   60MOL0     C 7978   4.140   7.748   0.335  0.6592  0.7409 -0.7436
   60MOL0     C 7979   4.193   7.888   0.355  0.4769 -0.4549 -0.0130
   60MOL0     C 7980   4.138   7.997   0.259 -0.7299 -0.4297 -0.1525
   60MOL0     C 7981   3.990   8.024   0.286  0.2915  0.3623  0.2823
   60MOL0     N 7982   3.946   8.132   0.194 -0.2296 -0.2310 -0.5910
   60MOL0     C 7983   3.850   8.113   0.102  0.7294 -0.4903 -0.2421
   60MOL0     C 7984   3.820   8.236   0.059  0.4878  0.2162  0.0798
   60MOL0     C 7985   3.698   8.252  -0.038 -0.9245  0.2472 -0.1440
   60MOL0     C 7986   3.572   8.233   0.054 -0.2089 -0.0401  0.2852
   60MOL0     C 7987   3.577   8.342   0.151 -0.2942  0.1798 -1.2000
   60MOL0     C 7988   3.448   8.359   0.236 -0.2308 -0.2177  0.0610
   60MOL0     O 7989   3.356   8.454   0.174 -0.0201  0.1131  0.1910
   60MOL0     C 7990   3.233   8.477   0.227  0.9539  0.6874  0.6569
   60MOL0     C 7991   3.185   8.420   0.347 -0.9604  0.2900 -0.3975
   60MOL0     C 7992   3.062   8.451   0.406  0.2784  0.8782  0.8042
   60MOL0     C 7993   3.044   8.391   0.547  0.4126 -0.8319  0.0578
   60MOL0     C 7994   2.983   8.548   0.340 -0.0586 -0.1372  0.0760
   60MOL0     C 7995   2.854   8.602   0.382  0.2835  1.0034 -0.0023
   60MOL0     O 7996   2.793   8.664   0.281  0.2685  0.0269 -0.0553
   60MOL0     C 7997   2.681   8.742   0.298 -0.1364  0.0885  0.3931
   60MOL0     C 7998   2.625   8.801   0.181 -0.1461 -0.5467  0.0403
   60MOL0     C 7999   2.510   8.883   0.194  0.1818 -0.2971  0.1658
   60MOL0     C 8000   2.461   8.927   0.314 -0.2293  0.3128  0.2006
   60MOL0     O 8001   2.356   9.014   0.336 -0.6753 -0.6080  0.3182
   60MOL0     C 8002   2.253   9.005   0.236  0.8033 -0.7384 -0.0116
   60MOL0     C 8003   2.135   9.108   0.252 -0.3398  0.2497  0.4574
   60MOL0     C 8004   2.031   9.095   0.141 -0.2644 -0.5851  0.6779
   60MOL0     C 8005   2.049   9.191   0.021  1.0049  0.7910  0.0792
   60MOL0     C 8006   1.979   9.168  -0.115 -0.5546  0.1574  0.6912
   60MOL0     C 8007   1.829   9.154  -0.105  0.3438 -0.3518  1.3587
   60MOL0     C 8008   1.747   9.269  -0.037 -0.8394  0.0626 -0.2714
   60MOL0     C 8009   1.594   9.253  -0.056  0.9850 -0.4754 -0.8401
   60MOL0    Cl 8010   1.519   9.372   0.071 -0.2153  0.3841 -0.2656
   60MOL0     C 8011   2.517   8.867   0.427  1.0963  0.0395 -0.0714
   60MOL0     C 8012   2.625   8.784   0.424  0.8563 -0.1004 -0.5821
   60MOL0     O 8013   2.806   8.572   0.488 -0.3651  0.1651  0.1438
   60MOL0     C 8014   3.039   8.609   0.223  0.2752 -0.8446 -0.1252
   60MOL0     C 8015   3.162   8.575   0.167  0.8887  0.1266 -0.2124
   60MOL0     N 8016   3.893   8.332   0.124  0.7079  0.4553  0.7251
   60MOL0     N 8017   3.966   8.268   0.204 -0.5972  0.2950 -0.3978
   60MOL0     C 8018   4.843   7.370   0.367  0.4230 -1.6179  0.0910
   60MOL0     C 8019   4.973   7.311   0.379  0.0889  0.6293  0.3241
   60MOL0     C 8020   5.386   7.260   0.580  0.3710 -0.1792 -0.4504
   60MOL0     C 8021   5.465   7.322   0.674 -0.7370 -0.2893 -0.5939
   60MOL0     C 8022   5.597   7.282   0.703 -0.7067  0.7184  0.0444
   60MOL0     C 8023   5.645   7.162   0.639 -0.7790 -0.6330  0.5340
   60MOL0     O 8024   5.773   7.117   0.650  0.0187 -0.7424  0.3949
   60MOL0     C 8025   5.881   7.217   0.673  0.2586  0.1645 -0.4785
   60MOL0     C 8026   5.932   7.279   0.538  0.2606 -0.6148  0.1621
   60MOL0     C 8027   5.969   7.149   0.458  0.5086  0.1380  0.3807
   60MOL0     C 8028   6.087   7.186   0.354  0.6577 -0.1687  0.6356
   60MOL0     C 8029   6.059   7.291   0.253  1.1322 -0.2561 -0.5273
   60MOL0     C 8030   6.030   7.400   0.203  0.2718 -0.3634 -0.6563
   60MOL0     C 8031   5.568   7.102   0.537  0.1234  0.0342 -0.1830
   60MOL0     C 8032   5.435   7.146   0.509  0.0550  0.1473 -0.3785
   60MOL0     H 8033   4.989   7.224   0.709  0.0855  0.2010  0.6381
   60MOL0     H 8034   4.758   7.314   0.697 -0.0438  0.4020 -0.5564
   60MOL0     H 8035   4.620   7.564   0.351 -0.2194 -0.3238  0.5920
   60MOL0     H 8036   4.542   7.402   0.318  2.4648 -0.2594 -0.5028
   60MOL0     H 8037   4.397   7.428   0.477  1.3568 -0.4225 -0.3513
   60MOL0     H 8038   4.476   7.578   0.543 -2.4014  1.5522  0.4338
   60MOL0     H 8039   4.411   7.719   0.357  1.3948 -1.0188  0.3071
   60MOL0     H 8040   4.349   7.568   0.266  0.4837 -0.2044 -0.8979
   60MOL0     H 8041   4.160   7.550   0.403  1.8126 -1.8860  2.0139
   60MOL0     H 8042   4.218   7.670   0.523  1.9615  3.3869 -1.1681
   60MOL0     H 8043   4.137   7.726   0.228  3.8959 -1.8311 -0.4784
   60MOL0     H 8044   4.038   7.738   0.374  1.0279  1.1105  0.3804
   60MOL0     H 8045   4.176   7.916   0.459  0.6096 -0.2290 -0.0532
   60MOL0     H 8046   4.302   7.885   0.347  0.5083  2.7192 -3.8275
   60MOL0     H 8047   4.189   8.093   0.269 -0.8698 -0.2243 -1.2002
   60MOL0     H 8048   4.159   7.964   0.157  0.7377  2.1630 -0.7990
   60MOL0     H 8049   3.968   8.063   0.386  0.1694 -0.4642  0.5926
   60MOL0     H 8050   3.936   7.931   0.267  2.5921 -1.2436  1.1040
   60MOL0     H 8051   3.797   8.025   0.071  0.3210 -0.1719 -0.4530
   60MOL0     H 8052   3.714   8.351  -0.083 -1.9691  0.7974  0.6240
   60MOL0     H 8053   3.694   8.178  -0.118  1.2251 -0.0061 -0.0727
   60MOL0     H 8054   3.570   8.136   0.104 -0.3692 -0.7419 -1.0465
   60MOL0     H 8055   3.480   8.244  -0.005 -0.5690  1.0549  1.0117
   60MOL0     H 8056   3.609   8.437   0.107 -1.4012 -0.0046 -2.4809
   60MOL0     H 8057   3.650   8.321   0.229  1.2493  4.8751 -1.0797
   60MOL0     H 8058   3.478   8.392   0.336 -0.1657 -1.3259  0.4197
   60MOL0     H 8059   3.406   8.259   0.252  0.2283 -0.6303 -1.2094
   60MOL0     H 8060   3.254   8.356   0.401  3.3662  2.7177 -2.5262
   60MOL0     H 8061   3.130   8.331   0.579  0.1179 -0.3047  1.9097
   60MOL0     H 8062   3.045   8.478   0.612  0.8621  0.6872 -1.8740
   60MOL0     H 8063   2.953   8.332   0.556 -1.1242  1.4804  0.5334
   60MOL0     H 8064   2.663   8.768   0.085 -0.1439  2.2541 -1.0166
   60MOL0     H 8065   2.470   8.914   0.098 -0.5593 -2.0406 -0.1340
   60MOL0     H 8066   2.291   9.022   0.135 -1.0936  0.7337 -0.5538
   60MOL0     H 8067   2.211   8.904   0.227 -0.8803 -0.0319 -0.6245
   60MOL0     H 8068   2.092   9.074   0.347  3.5986  0.8463  2.6553
   60MOL0     H 8069   2.173   9.208   0.273  0.3262  0.5999 -2.0648
   60MOL0     H 8070   1.934   9.112   0.190  0.1293  0.9834  0.9807
   60MOL0     H 8071   2.038   8.995   0.098  0.6713  0.3441 -1.4669
   60MOL0     H 8072   1.999   9.282   0.058  1.8204  1.8379 -1.2844
   60MOL0     H 8073   2.157   9.204   0.016  0.7962  2.8454 -0.1766
   60MOL0     H 8074   2.039   9.086  -0.155  1.8433  1.9231  0.4621
   60MOL0     H 8075   1.994   9.258  -0.175 -2.5924 -2.0737 -3.6416
   60MOL0     H 8076   1.789   9.137  -0.206  0.6597  1.5059  0.8819
   60MOL0     H 8077   1.798   9.061  -0.057 -1.7941 -2.7300 -3.8578
   60MOL0     H 8078   1.782   9.366  -0.071 -0.4601  0.6947  1.7532
   60MOL0     H 8079   1.759   9.252   0.071  0.7330  3.0972  0.1337
   60MOL0     H 8080   1.565   9.154  -0.020  2.1645 -0.3105  0.6367
   60MOL0     H 8081   1.559   9.272  -0.158 -0.1260 -0.7172 -0.5151
   60MOL0     H 8082   2.466   8.898   0.518 -1.1955  1.5145 -1.7571
   60MOL0     H 8083   2.661   8.745   0.519 -0.6045  0.3273  0.1702
   60MOL0     H 8084   2.983   8.688   0.173  1.7694  1.4603  1.6073
   60MOL0     H 8085   3.192   8.635   0.081 -4.7619  2.8594 -0.7542
   60MOL0     H 8086   4.814   7.414   0.272  1.9657 -0.4472  0.1185
   60MOL0     H 8087   5.014   7.304   0.279 -4.4704 -0.4912 -1.7317
   60MOL0     H 8088   5.423   7.394   0.744  1.8071  0.0932  0.6511
   60MOL0     H 8089   5.649   7.334   0.783 -0.1077  1.3310 -0.7354
   60MOL0     H 8090   5.847   7.302   0.733  1.6925  1.3345 -1.2545
   60MOL0     H 8091   5.971   7.179   0.722 -0.7980  0.0635  1.5010
   60MOL0     H 8092   6.013   7.352   0.547  0.3732 -0.6395 -0.5706
   60MOL0     H 8093   5.853   7.330   0.481  0.0142 -1.0410  0.1154
   60MOL0     H 8094   5.886   7.120   0.393  0.0308 -1.4411  1.6316
   60MOL0     H 8095   6.001   7.065   0.521  2.0490 -0.2368 -0.8268
   60MOL0     H 8096   6.116   7.095   0.300 -0.9641  0.3637 -1.2720
   60MOL0     H 8097   6.172   7.204   0.420  0.1161  0.5761  1.1570
   60MOL0     H 8098   6.004   7.485   0.143 -2.3984  1.3622  2.6360
   60MOL0     H 8099   5.603   7.022   0.473 -1.3707 -0.8117  0.0062
   60MOL0     H 8100   5.379   7.096   0.431  0.8995 -2.0808  0.3534
   61MOL0     O 8101   6.695   7.218  10.817  0.3294 -0.1542  0.6379
   61MOL0     C 8102   6.726   7.175  10.920 -1.9128  0.5271 -0.1224
   61MOL0     O 8103   6.652   7.106  11.016  0.2381 -0.5889  0.4902
   61MOL0     C 8104   6.514   7.073  10.998 -0.1202 -0.5953 -0.5588
   61MOL0     C 8105   6.426   7.126  10.905 -0.2838 -0.4064  0.6246
   61MOL0     C 8106   6.292   7.094  10.907 -0.2723  0.2699 -0.2016
   61MOL0     C 8107   6.237   7.004  10.996  0.4528 -0.5509 -0.1687
   61MOL0     O 8108   6.102   6.967  11.011 -0.2525  0.4995  0.2085
   61MOL0     C 8109   5.995   7.053  10.980 -0.5880 -0.1112  0.1660
   61MOL0     C 8110   5.866   6.972  10.964 -0.1838  0.7090 -0.8415
   61MOL0     C 8111   5.849   6.862  11.079  0.1721  0.1674  0.3842
   61MOL0     C 8112   5.721   6.789  11.083  0.0373 -0.2652 -0.0464
   61MOL0     C 8113   5.585   6.874  11.073 -0.5298  0.8136  0.3165
   61MOL0     C 8114   5.574   6.984  11.173  0.2506 -0.0985  0.2907
   61MOL0     C 8115   5.470   7.088  11.118 -0.0169 -0.1327  0.1568
   61MOL0     C 8116   5.447   7.201  11.232 -0.8624 -0.0647  0.4031
   61MOL0     N 8117   5.309   7.259  11.220  1.3882  0.6072 -0.3924
   61MOL0     C 8118   5.278   7.389  11.214 -0.4275  0.2022 -0.5568
   61MOL0     C 8119   5.143   7.393  11.213  0.0580  0.3256 -0.5268
   61MOL0     C 8120   5.061   7.520  11.212 -0.1652 -0.2066 -0.6060
   61MOL0     C 8121   4.921   7.503  11.145 -1.1943  0.4336  0.2447
   61MOL0     C 8122   4.854   7.632  11.098 -0.5351  0.2834 -0.3305
   61MOL0     C 8123   4.948   7.713  11.000  0.7660  0.0699 -0.2078
   61MOL0     O 8124   4.869   7.814  10.930 -0.6796 -0.8869 -0.4071
   61MOL0     C 8125   4.953   7.886  10.847  0.4425 -0.4915  0.0898
   61MOL0     C 8126   4.959   8.022  10.847 -0.5340 -0.7948 -0.9791
   61MOL0     C 8127   5.047   8.098  10.761 -0.1057  0.4773 -0.3457
   61MOL0     C 8128   5.029   8.239  10.763  0.0546 -0.8145  0.6459
   61MOL0     C 8129   5.124   8.036  10.665  0.3872  0.6179  0.3864
   61MOL0     C 8130   5.223   8.095  10.577  0.2847 -0.1858  0.1782
   61MOL0     O 8131   5.262   8.017  10.475 -0.7411 -0.5654 -0.9883
   61MOL0     C 8132   5.385   8.028  10.423 -0.2287 -0.1405  0.1060
   61MOL0     C 8133   5.501   8.042  10.507 -0.3674 -0.1561 -0.0739
   61MOL0     C 8134   5.629   8.050  10.435  0.1644  0.0126  0.1384
   61MOL0     C 8135   5.635   8.037  10.293  0.1064  0.6800  0.2202
   61MOL0     O 8136   5.753   8.058  10.228  0.8805 -0.3454 -0.2343
   61MOL0     C 8137   5.878   8.065  10.294 -0.1185 -0.2568  0.0685
   61MOL0     C 8138   5.988   8.048  10.179  0.4529 -0.9459 -0.4232
   61MOL0     C 8139   6.097   7.943  10.222 -1.1443 -0.6591 -0.3990
   61MOL0     C 8140   6.168   8.005  10.346 -0.4222  0.2817  0.6701
   61MOL0     C 8141   6.293   7.926  10.379 -0.5308  0.2904 -0.6606
   61MOL0     C 8142   6.365   7.999  10.497  0.3950 -0.9888 -0.0843
   61MOL0     C 8143   6.466   7.923  10.587  0.4389  0.0185  0.7381
   61MOL0     C 8144   6.424   7.943  10.727  0.8876 -0.1181  0.6026
   61MOL0    Cl 8145   6.556   7.865  10.819  0.0824 -0.0574 -0.1403
   61MOL0     C 8146   5.518   8.025  10.222  0.4061  0.1707  0.1176
   61MOL0     C 8147   5.391   8.015  10.287  0.5841  0.0576 -0.0374
   61MOL0     O 8148   5.262   8.209  10.597 -0.1785  0.4863  0.1770
   61MOL0     C 8149   5.109   7.900  10.661 -0.6487 -0.5621 -0.2801
   61MOL0     C 8150   5.019   7.826  10.742 -1.4595 -0.2693  0.7206
   61MOL0     N 8151   5.093   7.266  11.203 -0.4158 -0.2563 -0.6762
   61MOL0     N 8152   5.191   7.181  11.213 -0.1141  0.0658  0.4142
   61MOL0     C 8153   6.330   6.928  11.067  0.1138 -0.0230 -0.6731
   61MOL0     C 8154   6.465   6.956  11.065 -0.5724 -0.1360  0.8184
   61MOL0     C 8155   6.874   7.197  10.961 -0.3138  0.4753 -0.3195
   61MOL0     C 8156   6.960   7.254  10.868 -0.6826 -0.2295 -1.3339
   61MOL0     C 8157   7.093   7.273  10.910 -0.3841 -0.0603  0.6847
   61MOL0     C 8158   7.144   7.268  11.040 -0.1228  0.5604  0.3497
   61MOL0     O 8159   7.266   7.313  11.083  0.0405  0.1943 -0.7840
   61MOL0     C 8160   7.357   7.371  10.995  1.6295 -0.1357  0.3665
   61MOL0     C 8161   7.461   7.412  11.089 -0.4116 -0.1016  0.5402
   61MOL0     C 8162   7.567   7.478  11.001 -0.5233 -1.3532  0.0244
   61MOL0     C 8163   7.682   7.380  10.969 -0.5732  0.0259 -0.4393
   61MOL0     C 8164   7.797   7.457  10.910 -0.7087  1.3696 -0.4076
   61MOL0     C 8165   7.896   7.498  10.854  0.4795 -0.0168 -0.2928
   61MOL0     C 8166   7.054   7.207  11.126  0.3239 -0.1738 -0.9251
   61MOL0     C 8167   6.920   7.173  11.099  0.4419 -0.4360 -0.2930
   61MOL0     H 8168   6.458   7.208  10.842 -1.5436 -0.7498 -0.5032
   61MOL0     H 8169   6.215   7.133  10.841 -1.6109  1.3724  1.9039
   61MOL0     H 8170   5.995   7.137  11.050  2.3314 -0.7013  1.0239
   61MOL0     H 8171   6.004   7.103  10.883 -0.7075 -0.7833 -0.1969
   61MOL0     H 8172   5.783   7.044  10.970  0.4054  1.2780  1.7131
   61MOL0     H 8173   5.866   6.927  10.864  0.2270 -2.1264  0.3461
   61MOL0     H 8174   5.931   6.791  11.064  1.0810  1.1331  0.6635
   61MOL0     H 8175   5.866   6.903  11.179 -0.1487  2.0969 -0.3101
   61MOL0     H 8176   5.724   6.711  11.006 -0.4321 -0.2164 -0.1165
   61MOL0     H 8177   5.722   6.734  11.178 -3.6333 -1.1172 -0.3499
   61MOL0     H 8178   5.581   6.925  10.977  1.8726  2.3844  0.9650
   61MOL0     H 8179   5.503   6.802  11.083  1.2115 -0.9853  3.7506
   61MOL0     H 8180   5.547   6.929  11.263  0.0976 -1.3977 -0.5156
   61MOL0     H 8181   5.676   7.024  11.185 -0.4626  1.5279  1.3500
   61MOL0     H 8182   5.509   7.132  11.026 -1.3795  3.2022  1.0159
   61MOL0     H 8183   5.377   7.034  11.098  0.4661 -0.5782 -0.8927
   61MOL0     H 8184   5.521   7.280  11.221 -0.3993 -0.5608 -0.1573
   61MOL0     H 8185   5.457   7.160  11.333 -0.9115  0.0714  0.4633
   61MOL0     H 8186   5.340   7.478  11.210 -2.7052  1.8510 -3.0789
   61MOL0     H 8187   5.048   7.551  11.316  2.7627  2.0868 -0.7820
   61MOL0     H 8188   5.115   7.605  11.168 -1.0290 -0.0238 -1.3676
   61MOL0     H 8189   4.854   7.453  11.216 -0.3598  1.4545  1.8200
   61MOL0     H 8190   4.926   7.431  11.063 -0.7962 -1.1866  1.6266
   61MOL0     H 8191   4.825   7.691  11.185 -1.7428 -0.1478 -0.4327
   61MOL0     H 8192   4.759   7.605  11.052 -0.7323  2.0512 -1.0451
   61MOL0     H 8193   4.993   7.636  10.936  0.6678  0.2101 -0.4453
   61MOL0     H 8194   5.031   7.759  11.055  0.0355  0.4293  0.6159
   61MOL0     H 8195   4.899   8.091  10.906  0.8058  2.3761 -3.0949
   61MOL0     H 8196   5.112   8.293  10.810 -0.2753  0.3119 -0.0170
   61MOL0     H 8197   5.026   8.277  10.661  1.6588  2.4378  1.6741
   61MOL0     H 8198   4.942   8.269  10.822 -2.7100 -3.9206 -1.4902
   61MOL0     H 8199   5.505   8.037  10.615  0.3066 -0.9895 -0.1242
   61MOL0     H 8200   5.721   8.068  10.489  0.3153  1.8153 -0.6504
   61MOL0     H 8201   5.896   8.161  10.344  1.7218 -0.2900 -0.4426
   61MOL0     H 8202   5.888   7.984  10.367 -0.1343 -1.8389 -1.6092
   61MOL0     H 8203   5.942   8.018  10.084  2.9541  0.7370 -2.2978
   61MOL0     H 8204   6.030   8.148  10.166 -0.7416 -0.4557 -0.6486
   61MOL0     H 8205   6.167   7.927  10.140  0.7573  2.5564  0.4095
   61MOL0     H 8206   6.047   7.853  10.260  1.9503 -1.3749  2.4873
   61MOL0     H 8207   6.202   8.108  10.333  2.5593 -0.5648  1.0440
   61MOL0     H 8208   6.100   7.999  10.431 -0.5671  0.3873  0.5628
   61MOL0     H 8209   6.361   7.922  10.294  2.9076 -2.8865  1.8816
   61MOL0     H 8210   6.257   7.824  10.392 -3.2034  1.0611 -1.4585
   61MOL0     H 8211   6.415   8.078  10.440  0.0118 -0.6145  0.0999
   61MOL0     H 8212   6.287   8.041  10.561 -1.1486 -1.2293 -1.6946
   61MOL0     H 8213   6.568   7.958  10.568  0.3840 -0.5196 -0.7364
   61MOL0     H 8214   6.450   7.816  10.566  1.5260  0.1214 -0.7824
   61MOL0     H 8215   6.327   7.896  10.747  0.8395 -1.1263 -1.6596
   61MOL0     H 8216   6.412   8.049  10.746  0.3567  0.5776 -2.8496
   61MOL0     H 8217   5.536   8.033  10.116  3.1166  4.1941  0.6601
   61MOL0     H 8218   5.306   7.991  10.224  0.5244 -0.5341  0.2640
   61MOL0     H 8219   5.164   7.841  10.589 -1.3405 -2.4541  0.6718
   61MOL0     H 8220   5.001   7.722  10.714  1.4604 -0.7936  0.3889
   61MOL0     H 8221   6.294   6.869  11.150 -1.0698  2.0137  0.3499
   61MOL0     H 8222   6.549   6.904  11.111 -0.0226 -0.6452 -0.6678
   61MOL0     H 8223   6.925   7.283  10.769 -0.4990  1.4886 -0.9273
   61MOL0     H 8224   7.138   7.330  10.829 -5.3372  0.6564 -1.9934
   61MOL0     H 8225   7.398   7.301  10.923 -0.4453 -1.7582  0.6773
   61MOL0     H 8226   7.319   7.457  10.938 -1.0502  0.2875  2.6052
   61MOL0     H 8227   7.502   7.334  11.153  0.5770  0.1599  0.2459
   61MOL0     H 8228   7.420   7.491  11.152  0.3893 -0.6038  1.7296
   61MOL0     H 8229   7.599   7.562  11.063 -1.1965 -0.2020 -1.1340
   61MOL0     H 8230   7.531   7.516  10.904  1.2404  1.6704  0.4254
   61MOL0     H 8231   7.648   7.291  10.915 -1.2638 -2.6061  3.8443
   61MOL0     H 8232   7.709   7.330  11.063 -0.2254 -0.3159 -0.7135
   61MOL0     H 8233   7.984   7.548  10.819  0.9081  0.6570  1.6259
   61MOL0     H 8234   7.079   7.197  11.232 -0.1846 -0.6998 -0.8514
   61MOL0     H 8235   6.849   7.135  11.172 -0.7404  0.8047 -0.7439
   62MOL0     O 8236   6.495   5.101   8.269 -0.8299 -0.0572  0.3477
   62MOL0     C 8237   6.540   5.082   8.155 -0.6865  0.0404  0.6390
   62MOL0     O 8238   6.474   5.011   8.058  0.9603 -0.3429 -0.7066
   62MOL0     C 8239   6.344   4.992   8.088 -0.4589 -0.1706  0.6739
   62MOL0     C 8240   6.249   5.072   8.018  0.8023  0.6109 -0.9376
   62MOL0     C 8241   6.108   5.052   8.025  0.4620 -0.3593  0.1321
   62MOL0     C 8242   6.057   4.942   8.096  0.0941  0.0379 -0.4304
   62MOL0     O 8243   5.917   4.940   8.099  0.0626  0.1096 -0.3254
   62MOL0     C 8244   5.853   4.898   8.219  0.6182  0.2304 -0.2140
   62MOL0     C 8245   5.698   4.927   8.230 -0.7990  0.6983 -0.4069
   62MOL0     C 8246   5.654   4.867   8.366  0.0398 -0.1918 -0.8266
   62MOL0     C 8247   5.504   4.898   8.394 -0.5065  0.0713 -0.5169
   62MOL0     C 8248   5.451   4.883   8.540 -0.4264  0.2642 -0.3582
   62MOL0     C 8249   5.481   4.743   8.604  1.1062 -0.0841  0.5829
   62MOL0     C 8250   5.392   4.731   8.726 -0.2091  0.4330 -0.3556
   62MOL0     C 8251   5.422   4.598   8.803  0.6327 -0.2364 -0.2486
   62MOL0     N 8252   5.296   4.563   8.872 -0.0932 -0.2441  0.9735
   62MOL0     C 8253   5.238   4.629   8.972  0.0934  0.0620  1.6417
   62MOL0     C 8254   5.129   4.559   9.015 -0.9777  0.4541 -0.1100
   62MOL0     C 8255   5.046   4.615   9.119  0.1048  0.0601  0.4085
   62MOL0     C 8256   4.931   4.531   9.173 -0.1660  0.3216 -0.3849
   62MOL0     C 8257   4.936   4.528   9.329 -0.9434  0.1205  0.3653
   62MOL0     C 8258   4.803   4.467   9.379  0.0332 -1.0512 -0.3022
   62MOL0     O 8259   4.702   4.569   9.376  0.1991 -0.8368 -0.1194
   62MOL0     C 8260   4.578   4.516   9.352 -0.7926  0.2632 -0.4357
   62MOL0     C 8261   4.490   4.493   9.457  0.0072 -0.2440  0.3224
   62MOL0     C 8262   4.365   4.442   9.434  0.3242  0.8364 -0.5652
   62MOL0     C 8263   4.292   4.396   9.559  0.1865 -0.3853 -0.0667
   62MOL0     C 8264   4.316   4.436   9.299 -1.0020  0.0361 -0.8268
   62MOL0     C 8265   4.180   4.426   9.247 -0.1408 -0.4020  0.0710
   62MOL0     O 8266   4.156   4.389   9.119 -0.0598 -0.1276  0.1278
   62MOL0     C 8267   4.025   4.398   9.072 -0.4981  0.5424  0.4613
   62MOL0     C 8268   4.004   4.448   8.948 -0.3408 -0.3052 -0.2893
   62MOL0     C 8269   3.873   4.459   8.897  0.4757 -0.3832  0.0178
   62MOL0     C 8270   3.762   4.407   8.976 -0.3788  0.2064 -0.2180
   62MOL0     O 8271   3.634   4.422   8.936  0.2946 -0.2827  0.3498
   62MOL0     C 8272   3.591   4.393   8.796 -0.4832 -0.3096  0.1576
   62MOL0     C 8273   3.629   4.255   8.754 -0.6914 -0.0453 -0.9751
   62MOL0     C 8274   3.618   4.272   8.598  0.2300 -0.0561 -0.5738
   62MOL0     C 8275   3.592   4.129   8.541 -0.2656 -0.8826  1.1303
   62MOL0     C 8276   3.730   4.065   8.513 -0.3727  0.3588 -0.2746
   62MOL0     C 8277   3.706   3.929   8.442 -0.0416 -0.1886  0.1955
   62MOL0     C 8278   3.827   3.866   8.371 -1.1286 -0.3544  0.3898
   62MOL0     C 8279   3.878   3.944   8.251  0.5372 -0.1130 -1.1388
   62MOL0    Cl 8280   3.978   3.846   8.146  0.3520  0.1957 -0.1047
   62MOL0     C 8281   3.789   4.348   9.093 -0.1948 -0.4611 -0.0741
   62MOL0     C 8282   3.912   4.347   9.147  0.5260  0.2425  0.3335
   62MOL0     O 8283   4.097   4.458   9.326 -0.2349  0.1112  0.0131
   62MOL0     C 8284   4.410   4.450   9.193 -0.5699 -0.6490 -0.0568
   62MOL0     C 8285   4.544   4.486   9.220 -0.4190 -0.3589 -0.7813
   62MOL0     N 8286   5.133   4.435   8.949 -0.4829  0.4490  1.4365
   62MOL0     N 8287   5.231   4.447   8.865  0.0211 -0.8569 -0.3004
   62MOL0     C 8288   6.150   4.870   8.170 -0.0820  0.5745 -0.3011
   62MOL0     C 8289   6.290   4.891   8.169 -0.0284  0.1930  0.4117
   62MOL0     C 8290   6.681   5.136   8.118  0.1923 -0.6705  0.2491
   62MOL0     C 8291   6.732   5.252   8.178 -0.1114 -0.0926 -0.5350
   62MOL0     C 8292   6.858   5.308   8.144  0.5463  0.1212 -0.0158
   62MOL0     C 8293   6.935   5.240   8.051  0.5677 -0.4472 -0.0064
   62MOL0     O 8294   7.063   5.287   8.026  0.8351 -0.6563 -0.4192
   62MOL0     C 8295   7.164   5.189   8.014  0.3850  0.2034  0.2103
   62MOL0     C 8296   7.293   5.283   7.995  0.4734 -0.4978 -0.2239
   62MOL0     C 8297   7.337   5.381   8.109  0.1315  0.4874 -0.0757
   62MOL0     C 8298   7.444   5.339   8.203 -0.6845  0.2952 -0.6726
   62MOL0     C 8299   7.579   5.348   8.146 -0.4348  0.0039  0.8486
   62MOL0     C 8300   7.690   5.359   8.101  0.8388 -0.0631  0.4512
   62MOL0     C 8301   6.880   5.136   7.978 -0.0058  0.2237 -0.7542
   62MOL0     C 8302   6.751   5.080   8.016 -0.1617 -0.2425  0.3152
   62MOL0     H 8303   6.266   5.151   7.945 -1.4177  1.1391 -0.9455
   62MOL0     H 8304   6.037   5.115   7.972  1.8436 -0.0727 -1.4376
   62MOL0     H 8305   5.857   4.789   8.209 -2.0318  0.2645 -3.8766
   62MOL0     H 8306   5.919   4.936   8.297  1.9622  0.2930 -1.3531
   62MOL0     H 8307   5.682   5.035   8.230  0.8736  1.0161  1.5341
   62MOL0     H 8308   5.648   4.885   8.143 -1.4272 -0.8317  0.6618
   62MOL0     H 8309   5.647   4.758   8.353  0.0180 -0.5046  1.4795
   62MOL0     H 8310   5.716   4.892   8.452 -0.5097  3.0057 -1.2338
   62MOL0     H 8311   5.485   5.000   8.359  0.8341  0.0624 -1.3058
   62MOL0     H 8312   5.448   4.822   8.338 -0.1649 -1.2710  0.8974
   62MOL0     H 8313   5.481   4.968   8.603 -1.2343 -0.0032  0.4124
   62MOL0     H 8314   5.343   4.900   8.538 -0.2861  1.3121  0.0053
   62MOL0     H 8315   5.460   4.668   8.526  1.8587 -0.5536  0.8218
   62MOL0     H 8316   5.587   4.743   8.631  1.4927  3.1001 -0.5603
   62MOL0     H 8317   5.420   4.810   8.797  2.6541  1.1485 -2.1185
   62MOL0     H 8318   5.285   4.731   8.704 -0.5634  1.2297  1.2262
   62MOL0     H 8319   5.499   4.609   8.880 -1.5671  0.1392  2.0200
   62MOL0     H 8320   5.457   4.521   8.733  3.7380  0.2947  0.5453
   62MOL0     H 8321   5.277   4.724   9.007  2.3035  0.0203 -0.4873
   62MOL0     H 8322   5.111   4.649   9.201  2.9143 -3.2152 -0.2473
   62MOL0     H 8323   4.991   4.700   9.079  2.1479  1.2426 -0.0379
   62MOL0     H 8324   4.949   4.429   9.139 -2.2972 -0.3769  0.4422
   62MOL0     H 8325   4.831   4.564   9.142 -1.0502 -0.5668  1.3827
   62MOL0     H 8326   4.955   4.628   9.371  0.1672 -0.3841  1.1308
   62MOL0     H 8327   5.018   4.465   9.365  0.4973  1.6649 -0.0557
   62MOL0     H 8328   4.798   4.431   9.482  2.5176 -1.7814 -0.3556
   62MOL0     H 8329   4.776   4.379   9.321  1.2374 -0.4001 -1.9329
   62MOL0     H 8330   4.537   4.504   9.554  0.2337  1.2434  0.0673
   62MOL0     H 8331   4.256   4.481   9.618 -2.5053 -1.6466  0.2804
   62MOL0     H 8332   4.211   4.327   9.535  1.3889 -2.1470  0.7207
   62MOL0     H 8333   4.357   4.333   9.621  0.6127 -2.2322 -2.2333
   62MOL0     H 8334   4.077   4.498   8.886 -1.6177 -0.7168 -2.2302
   62MOL0     H 8335   3.846   4.520   8.811  2.3956 -1.6367 -1.5497
   62MOL0     H 8336   3.482   4.399   8.796 -0.4719 -0.0966 -0.0865
   62MOL0     H 8337   3.629   4.460   8.719 -0.8397 -2.3755 -1.9066
   62MOL0     H 8338   3.732   4.231   8.780  0.0006  2.0832 -1.5413
   62MOL0     H 8339   3.562   4.186   8.807 -0.8389  2.0331  1.7981
   62MOL0     H 8340   3.711   4.318   8.566 -0.3111  2.8229  1.6013
   62MOL0     H 8341   3.531   4.329   8.563 -1.0907 -0.4470  1.8117
   62MOL0     H 8342   3.522   4.075   8.605  0.8700 -2.1944  1.3206
   62MOL0     H 8343   3.546   4.139   8.442  2.3337 -1.2048 -0.1842
   62MOL0     H 8344   3.794   4.048   8.600  1.7123 -0.3588 -1.8608
   62MOL0     H 8345   3.790   4.129   8.448  1.3685  0.8355  1.6781
   62MOL0     H 8346   3.654   3.859   8.508  1.5482 -1.5254  0.1195
   62MOL0     H 8347   3.636   3.948   8.361  0.7889  1.4055 -0.1783
   62MOL0     H 8348   3.810   3.761   8.345 -0.3426 -0.5114  0.4732
   62MOL0     H 8349   3.916   3.857   8.435 -1.6440  1.0456  1.3651
   62MOL0     H 8350   3.925   4.033   8.292 -0.6939  0.5326 -1.0819
   62MOL0     H 8351   3.787   3.971   8.195 -0.3246 -2.6412 -1.1062
   62MOL0     H 8352   3.709   4.325   9.163  0.7431 -3.0161  0.2989
   62MOL0     H 8353   3.935   4.303   9.244 -0.1980  2.1479  1.4225
   62MOL0     H 8354   4.377   4.456   9.089  2.1864 -1.0091 -1.0253
   62MOL0     H 8355   4.614   4.495   9.137  0.4833 -0.9013 -0.1006
   62MOL0     H 8356   6.115   4.787   8.231 -2.0856  2.1818  0.8901
   62MOL0     H 8357   6.346   4.816   8.224 -1.1905 -1.8436 -1.0372
   62MOL0     H 8358   6.676   5.311   8.251  0.9768 -0.3214  0.5059
   62MOL0     H 8359   6.887   5.395   8.202 -1.1784  0.0574  0.9977
   62MOL0     H 8360   7.163   5.129   8.105 -1.1715 -1.0817 -0.6053
   62MOL0     H 8361   7.152   5.119   7.931  5.6035 -0.9021  0.0059
   62MOL0     H 8362   7.287   5.342   7.903 -0.3779 -1.6398 -0.9351
   62MOL0     H 8363   7.367   5.205   7.975  3.0893  1.2190  2.0560
   62MOL0     H 8364   7.252   5.417   8.168  0.6519 -1.3658  1.9355
   62MOL0     H 8365   7.378   5.469   8.059 -0.4230 -1.0625 -3.5767
   62MOL0     H 8366   7.438   5.234   8.235  0.9060 -0.5547 -2.9056
   62MOL0     H 8367   7.449   5.398   8.295  2.9209 -0.5118 -0.2076
   62MOL0     H 8368   7.793   5.356   8.071  0.7289 -3.8001  0.0595
   62MOL0     H 8369   6.931   5.083   7.898 -0.7534 -0.4576 -0.7855
   62MOL0     H 8370   6.697   4.998   7.969  1.4496 -1.1962  0.0356
   63MOL0     O 8371   2.436   4.447   9.397  0.5449 -0.7931 -0.0998
   63MOL0     C 8372   2.529   4.380   9.354  0.1438 -0.1076 -0.0516
   63MOL0     O 8373   2.527   4.252   9.316  0.2626 -0.0978  0.5403
   63MOL0     C 8374   2.408   4.191   9.316  0.1632 -0.5806  0.6310
   63MOL0     C 8375   2.392   4.093   9.213 -0.0131 -0.2083  0.2327
   63MOL0     C 8376   2.287   3.999   9.219 -0.3868 -0.6462  0.9548
   63MOL0     C 8377   2.195   4.005   9.323 -0.5726  0.0349  0.6226
   63MOL0     O 8378   2.086   3.913   9.319 -0.2279  0.5236  0.1783
   63MOL0     C 8379   1.956   3.968   9.329 -0.7283 -0.1852  0.4999
   63MOL0     C 8380   1.842   3.872   9.299 -0.9110 -0.3861  0.3105
   63MOL0     C 8381   1.705   3.940   9.287 -0.1236  0.6236  0.3426
   63MOL0     C 8382   1.587   3.842   9.253  0.1187  0.5710 -0.4183
   63MOL0     C 8383   1.455   3.919   9.260 -1.2460  0.5300  0.1470
   63MOL0     C 8384   1.401   3.921   9.400 -0.1068 -0.2408 -0.6790
   63MOL0     C 8385   1.257   3.963   9.418 -0.2647 -0.0607  0.2878
   63MOL0     C 8386   1.211   3.904   9.561 -0.0539 -0.3191 -0.5819
   63MOL0     N 8387   1.081   3.950   9.600  0.2954 -0.1299  0.5982
   63MOL0     C 8388   1.052   4.072   9.646  1.3647  0.1120  0.1686
   63MOL0     C 8389   0.915   4.063   9.675  0.7960  0.3950  0.3669
   63MOL0     C 8390   0.821   4.167   9.710  0.3093 -0.2096 -0.9034
   63MOL0     C 8391   0.754   4.236   9.591 -0.5982 -0.0842  0.3895
   63MOL0     C 8392   0.655   4.154   9.509 -0.4564  1.4402  0.8746
   63MOL0     C 8393   0.525   4.125   9.576  0.6824  0.3277 -1.0040
   63MOL0     O 8394   0.462   4.250   9.581  0.0758 -0.1878 -0.9209
   63MOL0     C 8395   0.347   4.254   9.649  0.7380 -1.1555 -0.0978
   63MOL0     C 8396   0.270   4.153   9.713 -0.2125  0.1828  0.0976
   63MOL0     C 8397   0.152   4.172   9.784  1.0050 -0.0426 -0.9209
   63MOL0     C 8398   0.114   4.036   9.861 -0.1315  0.0015  0.3246
   63MOL0     C 8399   0.108   4.304   9.802  0.9225 -0.2445  0.5839
   63MOL0     C 8400  -0.018   4.334   9.886  0.3817  0.2142  1.0709
   63MOL0     O 8401  -0.044   4.241   9.986  0.2892 -0.2610  0.6066
   63MOL0     C 8402  -0.156   4.267  10.060 -0.6192 -0.3988  1.2066
   63MOL0     C 8403  -0.140   4.259  10.192 -0.7078 -0.7055  0.0199
   63MOL0     C 8404  -0.254   4.269  10.274 -0.8633 -0.6860 -0.5997
   63MOL0     C 8405  -0.381   4.281  10.213 -0.0365  0.0027 -0.2087
   63MOL0     O 8406  -0.501   4.285  10.263  0.8749 -0.0280 -0.1868
   63MOL0     C 8407  -0.518   4.250  10.397  0.1012  0.4442  0.2363
   63MOL0     C 8408  -0.668   4.238  10.420  0.4556  0.4482 -0.5665
   63MOL0     C 8409  -0.734   4.375  10.416 -0.7649  0.2272 -0.3097
   63MOL0     C 8410  -0.699   4.464  10.544  0.2960  0.9652  0.7729
   63MOL0     C 8411  -0.820   4.561  10.551  0.9717  0.5239  0.4112
   63MOL0     C 8412  -0.797   4.671  10.653 -0.1398  0.6027 -0.5604
   63MOL0     C 8413  -0.913   4.773  10.671 -0.4908  0.4157  0.1352
   63MOL0     C 8414  -0.964   4.830  10.548 -0.2970  0.3542 -0.6615
   63MOL0    Cl 8415  -0.848   4.924  10.453  0.3110 -0.0357  0.0031
   63MOL0     C 8416  -0.390   4.283  10.073  0.6188  0.9109 -0.3187
   63MOL0     C 8417  -0.282   4.280   9.999 -0.1467 -0.2481  0.4710
   63MOL0     O 8418  -0.070   4.444   9.870  0.8256 -0.8959 -0.0528
   63MOL0     C 8419   0.169   4.401   9.719  0.8069  0.0110  0.0337
   63MOL0     C 8420   0.285   4.378   9.649 -0.2568  0.1724 -0.5886
   63MOL0     N 8421   0.870   3.937   9.635 -0.0828 -0.5430 -0.9754
   63MOL0     N 8422   0.975   3.871   9.599  0.0645  0.2129 -0.9070
   63MOL0     C 8423   2.208   4.102   9.427 -0.2387 -0.0264  0.7616
   63MOL0     C 8424   2.320   4.181   9.422 -0.4416 -0.3740 -0.4339
   63MOL0     C 8425   2.644   4.456   9.325 -0.5076 -1.3611  0.2343
   63MOL0     C 8426   2.760   4.390   9.290 -0.6584 -0.8069 -0.0769
   63MOL0     C 8427   2.881   4.456   9.260  0.2974 -0.2005  0.1166
   63MOL0     C 8428   2.894   4.589   9.275 -0.2161 -0.2965  0.6457
   63MOL0     O 8429   3.008   4.662   9.247  0.5532 -0.0628 -0.1377
   63MOL0     C 8430   3.133   4.602   9.290  1.5954  0.0573 -0.2351
   63MOL0     C 8431   3.249   4.616   9.193  0.4139  0.4716 -0.5647
   63MOL0     C 8432   3.192   4.551   9.063 -0.0311  0.2876  0.2739
   63MOL0     C 8433   3.272   4.581   8.934  0.8625 -0.2622 -0.3596
   63MOL0     C 8434   3.279   4.723   8.910  0.2275 -0.2241  0.7443
   63MOL0     C 8435   3.274   4.842   8.886 -0.9324  1.0456 -0.5626
   63MOL0     C 8436   2.774   4.661   9.302 -0.0979  0.4773 -0.6563
   63MOL0     C 8437   2.656   4.600   9.335  0.5145 -0.4685  0.5826
   63MOL0     H 8438   2.461   4.090   9.129 -1.2099 -0.5730 -0.7669
   63MOL0     H 8439   2.278   3.945   9.125  0.7015 -1.8239  1.4995
   63MOL0     H 8440   1.935   4.002   9.431  0.1506 -1.0238  0.9668
   63MOL0     H 8441   1.950   4.052   9.259  1.1559  0.0124  0.5349
   63MOL0     H 8442   1.868   3.830   9.201 -0.2091  1.3175 -0.2714
   63MOL0     H 8443   1.851   3.801   9.381  2.4259  0.8731  1.1793
   63MOL0     H 8444   1.684   3.982   9.386 -0.8802 -1.6461  1.2080
   63MOL0     H 8445   1.709   4.024   9.217 -1.8546 -0.0373 -0.6344
   63MOL0     H 8446   1.600   3.799   9.153 -1.2093  1.5185 -1.0290
   63MOL0     H 8447   1.585   3.756   9.321  1.0976  1.4538  0.7515
   63MOL0     H 8448   1.471   4.018   9.216 -1.8562  0.7841  0.4807
   63MOL0     H 8449   1.379   3.861   9.208 -3.0361  0.6466  2.4432
   63MOL0     H 8450   1.413   3.819   9.438 -3.2024 -0.4818 -0.0990
   63MOL0     H 8451   1.470   3.986   9.455 -0.2344  1.3335 -2.2818
   63MOL0     H 8452   1.246   4.072   9.421 -1.1759 -0.1586  0.7047
   63MOL0     H 8453   1.191   3.928   9.338 -0.6483  0.2137  0.4822
   63MOL0     H 8454   1.282   3.934   9.638  0.4149 -2.7881  0.0320
   63MOL0     H 8455   1.224   3.796   9.555  1.7503 -0.1148 -1.2755
   63MOL0     H 8456   1.116   4.157   9.664  0.3670  0.7798  0.6748
   63MOL0     H 8457   0.743   4.115   9.765  0.3073 -2.2123 -2.6901
   63MOL0     H 8458   0.862   4.238   9.783 -1.1112 -1.6813  1.4328
   63MOL0     H 8459   0.835   4.260   9.521 -2.9683 -1.6270 -3.2372
   63MOL0     H 8460   0.710   4.324   9.640 -0.1132 -1.4646  3.5378
   63MOL0     H 8461   0.707   4.062   9.480 -0.4435  1.0901  1.9545
   63MOL0     H 8462   0.633   4.205   9.415  0.9463  0.8902  0.2122
   63MOL0     H 8463   0.542   4.084   9.677 -0.9764  0.6534 -0.5708
   63MOL0     H 8464   0.468   4.053   9.517 -0.4853  1.5271 -1.3805
   63MOL0     H 8465   0.321   4.057   9.706  1.7275  1.2220 -0.6335
   63MOL0     H 8466   0.132   4.039   9.969 -3.0967 -1.0818  0.9525
   63MOL0     H 8467   0.005   4.027   9.850 -0.0405  0.6016 -1.5040
   63MOL0     H 8468   0.164   3.953   9.810  0.6278  1.0364 -0.6647
   63MOL0     H 8469  -0.037   4.251  10.227  0.2927 -0.7880 -2.6901
   63MOL0     H 8470  -0.242   4.249  10.380  1.4066  0.5433 -0.5471
   63MOL0     H 8471  -0.466   4.155  10.409  1.6590  1.2281 -0.0490
   63MOL0     H 8472  -0.458   4.308  10.468 -0.4431 -0.7465  1.7141
   63MOL0     H 8473  -0.712   4.170  10.348 -0.4944 -2.1688  2.2506
   63MOL0     H 8474  -0.689   4.197  10.520 -1.1134  1.9300 -0.2273
   63MOL0     H 8475  -0.842   4.359  10.413 -0.7911  0.2871  0.2737
   63MOL0     H 8476  -0.700   4.426  10.325 -0.8609  0.8534 -0.0023
   63MOL0     H 8477  -0.694   4.406  10.636  0.1510 -0.4186 -0.0509
   63MOL0     H 8478  -0.612   4.525  10.518 -0.2700  1.4998  0.0733
   63MOL0     H 8479  -0.916   4.511  10.567  0.6088  1.2759  0.6508
   63MOL0     H 8480  -0.831   4.601  10.450 -1.2549 -0.9026 -0.0049
   63MOL0     H 8481  -0.777   4.622  10.748 -2.5919 -1.9495 -1.2193
   63MOL0     H 8482  -0.706   4.728  10.634  0.5668  0.5419  2.2587
   63MOL0     H 8483  -0.882   4.854  10.738 -1.5733 -0.1290  1.3332
   63MOL0     H 8484  -0.982   4.718  10.736  1.5448 -0.2472  1.8515
   63MOL0     H 8485  -1.050   4.896  10.565  0.1715  0.8095 -0.0201
   63MOL0     H 8486  -0.997   4.747  10.486  1.1838 -2.3690  1.9642
   63MOL0     H 8487  -0.481   4.298  10.017 -0.3515 -1.1153  0.6159
   63MOL0     H 8488  -0.274   4.279   9.891  2.6842 -2.5926  0.5682
   63MOL0     H 8489   0.126   4.501   9.729 -1.0162 -0.9309  3.1148
   63MOL0     H 8490   0.328   4.468   9.607 -0.3857 -0.1865 -1.5212
   63MOL0     H 8491   2.141   4.117   9.511  1.0944 -0.9615  2.0357
   63MOL0     H 8492   2.331   4.254   9.502  0.7557  2.4976 -2.9891
   63MOL0     H 8493   2.761   4.282   9.278 -1.5883 -0.9483  0.9255
   63MOL0     H 8494   2.959   4.394   9.217 -1.0211 -2.2630  0.5335
   63MOL0     H 8495   3.158   4.654   9.383  1.4506  0.9604 -0.6963
   63MOL0     H 8496   3.121   4.497   9.320 -0.2683 -0.6660 -3.0275
   63MOL0     H 8497   3.338   4.563   9.228 -1.1267 -1.9656 -0.0922
   63MOL0     H 8498   3.265   4.724   9.188 -0.6132  0.7767  1.6392
   63MOL0     H 8499   3.090   4.575   9.032 -0.5972 -0.0145  1.8106
   63MOL0     H 8500   3.179   4.444   9.080 -1.7039  0.5815  1.1286
   63MOL0     H 8501   3.220   4.530   8.852 -1.4012 -3.5705  2.7903
   63MOL0     H 8502   3.374   4.541   8.939  0.4405 -1.2607  0.5816
   63MOL0     H 8503   3.243   4.940   8.855 -0.8630  0.6906 -1.7923
   63MOL0     H 8504   2.776   4.770   9.296  0.2054  0.5327  0.2782
   63MOL0     H 8505   2.575   4.659   9.377 -0.4493 -0.6053 -1.0311
   64MOL0     O 8506   8.701   9.641   6.854 -0.1093 -0.2403 -0.4800
   64MOL0     C 8507   8.674   9.526   6.841  0.3973 -0.1004  0.2209
   64MOL0     O 8508   8.547   9.466   6.826 -0.5805 -0.1239  0.1635
   64MOL0     C 8509   8.438   9.546   6.793  0.1831  1.0848  0.3017
   64MOL0     C 8510   8.357   9.606   6.885 -0.3116 -0.4046  0.1743
   64MOL0     C 8511   8.244   9.687   6.848  0.5216  0.3803 -0.0594
   64MOL0     C 8512   8.204   9.692   6.719  0.6703  0.2263  0.2383
   64MOL0     O 8513   8.085   9.740   6.682 -0.3702 -0.0259  0.5447
   64MOL0     C 8514   8.044   9.859   6.748 -0.2558 -0.5116 -0.2053
   64MOL0     C 8515   7.920   9.913   6.663 -0.6348 -0.2363 -1.1455
   64MOL0     C 8516   7.795   9.829   6.671  0.4769 -1.4471 -0.7224
   64MOL0     C 8517   7.666   9.898   6.610  0.4536  0.2109  0.5632
   64MOL0     C 8518   7.549   9.795   6.630 -0.2901  0.3561  0.4876
   64MOL0     C 8519   7.423   9.875   6.608 -0.6245  0.5316  0.0703
   64MOL0     C 8520   7.296   9.795   6.629 -0.0732  0.1302 -0.0645
   64MOL0     C 8521   7.187   9.843   6.538  0.7352  0.3763  1.0359
   64MOL0     N 8522   7.053   9.773   6.560 -0.1124  0.3022 -0.0278
   64MOL0     C 8523   7.033   9.642   6.581  0.1757 -0.3255  0.4324
   64MOL0     C 8524   6.896   9.635   6.601  0.3350 -0.1814 -0.0325
   64MOL0     C 8525   6.813   9.513   6.624 -0.5480 -0.7524 -0.6469
   64MOL0     C 8526   6.804   9.430   6.499  0.4559  0.3522 -0.5857
   64MOL0     C 8527   6.726   9.301   6.526 -0.9375 -0.1934  0.8480
   64MOL0     C 8528   6.578   9.327   6.551 -0.3590 -0.3062 -0.0335
   64MOL0     O 8529   6.523   9.375   6.432  0.0128 -0.7318 -0.7296
   64MOL0     C 8530   6.386   9.376   6.431 -0.4960 -0.2273 -0.7301
   64MOL0     C 8531   6.322   9.494   6.416  0.1645  0.0016  0.1731
   64MOL0     C 8532   6.181   9.501   6.402  0.3457 -0.0887  0.2902
   64MOL0     C 8533   6.119   9.633   6.358  0.2042  0.7908 -0.8841
   64MOL0     C 8534   6.103   9.379   6.425 -0.3324 -0.5457 -0.7083
   64MOL0     C 8535   5.962   9.368   6.433  0.5299 -0.0933  0.0974
   64MOL0     O 8536   5.897   9.479   6.470  0.4441 -0.3437 -0.5916
   64MOL0     C 8537   5.761   9.485   6.450 -0.9622  1.1291  0.2748
   64MOL0     C 8538   5.709   9.560   6.350 -0.2820  0.4236 -0.4948
   64MOL0     C 8539   5.566   9.566   6.331  0.3226  0.4197  0.0838
   64MOL0     C 8540   5.484   9.483   6.419 -0.1750 -0.0021 -0.5725
   64MOL0     O 8541   5.347   9.487   6.407 -0.6409  0.0019 -0.0021
   64MOL0     C 8542   5.299   9.535   6.283 -0.6252  0.2355  0.2585
   64MOL0     C 8543   5.155   9.496   6.253 -0.6600  0.1496 -0.0010
   64MOL0     C 8544   5.067   9.625   6.237 -1.1550  0.3452 -0.1889
   64MOL0     C 8545   5.088   9.686   6.100  0.3190  0.5346  0.4673
   64MOL0     C 8546   5.014   9.809   6.072  0.0983  0.2959  0.3332
   64MOL0     C 8547   5.101   9.928   6.086  0.0444  0.2586 -0.2113
   64MOL0     C 8548   5.021  10.053   6.075 -0.0305 -0.1200  0.1315
   64MOL0     C 8549   4.973  10.104   6.208 -0.2456 -0.4832 -0.1019
   64MOL0    Cl 8550   4.892  10.258   6.189 -0.1889 -0.1263 -0.5028
   64MOL0     C 8551   5.542   9.393   6.509  0.0682  0.6876 -0.4801
   64MOL0     C 8552   5.680   9.402   6.526  0.0654  1.1822  0.4536
   64MOL0     O 8553   5.906   9.272   6.381  0.3028  0.3235  0.6599
   64MOL0     C 8554   6.172   9.264   6.451  0.1481  0.1112  0.0089
   64MOL0     C 8555   6.316   9.259   6.443 -0.4353 -0.0934 -0.4717
   64MOL0     N 8556   6.851   9.769   6.624 -0.9513  0.3073 -0.1484
   64MOL0     N 8557   6.949   9.839   6.594 -0.3167 -0.0716 -0.0124
   64MOL0     C 8558   8.290   9.626   6.622  0.4208 -0.1844 -0.0441
   64MOL0     C 8559   8.412   9.563   6.652  0.2297 -0.2585 -0.2832
   64MOL0     C 8560   8.787   9.441   6.829 -0.8634  0.8191 -0.0626
   64MOL0     C 8561   8.914   9.490   6.868 -0.5796  0.8719  0.3878
   64MOL0     C 8562   9.021   9.394   6.868 -0.2160 -0.9305 -0.1889
   64MOL0     C 8563   9.009   9.261   6.832  0.1498  0.4873 -0.4428
   64MOL0     O 8564   9.115   9.177   6.827 -0.3364 -0.3278  0.2950
   64MOL0     C 8565   9.246   9.240   6.789  0.0074 -0.3601 -0.3338
   64MOL0     C 8566   9.331   9.150   6.695 -0.4080  0.1910  0.2199
   64MOL0     C 8567   9.276   9.148   6.559 -0.6201 -0.5863 -0.1539
   64MOL0     C 8568   9.343   9.035   6.478  0.5347 -1.2396 -1.3409
   64MOL0     C 8569   9.282   9.030   6.347 -0.0448 -0.0097 -0.0304
   64MOL0     C 8570   9.213   9.011   6.251  0.7364 -0.5916  0.5250
   64MOL0     C 8571   8.885   9.218   6.782 -0.4403 -0.4315  0.2549
   64MOL0     C 8572   8.777   9.306   6.793 -0.1630 -0.0700 -0.3122
   64MOL0     H 8573   8.391   9.588   6.986  1.6323 -0.6577 -0.4820
   64MOL0     H 8574   8.179   9.719   6.929 -0.3245  1.2398 -1.0419
   64MOL0     H 8575   8.008   9.840   6.850 -1.7753  1.6513 -0.2844
   64MOL0     H 8576   8.122   9.935   6.752 -0.1247 -0.6354  3.8636
   64MOL0     H 8577   7.885  10.010   6.699  0.3474 -0.5446  0.7704
   64MOL0     H 8578   7.954   9.919   6.559 -1.0239 -1.3616 -1.3598
   64MOL0     H 8579   7.817   9.736   6.617  1.4151 -0.0593 -2.8626
   64MOL0     H 8580   7.770   9.813   6.777 -3.5898  4.7902 -0.2377
   64MOL0     H 8581   7.646   9.986   6.671 -0.3257  2.3140 -2.4822
   64MOL0     H 8582   7.690   9.937   6.510  3.0808  1.2906  1.5131
   64MOL0     H 8583   7.558   9.719   6.552 -0.5458  0.8065  0.0129
   64MOL0     H 8584   7.551   9.748   6.729  1.1864 -0.7259 -0.0177
   64MOL0     H 8585   7.422   9.952   6.687  1.8675 -0.4905  1.2313
   64MOL0     H 8586   7.428   9.928   6.513  2.2781  2.1501  0.9718
   64MOL0     H 8587   7.315   9.689   6.607  1.2200  0.2973  0.1898
   64MOL0     H 8588   7.271   9.800   6.735 -1.0131 -0.1902 -0.2578
   64MOL0     H 8589   7.206   9.840   6.430 -0.5907 -0.4551  0.8050
   64MOL0     H 8590   7.170   9.950   6.555  1.9725  0.9864 -1.1108
   64MOL0     H 8591   7.107   9.563   6.573  0.7875  0.4093 -2.4902
   64MOL0     H 8592   6.856   9.457   6.708  0.2898  0.1457 -0.4576
   64MOL0     H 8593   6.715   9.540   6.663  0.6171 -0.7902  2.7106
   64MOL0     H 8594   6.904   9.405   6.464  0.9142 -2.5303  2.2502
   64MOL0     H 8595   6.751   9.496   6.430  1.3659 -1.4506 -3.1719
   64MOL0     H 8596   6.766   9.237   6.605  0.8575  2.6649  2.4312
   64MOL0     H 8597   6.746   9.244   6.434  0.0791  1.6135 -0.1186
   64MOL0     H 8598   6.575   9.397   6.634 -1.8081 -2.1516  1.5881
   64MOL0     H 8599   6.527   9.236   6.587 -3.2302  0.5451 -1.6097
   64MOL0     H 8600   6.386   9.579   6.393 -1.2100  1.9314  2.8994
   64MOL0     H 8601   6.041   9.664   6.429  0.2899 -1.8275  0.4839
   64MOL0     H 8602   6.197   9.708   6.342 -0.6479  1.5309 -1.6668
   64MOL0     H 8603   6.081   9.629   6.256  0.0667 -0.8127 -0.7920
   64MOL0     H 8604   5.771   9.614   6.279 -1.7162 -0.8237 -2.7984
   64MOL0     H 8605   5.527   9.626   6.249  0.3602 -0.0776 -0.2985
   64MOL0     H 8606   5.307   9.644   6.284  1.0900  0.1653 -0.8907
   64MOL0     H 8607   5.357   9.497   6.198 -1.2943 -1.0086  0.3328
   64MOL0     H 8608   5.154   9.442   6.157 -1.9445  1.7967 -0.9720
   64MOL0     H 8609   5.103   9.438   6.330 -2.4533  1.8754  0.1646
   64MOL0     H 8610   5.086   9.685   6.327  1.1656 -0.7130  0.0770
   64MOL0     H 8611   4.962   9.597   6.250 -0.3723 -2.8827 -0.1977
   64MOL0     H 8612   5.193   9.705   6.074 -0.8815  4.8095 -2.3431
   64MOL0     H 8613   5.061   9.606   6.030  1.1765  0.5199  0.1317
   64MOL0     H 8614   4.934   9.821   6.145 -0.8815  2.0400 -0.9274
   64MOL0     H 8615   4.974   9.810   5.970 -1.5414  2.7758  0.9261
   64MOL0     H 8616   5.161   9.926   6.178  0.3740 -0.7478 -0.4392
   64MOL0     H 8617   5.162   9.918   5.996 -3.2590 -0.1989 -2.5835
   64MOL0     H 8618   4.936  10.041   6.007 -3.0036  0.3752  3.5032
   64MOL0     H 8619   5.093  10.128   6.040  2.5346 -1.6420  1.8609
   64MOL0     H 8620   5.062  10.135   6.264 -0.6894 -1.9242  1.4574
   64MOL0     H 8621   4.914  10.028   6.259 -0.3038 -0.6460 -0.4100
   64MOL0     H 8622   5.473   9.335   6.570 -3.1293  3.1115 -1.5019
   64MOL0     H 8623   5.722   9.336   6.601  0.1826  0.1252 -0.5154
   64MOL0     H 8624   6.120   9.173   6.479 -0.1412  0.6845  1.4280
   64MOL0     H 8625   6.384   9.174   6.447  0.7169  0.8729  1.6695
   64MOL0     H 8626   8.261   9.643   6.519 -1.6722 -2.4363  0.0776
   64MOL0     H 8627   8.482   9.519   6.583  1.8175  1.9422 -0.1625
   64MOL0     H 8628   8.932   9.593   6.900 -2.0720  0.7985  1.5463
   64MOL0     H 8629   9.119   9.435   6.890 -0.9196  1.0181 -0.4971
   64MOL0     H 8630   9.234   9.331   6.730  0.5704 -1.2251 -1.8390
   64MOL0     H 8631   9.312   9.259   6.874 -1.4124  1.6449  0.3756
   64MOL0     H 8632   9.337   9.048   6.735  1.6583  0.3749  0.4882
   64MOL0     H 8633   9.436   9.181   6.690  0.3307 -2.0289  0.6765
   64MOL0     H 8634   9.286   9.246   6.512  0.9127  0.1690  1.6467
   64MOL0     H 8635   9.171   9.118   6.570  0.1202 -2.5578  2.3578
   64MOL0     H 8636   9.324   8.944   6.536 -0.4902  0.6905  1.6040
   64MOL0     H 8637   9.450   9.055   6.467  0.2903 -0.5016 -2.6069
   64MOL0     H 8638   9.132   8.997   6.182 -1.2710  1.1402  2.3903
   64MOL0     H 8639   8.854   9.120   6.748 -0.5137 -0.9511  1.7470
   64MOL0     H 8640   8.683   9.259   6.766  0.5695 -2.8108  1.4204
   65MOL0     O 8641   7.258   6.849   3.083 -0.0527  0.0194  0.3709
   65MOL0     C 8642   7.228   6.963   3.042  0.7182  0.2224  0.5488
   65MOL0     O 8643   7.104   7.026   3.061  0.7808  0.4077 -0.3601
   65MOL0     C 8644   7.007   6.967   3.140  0.0871  1.1593  0.5513
   65MOL0     C 8645   7.027   6.905   3.269  0.6805 -0.5671  0.8006
   65MOL0     C 8646   6.915   6.848   3.330 -0.0298  0.2206  0.1155
   65MOL0     C 8647   6.785   6.852   3.279 -0.8618  0.9300  0.4041
   65MOL0     O 8648   6.677   6.813   3.358  0.2600 -0.4214 -0.2181
   65MOL0     C 8649   6.694   6.753   3.489  0.5462  1.1125  0.1743
   65MOL0     C 8650   6.561   6.679   3.544  0.4826 -0.9759 -0.9883
   65MOL0     C 8651   6.447   6.778   3.547  0.0001  0.3009  1.2907
   65MOL0     C 8652   6.315   6.709   3.600 -0.1416 -0.3324  0.0271
   65MOL0     C 8653   6.208   6.818   3.629  0.0237  0.4805 -0.3620
   65MOL0     C 8654   6.128   6.763   3.746 -0.3797  0.0713 -0.4018
   65MOL0     C 8655   6.025   6.876   3.782 -0.6981 -0.5771 -0.3991
   65MOL0     C 8656   5.920   6.832   3.878 -0.6718  0.5427  0.5053
   65MOL0     N 8657   5.836   6.945   3.907 -0.7458 -0.6071  0.2631
   65MOL0     C 8658   5.705   6.970   3.860  0.4877  1.2297 -0.0177
   65MOL0     C 8659   5.665   7.083   3.917  0.4603 -0.3871  0.4447
   65MOL0     C 8660   5.523   7.144   3.901 -0.6148  0.1711 -0.5131
   65MOL0     C 8661   5.429   7.143   4.025  0.0271 -0.0494  0.4537
   65MOL0     C 8662   5.426   7.001   4.076  0.3611  1.2706  0.8858
   65MOL0     C 8663   5.309   6.984   4.179 -0.7435  0.3868  0.4955
   65MOL0     O 8664   5.193   6.959   4.106 -0.2892 -0.3214 -0.1088
   65MOL0     C 8665   5.066   6.978   4.164  0.0488 -0.5933 -0.8831
   65MOL0     C 8666   4.959   6.941   4.089 -0.3541  0.2375  0.4273
   65MOL0     C 8667   4.827   6.955   4.140 -0.0435  0.6873 -0.0056
   65MOL0     C 8668   4.720   6.877   4.074 -0.0727  0.4756  0.2564
   65MOL0     C 8669   4.798   7.016   4.264  0.0926  0.2551  0.1814
   65MOL0     C 8670   4.667   7.058   4.304  0.4715 -0.1523 -0.4591
   65MOL0     O 8671   4.651   7.090   4.434  0.4559  0.3320 -0.1856
   65MOL0     C 8672   4.520   7.088   4.487 -0.1602 -0.4575 -0.3338
   65MOL0     C 8673   4.508   7.188   4.587  0.3413 -0.5037 -0.8878
   65MOL0     C 8674   4.388   7.211   4.656 -0.0910  0.3694  1.1974
   65MOL0     C 8675   4.277   7.124   4.632 -0.1467 -0.4025 -1.0220
   65MOL0     O 8676   4.172   7.133   4.724 -1.0633 -0.6844  0.4304
   65MOL0     C 8677   4.035   7.115   4.676 -0.1537  0.2955 -0.0332
   65MOL0     C 8678   3.931   7.184   4.769  0.4899  0.3591  0.2416
   65MOL0     C 8679   3.787   7.155   4.723  0.3347  0.2091 -0.7314
   65MOL0     C 8680   3.681   7.194   4.812  0.5050  0.4760 -0.6601
   65MOL0     C 8681   3.537   7.146   4.761 -0.1216  0.0931  0.2884
   65MOL0     C 8682   3.509   6.993   4.755 -0.5389 -0.5630 -0.1971
   65MOL0     C 8683   3.355   6.971   4.761 -0.2139  0.0228 -0.9413
   65MOL0     C 8684   3.296   7.018   4.635  0.3685  0.2881  0.6718
   65MOL0    Cl 8685   3.364   6.956   4.481  0.0022  0.3005 -0.2560
   65MOL0     C 8686   4.285   7.022   4.538 -0.4948 -0.2838 -0.6307
   65MOL0     C 8687   4.414   7.006   4.464 -0.3876 -0.6115 -0.4085
   65MOL0     O 8688   4.583   7.078   4.221  0.6378 -0.6691  1.1576
   65MOL0     C 8689   4.912   7.067   4.328  0.4531  0.0639  0.1506
   65MOL0     C 8690   5.041   7.046   4.279  0.2232  0.4111 -1.2544
   65MOL0     N 8691   5.765   7.119   4.012  0.4479  0.7271  0.2804
   65MOL0     N 8692   5.863   7.036   4.005 -0.7083 -0.1583 -0.5704
   65MOL0     C 8693   6.771   6.899   3.149  0.5891 -0.2753 -0.4152
   65MOL0     C 8694   6.880   6.955   3.080  0.3649  0.4683  0.6320
   65MOL0     C 8695   7.341   7.045   2.984  0.4823 -0.4514 -0.7354
   65MOL0     C 8696   7.317   7.178   2.943  0.6009 -0.3215 -0.2412
   65MOL0     C 8697   7.420   7.259   2.891 -0.2396 -0.4359  0.3608
   65MOL0     C 8698   7.554   7.220   2.883 -0.0944 -0.4508  0.3256
   65MOL0     O 8699   7.666   7.286   2.837  0.7728 -0.8892  0.5471
   65MOL0     C 8700   7.660   7.432   2.843 -0.1096  0.0394 -0.2295
   65MOL0     C 8701   7.764   7.487   2.747 -0.2679  0.4089 -0.6096
   65MOL0     C 8702   7.704   7.447   2.602 -0.7786 -0.3969  0.3315
   65MOL0     C 8703   7.803   7.480   2.495 -0.5453 -0.1965 -0.4616
   65MOL0     C 8704   7.777   7.459   2.351 -0.5658  0.4083 -0.0121
   65MOL0     C 8705   7.732   7.440   2.240  0.7069 -0.7914  0.2164
   65MOL0     C 8706   7.580   7.091   2.924  0.0265 -0.4221 -0.4559
   65MOL0     C 8707   7.477   7.012   2.986 -0.0950 -0.7009  0.7488
   65MOL0     H 8708   7.114   6.929   3.329  0.4106  2.0830  0.2488
   65MOL0     H 8709   6.936   6.823   3.433 -0.3442 -1.8227 -0.2778
   65MOL0     H 8710   6.760   6.666   3.489  2.1786  2.2871 -0.9214
   65MOL0     H 8711   6.722   6.821   3.570  0.8871 -0.1045  1.0971
   65MOL0     H 8712   6.539   6.593   3.480  0.7826 -1.4379 -0.4796
   65MOL0     H 8713   6.576   6.648   3.648 -0.2644  0.1775 -0.5136
   65MOL0     H 8714   6.468   6.869   3.604 -0.1998  0.2829  1.3948
   65MOL0     H 8715   6.414   6.816   3.449 -2.8449  0.8927  2.3775
   65MOL0     H 8716   6.271   6.638   3.528 -0.0196 -1.7063  1.2650
   65MOL0     H 8717   6.348   6.656   3.689  0.0983 -1.1848 -0.5552
   65MOL0     H 8718   6.267   6.906   3.656 -0.3954  0.5355  0.3940
   65MOL0     H 8719   6.146   6.831   3.539  1.7364 -0.5085 -1.7610
   65MOL0     H 8720   6.063   6.686   3.704 -3.2488  1.6118  0.9175
   65MOL0     H 8721   6.186   6.721   3.828  1.3667  4.0233  0.6227
   65MOL0     H 8722   6.066   6.965   3.830  0.0409  0.4083 -2.7256
   65MOL0     H 8723   5.980   6.907   3.688 -0.3395 -2.5920 -1.2874
   65MOL0     H 8724   5.969   6.798   3.970  1.2732 -1.6925 -1.2126
   65MOL0     H 8725   5.861   6.746   3.844  2.1387 -2.4440  2.4644
   65MOL0     H 8726   5.666   6.914   3.776  1.6794  1.7611 -0.9590
   65MOL0     H 8727   5.548   7.246   3.872  6.0869 -0.9757 -0.3036
   65MOL0     H 8728   5.470   7.103   3.815 -3.6766 -1.1775  1.7935
   65MOL0     H 8729   5.329   7.167   3.988  0.2021 -3.4529 -2.8269
   65MOL0     H 8730   5.460   7.213   4.103 -2.1364  2.8283 -1.0335
   65MOL0     H 8731   5.515   6.971   4.132  0.4081 -1.2818 -0.4302
   65MOL0     H 8732   5.418   6.925   3.998 -0.2787  0.2896  1.8790
   65MOL0     H 8733   5.302   7.071   4.245  1.8798  1.6365 -0.7182
   65MOL0     H 8734   5.340   6.905   4.247 -0.7772  1.0880  1.3450
   65MOL0     H 8735   4.982   6.887   3.998 -0.8172  3.1644 -1.5939
   65MOL0     H 8736   4.759   6.790   4.020 -1.1737 -1.6116  2.6041
   65MOL0     H 8737   4.660   6.824   4.148 -2.5341  0.2464 -1.7765
   65MOL0     H 8738   4.657   6.934   4.006 -1.1869 -1.7727 -0.7013
   65MOL0     H 8739   4.594   7.251   4.606  1.0074 -1.5115 -0.4548
   65MOL0     H 8740   4.372   7.296   4.723 -2.6314 -0.0448  1.2226
   65MOL0     H 8741   4.017   7.159   4.577 -0.5321  0.6152  0.1743
   65MOL0     H 8742   4.010   7.009   4.666 -1.5317  0.6584 -0.6722
   65MOL0     H 8743   3.941   7.137   4.867 -1.1984  1.2477  0.8721
   65MOL0     H 8744   3.949   7.292   4.765 -0.0012  0.4163 -0.8026
   65MOL0     H 8745   3.764   7.048   4.712 -1.9199  0.5800 -0.1774
   65MOL0     H 8746   3.775   7.200   4.624  0.8517  2.2603  0.1030
   65MOL0     H 8747   3.701   7.161   4.915  0.8512  1.5058 -0.3894
   65MOL0     H 8748   3.677   7.303   4.803  1.5503  0.4194 -2.0731
   65MOL0     H 8749   3.523   7.179   4.658  1.1060 -0.4494 -0.0751
   65MOL0     H 8750   3.464   7.188   4.831 -1.6652 -1.7523 -0.1148
   65MOL0     H 8751   3.561   6.956   4.666  2.1445 -2.1212  1.9025
   65MOL0     H 8752   3.549   6.943   4.843  0.4834  0.7307  0.1079
   65MOL0     H 8753   3.304   7.032   4.836 -1.4974 -0.1670 -1.6419
   65MOL0     H 8754   3.336   6.865   4.779 -1.0741  0.3550  0.1994
   65MOL0     H 8755   3.294   7.127   4.632 -0.1284  0.2672 -2.1976
   65MOL0     H 8756   3.189   6.995   4.641 -0.3819  2.2555 -2.6689
   65MOL0     H 8757   4.197   6.960   4.525 -0.2095 -0.9908  0.5888
   65MOL0     H 8758   4.420   6.915   4.406  0.9418  0.2950 -1.7462
   65MOL0     H 8759   4.906   7.130   4.416 -1.1191 -0.8089  0.7055
   65MOL0     H 8760   5.117   7.099   4.336  0.6360 -2.5892  1.2042
   65MOL0     H 8761   6.673   6.900   3.104  0.9921  0.2829 -1.3114
   65MOL0     H 8762   6.875   6.996   2.980  0.6637 -0.5928  0.1713
   65MOL0     H 8763   7.220   7.226   2.936  1.4530  1.9100  1.5723
   65MOL0     H 8764   7.401   7.351   2.837  0.6897 -0.3499  0.1575
   65MOL0     H 8765   7.563   7.477   2.821  0.2295  3.6495  4.0692
   65MOL0     H 8766   7.673   7.470   2.945  1.6776 -1.2830  0.0833
   65MOL0     H 8767   7.858   7.434   2.763 -0.4569 -0.5826 -2.5114
   65MOL0     H 8768   7.783   7.594   2.763 -1.0146  0.0713  3.6514
   65MOL0     H 8769   7.615   7.508   2.584  0.8420  1.9545 -0.2064
   65MOL0     H 8770   7.675   7.343   2.588 -4.6540  0.9687 -4.6105
   65MOL0     H 8771   7.883   7.408   2.515 -0.1826  0.1678 -0.5746
   65MOL0     H 8772   7.849   7.577   2.516 -1.2893  0.3373 -1.2615
   65MOL0     H 8773   7.671   7.431   2.152  1.2163 -0.2366 -0.1993
   65MOL0     H 8774   7.681   7.051   2.929  1.9943  3.6709 -2.0788
   65MOL0     H 8775   7.510   6.914   3.019  0.8078 -1.1610 -1.3610
   66MOL0     O 8776   1.729   5.863   2.426  0.6104  0.3314 -0.4344
   66MOL0     C 8777   1.798   5.776   2.489  0.1547  0.0414  1.1614
   66MOL0     O 8778   1.753   5.688   2.591  0.4078 -1.0778  0.7316
   66MOL0     C 8779   1.623   5.704   2.642 -0.1994  1.1949  0.0886
   66MOL0     C 8780   1.578   5.579   2.683  0.1783  0.7172 -0.2194
   66MOL0     C 8781   1.460   5.574   2.749  0.1311 -0.8023  0.4501
   66MOL0     C 8782   1.372   5.687   2.755 -0.2004  0.1726 -1.5041
   66MOL0     O 8783   1.245   5.669   2.810 -0.1088 -0.5179 -0.0229
   66MOL0     C 8784   1.134   5.714   2.731  0.3818 -0.0411 -0.8322
   66MOL0     C 8785   1.018   5.699   2.841  0.8484  0.0017  0.8182
   66MOL0     C 8786   0.894   5.749   2.772  1.2191 -0.2424 -0.0366
   66MOL0     C 8787   0.767   5.726   2.856 -0.5061 -0.3212  0.1085
   66MOL0     C 8788   0.650   5.720   2.762 -0.5745 -0.0173  0.0059
   66MOL0     C 8789   0.514   5.713   2.830 -0.6465 -0.0528 -1.0660
   66MOL0     C 8790   0.383   5.678   2.749 -0.6618  0.6411  0.3152
   66MOL0     C 8791   0.249   5.729   2.813 -0.0606 -0.3076 -0.4285
   66MOL0     N 8792   0.140   5.698   2.719 -0.6660 -0.4151 -0.1951
   66MOL0     C 8793   0.131   5.756   2.595 -0.0422  0.5422  0.3317
   66MOL0     C 8794   0.025   5.696   2.530 -0.2417 -0.2141  0.3692
   66MOL0     C 8795  -0.031   5.713   2.386 -0.1040  0.4036  0.4807
   66MOL0     C 8796  -0.164   5.784   2.385 -0.1524 -0.6579 -0.3391
   66MOL0     C 8797  -0.133   5.935   2.430  0.9762  0.3029 -0.5632
   66MOL0     C 8798  -0.257   6.021   2.453 -0.2684  0.0452  0.0285
   66MOL0     O 8799  -0.290   6.103   2.339 -1.0559 -0.2210 -0.5389
   66MOL0     C 8800  -0.376   6.210   2.354  0.0762 -0.4088  0.5318
   66MOL0     C 8801  -0.457   6.234   2.464 -0.6202  0.2334 -0.4228
   66MOL0     C 8802  -0.553   6.337   2.472  0.1516  0.0357 -0.1367
   66MOL0     C 8803  -0.618   6.371   2.604 -0.3402 -1.1448 -0.3310
   66MOL0     C 8804  -0.574   6.409   2.352  0.7647 -0.2970  0.3832
   66MOL0     C 8805  -0.684   6.526   2.333 -0.0776 -0.2857  0.0163
   66MOL0     O 8806  -0.704   6.563   2.201 -0.1560  0.1163 -0.5451
   66MOL0     C 8807  -0.792   6.661   2.188 -0.7113  0.4709  0.1309
   66MOL0     C 8808  -0.899   6.634   2.110  0.4521 -0.7134  0.4307
   66MOL0     C 8809  -1.002   6.728   2.087 -0.0287  0.7364 -0.0044
   66MOL0     C 8810  -0.983   6.855   2.140  0.0345 -0.8611 -0.2013
   66MOL0     O 8811  -1.075   6.968   2.136 -0.2323 -0.2924  0.5910
   66MOL0     C 8812  -1.205   6.936   2.078  0.5159  0.9450  0.0221
   66MOL0     C 8813  -1.299   7.050   2.103  0.5489  0.3053 -0.5759
   66MOL0     C 8814  -1.277   7.166   2.009  0.4298 -0.2385 -0.0636
   66MOL0     C 8815  -1.322   7.140   1.870  0.2133  0.0878 -1.2913
   66MOL0     C 8816  -1.360   7.287   1.809 -0.4921 -0.0262  0.1514
   66MOL0     C 8817  -1.238   7.368   1.788  0.0726 -0.4701 -0.2183
   66MOL0     C 8818  -1.285   7.515   1.767 -0.3550 -0.3828 -0.2524
   66MOL0     C 8819  -1.167   7.613   1.761  0.4292  0.1928  0.7522
   66MOL0    Cl 8820  -1.224   7.782   1.730  0.6794  0.5798 -0.1374
   66MOL0     C 8821  -0.865   6.891   2.204 -0.5427 -0.2431 -0.9123
   66MOL0     C 8822  -0.771   6.787   2.225  1.1391 -0.3128  0.1660
   66MOL0     O 8823  -0.743   6.570   2.430 -0.2038  0.0051 -0.2969
   66MOL0     C 8824  -0.493   6.385   2.236 -0.1792  1.2625 -0.4816
   66MOL0     C 8825  -0.395   6.292   2.241  0.6849 -0.3611 -0.2365
   66MOL0     N 8826  -0.025   5.605   2.626 -0.1614 -0.2063 -0.1939
   66MOL0     N 8827   0.038   5.604   2.744  0.5669 -0.8694  0.2383
   66MOL0     C 8828   1.417   5.809   2.715 -0.4229 -0.5782 -0.3188
   66MOL0     C 8829   1.540   5.818   2.649 -0.6092  0.0507 -0.3212
   66MOL0     C 8830   1.939   5.767   2.444  0.4702  0.8660  0.2982
   66MOL0     C 8831   1.981   5.814   2.316 -0.1150  0.3709  1.0172
   66MOL0     C 8832   2.117   5.795   2.280 -0.2016 -0.1217 -0.2093
   66MOL0     C 8833   2.205   5.737   2.374 -0.8899 -0.0910 -0.2065
   66MOL0     O 8834   2.335   5.728   2.331 -0.1282  0.1197 -0.2524
   66MOL0     C 8835   2.450   5.694   2.414  0.6044 -0.6246 -0.4521
   66MOL0     C 8836   2.575   5.751   2.348 -0.2805 -0.1110 -0.2089
   66MOL0     C 8837   2.568   5.905   2.352  0.3671 -0.3221  0.5433
   66MOL0     C 8838   2.703   5.973   2.306 -0.8025  0.2246 -0.2618
   66MOL0     C 8839   2.830   5.934   2.368 -0.2989 -0.0973 -0.3144
   66MOL0     C 8840   2.944   5.902   2.402  1.1834  0.2716  0.3067
   66MOL0     C 8841   2.165   5.698   2.499  1.0753 -0.3976  0.3934
   66MOL0     C 8842   2.031   5.706   2.531  0.3828  0.4640 -1.0147
   66MOL0     H 8843   1.652   5.501   2.667  1.0360  1.7433 -1.5624
   66MOL0     H 8844   1.413   5.489   2.797 -2.5652  0.4212  0.1781
   66MOL0     H 8845   1.147   5.817   2.695 -3.5583  1.1082  0.4877
   66MOL0     H 8846   1.111   5.661   2.639  0.6894  3.9398 -3.4749
   66MOL0     H 8847   1.003   5.591   2.857 -0.1756 -0.2704 -1.5178
   66MOL0     H 8848   1.038   5.759   2.930  1.7854 -1.5010  1.6669
   66MOL0     H 8849   0.906   5.853   2.741  1.2483  0.0324  0.8519
   66MOL0     H 8850   0.881   5.697   2.677 -0.2038 -1.1959  0.6420
   66MOL0     H 8851   0.775   5.637   2.919 -1.3763  0.5420  1.4667
   66MOL0     H 8852   0.769   5.815   2.919  0.4396 -1.0697  1.1794
   66MOL0     H 8853   0.663   5.806   2.696 -1.5266  0.6708  0.6839
   66MOL0     H 8854   0.646   5.624   2.708 -1.9151 -0.2730  0.5212
   66MOL0     H 8855   0.525   5.636   2.907  4.3733 -1.1057 -2.4864
   66MOL0     H 8856   0.505   5.809   2.881  2.9083  0.0801 -0.4176
   66MOL0     H 8857   0.388   5.729   2.653 -2.1764  1.3561  0.5802
   66MOL0     H 8858   0.378   5.569   2.739  1.0618  0.4056  1.5715
   66MOL0     H 8859   0.251   5.838   2.822 -1.6948 -0.1959 -1.1478
   66MOL0     H 8860   0.235   5.677   2.908  1.0488  0.9912  0.4928
   66MOL0     H 8861   0.200   5.829   2.553 -1.6744  0.9628 -1.7830
   66MOL0     H 8862   0.044   5.765   2.325 -1.1205  1.4967  0.1201
   66MOL0     H 8863  -0.055   5.612   2.354 -2.9367  0.7298  1.2407
   66MOL0     H 8864  -0.243   5.732   2.440 -1.6929  1.0602 -0.8708
   66MOL0     H 8865  -0.194   5.779   2.280  2.7085  0.9878 -1.3524
   66MOL0     H 8866  -0.081   5.984   2.346 -1.7275  1.4029 -1.7097
   66MOL0     H 8867  -0.071   5.942   2.520 -2.4234  0.9036  1.8989
   66MOL0     H 8868  -0.223   6.090   2.531  1.3206 -1.0796  0.3835
   66MOL0     H 8869  -0.345   5.967   2.487 -0.9864  1.4605  0.5094
   66MOL0     H 8870  -0.441   6.177   2.555 -1.0515  2.8188  1.4175
   66MOL0     H 8871  -0.598   6.478   2.619 -1.3513 -0.9292 -0.4718
   66MOL0     H 8872  -0.725   6.350   2.599 -0.4261 -0.7727 -0.0729
   66MOL0     H 8873  -0.576   6.316   2.689  0.3724 -0.5961 -0.3128
   66MOL0     H 8874  -0.898   6.532   2.073  1.7144 -0.4590 -0.2956
   66MOL0     H 8875  -1.096   6.685   2.052  0.4982 -0.3339 -0.1468
   66MOL0     H 8876  -1.206   6.909   1.972  0.4245  3.7230 -0.7683
   66MOL0     H 8877  -1.252   6.856   2.137  1.6338  0.9001  0.8880
   66MOL0     H 8878  -1.401   7.018   2.081  0.3040  1.0983 -0.6206
   66MOL0     H 8879  -1.303   7.072   2.210 -4.6947 -0.1696 -0.4081
   66MOL0     H 8880  -1.175   7.204   2.021  0.1514  0.1270  1.3900
   66MOL0     H 8881  -1.339   7.250   2.043  1.5177  0.8270 -0.6110
   66MOL0     H 8882  -1.256   7.073   1.815 -0.4813 -1.3734 -0.3823
   66MOL0     H 8883  -1.416   7.084   1.878  0.5608 -0.3479  0.1046
   66MOL0     H 8884  -1.430   7.342   1.872  1.0133 -0.0526  1.9217
   66MOL0     H 8885  -1.416   7.258   1.719 -0.4429 -2.7437  0.9064
   66MOL0     H 8886  -1.153   7.363   1.856  1.2998  2.2783 -1.3719
   66MOL0     H 8887  -1.189   7.334   1.696 -1.1980 -2.5444 -0.1835
   66MOL0     H 8888  -1.346   7.553   1.849  1.5332  1.1744  0.5244
   66MOL0     H 8889  -1.340   7.521   1.673 -1.0365 -1.1650  0.0839
   66MOL0     H 8890  -1.098   7.582   1.681 -0.4297  0.3888 -0.0747
   66MOL0     H 8891  -1.107   7.614   1.853  2.8900 -1.4224 -0.7101
   66MOL0     H 8892  -0.856   6.993   2.240  0.5105 -0.8134  0.5068
   66MOL0     H 8893  -0.682   6.795   2.286  2.0515 -0.6144 -1.0840
   66MOL0     H 8894  -0.488   6.438   2.142  0.5408 -0.0776 -1.2201
   66MOL0     H 8895  -0.339   6.261   2.153  0.7958 -0.2936 -0.1908
   66MOL0     H 8896   1.351   5.894   2.729 -0.9676 -1.0064 -0.2533
   66MOL0     H 8897   1.578   5.916   2.623  1.5717 -0.7015 -0.1325
   66MOL0     H 8898   1.905   5.862   2.255 -0.8256 -0.7296  1.0174
   66MOL0     H 8899   2.154   5.835   2.186 -1.1247  2.3872  0.4150
   66MOL0     H 8900   2.438   5.728   2.518 -0.7734  0.7373 -1.0116
   66MOL0     H 8901   2.446   5.585   2.422 -1.4876 -0.5847 -0.2720
   66MOL0     H 8902   2.572   5.723   2.243  2.1353 -2.7746  0.3186
   66MOL0     H 8903   2.664   5.713   2.399  0.4941  1.5215 -0.2662
   66MOL0     H 8904   2.551   5.933   2.457  1.6891  0.8100  0.4804
   66MOL0     H 8905   2.488   5.946   2.289 -0.7139 -1.3320  1.2231
   66MOL0     H 8906   2.695   6.081   2.320  2.0488  0.6860 -1.5769
   66MOL0     H 8907   2.712   5.960   2.198 -0.1135 -0.1713 -0.1656
   66MOL0     H 8908   3.044   5.877   2.430  0.9881  0.5826  1.2972
   66MOL0     H 8909   2.235   5.670   2.577 -0.4421 -0.8391  1.6567
   66MOL0     H 8910   2.002   5.664   2.628 -2.4845  2.2822 -0.9826
   67MOL0     O 8911   8.935   0.779   5.462  0.8956 -1.0011 -0.7792
   67MOL0     C 8912   8.997   0.864   5.529  0.4377  0.1775  0.1576
   67MOL0     O 8913   8.949   0.980   5.586 -0.4652  0.1657 -0.4183
   67MOL0     C 8914   8.818   1.007   5.613 -0.3556  0.3028 -0.7754
   67MOL0     C 8915   8.717   0.911   5.641 -0.0100  0.3121  1.0591
   67MOL0     C 8916   8.596   0.959   5.697  0.2772  0.0556 -0.8102
   67MOL0     C 8917   8.562   1.090   5.712 -0.7555 -0.1617  0.6266
   67MOL0     O 8918   8.431   1.125   5.756 -0.5824  0.0811 -0.0575
   67MOL0     C 8919   8.403   1.261   5.788  0.5968 -0.0695 -0.7109
   67MOL0     C 8920   8.263   1.277   5.857  0.4561 -0.0283 -0.6516
   67MOL0     C 8921   8.154   1.227   5.753 -0.1118 -0.1295 -1.3669
   67MOL0     C 8922   8.116   1.344   5.665  0.6400 -0.2625  0.3787
   67MOL0     C 8923   8.032   1.304   5.541  0.1026  0.8987 -0.1013
   67MOL0     C 8924   7.942   1.419   5.501 -0.5868 -0.0887  0.3223
   67MOL0     C 8925   7.811   1.441   5.584  0.0353 -0.2929  0.1253
   67MOL0     C 8926   7.713   1.323   5.593  0.5776 -0.1083 -0.1569
   67MOL0     N 8927   7.583   1.368   5.656 -0.5216 -0.1783  0.8277
   67MOL0     C 8928   7.483   1.288   5.702 -0.2772 -0.0481 -0.1136
   67MOL0     C 8929   7.376   1.373   5.739  0.4586  0.8634  0.1061
   67MOL0     C 8930   7.239   1.341   5.807  0.9201 -0.6674 -0.4596
   67MOL0     C 8931   7.120   1.422   5.759 -0.4871  0.1084  0.1582
   67MOL0     C 8932   6.991   1.343   5.779  0.0968  0.0392  0.2440
   67MOL0     C 8933   6.872   1.433   5.780 -1.2289  0.2298 -0.0551
   67MOL0     O 8934   6.751   1.359   5.781  0.2665 -0.2224  0.3737
   67MOL0     C 8935   6.637   1.430   5.794 -0.3423  0.0560 -0.6105
   67MOL0     C 8936   6.616   1.566   5.816 -0.2181 -0.4830 -0.4528
   67MOL0     C 8937   6.489   1.631   5.790 -0.4218  0.2852  0.4009
   67MOL0     C 8938   6.483   1.777   5.799  0.6604  0.8444 -0.4545
   67MOL0     C 8939   6.373   1.547   5.765  0.0791  0.5440 -0.0931
   67MOL0     C 8940   6.238   1.593   5.731 -0.5638  1.0101 -0.2356
   67MOL0     O 8941   6.129   1.543   5.807 -0.4331 -0.0336 -0.4667
   67MOL0     C 8942   6.004   1.603   5.788  0.3280 -0.1651  0.3638
   67MOL0     C 8943   5.933   1.580   5.668 -0.5171  0.8433 -0.1741
   67MOL0     C 8944   5.807   1.635   5.650  0.2321  0.4993  0.4932
   67MOL0     C 8945   5.757   1.728   5.745  0.2909 -0.3996  0.0412
   67MOL0     O 8946   5.634   1.782   5.715  0.2844 -0.5665  0.2703
   67MOL0     C 8947   5.613   1.920   5.745 -0.4323  0.2472 -0.4221
   67MOL0     C 8948   5.479   1.945   5.812  0.0414 -0.0362 -0.4956
   67MOL0     C 8949   5.368   1.880   5.729 -0.3578  0.2778 -0.5787
   67MOL0     C 8950   5.335   1.951   5.598 -0.6639 -1.7736  0.5418
   67MOL0     C 8951   5.208   1.902   5.541 -1.0869  0.5969 -0.1121
   67MOL0     C 8952   5.181   1.977   5.417  1.0330  0.5405  0.5763
   67MOL0     C 8953   5.063   1.922   5.343 -0.0742  0.4827  0.4514
   67MOL0     C 8954   5.009   2.008   5.235 -0.0803  0.1110 -0.2661
   67MOL0    Cl 8955   4.940   2.159   5.294  0.5281 -0.0051  0.6747
   67MOL0     C 8956   5.834   1.759   5.863 -0.1768  0.3540  0.1300
   67MOL0     C 8957   5.962   1.702   5.875 -0.4152  0.0275 -0.0852
   67MOL0     O 8958   6.228   1.675   5.641  0.0142 -0.5812 -0.0297
   67MOL0     C 8959   6.391   1.405   5.763  0.3969  0.5467  0.7474
   67MOL0     C 8960   6.522   1.354   5.777 -0.2786  0.5886 -0.6643
   67MOL0     N 8961   7.412   1.505   5.715  0.0596  0.5559  0.7046
   67MOL0     N 8962   7.536   1.495   5.661 -0.4251 -0.5172 -0.7975
   67MOL0     C 8963   8.655   1.184   5.671  0.4410 -0.8000  0.8472
   67MOL0     C 8964   8.778   1.143   5.626 -0.1470 -0.0793  0.2023
   67MOL0     C 8965   9.147   0.830   5.545  0.8699  0.0930 -0.1933
   67MOL0     C 8966   9.218   0.875   5.660  0.0774 -0.1006  0.4283
   67MOL0     C 8967   9.348   0.825   5.688 -0.1508  0.6157 -0.3395
   67MOL0     C 8968   9.413   0.736   5.600  0.2968 -0.7019  0.5783
   67MOL0     O 8969   9.531   0.669   5.614 -0.2848  0.3254  0.2748
   67MOL0     C 8970   9.595   0.683   5.742 -0.0571 -0.1563  0.7954
   67MOL0     C 8971   9.731   0.605   5.742 -0.2871  0.1238  0.7855
   67MOL0     C 8972   9.828   0.640   5.625 -1.4904  0.2664  0.1656
   67MOL0     C 8973   9.857   0.783   5.612  0.2822  0.6192  0.1627
   67MOL0     C 8974   9.916   0.844   5.733  0.5821 -0.3291  1.0985
   67MOL0     C 8975   9.966   0.911   5.824  1.3564  0.5305 -0.1512
   67MOL0     C 8976   9.344   0.707   5.482 -0.1496 -0.5118  0.1172
   67MOL0     C 8977   9.215   0.757   5.448 -0.0308 -0.0210 -0.1816
   67MOL0     H 8978   8.734   0.804   5.635 -1.0861  0.2025 -0.5997
   67MOL0     H 8979   8.514   0.899   5.737  1.5793  0.5143  3.0159
   67MOL0     H 8980   8.483   1.304   5.849 -0.9383 -0.9994  2.2091
   67MOL0     H 8981   8.400   1.306   5.689  0.9728  0.3243 -0.5453
   67MOL0     H 8982   8.269   1.212   5.944  0.1154  0.0834 -0.5438
   67MOL0     H 8983   8.247   1.379   5.895 -0.8518  0.7565 -3.0745
   67MOL0     H 8984   8.192   1.150   5.686  2.4755  0.3113 -0.5229
   67MOL0     H 8985   8.063   1.197   5.806  2.2564 -1.2402  2.5229
   67MOL0     H 8986   8.052   1.412   5.723  0.5355  1.1698 -1.3410
   67MOL0     H 8987   8.198   1.393   5.613 -0.0656 -1.7059 -2.2334
   67MOL0     H 8988   8.104   1.284   5.461 -0.8575  0.5682 -0.9141
   67MOL0     H 8989   7.986   1.204   5.541  2.4497 -0.2771 -1.8846
   67MOL0     H 8990   7.998   1.509   5.473 -1.8528  1.2668  1.9587
   67MOL0     H 8991   7.906   1.393   5.401 -0.1128 -0.3542  0.2190
   67MOL0     H 8992   7.837   1.476   5.684 -1.8997  1.0573  0.2053
   67MOL0     H 8993   7.756   1.523   5.539  0.2868 -0.6812 -0.9200
   67MOL0     H 8994   7.755   1.251   5.665  0.7084 -1.1272 -1.2168
   67MOL0     H 8995   7.705   1.272   5.497  0.2966 -1.2657  0.4568
   67MOL0     H 8996   7.490   1.179   5.707  1.3974  0.0297 -0.2741
   67MOL0     H 8997   7.228   1.233   5.798  4.2209 -1.0845 -0.7514
   67MOL0     H 8998   7.241   1.352   5.916 -1.8838 -2.8085 -0.0788
   67MOL0     H 8999   7.139   1.431   5.651 -0.0627 -0.8206  0.1489
   67MOL0     H 9000   7.130   1.521   5.804  3.1889 -0.6392  1.3197
   67MOL0     H 9001   6.990   1.282   5.870 -1.6536  0.5192  0.5791
   67MOL0     H 9002   6.978   1.274   5.695  2.0219 -2.5509  1.9012
   67MOL0     H 9003   6.876   1.501   5.695  1.2017 -0.7625 -0.8153
   67MOL0     H 9004   6.891   1.479   5.878 -1.3572 -2.3983  1.3099
   67MOL0     H 9005   6.700   1.635   5.816 -0.7783  0.2128  0.1850
   67MOL0     H 9006   6.458   1.819   5.701 -1.1634 -3.3435 -2.0404
   67MOL0     H 9007   6.402   1.804   5.868 -0.5942 -0.6483 -1.2558
   67MOL0     H 9008   6.574   1.825   5.836  0.5272 -0.6937  2.1183
   67MOL0     H 9009   5.970   1.517   5.588  0.1904  0.5134  0.3976
   67MOL0     H 9010   5.753   1.615   5.558  1.1281 -2.9420  0.5507
   67MOL0     H 9011   5.691   1.954   5.814 -0.5020 -2.6640  1.2665
   67MOL0     H 9012   5.618   1.981   5.654 -1.0958 -0.0268 -0.6526
   67MOL0     H 9013   5.491   1.892   5.907  0.5569 -1.8189 -1.5236
   67MOL0     H 9014   5.465   2.053   5.823  1.9344  0.2157 -0.1628
   67MOL0     H 9015   5.272   1.889   5.779 -0.3968  0.3633 -0.6695
   67MOL0     H 9016   5.374   1.771   5.727 -2.8912  0.0667  0.3209
   67MOL0     H 9017   5.322   2.056   5.625  0.6691 -1.7200  1.0293
   67MOL0     H 9018   5.414   1.955   5.523  1.2823  0.7514  2.5570
   67MOL0     H 9019   5.123   1.918   5.608  0.3131  0.3156  1.8219
   67MOL0     H 9020   5.218   1.794   5.525  1.1728  1.0595 -2.4551
   67MOL0     H 9021   5.150   2.079   5.442  0.0341  0.4135 -0.0887
   67MOL0     H 9022   5.260   1.984   5.342 -2.4826 -0.2930 -3.6459
   67MOL0     H 9023   4.980   1.926   5.414 -0.6304  0.3828 -0.1884
   67MOL0     H 9024   5.087   1.824   5.301  1.3789  0.9033  0.2409
   67MOL0     H 9025   4.938   1.947   5.178  0.0800  0.1962 -0.5599
   67MOL0     H 9026   5.094   2.034   5.170  1.7022 -0.6069  1.6557
   67MOL0     H 9027   5.806   1.827   5.942 -0.3822  0.9679 -0.4665
   67MOL0     H 9028   6.006   1.717   5.973  0.9167 -2.9728 -0.1186
   67MOL0     H 9029   6.320   1.325   5.748 -0.8901  1.3042  2.4485
   67MOL0     H 9030   6.549   1.250   5.764  2.6811  1.2288 -0.4434
   67MOL0     H 9031   8.631   1.290   5.684  0.2775 -1.1813  4.9694
   67MOL0     H 9032   8.850   1.210   5.581  1.3909 -1.2467  0.7977
   67MOL0     H 9033   9.172   0.942   5.732  1.4724 -1.3306  2.5730
   67MOL0     H 9034   9.401   0.864   5.774 -0.2876  2.9065 -1.2344
   67MOL0     H 9035   9.599   0.789   5.769 -1.7725  0.1126  0.1594
   67MOL0     H 9036   9.526   0.645   5.819 -1.7823 -3.0419 -1.9316
   67MOL0     H 9037   9.693   0.505   5.721  0.1532 -0.3908  2.3258
   67MOL0     H 9038   9.784   0.610   5.837  0.2908 -0.1467  0.4892
   67MOL0     H 9039   9.794   0.608   5.526  2.6257  2.4837 -2.2560
   67MOL0     H 9040   9.926   0.595   5.643 -0.6879  1.9966  0.3397
   67MOL0     H 9041   9.766   0.840   5.590  0.0632  0.3722  0.4288
   67MOL0     H 9042   9.939   0.817   5.548  1.6607  1.8477  2.4796
   67MOL0     H 9043  10.003   0.967   5.908  0.3839  0.1556  0.5522
   67MOL0     H 9044   9.375   0.627   5.415 -4.3051 -2.5208  0.2280
   67MOL0     H 9045   9.173   0.731   5.351  1.1724  1.9712 -1.3206
   68MOL0     O 9046   3.057   8.779  11.072  0.2806  0.3578  0.2565
   68MOL0     C 9047   3.100   8.662  11.054 -0.6690  0.7793  0.0553
   68MOL0     O 9048   3.190   8.627  10.951 -1.2498 -0.6063  0.0997
   68MOL0     C 9049   3.227   8.724  10.858  0.5930 -0.8117 -0.4147
   68MOL0     C 9050   3.133   8.796  10.781 -0.1487 -0.4303 -0.6469
   68MOL0     C 9051   3.174   8.911  10.707 -0.4554  0.5971 -0.1421
   68MOL0     C 9052   3.306   8.955  10.695 -0.1317 -0.4460 -0.4401
   68MOL0     O 9053   3.320   9.071  10.622  0.0488  1.4097 -0.1672
   68MOL0     C 9054   3.447   9.135  10.612 -0.3442  0.1279  0.5312
   68MOL0     C 9055   3.420   9.280  10.554 -0.7973  0.8561 -0.6922
   68MOL0     C 9056   3.329   9.292  10.436 -0.6333  1.1149 -0.2720
   68MOL0     C 9057   3.396   9.391  10.340 -0.2301  0.1596  0.1994
   68MOL0     C 9058   3.315   9.388  10.199 -0.0385 -0.4985 -0.4137
   68MOL0     C 9059   3.334   9.516  10.106 -0.6207  0.2750  0.0299
   68MOL0     C 9060   3.479   9.550  10.070  0.1791  0.0863 -1.1994
   68MOL0     C 9061   3.568   9.435  10.030  0.0829 -0.1218 -0.6675
   68MOL0     N 9062   3.709   9.484  10.012  0.2968 -0.2008  0.6692
   68MOL0     C 9063   3.801   9.493  10.113 -0.0629  0.6700 -0.7524
   68MOL0     C 9064   3.917   9.502  10.054 -0.2416 -0.1848  0.5469
   68MOL0     C 9065   4.049   9.493  10.114  0.8368  0.7345 -0.3818
   68MOL0     C 9066   4.160   9.561  10.033  0.3904  0.4919  0.4359
   68MOL0     C 9067   4.300   9.572  10.110  0.7234  0.1027 -0.1516
   68MOL0     C 9068   4.378   9.439  10.106  0.9820  0.1459  0.3592
   68MOL0     O 9069   4.493   9.453  10.190 -0.6516  0.1116  0.1025
   68MOL0     C 9070   4.618   9.469  10.140 -0.1208  0.4544 -0.2120
   68MOL0     C 9071   4.657   9.496  10.007 -0.5408  0.3702  0.2731
   68MOL0     C 9072   4.796   9.523   9.984 -0.2470 -0.6571  0.4149
   68MOL0     C 9073   4.824   9.572   9.842 -0.2515  0.0672  0.0652
   68MOL0     C 9074   4.890   9.500  10.086 -0.2782  0.4265 -0.3202
   68MOL0     C 9075   5.038   9.517  10.062 -0.0461  0.4624 -0.0059
   68MOL0     O 9076   5.121   9.575  10.163 -1.0200  0.2165 -0.1535
   68MOL0     C 9077   5.260   9.550  10.154  0.8976  0.5904 -0.4748
   68MOL0     C 9078   5.348   9.624  10.232 -0.2849  0.7766  0.3013
   68MOL0     C 9079   5.486   9.613  10.225 -0.4168  0.3170 -0.4357
   68MOL0     C 9080   5.548   9.523  10.153  0.1073  0.1928 -0.1400
   68MOL0     O 9081   5.679   9.512  10.161 -0.9417 -0.0903  0.5840
   68MOL0     C 9082   5.745   9.414  10.083 -0.2431  0.5751  0.1665
   68MOL0     C 9083   5.884   9.390  10.133 -0.4048 -0.2511  0.3696
   68MOL0     C 9084   5.975   9.517  10.120  0.5160 -0.8204 -0.3628
   68MOL0     C 9085   6.014   9.534   9.973  0.1725  0.2278  0.9527
   68MOL0     C 9086   6.114   9.646   9.953  0.6156  0.2167 -1.0044
   68MOL0     C 9087   6.086   9.714   9.814 -0.2990  0.1872  0.1713
   68MOL0     C 9088   6.193   9.815   9.773  0.9487 -0.1616  0.7297
   68MOL0     C 9089   6.155   9.910   9.663  0.5297 -0.5866 -0.3624
   68MOL0    Cl 9090   6.268  10.043   9.676  0.2137 -0.2028  0.3298
   68MOL0     C 9091   5.464   9.429  10.086  0.3568  0.3921 -0.3277
   68MOL0     C 9092   5.327   9.442  10.092  0.0996 -0.2679 -1.0390
   68MOL0     O 9093   5.069   9.484   9.950 -0.0652 -0.3802  0.1651
   68MOL0     C 9094   4.850   9.451  10.210  0.1514  0.1780  0.1367
   68MOL0     C 9095   4.710   9.443  10.241 -0.3000 -0.4688  0.3337
   68MOL0     N 9096   3.895   9.521   9.918  0.0955  0.1905  0.0018
   68MOL0     N 9097   3.767   9.516   9.895  0.2005  1.1018  0.1281
   68MOL0     C 9098   3.403   8.886  10.769  0.5905 -0.3385  0.0498
   68MOL0     C 9099   3.359   8.770  10.848 -0.3271 -0.4899  0.3015
   68MOL0     C 9100   3.052   8.550  11.138 -0.3584 -0.7913  0.0094
   68MOL0     C 9101   2.974   8.573  11.260  0.0151 -0.2553  0.0016
   68MOL0     C 9102   2.935   8.469  11.340 -0.2980  0.1856 -0.2334
   68MOL0     C 9103   2.971   8.338  11.304 -1.0093  0.1322  0.0535
   68MOL0     O 9104   2.951   8.221  11.379 -0.0004 -0.0108 -1.0876
   68MOL0     C 9105   2.968   8.228  11.522  0.3223  1.0039 -0.2827
   68MOL0     C 9106   3.020   8.100  11.586 -0.5231 -0.0390 -0.5536
   68MOL0     C 9107   3.171   8.065  11.561  0.9046  1.0723 -0.5989
   68MOL0     C 9108   3.214   7.965  11.672 -0.4545 -0.2085  0.2804
   68MOL0     C 9109   3.244   8.037  11.798  0.1853 -0.4004  0.5995
   68MOL0     C 9110   3.264   8.085  11.909 -0.7238 -0.0218  1.2487
   68MOL0     C 9111   3.029   8.314  11.178 -0.0425 -0.5980  0.6334
   68MOL0     C 9112   3.083   8.421  11.101 -0.9862  0.1809  1.1234
   68MOL0     H 9113   3.029   8.766  10.785  0.7608 -3.7971  2.3102
   68MOL0     H 9114   3.099   8.975  10.662  2.1219  3.1889 -0.9831
   68MOL0     H 9115   3.490   9.152  10.711  0.8434  0.4511 -0.0283
   68MOL0     H 9116   3.510   9.085  10.538  1.2193  2.1011  0.4276
   68MOL0     H 9117   3.372   9.346  10.627 -0.2298 -0.1477  0.6361
   68MOL0     H 9118   3.521   9.319  10.539 -0.9211  2.1155  1.3241
   68MOL0     H 9119   3.313   9.195  10.388 -2.9714 -0.0523  2.6235
   68MOL0     H 9120   3.231   9.334  10.460 -0.5583  0.5671  1.0546
   68MOL0     H 9121   3.396   9.498  10.363  0.1411  0.7583 -2.2776
   68MOL0     H 9122   3.499   9.365  10.313 -0.6294 -1.2443 -0.0425
   68MOL0     H 9123   3.349   9.304  10.138 -0.1778 -0.8622  0.0012
   68MOL0     H 9124   3.206   9.377  10.203 -0.1702  0.8647  2.2268
   68MOL0     H 9125   3.268   9.517  10.018  1.3880 -1.2453 -1.5894
   68MOL0     H 9126   3.312   9.602  10.170  1.5461  0.1497  0.9990
   68MOL0     H 9127   3.493   9.626   9.992  3.2005 -0.3404 -1.1899
   68MOL0     H 9128   3.526   9.586  10.163  1.3361 -3.6408 -0.1891
   68MOL0     H 9129   3.528   9.398   9.936 -2.1543  2.6013 -0.9162
   68MOL0     H 9130   3.570   9.358  10.108 -0.6201  0.3041 -0.2017
   68MOL0     H 9131   3.782   9.483  10.219  2.0104 -0.2327 -0.4153
   68MOL0     H 9132   4.049   9.540  10.213  1.2614  1.3059 -0.6441
   68MOL0     H 9133   4.065   9.385  10.121 -0.3717  0.5026 -0.9478
   68MOL0     H 9134   4.125   9.663  10.012  0.9488  0.8481  1.1955
   68MOL0     H 9135   4.169   9.508   9.937  1.2107  1.7553 -0.2099
   68MOL0     H 9136   4.284   9.579  10.218 -0.7622 -1.4039 -0.2184
   68MOL0     H 9137   4.363   9.651  10.070  0.9273  0.0478  0.0580
   68MOL0     H 9138   4.415   9.418  10.005  1.0165  1.0989  0.1650
   68MOL0     H 9139   4.307   9.361  10.135 -1.0312  0.4709 -3.1559
   68MOL0     H 9140   4.579   9.509   9.933 -1.4127 -0.7199  0.9777
   68MOL0     H 9141   4.855   9.492   9.774 -1.7798 -0.9736  0.5372
   68MOL0     H 9142   4.732   9.614   9.802 -0.3026 -1.3263 -1.4002
   68MOL0     H 9143   4.886   9.662   9.840 -2.5193  1.7394 -3.1996
   68MOL0     H 9144   5.309   9.702  10.298  2.4544  1.8375  0.7946
   68MOL0     H 9145   5.540   9.683  10.287 -1.8904  2.7567 -1.7259
   68MOL0     H 9146   5.693   9.318  10.088 -0.7560  0.5628 -3.1725
   68MOL0     H 9147   5.744   9.442   9.977  2.6178  1.0621  0.1919
   68MOL0     H 9148   5.876   9.358  10.237 -3.2290 -3.0564 -0.5589
   68MOL0     H 9149   5.923   9.306  10.074  0.7254  1.1226 -0.9332
   68MOL0     H 9150   6.056   9.498  10.191 -1.6443  1.2951  2.9610
   68MOL0     H 9151   5.910   9.601  10.147 -1.0760 -2.4651  1.1961
   68MOL0     H 9152   6.051   9.438   9.934  1.1004 -0.6808  3.8442
   68MOL0     H 9153   5.924   9.563   9.917 -0.7834  3.0014  3.6872
   68MOL0     H 9154   6.214   9.602   9.960  0.0818 -0.7336  2.1859
   68MOL0     H 9155   6.097   9.713  10.038  0.7918  0.8304 -1.4479
   68MOL0     H 9156   6.088   9.635   9.738 -0.5096 -0.4526  0.8257
   68MOL0     H 9157   5.989   9.763   9.827 -1.1999 -1.2938 -0.5470
   68MOL0     H 9158   6.284   9.760   9.747 -0.4567 -1.6732 -1.3145
   68MOL0     H 9159   6.224   9.870   9.862  0.9245  1.7648 -0.3846
   68MOL0     H 9160   6.049   9.940   9.667  0.7432  0.5234 -2.0409
   68MOL0     H 9161   6.157   9.867   9.562 -0.3329  1.0991 -1.1430
   68MOL0     H 9162   5.492   9.342  10.028 -2.1025  0.2273 -1.3958
   68MOL0     H 9163   5.275   9.366  10.035  2.1168 -1.1162 -1.8312
   68MOL0     H 9164   4.916   9.434  10.294 -0.3907  3.1300  1.2709
   68MOL0     H 9165   4.670   9.407  10.334  0.1811  0.0645  0.7557
   68MOL0     H 9166   3.505   8.922  10.777  0.4799 -0.3918  4.6898
   68MOL0     H 9167   3.427   8.715  10.913 -0.7209 -1.3862 -0.0227
   68MOL0     H 9168   2.937   8.669  11.292 -1.2148 -0.7789  0.1907
   68MOL0     H 9169   2.871   8.494  11.425  0.1049 -0.5612  0.3024
   68MOL0     H 9170   3.041   8.308  11.538 -0.5752  2.2839 -2.1300
   68MOL0     H 9171   2.876   8.265  11.569 -0.1160 -1.3473  0.8535
   68MOL0     H 9172   2.961   8.013  11.558  0.1635 -0.1291 -1.7578
   68MOL0     H 9173   3.011   8.114  11.695  2.2634  0.8246 -0.3550
   68MOL0     H 9174   3.239   8.150  11.561  1.0993  1.0391  2.8172
   68MOL0     H 9175   3.170   8.013  11.465 -0.8265 -3.2997  1.5151
   68MOL0     H 9176   3.314   7.931  11.643  0.6886  2.5063  0.8014
   68MOL0     H 9177   3.149   7.877  11.676  0.0534 -0.6740 -1.0611
   68MOL0     H 9178   3.277   8.123  12.009  2.1986  0.6098  0.7329
   68MOL0     H 9179   3.048   8.209  11.159 -0.4007 -1.4157  4.1322
   68MOL0     H 9180   3.145   8.402  11.014 -0.1669  2.1644  1.2133
   69MOL0     O 9181   3.361   2.738   4.890 -0.0153  0.5217 -0.2636
   69MOL0     C 9182   3.363   2.765   4.767 -1.3094  0.0936  0.5505
   69MOL0     O 9183   3.251   2.769   4.684 -0.0997 -0.1945  0.1810
   69MOL0     C 9184   3.126   2.741   4.725  0.0348 -0.0633 -0.5493
   69MOL0     C 9185   3.034   2.777   4.624  0.0193  0.6421  0.8526
   69MOL0     C 9186   2.901   2.750   4.633 -0.2676 -0.5462 -0.6277
   69MOL0     C 9187   2.849   2.695   4.753  0.1967 -0.0411  0.0228
   69MOL0     O 9188   2.713   2.681   4.750  0.2079  0.8825 -0.4249
   69MOL0     C 9189   2.644   2.572   4.830 -0.1037 -0.7860  0.0346
   69MOL0     C 9190   2.507   2.561   4.774 -0.6177 -0.0089  0.2769
   69MOL0     C 9191   2.420   2.497   4.884  0.6233  0.5251  0.1994
   69MOL0     C 9192   2.270   2.473   4.837 -0.5139  0.3592  0.1864
   69MOL0     C 9193   2.222   2.369   4.943 -0.3298 -0.3769 -0.1729
   69MOL0     C 9194   2.073   2.336   4.934 -0.1570 -0.1816 -0.2376
   69MOL0     C 9195   2.029   2.315   4.789 -0.2954  0.1498  0.7425
   69MOL0     C 9196   2.088   2.198   4.713 -0.3582  0.4386 -0.5249
   69MOL0     N 9197   2.094   2.070   4.784  0.4788 -0.1246 -0.5445
   69MOL0     C 9198   1.987   2.020   4.862 -0.1382 -1.1741 -0.3145
   69MOL0     C 9199   2.032   1.896   4.888 -1.1416  0.0403 -0.6430
   69MOL0     C 9200   1.963   1.790   4.973 -0.1497  0.2039  0.0291
   69MOL0     C 9201   1.958   1.834   5.121 -0.3620 -0.3192 -0.0455
   69MOL0     C 9202   2.070   1.778   5.190  0.0166 -0.2578  0.3671
   69MOL0     C 9203   2.079   1.799   5.335 -0.7078  0.0661 -0.3900
   69MOL0     O 9204   1.966   1.754   5.414 -0.6335 -0.4430  0.4150
   69MOL0     C 9205   1.948   1.616   5.424 -0.2113  0.1358 -0.2160
   69MOL0     C 9206   1.816   1.577   5.422 -0.5084  0.1218 -0.0498
   69MOL0     C 9207   1.779   1.445   5.429  0.0528  0.8812 -0.2127
   69MOL0     C 9208   1.629   1.416   5.406 -0.8096  0.4463 -0.5892
   69MOL0     C 9209   1.879   1.347   5.444  0.1184  0.4417  0.3319
   69MOL0     C 9210   1.836   1.207   5.454  0.2430 -0.5347  0.0777
   69MOL0     O 9211   1.726   1.183   5.525 -0.3993 -1.0208  0.0844
   69MOL0     C 9212   1.678   1.054   5.518 -0.6454 -0.7784 -0.0189
   69MOL0     C 9213   1.742   0.940   5.574 -0.6427  0.6690 -0.4624
   69MOL0     C 9214   1.679   0.817   5.567  0.2438 -0.1045  0.5653
   69MOL0     C 9215   1.563   0.797   5.498 -0.2917  0.7788 -0.3679
   69MOL0     O 9216   1.515   0.666   5.499 -0.2604 -0.3006  1.1814
   69MOL0     C 9217   1.412   0.620   5.410 -0.2610  0.1344 -0.4380
   69MOL0     C 9218   1.291   0.630   5.507 -0.6935 -0.3846 -0.3514
   69MOL0     C 9219   1.183   0.547   5.445  0.4710  0.6779 -0.7349
   69MOL0     C 9220   1.139   0.618   5.314  0.3930  0.4092 -0.5330
   69MOL0     C 9221   1.019   0.552   5.240 -0.0287  0.2572  0.5839
   69MOL0     C 9222   0.999   0.640   5.115 -0.7264  0.3004 -0.1197
   69MOL0     C 9223   0.886   0.590   5.021  0.4138  0.1816 -0.1145
   69MOL0     C 9224   0.876   0.658   4.893  0.6298 -0.0183  0.2806
   69MOL0    Cl 9225   0.732   0.615   4.782  0.2412 -0.4006  0.1381
   69MOL0     C 9226   1.496   0.901   5.446 -0.3521  0.3255 -0.6578
   69MOL0     C 9227   1.553   1.034   5.453  0.0560 -0.2958 -0.5186
   69MOL0     O 9228   1.914   1.121   5.415  0.6347 -0.0872 -0.0958
   69MOL0     C 9229   2.010   1.385   5.446  0.1290  0.1821  0.4066
   69MOL0     C 9230   2.048   1.523   5.452 -0.0638  0.1577 -0.0729
   69MOL0     N 9231   2.154   1.877   4.818 -0.7080  0.0486 -0.2019
   69MOL0     N 9232   2.192   1.981   4.761  0.0560 -0.8470 -0.1194
   69MOL0     C 9233   2.940   2.667   4.857  0.5672 -0.1465 -0.6935
   69MOL0     C 9234   3.076   2.690   4.848  0.5962 -0.0972 -0.2702
   69MOL0     C 9235   3.493   2.811   4.715 -0.7785 -0.4218 -0.7606
   69MOL0     C 9236   3.497   2.897   4.606 -0.3491  0.1257  0.4229
   69MOL0     C 9237   3.617   2.949   4.550 -0.0351 -0.6418 -0.5483
   69MOL0     C 9238   3.732   2.932   4.624  0.6924  0.6105  0.7319
   69MOL0     O 9239   3.848   2.996   4.579  0.1343 -0.6734 -0.3919
   69MOL0     C 9240   3.976   2.970   4.636  0.4640 -1.0932  0.1165
   69MOL0     C 9241   4.079   3.053   4.562  0.7713 -0.3813  0.3849
   69MOL0     C 9242   4.063   3.206   4.575  0.4334  0.3622 -0.6783
   69MOL0     C 9243   4.166   3.290   4.511  0.5886 -0.9539  0.5740
   69MOL0     C 9244   4.192   3.409   4.600  1.0926 -0.7980  0.1799
   69MOL0     C 9245   4.188   3.507   4.670 -0.2537 -0.7107  0.7634
   69MOL0     C 9246   3.736   2.854   4.740 -0.1712  0.1365  0.2734
   69MOL0     C 9247   3.616   2.799   4.787  0.5441  0.9999 -0.2996
   69MOL0     H 9248   3.070   2.835   4.539 -3.3353 -0.5357 -1.6067
   69MOL0     H 9249   2.833   2.783   4.554  0.6263  1.1801 -0.7389
   69MOL0     H 9250   2.696   2.476   4.822  2.0278  0.2124  1.1503
   69MOL0     H 9251   2.652   2.592   4.937  0.9675  3.3057 -0.6455
   69MOL0     H 9252   2.473   2.664   4.755  0.0045  0.4682  1.5952
   69MOL0     H 9253   2.505   2.503   4.681  1.1846  0.8920 -0.3726
   69MOL0     H 9254   2.466   2.400   4.903  0.8089  0.3813 -0.9038
   69MOL0     H 9255   2.424   2.565   4.969 -1.8399  1.5352 -0.3854
   69MOL0     H 9256   2.211   2.564   4.852 -0.0196  0.4616  1.6522
   69MOL0     H 9257   2.271   2.453   4.729  1.4204 -0.2811  0.2909
   69MOL0     H 9258   2.288   2.283   4.931 -0.7918 -1.2443  2.7606
   69MOL0     H 9259   2.237   2.416   5.041 -1.5376 -0.9972  0.3285
   69MOL0     H 9260   2.039   2.252   4.995 -3.3969  0.4739 -0.9394
   69MOL0     H 9261   2.018   2.424   4.968  0.1091 -0.4662  0.9708
   69MOL0     H 9262   1.921   2.302   4.792 -0.5416  1.6822 -0.4539
   69MOL0     H 9263   2.035   2.412   4.738 -1.5381  1.3778  2.8173
   69MOL0     H 9264   2.196   2.217   4.709  0.2311 -2.0486  1.4361
   69MOL0     H 9265   2.050   2.195   4.610  0.5492  3.2439 -1.0408
   69MOL0     H 9266   1.896   2.074   4.889  0.4337  1.5726 -3.2769
   69MOL0     H 9267   1.859   1.794   4.939 -0.1406  0.7328  0.0575
   69MOL0     H 9268   2.012   1.693   4.961  1.5087  0.8467  1.2550
   69MOL0     H 9269   1.871   1.785   5.166  0.7756 -1.9145  0.4796
   69MOL0     H 9270   1.934   1.939   5.139 -0.0841 -0.5315  1.7061
   69MOL0     H 9271   2.168   1.814   5.157 -0.4296  0.6808  0.0520
   69MOL0     H 9272   2.071   1.669   5.178  1.9202 -0.1003 -1.4847
   69MOL0     H 9273   2.079   1.906   5.357 -2.9922 -0.3047  1.8814
   69MOL0     H 9274   2.174   1.763   5.375 -0.6325  1.6956  0.9907
   69MOL0     H 9275   1.738   1.652   5.417 -1.8357 -1.2685 -3.9729
   69MOL0     H 9276   1.584   1.497   5.348 -1.3809 -0.6833 -1.7597
   69MOL0     H 9277   1.606   1.316   5.367 -0.0805 -0.6422  1.5773
   69MOL0     H 9278   1.580   1.418   5.504  1.4245 -3.4472  0.8319
   69MOL0     H 9279   1.832   0.943   5.636 -1.3418 -0.8287  0.7101
   69MOL0     H 9280   1.716   0.728   5.618  1.5533  2.2463  4.0909
   69MOL0     H 9281   1.403   0.684   5.322 -1.2978  0.4778 -0.0957
   69MOL0     H 9282   1.434   0.514   5.395 -2.0996 -1.2798  4.7057
   69MOL0     H 9283   1.313   0.586   5.605 -0.0712  1.9681  0.6425
   69MOL0     H 9284   1.243   0.728   5.516 -0.8041 -0.3113 -1.6038
   69MOL0     H 9285   1.105   0.545   5.521 -0.7725  0.1905 -1.9880
   69MOL0     H 9286   1.217   0.445   5.420  3.6060  1.3378  0.3952
   69MOL0     H 9287   1.113   0.721   5.336  0.7434  0.7357 -1.5844
   69MOL0     H 9288   1.225   0.628   5.246 -0.4562  2.2573 -1.4055
   69MOL0     H 9289   0.936   0.544   5.310 -1.2528  1.2401 -0.6826
   69MOL0     H 9290   1.048   0.451   5.209 -0.5371  0.4494 -0.5958
   69MOL0     H 9291   0.984   0.746   5.141 -0.5202  1.6870 -4.7968
   69MOL0     H 9292   1.092   0.629   5.059  1.0165 -0.9522  2.8026
   69MOL0     H 9293   0.790   0.590   5.072 -0.3387  0.5216 -1.4918
   69MOL0     H 9294   0.913   0.486   5.000  1.7191  0.5658 -0.4383
   69MOL0     H 9295   0.972   0.651   4.842  0.5100 -1.9360  0.2781
   69MOL0     H 9296   0.875   0.767   4.909  3.3704  0.3284 -1.2055
   69MOL0     H 9297   1.404   0.890   5.389 -0.7679  0.4254 -0.0118
   69MOL0     H 9298   1.497   1.111   5.400 -0.9007  1.0832  2.2730
   69MOL0     H 9299   2.083   1.307   5.463 -0.2863 -0.5513 -1.0770
   69MOL0     H 9300   2.146   1.567   5.467  0.4983 -0.6931 -1.1620
   69MOL0     H 9301   2.913   2.633   4.957  3.3420 -1.5240 -0.3163
   69MOL0     H 9302   3.138   2.664   4.933 -1.3079  0.0051  1.2079
   69MOL0     H 9303   3.403   2.928   4.560 -0.1708  1.7944  1.1081
   69MOL0     H 9304   3.624   3.008   4.459  3.0159 -1.6896 -1.1115
   69MOL0     H 9305   3.981   2.990   4.743  0.5629  0.5820 -0.1747
   69MOL0     H 9306   4.006   2.867   4.612 -1.6000 -1.7360  0.1069
   69MOL0     H 9307   4.057   3.040   4.456 -0.9342 -0.4741  0.7225
   69MOL0     H 9308   4.181   3.022   4.586  0.8127 -1.0864 -0.6054
   69MOL0     H 9309   4.053   3.223   4.682 -3.5130  0.7753 -0.9710
   69MOL0     H 9310   3.970   3.227   4.523  1.5709  2.7872 -1.8788
   69MOL0     H 9311   4.135   3.328   4.413  3.8549  1.3537  0.2528
   69MOL0     H 9312   4.259   3.237   4.488  2.4715  2.6982 -1.0703
   69MOL0     H 9313   4.192   3.579   4.749 -2.3370  0.2992  0.0246
   69MOL0     H 9314   3.831   2.841   4.791 -0.8653 -0.7827  1.3806
   69MOL0     H 9315   3.614   2.750   4.884  0.5963  2.8387  0.6741
   70MOL0     O 9316   6.078   3.826   0.115  0.2801 -0.3063  0.5805
   70MOL0     C 9317   6.047   3.890   0.015 -1.0280  0.4195  0.2692
   70MOL0     O 9318   5.936   3.967   0.003 -0.3176 -0.2721 -0.2869
   70MOL0     C 9319   5.822   3.934   0.079 -0.3413  0.1247  0.1352
   70MOL0     C 9320   5.816   3.901   0.217  0.5769 -0.1921 -0.0557
   70MOL0     C 9321   5.702   3.867   0.286  0.4587 -0.4489 -0.2338
   70MOL0     C 9322   5.577   3.864   0.220  0.0609 -0.2460  0.7424
   70MOL0     O 9323   5.454   3.846   0.281 -0.3129  0.0444  0.3702
   70MOL0     C 9324   5.444   3.836   0.424  0.3529  0.6124 -0.1719
   70MOL0     C 9325   5.310   3.881   0.467 -0.2789 -0.2457  0.4374
   70MOL0     C 9326   5.187   3.786   0.462  0.8288 -0.5892 -0.3084
   70MOL0     C 9327   5.079   3.827   0.577 -0.7025 -0.2641 -0.4172
   70MOL0     C 9328   4.962   3.724   0.590  0.1734 -1.0007  0.4361
   70MOL0     C 9329   4.885   3.733   0.726  0.1162  0.0125  0.2240
   70MOL0     C 9330   4.745   3.697   0.727  0.4686  0.1370  0.6787
   70MOL0     C 9331   4.673   3.699   0.861  0.1366 -0.2908 -0.8682
   70MOL0     N 9332   4.664   3.575   0.936 -0.3836 -0.1052 -0.4029
   70MOL0     C 9333   4.633   3.456   0.875 -1.0051  0.0814  0.1605
   70MOL0     C 9334   4.639   3.365   0.973 -0.4338  0.4642 -0.2843
   70MOL0     C 9335   4.589   3.216   0.965 -0.1757  0.0910  0.2099
   70MOL0     C 9336   4.627   3.145   1.105 -0.2450 -0.4416  0.6170
   70MOL0     C 9337   4.596   3.001   1.099  0.5703  0.2729  0.4695
   70MOL0     C 9338   4.606   2.934   1.223  0.7652  0.5596 -0.4790
   70MOL0     O 9339   4.615   2.795   1.200  0.4700  0.1899  0.8713
   70MOL0     C 9340   4.500   2.739   1.142  0.2383  0.6945 -0.3728
   70MOL0     C 9341   4.479   2.692   1.018 -0.4176 -0.8470  0.5084
   70MOL0     C 9342   4.353   2.638   0.970  0.4253  0.0814 -0.3680
   70MOL0     C 9343   4.342   2.619   0.821  0.0865 -0.1146 -0.1083
   70MOL0     C 9344   4.244   2.634   1.056  0.3299  0.4255  0.0754
   70MOL0     C 9345   4.104   2.609   1.014  0.5069 -0.6938  0.6924
   70MOL0     O 9346   3.996   2.654   1.088 -0.0941  0.4343 -0.5174
   70MOL0     C 9347   3.863   2.659   1.049  0.4174 -0.2038  0.1494
   70MOL0     C 9348   3.781   2.737   1.124  0.4225  0.6323 -0.2282
   70MOL0     C 9349   3.642   2.745   1.096  0.4394 -0.8725  0.1512
   70MOL0     C 9350   3.577   2.670   0.991 -0.8406  0.1075 -0.1643
   70MOL0     O 9351   3.446   2.672   0.970 -0.1761 -0.3062 -0.2502
   70MOL0     C 9352   3.391   2.639   0.844 -0.0421 -0.4972  0.2149
   70MOL0     C 9353   3.245   2.621   0.867 -0.2839 -0.1029  0.5946
   70MOL0     C 9354   3.187   2.599   0.726  0.3773  0.0961 -0.0987
   70MOL0     C 9355   3.038   2.631   0.720  1.0211  0.6895  0.6054
   70MOL0     C 9356   2.990   2.602   0.578 -0.0422 -1.0642  0.2464
   70MOL0     C 9357   2.843   2.609   0.558 -0.0979 -0.9312  0.0638
   70MOL0     C 9358   2.811   2.550   0.417  0.1891 -0.6362 -0.2227
   70MOL0     C 9359   2.666   2.580   0.382 -0.1012 -0.5717  0.3490
   70MOL0    Cl 9360   2.599   2.749   0.392  0.2997 -0.1114 -0.0670
   70MOL0     C 9361   3.676   2.585   0.922  0.4827 -0.7305  0.4311
   70MOL0     C 9362   3.805   2.578   0.950 -0.1195  0.0013  0.8224
   70MOL0     O 9363   4.083   2.543   0.911 -0.1633 -0.2469 -0.0675
   70MOL0     C 9364   4.271   2.671   1.191 -1.1149  0.5396  0.3452
   70MOL0     C 9365   4.392   2.725   1.227 -0.5920 -0.1440  0.8188
   70MOL0     N 9366   4.678   3.426   1.087 -0.0939 -0.0062 -0.3739
   70MOL0     N 9367   4.684   3.554   1.073 -0.2969 -0.4507 -0.1355
   70MOL0     C 9368   5.577   3.898   0.082 -0.5502 -0.2694  0.2876
   70MOL0     C 9369   5.697   3.935   0.013  0.3250 -0.6006 -0.2745
   70MOL0     C 9370   6.143   3.885  -0.094 -0.4324 -0.0027  0.6499
   70MOL0     C 9371   6.135   3.951  -0.210  0.3176 -0.3882  0.4033
   70MOL0     C 9372   6.235   3.941  -0.307  0.1712 -0.9689  0.3935
   70MOL0     C 9373   6.335   3.850  -0.295  0.6724 -0.1909  0.5585
   70MOL0     O 9374   6.440   3.837  -0.386  0.0819  0.1451 -0.4177
   70MOL0     C 9375   6.544   3.940  -0.377  0.0615  0.4096  0.3523
   70MOL0     C 9376   6.562   3.985  -0.521 -0.2580 -0.2011  0.0478
   70MOL0     C 9377   6.704   4.050  -0.525  0.1669 -0.6256  0.0034
   70MOL0     C 9378   6.724   4.109  -0.664  0.6868  0.3442 -0.5352
   70MOL0     C 9379   6.710   4.007  -0.772 -0.2131  0.0084 -0.2582
   70MOL0     C 9380   6.700   3.921  -0.856 -0.4113 -0.5664 -0.1935
   70MOL0     C 9381   6.339   3.778  -0.178  0.2242 -0.7291 -0.1588
   70MOL0     C 9382   6.247   3.793  -0.085  0.0793  0.0679  0.2209
   70MOL0     H 9383   5.909   3.930   0.265 -0.0369  0.6022  0.6645
   70MOL0     H 9384   5.700   3.845   0.392  0.1428 -1.0052 -0.3527
   70MOL0     H 9385   5.470   3.736   0.461  1.6118  1.7220  2.1992
   70MOL0     H 9386   5.514   3.907   0.469  0.4114 -0.9941  2.4833
   70MOL0     H 9387   5.312   3.921   0.569 -0.1184  1.5080 -0.2093
   70MOL0     H 9388   5.283   3.973   0.414 -2.5913  0.4966  2.7108
   70MOL0     H 9389   5.140   3.803   0.364  1.2644  2.8910 -0.0357
   70MOL0     H 9390   5.208   3.679   0.474  0.5083 -0.7029 -0.7201
   70MOL0     H 9391   5.137   3.829   0.669 -1.6815 -1.9185  0.2753
   70MOL0     H 9392   5.033   3.925   0.563 -0.8443 -0.5517 -2.2682
   70MOL0     H 9393   4.886   3.740   0.513  0.9868 -1.6302 -0.5261
   70MOL0     H 9394   4.998   3.622   0.574  0.5565 -0.8882  0.5879
   70MOL0     H 9395   4.934   3.671   0.801 -0.5496  0.7450  1.2860
   70MOL0     H 9396   4.902   3.836   0.761  3.0438 -1.0231  2.2275
   70MOL0     H 9397   4.686   3.769   0.669  3.1578  0.4475 -1.9148
   70MOL0     H 9398   4.740   3.597   0.684  0.0297  0.8814 -1.1028
   70MOL0     H 9399   4.568   3.731   0.857 -0.4855 -1.5079  2.4934
   70MOL0     H 9400   4.719   3.773   0.926 -3.1284  1.8930 -0.8228
   70MOL0     H 9401   4.614   3.427   0.772 -1.4899  1.7007 -0.2384
   70MOL0     H 9402   4.481   3.230   0.961 -0.1046  0.6731  0.1987
   70MOL0     H 9403   4.640   3.154   0.891  3.0297  4.2752 -1.5129
   70MOL0     H 9404   4.582   3.194   1.191 -0.0940  1.4053 -0.3162
   70MOL0     H 9405   4.736   3.147   1.107 -0.2347 -0.1807  0.0557
   70MOL0     H 9406   4.676   2.958   1.038 -0.8593  2.0902 -2.9993
   70MOL0     H 9407   4.504   2.973   1.046  1.8282 -1.7423 -0.7943
   70MOL0     H 9408   4.512   2.962   1.271  0.8638  0.4548 -0.2262
   70MOL0     H 9409   4.688   2.970   1.285  2.4795 -1.8552 -1.1855
   70MOL0     H 9410   4.564   2.702   0.950 -0.7843 -0.7793  0.0546
   70MOL0     H 9411   4.307   2.520   0.791  2.5043 -2.1683  3.1185
   70MOL0     H 9412   4.280   2.702   0.784  0.8493 -0.6763 -2.8778
   70MOL0     H 9413   4.439   2.639   0.773 -0.5530  0.7395 -1.0888
   70MOL0     H 9414   3.830   2.798   1.199  0.2432 -1.5349  1.7598
   70MOL0     H 9415   3.586   2.810   1.163  2.3126  1.6082 -0.5014
   70MOL0     H 9416   3.396   2.718   0.768 -3.6520 -0.6363 -0.3255
   70MOL0     H 9417   3.429   2.546   0.802 -1.8854 -0.4978 -1.6219
   70MOL0     H 9418   3.233   2.532   0.929  4.5809 -1.7969 -0.4531
   70MOL0     H 9419   3.187   2.703   0.912 -1.0048  0.0705 -0.6048
   70MOL0     H 9420   3.204   2.498   0.689 -4.2494 -0.6428 -0.8553
   70MOL0     H 9421   3.227   2.666   0.649 -0.1219  1.1895  0.5654
   70MOL0     H 9422   2.991   2.568   0.797  0.5357 -0.8716 -0.9007
   70MOL0     H 9423   3.014   2.735   0.745  1.5018  0.8456  0.4183
   70MOL0     H 9424   3.017   2.499   0.553  1.0480 -0.4116 -1.4644
   70MOL0     H 9425   3.042   2.669   0.509  1.4955 -1.0364  1.3760
   70MOL0     H 9426   2.784   2.580   0.646 -1.6400 -0.1600 -0.6672
   70MOL0     H 9427   2.810   2.714   0.556 -2.2253 -1.4470  2.2987
   70MOL0     H 9428   2.822   2.442   0.411  2.4292 -0.4006 -5.4322
   70MOL0     H 9429   2.877   2.599   0.345  0.4216  3.2691  2.3223
   70MOL0     H 9430   2.600   2.521   0.446  0.4854 -1.3612  0.2402
   70MOL0     H 9431   2.644   2.547   0.280 -4.3733  1.1888  0.4868
   70MOL0     H 9432   3.647   2.515   0.845  1.6553 -3.5425  2.3593
   70MOL0     H 9433   3.864   2.505   0.894  2.5035  1.5257  1.4012
   70MOL0     H 9434   4.197   2.670   1.270 -1.2477  0.7707  0.2236
   70MOL0     H 9435   4.392   2.747   1.333  0.3499  1.3038  0.5528
   70MOL0     H 9436   5.488   3.894   0.020  0.5734  1.5766 -1.5377
   70MOL0     H 9437   5.691   3.947  -0.094 -1.2386 -2.3446 -0.4232
   70MOL0     H 9438   6.049   4.014  -0.229 -1.2717 -2.3996  0.5376
   70MOL0     H 9439   6.233   4.002  -0.397 -4.1616  1.1237  1.6514
   70MOL0     H 9440   6.508   4.029  -0.325  0.8464  0.6685  0.4589
   70MOL0     H 9441   6.635   3.892  -0.340 -1.0118 -1.1441  1.1060
   70MOL0     H 9442   6.493   4.066  -0.546  0.5661  1.0740  1.6060
   70MOL0     H 9443   6.549   3.904  -0.592 -1.3900  0.9939 -1.1631
   70MOL0     H 9444   6.779   3.971  -0.518  0.0746 -0.5449  3.3606
   70MOL0     H 9445   6.722   4.135  -0.458  0.3295  0.8432 -1.7993
   70MOL0     H 9446   6.828   4.143  -0.665  0.6166  0.7328  1.5826
   70MOL0     H 9447   6.660   4.198  -0.670  2.5891  1.6880 -2.3535
   70MOL0     H 9448   6.692   3.831  -0.913  2.4128  0.4644 -2.4670
   70MOL0     H 9449   6.415   3.702  -0.161  0.0834 -0.7853  0.2327
   70MOL0     H 9450   6.271   3.739   0.006  0.4286  0.1074  0.1550
   71MOL0     O 9451   9.696   2.553   7.215 -0.4149 -0.4788 -0.4581
   71MOL0     C 9452   9.783   2.493   7.148 -0.6066 -0.0216  0.2246
   71MOL0     O 9453   9.753   2.389   7.070  0.0701  0.0711  0.6479
   71MOL0     C 9454   9.642   2.314   7.116 -0.2029  0.3015 -0.2593
   71MOL0     C 9455   9.652   2.185   7.156  0.5133 -0.8380  0.1777
   71MOL0     C 9456   9.538   2.108   7.198 -0.7049 -0.9186 -0.0333
   71MOL0     C 9457   9.413   2.159   7.198  0.1805 -0.3711  0.2587
   71MOL0     O 9458   9.297   2.084   7.217  0.1333  0.2985  0.1771
   71MOL0     C 9459   9.304   1.980   7.318  0.1345 -0.0065  0.4119
   71MOL0     C 9460   9.312   2.031   7.463 -0.0911  0.3545 -0.1029
   71MOL0     C 9461   9.204   2.136   7.499 -0.9639  0.3422  0.3558
   71MOL0     C 9462   9.056   2.095   7.463  0.0362  0.0827  0.3728
   71MOL0     C 9463   8.961   2.201   7.514 -0.2765  0.2794  0.1599
   71MOL0     C 9464   8.827   2.182   7.445  0.2682 -0.7777 -0.7199
   71MOL0     C 9465   8.744   2.065   7.508  1.1824 -0.3506 -0.1769
   71MOL0     C 9466   8.628   2.045   7.409  0.2225 -0.8713 -0.9423
   71MOL0     N 9467   8.543   1.924   7.420  0.7545  0.5745 -0.2834
   71MOL0     C 9468   8.530   1.848   7.534 -0.3924 -0.2768  0.0019
   71MOL0     C 9469   8.419   1.772   7.513 -0.3372 -0.2805  0.3759
   71MOL0     C 9470   8.367   1.670   7.605  0.0413 -0.0059 -0.3831
   71MOL0     C 9471   8.214   1.674   7.644 -0.5591 -0.4131 -0.5197
   71MOL0     C 9472   8.200   1.566   7.759  0.3584 -0.3570 -0.3883
   71MOL0     C 9473   8.065   1.600   7.825  0.1680 -0.0721  0.1538
   71MOL0     O 9474   8.020   1.495   7.904  0.2896 -0.0341  1.1201
   71MOL0     C 9475   7.886   1.475   7.898 -0.3787  0.4377 -0.9828
   71MOL0     C 9476   7.827   1.377   7.811  0.3476 -0.1565 -0.3712
   71MOL0     C 9477   7.693   1.363   7.787 -0.3124  0.7146  0.1999
   71MOL0     C 9478   7.655   1.257   7.688  0.3064 -0.6208 -0.0035
   71MOL0     C 9479   7.602   1.451   7.854  0.7791 -0.4569 -0.4069
   71MOL0     C 9480   7.457   1.444   7.842 -0.3545 -0.3426 -0.5974
   71MOL0     O 9481   7.404   1.347   7.761 -0.1998  0.4907 -0.5028
   71MOL0     C 9482   7.267   1.341   7.728 -0.3750  0.2164 -0.9828
   71MOL0     C 9483   7.227   1.315   7.591 -0.1880 -0.2081  0.1913
   71MOL0     C 9484   7.087   1.309   7.553 -1.1070 -0.3040 -0.6082
   71MOL0     C 9485   6.994   1.341   7.646 -0.2300 -0.1500  0.2526
   71MOL0     O 9486   6.863   1.323   7.599 -0.2999 -0.1232 -0.2885
   71MOL0     C 9487   6.752   1.314   7.693 -0.4995 -0.9541  0.6149
   71MOL0     C 9488   6.619   1.261   7.645  0.3249  0.7402  0.9879
   71MOL0     C 9489   6.534   1.356   7.568  0.5942  0.0798  0.6412
   71MOL0     C 9490   6.394   1.300   7.549  0.8092  0.5614  0.4028
   71MOL0     C 9491   6.313   1.286   7.673  0.2564 -0.3447  0.1933
   71MOL0     C 9492   6.159   1.285   7.651 -1.0235  0.5777  1.0791
   71MOL0     C 9493   6.098   1.266   7.785 -0.6230 -0.0286 -0.0620
   71MOL0     C 9494   5.948   1.280   7.765  0.3709  0.1023 -0.6105
   71MOL0    Cl 9495   5.908   1.453   7.769  0.5169 -0.1463 -0.0549
   71MOL0     C 9496   7.028   1.357   7.778 -0.0999 -0.8270 -0.3273
   71MOL0     C 9497   7.160   1.367   7.820 -0.0662 -0.8627 -0.5401
   71MOL0     O 9498   7.388   1.525   7.918 -0.9018 -0.2934 -0.0225
   71MOL0     C 9499   7.657   1.554   7.938  0.5280  0.6978 -0.4952
   71MOL0     C 9500   7.793   1.555   7.965 -0.6305  0.4525  0.4186
   71MOL0     N 9501   8.370   1.797   7.389  0.1118  0.4428 -0.5469
   71MOL0     N 9502   8.433   1.894   7.341 -0.5766 -1.3409 -0.4358
   71MOL0     C 9503   9.402   2.290   7.159  0.1093  0.4104  0.3545
   71MOL0     C 9504   9.512   2.369   7.111 -0.8460 -0.4083  0.5414
   71MOL0     C 9505   9.931   2.533   7.145  0.1570  0.1391  0.2281
   71MOL0     C 9506   9.980   2.598   7.254  0.0770  1.0606 -0.3849
   71MOL0     C 9507  10.123   2.636   7.249  0.8914 -0.7121  0.1309
   71MOL0     C 9508  10.211   2.604   7.143  0.5814 -0.2898 -0.2118
   71MOL0     O 9509  10.343   2.641   7.141  0.0845  0.5554 -1.2045
   71MOL0     C 9510  10.433   2.593   7.044 -0.6686  1.2039  0.4238
   71MOL0     C 9511  10.574   2.599   7.105 -0.6297  0.4780 -0.1933
   71MOL0     C 9512  10.595   2.554   7.250  0.0883 -0.2019  1.0865
   71MOL0     C 9513  10.562   2.408   7.278  0.1539 -1.0306 -0.6776
   71MOL0     C 9514  10.629   2.359   7.402  0.1338  1.1272 -0.5620
   71MOL0     C 9515  10.678   2.310   7.497  0.1676 -0.7459  0.0571
   71MOL0     C 9516  10.148   2.538   7.033  0.3175 -0.5686  1.0652
   71MOL0     C 9517  10.012   2.494   7.031  0.1167 -0.4147  0.0105
   71MOL0     H 9518   9.752   2.143   7.151  2.0321  2.3618  1.0660
   71MOL0     H 9519   9.571   2.011   7.233 -1.1700 -1.1286 -0.1713
   71MOL0     H 9520   9.224   1.908   7.301  0.6643 -0.7919  1.1704
   71MOL0     H 9521   9.394   1.920   7.298  0.6907  0.7478  0.6003
   71MOL0     H 9522   9.286   1.941   7.521  2.2848 -1.4107 -1.5759
   71MOL0     H 9523   9.414   2.064   7.481 -0.3505  2.3922 -1.9819
   71MOL0     H 9524   9.208   2.163   7.605 -1.4946 -0.9913  0.7408
   71MOL0     H 9525   9.228   2.225   7.440 -0.4630 -0.4438 -0.6591
   71MOL0     H 9526   9.043   2.093   7.354  1.4014  0.2424  0.1878
   71MOL0     H 9527   9.034   1.995   7.499 -1.6093  0.2294 -0.1134
   71MOL0     H 9528   8.954   2.188   7.623  0.5088  0.2136  0.2053
   71MOL0     H 9529   8.995   2.304   7.498 -0.0282  0.3906  1.3059
   71MOL0     H 9530   8.764   2.269   7.466  0.0115 -1.5643  2.2248
   71MOL0     H 9531   8.843   2.161   7.339 -0.4533  0.8425 -1.1889
   71MOL0     H 9532   8.792   1.969   7.488 -1.3322 -1.0519 -3.7618
   71MOL0     H 9533   8.719   2.082   7.613 -0.1690 -1.5832 -0.2606
   71MOL0     H 9534   8.676   2.043   7.311  0.7445  0.8338 -0.7429
   71MOL0     H 9535   8.550   2.121   7.411 -0.4317 -1.5361  0.2560
   71MOL0     H 9536   8.602   1.852   7.615 -0.2633 -0.6020 -0.0951
   71MOL0     H 9537   8.388   1.569   7.567 -0.2618 -0.3362  0.3181
   71MOL0     H 9538   8.430   1.671   7.694 -0.8435  3.2453  0.3087
   71MOL0     H 9539   8.146   1.634   7.568 -1.8498 -2.2818  1.4797
   71MOL0     H 9540   8.182   1.772   7.682 -1.7126 -0.3244 -1.6432
   71MOL0     H 9541   8.291   1.560   7.819 -0.4996 -1.0790  0.8815
   71MOL0     H 9542   8.181   1.466   7.719 -1.3976  0.4667 -1.7722
   71MOL0     H 9543   8.003   1.633   7.741 -0.5705 -3.0142 -0.5672
   71MOL0     H 9544   8.059   1.690   7.887  0.2560  1.0519 -1.4102
   71MOL0     H 9545   7.898   1.303   7.775  0.2426 -0.4660  0.0495
   71MOL0     H 9546   7.736   1.195   7.650  0.7087 -0.0111 -0.1517
   71MOL0     H 9547   7.594   1.184   7.743  2.0764 -2.0204  0.2036
   71MOL0     H 9548   7.601   1.302   7.604 -1.4019 -1.3361  0.6637
   71MOL0     H 9549   7.309   1.293   7.522  1.3032  0.4714  1.6844
   71MOL0     H 9550   7.067   1.298   7.446 -1.6656  1.3369 -0.7040
   71MOL0     H 9551   6.791   1.246   7.769 -0.5881 -1.7367 -0.0311
   71MOL0     H 9552   6.733   1.412   7.737 -1.7093  0.2897 -2.3737
   71MOL0     H 9553   6.633   1.162   7.600  2.0956  0.7694  1.4079
   71MOL0     H 9554   6.569   1.246   7.741 -1.3914  0.4679  0.1066
   71MOL0     H 9555   6.571   1.366   7.466  2.0562 -0.3361  1.1150
   71MOL0     H 9556   6.544   1.450   7.624 -1.3037 -0.9619  2.8919
   71MOL0     H 9557   6.347   1.362   7.473  1.4858 -1.2679 -1.6149
   71MOL0     H 9558   6.400   1.203   7.498 -0.0251  1.5081 -1.5552
   71MOL0     H 9559   6.330   1.363   7.749  0.6746 -2.2696  2.1509
   71MOL0     H 9560   6.343   1.192   7.721 -0.2124 -0.6807 -0.1649
   71MOL0     H 9561   6.135   1.383   7.607  1.6313  0.5317 -0.7231
   71MOL0     H 9562   6.121   1.205   7.587  2.2606 -0.8847  0.7775
   71MOL0     H 9563   6.122   1.340   7.862  1.6787 -3.4295  2.8004
   71MOL0     H 9564   6.126   1.174   7.837 -2.0712  0.6352  2.0247
   71MOL0     H 9565   5.890   1.203   7.817  2.1495 -2.0374 -1.5938
   71MOL0     H 9566   5.926   1.247   7.663  0.2019  0.8803 -0.8313
   71MOL0     H 9567   6.944   1.368   7.847  0.0568  0.3618 -0.2986
   71MOL0     H 9568   7.173   1.380   7.927  2.1178 -4.0989 -0.2767
   71MOL0     H 9569   7.596   1.630   7.987  1.9349  2.4363 -1.3052
   71MOL0     H 9570   7.834   1.631   8.031  0.2609 -1.7148  2.4865
   71MOL0     H 9571   9.309   2.345   7.147 -1.4195 -2.4232 -2.5043
   71MOL0     H 9572   9.512   2.469   7.068  3.0340 -0.6240 -0.3355
   71MOL0     H 9573   9.914   2.626   7.336 -0.1746  0.7616 -0.4815
   71MOL0     H 9574  10.170   2.688   7.331  0.1847  2.1630 -1.1576
   71MOL0     H 9575  10.410   2.488   7.028  2.7357  0.1866  1.3356
   71MOL0     H 9576  10.443   2.653   6.953  0.3616 -0.3691 -0.5400
   71MOL0     H 9577  10.607   2.704   7.107  1.3283 -0.0555  3.0228
   71MOL0     H 9578  10.644   2.537   7.049 -2.1038 -0.0383 -1.5486
   71MOL0     H 9579  10.530   2.615   7.314 -1.6264 -0.6310 -0.1881
   71MOL0     H 9580  10.702   2.568   7.271  0.6172 -1.2177 -0.7088
   71MOL0     H 9581  10.601   2.343   7.199 -2.0162 -0.2976 -2.4574
   71MOL0     H 9582  10.455   2.389   7.291 -0.2671  2.0745  1.6561
   71MOL0     H 9583  10.734   2.252   7.568  1.5285  0.8341  0.3500
   71MOL0     H 9584  10.207   2.502   6.949 -1.5117  0.1721 -0.6040
   71MOL0     H 9585   9.968   2.440   6.948 -1.4184  1.0953 -0.2165
   72MOL0     O 9586  10.685   9.512   1.060 -0.3623  0.0321 -1.1891
   72MOL0     C 9587  10.732   9.409   1.014 -0.5040  0.7798 -0.9941
   72MOL0     O 9588  10.798   9.399   0.898  0.2562 -0.1058  0.2513
   72MOL0     C 9589  10.838   9.515   0.837  0.0772 -0.8750 -1.0118
   72MOL0     C 9590  10.776   9.553   0.720  0.1253 -0.6867  0.3256
   72MOL0     C 9591  10.838   9.661   0.653  0.4888 -0.0860 -0.2650
   72MOL0     C 9592  10.948   9.733   0.697 -0.2755 -0.2731  0.0310
   72MOL0     O 9593  11.001   9.836   0.622  0.1838  0.2059 -0.0151
   72MOL0     C 9594  11.007   9.959   0.698  0.2046 -0.0007 -0.2990
   72MOL0     C 9595  10.864   9.997   0.749  0.0603  0.3757 -0.4676
   72MOL0     C 9596  10.846  10.144   0.791 -0.6558  1.4284  0.5803
   72MOL0     C 9597  10.932  10.173   0.917 -0.2389 -0.2381 -0.0100
   72MOL0     C 9598  10.896  10.314   0.965  0.3634  0.3452  0.6035
   72MOL0     C 9599  10.932  10.355   1.114 -0.8187 -0.1307 -0.0464
   72MOL0     C 9600  11.087  10.320   1.140  1.0068 -0.9026 -0.2101
   72MOL0     C 9601  11.176  10.412   1.060 -0.4158  0.2123  0.2270
   72MOL0     N 9602  11.320  10.421   1.104 -0.0627  0.9571  0.3482
   72MOL0     C 9603  11.416  10.331   1.069 -0.1772 -0.6830 -0.2938
   72MOL0     C 9604  11.535  10.377   1.115  0.3651  0.3413  0.0548
   72MOL0     C 9605  11.666  10.311   1.101 -0.5830  0.9297 -0.5697
   72MOL0     C 9606  11.779  10.403   1.044 -0.3318  0.4209  0.8732
   72MOL0     C 9607  11.921  10.349   1.041 -0.0369  0.4156 -0.7513
   72MOL0     C 9608  11.986  10.389   1.173  0.0911  0.9522 -0.5375
   72MOL0     O 9609  11.941  10.291   1.280 -0.6266  0.8914 -0.4566
   72MOL0     C 9610  11.949  10.336   1.410 -0.4941 -0.5140 -0.7690
   72MOL0     C 9611  12.044  10.419   1.470  0.8085  0.9563 -0.3542
   72MOL0     C 9612  12.044  10.460   1.608 -0.3412 -0.2056  0.4811
   72MOL0     C 9613  12.158  10.548   1.656 -0.2133  0.6160  0.2619
   72MOL0     C 9614  11.947  10.413   1.690  0.1300  0.6716 -0.4226
   72MOL0     C 9615  11.916  10.466   1.825  0.0304  0.3331 -1.0080
   72MOL0     O 9616  11.978  10.575   1.869  0.7408 -0.0929 -0.2853
   72MOL0     C 9617  11.980  10.601   2.000  0.1115  0.2787  0.3272
   72MOL0     C 9618  12.088  10.564   2.078 -0.1020  0.4274 -0.3993
   72MOL0     C 9619  12.074  10.564   2.222 -0.2166 -1.1893 -0.1749
   72MOL0     C 9620  11.951  10.618   2.278 -1.1669 -0.7889  0.3457
   72MOL0     O 9621  11.917  10.621   2.415 -0.3405  0.2742  0.4243
   72MOL0     C 9622  12.015  10.561   2.510  0.4919  0.2463 -1.3304
   72MOL0     C 9623  11.994  10.598   2.657  0.2653 -0.2608 -0.2705
   72MOL0     C 9624  12.060  10.495   2.750 -0.5774 -0.1541 -0.8742
   72MOL0     C 9625  12.058  10.534   2.897  0.6609 -0.5332 -0.9799
   72MOL0     C 9626  12.107  10.421   2.982 -0.5074  0.0719 -0.8290
   72MOL0     C 9627  12.258  10.380   2.954 -0.1924 -0.4851 -0.1163
   72MOL0     C 9628  12.308  10.289   3.060 -0.0103  0.6356  0.0602
   72MOL0     C 9629  12.397  10.374   3.163  0.5873  0.2510  0.1289
   72MOL0    Cl 9630  12.510  10.271   3.269  0.1407  0.1768 -0.0528
   72MOL0     C 9631  11.845  10.666   2.193  0.5455 -0.4008 -0.1734
   72MOL0     C 9632  11.859  10.654   2.057  0.8023 -0.1065  0.5361
   72MOL0     O 9633  11.826  10.411   1.888 -0.9740  0.5408 -0.0425
   72MOL0     C 9634  11.861  10.315   1.637 -0.2568  0.7793 -0.3654
   72MOL0     C 9635  11.865  10.279   1.503 -0.0857  0.5723 -0.0964
   72MOL0     N 9636  11.509  10.499   1.172  0.0514 -0.4855 -1.4803
   72MOL0     N 9637  11.380  10.521   1.167  0.2747  0.4770  0.2719
   72MOL0     C 9638  11.011   9.690   0.813  0.0955 -0.1681 -1.1440
   72MOL0     C 9639  10.948   9.583   0.884 -0.9145 -0.0069  0.0113
   72MOL0     C 9640  10.700   9.280   1.080 -0.1231  0.4489  0.0644
   72MOL0     C 9641  10.618   9.273   1.198 -0.3699 -0.8158 -0.1977
   72MOL0     C 9642  10.565   9.155   1.239 -0.2748 -0.0509 -0.3898
   72MOL0     C 9643  10.605   9.036   1.184 -0.0798 -0.7003  0.4374
   72MOL0     O 9644  10.534   8.924   1.207 -0.2875 -0.5707 -0.4033
   72MOL0     C 9645  10.602   8.794   1.204 -0.3989  0.2947  0.4055
   72MOL0     C 9646  10.728   8.773   1.295 -0.7076  0.1734 -0.5301
   72MOL0     C 9647  10.825   8.661   1.264 -0.3137  0.1839 -0.5237
   72MOL0     C 9648  10.794   8.563   1.149 -0.2509 -0.3590  0.1425
   72MOL0     C 9649  10.733   8.448   1.210 -0.3010 -0.2849  0.7468
   72MOL0     C 9650  10.677   8.353   1.270 -0.6868 -0.7324 -0.2779
   72MOL0     C 9651  10.685   9.039   1.065  0.7312 -0.2872 -0.7357
   72MOL0     C 9652  10.731   9.160   1.019  0.5041 -0.6829  1.0939
   72MOL0     H 9653  10.698   9.499   0.668 -0.3466 -0.8255  1.1675
   72MOL0     H 9654  10.793   9.702   0.563  0.9856 -1.3166 -1.1146
   72MOL0     H 9655  11.076   9.966   0.783 -0.6770  1.2849  0.3587
   72MOL0     H 9656  11.050  10.034   0.631  1.0087 -0.2585 -0.0773
   72MOL0     H 9657  10.787   9.973   0.676  1.1979 -0.2277 -1.4944
   72MOL0     H 9658  10.837   9.943   0.840  2.6975 -0.2062  0.0664
   72MOL0     H 9659  10.864  10.207   0.703  1.1370 -2.3409 -2.0323
   72MOL0     H 9660  10.741  10.146   0.823 -0.8926 -1.4495  0.2352
   72MOL0     H 9661  10.905  10.113   1.005  0.8732 -1.2866 -0.3457
   72MOL0     H 9662  11.037  10.165   0.888 -0.3153  2.9828 -1.5915
   72MOL0     H 9663  10.947  10.379   0.894  1.0747  1.7201  2.2880
   72MOL0     H 9664  10.788  10.330   0.957  0.3662  1.5703  2.3347
   72MOL0     H 9665  10.905  10.458   1.135 -0.1065 -0.2700  1.7362
   72MOL0     H 9666  10.871  10.293   1.181 -1.3125 -1.1402 -1.3855
   72MOL0     H 9667  11.113  10.331   1.245  0.1177  0.7444 -0.1288
   72MOL0     H 9668  11.102  10.218   1.104 -1.1430 -1.3231 -0.0299
   72MOL0     H 9669  11.137  10.513   1.076  1.0789  1.1651 -1.6755
   72MOL0     H 9670  11.169  10.394   0.953  3.1598 -0.6283  0.0066
   72MOL0     H 9671  11.400  10.238   1.015 -0.3348 -0.5354 -0.5044
   72MOL0     H 9672  11.693  10.275   1.201  1.6734  1.9112 -0.7682
   72MOL0     H 9673  11.666  10.222   1.037 -0.0307  1.3408 -1.1492
   72MOL0     H 9674  11.773  10.499   1.096 -0.0403  2.8213 -3.0914
   72MOL0     H 9675  11.756  10.425   0.939  0.3847  0.3316  0.6894
   72MOL0     H 9676  11.988  10.370   0.958  3.4247  0.9096  1.9070
   72MOL0     H 9677  11.916  10.240   1.035  0.0122  0.4543 -1.6168
   72MOL0     H 9678  11.954  10.488   1.205 -1.2258  0.2891  0.3213
   72MOL0     H 9679  12.094  10.380   1.163  0.0469  1.7895 -1.9143
   72MOL0     H 9680  12.118  10.449   1.396  1.5281 -0.9774 -0.4712
   72MOL0     H 9681  12.116  10.648   1.665 -0.8862  0.4012 -0.4491
   72MOL0     H 9682  12.190  10.511   1.754  1.4137 -2.2628 -1.2254
   72MOL0     H 9683  12.249  10.549   1.595  1.4139  4.5944  2.3700
   72MOL0     H 9684  12.185  10.541   2.036  0.7705  2.8740  0.0824
   72MOL0     H 9685  12.154  10.523   2.284  0.2438 -0.2920 -0.1457
   72MOL0     H 9686  11.996  10.453   2.503 -0.9329  0.5110 -1.6704
   72MOL0     H 9687  12.121  10.580   2.489 -0.1357  2.4082 -2.7575
   72MOL0     H 9688  12.027  10.702   2.664  1.6862 -0.7642  0.8967
   72MOL0     H 9689  11.894  10.588   2.700  0.5027  0.3526  0.4420
   72MOL0     H 9690  12.163  10.478   2.716  0.3749  1.9726  0.7114
   72MOL0     H 9691  12.007  10.399   2.746  0.0324 -0.7885  2.6445
   72MOL0     H 9692  12.123  10.619   2.919 -2.2372  0.9689  2.9522
   72MOL0     H 9693  11.956  10.561   2.927  0.7823 -0.2594 -0.8146
   72MOL0     H 9694  12.037  10.339   2.970 -0.2528 -0.3548  0.4394
   72MOL0     H 9695  12.089  10.440   3.089 -0.4278 -2.0184 -0.4074
   72MOL0     H 9696  12.261  10.324   2.860  0.2991  1.5041 -1.3458
   72MOL0     H 9697  12.328  10.463   2.942 -0.3895 -0.2589  0.2796
   72MOL0     H 9698  12.358  10.203   3.015 -1.9180  1.4109 -3.9780
   72MOL0     H 9699  12.227  10.249   3.121 -0.2881 -0.0045 -0.7149
   72MOL0     H 9700  12.329  10.419   3.236  0.2358 -0.9144  0.5430
   72MOL0     H 9701  12.464  10.442   3.109  1.2470  0.1648  0.8241
   72MOL0     H 9702  11.762  10.726   2.229  0.7819  0.8868 -1.6769
   72MOL0     H 9703  11.782  10.689   1.989 -1.4305  0.2628  3.0931
   72MOL0     H 9704  11.789  10.274   1.707  0.3927  1.9403  1.0302
   72MOL0     H 9705  11.795  10.201   1.476 -0.0267  0.4971 -0.0320
   72MOL0     H 9706  11.098   9.742   0.850 -0.3063  0.7261 -1.3949
   72MOL0     H 9707  11.000   9.553   0.975 -0.7848  4.3291  1.5749
   72MOL0     H 9708  10.593   9.370   1.241 -0.0530  0.2462 -2.2799
   72MOL0     H 9709  10.512   9.145   1.333  1.5636  0.2839  0.7340
   72MOL0     H 9710  10.538   8.710   1.231  0.2759 -1.2879 -2.4383
   72MOL0     H 9711  10.640   8.783   1.101 -0.1231  1.2219  0.3906
   72MOL0     H 9712  10.702   8.758   1.401 -3.9810 -1.5699 -1.4381
   72MOL0     H 9713  10.784   8.867   1.294  3.2306 -1.9353  0.6596
   72MOL0     H 9714  10.852   8.610   1.357 -1.4670 -0.5750 -0.5740
   72MOL0     H 9715  10.916   8.714   1.234  0.9655 -1.3223  0.5341
   72MOL0     H 9716  10.890   8.534   1.104  0.2775  2.8585 -1.0733
   72MOL0     H 9717  10.744   8.619   1.070  0.0772  3.0388  2.1212
   72MOL0     H 9718  10.623   8.278   1.324 -4.5134  1.7295 -0.3337
   72MOL0     H 9719  10.705   8.943   1.020 -1.5691 -0.9433 -0.4822
   72MOL0     H 9720  10.788   9.157   0.927 -2.5957  0.9345 -1.0931
   73MOL0     O 9721   3.481   9.042   9.810  0.1732  0.3519 -0.5675
   73MOL0     C 9722   3.557   8.964   9.750 -0.3958  0.8281  0.5851
   73MOL0     O 9723   3.514   8.848   9.699  0.6104 -0.5852  0.6726
   73MOL0     C 9724   3.379   8.814   9.704  0.5094 -1.2867 -0.6853
   73MOL0     C 9725   3.304   8.846   9.820  0.2395  0.1159  0.3852
   73MOL0     C 9726   3.174   8.800   9.827 -0.3134 -0.8434 -0.1721
   73MOL0     C 9727   3.120   8.733   9.715  0.8695 -0.3561  0.5142
   73MOL0     O 9728   2.995   8.675   9.726  0.0016  0.0955 -0.5920
   73MOL0     C 9729   2.890   8.775   9.741  0.6265 -0.9517 -0.3716
   73MOL0     C 9730   2.803   8.712   9.855  0.1300 -0.4787  0.4883
   73MOL0     C 9731   2.858   8.702   9.997 -1.0853 -0.5444 -0.1406
   73MOL0     C 9732   2.757   8.715  10.114 -0.4380  0.0095  0.0034
   73MOL0     C 9733   2.643   8.610  10.103 -0.4450 -0.5518 -0.2941
   73MOL0     C 9734   2.547   8.640  10.210  0.0503  0.6470  0.3851
   73MOL0     C 9735   2.407   8.563  10.200 -0.2119 -0.3327 -0.0346
   73MOL0     C 9736   2.317   8.601  10.321  0.6707 -0.8004  0.2510
   73MOL0     N 9737   2.266   8.742  10.318 -0.0928  0.0841 -0.0899
   73MOL0     C 9738   2.151   8.789  10.251  0.2010  0.7939 -0.5063
   73MOL0     C 9739   2.160   8.926  10.263 -0.1453  1.0406  0.8850
   73MOL0     C 9740   2.049   9.021  10.215 -0.3775 -0.4101  0.1368
   73MOL0     C 9741   1.959   9.074  10.320  0.6167  0.3694  0.4706
   73MOL0     C 9742   1.870   8.949  10.354 -0.8279 -0.0014 -0.2627
   73MOL0     C 9743   1.739   8.979  10.426  0.1571 -0.7810  0.1241
   73MOL0     O 9744   1.634   9.023  10.324 -0.5397  0.5240 -0.6497
   73MOL0     C 9745   1.510   9.037  10.367  0.2030 -1.1749  0.2722
   73MOL0     C 9746   1.453   9.013  10.492 -0.3124  0.3488  0.3819
   73MOL0     C 9747   1.316   9.055  10.516  0.4176  0.0182  0.4587
   73MOL0     C 9748   1.258   9.010  10.649  0.8287  0.9021 -0.9827
   73MOL0     C 9749   1.243   9.138  10.419 -1.3337 -0.3085 -0.2225
   73MOL0     C 9750   1.106   9.189  10.437 -0.1803 -0.0841 -0.4772
   73MOL0     O 9751   1.024   9.102  10.488  0.7108  0.3544  0.1778
   73MOL0     C 9752   0.898   9.138  10.537  0.0065 -0.0701 -0.1501
   73MOL0     C 9753   0.895   9.194  10.659  0.2693  0.0127  0.0115
   73MOL0     C 9754   0.768   9.233  10.712 -0.4784  0.1270  0.2682
   73MOL0     C 9755   0.646   9.212  10.643  0.2621 -0.4513 -1.1222
   73MOL0     O 9756   0.525   9.263  10.701 -0.6231 -0.2384  0.1459
   73MOL0     C 9757   0.402   9.219  10.635  0.2799  0.3520  0.1657
   73MOL0     C 9758   0.298   9.221  10.746  0.3575 -0.0456 -0.3209
   73MOL0     C 9759   0.162   9.170  10.703 -0.1040 -0.7577 -0.2704
   73MOL0     C 9760   0.056   9.211  10.808  0.6183 -0.5266 -0.3100
   73MOL0     C 9761  -0.084   9.160  10.775 -0.1557 -0.3901 -0.1750
   73MOL0     C 9762  -0.195   9.214  10.855  0.1546 -0.3303 -0.4797
   73MOL0     C 9763  -0.339   9.163  10.836 -0.3930  0.1909  0.3603
   73MOL0     C 9764  -0.366   9.032  10.925  0.8533 -0.3938  0.2655
   73MOL0    Cl 9765  -0.525   8.974  10.897 -0.3742  0.2465  0.1724
   73MOL0     C 9766   0.661   9.157  10.511  0.0736  0.5658 -0.4850
   73MOL0     C 9767   0.781   9.117  10.460 -0.9633 -0.0617 -1.1051
   73MOL0     O 9768   1.081   9.305  10.426  1.0750  0.3331 -0.3976
   73MOL0     C 9769   1.307   9.167  10.297 -0.1920 -0.6704  0.8020
   73MOL0     C 9770   1.438   9.111  10.273 -0.2676  0.0135 -0.1660
   73MOL0     N 9771   2.272   8.960  10.341  0.3852 -0.6023  0.5929
   73MOL0     N 9772   2.326   8.849  10.374  0.0245 -0.2723  0.8356
   73MOL0     C 9773   3.195   8.710   9.594  0.6958 -0.2464 -0.7432
   73MOL0     C 9774   3.321   8.756   9.594 -1.0072  0.7141 -0.1647
   73MOL0     C 9775   3.704   8.998   9.731 -0.4846  0.8570 -0.5548
   73MOL0     C 9776   3.752   9.127   9.755 -0.1072  0.4766 -0.7204
   73MOL0     C 9777   3.891   9.165   9.743  0.2802 -0.9998  0.1413
   73MOL0     C 9778   3.974   9.061   9.713 -0.4179 -0.0513  0.3931
   73MOL0     O 9779   4.111   9.106   9.700 -0.4350  0.5039  0.4256
   73MOL0     C 9780   4.210   9.000   9.705  0.2477 -0.3415 -0.0778
   73MOL0     C 9781   4.354   9.069   9.718 -0.0431  0.5183  0.1561
   73MOL0     C 9782   4.383   9.141   9.849 -0.7585 -0.7227 -0.3826
   73MOL0     C 9783   4.534   9.150   9.875 -0.6664 -1.2173  0.0879
   73MOL0     C 9784   4.600   9.207   9.756  0.4142  0.8328  0.7033
   73MOL0     C 9785   4.665   9.269   9.673  0.3012 -0.1354  0.1463
   73MOL0     C 9786   3.937   8.927   9.712 -0.4383 -0.2636  0.0724
   73MOL0     C 9787   3.800   8.898   9.714 -0.3167 -0.0790  0.4281
   73MOL0     H 9788   3.348   8.888   9.910  0.7591 -2.0551  1.2075
   73MOL0     H 9789   3.116   8.820   9.917  0.0380  1.3995 -0.3861
   73MOL0     H 9790   2.922   8.875   9.773 -0.8574 -1.1671  1.9912
   73MOL0     H 9791   2.839   8.789   9.645 -2.1365 -0.8085  1.0405
   73MOL0     H 9792   2.707   8.764   9.866 -0.0248 -1.1418  2.6597
   73MOL0     H 9793   2.792   8.611   9.816  1.2749  0.7217 -3.4332
   73MOL0     H 9794   2.901   8.603  10.014 -1.2943 -0.6127 -0.0031
   73MOL0     H 9795   2.931   8.783  10.005 -2.3124  0.4053  3.5595
   73MOL0     H 9796   2.811   8.710  10.209  2.2390  0.9330 -1.3728
   73MOL0     H 9797   2.717   8.817  10.116 -1.3594 -0.2696 -1.8128
   73MOL0     H 9798   2.598   8.609  10.003  0.8945  0.8470 -0.9434
   73MOL0     H 9799   2.687   8.511  10.119  1.4776  0.6425  2.5873
   73MOL0     H 9800   2.593   8.618  10.307 -0.4085 -0.2194  0.4182
   73MOL0     H 9801   2.530   8.748  10.206 -0.3725  0.5517 -1.9952
   73MOL0     H 9802   2.346   8.586  10.112 -0.4914  3.4214  0.9771
   73MOL0     H 9803   2.429   8.456  10.210 -2.2026 -0.6086  2.3149
   73MOL0     H 9804   2.365   8.585  10.417  0.1557  1.6240  0.9622
   73MOL0     H 9805   2.235   8.529  10.312  1.0702 -1.0238 -2.9446
   73MOL0     H 9806   2.078   8.732  10.195 -0.1117 -0.1652  0.8250
   73MOL0     H 9807   2.105   9.107  10.178 -1.1495  0.4401  0.8839
   73MOL0     H 9808   1.995   8.976  10.131 -1.5403 -1.9933  1.6484
   73MOL0     H 9809   1.888   9.151  10.289  0.2356  1.2752  3.3095
   73MOL0     H 9810   1.998   9.110  10.416 -1.8384  0.3553  1.5560
   73MOL0     H 9811   1.927   8.867  10.398 -0.9112  0.1751  0.1776
   73MOL0     H 9812   1.838   8.912  10.256  2.8134 -0.8304 -1.3197
   73MOL0     H 9813   1.754   9.052  10.507 -3.0857 -0.0015  0.1563
   73MOL0     H 9814   1.700   8.886  10.467  1.2453 -2.0348 -1.5463
   73MOL0     H 9815   1.515   8.960  10.564 -0.3822 -1.7959 -1.0425
   73MOL0     H 9816   1.205   9.094  10.696  0.6026  1.2095 -1.7606
   73MOL0     H 9817   1.197   8.920  10.647 -1.0681  1.9590  2.0387
   73MOL0     H 9818   1.340   8.987  10.718  0.4213  1.4137 -0.3157
   73MOL0     H 9819   0.986   9.219  10.712  0.7054  2.2321 -1.6235
   73MOL0     H 9820   0.771   9.298  10.799  2.5453  1.6005 -0.7873
   73MOL0     H 9821   0.370   9.279  10.549 -3.4744 -1.0463  0.4292
   73MOL0     H 9822   0.409   9.111  10.615 -1.1001 -0.0312  1.6175
   73MOL0     H 9823   0.330   9.161  10.832 -0.2189 -3.1639 -2.1429
   73MOL0     H 9824   0.294   9.321  10.789 -4.2840  0.1857 -0.7117
   73MOL0     H 9825   0.173   9.062  10.691  0.3747 -0.8157  0.5475
   73MOL0     H 9826   0.127   9.227  10.617 -1.6439  0.0814  0.8486
   73MOL0     H 9827   0.084   9.174  10.907  3.0845 -3.9842 -2.0504
   73MOL0     H 9828   0.067   9.319  10.818  3.9258 -0.8031  0.1565
   73MOL0     H 9829  -0.088   9.051  10.787  1.1600 -0.4378 -0.0571
   73MOL0     H 9830  -0.106   9.188  10.672  0.4210  2.3514  0.3719
   73MOL0     H 9831  -0.178   9.207  10.963 -0.6808 -2.7330 -0.4483
   73MOL0     H 9832  -0.194   9.322  10.837 -0.7608 -0.3885 -0.9596
   73MOL0     H 9833  -0.362   9.146  10.730  2.2244 -2.0885  0.0392
   73MOL0     H 9834  -0.406   9.232  10.888 -1.7775 -1.9823  1.6614
   73MOL0     H 9835  -0.344   9.035  11.032 -1.5323 -0.3198  0.8147
   73MOL0     H 9836  -0.293   8.958  10.891  1.1070  1.0888 -2.6915
   73MOL0     H 9837   0.571   9.144  10.452 -0.5789  1.4592  0.2615
   73MOL0     H 9838   0.790   9.059  10.369  2.5231  0.7385 -1.4258
   73MOL0     H 9839   1.273   9.243  10.227  2.4700  1.1005  1.3054
   73MOL0     H 9840   1.495   9.133  10.184  0.1641 -1.1986 -0.2099
   73MOL0     H 9841   3.142   8.673   9.507  0.7461 -0.3777 -0.7184
   73MOL0     H 9842   3.379   8.742   9.503 -0.6287  1.1421  0.0092
   73MOL0     H 9843   3.674   9.197   9.784  0.2111  0.9965 -1.0909
   73MOL0     H 9844   3.927   9.266   9.751  1.9800 -0.9695 -4.4699
   73MOL0     H 9845   4.195   8.934   9.792  0.5531 -3.3435 -2.1474
   73MOL0     H 9846   4.205   8.932   9.620  1.7232 -1.8618  0.9744
   73MOL0     H 9847   4.361   9.140   9.635  1.2132  2.0155  1.4740
   73MOL0     H 9848   4.425   8.988   9.700 -0.5831  0.0394  0.1502
   73MOL0     H 9849   4.331   9.087   9.928 -0.8634 -0.9517 -0.6047
   73MOL0     H 9850   4.345   9.243   9.845 -1.0294 -0.8519 -1.8376
   73MOL0     H 9851   4.578   9.053   9.902  0.3636 -0.6217  0.6202
   73MOL0     H 9852   4.552   9.216   9.961  1.0365 -1.2540 -0.2072
   73MOL0     H 9853   4.722   9.329   9.604  1.3428  0.5992  1.5956
   73MOL0     H 9854   4.000   8.840   9.698 -0.6517 -0.3605 -0.3014
   73MOL0     H 9855   3.773   8.795   9.693  1.0779  0.1710 -3.1208
   74MOL0     O 9856  10.828  11.024   8.000  1.0366  0.3841  1.0034
   74MOL0     C 9857  10.886  11.047   7.892  0.4512 -0.7398 -0.4766
   74MOL0     O 9858  10.829  11.074   7.779 -0.0025  1.3932  0.0519
   74MOL0     C 9859  10.690  11.069   7.766 -0.1042 -0.3905 -0.0549
   74MOL0     C 9860  10.649  10.983   7.662 -1.0013  0.1625  0.3094
   74MOL0     C 9861  10.515  10.960   7.637  0.0315 -0.3593  0.3193
   74MOL0     C 9862  10.415  11.015   7.724 -0.1369  0.3090  0.2393
   74MOL0     O 9863  10.283  10.967   7.725 -0.2187  0.3863  0.2655
   74MOL0     C 9864  10.248  10.873   7.620  0.2749 -0.0287  0.1576
   74MOL0     C 9865  10.102  10.842   7.634 -0.5102 -0.0662  0.3829
   74MOL0     C 9866  10.019  10.970   7.595  0.0627  0.4190 -0.6639
   74MOL0     C 9867   9.882  10.934   7.615 -1.1062 -0.0924 -0.2213
   74MOL0     C 9868   9.781  11.052   7.584 -0.4826 -0.1691 -0.1102
   74MOL0     C 9869   9.647  10.995   7.610  0.0342  0.8914  0.0357
   74MOL0     C 9870   9.543  11.102   7.603  0.0393  0.1869  0.1756
   74MOL0     C 9871   9.532  11.194   7.482 -0.7296  0.3904  0.0306
   74MOL0     N 9872   9.476  11.126   7.360 -0.0458  0.0241  0.3744
   74MOL0     C 9873   9.532  11.015   7.299 -0.9071  0.2463 -1.0490
   74MOL0     C 9874   9.440  10.976   7.205 -1.3580  0.6716 -0.1741
   74MOL0     C 9875   9.452  10.857   7.120 -0.0179  0.2545 -0.4467
   74MOL0     C 9876   9.466  10.734   7.221  0.8362 -0.8259 -0.6756
   74MOL0     C 9877   9.344  10.721   7.320  0.4120 -0.1357 -0.2986
   74MOL0     C 9878   9.202  10.711   7.257 -1.3172 -0.0261 -0.4971
   74MOL0     O 9879   9.111  10.631   7.340 -0.5529 -0.0505  0.2277
   74MOL0     C 9880   8.985  10.597   7.291 -0.0509 -0.6095 -0.5727
   74MOL0     C 9881   8.900  10.538   7.380  0.2209 -0.2677 -0.9256
   74MOL0     C 9882   8.763  10.521   7.367 -0.5843 -0.0068  1.2175
   74MOL0     C 9883   8.689  10.468   7.490 -0.6924 -0.7972 -0.1283
   74MOL0     C 9884   8.714  10.548   7.233 -0.3544 -0.0105  0.2755
   74MOL0     C 9885   8.574  10.531   7.187  0.0536  0.2356  0.1079
   74MOL0     O 9886   8.538  10.601   7.077  0.4832 -0.3491  0.2432
   74MOL0     C 9887   8.408  10.653   7.076  0.0496 -0.2126  0.2458
   74MOL0     C 9888   8.320  10.662   7.188 -0.2251 -0.5329  0.2357
   74MOL0     C 9889   8.188  10.717   7.176  0.5373 -0.4002  0.1818
   74MOL0     C 9890   8.141  10.729   7.046 -0.0245  0.1122 -0.0475
   74MOL0     O 9891   8.001  10.747   7.041 -0.0073  0.7690  0.7731
   74MOL0     C 9892   7.955  10.870   6.983 -0.0019  0.7325  0.0413
   74MOL0     C 9893   7.886  10.960   7.084 -0.0923  0.7834 -0.4021
   74MOL0     C 9894   7.760  10.905   7.147 -0.6603  0.1137  0.2038
   74MOL0     C 9895   7.716  11.004   7.260  0.7831  0.5979 -0.5187
   74MOL0     C 9896   7.609  10.959   7.353  1.0039 -0.4334  0.4526
   74MOL0     C 9897   7.471  10.918   7.299  0.9171  0.5369 -0.0334
   74MOL0     C 9898   7.375  10.874   7.413 -0.4253  0.0244  0.9559
   74MOL0     C 9899   7.328  10.991   7.493  0.8793  0.4134 -0.6494
   74MOL0    Cl 9900   7.231  10.929   7.625  0.1821 -0.2081  0.2456
   74MOL0     C 9901   8.229  10.731   6.931 -0.1530  0.3658 -0.1859
   74MOL0     C 9902   8.361  10.684   6.946 -0.5425 -0.1414  0.3746
   74MOL0     O 9903   8.516  10.433   7.237 -0.1699 -0.0701 -0.1212
   74MOL0     C 9904   8.800  10.608   7.135 -0.1529 -0.2473 -0.8738
   74MOL0     C 9905   8.932  10.634   7.164  0.5813  0.1431  0.5231
   74MOL0     N 9906   9.348  11.073   7.200 -0.9480  0.7438  0.2010
   74MOL0     N 9907   9.376  11.165   7.284  0.0648 -0.3957 -0.2458
   74MOL0     C 9908  10.455  11.119   7.813 -0.4046  0.1225 -0.4179
   74MOL0     C 9909  10.587  11.150   7.830 -1.6505 -0.2583 -0.1412
   74MOL0     C 9910  11.032  11.045   7.899 -0.1050  0.4659 -0.5220
   74MOL0     C 9911  11.092  11.000   8.018 -0.5912 -1.0141  0.4636
   74MOL0     C 9912  11.234  10.992   8.032  0.5772  0.2971 -0.7118
   74MOL0     C 9913  11.325  11.026   7.930 -0.5582  0.0106 -0.2223
   74MOL0     O 9914  11.462  11.013   7.928  0.4661 -0.3220  0.6532
   74MOL0     C 9915  11.527  10.930   8.025 -0.0710  0.1361  0.3825
   74MOL0     C 9916  11.680  10.917   7.994  0.2627 -0.2934  0.2425
   74MOL0     C 9917  11.738  11.050   7.957 -0.3746  0.0285 -0.1289
   74MOL0     C 9918  11.702  11.158   8.068 -0.7365  0.5437  0.5442
   74MOL0     C 9919  11.766  11.281   8.047  1.1401 -0.1171  0.3469
   74MOL0     C 9920  11.812  11.388   8.017  0.8181  0.0333  0.2533
   74MOL0     C 9921  11.264  11.069   7.821 -0.3371 -0.2141 -0.3837
   74MOL0     C 9922  11.120  11.077   7.799 -0.8571 -0.1405  0.4678
   74MOL0     H 9923  10.715  10.936   7.591 -1.7916  3.6924 -3.1092
   74MOL0     H 9924  10.494  10.884   7.561 -1.1205  0.9143 -0.6929
   74MOL0     H 9925  10.261  10.922   7.523 -0.4369 -0.1220  0.0041
   74MOL0     H 9926  10.314  10.786   7.630  1.1207  0.5793 -0.0879
   74MOL0     H 9927  10.074  10.760   7.568 -1.6979 -0.4508  1.3216
   74MOL0     H 9928  10.088  10.805   7.735 -2.2549 -4.1833 -1.1513
   74MOL0     H 9929  10.038  11.047   7.670 -1.8333 -1.1124  1.5602
   74MOL0     H 9930  10.046  11.002   7.494  0.6676 -0.4631 -0.7960
   74MOL0     H 9931   9.862  10.840   7.562 -1.2324  0.9789 -2.1631
   74MOL0     H 9932   9.864  10.909   7.719  1.2404  0.6286  0.4163
   74MOL0     H 9933   9.800  11.144   7.640 -1.2183  2.2528 -3.5822
   74MOL0     H 9934   9.794  11.086   7.481 -0.6622 -2.0038 -0.7854
   74MOL0     H 9935   9.638  10.912   7.539 -0.5265  1.2824 -0.3621
   74MOL0     H 9936   9.638  10.948   7.708 -5.2808  1.5998  0.1702
   74MOL0     H 9937   9.450  11.046   7.619  0.1911  0.6116  3.1530
   74MOL0     H 9938   9.561  11.166   7.689 -1.2511 -1.6311  1.9096
   74MOL0     H 9939   9.635  11.219   7.455 -1.4805  2.4318 -1.1018
   74MOL0     H 9940   9.486  11.290   7.506  2.0641  1.8119  0.0968
   74MOL0     H 9941   9.608  10.948   7.338 -2.0323 -0.1306  0.5781
   74MOL0     H 9942   9.364  10.842   7.057 -2.3424  0.9448  2.4666
   74MOL0     H 9943   9.530  10.856   7.043  0.0638  1.4122 -0.3950
   74MOL0     H 9944   9.552  10.742   7.287  0.7791 -0.0078 -0.6932
   74MOL0     H 9945   9.480  10.645   7.160  0.9919 -0.7309 -0.7777
   74MOL0     H 9946   9.345  10.798   7.398 -0.4240 -0.4517  0.0335
   74MOL0     H 9947   9.351  10.622   7.365 -2.5688 -0.9558 -1.4141
   74MOL0     H 9948   9.207  10.654   7.164 -0.3099 -1.1646  0.2258
   74MOL0     H 9949   9.158  10.811   7.249 -1.5319  0.1349  1.8745
   74MOL0     H 9950   8.940  10.520   7.479 -0.7020  1.3664 -0.2177
   74MOL0     H 9951   8.675  10.554   7.556  0.9651  0.5793 -1.4615
   74MOL0     H 9952   8.593  10.417   7.475 -1.6552  0.9095 -0.1163
   74MOL0     H 9953   8.751  10.397   7.546  0.0678 -0.7723 -0.9153
   74MOL0     H 9954   8.345  10.620   7.285  3.1579 -0.6644 -0.5793
   74MOL0     H 9955   8.119  10.724   7.258  0.5702 -0.3900  0.2079
   74MOL0     H 9956   8.043  10.921   6.942  2.0531 -2.0825  0.6224
   74MOL0     H 9957   7.889  10.839   6.902  0.3517  0.7428 -0.2530
   74MOL0     H 9958   7.955  10.983   7.166 -2.0356  2.8584  0.7390
   74MOL0     H 9959   7.879  11.055   7.031 -1.6047  0.7124 -0.3646
   74MOL0     H 9960   7.789  10.812   7.197  1.0119 -0.5357 -1.8196
   74MOL0     H 9961   7.688  10.901   7.065 -0.0625  0.7912 -0.3732
   74MOL0     H 9962   7.803  11.039   7.317  0.2486 -0.6949  1.1952
   74MOL0     H 9963   7.676  11.089   7.203 -1.5199 -1.8890 -2.8953
   74MOL0     H 9964   7.588  11.042   7.422 -0.1134  0.2442 -0.6629
   74MOL0     H 9965   7.645  10.886   7.427  0.5725  1.5670  2.7722
   74MOL0     H 9966   7.428  10.993   7.232  1.2647  0.3768 -0.4418
   74MOL0     H 9967   7.490  10.826   7.243 -0.8492 -0.9534  1.6814
   74MOL0     H 9968   7.434  10.804   7.474  0.8122 -0.5564 -0.8272
   74MOL0     H 9969   7.286  10.827   7.372 -0.7922  3.0164 -2.1310
   74MOL0     H 9970   7.265  11.054   7.429  0.2306 -0.0331 -0.4655
   74MOL0     H 9971   7.410  11.056   7.525 -1.6919  4.1617 -0.9580
   74MOL0     H 9972   8.193  10.740   6.828  3.1407  1.0509 -1.3904
   74MOL0     H 9973   8.428  10.685   6.861  1.6478 -1.2942  1.9817
   74MOL0     H 9974   8.759  10.630   7.037 -2.6903  3.6260  0.8267
   74MOL0     H 9975   8.989  10.690   7.090  0.8027 -1.6290 -0.7161
   74MOL0     H 9976  10.377  11.153   7.881  0.7298 -0.1135  1.0586
   74MOL0     H 9977  10.620  11.222   7.904 -1.3033  1.0740 -1.5451
   74MOL0     H 9978  11.045  10.965   8.109  2.0589 -2.1993  1.4683
   74MOL0     H 9979  11.281  10.940   8.115  0.8902  0.5284 -0.7385
   74MOL0     H 9980  11.497  10.968   8.123  0.7922  1.7168  0.0622
   74MOL0     H 9981  11.486  10.830   8.007  0.0608 -0.1127  1.3925
   74MOL0     H 9982  11.695  10.833   7.925 -0.6454 -0.8819  0.7448
   74MOL0     H 9983  11.728  10.891   8.089 -0.0804  0.2642  0.5773
   74MOL0     H 9984  11.696  11.078   7.860  0.6121  2.8438  0.1592
   74MOL0     H 9985  11.845  11.034   7.942  0.0863  0.8893  1.8495
   74MOL0     H 9986  11.752  11.117   8.156 -0.6660 -0.3305  0.1120
   74MOL0     H 9987  11.594  11.173   8.080 -0.4918  2.0326  1.0440
   74MOL0     H 9988  11.857  11.485   8.016  1.4016 -0.1109  3.3892
   74MOL0     H 9989  11.331  11.096   7.740 -2.4497  2.1469 -1.4737
   74MOL0     H 9990  11.086  11.110   7.702  1.9019 -1.5931 -1.1341
   75MOL0     O 9991   9.052   3.382   4.812  0.3592 -0.5217 -0.3705
   75MOL0     C 9992   9.010   3.319   4.907 -0.0982 -0.8487 -0.7773
   75MOL0     O 9993   9.008   3.179   4.920  0.7702 -0.6984 -0.3158
   75MOL0     C 9994   9.089   3.099   4.854 -0.3549  0.6857 -0.2689
   75MOL0     C 9995   9.044   2.968   4.812 -0.1125 -0.4913 -0.0759
   75MOL0     C 9996   9.132   2.895   4.730 -0.5955  0.6321 -1.2618
   75MOL0     C 9997   9.260   2.934   4.690  0.8205  0.6201 -0.1093
   75MOL0     O 9998   9.335   2.847   4.613 -0.0467  0.1004  0.3168
   75MOL0     C 9999   9.482   2.855   4.605  0.6902 -0.4788 -0.5072
   75MOL0     C10000   9.562   2.864   4.732 -0.8145  0.1191 -0.1756
   75MOL0     C10001   9.559   2.726   4.802  0.4529  0.1349 -0.8191
   75MOL0     C10002   9.612   2.753   4.949  0.1303 -0.0698 -0.5515
   75MOL0     C10003   9.648   2.618   5.019 -0.2765 -1.0892 -0.4230
   75MOL0     C10004   9.749   2.525   4.947  0.2054 -0.0105 -1.1663
   75MOL0     C10005   9.874   2.605   4.892 -1.1105 -0.3943  0.4471
   75MOL0     C10006   9.966   2.661   5.001 -0.2703  0.0226  0.1723
   75MOL0     N10007  10.042   2.767   4.939 -0.5720 -0.5866 -0.1922
   75MOL0     C10008  10.150   2.751   4.854  0.2983 -0.8147  0.2982
   75MOL0     C10009  10.168   2.879   4.810 -0.1362 -0.1227 -1.5245
   75MOL0     C10010  10.268   2.928   4.710 -0.5310 -0.1529  0.9138
   75MOL0     C10011  10.306   2.830   4.594  0.6374 -0.9083 -0.6442
   75MOL0     C10012  10.398   2.721   4.650 -0.6242  0.3700  0.1019
   75MOL0     C10013  10.419   2.604   4.555 -0.9935 -0.4630  0.2899
   75MOL0     O10014  10.304   2.542   4.512  0.4557  0.0450  0.2751
   75MOL0     C10015  10.262   2.435   4.587 -0.2566 -0.7338  0.3834
   75MOL0     C10016  10.129   2.433   4.628 -1.0081  0.5557  0.8562
   75MOL0     C10017  10.082   2.310   4.685 -0.2227 -0.1564 -0.4544
   75MOL0     C10018   9.934   2.296   4.719 -0.2245 -0.5794  0.0562
   75MOL0     C10019  10.162   2.200   4.705  1.1034 -0.2881  0.1535
   75MOL0     C10020  10.122   2.063   4.756  0.8206 -0.4518 -1.2491
   75MOL0     O10021  10.005   2.043   4.817  0.0245  0.3281 -0.6165
   75MOL0     C10022   9.944   1.919   4.804 -0.6530 -0.5902  0.9629
   75MOL0     C10023   9.999   1.802   4.858  0.3218  0.3986 -0.9450
   75MOL0     C10024   9.928   1.685   4.860  0.8344  0.3347 -0.3875
   75MOL0     C10025   9.810   1.674   4.788  0.9542 -0.4641  0.4070
   75MOL0     O10026   9.743   1.553   4.790  0.8801 -0.2257  0.0660
   75MOL0     C10027   9.637   1.540   4.890 -0.1427 -0.1477 -0.1234
   75MOL0     C10028   9.554   1.418   4.851  0.8704 -0.0848 -0.3068
   75MOL0     C10029   9.449   1.465   4.737 -0.1676 -0.6818  0.3537
   75MOL0     C10030   9.320   1.520   4.799  0.1611 -0.2647  0.2308
   75MOL0     C10031   9.224   1.399   4.826 -0.2931  0.3738  0.8291
   75MOL0     C10032   9.102   1.440   4.906 -0.8458  0.8544 -0.2083
   75MOL0     C10033   9.010   1.324   4.926  0.1144 -0.7660 -0.7288
   75MOL0     C10034   8.875   1.376   4.969  0.4671  0.0176 -0.1897
   75MOL0    Cl10035   8.787   1.445   4.837 -0.0823  0.5245 -0.4663
   75MOL0     C10036   9.750   1.793   4.731 -0.3099  0.7638 -0.1370
   75MOL0     C10037   9.815   1.913   4.741 -0.1443  0.8577 -0.0261
   75MOL0     O10038  10.194   1.967   4.732 -0.2546  0.4259  0.1360
   75MOL0     C10039  10.293   2.215   4.676 -1.1016  0.3972  0.6107
   75MOL0     C10040  10.347   2.326   4.613 -0.5690 -1.1169  0.7800
   75MOL0     N10041  10.082   2.969   4.870 -0.3763  0.1489 -0.2034
   75MOL0     N10042  10.011   2.901   4.952 -0.0988  0.1192 -0.5648
   75MOL0     C10043   9.307   3.061   4.734  0.1255  0.4977  0.9544
   75MOL0     C10044   9.221   3.137   4.822 -1.1216 -0.2141  0.4756
   75MOL0     C10045   8.956   3.404   5.022  0.0718 -1.0985  0.8580
   75MOL0     C10046   8.941   3.542   5.004  0.8950 -0.4856  0.6003
   75MOL0     C10047   8.878   3.618   5.103  0.4047 -0.3745 -0.5367
   75MOL0     C10048   8.857   3.556   5.229  0.4627 -0.3140  0.7170
   75MOL0     O10049   8.808   3.631   5.336 -0.1476  1.1520 -0.0180
   75MOL0     C10050   8.730   3.742   5.305  0.2737 -0.4884 -0.6714
   75MOL0     C10051   8.601   3.703   5.237  0.5564  0.4493 -0.3692
   75MOL0     C10052   8.528   3.593   5.315 -0.1869 -0.1732  0.3833
   75MOL0     C10053   8.474   3.629   5.449 -0.3386  0.7541 -0.6531
   75MOL0     C10054   8.382   3.733   5.451 -1.0493 -0.9738 -0.1096
   75MOL0     C10055   8.289   3.812   5.463 -0.0128  0.6440  0.0764
   75MOL0     C10056   8.868   3.420   5.245 -0.5077  0.7957  0.1141
   75MOL0     C10057   8.911   3.344   5.140  0.0031 -1.1938 -0.3895
   75MOL0     H10058   8.942   2.936   4.830 -0.4995 -0.7414 -2.3865
   75MOL0     H10059   9.114   2.792   4.700  1.6471  0.2809 -1.5931
   75MOL0     H10060   9.516   2.778   4.534  4.2105  2.3718 -2.2423
   75MOL0     H10061   9.506   2.950   4.556 -1.1635  0.9476  1.2134
   75MOL0     H10062   9.666   2.894   4.716 -0.1515 -0.3862  2.6542
   75MOL0     H10063   9.520   2.948   4.788  2.6375  2.1913 -0.4134
   75MOL0     H10064   9.458   2.685   4.813  0.7713  0.1379  3.5025
   75MOL0     H10065   9.622   2.657   4.746 -0.9051 -0.2547 -1.9472
   75MOL0     H10066   9.704   2.811   4.955 -0.8849  1.5049  1.7680
   75MOL0     H10067   9.542   2.802   5.018  1.0122  0.8954 -0.3106
   75MOL0     H10068   9.702   2.638   5.112 -0.5909 -1.5326 -0.1368
   75MOL0     H10069   9.556   2.562   5.041 -0.8322 -1.3512 -3.1428
   75MOL0     H10070   9.767   2.444   5.019 -1.2207  1.7329  1.2775
   75MOL0     H10071   9.702   2.478   4.860  2.1642  0.5837 -2.6206
   75MOL0     H10072   9.937   2.540   4.831 -2.0843 -0.8353 -0.1202
   75MOL0     H10073   9.841   2.676   4.815  2.3711 -2.0084 -2.8645
   75MOL0     H10074  10.041   2.596   5.047 -0.2973  1.6356  2.6765
   75MOL0     H10075   9.902   2.704   5.079  0.5900  1.0743  0.3101
   75MOL0     H10076  10.204   2.658   4.837 -0.1434 -0.8737 -0.7954
   75MOL0     H10077  10.228   3.020   4.665 -0.7640 -1.6429 -2.1859
   75MOL0     H10078  10.362   2.948   4.762 -0.5198  1.0190  0.4718
   75MOL0     H10079  10.357   2.893   4.521  0.4325  0.2924  0.2326
   75MOL0     H10080  10.214   2.789   4.551 -0.2721  1.5709 -1.1855
   75MOL0     H10081  10.365   2.681   4.747  1.0834  1.6373  1.2722
   75MOL0     H10082  10.494   2.773   4.657 -1.0280  1.0722  0.4485
   75MOL0     H10083  10.500   2.534   4.581  1.2643  2.0141  0.3763
   75MOL0     H10084  10.462   2.640   4.460 -6.4445  1.5179 -1.7994
   75MOL0     H10085  10.058   2.513   4.606  0.6759  1.6279 -1.0332
   75MOL0     H10086   9.872   2.372   4.672  0.3191 -0.1908 -0.0365
   75MOL0     H10087   9.892   2.199   4.689  1.3304 -1.8172  1.6467
   75MOL0     H10088   9.923   2.290   4.828  1.4461 -0.6564  0.2503
   75MOL0     H10089  10.094   1.814   4.909 -0.0874 -2.0361  0.5441
   75MOL0     H10090   9.953   1.585   4.894  0.1383  0.2930  0.0174
   75MOL0     H10091   9.688   1.509   4.982 -0.9651  1.0496  0.7651
   75MOL0     H10092   9.567   1.622   4.908 -0.1566 -0.4353  1.2396
   75MOL0     H10093   9.625   1.343   4.815  1.8000  0.8690 -0.4800
   75MOL0     H10094   9.502   1.393   4.945  0.0869 -3.6088 -1.5128
   75MOL0     H10095   9.432   1.387   4.662  1.2050 -2.4305  1.7549
   75MOL0     H10096   9.492   1.542   4.673  0.9435 -0.0725  1.7676
   75MOL0     H10097   9.338   1.581   4.889  0.1960 -0.3500  0.2811
   75MOL0     H10098   9.267   1.575   4.721  2.5182 -1.3067 -2.2558
   75MOL0     H10099   9.286   1.326   4.879 -2.7128 -1.8000  0.9002
   75MOL0     H10100   9.190   1.362   4.729  0.1288 -0.5582  1.0179
   75MOL0     H10101   9.133   1.477   5.004 -0.9284  1.0494 -0.2549
   75MOL0     H10102   9.060   1.521   4.845  2.9346  0.9977 -3.0628
   75MOL0     H10103   9.058   1.265   5.004 -0.0760  1.6947  1.4116
   75MOL0     H10104   8.997   1.261   4.838 -0.6333 -1.0379 -0.4369
   75MOL0     H10105   8.878   1.443   5.055  0.3529 -0.6702  0.3630
   75MOL0     H10106   8.811   1.293   5.002 -2.0042  2.0554  0.4299
   75MOL0     H10107   9.650   1.800   4.690 -0.5504 -0.0420  0.2965
   75MOL0     H10108   9.769   2.000   4.696 -1.6390  2.0078  3.4160
   75MOL0     H10109  10.363   2.132   4.686 -2.4604 -0.7819  0.8084
   75MOL0     H10110  10.449   2.329   4.576 -2.0039  3.8470 -4.0287
   75MOL0     H10111   9.404   3.091   4.697  0.1990 -2.5364 -1.7368
   75MOL0     H10112   9.280   3.223   4.853  1.8193 -2.1517  0.6149
   75MOL0     H10113   8.974   3.594   4.915 -0.2731  1.0541  1.0188
   75MOL0     H10114   8.859   3.724   5.092 -0.4570  0.0471  3.4672
   75MOL0     H10115   8.720   3.790   5.402  3.5015  2.6021 -1.6446
   75MOL0     H10116   8.776   3.830   5.259 -1.3978  0.8088  0.0058
   75MOL0     H10117   8.616   3.659   5.138 -1.9003 -1.5484  0.0430
   75MOL0     H10118   8.533   3.788   5.227 -1.6403 -1.3565 -1.9228
   75MOL0     H10119   8.593   3.506   5.324  0.4148  0.4614  2.7426
   75MOL0     H10120   8.434   3.564   5.267  0.1617  1.9885 -1.7902
   75MOL0     H10121   8.548   3.651   5.527 -0.2914 -0.6010 -0.2943
   75MOL0     H10122   8.424   3.539   5.485 -0.5375  0.4596 -1.6421
   75MOL0     H10123   8.226   3.896   5.486  0.9275  1.2315  0.5558
   75MOL0     H10124   8.856   3.368   5.339  0.1278  1.1571  0.4028
   75MOL0     H10125   8.927   3.240   5.165 -2.3964 -1.1227  1.8661
   76MOL0     O10126   9.721  11.191   4.073 -0.3289 -0.4828  0.0878
   76MOL0     C10127   9.806  11.165   4.160 -0.9963 -0.5983 -0.4524
   76MOL0     O10128   9.784  11.177   4.296 -0.2860  0.1368 -0.0899
   76MOL0     C10129   9.663  11.215   4.344  0.0129 -0.1688  0.7961
   76MOL0     C10130   9.687  11.268   4.472 -0.5361  0.7287 -0.5103
   76MOL0     C10131   9.583  11.300   4.554  0.5717  0.8790  0.0417
   76MOL0     C10132   9.454  11.276   4.508  0.2309 -0.4849  0.9387
   76MOL0     O10133   9.335  11.303   4.563 -0.7729  0.2605 -0.5141
   76MOL0     C10134   9.336  11.363   4.692  0.3770 -0.3140 -0.8474
   76MOL0     C10135   9.193  11.430   4.717  0.5635  0.1529  1.0050
   76MOL0     C10136   9.161  11.541   4.618 -0.0164 -0.2399  0.4137
   76MOL0     C10137   9.087  11.485   4.494 -0.9902  0.7626 -0.1875
   76MOL0     C10138   8.971  11.585   4.463 -1.3101 -0.4557  0.6828
   76MOL0     C10139   8.937  11.550   4.309  0.1486  0.5078 -0.1022
   76MOL0     C10140   8.810  11.600   4.258  0.3023  0.6951  1.3006
   76MOL0     C10141   8.760  11.522   4.130 -0.1717  0.6362 -0.3921
   76MOL0     N10142   8.670  11.414   4.168  0.0708 -0.0366  0.0946
   76MOL0     C10143   8.535  11.433   4.200 -0.1053  0.0730 -0.5511
   76MOL0     C10144   8.492  11.317   4.268  0.0000  0.8732  0.9186
   76MOL0     C10145   8.360  11.296   4.330  0.3488 -0.6414  0.1644
   76MOL0     C10146   8.255  11.250   4.243 -0.1611  0.0101  0.7654
   76MOL0     C10147   8.126  11.217   4.317 -0.2167 -0.2348 -1.0646
   76MOL0     C10148   8.022  11.176   4.212  0.4576 -0.8835 -0.7391
   76MOL0     O10149   7.901  11.150   4.287  0.3697 -0.6055  0.0433
   76MOL0     C10150   7.776  11.132   4.232 -0.1616 -0.1301  0.1505
   76MOL0     C10151   7.741  11.159   4.103 -0.1649  0.5800 -0.0394
   76MOL0     C10152   7.622  11.137   4.044  0.1682  0.6135 -0.0067
   76MOL0     C10153   7.607  11.169   3.901 -0.1720 -0.5961  0.4318
   76MOL0     C10154   7.516  11.100   4.132 -0.0565 -0.9513  0.2953
   76MOL0     C10155   7.375  11.066   4.095  0.0668 -0.4159 -0.4113
   76MOL0     O10156   7.282  11.039   4.195  0.7601  0.6706 -0.2931
   76MOL0     C10157   7.165  10.971   4.175 -0.2542 -0.6759  0.3084
   76MOL0     C10158   7.165  10.844   4.109 -0.2127  0.3580 -0.2474
   76MOL0     C10159   7.046  10.766   4.088  0.2812 -0.0847  0.1260
   76MOL0     C10160   6.924  10.818   4.132  0.1938  0.2940 -0.0675
   76MOL0     O10161   6.816  10.747   4.111 -0.2175 -0.4182  0.5196
   76MOL0     C10162   6.706  10.825   4.048  0.5030  0.4802  0.1928
   76MOL0     C10163   6.633  10.743   3.932  0.1796  0.3482  0.2376
   76MOL0     C10164   6.701  10.754   3.791 -0.3944  0.3120  0.7745
   76MOL0     C10165   6.610  10.699   3.666 -0.0469  0.6721 -0.4449
   76MOL0     C10166   6.679  10.721   3.535 -0.0066  0.2896  0.0157
   76MOL0     C10167   6.781  10.609   3.500  1.1608 -0.5187 -1.2000
   76MOL0     C10168   6.888  10.671   3.412 -0.0977 -0.1749 -1.2766
   76MOL0     C10169   6.976  10.568   3.351 -0.2602  0.5702  0.3583
   76MOL0    Cl10170   7.040  10.450   3.465 -0.2999 -0.1132 -0.0120
   76MOL0     C10171   6.917  10.958   4.187  0.3061 -0.0457 -0.4887
   76MOL0     C10172   7.040  11.023   4.201 -1.5139 -0.1027 -0.1114
   76MOL0     O10173   7.351  11.047   3.975 -0.8142 -0.6861 -0.2085
   76MOL0     C10174   7.546  11.082   4.265 -0.1257  0.8393  0.4342
   76MOL0     C10175   7.677  11.088   4.319  0.2685  0.1404  0.5107
   76MOL0     N10176   8.596  11.223   4.248  0.2627  0.3462  0.1722
   76MOL0     N10177   8.697  11.287   4.201 -0.4183  0.0261 -0.2032
   76MOL0     C10178   9.425  11.213   4.383 -0.2823  0.3840 -1.0377
   76MOL0     C10179   9.536  11.180   4.300  0.4393  0.0036 -0.3496
   76MOL0     C10180   9.949  11.166   4.108  0.8717  0.2709 -0.8120
   76MOL0     C10181  10.059  11.183   4.196 -0.3159 -0.1138  0.1111
   76MOL0     C10182  10.190  11.164   4.152  0.0977  0.7052 -0.5162
   76MOL0     C10183  10.215  11.157   4.012  0.6303  0.0056 -0.1636
   76MOL0     O10184  10.335  11.153   3.958 -0.6235  0.3630 -0.1444
   76MOL0     C10185  10.460  11.197   4.013  0.7472  0.0779 -0.0757
   76MOL0     C10186  10.525  11.076   4.082 -0.1518 -0.6007  0.2185
   76MOL0     C10187  10.679  11.100   4.082  0.6166  0.1062  0.1182
   76MOL0     C10188  10.755  10.986   4.156  0.6290  0.9375 -0.1108
   76MOL0     C10189  10.903  10.982   4.140  0.5057 -1.0181  0.5844
   76MOL0     C10190  11.017  11.018   4.141 -0.6559 -1.0034 -0.0312
   76MOL0     C10191  10.105  11.159   3.931 -0.4322 -0.8556  0.3059
   76MOL0     C10192   9.977  11.159   3.972  0.0174 -0.3864 -0.8061
   76MOL0     H10193   9.792  11.270   4.497 -0.6589  1.0911 -0.0124
   76MOL0     H10194   9.621  11.346   4.645  1.3023 -0.5771  0.4910
   76MOL0     H10195   9.345  11.285   4.769 -2.8468 -0.8516 -0.8823
   76MOL0     H10196   9.410  11.442   4.708 -2.3391  2.6902 -2.1122
   76MOL0     H10197   9.111  11.358   4.715 -1.2830  2.1525  0.3581
   76MOL0     H10198   9.187  11.466   4.820 -1.1225  1.5477  0.4778
   76MOL0     H10199   9.089  11.604   4.671 -0.5852  0.2770 -0.9340
   76MOL0     H10200   9.254  11.591   4.589 -2.0348  2.2589 -2.3561
   76MOL0     H10201   9.149  11.475   4.405 -2.1967 -2.1098 -0.8281
   76MOL0     H10202   9.051  11.383   4.510 -1.7991  0.8300 -1.4567
   76MOL0     H10203   8.886  11.582   4.532 -2.3029  0.8873 -0.4214
   76MOL0     H10204   9.005  11.689   4.454 -0.6212 -0.8324 -1.8265
   76MOL0     H10205   9.014  11.597   4.247 -0.4793 -0.3069 -1.5234
   76MOL0     H10206   8.937  11.441   4.307  2.4347  0.4718 -0.9124
   76MOL0     H10207   8.735  11.598   4.338 -2.7168  0.5003 -1.3315
   76MOL0     H10208   8.827  11.702   4.223  0.0503  0.8437  1.6063
   76MOL0     H10209   8.840  11.472   4.074 -1.7807 -2.4283 -0.1767
   76MOL0     H10210   8.704  11.585   4.061 -1.0676  2.1639  1.6373
   76MOL0     H10211   8.471  11.513   4.167 -0.9383 -0.3447  0.0097
   76MOL0     H10212   8.387  11.225   4.409  0.3917 -1.0818 -0.2411
   76MOL0     H10213   8.313  11.387   4.367 -3.0770 -2.3052  0.2926
   76MOL0     H10214   8.291  11.161   4.190  0.5616  1.7969 -1.9417
   76MOL0     H10215   8.228  11.331   4.173 -0.6872  0.4026  1.4121
   76MOL0     H10216   8.090  11.301   4.377  0.1973 -0.3447 -0.6481
   76MOL0     H10217   8.140  11.133   4.387 -1.8909 -0.7777 -1.3240
   76MOL0     H10218   8.066  11.087   4.165 -1.3482 -2.8638  1.0888
   76MOL0     H10219   8.010  11.248   4.131 -1.8505 -1.5198 -1.0467
   76MOL0     H10220   7.818  11.194   4.036  0.0329 -2.0294 -1.3119
   76MOL0     H10221   7.534  11.245   3.871  1.7412  0.8182 -0.7827
   76MOL0     H10222   7.697  11.221   3.867  0.9649 -1.4774  1.9752
   76MOL0     H10223   7.590  11.088   3.829 -2.2063  1.9992 -2.2397
   76MOL0     H10224   7.263  10.805   4.084 -0.8497 -1.1596 -0.4811
   76MOL0     H10225   7.044  10.665   4.048 -1.7940  0.7511 -2.1007
   76MOL0     H10226   6.642  10.858   4.130  3.6705  2.4706  2.0465
   76MOL0     H10227   6.743  10.916   4.000 -1.1283  1.0800  0.0005
   76MOL0     H10228   6.625  10.641   3.972 -2.3801  0.7738  1.0354
   76MOL0     H10229   6.531  10.784   3.929 -1.5461 -3.4919 -0.5028
   76MOL0     H10230   6.797  10.700   3.788 -0.9614 -0.7117  0.5461
   76MOL0     H10231   6.727  10.859   3.776  1.0740 -0.0598  0.5644
   76MOL0     H10232   6.579  10.596   3.688  1.7319  0.1129 -0.3824
   76MOL0     H10233   6.524  10.766   3.665 -0.9136 -0.4019 -1.0670
   76MOL0     H10234   6.726  10.819   3.525  2.1123 -0.6268  0.4456
   76MOL0     H10235   6.597  10.712   3.462 -0.0503 -1.1695  0.2070
   76MOL0     H10236   6.824  10.564   3.589 -0.9171 -1.3054 -0.5273
   76MOL0     H10237   6.719  10.530   3.455 -2.1708 -0.0407  2.0918
   76MOL0     H10238   6.953  10.731   3.476  1.0880 -1.9762 -0.7144
   76MOL0     H10239   6.844  10.741   3.340 -4.0675 -1.6878 -0.5888
   76MOL0     H10240   7.067  10.618   3.318 -0.1654  0.5115  0.5285
   76MOL0     H10241   6.930  10.517   3.266  0.7056  0.0177  0.1479
   76MOL0     H10242   6.822  11.002   4.215  0.0314 -0.4402 -0.7945
   76MOL0     H10243   7.056  11.119   4.250  2.1971  0.4654 -2.0027
   76MOL0     H10244   7.470  11.054   4.337  1.5434 -2.4432  1.0820
   76MOL0     H10245   7.709  11.058   4.419  0.9710 -0.0970  0.2250
   76MOL0     H10246   9.327  11.179   4.350  0.4633 -2.9776 -0.2145
   76MOL0     H10247   9.518  11.123   4.210 -0.3104 -1.5862  0.7638
   76MOL0     H10248  10.035  11.221   4.295 -0.1670  2.0460 -0.6177
   76MOL0     H10249  10.272  11.170   4.223 -1.0840  0.9240  0.8662
   76MOL0     H10250  10.514  11.243   3.930 -2.0108  1.2535 -1.3394
   76MOL0     H10251  10.438  11.279   4.082 -0.9321 -0.4966  0.1101
   76MOL0     H10252  10.483  10.987   4.034 -2.2449  0.3044  0.2890
   76MOL0     H10253  10.492  11.059   4.184  1.5633 -1.8542  0.6142
   76MOL0     H10254  10.705  11.189   4.139  2.4078 -1.3318  1.6822
   76MOL0     H10255  10.723  11.115   3.983 -0.3548  1.9090 -0.0817
   76MOL0     H10256  10.721  10.900   4.096  1.7742  0.9351 -0.7911
   76MOL0     H10257  10.729  10.984   4.262 -0.7995 -1.0226 -0.4385
   76MOL0     H10258  11.122  11.037   4.139 -1.2506  3.6241  0.7735
   76MOL0     H10259  10.120  11.178   3.825 -0.1216  1.0432  0.6567
   76MOL0     H10260   9.887  11.161   3.911  0.5812  0.0445 -1.6465
   77MOL0     O10261  10.371   9.781   5.686 -0.2910  0.9322 -0.1017
   77MOL0     C10262  10.305   9.751   5.783 -0.2733  0.1763 -0.3427
   77MOL0     O10263  10.356   9.704   5.900  0.8475 -0.0214 -1.1289
   77MOL0     C10264  10.491   9.707   5.906 -0.4531 -0.4712  0.1507
   77MOL0     C10265  10.560   9.824   5.921  0.3422 -0.1572  0.2483
   77MOL0     C10266  10.701   9.814   5.927 -0.2935  0.6501  0.5729
   77MOL0     C10267  10.782   9.703   5.922  0.1000  0.0486  0.2455
   77MOL0     O10268  10.922   9.710   5.941 -0.5288  0.3031  0.2106
   77MOL0     C10269  11.020   9.621   5.888  1.1507 -0.4936  0.0155
   77MOL0     C10270  11.146   9.631   5.958 -1.1597  0.6069  0.2283
   77MOL0     C10271  11.258   9.579   5.873 -0.5604  0.9897 -0.7118
   77MOL0     C10272  11.378   9.620   5.955 -0.0457  0.8846 -0.0778
   77MOL0     C10273  11.509   9.552   5.908  0.6189 -0.6353 -0.4022
   77MOL0     C10274  11.552   9.620   5.770  0.5627 -0.0387 -0.2376
   77MOL0     C10275  11.689   9.571   5.723  0.2073 -0.4905  0.1052
   77MOL0     C10276  11.734   9.649   5.599 -0.1881 -0.2672  0.1836
   77MOL0     N10277  11.652   9.612   5.481 -0.2696 -0.2820  0.0377
   77MOL0     C10278  11.664   9.510   5.386 -0.1400  0.1386 -0.0895
   77MOL0     C10279  11.563   9.503   5.306 -0.5293  0.1841 -0.1023
   77MOL0     C10280  11.520   9.412   5.189  1.0653  0.2420 -1.0642
   77MOL0     C10281  11.479   9.265   5.235 -0.8934  0.0357 -0.3195
   77MOL0     C10282  11.395   9.204   5.123  0.3020 -0.0534 -0.8298
   77MOL0     C10283  11.464   9.184   4.988 -0.4391 -0.3726 -0.5670
   77MOL0     O10284  11.376   9.165   4.880 -0.2100 -0.7011 -0.9375
   77MOL0     C10285  11.294   9.059   4.872 -1.0714  0.8667  0.8956
   77MOL0     C10286  11.189   9.057   4.779 -0.7429 -0.0979 -0.0484
   77MOL0     C10287  11.124   8.938   4.750  0.5617 -0.0524 -0.1542
   77MOL0     C10288  11.003   8.944   4.666  0.0423  1.0369  0.5443
   77MOL0     C10289  11.154   8.819   4.820 -0.5750  0.4619  0.1111
   77MOL0     C10290  11.079   8.693   4.820 -0.1542 -0.1957 -1.1041
   77MOL0     O10291  11.157   8.579   4.818 -0.5785  0.1574  0.0195
   77MOL0     C10292  11.107   8.449   4.819 -0.1440  0.6230 -0.0555
   77MOL0     C10293  10.977   8.401   4.850  0.3641  0.3404 -0.7470
   77MOL0     C10294  10.950   8.267   4.859 -0.1032  0.1966 -1.0297
   77MOL0     C10295  11.049   8.167   4.850  0.2416  0.1183 -0.0070
   77MOL0     O10296  11.014   8.036   4.863  0.4235  0.1671 -0.1127
   77MOL0     C10297  11.098   7.937   4.821 -0.2032 -0.2423 -1.0291
   77MOL0     C10298  11.022   7.807   4.819  0.0533 -0.1809 -0.6372
   77MOL0     C10299  11.091   7.694   4.750 -0.3017  0.1182 -0.9040
   77MOL0     C10300  11.048   7.558   4.798 -0.0126  0.1892  0.2082
   77MOL0     C10301  11.073   7.435   4.697  0.8193  0.3683 -0.5254
   77MOL0     C10302  11.091   7.306   4.783 -0.0858 -0.8802 -0.4522
   77MOL0     C10303  11.121   7.189   4.690  0.0378  0.9100 -0.3684
   77MOL0     C10304  11.136   7.062   4.773  0.0721 -0.6291  0.1848
   77MOL0    Cl10305  11.274   7.075   4.882  0.2566  0.0876  0.5750
   77MOL0     C10306  11.179   8.210   4.811 -0.1273  0.3482 -0.7193
   77MOL0     C10307  11.199   8.350   4.794 -0.0800  1.2347  0.1816
   77MOL0     O10308  10.960   8.691   4.834 -0.5837 -0.0834 -0.3136
   77MOL0     C10309  11.260   8.822   4.907  0.8284  0.1041 -0.4210
   77MOL0     C10310  11.328   8.938   4.941  0.0918 -0.2063  0.2010
   77MOL0     N10311  11.475   9.603   5.358  0.4574  1.2672 -0.3377
   77MOL0     N10312  11.534   9.682   5.449  0.0004  0.8974 -1.1643
   77MOL0     C10313  10.707   9.581   5.896 -0.2234  0.1087 -0.3723
   77MOL0     C10314  10.565   9.587   5.901  0.6939 -0.1469  0.4472
   77MOL0     C10315  10.160   9.775   5.780  0.2137 -0.3012  0.6193
   77MOL0     C10316  10.108   9.880   5.702  0.7736  0.0634  0.4129
   77MOL0     C10317   9.974   9.914   5.712  0.1922  0.0007  1.1347
   77MOL0     C10318   9.883   9.833   5.776  0.3631  0.3675  0.8697
   77MOL0     O10319   9.750   9.867   5.765 -0.1703 -0.2379  1.0561
   77MOL0     C10320   9.708   9.910   5.895 -0.9873  0.2523 -0.1186
   77MOL0     C10321   9.569   9.980   5.893  0.7659 -0.3550  0.2252
   77MOL0     C10322   9.569  10.094   5.788  0.6635 -1.1718 -0.0820
   77MOL0     C10323   9.422  10.154   5.775  0.4659 -0.8197 -0.0083
   77MOL0     C10324   9.406  10.276   5.861  0.3732  0.2862  0.0735
   77MOL0     C10325   9.370  10.368   5.928 -0.4115 -0.5293  0.3244
   77MOL0     C10326   9.935   9.718   5.832  0.7275 -0.7449 -0.0911
   77MOL0     C10327  10.073   9.687   5.841  0.4297 -0.6314  0.2729
   77MOL0     H10328  10.508   9.919   5.923  1.4532  0.4508  0.6117
   77MOL0     H10329  10.748   9.911   5.930  1.9436 -0.3622 -0.1497
   77MOL0     H10330  10.993   9.515   5.896 -2.1653  0.1688 -0.8864
   77MOL0     H10331  11.033   9.654   5.785 -0.7303 -0.3149 -0.1952
   77MOL0     H10332  11.163   9.738   5.973  1.7885  0.4761 -1.4394
   77MOL0     H10333  11.137   9.578   6.053 -0.7964  0.0936 -0.0209
   77MOL0     H10334  11.250   9.472   5.853  1.3698  1.0298 -1.9962
   77MOL0     H10335  11.270   9.627   5.776 -1.9020  0.0455 -1.3751
   77MOL0     H10336  11.390   9.729   5.952 -0.6444  0.9887  0.7624
   77MOL0     H10337  11.363   9.578   6.055  1.5334  1.0358  0.2468
   77MOL0     H10338  11.593   9.560   5.977 -0.0036  0.6464  0.2390
   77MOL0     H10339  11.474   9.449   5.901  0.1911 -0.4430 -1.3555
   77MOL0     H10340  11.473   9.590   5.700  0.0087 -1.2601  0.8584
   77MOL0     H10341  11.559   9.729   5.777 -0.5282  0.2703 -2.9486
   77MOL0     H10342  11.760   9.589   5.805  0.6146 -1.6234  0.0255
   77MOL0     H10343  11.682   9.461   5.719  2.0250 -0.6330 -0.1118
   77MOL0     H10344  11.839   9.631   5.574 -1.0669 -2.7256 -2.2498
   77MOL0     H10345  11.717   9.756   5.609 -3.1572 -0.5122 -1.2923
   77MOL0     H10346  11.742   9.435   5.391  1.2110  1.4396 -0.8374
   77MOL0     H10347  11.433   9.464   5.147  2.1272  3.6524  0.6497
   77MOL0     H10348  11.602   9.407   5.116 -0.9068 -2.4522 -3.3632
   77MOL0     H10349  11.424   9.279   5.329  0.5909  0.6865  0.5061
   77MOL0     H10350  11.571   9.212   5.263 -0.9496  0.4135  0.6453
   77MOL0     H10351  11.304   9.260   5.100 -0.1967 -0.7962 -0.7215
   77MOL0     H10352  11.351   9.109   5.156 -4.2239  1.3866 -1.9777
   77MOL0     H10353  11.534   9.100   4.987  0.9041  0.6711 -2.8292
   77MOL0     H10354  11.526   9.269   4.955 -0.8553  1.1947  2.3796
   77MOL0     H10355  11.164   9.138   4.712  1.3759  0.0402 -0.7588
   77MOL0     H10356  10.920   8.953   4.737  2.0821 -0.7486  3.4083
   77MOL0     H10357  11.006   9.025   4.594  0.3188  0.2064 -0.4007
   77MOL0     H10358  11.006   8.849   4.611 -0.5108  1.0398  0.5032
   77MOL0     H10359  10.895   8.469   4.873  0.6984  0.7661 -0.7979
   77MOL0     H10360  10.851   8.223   4.868  1.0309 -2.0908  2.0752
   77MOL0     H10361  11.145   7.952   4.724 -0.0412  0.5284 -0.8350
   77MOL0     H10362  11.169   7.919   4.902 -2.4342  0.5261  1.2282
   77MOL0     H10363  10.992   7.777   4.920 -1.7996 -0.1136 -1.1247
   77MOL0     H10364  10.926   7.821   4.767 -0.0333  0.6782 -0.2633
   77MOL0     H10365  11.194   7.703   4.785 -0.8623  1.7181  0.4536
   77MOL0     H10366  11.090   7.700   4.640  1.8939  1.8069 -0.9060
   77MOL0     H10367  11.102   7.547   4.893  0.5300  0.8306 -0.0149
   77MOL0     H10368  10.941   7.561   4.820  0.0274  0.0095  0.4294
   77MOL0     H10369  11.171   7.462   4.656  0.8639  3.0532  1.1210
   77MOL0     H10370  11.002   7.425   4.614  1.7338 -2.4320 -1.0867
   77MOL0     H10371  11.184   7.310   4.841  2.6177  1.6007 -4.4027
   77MOL0     H10372  11.005   7.283   4.846  1.2661 -0.3431  1.7283
   77MOL0     H10373  11.215   7.209   4.637 -0.7636  1.1447 -1.7740
   77MOL0     H10374  11.034   7.175   4.625  0.1626 -1.8567 -0.0714
   77MOL0     H10375  11.128   6.969   4.716  1.3489 -1.4213  1.2566
   77MOL0     H10376  11.046   7.064   4.836 -0.1890 -0.3177 -0.1899
   77MOL0     H10377  11.264   8.148   4.785  0.4348  2.0610 -3.3752
   77MOL0     H10378  11.298   8.382   4.766  0.5036 -0.6700 -0.0837
   77MOL0     H10379  11.295   8.734   4.960  2.0471  1.4565  1.0881
   77MOL0     H10380  11.404   8.931   5.018 -0.0129 -0.6411  0.2660
   77MOL0     H10381  10.759   9.487   5.880  0.0402 -0.0414  1.1691
   77MOL0     H10382  10.520   9.489   5.890  2.1361 -0.6710 -1.1879
   77MOL0     H10383  10.168   9.949   5.644 -0.9099 -0.6974 -2.4253
   77MOL0     H10384   9.943  10.002   5.656  1.4982  0.9995  1.9070
   77MOL0     H10385   9.699   9.814   5.947 -3.0809  2.0266  3.1090
   77MOL0     H10386   9.776   9.980   5.943 -3.0602  2.6326 -0.3962
   77MOL0     H10387   9.546  10.012   5.995  1.1099 -2.4625  1.0142
   77MOL0     H10388   9.490   9.913   5.857 -1.4694  2.2190 -0.0244
   77MOL0     H10389   9.603  10.058   5.690 -0.5511  0.3125 -1.1068
   77MOL0     H10390   9.627  10.181   5.820 -2.1049 -0.4475  3.6425
   77MOL0     H10391   9.341  10.086   5.804 -1.0416  1.1480  0.5922
   77MOL0     H10392   9.409  10.182   5.670  2.9510 -1.3287 -0.5176
   77MOL0     H10393   9.338  10.451   5.987 -1.0330 -0.9816  0.6359
   77MOL0     H10394   9.865   9.655   5.886 -1.1654  2.9178  2.1431
   77MOL0     H10395  10.101   9.595   5.893  0.5104  0.2658  1.8758
   78MOL0     O10396   8.457   9.260   4.301  0.1997  0.0592 -0.0980
   78MOL0     C10397   8.488   9.339   4.392  0.0080 -0.8398 -0.0036
   78MOL0     O10398   8.412   9.448   4.439 -0.1094  0.3072 -0.8593
   78MOL0     C10399   8.306   9.489   4.364 -0.2265  0.6165  0.0801
   78MOL0     C10400   8.323   9.536   4.234 -0.6343  0.1857  0.5105
   78MOL0     C10401   8.212   9.577   4.163  0.5645 -0.5982  0.5240
   78MOL0     C10402   8.086   9.590   4.231  0.5561 -0.1847  0.3238
   78MOL0     O10403   7.975   9.626   4.155  0.3101  0.4118  0.3777
   78MOL0     C10404   7.843   9.590   4.205  1.0850 -0.8756 -0.2479
   78MOL0     C10405   7.758   9.570   4.079  1.2095 -0.3395  0.4373
   78MOL0     C10406   7.794   9.449   3.993  0.4309  0.2056 -0.1579
   78MOL0     C10407   7.722   9.465   3.862  0.7400 -0.6168  0.9961
   78MOL0     C10408   7.574   9.434   3.868  1.1154 -0.6699 -0.7965
   78MOL0     C10409   7.504   9.443   3.731 -0.2865 -0.9258  0.0886
   78MOL0     C10410   7.507   9.587   3.658  1.0176  0.0929  0.2574
   78MOL0     C10411   7.407   9.582   3.545 -0.1325  0.2855 -0.1978
   78MOL0     N10412   7.438   9.518   3.415  0.4182 -0.5485  0.1309
   78MOL0     C10413   7.404   9.591   3.302 -0.4477 -0.5366  0.3515
   78MOL0     C10414   7.400   9.496   3.206 -0.4310 -0.0129  0.6693
   78MOL0     C10415   7.384   9.508   3.057 -0.4323 -0.0675  0.2682
   78MOL0     C10416   7.248   9.577   3.031 -0.1899 -0.4954  0.3259
   78MOL0     C10417   7.239   9.604   2.879  0.5985 -0.4687  0.7821
   78MOL0     C10418   7.109   9.658   2.831  0.4780 -1.0941  0.4982
   78MOL0     O10419   7.097   9.796   2.857  0.1786  0.3670  0.4609
   78MOL0     C10420   6.981   9.854   2.813 -0.1838  0.2425 -1.2376
   78MOL0     C10421   6.982   9.934   2.695  0.6027 -0.8534  0.6602
   78MOL0     C10422   6.865  10.000   2.648 -0.7937  0.1304  0.0318
   78MOL0     C10423   6.884  10.078   2.518  0.7786  0.2091 -0.6338
   78MOL0     C10424   6.751  10.006   2.726  0.1316 -0.2057 -0.4252
   78MOL0     C10425   6.631  10.092   2.706 -1.1532  0.4381  1.4933
   78MOL0     O10426   6.530  10.079   2.788  0.1594 -0.8089 -0.9197
   78MOL0     C10427   6.422  10.158   2.763 -0.6039 -0.3613 -0.2363
   78MOL0     C10428   6.351  10.119   2.657 -0.0825  0.1638 -0.4629
   78MOL0     C10429   6.216  10.160   2.652 -0.4507 -0.0993 -0.1432
   78MOL0     C10430   6.163  10.255   2.734  0.0400  0.2856 -0.3333
   78MOL0     O10431   6.047  10.310   2.700  0.3945  0.2522 -0.1786
   78MOL0     C10432   5.989  10.410   2.793 -0.2255 -0.3546 -0.3053
   78MOL0     C10433   5.856  10.455   2.736 -0.1722  0.0477 -0.0734
   78MOL0     C10434   5.882  10.512   2.596 -0.0064 -0.3255  1.0174
   78MOL0     C10435   5.815  10.417   2.495  0.4118 -0.2201 -0.3821
   78MOL0     C10436   5.790  10.467   2.352 -0.4655 -0.9542  0.3760
   78MOL0     C10437   5.708  10.590   2.358 -0.4912  0.1829  0.7356
   78MOL0     C10438   5.649  10.616   2.221 -0.3319 -0.4811  0.0031
   78MOL0     C10439   5.617  10.764   2.191 -0.4449  0.4908  0.5064
   78MOL0    Cl10440   5.436  10.778   2.163  0.0431  0.3490  0.1364
   78MOL0     C10441   6.248  10.303   2.834 -0.8985 -0.9062 -0.8940
   78MOL0     C10442   6.380  10.250   2.853  0.8971 -0.4002 -0.1422
   78MOL0     O10443   6.636  10.164   2.609 -0.1724  0.1824 -0.3348
   78MOL0     C10444   6.752   9.924   2.839  0.7343 -0.4854  0.0377
   78MOL0     C10445   6.860   9.850   2.874 -0.7093  0.1230 -0.3339
   78MOL0     N10446   7.422   9.367   3.258 -0.0420 -0.2368 -1.1168
   78MOL0     N10447   7.451   9.391   3.380  0.6495 -0.1032  0.0592
   78MOL0     C10448   8.074   9.544   4.365  0.0431  0.8612  1.0022
   78MOL0     C10449   8.190   9.505   4.428  0.2856 -0.7274  0.0879
   78MOL0     C10450   8.623   9.313   4.439 -0.8892  0.0437 -0.0946
   78MOL0     C10451   8.680   9.396   4.544  0.4221  0.5265 -0.3387
   78MOL0     C10452   8.808   9.373   4.594  0.3378  0.2441  0.0203
   78MOL0     C10453   8.895   9.277   4.543 -0.0489 -0.3718 -0.2310
   78MOL0     O10454   9.023   9.278   4.597  0.0761 -0.4283 -0.3901
   78MOL0     C10455   9.095   9.166   4.556  0.2169  0.3114  0.7645
   78MOL0     C10456   9.233   9.171   4.620  0.1894  0.1974  0.2251
   78MOL0     C10457   9.319   9.044   4.581 -0.0662 -0.3364  0.4347
   78MOL0     C10458   9.464   9.053   4.612  0.6256 -0.6700  0.2537
   78MOL0     C10459   9.523   9.160   4.538  0.3833  0.2714 -0.6783
   78MOL0     C10460   9.572   9.263   4.505 -0.7797  0.6268  0.8475
   78MOL0     C10461   8.845   9.197   4.441 -0.6207  0.1077 -0.3557
   78MOL0     C10462   8.713   9.215   4.386 -0.0094  0.1558  0.1879
   78MOL0     H10463   8.415   9.540   4.177 -0.6742 -1.5025  0.2664
   78MOL0     H10464   8.218   9.612   4.060 -2.0072 -1.1968  0.1017
   78MOL0     H10465   7.831   9.497   4.263 -2.5608 -0.9540 -0.8981
   78MOL0     H10466   7.815   9.677   4.265  0.7180 -3.0331  2.9990
   78MOL0     H10467   7.652   9.573   4.106  0.9372 -0.2513 -0.5850
   78MOL0     H10468   7.776   9.667   4.031  2.8592 -1.0216 -0.3728
   78MOL0     H10469   7.902   9.449   3.976  0.8771 -1.2448  2.1253
   78MOL0     H10470   7.775   9.352   4.039 -1.2504 -0.8303 -2.8251
   78MOL0     H10471   7.738   9.571   3.839  1.8673 -1.1260 -0.7291
   78MOL0     H10472   7.780   9.406   3.791  2.5808  0.0958  1.8646
   78MOL0     H10473   7.572   9.341   3.926  2.9832  1.3382  2.9037
   78MOL0     H10474   7.539   9.516   3.932 -0.7085 -2.4589  0.6453
   78MOL0     H10475   7.556   9.384   3.655  0.0646  0.6414 -0.9085
   78MOL0     H10476   7.397   9.422   3.746 -0.2174 -0.1149  2.1055
   78MOL0     H10477   7.480   9.667   3.729 -0.8262 -1.2100  1.1032
   78MOL0     H10478   7.603   9.626   3.622  0.6369  2.9611  1.9852
   78MOL0     H10479   7.381   9.685   3.520  3.9255  1.6885  0.7017
   78MOL0     H10480   7.315   9.535   3.582  1.1401 -1.2643  1.1806
   78MOL0     H10481   7.383   9.697   3.292  1.1565 -0.2114  0.2687
   78MOL0     H10482   7.470   9.566   3.023  1.4237 -3.3227 -0.9935
   78MOL0     H10483   7.397   9.413   3.005  0.8631 -0.5017  1.3484
   78MOL0     H10484   7.234   9.675   3.079 -0.5121 -0.0017 -0.7355
   78MOL0     H10485   7.168   9.511   3.064  0.8621 -1.6363  0.6855
   78MOL0     H10486   7.250   9.509   2.826  0.8893 -0.0753  0.1279
   78MOL0     H10487   7.321   9.667   2.845 -0.5235 -1.0273 -3.5330
   78MOL0     H10488   7.016   9.625   2.878 -0.5723  0.2243 -0.5741
   78MOL0     H10489   7.097   9.640   2.724 -2.8580 -1.1682  0.7606
   78MOL0     H10490   7.070   9.929   2.633 -0.7508 -1.2952 -1.3281
   78MOL0     H10491   6.977  10.047   2.469 -0.5823 -2.1348 -1.9492
   78MOL0     H10492   6.800  10.053   2.453  1.7318 -0.2345 -1.7178
   78MOL0     H10493   6.896  10.186   2.525 -2.1062  0.5219  0.9329
   78MOL0     H10494   6.396  10.053   2.582  0.5530  0.3754 -0.2731
   78MOL0     H10495   6.148  10.120   2.577  1.2896 -4.4805  0.3605
   78MOL0     H10496   5.978  10.373   2.895 -1.7426 -1.8318 -0.9699
   78MOL0     H10497   6.050  10.501   2.792 -0.5865  0.0038 -3.9782
   78MOL0     H10498   5.783  10.374   2.729 -2.5310  2.1375 -1.4568
   78MOL0     H10499   5.799  10.521   2.802 -4.0004 -3.9785  1.0827
   78MOL0     H10500   5.989  10.511   2.576  0.1856  0.3889  1.9554
   78MOL0     H10501   5.835  10.610   2.583  1.3642  0.0382 -1.8236
   78MOL0     H10502   5.876  10.326   2.491  1.4407  0.4083  0.4497
   78MOL0     H10503   5.720  10.378   2.533 -0.5184  1.2671 -1.1225
   78MOL0     H10504   5.766  10.381   2.289  0.6161 -2.5692  2.0644
   78MOL0     H10505   5.880  10.510   2.306 -0.4860  0.3788  1.5158
   78MOL0     H10506   5.631  10.593   2.436 -1.6298 -0.5192 -0.3339
   78MOL0     H10507   5.791  10.660   2.374  1.5334 -1.9099 -0.0787
   78MOL0     H10508   5.559  10.560   2.194 -0.7319  0.1043  0.0914
   78MOL0     H10509   5.726  10.592   2.147 -1.2804 -3.1148 -0.2394
   78MOL0     H10510   5.673  10.804   2.106  3.5895 -0.1065  2.6744
   78MOL0     H10511   5.637  10.821   2.282 -3.3081  1.5001  0.6163
   78MOL0     H10512   6.215  10.381   2.902 -1.3857 -1.3793 -0.5761
   78MOL0     H10513   6.446  10.267   2.938  1.2024  2.9098 -0.9115
   78MOL0     H10514   6.660   9.921   2.897 -2.5436 -4.9531 -4.5119
   78MOL0     H10515   6.868   9.800   2.970 -0.2021 -1.0539 -0.9716
   78MOL0     H10516   7.987   9.546   4.429  1.5941  1.8815  3.2206
   78MOL0     H10517   8.184   9.483   4.534 -1.9054  2.7347  0.8573
   78MOL0     H10518   8.620   9.479   4.581  0.2217  0.1753  0.1322
   78MOL0     H10519   8.847   9.441   4.669  2.1036  1.9143 -2.2844
   78MOL0     H10520   9.064   9.062   4.568  3.6757 -1.3371 -2.3748
   78MOL0     H10521   9.110   9.173   4.447 -1.2707 -1.8295  0.3604
   78MOL0     H10522   9.210   9.170   4.727 -2.5024  0.5272 -0.2878
   78MOL0     H10523   9.276   9.272   4.613 -0.8087  0.8490  2.4608
   78MOL0     H10524   9.313   9.039   4.472 -0.5122  0.4882  0.4093
   78MOL0     H10525   9.276   8.955   4.627 -0.1912 -0.2720  0.4427
   78MOL0     H10526   9.511   8.962   4.572 -1.1795 -1.0016 -1.2680
   78MOL0     H10527   9.485   9.074   4.717 -0.2023 -0.3096  0.3555
   78MOL0     H10528   9.616   9.348   4.458  0.9887 -0.9666 -0.5103
   78MOL0     H10529   8.892   9.110   4.396 -0.7651 -0.1896  0.0639
   78MOL0     H10530   8.680   9.153   4.304 -3.0633  3.5691 -1.4592
   79MOL0     O10531   9.032   2.204   0.377 -0.5822  0.4989  0.0159
   79MOL0     C10532   9.074   2.094   0.392 -0.0692  0.4536  0.3159
   79MOL0     O10533   8.996   1.987   0.411 -0.1771  0.1070  0.3274
   79MOL0     C10534   8.861   1.998   0.390  0.8835  0.8273 -0.2952
   79MOL0     C10535   8.802   2.016   0.261 -0.0852 -0.0065 -0.5903
   79MOL0     C10536   8.666   2.048   0.259  0.1364  0.3418  0.4747
   79MOL0     C10537   8.581   2.064   0.364  0.0624  0.7425 -0.1743
   79MOL0     O10538   8.447   2.097   0.357  0.5394  0.5683  0.3384
   79MOL0     C10539   8.412   2.234   0.334 -0.0905  0.9481  0.1604
   79MOL0     C10540   8.280   2.280   0.409  0.0781  0.5510 -0.0587
   79MOL0     C10541   8.162   2.188   0.353  1.0887 -0.4016 -0.0726
   79MOL0     C10542   8.108   2.262   0.234 -0.3119 -0.0556 -1.1415
   79MOL0     C10543   8.013   2.173   0.162  0.1424  0.6219  0.4255
   79MOL0     C10544   7.927   2.256   0.070  0.1451  0.2221 -0.4439
   79MOL0     C10545   7.826   2.165   0.002  0.8267 -0.1183  0.6621
   79MOL0     C10546   7.738   2.250  -0.086 -0.0363  0.2584  0.4790
   79MOL0     N10547   7.649   2.158  -0.163  0.9477 -0.1211  0.2420
   79MOL0     C10548   7.581   2.189  -0.286  0.4431 -0.9388 -0.8210
   79MOL0     C10549   7.523   2.083  -0.336 -0.7614 -0.5850  0.2366
   79MOL0     C10550   7.435   2.073  -0.455  0.0801 -0.3096  0.0607
   79MOL0     C10551   7.304   2.143  -0.432 -0.1040 -0.2800  0.5460
   79MOL0     C10552   7.195   2.104  -0.532  0.0681 -0.0762  0.2779
   79MOL0     C10553   7.061   2.112  -0.471 -0.2310 -0.2298  0.1383
   79MOL0     O10554   7.007   2.251  -0.469  0.3835  0.0875  0.3913
   79MOL0     C10555   6.897   2.268  -0.396  0.6397 -0.8239 -0.4474
   79MOL0     C10556   6.871   2.392  -0.328 -0.9790 -0.6815 -0.6561
   79MOL0     C10557   6.747   2.436  -0.263 -0.1932 -0.0919  1.2675
   79MOL0     C10558   6.730   2.573  -0.201  0.7832  0.1041 -0.3021
   79MOL0     C10559   6.638   2.338  -0.271 -0.9339  0.3675 -0.0145
   79MOL0     C10560   6.495   2.366  -0.218 -0.0942 -0.2245  0.0323
   79MOL0     O10561   6.417   2.260  -0.212 -0.1393  0.3104  0.6493
   79MOL0     C10562   6.299   2.266  -0.150 -0.8405 -0.9698  0.3452
   79MOL0     C10563   6.193   2.331  -0.211 -0.0853 -0.0651  0.4505
   79MOL0     C10564   6.063   2.324  -0.157 -0.3450  0.6263 -0.6159
   79MOL0     C10565   6.038   2.262  -0.034  0.0333  0.3710 -0.1465
   79MOL0     O10566   5.912   2.268   0.023  0.3538  0.1456  0.0833
   79MOL0     C10567   5.894   2.308   0.158 -0.1971  0.5231 -0.0965
   79MOL0     C10568   5.772   2.401   0.160 -0.0997  1.2262  0.3755
   79MOL0     C10569   5.743   2.447   0.308 -0.1462 -0.4678 -0.0542
   79MOL0     C10570   5.648   2.571   0.316 -0.2737  0.1859  0.4190
   79MOL0     C10571   5.581   2.564   0.450 -0.0406 -0.6309  0.7962
   79MOL0     C10572   5.488   2.696   0.470  0.0020 -0.4587 -0.5706
   79MOL0     C10573   5.442   2.700   0.615 -0.7371  0.5939 -0.8596
   79MOL0     C10574   5.301   2.752   0.630 -0.5945 -0.8716 -0.1628
   79MOL0    Cl10575   5.159   2.672   0.560  0.0976  0.4225 -0.5036
   79MOL0     C10576   6.148   2.201   0.041  0.5999  0.7827 -0.3581
   79MOL0     C10577   6.274   2.190  -0.025 -0.4934  0.2779  1.3848
   79MOL0     O10578   6.462   2.478  -0.178 -0.9412  0.5611 -0.3960
   79MOL0     C10579   6.673   2.206  -0.326 -0.2573 -0.7211 -0.1193
   79MOL0     C10580   6.790   2.171  -0.393  0.0763 -0.3873  0.5006
   79MOL0     N10581   7.548   1.979  -0.244 -0.0233  0.3506  0.3532
   79MOL0     N10582   7.632   2.022  -0.148 -0.2188 -0.0889  0.2260
   79MOL0     C10583   8.634   2.039   0.493  0.6012 -0.1146 -0.8842
   79MOL0     C10584   8.777   2.022   0.500  0.1497 -0.3576  0.3238
   79MOL0     C10585   9.224   2.083   0.390  1.3243 -0.1711 -0.0056
   79MOL0     C10586   9.305   2.178   0.321 -0.3232 -0.2941  0.9457
   79MOL0     C10587   9.444   2.165   0.301 -0.0009 -0.4211  0.7711
   79MOL0     C10588   9.505   2.056   0.351  0.1137  0.1105  0.6593
   79MOL0     O10589   9.644   2.059   0.324 -0.2769 -0.2652  0.1390
   79MOL0     C10590   9.729   1.982   0.406 -0.1064  0.8723 -0.9876
   79MOL0     C10591   9.854   2.066   0.452 -0.3053 -0.8549  0.5905
   79MOL0     C10592   9.820   2.182   0.542  0.4931 -0.5494 -0.5841
   79MOL0     C10593   9.936   2.286   0.550 -0.3516  0.7326 -0.6094
   79MOL0     C10594   9.915   2.401   0.631  0.5353  0.8521 -0.3891
   79MOL0     C10595   9.882   2.504   0.687 -0.3960  0.4305 -0.4464
   79MOL0     C10596   9.431   1.960   0.422 -0.5729  0.7283 -0.8067
   79MOL0     C10597   9.287   1.966   0.432 -0.0204  0.4789 -0.2114
   79MOL0     H10598   8.861   2.018   0.170 -0.6918 -0.9830 -1.0208
   79MOL0     H10599   8.636   2.074   0.158 -3.4201 -2.4073  0.6203
   79MOL0     H10600   8.489   2.305   0.365  1.3601 -1.2077  1.7380
   79MOL0     H10601   8.401   2.262   0.229 -1.1846  0.8788  0.2351
   79MOL0     H10602   8.297   2.256   0.514  0.7930 -2.5828 -0.7669
   79MOL0     H10603   8.251   2.385   0.401  0.4677  0.5455 -2.6350
   79MOL0     H10604   8.192   2.084   0.338 -1.9932 -1.2151 -1.3993
   79MOL0     H10605   8.087   2.185   0.432  2.1274 -0.1643  0.9586
   79MOL0     H10606   8.067   2.356   0.271 -0.0797 -0.7593  0.9967
   79MOL0     H10607   8.192   2.281   0.166  0.7503  0.9081  0.3979
   79MOL0     H10608   8.069   2.098   0.104  0.2855  2.1901 -1.6094
   79MOL0     H10609   7.947   2.127   0.235 -0.4129  0.5165 -0.1352
   79MOL0     H10610   7.867   2.338   0.111 -0.2600  0.8422 -2.2181
   79MOL0     H10611   7.986   2.314  -0.001 -1.0469  2.6857  0.4531
   79MOL0     H10612   7.874   2.089  -0.060  0.1685  0.2541 -0.3220
   79MOL0     H10613   7.772   2.105   0.075  2.6684  0.1969  2.3886
   79MOL0     H10614   7.800   2.316  -0.148 -0.1147  0.1057  0.2360
   79MOL0     H10615   7.678   2.316  -0.024 -1.3687 -0.7933  0.3610
   79MOL0     H10616   7.570   2.287  -0.331 -1.4740 -1.6577 -2.0351
   79MOL0     H10617   7.479   2.130  -0.537 -0.0148  1.3402  1.1148
   79MOL0     H10618   7.428   1.967  -0.483 -3.1956 -0.0916 -0.3195
   79MOL0     H10619   7.311   2.252  -0.436 -0.5202 -0.2696 -2.5928
   79MOL0     H10620   7.277   2.124  -0.328 -2.4574  3.4195  0.7810
   79MOL0     H10621   7.207   2.000  -0.567 -1.8812  0.2183 -1.4999
   79MOL0     H10622   7.195   2.174  -0.616  0.5580 -0.7462 -0.2961
   79MOL0     H10623   7.062   2.057  -0.376  3.1331 -1.3961 -0.4492
   79MOL0     H10624   7.000   2.052  -0.538 -1.2007  2.7913 -1.9189
   79MOL0     H10625   6.955   2.461  -0.334 -1.6961  0.5488  2.0661
   79MOL0     H10626   6.831   2.610  -0.182 -0.1265  2.5448  0.2269
   79MOL0     H10627   6.667   2.631  -0.270  0.0075  2.4355  2.1747
   79MOL0     H10628   6.677   2.566  -0.105 -0.3809  0.3183 -0.9037
   79MOL0     H10629   6.221   2.378  -0.305 -0.0551 -0.6969  0.1365
   79MOL0     H10630   5.978   2.368  -0.208 -1.2595 -1.4211 -0.9402
   79MOL0     H10631   5.883   2.212   0.209  1.3169  0.8259  0.8496
   79MOL0     H10632   5.982   2.353   0.204 -0.8183  3.0732 -1.1958
   79MOL0     H10633   5.793   2.491   0.102  1.5809 -0.7241 -2.2919
   79MOL0     H10634   5.684   2.348   0.124  0.5118  0.3052  0.1844
   79MOL0     H10635   5.837   2.464   0.361  0.7394 -2.3873 -0.9120
   79MOL0     H10636   5.705   2.358   0.359  1.6305 -1.0103  0.3853
   79MOL0     H10637   5.703   2.664   0.301  1.7605 -1.0128  0.0598
   79MOL0     H10638   5.572   2.577   0.237 -0.1672 -2.0115  0.0876
   79MOL0     H10639   5.657   2.547   0.526 -1.1714 -2.8734  1.5162
   79MOL0     H10640   5.513   2.478   0.446 -1.0137  0.1176  0.8813
   79MOL0     H10641   5.537   2.788   0.436  0.4391 -0.2230  0.6447
   79MOL0     H10642   5.410   2.686   0.394 -0.0914  0.6006 -0.6254
   79MOL0     H10643   5.501   2.770   0.675 -3.1794  1.0276  1.2628
   79MOL0     H10644   5.447   2.599   0.655 -0.6570  0.9285 -0.0022
   79MOL0     H10645   5.294   2.859   0.608 -2.9913 -0.8309  0.4964
   79MOL0     H10646   5.276   2.748   0.737 -3.7112 -0.3964 -0.7726
   79MOL0     H10647   6.122   2.160   0.138  0.8782 -2.3700 -1.5062
   79MOL0     H10648   6.358   2.136   0.017 -0.5927  0.4672  1.8285
   79MOL0     H10649   6.597   2.129  -0.314  0.8370 -1.4709  3.2813
   79MOL0     H10650   6.794   2.072  -0.437 -0.2864  1.1281 -3.2975
   79MOL0     H10651   8.578   2.050   0.585  2.7528 -0.6805  0.5543
   79MOL0     H10652   8.817   1.998   0.598 -1.3046  1.0262  1.3067
   79MOL0     H10653   9.264   2.274   0.292 -1.8636 -0.6494  1.8852
   79MOL0     H10654   9.503   2.244   0.256  2.8205 -2.0306  1.4466
   79MOL0     H10655   9.683   1.949   0.499  1.3397  0.1854 -0.4873
   79MOL0     H10656   9.765   1.893   0.352  0.0865 -1.6835  2.9073
   79MOL0     H10657   9.919   2.102   0.372  0.2386  2.0337  2.1791
   79MOL0     H10658   9.915   1.985   0.493 -1.5459 -3.4878 -2.3620
   79MOL0     H10659   9.795   2.144   0.641 -6.0600  2.7615 -0.3625
   79MOL0     H10660   9.727   2.226   0.505  0.7966 -0.1259 -0.8553
   79MOL0     H10661   9.946   2.318   0.445  2.2379  0.4676 -0.5055
   79MOL0     H10662  10.036   2.252   0.578 -1.6912 -2.1952  1.1613
   79MOL0     H10663   9.850   2.597   0.729 -0.5538 -0.2709  1.0410
   79MOL0     H10664   9.468   1.871   0.473 -3.4774 -0.5697 -0.7421
   79MOL0     H10665   9.226   1.890   0.480  2.5920 -1.1517  0.7287
   80MOL0     O10666   6.777   1.000   6.084  0.2919 -0.5433 -0.6645
   80MOL0     C10667   6.860   1.027   6.172  0.3448 -0.5786  0.8676
   80MOL0     O10668   6.831   1.053   6.303  0.1089 -0.7127 -0.1946
   80MOL0     C10669   6.717   1.045   6.367  0.8970 -0.3877 -0.4488
   80MOL0     C10670   6.609   0.967   6.321 -0.7580  0.3181 -0.0695
   80MOL0     C10671   6.490   0.974   6.391 -0.0081  0.3844  0.9020
   80MOL0     C10672   6.479   1.051   6.510 -0.6339 -0.6020  0.3671
   80MOL0     O10673   6.358   1.072   6.573 -0.5094  0.5501  0.3554
   80MOL0     C10674   6.252   1.118   6.491 -0.4361 -0.3201  0.4356
   80MOL0     C10675   6.129   1.186   6.565 -0.1485  0.0607 -0.5651
   80MOL0     C10676   6.053   1.082   6.636 -0.0359  0.1462 -0.9625
   80MOL0     C10677   5.924   1.149   6.692  0.8535  0.0876  0.1745
   80MOL0     C10678   5.860   1.081   6.810 -0.6708  1.0590 -0.1919
   80MOL0     C10679   5.844   0.928   6.785  0.3894  0.0525  0.7155
   80MOL0     C10680   5.767   0.879   6.671 -0.4200 -0.1887  0.2570
   80MOL0     C10681   5.617   0.927   6.675  0.0316  0.4741 -0.4329
   80MOL0     N10682   5.546   0.883   6.797  0.1882 -0.2288  1.2246
   80MOL0     C10683   5.447   0.786   6.802 -0.5886  0.4610 -0.1850
   80MOL0     C10684   5.395   0.793   6.931  0.7943  0.5452  0.0867
   80MOL0     C10685   5.273   0.717   6.991  0.3627  0.4197  0.4772
   80MOL0     C10686   5.159   0.816   7.042  0.3045  0.0041  0.1731
   80MOL0     C10687   5.019   0.742   7.065 -0.0182 -0.1520 -0.0913
   80MOL0     C10688   4.934   0.811   7.173 -1.0676  0.6450  0.8553
   80MOL0     O10689   4.818   0.731   7.191  0.3422  0.1796 -0.5431
   80MOL0     C10690   4.711   0.794   7.257 -0.1769 -0.0968  0.6516
   80MOL0     C10691   4.693   0.930   7.268  0.2418  0.2167  0.0555
   80MOL0     C10692   4.584   0.982   7.344  0.1083  1.1608 -0.1457
   80MOL0     C10693   4.567   1.125   7.369  0.0095 -0.4043 -0.5159
   80MOL0     C10694   4.486   0.889   7.391 -0.6272  0.4493  0.1381
   80MOL0     C10695   4.359   0.938   7.447 -0.3556 -0.3136 -0.0466
   80MOL0     O10696   4.333   0.920   7.579  0.9814 -0.8439 -0.0917
   80MOL0     C10697   4.218   0.979   7.622 -0.3264 -0.1572 -0.1524
   80MOL0     C10698   4.090   0.951   7.583  0.5931 -0.1417  0.5149
   80MOL0     C10699   3.977   0.993   7.657 -0.2684  0.1387  0.3933
   80MOL0     C10700   3.994   1.075   7.767 -0.9378  1.1515  0.5779
   80MOL0     O10701   3.882   1.134   7.826  0.3419  0.6709 -1.0942
   80MOL0     C10702   3.879   1.240   7.914 -0.3969 -0.6526  0.2289
   80MOL0     C10703   3.885   1.377   7.841  0.4059  0.2911 -0.3766
   80MOL0     C10704   3.764   1.381   7.742 -0.4906 -0.4840  0.2081
   80MOL0     C10705   3.753   1.516   7.675 -1.0888 -0.6823  0.2820
   80MOL0     C10706   3.608   1.522   7.595 -0.1666 -0.1457 -0.4070
   80MOL0     C10707   3.540   1.662   7.583 -0.7976  0.1931  0.5907
   80MOL0     C10708   3.401   1.653   7.528 -0.0055 -0.9259 -0.5585
   80MOL0     C10709   3.397   1.653   7.377  0.2731 -0.6936 -0.7456
   80MOL0    Cl10710   3.227   1.638   7.323  0.2059 -0.3799 -0.0337
   80MOL0     C10711   4.128   1.107   7.808  0.7771  0.1786  0.1014
   80MOL0     C10712   4.238   1.058   7.740 -0.7475 -0.3567 -0.4331
   80MOL0     O10713   4.281   0.990   7.365  0.1827  0.3241  0.1536
   80MOL0     C10714   4.499   0.749   7.362 -0.6305 -0.1463 -0.0711
   80MOL0     C10715   4.616   0.703   7.305  0.2812  0.5932 -0.2003
   80MOL0     N10716   5.469   0.884   7.004 -0.4811  0.4171  0.0567
   80MOL0     N10717   5.556   0.939   6.920 -0.0889 -0.8486  1.0664
   80MOL0     C10718   6.597   1.112   6.561 -0.3811 -0.5358  0.2033
   80MOL0     C10719   6.714   1.112   6.485 -0.1236  0.2448 -0.6888
   80MOL0     C10720   7.006   1.038   6.135 -0.5401  1.1292 -0.0708
   80MOL0     C10721   7.092   1.118   6.208 -0.6187 -0.0906  0.3860
   80MOL0     C10722   7.221   1.125   6.172  0.3512 -0.5310  0.2530
   80MOL0     C10723   7.264   1.067   6.057 -0.7356 -0.0248  0.4862
   80MOL0     O10724   7.392   1.072   6.009  0.8653  0.6821 -0.5011
   80MOL0     C10725   7.477   1.174   6.053 -0.2486 -0.0787 -0.2365
   80MOL0     C10726   7.576   1.119   6.157  0.2605  0.3450  0.4432
   80MOL0     C10727   7.706   1.052   6.107 -0.7857 -0.1464 -0.4941
   80MOL0     C10728   7.827   1.141   6.083  0.1309 -0.2908  0.5582
   80MOL0     C10729   7.785   1.267   6.018  0.2566  0.3092  0.3337
   80MOL0     C10730   7.754   1.371   5.967  0.4003 -0.2767 -0.5435
   80MOL0     C10731   7.177   0.988   5.978 -1.4559 -0.4330 -1.6018
   80MOL0     C10732   7.043   0.974   6.019  0.5669 -0.8371  0.4819
   80MOL0     H10733   6.610   0.914   6.227  2.1604  2.1379 -1.2301
   80MOL0     H10734   6.404   0.926   6.344 -0.8235  1.5908  1.1036
   80MOL0     H10735   6.299   1.196   6.431  1.4397 -1.6908  0.0353
   80MOL0     H10736   6.224   1.041   6.419  1.9750  0.4439 -1.4495
   80MOL0     H10737   6.155   1.264   6.636  0.1815  1.3803 -2.0902
   80MOL0     H10738   6.059   1.230   6.493  0.9184 -1.1883 -2.4614
   80MOL0     H10739   6.036   0.996   6.571 -1.4986 -0.9234  0.7597
   80MOL0     H10740   6.116   1.050   6.719 -0.6186  1.5230  0.0594
   80MOL0     H10741   5.948   1.251   6.722  0.2226 -0.4951  2.9013
   80MOL0     H10742   5.839   1.152   6.623 -1.2233  2.2701  2.6316
   80MOL0     H10743   5.930   1.093   6.893 -0.7086 -0.6075  0.1249
   80MOL0     H10744   5.762   1.124   6.832 -1.4260 -1.0062  0.7592
   80MOL0     H10745   5.946   0.892   6.773  1.2572  1.6304  2.6543
   80MOL0     H10746   5.800   0.881   6.873 -1.5465 -1.5999 -1.0275
   80MOL0     H10747   5.809   0.909   6.575 -2.7852 -0.3248 -0.9141
   80MOL0     H10748   5.756   0.770   6.670 -3.4092 -0.0436  2.0157
   80MOL0     H10749   5.568   0.882   6.588  2.6116 -0.5416 -1.4683
   80MOL0     H10750   5.606   1.036   6.669  1.0237  0.7017  1.3078
   80MOL0     H10751   5.407   0.724   6.723  0.7780 -2.0053  0.9232
   80MOL0     H10752   5.230   0.646   6.919  2.5652 -0.9687  0.4293
   80MOL0     H10753   5.308   0.643   7.064  0.0394 -0.5755 -0.3488
   80MOL0     H10754   5.148   0.889   6.962 -0.1769 -0.2758 -0.0179
   80MOL0     H10755   5.188   0.882   7.124  0.7252  4.3939 -3.1551
   80MOL0     H10756   5.036   0.640   7.100 -1.2860  0.2785  1.9304
   80MOL0     H10757   4.959   0.740   6.974 -2.3530 -0.2014  1.3585
   80MOL0     H10758   4.916   0.906   7.122 -0.9459 -1.3091 -3.2452
   80MOL0     H10759   4.976   0.817   7.273 -1.0651 -0.0273  0.9005
   80MOL0     H10760   4.756   0.998   7.211 -0.1825 -0.8736 -1.8243
   80MOL0     H10761   4.478   1.163   7.318 -1.5324 -0.4098  2.0304
   80MOL0     H10762   4.570   1.151   7.475  3.0328 -2.5209  0.0482
   80MOL0     H10763   4.655   1.176   7.328  0.3451  1.1825  1.9507
   80MOL0     H10764   4.066   0.892   7.495  0.1011  1.0965 -0.2161
   80MOL0     H10765   3.874   0.980   7.624 -1.0115 -1.0864  2.9453
   80MOL0     H10766   3.790   1.236   7.976 -1.6986  0.6659 -1.4708
   80MOL0     H10767   3.962   1.231   7.985  1.5166  3.0258 -1.2513
   80MOL0     H10768   3.895   1.464   7.907 -0.3823  0.0369  0.0885
   80MOL0     H10769   3.978   1.374   7.783 -1.1012  2.5042 -3.1699
   80MOL0     H10770   3.674   1.361   7.800 -1.0469  0.4241 -0.3069
   80MOL0     H10771   3.796   1.313   7.663  0.3013  0.8207 -0.6478
   80MOL0     H10772   3.763   1.604   7.740 -0.7717  1.1351 -2.0617
   80MOL0     H10773   3.837   1.538   7.608  0.5351  0.9586  2.6999
   80MOL0     H10774   3.551   1.442   7.644  2.4754 -0.7348  2.0384
   80MOL0     H10775   3.632   1.504   7.490 -2.5676  3.5535 -1.7855
   80MOL0     H10776   3.533   1.702   7.684 -0.2473  2.3753 -0.1581
   80MOL0     H10777   3.598   1.732   7.522  1.1993 -2.2694 -0.5175
   80MOL0     H10778   3.342   1.741   7.553 -2.1649 -2.1551 -1.0705
   80MOL0     H10779   3.338   1.574   7.571 -3.4934  1.5605 -0.7098
   80MOL0     H10780   3.446   1.564   7.338  0.9892 -1.4815  1.7419
   80MOL0     H10781   3.454   1.741   7.345  3.0556 -2.2498 -0.3839
   80MOL0     H10782   4.151   1.169   7.894  2.3160  0.5890 -0.5785
   80MOL0     H10783   4.337   1.065   7.782 -0.9647 -0.0385  0.0371
   80MOL0     H10784   4.429   0.683   7.412  0.5147 -1.4098 -0.0692
   80MOL0     H10785   4.635   0.597   7.295  0.5309  0.5745  0.4657
   80MOL0     H10786   6.583   1.167   6.654 -1.1734 -1.7526  0.8421
   80MOL0     H10787   6.809   1.155   6.517 -0.9308  0.7670  1.1742
   80MOL0     H10788   7.062   1.178   6.293 -2.2064  2.4700 -1.8231
   80MOL0     H10789   7.287   1.187   6.233  0.1418  0.4072 -0.4578
   80MOL0     H10790   7.526   1.215   5.965  1.5388 -1.5364  0.0128
   80MOL0     H10791   7.435   1.260   6.105  4.0003  0.8708  2.0849
   80MOL0     H10792   7.519   1.058   6.228 -0.6659  1.7864  0.9645
   80MOL0     H10793   7.599   1.204   6.220 -1.1262  0.6259  0.6034
   80MOL0     H10794   7.693   0.995   6.014  1.8166 -1.3966 -0.1910
   80MOL0     H10795   7.736   0.978   6.181 -0.8631 -0.4041 -0.7203
   80MOL0     H10796   7.895   1.082   6.021 -3.0032 -2.6727 -0.8839
   80MOL0     H10797   7.865   1.180   6.178 -2.2851  0.7967  1.1745
   80MOL0     H10798   7.734   1.459   5.909  1.2025  0.8795  0.8769
   80MOL0     H10799   7.210   0.940   5.887  2.2963 -2.0186  0.3700
   80MOL0     H10800   6.961   0.923   5.970 -0.1020  0.7217 -0.0819
   81MOL0     O10801   1.334   7.780   3.294  0.2497  0.0912 -0.0968
   81MOL0     C10802   1.368   7.767   3.176  0.4296 -0.0960  0.5219
   81MOL0     O10803   1.496   7.790   3.132  0.0166  0.2930  0.4987
   81MOL0     C10804   1.582   7.841   3.230  0.3731  0.1966 -0.3592
   81MOL0     C10805   1.702   7.776   3.262  1.3317 -0.4142  1.1700
   81MOL0     C10806   1.810   7.832   3.339  0.1738 -0.5560  0.2740
   81MOL0     C10807   1.798   7.973   3.384 -0.3836 -0.5104 -0.4866
   81MOL0     O10808   1.897   8.041   3.446  0.1846 -0.7589  0.4953
   81MOL0     C10809   2.020   8.045   3.374  0.1404  0.1184  0.4680
   81MOL0     C10810   2.008   8.112   3.238 -0.4959 -0.2316  0.4198
   81MOL0     C10811   1.940   8.251   3.248  0.5362 -0.5878  1.3811
   81MOL0     C10812   1.881   8.273   3.107 -0.5534 -0.2417 -0.3827
   81MOL0     C10813   1.833   8.423   3.110 -0.3284  0.4977 -0.0301
   81MOL0     C10814   1.696   8.431   3.054  0.7909  0.1723  0.8325
   81MOL0     C10815   1.580   8.361   3.133  0.2262 -0.0182 -0.4577
   81MOL0     C10816   1.583   8.403   3.276  0.5667  0.3017 -1.1809
   81MOL0     N10817   1.488   8.328   3.352 -0.1880 -0.0127 -0.0113
   81MOL0     C10818   1.471   8.323   3.488  0.0378  0.2187 -0.0779
   81MOL0     C10819   1.356   8.256   3.514 -0.1222  0.0124  0.2143
   81MOL0     C10820   1.306   8.212   3.654 -0.0681  0.4841  0.7931
   81MOL0     C10821   1.378   8.087   3.711  0.3540  1.2120  0.3981
   81MOL0     C10822   1.387   7.966   3.626  0.1234  0.6143  0.3823
   81MOL0     C10823   1.474   7.859   3.684  0.6228 -0.0732  0.5205
   81MOL0     O10824   1.607   7.905   3.659  0.1688 -0.1137  0.0935
   81MOL0     C10825   1.709   7.823   3.712  0.2231  0.0685 -0.3437
   81MOL0     C10826   1.839   7.882   3.715  1.4306  0.2193 -0.7611
   81MOL0     C10827   1.951   7.813   3.761 -0.4323 -0.8777  0.1818
   81MOL0     C10828   2.085   7.879   3.734 -0.2945 -0.4846 -0.1529
   81MOL0     C10829   1.932   7.685   3.823  0.4580  0.1360  0.0311
   81MOL0     C10830   2.037   7.608   3.894 -0.2631 -0.1438 -0.3465
   81MOL0     O10831   2.004   7.485   3.954  0.5944  0.3612 -0.0669
   81MOL0     C10832   2.097   7.395   3.990  0.1910 -0.5526  0.0240
   81MOL0     C10833   2.206   7.375   3.906  0.3028  0.6893  0.0931
   81MOL0     C10834   2.284   7.262   3.926  0.3013 -0.5205 -0.3739
   81MOL0     C10835   2.267   7.179   4.038  0.0762  0.1133  0.5745
   81MOL0     O10836   2.347   7.077   4.075 -0.4036  0.0677 -0.4164
   81MOL0     C10837   2.301   6.958   4.014  0.2102 -0.2861  0.8007
   81MOL0     C10838   2.350   6.842   4.097 -0.1691 -0.2063  0.0534
   81MOL0     C10839   2.272   6.822   4.234  0.6532  0.1335  0.7648
   81MOL0     C10840   2.355   6.868   4.361  0.3095 -0.3083 -0.0901
   81MOL0     C10841   2.270   6.928   4.465  0.6290  0.2110  0.1315
   81MOL0     C10842   2.365   6.966   4.582  0.4986 -0.5632 -0.0844
   81MOL0     C10843   2.307   7.044   4.695 -0.7169  0.1700 -0.3378
   81MOL0     C10844   2.375   7.039   4.832  0.1230 -0.0346 -0.3218
   81MOL0    Cl10845   2.524   7.127   4.807  0.2795 -0.0843  0.1362
   81MOL0     C10846   2.161   7.204   4.130 -0.4095  0.1136 -0.3443
   81MOL0     C10847   2.075   7.304   4.102  0.2787  0.2111  1.0122
   81MOL0     O10848   2.143   7.660   3.902 -0.2249  0.0838 -0.5622
   81MOL0     C10849   1.803   7.634   3.819 -1.0528  0.7430 -0.2617
   81MOL0     C10850   1.698   7.694   3.757  0.4010 -0.8567  0.0041
   81MOL0     N10851   1.295   8.231   3.395  0.6957  0.3084  0.1065
   81MOL0     N10852   1.369   8.266   3.295 -0.2349 -0.4697  0.2662
   81MOL0     C10853   1.680   8.042   3.350 -0.3505  0.2554 -0.0452
   81MOL0     C10854   1.581   7.972   3.269  0.2547 -1.1478 -0.0750
   81MOL0     C10855   1.267   7.724   3.079 -0.1236  0.4885  0.0288
   81MOL0     C10856   1.141   7.693   3.125 -0.1500 -0.0956 -0.4800
   81MOL0     C10857   1.029   7.662   3.039  0.3388 -0.6304  0.3019
   81MOL0     C10858   1.053   7.676   2.901  0.4738 -0.0346 -0.6720
   81MOL0     O10859   0.952   7.653   2.812  0.7843 -0.4049  0.8509
   81MOL0     C10860   0.834   7.721   2.819 -0.3955  0.5713 -0.1454
   81MOL0     C10861   0.864   7.865   2.792 -0.2189 -0.0423  0.2068
   81MOL0     C10862   0.899   7.896   2.634 -0.1052  0.1858  0.3451
   81MOL0     C10863   0.908   8.038   2.594 -0.6468  0.1636 -0.0016
   81MOL0     C10864   0.782   8.108   2.592  0.2047  0.9444 -0.8414
   81MOL0     C10865   0.699   8.195   2.594  1.2572  0.1086  0.3216
   81MOL0     C10866   1.180   7.720   2.857  0.3131  0.3965  0.8994
   81MOL0     C10867   1.291   7.742   2.944  0.5269 -0.0275  1.5100
   81MOL0     H10868   1.723   7.687   3.203 -2.8286 -2.0058  1.7098
   81MOL0     H10869   1.902   7.776   3.359 -0.5797 -0.8774  3.4445
   81MOL0     H10870   2.091   8.091   3.444  1.8815  0.0679 -1.1703
   81MOL0     H10871   2.048   7.943   3.346 -0.8210  0.4472 -2.0485
   81MOL0     H10872   2.109   8.127   3.198 -1.5267 -0.3395 -2.4634
   81MOL0     H10873   1.948   8.047   3.174 -1.3237  1.2477 -0.3577
   81MOL0     H10874   1.862   8.262   3.323  0.5907  1.9947  1.1325
   81MOL0     H10875   2.006   8.332   3.280 -0.3912  0.0359  1.7314
   81MOL0     H10876   1.958   8.267   3.031 -2.0385  0.6148 -2.0385
   81MOL0     H10877   1.798   8.202   3.096 -1.3811  0.5856  0.2495
   81MOL0     H10878   1.835   8.473   3.207  3.4674  1.6133 -0.5333
   81MOL0     H10879   1.902   8.479   3.047 -2.4326  0.1637 -2.8474
   81MOL0     H10880   1.665   8.536   3.046 -0.7425 -0.3815 -0.9312
   81MOL0     H10881   1.688   8.397   2.951  1.0941  2.8258 -0.1538
   81MOL0     H10882   1.482   8.388   3.093  0.4679  2.9087  0.6736
   81MOL0     H10883   1.599   8.254   3.128  1.2538  0.0870  0.7693
   81MOL0     H10884   1.573   8.511   3.290  0.3092 -0.0477  2.1129
   81MOL0     H10885   1.683   8.377   3.312 -0.6067 -3.0585  0.0459
   81MOL0     H10886   1.533   8.368   3.565  1.5284  0.4308 -1.3657
   81MOL0     H10887   1.312   8.298   3.722  0.5539  2.9399 -2.1410
   81MOL0     H10888   1.197   8.204   3.647  0.0976 -1.0028 -4.1946
   81MOL0     H10889   1.317   8.064   3.799 -4.3421  2.8619 -2.1012
   81MOL0     H10890   1.479   8.126   3.726  1.1577 -0.2963 -0.8467
   81MOL0     H10891   1.435   7.982   3.528 -2.2135 -1.4428 -1.2129
   81MOL0     H10892   1.283   7.936   3.611  0.5105 -1.5914  1.7037
   81MOL0     H10893   1.438   7.764   3.644  0.7716  0.7308 -1.6434
   81MOL0     H10894   1.449   7.862   3.791 -3.1116 -0.9220 -0.1717
   81MOL0     H10895   1.859   7.977   3.665 -0.7768  0.5004 -1.1981
   81MOL0     H10896   2.143   7.817   3.666 -0.8242  1.1820 -2.2359
   81MOL0     H10897   2.081   7.978   3.688 -3.0993 -0.7314 -0.6496
   81MOL0     H10898   2.138   7.890   3.829  0.4403  4.8183 -0.9161
   81MOL0     H10899   2.231   7.436   3.819  1.4335 -0.7772 -0.6478
   81MOL0     H10900   2.364   7.231   3.859  1.8269  0.0100  1.1229
   81MOL0     H10901   2.193   6.948   4.021 -0.0447  0.8282 -0.7880
   81MOL0     H10902   2.340   6.957   3.911  0.5322  0.9288  0.8963
   81MOL0     H10903   2.325   6.749   4.046 -0.1606 -1.5175  2.3104
   81MOL0     H10904   2.459   6.844   4.102 -0.2165  0.8966  2.5920
   81MOL0     H10905   2.244   6.718   4.255 -1.2566  0.3837 -0.2662
   81MOL0     H10906   2.175   6.872   4.221  0.1941 -0.8209  0.4276
   81MOL0     H10907   2.416   6.786   4.398 -0.9871 -1.9440 -1.4403
   81MOL0     H10908   2.426   6.944   4.325 -1.9749  0.6260 -3.1159
   81MOL0     H10909   2.210   6.848   4.510  1.9828 -1.6792 -1.2611
   81MOL0     H10910   2.208   7.009   4.425  1.4857  0.9684  0.2967
   81MOL0     H10911   2.419   6.876   4.613 -0.3764 -0.9442  0.3613
   81MOL0     H10912   2.442   7.036   4.546 -0.8315  1.9949  1.7494
   81MOL0     H10913   2.203   7.010   4.704 -0.9962  1.3043  1.1153
   81MOL0     H10914   2.299   7.147   4.660 -0.5658  1.6401  3.5272
   81MOL0     H10915   2.400   6.938   4.864  1.0895  0.4542  0.5217
   81MOL0     H10916   2.314   7.092   4.906  1.9459  1.4944  0.1638
   81MOL0     H10917   2.150   7.135   4.214  2.0387 -0.9084 -0.7590
   81MOL0     H10918   1.993   7.320   4.172 -1.3297 -2.6914 -0.0626
   81MOL0     H10919   1.789   7.533   3.855 -1.0327  0.6275 -0.5756
   81MOL0     H10920   1.602   7.645   3.745  0.3118 -1.1450  1.6958
   81MOL0     H10921   1.659   8.143   3.384  0.1677 -0.6309  3.2963
   81MOL0     H10922   1.491   8.030   3.247 -0.7518 -3.5766 -2.9192
   81MOL0     H10923   1.139   7.677   3.232  2.4572  1.6403 -0.0743
   81MOL0     H10924   0.932   7.627   3.071 -0.0920  1.2115  1.1836
   81MOL0     H10925   0.771   7.681   2.740  0.4094 -2.4465  0.6269
   81MOL0     H10926   0.785   7.705   2.916  2.1989 -2.4321  0.8472
   81MOL0     H10927   0.946   7.894   2.858  0.0261 -0.5269  0.1187
   81MOL0     H10928   0.784   7.935   2.821  1.3920  2.3406 -0.7583
   81MOL0     H10929   0.820   7.851   2.574  1.4777 -0.9242 -0.9807
   81MOL0     H10930   0.986   7.838   2.601 -0.9770 -0.5324 -0.7785
   81MOL0     H10931   0.936   8.043   2.488 -1.4602 -2.0349 -0.3745
   81MOL0     H10932   0.985   8.085   2.656 -0.9246 -1.0690  1.3496
   81MOL0     H10933   0.620   8.266   2.609  0.7884  0.1672 -1.9984
   81MOL0     H10934   1.199   7.733   2.752 -0.0181  0.1195  0.8013
   81MOL0     H10935   1.379   7.791   2.903  1.9241 -0.6808  3.5462
   82MOL0     O10936  10.211   0.826   7.125  0.0210  0.6102  0.5122
   82MOL0     C10937  10.309   0.782   7.175  0.6438 -0.1157 -0.8550
   82MOL0     O10938  10.321   0.667   7.237 -0.2262 -0.4957  0.4969
   82MOL0     C10939  10.223   0.572   7.232 -0.2477 -1.2676  0.6059
   82MOL0     C10940  10.199   0.506   7.112  0.0239  0.9036  0.5624
   82MOL0     C10941  10.088   0.425   7.110 -0.1895  0.1270  0.0124
   82MOL0     C10942   9.994   0.420   7.208 -0.1000  0.4341 -0.6169
   82MOL0     O10943   9.875   0.364   7.190  0.1030  0.9230  0.3505
   82MOL0     C10944   9.809   0.423   7.076 -0.2335  0.3702 -0.2419
   82MOL0     C10945   9.660   0.425   7.097  0.4151 -0.0406 -0.3143
   82MOL0     C10946   9.630   0.500   7.227  0.8295 -0.7321 -0.5468
   82MOL0     C10947   9.475   0.528   7.236  0.4470  0.0404 -0.6073
   82MOL0     C10948   9.420   0.579   7.374 -0.3634  0.0241 -0.0907
   82MOL0     C10949   9.269   0.615   7.383 -0.0868 -0.2289  0.7450
   82MOL0     C10950   9.238   0.621   7.536 -0.2296 -0.3561  0.2026
   82MOL0     C10951   9.091   0.676   7.565 -0.0342  0.1757 -0.3243
   82MOL0     N10952   9.063   0.706   7.706 -0.3208 -0.1621 -0.3597
   82MOL0     C10953   9.016   0.614   7.789 -0.6818 -0.4995 -0.5961
   82MOL0     C10954   8.972   0.683   7.897  0.2674  0.3490 -0.0871
   82MOL0     C10955   8.920   0.626   8.030 -0.3409 -0.5814 -0.1112
   82MOL0     C10956   8.957   0.701   8.159 -1.2034  0.4623  0.1591
   82MOL0     C10957   8.887   0.829   8.199 -1.0413  0.2387 -0.0533
   82MOL0     C10958   8.734   0.821   8.188 -0.3016  0.1686  0.4104
   82MOL0     O10959   8.664   0.941   8.144  0.8060  0.5451 -0.6959
   82MOL0     C10960   8.659   0.972   8.005 -0.0804 -0.1748 -0.6388
   82MOL0     C10961   8.695   0.887   7.897 -0.0007 -0.2779  0.1674
   82MOL0     C10962   8.686   0.925   7.758  0.0968 -0.4144 -1.4732
   82MOL0     C10963   8.708   0.832   7.652  0.0972 -0.6526  0.5123
   82MOL0     C10964   8.664   1.063   7.727 -0.1648 -0.3255  0.2822
   82MOL0     C10965   8.678   1.123   7.591 -0.7856 -0.5391 -0.5469
   82MOL0     O10966   8.626   1.248   7.580 -0.2069  0.1394 -0.0328
   82MOL0     C10967   8.674   1.344   7.493 -0.4896 -1.0217  0.5010
   82MOL0     C10968   8.806   1.380   7.503 -0.3686 -0.2929  0.5398
   82MOL0     C10969   8.852   1.477   7.405  0.6490 -0.1193 -0.5582
   82MOL0     C10970   8.764   1.548   7.323 -0.6872 -0.0622 -0.1364
   82MOL0     O10971   8.799   1.666   7.250 -0.3701  0.0527 -0.0704
   82MOL0     C10972   8.941   1.708   7.228  0.7508 -0.0867  0.0020
   82MOL0     C10973   9.022   1.618   7.138  0.2455 -0.0136 -0.5307
   82MOL0     C10974   9.018   1.658   6.993  0.1550 -0.5361  0.0659
   82MOL0     C10975   9.146   1.651   6.917  0.2043  0.4117  0.8496
   82MOL0     C10976   9.240   1.763   6.967 -0.3296 -0.4341  0.5673
   82MOL0     C10977   9.387   1.725   6.905  0.4973  0.2288 -0.0857
   82MOL0     C10978   9.504   1.796   6.967  0.1412  0.4941 -0.6996
   82MOL0     C10979   9.640   1.730   6.926 -1.0516 -0.4325  0.1151
   82MOL0    Cl10980   9.662   1.750   6.740  0.1472  0.2005  0.0069
   82MOL0     C10981   8.627   1.517   7.319  0.7885  0.8302  0.1425
   82MOL0     C10982   8.597   1.406   7.392 -0.4778 -0.6840 -0.7156
   82MOL0     O10983   8.761   1.075   7.518 -0.0933 -0.0601 -0.5024
   82MOL0     C10984   8.627   1.146   7.837 -0.0076  0.2271 -0.6060
   82MOL0     C10985   8.622   1.102   7.973  0.2622  0.8341 -0.2348
   82MOL0     N10986   9.001   0.817   7.879  0.2137 -0.7875 -0.6489
   82MOL0     N10987   9.058   0.832   7.768 -0.1536 -0.0408 -0.4745
   82MOL0     C10988  10.012   0.483   7.331 -0.7725 -0.0846 -0.2847
   82MOL0     C10989  10.142   0.552   7.342  0.6234  0.5160 -0.2028
   82MOL0     C10990  10.436   0.868   7.176  0.1886  0.3403  0.0223
   82MOL0     C10991  10.438   0.997   7.107 -1.0784  0.2987  0.5057
   82MOL0     C10992  10.550   1.083   7.133  0.7884 -0.1778 -0.2328
   82MOL0     C10993  10.655   1.042   7.215  0.3996  0.7558 -0.0008
   82MOL0     O10994  10.759   1.131   7.214  1.1483 -0.4186 -0.6430
   82MOL0     C10995  10.857   1.107   7.303 -1.9688 -0.1784 -0.5302
   82MOL0     C10996  10.979   1.029   7.248  0.5315 -0.0280 -0.2234
   82MOL0     C10997  11.092   1.013   7.350 -0.2830 -0.5258 -0.4196
   82MOL0     C10998  11.206   0.941   7.287 -0.2873  0.4790 -0.0006
   82MOL0     C10999  11.308   0.921   7.394  0.3278 -0.6893 -0.9001
   82MOL0     C11000  11.398   0.905   7.484 -0.3528  0.4791  0.3194
   82MOL0     C11001  10.653   0.917   7.277  0.6920 -0.7401  0.4584
   82MOL0     C11002  10.543   0.839   7.260 -1.5192  0.0973  1.2322
   82MOL0     H11003  10.260   0.517   7.023 -0.5833 -3.8181 -0.7172
   82MOL0     H11004  10.069   0.376   7.015 -0.9219  1.6801 -0.6830
   82MOL0     H11005   9.845   0.526   7.069  2.0770 -0.1828  1.8257
   82MOL0     H11006   9.834   0.367   6.985 -1.3797 -0.3810 -0.1077
   82MOL0     H11007   9.624   0.488   7.015  1.2365 -2.4433 -2.6916
   82MOL0     H11008   9.619   0.324   7.099  3.2290 -1.2828  0.1925
   82MOL0     H11009   9.664   0.454   7.320 -1.9765 -0.8396  0.5152
   82MOL0     H11010   9.678   0.598   7.225  0.9817 -0.8052 -2.2755
   82MOL0     H11011   9.441   0.600   7.161 -0.0042 -3.1826 -3.8108
   82MOL0     H11012   9.409   0.443   7.218  1.5281 -1.0966  0.5700
   82MOL0     H11013   9.443   0.497   7.442 -0.1047 -0.7352 -1.0628
   82MOL0     H11014   9.480   0.662   7.413  0.7434 -1.8068  2.3641
   82MOL0     H11015   9.232   0.708   7.339 -3.7293 -1.3093  1.2544
   82MOL0     H11016   9.213   0.543   7.323 -2.1120  3.0278 -1.6108
   82MOL0     H11017   9.236   0.525   7.588 -0.1548  0.1345  1.1543
   82MOL0     H11018   9.303   0.681   7.600 -0.1443 -1.8424  1.5842
   82MOL0     H11019   9.025   0.594   7.535 -0.0692  0.0086  0.1953
   82MOL0     H11020   9.070   0.757   7.495 -1.7372  1.2201  1.2923
   82MOL0     H11021   9.019   0.507   7.774  2.4569 -1.1726  3.1273
   82MOL0     H11022   8.819   0.587   8.014  0.2881 -2.5232  0.3316
   82MOL0     H11023   8.979   0.534   8.039  3.7407  1.9179  1.2756
   82MOL0     H11024   9.065   0.713   8.166 -0.1621 -5.5915  0.0364
   82MOL0     H11025   8.933   0.631   8.240  2.2056 -1.3357 -0.2288
   82MOL0     H11026   8.928   0.909   8.137  0.3927 -0.3459  0.1037
   82MOL0     H11027   8.903   0.846   8.306 -4.4879  0.7385  0.4985
   82MOL0     H11028   8.701   0.785   8.287 -1.8249  1.1586  0.2961
   82MOL0     H11029   8.697   0.737   8.129 -1.4668  0.9884 -0.0675
   82MOL0     H11030   8.733   0.787   7.918  2.5918  0.0057 -2.5070
   82MOL0     H11031   8.678   0.733   7.688  2.9223 -1.6798  0.2765
   82MOL0     H11032   8.644   0.855   7.567  1.2444  2.3529  0.3461
   82MOL0     H11033   8.813   0.831   7.621  0.0753 -0.2557  0.4158
   82MOL0     H11034   8.867   1.339   7.583  0.0304  0.6325  0.7247
   82MOL0     H11035   8.956   1.508   7.395  0.1443  2.7302  1.7188
   82MOL0     H11036   8.951   1.814   7.201  2.8449  0.7512  3.3803
   82MOL0     H11037   9.000   1.705   7.321  1.0047  3.0391  0.0561
   82MOL0     H11038   9.121   1.604   7.183  0.3359 -0.1618 -0.7754
   82MOL0     H11039   8.971   1.522   7.154 -0.5051  0.5432  0.5897
   82MOL0     H11040   8.991   1.764   6.984 -0.2532 -0.7803 -2.1943
   82MOL0     H11041   8.939   1.596   6.950 -0.3166 -1.1114  1.6653
   82MOL0     H11042   9.188   1.550   6.919 -2.5209 -0.8348  0.5437
   82MOL0     H11043   9.125   1.667   6.811 -1.2678 -1.7824  0.7231
   82MOL0     H11044   9.263   1.764   7.074  2.9785  1.7283  0.0091
   82MOL0     H11045   9.206   1.863   6.937 -1.0031 -1.9363 -4.7148
   82MOL0     H11046   9.403   1.617   6.914  0.7492  0.0653 -2.0758
   82MOL0     H11047   9.386   1.747   6.798 -0.7874  0.6135 -0.0079
   82MOL0     H11048   9.500   1.802   7.076  0.0207  0.0328 -0.6730
   82MOL0     H11049   9.514   1.897   6.928  2.8025  0.4465 -0.3703
   82MOL0     H11050   9.640   1.623   6.951  1.1956 -0.5385 -0.1699
   82MOL0     H11051   9.725   1.780   6.972 -3.4953  3.5544  0.7209
   82MOL0     H11052   8.561   1.578   7.257 -1.2197 -1.7428 -0.4020
   82MOL0     H11053   8.494   1.374   7.394 -0.6701 -0.1085 -1.2542
   82MOL0     H11054   8.595   1.248   7.819 -3.8296 -0.7681 -0.2575
   82MOL0     H11055   8.594   1.174   8.049 -1.5824  0.2775 -0.3527
   82MOL0     H11056   9.936   0.488   7.408  1.0802 -1.4658  1.7719
   82MOL0     H11057  10.168   0.601   7.435 -0.8539 -1.7784  1.5501
   82MOL0     H11058  10.362   1.052   7.053 -0.7974  0.2183  0.0231
   82MOL0     H11059  10.540   1.183   7.091 -1.5382  0.2056  1.0142
   82MOL0     H11060  10.901   1.206   7.316  0.8474 -1.3795 -0.0272
   82MOL0     H11061  10.830   1.067   7.402 -2.7276  3.9692  1.1304
   82MOL0     H11062  11.020   1.075   7.158 -0.1457  0.0293 -0.5051
   82MOL0     H11063  10.942   0.928   7.228 -2.7995  1.1597 -0.6274
   82MOL0     H11064  11.053   0.960   7.437 -5.0740  1.8486 -0.7808
   82MOL0     H11065  11.128   1.110   7.386  0.2117 -1.6524  2.4439
   82MOL0     H11066  11.259   0.985   7.202  3.0138 -1.4219  0.8811
   82MOL0     H11067  11.180   0.840   7.254 -0.3071  0.6431 -0.4963
   82MOL0     H11068  11.464   0.871   7.562  0.5595 -0.8516 -0.9878
   82MOL0     H11069  10.732   0.886   7.345  0.0501  0.7794  1.9758
   82MOL0     H11070  10.553   0.746   7.315  1.4434 -0.5619 -0.2080
   83MOL0     O11071  10.428   1.347  11.393  0.4421  0.0851  0.4893
   83MOL0     C11072  10.396   1.456  11.350  1.0251  0.1910 -0.5185
   83MOL0     O11073  10.481   1.562  11.344 -0.5762 -0.0257 -0.2212
   83MOL0     C11074  10.615   1.552  11.374 -0.4534  0.0264 -1.3268
   83MOL0     C11075  10.684   1.660  11.435 -0.9588 -0.1302  0.7142
   83MOL0     C11076  10.813   1.653  11.478 -0.0687  0.2564  0.1432
   83MOL0     C11077  10.895   1.540  11.455  0.5554 -0.0475 -0.1718
   83MOL0     O11078  11.016   1.518  11.513 -0.1682  0.2431 -0.1664
   83MOL0     C11079  11.087   1.618  11.586 -0.5671  0.7807 -0.3212
   83MOL0     C11080  11.243   1.577  11.585  0.3427 -0.4102 -0.4418
   83MOL0     C11081  11.268   1.451  11.670 -1.2712  0.6262  0.5587
   83MOL0     C11082  11.384   1.469  11.767  0.5165  0.3733  0.6707
   83MOL0     C11083  11.426   1.335  11.824  0.5538  0.9853  0.1430
   83MOL0     C11084  11.537   1.347  11.912 -1.3662  0.3404 -1.6770
   83MOL0     C11085  11.615   1.215  11.941 -0.9257 -0.0684  0.2660
   83MOL0     C11086  11.533   1.099  11.982 -0.3094 -0.6084  0.3993
   83MOL0     N11087  11.464   1.041  11.866 -0.4309 -0.1966 -0.2533
   83MOL0     C11088  11.324   1.022  11.851  0.0101  1.0782 -0.9088
   83MOL0     C11089  11.310   0.972  11.724 -1.3026 -0.0810  0.2555
   83MOL0     C11090  11.184   0.929  11.653 -0.1923  0.1792 -0.2504
   83MOL0     C11091  11.084   1.048  11.632  0.6712  0.2296  0.7676
   83MOL0     C11092  10.978   0.982  11.546  0.1971 -0.1610  0.0961
   83MOL0     C11093  10.840   1.040  11.584  0.5077 -0.5146  0.1770
   83MOL0     O11094  10.746   0.956  11.511  0.2300 -0.4545  0.2450
   83MOL0     C11095  10.611   0.972  11.517  0.4748  0.1956 -0.2054
   83MOL0     C11096  10.546   1.058  11.606  0.9059  0.4491 -1.2474
   83MOL0     C11097  10.411   1.066  11.619  0.1479 -0.2601  0.5561
   83MOL0     C11098  10.351   1.169  11.721  0.0318  0.7644  0.2192
   83MOL0     C11099  10.333   0.987  11.539  0.4765  0.4253  0.9157
   83MOL0     C11100  10.181   0.991  11.526 -0.3842 -1.2253 -0.2354
   83MOL0     O11101  10.117   0.900  11.450 -0.1927  0.4574  0.4491
   83MOL0     C11102   9.974   0.903  11.449 -1.1961  0.4392  0.0318
   83MOL0     C11103   9.890   1.010  11.446  0.2454 -0.1334 -1.3030
   83MOL0     C11104   9.747   0.994  11.415 -0.6488 -0.5289 -0.6292
   83MOL0     C11105   9.690   0.873  11.391 -1.0029 -0.0267 -0.5671
   83MOL0     O11106   9.562   0.849  11.367 -0.2374  0.0580  0.2936
   83MOL0     C11107   9.505   0.720  11.398  0.0605  0.7249  0.3246
   83MOL0     C11108   9.354   0.737  11.389  0.1236  0.2839  0.7389
   83MOL0     C11109   9.290   0.747  11.244  0.3714  0.0630  0.3861
   83MOL0     C11110   9.134   0.738  11.267  0.1431 -0.9836  0.1893
   83MOL0     C11111   9.059   0.807  11.151  1.0090  0.4160 -0.1505
   83MOL0     C11112   9.070   0.713  11.025 -0.2080  0.4520  0.3641
   83MOL0     C11113   9.019   0.783  10.901 -0.2844  0.1460  0.3325
   83MOL0     C11114   9.024   0.688  10.787 -0.1832  0.8200 -1.1121
   83MOL0    Cl11115   8.917   0.736  10.647 -0.3340 -0.4878  0.0882
   83MOL0     C11116   9.775   0.761  11.403  0.2096 -0.1248 -0.1211
   83MOL0     C11117   9.909   0.784  11.433  0.1237 -0.3812 -0.4606
   83MOL0     O11118  10.119   1.073  11.603 -0.6737 -0.0121  0.3101
   83MOL0     C11119  10.397   0.887  11.459  0.3174 -0.2284 -0.6933
   83MOL0     C11120  10.531   0.888  11.447  0.2954 -0.3175 -1.0069
   83MOL0     N11121  11.436   0.963  11.668 -0.1357 -0.0372 -0.6976
   83MOL0     N11122  11.525   1.005  11.752  0.2879 -0.2479 -0.7845
   83MOL0     C11123  10.836   1.429  11.398 -0.8018 -0.3289 -1.0204
   83MOL0     C11124  10.695   1.437  11.360 -0.5374 -0.1188  0.0055
   83MOL0     C11125  10.254   1.479  11.332 -0.0797 -0.1638 -0.4332
   83MOL0     C11126  10.161   1.408  11.404 -0.2336 -0.5481  0.1140
   83MOL0     C11127  10.023   1.431  11.400 -0.1452  0.0244  0.5955
   83MOL0     C11128   9.981   1.542  11.322  0.5447  0.4473  0.3762
   83MOL0     O11129   9.841   1.555  11.332  0.2975  0.3844  0.8054
   83MOL0     C11130   9.777   1.626  11.219 -0.0185  0.4583  0.3313
   83MOL0     C11131   9.627   1.614  11.223  0.5519  0.2247 -0.3572
   83MOL0     C11132   9.580   1.465  11.211  0.2648 -0.4378  0.4234
   83MOL0     C11133   9.424   1.443  11.208 -0.2143  0.7729 -1.1672
   83MOL0     C11134   9.348   1.524  11.114  0.1986  0.2769  0.3608
   83MOL0     C11135   9.297   1.612  11.045 -0.0466 -0.7247  0.4767
   83MOL0     C11136  10.076   1.610  11.250  0.1081 -0.1889 -0.5577
   83MOL0     C11137  10.207   1.578  11.249 -0.5334  0.6597  0.0020
   83MOL0     H11138  10.640   1.759  11.450  3.2149  1.9249  0.7124
   83MOL0     H11139  10.857   1.743  11.521  0.2509  0.2437 -0.1582
   83MOL0     H11140  11.086   1.713  11.533  0.2911 -0.1863 -2.1904
   83MOL0     H11141  11.052   1.630  11.689  1.6324  2.0605  0.3403
   83MOL0     H11142  11.283   1.568  11.483  0.4154  2.5893 -0.7685
   83MOL0     H11143  11.300   1.660  11.628  1.3562 -0.9367 -0.7216
   83MOL0     H11144  11.179   1.416  11.723 -1.0632 -1.4316 -0.3567
   83MOL0     H11145  11.289   1.370  11.600  0.2818  0.6978  0.9010
   83MOL0     H11146  11.467   1.518  11.716  1.4228 -2.6572 -1.0100
   83MOL0     H11147  11.345   1.529  11.850 -0.9302 -0.3083  0.5150
   83MOL0     H11148  11.336   1.283  11.858 -1.0748  2.3398 -1.8315
   83MOL0     H11149  11.449   1.277  11.734 -1.6436  1.4051 -0.7542
   83MOL0     H11150  11.606   1.419  11.866  0.7054  0.1124  0.8120
   83MOL0     H11151  11.514   1.386  12.012 -1.2037 -1.2520 -0.9878
   83MOL0     H11152  11.675   1.206  11.850  0.3399  3.5946  0.6066
   83MOL0     H11153  11.679   1.244  12.025  1.1095  3.2000 -2.1333
   83MOL0     H11154  11.469   1.133  12.063 -1.1063 -2.5747  0.6420
   83MOL0     H11155  11.587   1.012  12.018 -0.0159 -0.8905 -0.6828
   83MOL0     H11156  11.250   1.044  11.926 -0.2019 -1.4183 -0.2956
   83MOL0     H11157  11.209   0.883  11.557 -1.5021  3.7932 -2.5400
   83MOL0     H11158  11.148   0.852  11.722  0.4447  1.7528  1.9413
   83MOL0     H11159  11.125   1.134  11.578 -1.8653  0.7436 -0.4866
   83MOL0     H11160  11.044   1.090  11.725  1.0837  1.8404  0.2446
   83MOL0     H11161  10.970   0.873  11.552 -0.7158 -0.0429  1.3359
   83MOL0     H11162  11.005   1.011  11.444  0.6944  0.5071  0.4105
   83MOL0     H11163  10.817   1.146  11.570  0.1504 -0.7970 -1.5956
   83MOL0     H11164  10.803   1.022  11.685 -2.1461  2.9248 -0.0013
   83MOL0     H11165  10.604   1.124  11.670  0.2920  1.3612 -1.6023
   83MOL0     H11166  10.260   1.142  11.775  1.2499  0.8721  2.4339
   83MOL0     H11167  10.418   1.205  11.800 -0.3053  2.3129 -0.1553
   83MOL0     H11168  10.337   1.267  11.673  0.6339 -0.1577 -1.9531
   83MOL0     H11169   9.932   1.110  11.446  0.0064 -0.0101  0.3270
   83MOL0     H11170   9.676   1.076  11.414 -1.2555 -0.9919 -3.0618
   83MOL0     H11171   9.544   0.643  11.330 -0.9574 -1.5629  2.1933
   83MOL0     H11172   9.534   0.702  11.502 -2.1131  2.1329  1.2415
   83MOL0     H11173   9.292   0.662  11.439 -3.7459  2.0379 -1.0175
   83MOL0     H11174   9.342   0.829  11.447 -2.6682  1.0565 -0.8762
   83MOL0     H11175   9.325   0.659  11.189  0.5066 -0.2156  0.9100
   83MOL0     H11176   9.307   0.838  11.185 -1.8971 -0.3285 -1.0249
   83MOL0     H11177   9.093   0.639  11.290  1.6123 -1.9383 -1.1320
   83MOL0     H11178   9.106   0.804  11.349 -1.5416  0.5484 -1.5317
   83MOL0     H11179   9.102   0.899  11.111  0.8166  0.3524 -0.5142
   83MOL0     H11180   8.956   0.816  11.188  0.6642  0.7629 -1.1576
   83MOL0     H11181   9.175   0.687  11.012  0.0056  1.7354 -0.6256
   83MOL0     H11182   9.021   0.616  11.044  0.5410 -0.7285 -3.0802
   83MOL0     H11183   9.084   0.863  10.866  0.0583  0.2591  1.2077
   83MOL0     H11184   8.917   0.822  10.911 -0.2425  1.3100 -2.8422
   83MOL0     H11185   8.975   0.596  10.822  1.8367 -0.3140 -1.0934
   83MOL0     H11186   9.127   0.661  10.764  0.2613  0.3472  1.1887
   83MOL0     H11187   9.752   0.658  11.379  1.1164  0.3648 -3.5147
   83MOL0     H11188   9.971   0.695  11.437 -0.3277 -0.6536  1.1238
   83MOL0     H11189  10.344   0.809  11.407 -3.1913  0.9465  0.8551
   83MOL0     H11190  10.590   0.816  11.391  1.8135  0.4694 -0.4811
   83MOL0     H11191  10.896   1.339  11.389 -0.6025 -0.1289 -1.8106
   83MOL0     H11192  10.649   1.345  11.327  0.2755 -0.6331  0.2888
   83MOL0     H11193  10.206   1.345  11.480  2.1090 -0.2324 -0.9279
   83MOL0     H11194   9.951   1.362  11.441  0.3851 -0.1985  1.1673
   83MOL0     H11195   9.800   1.732  11.215  0.4968  0.3242 -1.4063
   83MOL0     H11196   9.806   1.579  11.124  0.2358  3.1535 -0.9972
   83MOL0     H11197   9.586   1.660  11.133 -1.3754  0.3874  0.5596
   83MOL0     H11198   9.579   1.661  11.309  0.3151 -1.9911  0.7791
   83MOL0     H11199   9.634   1.404  11.283  0.6557  0.9071  1.3026
   83MOL0     H11200   9.611   1.438  11.109 -2.3245  1.5546 -1.0014
   83MOL0     H11201   9.392   1.459  11.311 -0.2832  0.5359 -1.1515
   83MOL0     H11202   9.407   1.337  11.184  2.0344  0.3355 -1.0847
   83MOL0     H11203   9.239   1.692  11.003  0.6792  0.3814  1.4872
   83MOL0     H11204  10.048   1.701  11.197  0.4949  0.5250  0.4395
   83MOL0     H11205  10.278   1.646  11.202 -0.5845 -1.6286 -3.8710
   84MOL0     O11206  10.755   3.914   8.465  0.5105  0.8237 -0.5602
   84MOL0     C11207  10.862   3.857   8.475  1.1939  0.3904  0.0066
   84MOL0     O11208  10.923   3.821   8.591 -0.3607 -1.0127  1.2995
   84MOL0     C11209  10.864   3.870   8.701 -0.5905 -0.0745 -0.2907
   84MOL0     C11210  10.928   3.973   8.778  0.8691 -0.1182 -0.7086
   84MOL0     C11211  10.867   4.023   8.891  0.3966  0.4845 -0.0869
   84MOL0     C11212  10.750   3.951   8.942 -0.8826 -0.0839  0.7746
   84MOL0     O11213  10.690   3.967   9.062 -0.5484 -0.4104 -0.7541
   84MOL0     C11214  10.735   4.066   9.164 -0.0523  0.5975 -1.1421
   84MOL0     C11215  10.626   4.096   9.264 -0.9423 -0.2579 -0.5606
   84MOL0     C11216  10.637   4.232   9.322  0.2758  0.2024  0.2586
   84MOL0     C11217  10.520   4.260   9.417 -0.3288 -0.5234  0.4764
   84MOL0     C11218  10.527   4.400   9.480 -0.2773  0.1309 -0.1210
   84MOL0     C11219  10.418   4.424   9.589 -0.4112 -0.3460  0.2631
   84MOL0     C11220  10.379   4.571   9.582 -0.2555  0.1768  0.1785
   84MOL0     C11221  10.264   4.579   9.682  0.1654 -0.1066  0.4056
   84MOL0     N11222  10.137   4.527   9.625  0.0211  0.7569  0.4862
   84MOL0     C11223  10.095   4.402   9.664 -0.3967 -0.6158  0.2972
   84MOL0     C11224   9.981   4.385   9.601  0.2796  0.9336 -0.5421
   84MOL0     C11225   9.894   4.258   9.622 -0.4303 -0.5545 -1.1875
   84MOL0     C11226   9.751   4.268   9.605 -0.4743 -0.4924 -0.0934
   84MOL0     C11227   9.661   4.168   9.697 -0.0427 -0.7655  0.9268
   84MOL0     C11228   9.705   4.025   9.698  0.6129 -0.7863 -0.8415
   84MOL0     O11229   9.712   3.978   9.557 -0.2870 -0.4188 -0.2753
   84MOL0     C11230   9.593   3.948   9.504  0.5483  0.0047 -0.1507
   84MOL0     C11231   9.551   4.026   9.400 -0.2111  0.5040  0.2870
   84MOL0     C11232   9.429   3.996   9.332  0.2721  0.0632 -0.2837
   84MOL0     C11233   9.411   4.063   9.194  0.0818 -0.6052  0.5331
   84MOL0     C11234   9.344   3.882   9.370 -0.4411 -0.8798 -0.3033
   84MOL0     C11235   9.228   3.831   9.293  0.0728  0.0466 -0.0343
   84MOL0     O11236   9.172   3.718   9.342 -0.2922  0.0204 -0.8037
   84MOL0     C11237   9.101   3.642   9.259  0.8442  0.3618  0.2784
   84MOL0     C11238   9.163   3.592   9.142  0.3469  1.1392  0.0350
   84MOL0     C11239   9.095   3.505   9.056 -0.5588 -0.6966 -0.9400
   84MOL0     C11240   8.964   3.458   9.091 -0.4439 -0.0619 -0.4336
   84MOL0     O11241   8.887   3.366   9.006  0.0956  0.3734  0.1089
   84MOL0     C11242   8.971   3.264   8.952  0.4539  0.0041  0.3212
   84MOL0     C11243   8.901   3.141   8.891 -0.2326  0.6589  0.6995
   84MOL0     C11244   8.993   3.019   8.843  0.5084  0.2438 -0.3228
   84MOL0     C11245   8.903   2.882   8.829  0.2427 -0.3157 -0.6314
   84MOL0     C11246   9.006   2.759   8.811  0.1075  0.1852  0.5390
   84MOL0     C11247   8.943   2.637   8.725 -0.2263 -0.0263  0.4389
   84MOL0     C11248   8.814   2.575   8.783 -0.7037  0.5631  0.6213
   84MOL0     C11249   8.772   2.451   8.702 -0.3678  0.3243  0.2689
   84MOL0    Cl11250   8.635   2.391   8.793 -0.0963  0.2955  0.0676
   84MOL0     C11251   8.896   3.515   9.205 -1.0432  0.4244 -0.2014
   84MOL0     C11252   8.966   3.607   9.281 -1.0871 -0.1234  0.9820
   84MOL0     O11253   9.201   3.875   9.180  0.2669 -0.1712 -0.7069
   84MOL0     C11254   9.391   3.808   9.485 -0.0086 -0.0426  0.6304
   84MOL0     C11255   9.511   3.845   9.548  0.3369  0.1876 -0.4605
   84MOL0     N11256   9.961   4.492   9.517 -0.1779 -0.8652  0.6543
   84MOL0     N11257  10.058   4.581   9.533  0.0382  0.2678  0.5343
   84MOL0     C11258  10.694   3.854   8.868 -0.1781  0.9909 -0.4266
   84MOL0     C11259  10.741   3.819   8.741 -0.1108  0.6122 -0.1623
   84MOL0     C11260  10.921   3.814   8.342  0.3018 -0.1922 -0.3691
   84MOL0     C11261  11.038   3.736   8.345  0.8644 -0.0783  0.1771
   84MOL0     C11262  11.098   3.698   8.220 -0.4322 -0.6770 -0.1047
   84MOL0     C11263  11.043   3.734   8.106  0.0550 -0.4972  0.3396
   84MOL0     O11264  11.113   3.682   8.003 -0.2732 -0.1066  0.1912
   84MOL0     C11265  11.123   3.741   7.878  0.2096  0.7609  0.7678
   84MOL0     C11266  11.007   3.678   7.801 -0.0751  0.4639  0.2073
   84MOL0     C11267  10.982   3.720   7.665 -0.0712 -0.3817 -0.0578
   84MOL0     C11268  10.903   3.630   7.562  0.2750 -0.4138  0.8601
   84MOL0     C11269  10.947   3.492   7.562 -0.5001 -0.0090 -0.0084
   84MOL0     C11270  10.986   3.375   7.545 -0.2746  0.1639  0.3082
   84MOL0     C11271  10.937   3.823   8.101 -0.1373 -0.5612  1.1460
   84MOL0     C11272  10.876   3.861   8.220 -1.0075  0.9223  0.6740
   84MOL0     H11273  11.024   4.011   8.746  1.3519 -1.1692 -0.5506
   84MOL0     H11274  10.919   4.101   8.946 -0.1614  2.2203 -1.9138
   84MOL0     H11275  10.829   4.036   9.209 -0.5692 -1.2432 -1.2291
   84MOL0     H11276  10.757   4.157   9.107  1.3683  1.7730  1.1742
   84MOL0     H11277  10.520   4.076   9.243 -0.9279 -0.6981 -0.2227
   84MOL0     H11278  10.657   4.039   9.352  1.8482  2.6350  0.5160
   84MOL0     H11279  10.737   4.252   9.361  0.1599  2.0134 -0.2664
   84MOL0     H11280  10.611   4.305   9.244 -2.9176 -1.4193 -0.3575
   84MOL0     H11281  10.428   4.234   9.364 -0.4186 -0.7580  0.7437
   84MOL0     H11282  10.520   4.198   9.507 -0.3249  0.3989  1.1343
   84MOL0     H11283  10.624   4.424   9.525 -1.2314 -0.4411  2.4208
   84MOL0     H11284  10.515   4.467   9.394 -0.0976  0.6574  0.2611
   84MOL0     H11285  10.338   4.351   9.579 -1.4909  0.2598  3.4628
   84MOL0     H11286  10.469   4.409   9.684  0.1632 -0.5312 -0.0661
   84MOL0     H11287  10.460   4.633   9.622  1.3708 -0.5473 -1.7632
   84MOL0     H11288  10.359   4.603   9.479  0.1225 -1.1497 -0.3316
   84MOL0     H11289  10.261   4.687   9.702  3.9672  0.3414 -0.6294
   84MOL0     H11290  10.296   4.533   9.776 -0.7788  1.2166  1.4321
   84MOL0     H11291  10.156   4.349   9.736  2.8668  1.4443 -0.7257
   84MOL0     H11292   9.926   4.189   9.543  1.2454  1.0114 -1.9771
   84MOL0     H11293   9.919   4.217   9.720  0.4978  1.5628 -0.4570
   84MOL0     H11294   9.719   4.268   9.501 -2.6412  0.4386  0.5140
   84MOL0     H11295   9.723   4.366   9.644  0.2577 -1.7331  4.0611
   84MOL0     H11296   9.562   4.180   9.652  1.1263  0.8422 -1.4488
   84MOL0     H11297   9.659   4.201   9.801  1.6807  0.9254  0.4784
   84MOL0     H11298   9.645   3.964   9.767  0.3725  0.5054  0.1313
   84MOL0     H11299   9.804   4.028   9.743  0.8264  1.5911 -1.3358
   84MOL0     H11300   9.610   4.108   9.360 -0.9141  0.4341 -0.9744
   84MOL0     H11301   9.405   3.986   9.116  3.1175  1.0619 -1.5606
   84MOL0     H11302   9.320   4.122   9.181  1.5842  1.3913 -1.8226
   84MOL0     H11303   9.500   4.123   9.177  2.5316 -3.5178  2.1496
   84MOL0     H11304   9.266   3.617   9.121 -0.0486  1.8859 -1.1152
   84MOL0     H11305   9.162   3.465   8.980  0.4070 -0.5005 -0.2123
   84MOL0     H11306   9.036   3.299   8.871 -0.0360 -0.3625 -0.2388
   84MOL0     H11307   9.038   3.228   9.031 -1.9580 -0.7276  2.1436
   84MOL0     H11308   8.826   3.110   8.964 -0.8483 -2.1256 -0.9324
   84MOL0     H11309   8.840   3.170   8.804  0.4424 -2.3474 -0.9440
   84MOL0     H11310   9.068   3.013   8.922  0.7754  0.7506 -0.5346
   84MOL0     H11311   9.053   3.040   8.754 -0.3576  1.0826 -0.7308
   84MOL0     H11312   8.856   2.852   8.922  0.2118 -1.0399 -0.8769
   84MOL0     H11313   8.832   2.896   8.747 -0.0147  3.1995  0.0209
   84MOL0     H11314   9.028   2.728   8.914 -2.4720  0.4345  1.2383
   84MOL0     H11315   9.095   2.801   8.763  1.6975 -0.6469  2.5944
   84MOL0     H11316   8.930   2.665   8.620  0.2187 -0.0880  0.3613
   84MOL0     H11317   9.025   2.564   8.730  2.5737  2.8014 -0.8987
   84MOL0     H11318   8.724   2.635   8.797  1.1651  3.0802  2.9693
   84MOL0     H11319   8.833   2.546   8.887  1.0428 -1.2289 -0.1336
   84MOL0     H11320   8.846   2.373   8.714 -0.9692 -0.2032  0.6195
   84MOL0     H11321   8.740   2.471   8.600 -0.4703 -2.1753 -0.2474
   84MOL0     H11322   8.798   3.471   9.224 -1.0202  0.2464 -0.4842
   84MOL0     H11323   8.929   3.640   9.378  0.1555 -1.4358  1.9376
   84MOL0     H11324   9.337   3.721   9.520  0.6049 -0.8416 -0.3415
   84MOL0     H11325   9.538   3.794   9.640  0.0219  0.5872 -0.1403
   84MOL0     H11326  10.609   3.799   8.907  0.8766 -0.8766 -0.6662
   84MOL0     H11327  10.706   3.731   8.688  2.7550 -0.7595 -0.0197
   84MOL0     H11328  11.081   3.708   8.441 -2.8238 -1.6485  1.5494
   84MOL0     H11329  11.190   3.642   8.206 -0.0602 -0.2320  0.4914
   84MOL0     H11330  11.121   3.850   7.870 -0.3485  0.7420  0.5555
   84MOL0     H11331  11.221   3.719   7.835 -0.9283 -0.3322 -1.4268
   84MOL0     H11332  10.910   3.692   7.849 -1.5977 -3.6093 -1.2172
   84MOL0     H11333  11.032   3.571   7.803 -3.0495 -0.3572 -0.9159
   84MOL0     H11334  11.074   3.756   7.618  1.2387 -1.4774  1.5437
   84MOL0     H11335  10.914   3.806   7.668  1.5916  1.1019 -1.9282
   84MOL0     H11336  10.910   3.679   7.465  0.1725  1.0346  1.5560
   84MOL0     H11337  10.797   3.630   7.591 -0.3953  1.7134 -1.2482
   84MOL0     H11338  11.023   3.277   7.522  0.0693  0.7872 -2.0499
   84MOL0     H11339  10.884   3.848   8.009 -0.0845 -2.6065  0.5174
   84MOL0     H11340  10.794   3.933   8.221 -0.9389  1.0204 -0.1000
   85MOL0     O11341   1.494   1.018   1.902 -0.7235 -0.2144  0.4749
   85MOL0     C11342   1.476   0.897   1.931 -0.5112  0.6644 -0.6705
   85MOL0     O11343   1.564   0.795   1.910  0.0980 -0.2235  0.5332
   85MOL0     C11344   1.666   0.818   1.822 -0.6411  0.2933 -0.5666
   85MOL0     C11345   1.788   0.756   1.867  0.3246 -0.4080 -0.5116
   85MOL0     C11346   1.894   0.770   1.786  0.5213 -0.6857  0.0529
   85MOL0     C11347   1.883   0.831   1.664  0.3931 -0.2047 -0.0025
   85MOL0     O11348   1.995   0.852   1.588 -0.2274  0.6826 -0.3720
   85MOL0     C11349   2.127   0.812   1.622  0.6843  0.0516  0.7627
   85MOL0     C11350   2.235   0.880   1.532  0.1591 -0.0467 -0.7284
   85MOL0     C11351   2.215   0.866   1.379 -0.2960  0.1657 -0.7082
   85MOL0     C11352   2.325   0.950   1.314 -0.0403  0.9000  0.2158
   85MOL0     C11353   2.342   0.903   1.169 -0.1168 -0.1759  0.2750
   85MOL0     C11354   2.445   0.983   1.098 -0.4721 -0.0279 -0.0888
   85MOL0     C11355   2.493   0.925   0.964  0.1809 -0.9091  0.3245
   85MOL0     C11356   2.616   0.836   0.988  0.3095 -0.2496  0.0554
   85MOL0     N11357   2.727   0.868   0.891  0.1100  0.4557  0.1926
   85MOL0     C11358   2.710   0.824   0.766  0.3925 -0.3858  1.0481
   85MOL0     C11359   2.830   0.848   0.703 -0.4414  0.2307 -0.2590
   85MOL0     C11360   2.860   0.847   0.549  0.3899  0.3265  0.4910
   85MOL0     C11361   3.008   0.857   0.507 -0.1390 -0.7781 -1.2315
   85MOL0     C11362   3.049   0.990   0.466  0.3358 -0.7224 -0.2934
   85MOL0     C11363   3.206   1.010   0.454  0.6097  0.1416  0.4097
   85MOL0     O11364   3.248   1.134   0.390  0.5521 -0.2453 -0.0903
   85MOL0     C11365   3.149   1.211   0.321 -0.3036 -0.0997  0.4163
   85MOL0     C11366   3.055   1.292   0.390 -0.2506  0.4767  0.1154
   85MOL0     C11367   2.969   1.382   0.322 -0.2732 -0.5009  0.3459
   85MOL0     C11368   2.899   1.480   0.412 -0.3799  0.1531 -0.4355
   85MOL0     C11369   2.961   1.370   0.177  0.0882 -0.4023  0.2334
   85MOL0     C11370   2.862   1.448   0.093 -0.4197 -0.2264 -0.0649
   85MOL0     O11371   2.791   1.531   0.162 -0.0550  0.6506 -0.0368
   85MOL0     C11372   2.652   1.544   0.131  0.1913  0.1547  0.0095
   85MOL0     C11373   2.562   1.439   0.119 -0.3269  0.2383 -0.3673
   85MOL0     C11374   2.434   1.459   0.082 -0.4050  0.1952  0.1730
   85MOL0     C11375   2.388   1.590   0.058  0.1770  0.7706 -0.9033
   85MOL0     O11376   2.268   1.619   0.008  0.1981 -0.0237  0.1742
   85MOL0     C11377   2.197   1.514  -0.063  0.2305 -1.0376 -0.5018
   85MOL0     C11378   2.079   1.570  -0.149  0.3428  0.6141 -0.7939
   85MOL0     C11379   2.012   1.684  -0.084  0.3901 -0.3082  0.2828
   85MOL0     C11380   1.876   1.724  -0.146 -1.0148  0.1863 -0.4859
   85MOL0     C11381   1.809   1.851  -0.082  0.4858  0.1022 -1.0088
   85MOL0     C11382   1.772   1.840   0.070 -0.3173 -0.6422  0.3399
   85MOL0     C11383   1.708   1.944   0.149 -0.1709  0.4919  0.3641
   85MOL0     C11384   1.709   1.905   0.292  0.0320  1.2975 -0.0073
   85MOL0    Cl11385   1.596   1.779   0.330 -0.1131 -0.0184  0.3123
   85MOL0     C11386   2.476   1.689   0.077  0.9053 -0.4153  0.1785
   85MOL0     C11387   2.608   1.668   0.123  0.6502 -0.6835 -0.0695
   85MOL0     O11388   2.853   1.426  -0.029 -0.3382  0.5936  0.6843
   85MOL0     C11389   3.045   1.275   0.109  0.3727  0.4411 -0.6323
   85MOL0     C11390   3.142   1.207   0.182  0.4565  0.2472 -0.0899
   85MOL0     N11391   2.923   0.890   0.797  0.7787 -0.6442  0.1248
   85MOL0     N11392   2.857   0.893   0.916 -0.4313  0.2136 -0.1915
   85MOL0     C11393   1.766   0.887   1.614 -0.3275  0.1164  0.6700
   85MOL0     C11394   1.657   0.885   1.699  1.0120 -0.6895 -0.4598
   85MOL0     C11395   1.356   0.851   2.013 -0.9252  0.1601  0.1883
   85MOL0     C11396   1.336   0.723   2.068 -0.0882 -0.1548  0.7240
   85MOL0     C11397   1.221   0.684   2.135  0.1066  0.2970 -0.1966
   85MOL0     C11398   1.122   0.768   2.152 -1.2376 -0.9459  0.5189
   85MOL0     O11399   1.006   0.708   2.186 -0.3928 -0.3044 -0.0822
   85MOL0     C11400   0.886   0.779   2.226 -0.3428 -0.3808 -0.0591
   85MOL0     C11401   0.791   0.778   2.107 -0.3206 -0.4672 -0.2083
   85MOL0     C11402   0.641   0.787   2.149  0.3096 -0.9504 -0.2360
   85MOL0     C11403   0.607   0.924   2.218 -0.0585  0.4791  0.1684
   85MOL0     C11404   0.460   0.938   2.251 -0.6675 -0.1463  0.0195
   85MOL0     C11405   0.347   0.951   2.284  0.4552  0.5187 -0.0858
   85MOL0     C11406   1.136   0.902   2.105 -0.6272 -0.2710  0.2613
   85MOL0     C11407   1.250   0.942   2.032 -0.4779  0.0646  0.3161
   85MOL0     H11408   1.809   0.707   1.962  0.2436 -3.0353 -1.7504
   85MOL0     H11409   1.990   0.737   1.826  1.6298 -0.9619 -2.6254
   85MOL0     H11410   2.141   0.849   1.725 -2.2469 -2.9861  2.4431
   85MOL0     H11411   2.132   0.703   1.622  2.3219  0.0570  2.6354
   85MOL0     H11412   2.247   0.984   1.563 -0.1032 -0.7679  2.0768
   85MOL0     H11413   2.332   0.836   1.558  0.1917 -0.8249 -2.0907
   85MOL0     H11414   2.219   0.760   1.350  0.6564 -0.5233  1.7345
   85MOL0     H11415   2.119   0.908   1.347 -0.1672  1.8513  0.9506
   85MOL0     H11416   2.288   1.052   1.299  1.7314  1.5676  0.1358
   85MOL0     H11417   2.425   0.951   1.358  0.4088  1.9064 -0.7930
   85MOL0     H11418   2.365   0.796   1.164 -3.6267 -1.0135 -3.2498
   85MOL0     H11419   2.246   0.909   1.116 -0.7215 -0.1082  1.3335
   85MOL0     H11420   2.390   1.076   1.086  1.0761  1.5955  3.7038
   85MOL0     H11421   2.523   1.016   1.167 -0.7755 -1.4541  0.9747
   85MOL0     H11422   2.416   0.867   0.912 -0.0577  0.7815 -1.3005
   85MOL0     H11423   2.512   1.010   0.898 -2.3749  0.1846  0.8500
   85MOL0     H11424   2.589   0.730   0.988  1.2417 -0.5335  1.9918
   85MOL0     H11425   2.653   0.856   1.089  0.3948  2.3075 -0.4264
   85MOL0     H11426   2.619   0.799   0.712  0.4774  0.4222  0.4938
   85MOL0     H11427   2.821   0.756   0.503  1.5334 -0.1357  0.4089
   85MOL0     H11428   2.791   0.922   0.509 -1.3656 -0.8358  1.2302
   85MOL0     H11429   3.030   0.784   0.429  1.7211 -0.2247 -1.2610
   85MOL0     H11430   3.070   0.846   0.597 -3.9145  3.7959  2.4963
   85MOL0     H11431   3.009   1.073   0.525 -1.7317  1.1577 -3.9636
   85MOL0     H11432   3.010   1.007   0.365 -0.1383  0.2267  0.0411
   85MOL0     H11433   3.249   0.918   0.412 -0.4126 -1.1094  1.9709
   85MOL0     H11434   3.242   0.997   0.556 -0.2745 -0.4387  0.6609
   85MOL0     H11435   3.058   1.302   0.498 -4.6294  4.5847  0.1957
   85MOL0     H11436   2.960   1.498   0.502 -0.6215  2.0374 -0.6268
   85MOL0     H11437   2.895   1.581   0.371 -1.4462  0.8605  1.2872
   85MOL0     H11438   2.798   1.451   0.441  0.9256 -0.6206  4.1822
   85MOL0     H11439   2.587   1.334   0.134 -2.1636 -0.0451  0.9893
   85MOL0     H11440   2.363   1.379   0.067 -1.0737  0.6655  0.7631
   85MOL0     H11441   2.257   1.449  -0.127 -0.0646 -0.1733 -1.7060
   85MOL0     H11442   2.155   1.455   0.019  0.0110 -0.3011 -0.0788
   85MOL0     H11443   2.134   1.607  -0.236  1.8369 -0.3086 -0.2615
   85MOL0     H11444   1.997   1.504  -0.178 -1.5068  1.0602  2.8382
   85MOL0     H11445   2.071   1.776  -0.091 -0.8837  0.5404  0.3376
   85MOL0     H11446   2.004   1.666   0.023  0.9778  0.5888  0.4855
   85MOL0     H11447   1.887   1.746  -0.252  0.3015 -2.7193 -1.0458
   85MOL0     H11448   1.802   1.644  -0.136 -0.1363 -0.6924 -0.9091
   85MOL0     H11449   1.716   1.876  -0.135 -0.0727 -1.4234 -0.8194
   85MOL0     H11450   1.866   1.943  -0.091 -0.4740  0.7559 -0.6356
   85MOL0     H11451   1.725   1.741   0.074 -1.6562 -0.1077 -1.1802
   85MOL0     H11452   1.873   1.830   0.111  0.4799 -0.8832 -1.5474
   85MOL0     H11453   1.605   1.966   0.117  0.6917  0.8561 -2.4289
   85MOL0     H11454   1.763   2.037   0.132 -0.3789  0.3256 -1.4900
   85MOL0     H11455   1.671   1.988   0.352 -0.6142 -0.1942  1.7634
   85MOL0     H11456   1.805   1.864   0.323 -0.9525 -3.0920 -1.9813
   85MOL0     H11457   2.445   1.788   0.046  0.8062 -0.4249  0.2439
   85MOL0     H11458   2.671   1.755   0.134 -0.0863 -0.2134  0.4977
   85MOL0     H11459   3.027   1.246   0.006  0.5275 -2.1232 -0.0006
   85MOL0     H11460   3.218   1.142   0.140  2.2397 -1.1049  4.6104
   85MOL0     H11461   1.752   0.939   1.520 -0.0958 -0.0995  0.5176
   85MOL0     H11462   1.573   0.936   1.653  1.6371  1.6014  0.7751
   85MOL0     H11463   1.415   0.649   2.059 -0.0817 -0.4093  2.4803
   85MOL0     H11464   1.216   0.585   2.178  3.1218  0.4556  0.7203
   85MOL0     H11465   0.835   0.736   2.313  0.7531  2.5789  2.2295
   85MOL0     H11466   0.921   0.877   2.261  1.9961 -1.3627  0.4942
   85MOL0     H11467   0.797   0.684   2.052 -1.8424 -1.2443  0.8897
   85MOL0     H11468   0.812   0.859   2.035 -1.9939  0.4417  0.2534
   85MOL0     H11469   0.612   0.705   2.215  0.8172  0.1535  1.4290
   85MOL0     H11470   0.582   0.780   2.057  0.4020 -3.0884 -0.1736
   85MOL0     H11471   0.649   1.015   2.176  0.3510  1.6383  2.8434
   85MOL0     H11472   0.647   0.922   2.320 -1.8394  0.4776  0.9058
   85MOL0     H11473   0.244   0.953   2.312 -0.0646 -0.6735 -1.7205
   85MOL0     H11474   1.070   0.985   2.127  2.9892  2.6179  1.2290
   85MOL0     H11475   1.276   1.045   2.014 -2.1568  0.4701  0.0570
   86MOL0     O11476   9.867   8.840   8.289 -0.2910 -0.3087  0.3994
   86MOL0     C11477   9.835   8.934   8.215  0.1373 -0.0198  0.0681
   86MOL0     O11478   9.709   8.977   8.206  1.0461  0.2145  0.3944
   86MOL0     C11479   9.600   8.892   8.206 -0.4875 -0.4920 -0.5978
   86MOL0     C11480   9.593   8.765   8.143 -0.4509  0.0569 -0.2457
   86MOL0     C11481   9.472   8.688   8.155  0.4654 -0.2769 -0.1928
   86MOL0     C11482   9.366   8.721   8.242 -0.2430 -0.0778  0.4981
   86MOL0     O11483   9.263   8.633   8.247 -0.0859  0.3805 -0.0853
   86MOL0     C11484   9.156   8.637   8.351  0.5659  0.7858  0.4991
   86MOL0     C11485   9.029   8.680   8.280  1.4109 -0.2363 -0.3584
   86MOL0     C11486   8.929   8.704   8.400  0.2716  0.5046  0.0605
   86MOL0     C11487   8.781   8.712   8.375 -0.6243 -0.7185 -0.2320
   86MOL0     C11488   8.691   8.790   8.482  0.0926 -0.1976 -0.6819
   86MOL0     C11489   8.661   8.697   8.605  0.0244 -0.7513  0.1595
   86MOL0     C11490   8.545   8.746   8.693 -0.4463 -0.0648 -0.2062
   86MOL0     C11491   8.403   8.744   8.617 -0.4396 -0.5378 -0.2061
   86MOL0     N11492   8.305   8.745   8.728 -0.5409  0.1669  0.3264
   86MOL0     C11493   8.185   8.801   8.711 -0.3799  0.5038  0.4907
   86MOL0     C11494   8.105   8.756   8.812 -0.7176  0.1304  0.4843
   86MOL0     C11495   7.974   8.812   8.849 -0.2285 -0.6269 -0.5188
   86MOL0     C11496   7.878   8.791   8.737  0.4263 -0.4763  0.0219
   86MOL0     C11497   7.736   8.811   8.795  0.4721 -0.1265 -0.9026
   86MOL0     C11498   7.726   8.935   8.884  0.5450 -0.5424 -0.3009
   86MOL0     O11499   7.778   9.057   8.826  0.2883  0.2278  0.1936
   86MOL0     C11500   7.706   9.168   8.803 -0.1125  0.2078 -0.2617
   86MOL0     C11501   7.601   9.209   8.885  0.3374  0.3480  0.6308
   86MOL0     C11502   7.514   9.312   8.844 -0.5463 -0.8424 -0.0505
   86MOL0     C11503   7.418   9.344   8.946  0.8155 -0.3086  0.4353
   86MOL0     C11504   7.538   9.380   8.725 -0.4655 -0.4060 -0.2560
   86MOL0     C11505   7.445   9.483   8.664 -0.2477 -0.1225  0.1815
   86MOL0     O11506   7.490   9.553   8.554  0.1430  0.3174 -0.0454
   86MOL0     C11507   7.419   9.653   8.490  0.0930 -0.3904 -0.0540
   86MOL0     C11508   7.457   9.785   8.509  0.0567  0.0825  0.0495
   86MOL0     C11509   7.392   9.889   8.444 -0.4050 -0.6056  0.5815
   86MOL0     C11510   7.290   9.864   8.358  0.2414  0.3943 -0.4429
   86MOL0     O11511   7.218   9.974   8.299  0.4922  0.5283 -0.8175
   86MOL0     C11512   7.166  10.070   8.391 -0.7824 -0.5354  0.4017
   86MOL0     C11513   7.212  10.210   8.353 -0.4984  0.0344 -0.2249
   86MOL0     C11514   7.175  10.257   8.201  0.0938  0.1961  0.1727
   86MOL0     C11515   7.245  10.370   8.124  1.3208 -0.5448 -0.1044
   86MOL0     C11516   7.154  10.413   8.004 -0.0509  0.6991  0.7518
   86MOL0     C11517   7.028  10.491   8.044  0.5239  0.5287 -0.4840
   86MOL0     C11518   7.036  10.636   8.098 -0.3471  0.7171 -0.0368
   86MOL0     C11519   7.051  10.738   7.983  0.1287 -0.4123  0.0315
   86MOL0    Cl11520   6.941  10.740   7.847  0.4728 -0.0316 -0.3495
   86MOL0     C11521   7.248   9.728   8.336  0.0922 -1.0158  0.4543
   86MOL0     C11522   7.320   9.622   8.396 -0.3851 -0.6510 -0.2072
   86MOL0     O11523   7.333   9.490   8.703  0.6504 -0.4433  0.1219
   86MOL0     C11524   7.649   9.339   8.648 -0.4604 -0.5777 -0.2522
   86MOL0     C11525   7.737   9.239   8.688  0.0561 -0.1384 -0.0055
   86MOL0     N11526   8.176   8.655   8.878  0.4318  0.4166  0.2798
   86MOL0     N11527   8.296   8.659   8.829  0.1611 -0.6600 -0.1548
   86MOL0     C11528   9.372   8.848   8.300 -0.0378 -0.7011  0.3035
   86MOL0     C11529   9.483   8.931   8.280 -0.2664  0.2879 -0.2265
   86MOL0     C11530   9.943   9.013   8.159  0.3696 -0.0390 -0.8704
   86MOL0     C11531  10.075   8.980   8.166  0.6531  0.0067 -0.3859
   86MOL0     C11532  10.174   9.053   8.102  0.2818 -0.2353  0.1861
   86MOL0     C11533  10.132   9.170   8.034 -0.2817 -0.3414 -0.5142
   86MOL0     O11534  10.236   9.232   7.971 -0.1065 -0.4760  0.9432
   86MOL0     C11535  10.250   9.363   8.026 -0.4370  0.0872  0.6387
   86MOL0     C11536  10.355   9.424   7.937 -0.7602  0.1861 -0.1370
   86MOL0     C11537  10.399   9.571   7.984 -0.2850  0.6642  0.0425
   86MOL0     C11538  10.499   9.564   8.095  0.2051 -0.0173  0.0275
   86MOL0     C11539  10.534   9.694   8.151 -0.2694 -0.1234  0.0134
   86MOL0     C11540  10.570   9.801   8.193  0.1961 -0.4422 -0.5692
   86MOL0     C11541  10.000   9.215   8.030  0.4030  0.6021  0.3812
   86MOL0     C11542   9.905   9.133   8.093  0.4521 -0.7902 -0.2680
   86MOL0     H11543   9.688   8.742   8.097 -1.3480 -0.0833 -2.1135
   86MOL0     H11544   9.466   8.590   8.108  0.8924  0.0153 -0.8647
   86MOL0     H11545   9.139   8.537   8.393  2.7306 -0.4205 -1.2681
   86MOL0     H11546   9.178   8.707   8.432  0.0320  2.5353 -0.8060
   86MOL0     H11547   9.043   8.777   8.230 -2.0853  1.0881  0.9030
   86MOL0     H11548   8.999   8.611   8.200  4.5343  0.9243 -2.7536
   86MOL0     H11549   8.943   8.630   8.479 -3.3636  0.0291  0.4248
   86MOL0     H11550   8.953   8.801   8.445  2.7064  0.3327 -0.7076
   86MOL0     H11551   8.790   8.762   8.277  1.8845 -1.8591 -0.6823
   86MOL0     H11552   8.732   8.615   8.363 -0.2771 -0.6705 -2.6287
   86MOL0     H11553   8.730   8.882   8.525 -0.6093 -0.9259  1.7213
   86MOL0     H11554   8.598   8.813   8.429 -1.9637 -0.9958  2.2650
   86MOL0     H11555   8.633   8.594   8.583 -1.6596 -0.3283  0.1478
   86MOL0     H11556   8.753   8.691   8.664  0.6842  0.6957 -0.6773
   86MOL0     H11557   8.544   8.674   8.775 -1.2086 -0.6021 -0.6678
   86MOL0     H11558   8.573   8.848   8.723 -0.0279  1.0089 -3.7782
   86MOL0     H11559   8.397   8.664   8.543 -1.5352  0.6861 -1.5155
   86MOL0     H11560   8.383   8.833   8.556  0.8125  0.3941  0.6811
   86MOL0     H11561   8.151   8.875   8.640  1.2761  0.1800 -0.7131
   86MOL0     H11562   7.930   8.753   8.930  3.1081 -1.1684  1.0608
   86MOL0     H11563   7.989   8.919   8.869  0.9129 -0.5482 -1.6329
   86MOL0     H11564   7.898   8.698   8.684  0.9958  1.6119 -3.7799
   86MOL0     H11565   7.885   8.871   8.663 -0.2671 -1.5599 -1.2665
   86MOL0     H11566   7.706   8.722   8.851 -1.4532  1.6202  1.0284
   86MOL0     H11567   7.672   8.822   8.707  0.4533 -2.5669 -1.2752
   86MOL0     H11568   7.771   8.924   8.983 -1.1106 -0.7914  0.4568
   86MOL0     H11569   7.623   8.953   8.915  0.9976 -1.3187  1.8846
   86MOL0     H11570   7.571   9.157   8.975  0.7487  0.8094  1.0435
   86MOL0     H11571   7.376   9.253   8.989  0.6908 -0.8742 -0.8367
   86MOL0     H11572   7.460   9.404   9.027  0.0395 -0.7743  1.1975
   86MOL0     H11573   7.332   9.400   8.906  1.6251  2.1338  1.8634
   86MOL0     H11574   7.541   9.813   8.572 -0.2408 -0.1409  0.5486
   86MOL0     H11575   7.419   9.990   8.473 -1.1163 -0.1380 -0.3091
   86MOL0     H11576   7.057  10.067   8.386 -0.7586  0.3017 -1.0155
   86MOL0     H11577   7.209  10.053   8.491 -0.0331  4.4047  1.1809
   86MOL0     H11578   7.161  10.277   8.423  2.5227  2.1671  0.1168
   86MOL0     H11579   7.317  10.210   8.383 -1.2458 -0.8286  2.7954
   86MOL0     H11580   7.068  10.280   8.205 -0.3578 -0.8349 -2.9931
   86MOL0     H11581   7.189  10.172   8.134 -0.4908 -2.4627  3.1732
   86MOL0     H11582   7.264  10.461   8.183 -4.4400  1.2663 -0.4719
   86MOL0     H11583   7.339  10.336   8.078  1.2412  0.4850 -1.0720
   86MOL0     H11584   7.129  10.320   7.954 -2.9708  0.8430  1.7602
   86MOL0     H11585   7.200  10.479   7.930 -2.4420  0.8086 -0.7310
   86MOL0     H11586   6.969  10.489   7.952  0.5693 -0.6505 -0.5111
   86MOL0     H11587   6.968  10.445   8.124  0.3703  2.4175  0.5390
   86MOL0     H11588   7.119  10.641   8.169 -2.0862 -2.7373  2.5177
   86MOL0     H11589   6.941  10.653   8.150 -1.1040  1.0716 -1.4765
   86MOL0     H11590   7.149  10.710   7.944  0.3181 -0.7049  0.7011
   86MOL0     H11591   7.046  10.838   8.026  0.4257 -0.3775 -0.0144
   86MOL0     H11592   7.154   9.716   8.282 -1.0203  3.2810  1.0690
   86MOL0     H11593   7.298   9.517   8.381 -1.3733 -1.0003  2.9021
   86MOL0     H11594   7.667   9.398   8.559  2.7160 -2.0898 -0.7852
   86MOL0     H11595   7.803   9.196   8.614  1.2029 -0.4327  1.1435
   86MOL0     H11596   9.286   8.874   8.360  0.0820  1.6834 -0.4541
   86MOL0     H11597   9.486   9.026   8.332  2.5187  1.0810 -1.6542
   86MOL0     H11598  10.106   8.884   8.207 -1.8197 -0.2238  1.1574
   86MOL0     H11599  10.277   9.018   8.107  1.1248  1.1012 -3.7735
   86MOL0     H11600  10.162   9.427   8.019 -0.2132  0.4049  0.6883
   86MOL0     H11601  10.274   9.366   8.133  0.0390  0.9754  0.5163
   86MOL0     H11602  10.305   9.438   7.841 -2.3085 -0.4323  0.5396
   86MOL0     H11603  10.437   9.352   7.944 -2.0540 -1.6022 -2.0679
   86MOL0     H11604  10.311   9.623   8.024 -0.8575  0.1743 -0.5825
   86MOL0     H11605  10.444   9.625   7.900 -2.4103  2.3180 -0.1196
   86MOL0     H11606  10.592   9.531   8.047 -0.1229  1.2348 -1.5519
   86MOL0     H11607  10.462   9.495   8.172  0.5802  0.6804  0.8526
   86MOL0     H11608  10.612   9.890   8.235 -0.6089 -0.3197 -0.0039
   86MOL0     H11609   9.969   9.301   7.971 -0.9056  0.1824  0.4230
   86MOL0     H11610   9.805   9.176   8.098 -0.4819 -2.8987  0.1167
   87MOL0     O11611   4.121   9.489   6.538  1.0460 -1.0549  0.1288
   87MOL0     C11612   4.110   9.387   6.606 -0.0761  0.5166  0.3378
   87MOL0     O11613   3.996   9.326   6.650 -0.1810 -0.2212  1.0029
   87MOL0     C11614   3.870   9.380   6.609  0.7925  0.3636 -0.2777
   87MOL0     C11615   3.834   9.413   6.479 -0.5101  0.6058 -0.2370
   87MOL0     C11616   3.707   9.448   6.447 -0.1395 -0.6015 -0.6767
   87MOL0     C11617   3.617   9.481   6.554 -0.1249  0.4914  0.8049
   87MOL0     O11618   3.493   9.521   6.510  0.1315 -0.9084 -0.1831
   87MOL0     C11619   3.394   9.536   6.619 -0.5255  0.0283 -0.4065
   87MOL0     C11620   3.340   9.397   6.653  0.1798 -1.2020 -0.0278
   87MOL0     C11621   3.217   9.419   6.742  0.3973  0.2476 -0.7248
   87MOL0     C11622   3.133   9.296   6.744 -0.1263 -0.6620  0.1537
   87MOL0     C11623   3.025   9.291   6.853  0.3051 -0.5715 -0.0659
   87MOL0     C11624   2.994   9.145   6.883 -0.3985 -0.1072 -0.1526
   87MOL0     C11625   2.947   9.058   6.764  0.6312  0.3496 -0.0447
   87MOL0     C11626   2.884   8.922   6.798  0.3917  0.9490  0.5765
   87MOL0     N11627   2.759   8.941   6.885 -0.8907 -0.5240 -0.0549
   87MOL0     C11628   2.623   8.928   6.847 -0.4808 -0.7669  0.6809
   87MOL0     C11629   2.557   8.941   6.963 -0.2524 -0.0997 -0.5378
   87MOL0     C11630   2.407   8.939   6.957 -0.0332 -0.1621  0.3715
   87MOL0     C11631   2.344   8.913   7.100 -0.8506 -1.0114 -0.4787
   87MOL0     C11632   2.366   9.035   7.195  0.1590  0.6086  0.6010
   87MOL0     C11633   2.332   9.004   7.343 -0.0755 -0.6323  0.1263
   87MOL0     O11634   2.421   8.914   7.418 -0.8566  0.2895 -0.1909
   87MOL0     C11635   2.386   8.880   7.552  0.2102  0.1421  0.0616
   87MOL0     C11636   2.478   8.812   7.626 -0.0371  0.3435  0.9483
   87MOL0     C11637   2.470   8.773   7.762  0.3204  1.0913 -0.1241
   87MOL0     C11638   2.597   8.703   7.808  0.5966 -0.0300 -0.4016
   87MOL0     C11639   2.354   8.803   7.832 -0.4566  0.2945  0.3158
   87MOL0     C11640   2.332   8.759   7.965  0.8872  0.0953 -0.0315
   87MOL0     O11641   2.211   8.797   8.005 -0.0801 -0.0618  0.4366
   87MOL0     C11642   2.156   8.771   8.127 -0.8688 -0.3771 -0.7888
   87MOL0     C11643   2.016   8.801   8.137 -0.8244  0.1682  0.2879
   87MOL0     C11644   1.945   8.797   8.254  0.0334  0.2963  0.4911
   87MOL0     C11645   2.009   8.773   8.375 -0.7244 -0.8303  0.0886
   87MOL0     O11646   1.959   8.792   8.501 -0.5462  0.4735  0.0715
   87MOL0     C11647   1.820   8.833   8.505 -0.4210 -0.5214  0.3400
   87MOL0     C11648   1.752   8.843   8.650  0.4376 -0.0236 -0.1712
   87MOL0     C11649   1.721   8.704   8.716 -0.0947  0.6624 -0.3321
   87MOL0     C11650   1.568   8.666   8.722 -0.7785 -0.3574  0.5019
   87MOL0     C11651   1.557   8.534   8.791 -1.0177  0.3066 -0.2932
   87MOL0     C11652   1.410   8.496   8.772  0.4544  0.0961  0.4498
   87MOL0     C11653   1.387   8.349   8.822 -0.6156 -0.3631 -0.4818
   87MOL0     C11654   1.257   8.279   8.775 -0.2769  0.5082  0.0493
   87MOL0    Cl11655   1.129   8.382   8.836 -0.5872 -0.3741 -0.3104
   87MOL0     C11656   2.144   8.734   8.364  0.6477  0.0404 -0.1751
   87MOL0     C11657   2.218   8.735   8.246  0.9084 -0.5267  0.5847
   87MOL0     O11658   2.398   8.681   8.026  0.1061  0.1601  0.2491
   87MOL0     C11659   2.261   8.885   7.751 -0.6662 -0.4450  0.9451
   87MOL0     C11660   2.277   8.923   7.620 -0.7529  0.0362  0.6394
   87MOL0     N11661   2.646   8.939   7.067  0.2192  0.3483 -0.7865
   87MOL0     N11662   2.772   8.944   7.024 -0.2990 -0.3450 -0.3081
   87MOL0     C11663   3.657   9.456   6.688  0.4827  0.6772  0.0066
   87MOL0     C11664   3.781   9.404   6.709  0.3973  0.0568  0.4270
   87MOL0     C11665   4.231   9.302   6.630  0.5695  0.1456  0.2092
   87MOL0     C11666   4.211   9.187   6.716  0.1852  0.2473  0.8701
   87MOL0     C11667   4.331   9.112   6.741  0.4363 -0.1992 -0.8141
   87MOL0     C11668   4.454   9.130   6.668  0.0765  0.1343 -0.0464
   87MOL0     O11669   4.560   9.050   6.702 -0.4809  0.9640  0.0565
   87MOL0     C11670   4.672   9.022   6.615  0.3237  0.0084  1.1264
   87MOL0     C11671   4.781   9.140   6.593  0.2762  1.0505  0.3300
   87MOL0     C11672   4.810   9.228   6.720  0.0098 -0.4647  0.1782
   87MOL0     C11673   4.881   9.354   6.692  0.6651 -1.0009  0.4433
   87MOL0     C11674   5.016   9.335   6.635 -0.8346  0.0927  0.4233
   87MOL0     C11675   5.130   9.334   6.600 -0.3304  0.5280  0.2875
   87MOL0     C11676   4.461   9.240   6.588  0.0082  0.2228  1.0780
   87MOL0     C11677   4.351   9.325   6.563 -0.4818  0.0208  0.2614
   87MOL0     H11678   3.906   9.401   6.399  0.2560 -1.8884  0.7284
   87MOL0     H11679   3.677   9.463   6.344  0.2270 -1.4237 -0.9077
   87MOL0     H11680   3.435   9.591   6.705  1.9994 -0.6546 -1.0875
   87MOL0     H11681   3.311   9.600   6.587  0.6020 -0.0407 -3.8232
   87MOL0     H11682   3.318   9.346   6.559  1.4071 -0.4593 -0.7525
   87MOL0     H11683   3.425   9.354   6.708  2.9259  4.3889  0.8329
   87MOL0     H11684   3.244   9.437   6.847 -0.6361 -1.8281 -0.0497
   87MOL0     H11685   3.156   9.505   6.712  0.8240  0.3312 -1.3843
   87MOL0     H11686   3.082   9.276   6.649 -0.9641 -3.3402  1.0737
   87MOL0     H11687   3.203   9.212   6.749 -0.3507 -0.9801 -1.4561
   87MOL0     H11688   3.056   9.339   6.947 -1.5383 -0.9083  0.7546
   87MOL0     H11689   2.946   9.356   6.816  1.1821  0.0217 -0.9516
   87MOL0     H11690   3.085   9.101   6.925  0.7376  0.5644 -1.7947
   87MOL0     H11691   2.922   9.148   6.965 -0.5451 -2.8253 -0.0713
   87MOL0     H11692   2.872   9.117   6.710  2.1000  1.1550 -1.2747
   87MOL0     H11693   3.035   9.042   6.702 -1.7017 -0.3143 -3.4729
   87MOL0     H11694   2.947   8.847   6.846 -1.3342 -1.1763 -0.3093
   87MOL0     H11695   2.858   8.893   6.696 -0.5724  4.0646 -0.1729
   87MOL0     H11696   2.580   8.919   6.748  2.1036  0.3098 -0.6425
   87MOL0     H11697   2.365   9.035   6.923 -1.1875 -0.8327 -0.1633
   87MOL0     H11698   2.368   8.859   6.894 -1.7366 -0.6477  1.9565
   87MOL0     H11699   2.394   8.827   7.144 -2.6038 -1.3334  0.9916
   87MOL0     H11700   2.236   8.898   7.103 -0.6921 -2.0785  0.2431
   87MOL0     H11701   2.296   9.109   7.156 -1.9300 -1.8050 -0.5029
   87MOL0     H11702   2.470   9.064   7.176  0.3747 -0.4063  0.1389
   87MOL0     H11703   2.231   8.963   7.333 -1.0998  1.6907  0.3414
   87MOL0     H11704   2.333   9.096   7.402 -1.8075 -1.0791  0.9258
   87MOL0     H11705   2.565   8.783   7.568 -2.4158 -0.7322 -2.3970
   87MOL0     H11706   2.607   8.706   7.917 -1.1574  0.8460 -0.2397
   87MOL0     H11707   2.609   8.596   7.788 -0.7026 -1.0893  3.4978
   87MOL0     H11708   2.686   8.755   7.772  1.4258 -2.4125 -2.0196
   87MOL0     H11709   1.951   8.827   8.053  0.5896  1.6133 -0.4160
   87MOL0     H11710   1.837   8.807   8.245 -0.2030  0.1335  2.6308
   87MOL0     H11711   1.811   8.936   8.469 -0.6196 -0.4274  0.6537
   87MOL0     H11712   1.758   8.767   8.444  1.4093 -0.3662 -1.8441
   87MOL0     H11713   1.819   8.906   8.710 -3.0654  4.8238 -0.7493
   87MOL0     H11714   1.657   8.898   8.651  1.7532  2.4495 -1.3317
   87MOL0     H11715   1.764   8.707   8.817 -0.6417 -1.4000 -0.0030
   87MOL0     H11716   1.777   8.619   8.678 -1.0086 -0.4824  0.7806
   87MOL0     H11717   1.504   8.737   8.776 -2.1107 -1.7787  0.8580
   87MOL0     H11718   1.527   8.656   8.622  0.3729 -2.0708  0.1614
   87MOL0     H11719   1.585   8.543   8.896 -0.5312 -2.4869 -0.1182
   87MOL0     H11720   1.615   8.450   8.752 -2.9414 -1.1263 -0.2310
   87MOL0     H11721   1.343   8.566   8.823 -1.0723 -0.2237 -1.0062
   87MOL0     H11722   1.381   8.490   8.666  0.0186 -0.6745  0.6013
   87MOL0     H11723   1.400   8.338   8.930  2.0707 -1.0699 -0.8137
   87MOL0     H11724   1.465   8.284   8.781 -0.3293 -1.2138  1.3039
   87MOL0     H11725   1.256   8.175   8.809  3.2552 -0.2290 -1.6402
   87MOL0     H11726   1.253   8.284   8.666  1.0948  1.0052  0.0020
   87MOL0     H11727   2.188   8.714   8.462 -2.6171 -1.1356  1.1976
   87MOL0     H11728   2.324   8.716   8.234  1.2073 -0.2452  2.5039
   87MOL0     H11729   2.171   8.925   7.799 -1.9392 -1.5939 -0.3928
   87MOL0     H11730   2.199   8.981   7.572  2.3987  2.2055 -2.3194
   87MOL0     H11731   3.593   9.474   6.774 -1.3921 -2.1600 -0.6625
   87MOL0     H11732   3.820   9.366   6.803  0.4812 -2.9307 -0.6960
   87MOL0     H11733   4.113   9.170   6.760  0.3483  0.5210  1.3437
   87MOL0     H11734   4.322   9.039   6.821 -0.9456  0.1949 -0.5822
   87MOL0     H11735   4.717   8.939   6.670  3.0412  0.1431 -0.6850
   87MOL0     H11736   4.644   8.982   6.518 -0.0771  1.6820  0.5211
   87MOL0     H11737   4.768   9.208   6.508 -0.9253  1.5683  0.8990
   87MOL0     H11738   4.879   9.097   6.571  0.0270  0.0689  1.0358
   87MOL0     H11739   4.869   9.180   6.799 -0.6703 -0.0554  0.9492
   87MOL0     H11740   4.717   9.255   6.770  0.3248 -0.7194  0.9253
   87MOL0     H11741   4.894   9.399   6.791 -2.8313 -0.4934  0.7832
   87MOL0     H11742   4.821   9.423   6.633 -0.9593 -1.3700  1.5908
   87MOL0     H11743   5.231   9.335   6.564  0.3522  0.2117  2.0956
   87MOL0     H11744   4.555   9.267   6.540 -1.2043  0.6863 -1.1663
   87MOL0     H11745   4.358   9.404   6.489  0.3516  1.2144  1.5483
   88MOL0     O11746   4.493   2.010   6.582 -0.1653 -0.4399 -0.4321
   88MOL0     C11747   4.426   1.946   6.507  0.3906 -0.1364  0.2817
   88MOL0     O11748   4.428   1.808   6.487 -0.1859 -0.2141  1.1230
   88MOL0     C11749   4.447   1.729   6.592 -0.3436  0.2050  0.3942
   88MOL0     C11750   4.547   1.626   6.597 -0.8236 -0.4699  0.1796
   88MOL0     C11751   4.564   1.548   6.707  0.3942 -0.6854 -0.4133
   88MOL0     C11752   4.498   1.581   6.825  0.4927  0.4418 -0.1960
   88MOL0     O11753   4.539   1.513   6.942  0.3121  0.1274 -0.2895
   88MOL0     C11754   4.585   1.604   7.041  0.0764 -0.3853  0.5799
   88MOL0     C11755   4.525   1.573   7.169  0.8217 -0.2931 -0.8134
   88MOL0     C11756   4.372   1.591   7.161 -0.3340  0.3036 -0.8683
   88MOL0     C11757   4.299   1.546   7.295 -0.4559 -0.1736  0.0964
   88MOL0     C11758   4.144   1.543   7.268 -0.0954 -0.4353 -0.4067
   88MOL0     C11759   4.068   1.482   7.390  0.0675 -0.0476 -0.3918
   88MOL0     C11760   4.097   1.333   7.413  0.1106  0.1207 -0.0469
   88MOL0     C11761   4.056   1.236   7.295 -0.5829 -0.3876 -0.3661
   88MOL0     N11762   3.916   1.261   7.254 -0.8930  0.0320 -0.0798
   88MOL0     C11763   3.797   1.244   7.330  0.2676 -0.0396  0.3113
   88MOL0     C11764   3.696   1.252   7.238  0.6746  0.2280  0.1836
   88MOL0     C11765   3.544   1.248   7.242 -0.4606  0.2522 -0.5582
   88MOL0     C11766   3.477   1.213   7.382  0.2860 -0.6730 -0.1039
   88MOL0     C11767   3.344   1.275   7.411  1.5221  0.2167  0.6679
   88MOL0     C11768   3.247   1.290   7.291  0.6005 -0.1122  0.6151
   88MOL0     O11769   3.238   1.176   7.201  0.5063  0.5698  0.5265
   88MOL0     C11770   3.187   1.197   7.071  0.1427 -0.4287 -0.9029
   88MOL0     C11771   3.217   1.092   6.990 -0.0020  0.1960 -0.9318
   88MOL0     C11772   3.185   1.091   6.854  0.1942  0.4929  0.8039
   88MOL0     C11773   3.224   0.968   6.779 -0.4882 -0.0160 -0.0031
   88MOL0     C11774   3.119   1.203   6.801 -0.3846  0.4475  0.3122
   88MOL0     C11775   3.097   1.230   6.655 -0.6173  0.2742  0.2048
   88MOL0     O11776   3.032   1.338   6.612 -0.6624  0.4035  0.4308
   88MOL0     C11777   3.008   1.366   6.478 -0.4303 -0.0828  0.5497
   88MOL0     C11778   2.887   1.450   6.462 -0.6857 -0.6575 -0.1454
   88MOL0     C11779   2.858   1.501   6.329 -0.0104  1.5051  0.2656
   88MOL0     C11780   2.938   1.470   6.223 -0.2168 -0.1516  0.3505
   88MOL0     O11781   2.927   1.524   6.104  0.5558 -0.6778 -0.2605
   88MOL0     C11782   2.821   1.621   6.075  0.5635  0.1345  0.7242
   88MOL0     C11783   2.794   1.629   5.919  0.0467 -0.3006  0.1245
   88MOL0     C11784   2.728   1.504   5.871  0.6055 -0.3300 -0.0817
   88MOL0     C11785   2.728   1.523   5.721 -0.6652  0.2200  0.2356
   88MOL0     C11786   2.597   1.584   5.671  0.2087  0.5875  0.4190
   88MOL0     C11787   2.622   1.629   5.522 -0.7141  0.2093 -0.2549
   88MOL0     C11788   2.603   1.519   5.420  0.4987  0.8658  0.3799
   88MOL0     C11789   2.545   1.582   5.285  0.3335  0.1307 -0.4689
   88MOL0    Cl11790   2.370   1.598   5.284  0.5114 -0.0922 -0.1116
   88MOL0     C11791   3.053   1.389   6.241 -0.2399 -0.0980 -0.2287
   88MOL0     C11792   3.090   1.335   6.363 -0.3808 -0.5683 -0.6936
   88MOL0     O11793   3.137   1.145   6.581 -0.5690  0.0786 -0.1320
   88MOL0     C11794   3.083   1.303   6.888  0.0159 -0.6663  0.4707
   88MOL0     C11795   3.106   1.306   7.028  0.9653 -0.1223  0.3994
   88MOL0     N11796   3.752   1.278   7.118 -0.5409 -0.2608  0.4446
   88MOL0     N11797   3.879   1.287   7.121  0.6780  0.3194  0.3513
   88MOL0     C11798   4.395   1.676   6.818  0.5668  0.2842 -0.1420
   88MOL0     C11799   4.368   1.747   6.703  0.2688 -0.4882  0.2715
   88MOL0     C11800   4.343   2.023   6.417  0.2484 -0.5590  0.5634
   88MOL0     C11801   4.297   2.152   6.459 -0.6061 -0.5757 -0.1691
   88MOL0     C11802   4.228   2.231   6.371 -0.0920 -0.1136  0.0449
   88MOL0     C11803   4.194   2.185   6.245 -0.6038  0.2206 -0.4349
   88MOL0     O11804   4.101   2.256   6.167 -0.1427 -0.6699 -0.3744
   88MOL0     C11805   4.133   2.285   6.028  0.0481  0.0418 -0.4459
   88MOL0     C11806   4.060   2.397   5.963  0.2457  0.4184 -0.0256
   88MOL0     C11807   4.099   2.519   6.039  0.2651 -0.3498 -0.4141
   88MOL0     C11808   4.006   2.627   6.007 -0.2848 -1.1754 -0.3956
   88MOL0     C11809   4.082   2.752   6.045 -0.6303  0.3514  0.4787
   88MOL0     C11810   4.140   2.845   6.091  0.4005 -0.2094  0.7472
   88MOL0     C11811   4.254   2.070   6.199  0.9800  0.3051 -0.0360
   88MOL0     C11812   4.326   1.989   6.284  0.4463 -0.0946  1.0860
   88MOL0     H11813   4.612   1.622   6.510 -1.7355  1.2958 -0.6366
   88MOL0     H11814   4.649   1.482   6.720  2.5926  2.1733  1.0323
   88MOL0     H11815   4.692   1.587   7.054  0.3865  0.3742 -0.6947
   88MOL0     H11816   4.566   1.711   7.026 -0.8687 -0.2801  2.3264
   88MOL0     H11817   4.555   1.472   7.200  1.0775 -0.4521 -1.5576
   88MOL0     H11818   4.562   1.641   7.246  1.0324  0.3875 -1.5093
   88MOL0     H11819   4.346   1.693   7.131 -1.4024 -0.1539 -1.5594
   88MOL0     H11820   4.334   1.515   7.092  1.4042 -1.5101  0.0621
   88MOL0     H11821   4.335   1.450   7.334 -0.3958 -0.2540 -0.1588
   88MOL0     H11822   4.319   1.613   7.380  3.0681 -1.5165  0.4972
   88MOL0     H11823   4.116   1.648   7.255  1.7845  0.1336 -0.2109
   88MOL0     H11824   4.130   1.485   7.176  2.0446  1.9702 -2.4046
   88MOL0     H11825   4.091   1.552   7.470  0.1681  3.5786 -3.3150
   88MOL0     H11826   3.962   1.501   7.371 -0.0694 -0.1569  0.2423
   88MOL0     H11827   4.203   1.323   7.441 -0.2181  1.2294  1.7329
   88MOL0     H11828   4.047   1.300   7.504  1.8087  4.1306  2.6214
   88MOL0     H11829   4.051   1.132   7.326 -1.0826 -0.0165  0.8658
   88MOL0     H11830   4.123   1.257   7.211  0.3562 -2.9402 -0.3155
   88MOL0     H11831   3.784   1.206   7.431  1.4704 -3.0240 -0.5329
   88MOL0     H11832   3.513   1.350   7.218 -2.8644 -0.3139 -0.0585
   88MOL0     H11833   3.512   1.185   7.158  1.7395 -0.9644 -0.5619
   88MOL0     H11834   3.547   1.250   7.457 -0.0277  2.0942 -1.0574
   88MOL0     H11835   3.468   1.106   7.398 -0.2696 -0.5292  0.6080
   88MOL0     H11836   3.362   1.374   7.453 -0.3310  1.0616 -0.4431
   88MOL0     H11837   3.292   1.214   7.485 -1.2848  0.1077 -1.2224
   88MOL0     H11838   3.293   1.366   7.227 -0.1535  0.1947  0.4346
   88MOL0     H11839   3.151   1.335   7.317  0.8111  0.7218 -0.0062
   88MOL0     H11840   3.267   1.003   7.026  0.5323 -0.2138 -2.5826
   88MOL0     H11841   3.307   1.006   6.719  2.1934  0.8818  3.9013
   88MOL0     H11842   3.257   0.895   6.854 -4.0223 -0.8804  0.9316
   88MOL0     H11843   3.148   0.914   6.722 -1.1317  2.9266 -2.1707
   88MOL0     H11844   2.813   1.453   6.541  0.1685 -1.5617  0.7305
   88MOL0     H11845   2.767   1.560   6.321 -1.3594 -0.6380 -1.9540
   88MOL0     H11846   2.730   1.588   6.126  1.5861  0.1796  2.6664
   88MOL0     H11847   2.833   1.718   6.122 -3.1506  0.7290  0.7439
   88MOL0     H11848   2.729   1.714   5.897 -1.2176 -0.9617  1.1528
   88MOL0     H11849   2.885   1.638   5.860  2.2618 -4.5885  2.4416
   88MOL0     H11850   2.625   1.490   5.906  0.5360  0.5168  0.0582
   88MOL0     H11851   2.778   1.410   5.896 -1.8706 -1.3288  1.5346
   88MOL0     H11852   2.809   1.587   5.684  0.4262 -0.8456  0.7208
   88MOL0     H11853   2.747   1.424   5.679  0.4654  1.0938 -1.4339
   88MOL0     H11854   2.578   1.674   5.731 -1.3471  1.1887 -0.9139
   88MOL0     H11855   2.509   1.521   5.682 -0.8082  1.7090 -0.9528
   88MOL0     H11856   2.540   1.699   5.509  1.0569  2.2195 -1.2101
   88MOL0     H11857   2.715   1.686   5.506 -1.0461  1.3686  1.6186
   88MOL0     H11858   2.526   1.447   5.451 -0.9267  2.0690 -0.2198
   88MOL0     H11859   2.693   1.458   5.408 -0.8947 -0.9130 -1.6908
   88MOL0     H11860   2.565   1.514   5.201  3.8326  2.0479 -1.3998
   88MOL0     H11861   2.600   1.671   5.254 -0.2660  0.6515 -0.0417
   88MOL0     H11862   3.119   1.366   6.159  4.2304  2.1061  2.3852
   88MOL0     H11863   3.173   1.265   6.353 -1.7013 -1.8205 -5.4565
   88MOL0     H11864   3.024   1.386   6.851 -1.3180 -0.9999  1.7560
   88MOL0     H11865   3.092   1.385   7.101 -0.0960  0.1167 -0.0353
   88MOL0     H11866   4.347   1.696   6.913 -1.1126 -0.6690 -0.7531
   88MOL0     H11867   4.295   1.827   6.701 -1.4062 -1.9049  1.8535
   88MOL0     H11868   4.316   2.197   6.556  3.3877 -2.7123  0.2158
   88MOL0     H11869   4.178   2.319   6.411 -1.2688 -0.8202  0.1678
   88MOL0     H11870   4.240   2.296   6.006  0.0118 -0.4424 -0.8912
   88MOL0     H11871   4.108   2.193   5.975  0.6224  0.6246 -1.7773
   88MOL0     H11872   3.953   2.376   5.975  0.5897 -0.7978  1.1508
   88MOL0     H11873   4.088   2.399   5.858  3.7016  0.6917  0.7760
   88MOL0     H11874   4.207   2.533   6.027  0.8458 -1.9280  2.1669
   88MOL0     H11875   4.083   2.506   6.147 -1.1986 -0.8363 -0.6576
   88MOL0     H11876   3.909   2.616   6.054 -0.4892 -0.4252 -0.6274
   88MOL0     H11877   3.982   2.630   5.900 -0.1459  1.2408 -0.4184
   88MOL0     H11878   4.180   2.939   6.122  0.1782 -0.7074  2.6820
   88MOL0     H11879   4.239   2.029   6.100  0.0389 -0.4898  0.4198
   88MOL0     H11880   4.373   1.896   6.255 -3.1067 -1.0652 -2.3542
   89MOL0     O11881  10.949   4.009   4.307  0.5580  1.0177  0.2018
   89MOL0     C11882  10.983   4.041   4.198 -0.3194  0.0972  1.2539
   89MOL0     O11883  10.920   4.132   4.115 -0.3138  0.4576  0.0272
   89MOL0     C11884  10.823   4.200   4.175  0.5686 -0.2599  0.8528
   89MOL0     C11885  10.701   4.203   4.101  0.8870 -0.8008 -0.0031
   89MOL0     C11886  10.590   4.277   4.153  0.1346  0.3150 -0.5791
   89MOL0     C11887  10.611   4.342   4.276 -0.0031 -0.7394 -0.2596
   89MOL0     O11888  10.496   4.405   4.315  0.6269 -0.2238 -0.5808
   89MOL0     C11889  10.504   4.544   4.347 -0.8333  0.2496 -1.3893
   89MOL0     C11890  10.364   4.598   4.333 -0.4096 -0.5532  0.3903
   89MOL0     C11891  10.320   4.615   4.182  0.6579  0.6967  0.5855
   89MOL0     C11892  10.207   4.718   4.170  0.1518 -0.1234 -0.1617
   89MOL0     C11893  10.132   4.695   4.041 -0.1626 -0.2682 -0.1960
   89MOL0     C11894  10.224   4.728   3.926 -0.1866  0.3409 -0.4890
   89MOL0     C11895  10.148   4.745   3.802 -0.0123 -0.0691 -0.4084
   89MOL0     C11896  10.242   4.768   3.678  0.8258  0.4684 -0.3241
   89MOL0     N11897  10.308   4.645   3.639  0.2715  0.6353  0.0136
   89MOL0     C11898  10.272   4.515   3.674 -0.5008 -0.8029 -0.0443
   89MOL0     C11899  10.366   4.448   3.610 -0.2204 -0.9286  0.3993
   89MOL0     C11900  10.357   4.298   3.613 -0.8306 -0.9101 -0.1856
   89MOL0     C11901  10.272   4.234   3.497 -0.1926 -0.1621 -0.0504
   89MOL0     C11902  10.193   4.102   3.533 -0.5959 -0.0247  0.4516
   89MOL0     C11903  10.173   4.022   3.399  0.2323 -0.2727 -0.3841
   89MOL0     O11904  10.080   4.107   3.328 -0.4217 -0.2465 -0.4450
   89MOL0     C11905  10.010   4.056   3.227 -0.5873  0.4293  1.0396
   89MOL0     C11906  10.031   3.920   3.184  0.3606 -0.3632  0.2761
   89MOL0     C11907   9.940   3.860   3.089 -0.1278  0.4883  0.5863
   89MOL0     C11908   9.966   3.721   3.052  0.2353  0.1577 -0.0943
   89MOL0     C11909   9.823   3.925   3.054 -0.5539  0.1586 -0.0109
   89MOL0     C11910   9.721   3.883   2.957 -0.4379 -0.8061  0.6890
   89MOL0     O11911   9.631   3.977   2.907  0.0421 -0.3001 -0.1227
   89MOL0     C11912   9.512   3.926   2.868 -0.2367 -0.5519  0.1046
   89MOL0     C11913   9.488   3.884   2.730  0.2924  0.2731  0.1591
   89MOL0     C11914   9.373   3.825   2.685  0.9127 -0.6464  0.6060
   89MOL0     C11915   9.271   3.801   2.785 -0.6763  0.1444  0.3084
   89MOL0     O11916   9.150   3.740   2.750 -0.3546  0.2492 -0.1178
   89MOL0     C11917   9.136   3.694   2.618 -0.3491  0.0003  0.3604
   89MOL0     C11918   9.007   3.613   2.599 -0.6833 -0.6014 -0.3010
   89MOL0     C11919   8.996   3.580   2.455  0.2383 -0.3105  0.4816
   89MOL0     C11920   8.863   3.515   2.420 -0.2195 -0.0911 -0.4093
   89MOL0     C11921   8.854   3.465   2.275  0.0601 -0.0928 -0.0867
   89MOL0     C11922   8.709   3.430   2.214 -0.8592  0.2625 -0.4203
   89MOL0     C11923   8.726   3.379   2.076 -0.2201  0.3548  0.6389
   89MOL0     C11924   8.583   3.368   2.024  1.0221  0.1428  0.0130
   89MOL0    Cl11925   8.568   3.293   1.866  0.0886  0.0871  0.3139
   89MOL0     C11926   9.289   3.830   2.916  0.0197 -0.7966  0.2708
   89MOL0     C11927   9.409   3.895   2.955 -0.8339  0.8876  0.0559
   89MOL0     O11928   9.724   3.766   2.927  0.3181 -0.2758 -0.0385
   89MOL0     C11929   9.808   4.059   3.102 -0.1593 -0.2285  0.4202
   89MOL0     C11930   9.903   4.133   3.175  0.0781  1.3770 -0.8418
   89MOL0     N11931  10.453   4.521   3.539  0.4813 -0.7507  0.9580
   89MOL0     N11932  10.418   4.645   3.560 -0.3290 -0.0443  0.4427
   89MOL0     C11933  10.732   4.346   4.348  1.2439  1.1652  0.2927
   89MOL0     C11934  10.835   4.277   4.292 -0.6130 -0.0003  0.5846
   89MOL0     C11935  11.103   3.978   4.138 -0.1665 -0.5800 -0.0011
   89MOL0     C11936  11.130   3.990   3.999  0.4154  0.5995  0.2114
   89MOL0     C11937  11.240   3.933   3.947  0.1714 -0.2344  0.6082
   89MOL0     C11938  11.336   3.867   4.028  0.7858  0.7031 -0.2114
   89MOL0     O11939  11.454   3.831   3.978 -0.3112  1.0585  0.5234
   89MOL0     C11940  11.547   3.941   3.981  0.2267  1.1916 -0.1420
   89MOL0     C11941  11.690   3.893   3.975 -0.3411 -0.3062  0.9277
   89MOL0     C11942  11.772   4.010   3.927 -1.3992  0.0791  0.1441
   89MOL0     C11943  11.919   3.962   3.923 -1.1592  0.4831 -0.7561
   89MOL0     C11944  12.023   4.059   3.893 -0.5377 -0.1946 -0.3841
   89MOL0     C11945  12.115   4.137   3.872  0.4648 -0.0098  0.3913
   89MOL0     C11946  11.311   3.857   4.166  0.1476  0.3588  0.7051
   89MOL0     C11947  11.197   3.915   4.221 -0.3196  0.1165  0.2463
   89MOL0     H11948  10.689   4.136   4.016 -2.3565 -2.6086  1.6723
   89MOL0     H11949  10.493   4.286   4.106 -0.7522  1.5743  1.3595
   89MOL0     H11950  10.533   4.558   4.452 -2.4680  0.2508 -0.9024
   89MOL0     H11951  10.591   4.583   4.293  0.4717 -1.1926 -0.4232
   89MOL0     H11952  10.298   4.526   4.382 -3.4920  1.9136  0.2155
   89MOL0     H11953  10.366   4.693   4.388  1.5051  0.6344 -1.5831
   89MOL0     H11954  10.409   4.631   4.121  1.8811 -3.0192  1.1551
   89MOL0     H11955  10.284   4.523   4.136  1.8050  1.1058 -1.2178
   89MOL0     H11956  10.139   4.694   4.253  2.9485 -1.0194  2.0274
   89MOL0     H11957  10.254   4.816   4.173  0.3511 -0.1434 -1.9149
   89MOL0     H11958  10.101   4.591   4.024  0.2160 -0.5177  0.5997
   89MOL0     H11959  10.048   4.764   4.046  1.1859  1.4980 -0.8243
   89MOL0     H11960  10.282   4.819   3.944 -0.0833  0.2232 -0.2224
   89MOL0     H11961  10.295   4.645   3.917 -1.4142 -0.8937  0.7531
   89MOL0     H11962  10.077   4.664   3.783 -0.6237  0.8305 -2.1622
   89MOL0     H11963  10.091   4.838   3.811  1.6208  0.8985  0.3745
   89MOL0     H11964  10.324   4.839   3.686  2.4369 -1.1066 -1.7799
   89MOL0     H11965  10.181   4.801   3.593 -0.2917 -0.7069 -0.0244
   89MOL0     H11966  10.191   4.484   3.740  0.3497  0.7697  1.8330
   89MOL0     H11967  10.456   4.255   3.594 -1.3747 -1.4969 -1.9186
   89MOL0     H11968  10.315   4.266   3.709  2.3933 -1.5971  1.1434
   89MOL0     H11969  10.326   4.225   3.403  0.1734 -1.4526  0.2693
   89MOL0     H11970  10.197   4.307   3.465  2.3722  2.7155  0.0507
   89MOL0     H11971  10.095   4.114   3.579 -2.1951 -1.9739 -2.1819
   89MOL0     H11972  10.261   4.050   3.601 -0.0174  0.3219  0.1507
   89MOL0     H11973  10.118   3.930   3.422  2.3553 -1.8240 -1.1579
   89MOL0     H11974  10.264   4.004   3.339  1.0171  1.9641  0.0153
   89MOL0     H11975  10.105   3.848   3.217  0.2497 -0.6102 -0.0107
   89MOL0     H11976   9.901   3.652   3.105 -0.7511 -0.7218 -2.3516
   89MOL0     H11977   9.957   3.696   2.946  2.0128 -2.0022  0.1806
   89MOL0     H11978  10.073   3.699   3.063  0.3908 -1.2264 -3.3239
   89MOL0     H11979   9.562   3.899   2.652  0.2209 -2.3833 -0.5094
   89MOL0     H11980   9.373   3.800   2.579 -1.1447  1.1190  0.1122
   89MOL0     H11981   9.137   3.779   2.549 -0.7545  0.2040  0.6063
   89MOL0     H11982   9.220   3.629   2.591 -0.2180  0.2466  0.1719
   89MOL0     H11983   8.999   3.529   2.668 -0.6435  0.8096  1.5135
   89MOL0     H11984   8.919   3.674   2.621 -0.6884 -0.7515  0.1154
   89MOL0     H11985   9.076   3.517   2.416  1.2648  2.4048 -2.1963
   89MOL0     H11986   8.988   3.680   2.413 -0.0188  0.3270  1.9776
   89MOL0     H11987   8.845   3.430   2.486 -3.1482 -0.1208 -1.0819
   89MOL0     H11988   8.784   3.586   2.448  0.9699  1.7090 -1.3877
   89MOL0     H11989   8.926   3.383   2.260  1.9342  1.6423 -1.0359
   89MOL0     H11990   8.878   3.550   2.211  2.8477 -1.4278 -1.0112
   89MOL0     H11991   8.652   3.364   2.280 -0.0372 -0.7998 -0.7545
   89MOL0     H11992   8.648   3.521   2.209 -1.8557  0.0952  4.1741
   89MOL0     H11993   8.768   3.278   2.071 -1.9773 -0.3642 -0.6955
   89MOL0     H11994   8.777   3.450   2.011 -2.3143  0.9920 -0.3760
   89MOL0     H11995   8.532   3.464   2.016 -0.8695 -0.8420 -0.0778
   89MOL0     H11996   8.520   3.305   2.088  3.0715 -2.2276 -0.1278
   89MOL0     H11997   9.199   3.815   2.975 -1.1073  0.6405 -0.9974
   89MOL0     H11998   9.416   3.909   3.063 -2.8177  0.1633  0.3284
   89MOL0     H11999   9.713   4.104   3.078 -1.5544 -3.7302 -1.4117
   89MOL0     H12000   9.896   4.230   3.223  2.4708  0.8914  0.6818
   89MOL0     H12001  10.734   4.403   4.440  2.3012  0.5215  0.6904
   89MOL0     H12002  10.938   4.269   4.325 -0.4638 -2.5699 -0.2906
   89MOL0     H12003  11.061   4.030   3.925  1.9239  2.3231 -0.3300
   89MOL0     H12004  11.257   3.901   3.844 -1.2565  1.6551 -0.2844
   89MOL0     H12005  11.516   3.994   3.891  0.6585  1.6737 -0.0145
   89MOL0     H12006  11.544   4.015   4.062  0.9387  1.1347 -0.0578
   89MOL0     H12007  11.690   3.810   3.904 -2.0586  1.4649 -1.3313
   89MOL0     H12008  11.725   3.856   4.071 -0.2955  0.8317  1.3628
   89MOL0     H12009  11.757   4.093   3.997 -0.6174  0.8395 -0.5598
   89MOL0     H12010  11.738   4.048   3.830  0.0584  0.8605 -0.0870
   89MOL0     H12011  11.931   3.875   3.857 -0.5725  1.5372 -2.1010
   89MOL0     H12012  11.956   3.916   4.014  0.3430 -1.5621 -2.3027
   89MOL0     H12013  12.190   4.206   3.842  0.0670 -0.4676 -1.8014
   89MOL0     H12014  11.382   3.822   4.241 -1.2216 -0.5490  1.6150
   89MOL0     H12015  11.168   3.898   4.324  1.2540 -0.8061  0.5726
   90MOL0     O12016   2.850   7.617  10.981 -0.2467 -0.1464  0.3983
   90MOL0     C12017   2.948   7.581  10.907  0.1083 -0.1697  0.1132
   90MOL0     O12018   2.984   7.635  10.781  0.0597  0.0589 -0.1754
   90MOL0     C12019   2.912   7.722  10.708 -0.2484 -0.6191 -0.1843
   90MOL0     C12020   2.982   7.780  10.598  0.1448 -0.6316 -0.6052
   90MOL0     C12021   2.921   7.888  10.530 -0.2976  0.6883  0.3217
   90MOL0     C12022   2.796   7.935  10.562  0.4051  0.3417 -0.1854
   90MOL0     O12023   2.738   8.044  10.506 -0.5272 -0.1581  0.0242
   90MOL0     C12024   2.733   8.054  10.363 -0.6985  1.1501  0.2686
   90MOL0     C12025   2.647   8.147  10.294  0.0029  0.1114 -0.7570
   90MOL0     C12026   2.493   8.147  10.336 -0.2626 -0.3554  0.0718
   90MOL0     C12027   2.411   8.044  10.263  0.2948  1.2253  0.0952
   90MOL0     C12028   2.263   8.052  10.326  0.2962  0.3867  1.4705
   90MOL0     C12029   2.194   8.188  10.306 -0.6149  0.4515 -0.8770
   90MOL0     C12030   2.034   8.176  10.312  0.8766 -0.2093  0.9611
   90MOL0     C12031   1.966   8.133  10.447  0.7651 -0.5105  0.1277
   90MOL0     N12032   1.826   8.099  10.422  0.0877  1.0462  0.1134
   90MOL0     C12033   1.708   8.153  10.477 -0.2430  0.3712 -0.2950
   90MOL0     C12034   1.604   8.081  10.422 -0.6474  0.4788 -0.0100
   90MOL0     C12035   1.455   8.104  10.458  1.7596  0.3234  0.0648
   90MOL0     C12036   1.386   8.153  10.333  0.4535  0.0458 -0.0632
   90MOL0     C12037   1.241   8.184  10.365 -0.2419 -0.0742  0.1770
   90MOL0     C12038   1.177   8.259  10.245  0.2250 -0.1192  0.5161
   90MOL0     O12039   1.036   8.244  10.234  0.8184 -0.2603 -0.3193
   90MOL0     C12040   0.950   8.306  10.317  0.1297  0.9656  0.4712
   90MOL0     C12041   0.817   8.306  10.284 -0.2424 -0.6746 -0.6322
   90MOL0     C12042   0.718   8.372  10.352  0.4054 -1.0643 -0.2702
   90MOL0     C12043   0.581   8.362  10.295 -0.2708 -0.2793  0.0980
   90MOL0     C12044   0.747   8.441  10.475  0.0023  1.0328  1.6365
   90MOL0     C12045   0.646   8.499  10.562  0.1450 -0.0939  0.8543
   90MOL0     O12046   0.690   8.578  10.661 -0.2837 -0.1635 -0.4979
   90MOL0     C12047   0.600   8.640  10.740 -0.0012 -0.1000 -0.3170
   90MOL0     C12048   0.532   8.581  10.849 -0.8481  0.7965  0.7210
   90MOL0     C12049   0.447   8.652  10.928 -0.9633 -0.3386  0.0743
   90MOL0     C12050   0.437   8.787  10.909  0.2163  0.1601  0.8765
   90MOL0     O12051   0.345   8.853  10.990  1.1784 -0.7287  0.3511
   90MOL0     C12052   0.206   8.821  10.956  0.7091 -0.7874  0.6108
   90MOL0     C12053   0.126   8.884  11.061  0.8389  0.2008 -1.2878
   90MOL0     C12054   0.118   8.805  11.191  0.1143  0.3653 -0.6946
   90MOL0     C12055  -0.005   8.834  11.272  0.4493 -0.4649  0.6587
   90MOL0     C12056   0.020   8.782  11.409 -0.0307 -0.1443  0.2256
   90MOL0     C12057  -0.084   8.818  11.509  0.1699 -0.8158  0.5404
   90MOL0     C12058  -0.235   8.802  11.462  0.6995  0.0595  0.8436
   90MOL0     C12059  -0.331   8.822  11.575  1.0690  0.1399 -0.3915
   90MOL0    Cl12060  -0.306   8.701  11.706 -0.2026 -0.0616  0.6015
   90MOL0     C12061   0.511   8.856  10.804 -0.4512  0.6318  0.1610
   90MOL0     C12062   0.592   8.774  10.715 -0.0189 -0.7049  0.1773
   90MOL0     O12063   0.530   8.474  10.542  0.6939 -0.3438  0.5020
   90MOL0     C12064   0.882   8.441  10.516 -1.2788 -0.0311  0.1961
   90MOL0     C12065   0.980   8.376  10.435  0.2590 -0.1408  0.0947
   90MOL0     N12066   1.658   7.991  10.328  0.5552  0.3008  0.1292
   90MOL0     N12067   1.790   7.987  10.337  0.0839 -0.0233  0.2755
   90MOL0     C12068   2.725   7.874  10.661  0.4863  0.5190 -0.3817
   90MOL0     C12069   2.781   7.767  10.736 -0.0344 -1.0506 -0.3158
   90MOL0     C12070   3.031   7.463  10.954  0.0166 -0.4776 -0.6376
   90MOL0     C12071   3.168   7.460  10.922  0.0837 -0.3148  0.2056
   90MOL0     C12072   3.252   7.354  10.954 -0.9662  0.1455  0.3602
   90MOL0     C12073   3.204   7.245  11.028 -0.3052  0.3208  0.4316
   90MOL0     O12074   3.287   7.145  11.050 -0.0640 -0.0995  0.0172
   90MOL0     C12075   3.226   7.021  11.089 -0.7369 -0.9263  0.2907
   90MOL0     C12076   3.326   6.904  11.073  0.2996 -0.5800  0.6672
   90MOL0     C12077   3.273   6.762  11.115 -0.8202 -0.7765  0.7067
   90MOL0     C12078   3.139   6.728  11.037  1.1305  1.0607  0.4181
   90MOL0     C12079   3.024   6.773  11.122 -0.3970  0.7651 -0.4429
   90MOL0     C12080   2.936   6.811  11.194  0.0303  0.5404 -0.5230
   90MOL0     C12081   3.073   7.252  11.067 -0.1880  0.5356  0.3236
   90MOL0     C12082   2.990   7.369  11.047 -0.1910  0.7300  0.2672
   90MOL0     H12083   3.081   7.744  10.574  1.5037  0.0500  3.2741
   90MOL0     H12084   2.982   7.933  10.452  2.3938 -0.5894  1.5603
   90MOL0     H12085   2.835   8.065  10.326  0.3064 -1.6112  1.9274
   90MOL0     H12086   2.702   7.952  10.337  1.4954  0.7568 -1.0961
   90MOL0     H12087   2.687   8.240  10.334  1.0487 -1.8327  3.2519
   90MOL0     H12088   2.656   8.130  10.186 -0.4757  1.6656 -1.0708
   90MOL0     H12089   2.478   8.118  10.441 -2.1212 -3.5489 -0.9448
   90MOL0     H12090   2.449   8.246  10.322  1.7138  1.0751  3.0141
   90MOL0     H12091   2.406   8.068  10.156  1.3103  3.5926  0.5079
   90MOL0     H12092   2.465   7.951  10.280  1.8395  2.3069  1.4251
   90MOL0     H12093   2.198   7.978  10.278 -2.1505  1.8342  2.3572
   90MOL0     H12094   2.260   8.031  10.433 -1.3302  0.5828  1.4846
   90MOL0     H12095   2.222   8.251  10.391  0.5051  0.1793 -1.0348
   90MOL0     H12096   2.228   8.234  10.212  1.0887  1.1955  0.0619
   90MOL0     H12097   1.986   8.266  10.272 -2.5988 -2.6854 -1.0256
   90MOL0     H12098   2.003   8.103  10.237  1.0571  1.3073 -0.6628
   90MOL0     H12099   1.974   8.209  10.526 -1.0723 -0.8654  0.7147
   90MOL0     H12100   2.024   8.047  10.482  1.1219 -0.9997 -1.5977
   90MOL0     H12101   1.699   8.229  10.554  1.1268 -0.7203  0.9943
   90MOL0     H12102   1.404   8.014  10.495  1.1560  1.5712  2.4357
   90MOL0     H12103   1.455   8.173  10.543  1.7452 -2.7509  2.7745
   90MOL0     H12104   1.400   8.067  10.267  1.0726 -0.3172  0.5309
   90MOL0     H12105   1.438   8.246  10.308 -0.4083  0.9288  1.2890
   90MOL0     H12106   1.231   8.229  10.464 -0.8466  0.2804 -0.0462
   90MOL0     H12107   1.189   8.089  10.379 -2.3837  1.1512  0.9904
   90MOL0     H12108   1.207   8.208  10.153  0.9877  2.1994 -0.5864
   90MOL0     H12109   1.217   8.360  10.231  2.0112 -0.9824 -0.9908
   90MOL0     H12110   0.792   8.265  10.187 -1.8786 -1.4331  0.0729
   90MOL0     H12111   0.522   8.302  10.365 -0.9754 -0.6552 -0.7888
   90MOL0     H12112   0.538   8.463  10.292  2.5128  1.0726  1.8433
   90MOL0     H12113   0.576   8.304  10.202  0.9508 -0.2874  0.0220
   90MOL0     H12114   0.564   8.482  10.880  2.0366  1.5478  0.4927
   90MOL0     H12115   0.401   8.610  11.018 -2.9835  1.2828 -0.1217
   90MOL0     H12116   0.172   8.871  10.865 -0.5109  0.7782  1.8412
   90MOL0     H12117   0.193   8.713  10.947  0.4215 -0.5486 -3.7246
   90MOL0     H12118   0.155   8.984  11.095 -2.3372  1.1737 -1.0526
   90MOL0     H12119   0.031   8.907  11.011  1.9438 -0.2236 -3.7097
   90MOL0     H12120   0.202   8.838  11.253  0.2212 -1.2993  0.0924
   90MOL0     H12121   0.136   8.697  11.187  0.4648  0.3462  0.8426
   90MOL0     H12122  -0.022   8.942  11.265  0.9495 -0.3445  1.1726
   90MOL0     H12123  -0.093   8.781  11.236  0.0164 -0.1557  1.2443
   90MOL0     H12124   0.110   8.820  11.456  0.1545  0.0413 -0.2655
   90MOL0     H12125   0.038   8.676  11.391  0.5410  0.2893 -2.1941
   90MOL0     H12126  -0.054   8.752  11.591  0.9433 -1.1337  0.0130
   90MOL0     H12127  -0.072   8.921  11.542  0.2923  0.1667 -2.3237
   90MOL0     H12128  -0.248   8.700  11.423  0.2657  1.2630 -2.5105
   90MOL0     H12129  -0.262   8.874  11.384 -0.2967  0.8798  1.9190
   90MOL0     H12130  -0.435   8.819  11.542  0.7088  3.3869  0.1030
   90MOL0     H12131  -0.325   8.920  11.622 -0.5719  0.1481 -0.1545
   90MOL0     H12132   0.520   8.961  10.781  1.4530  0.4602 -0.0404
   90MOL0     H12133   0.636   8.827  10.631  2.4925  0.6629  2.2189
   90MOL0     H12134   0.903   8.503  10.603  4.0004 -1.3205  0.2194
   90MOL0     H12135   1.082   8.380  10.473 -0.1902 -1.4839  1.5791
   90MOL0     H12136   2.622   7.901  10.684  0.8271  0.3716  1.4077
   90MOL0     H12137   2.719   7.727  10.817  0.8329 -1.9281 -0.0642
   90MOL0     H12138   3.212   7.542  10.866  0.7118 -1.3322 -0.8148
   90MOL0     H12139   3.351   7.348  10.911 -0.9335 -4.1158  0.6120
   90MOL0     H12140   3.206   7.030  11.196  2.0249 -1.9466  0.9644
   90MOL0     H12141   3.135   7.001  11.031 -0.0197 -1.9682 -0.5001
   90MOL0     H12142   3.406   6.931  11.142  0.7781  1.9403 -0.7655
   90MOL0     H12143   3.355   6.892  10.968 -0.1996 -1.0539  0.5790
   90MOL0     H12144   3.263   6.754  11.224  0.4464  0.8296  0.9827
   90MOL0     H12145   3.343   6.685  11.084  0.0775 -0.0418  0.8557
   90MOL0     H12146   3.133   6.621  11.015 -1.0069  0.3230  3.8057
   90MOL0     H12147   3.125   6.777  10.940  0.1262  0.4622  0.2558
   90MOL0     H12148   2.862   6.849  11.261 -0.3876  0.4497 -0.9251
   90MOL0     H12149   3.013   7.169  11.103 -1.4864  0.1169 -2.5542
   90MOL0     H12150   2.889   7.387  11.082 -0.3628 -1.0890  0.7920
   91MOL0     O12151   7.608   7.649   1.337  0.3123 -0.7383 -0.5442
   91MOL0     C12152   7.700   7.587   1.391 -0.6724 -0.6748 -0.1770
   91MOL0     O12153   7.684   7.463   1.431 -0.1348 -0.2030 -0.5173
   91MOL0     C12154   7.734   7.425   1.551  0.3860  0.4218 -0.1753
   91MOL0     C12155   7.796   7.303   1.562 -0.0956  0.3167  0.0841
   91MOL0     C12156   7.859   7.264   1.678  0.5320 -0.5481  0.3218
   91MOL0     C12157   7.828   7.334   1.803 -0.5620  0.4641 -0.1779
   91MOL0     O12158   7.868   7.300   1.928 -0.1218  0.5187  0.1431
   91MOL0     C12159   7.883   7.156   1.953 -0.4129 -0.1582  0.0962
   91MOL0     C12160   7.898   7.138   2.100 -1.0738 -0.1901  0.4559
   91MOL0     C12161   8.017   7.210   2.149 -0.7721 -0.3397 -0.4704
   91MOL0     C12162   8.049   7.168   2.288 -0.4419  0.2959  0.3231
   91MOL0     C12163   8.179   7.236   2.334  0.4237 -0.8172 -0.2390
   91MOL0     C12164   8.164   7.382   2.355  0.5527  0.6500 -0.1451
   91MOL0     C12165   8.293   7.424   2.426 -0.3547 -0.4897  0.1240
   91MOL0     C12166   8.313   7.570   2.445 -0.4294 -0.3717 -0.4526
   91MOL0     N12167   8.212   7.633   2.533 -0.7366 -0.6000 -0.2350
   91MOL0     C12168   8.238   7.649   2.661 -0.8395  0.1032 -0.2860
   91MOL0     C12169   8.131   7.712   2.706  0.7359 -0.4707 -0.6607
   91MOL0     C12170   8.103   7.749   2.849  0.0031  0.2466  0.1592
   91MOL0     C12171   8.066   7.888   2.892  0.2881  0.2968 -0.0452
   91MOL0     C12172   8.155   8.003   2.872 -0.4074 -0.3897 -0.1043
   91MOL0     C12173   8.297   7.970   2.908 -0.0630  0.5826  0.5550
   91MOL0     O12174   8.375   8.088   2.902 -0.2878  0.0337  0.5477
   91MOL0     C12175   8.513   8.078   2.928  0.0127  0.7073 -0.0156
   91MOL0     C12176   8.595   8.175   2.890 -0.4652 -1.1341 -0.4816
   91MOL0     C12177   8.736   8.168   2.893  0.9979  0.8042  0.5404
   91MOL0     C12178   8.810   8.266   2.809 -0.0365 -0.1697 -0.5292
   91MOL0     C12179   8.789   8.061   2.973 -0.6473 -0.1307  0.2439
   91MOL0     C12180   8.938   8.052   2.996  0.3569  0.5855  0.4881
   91MOL0     O12181   9.027   8.103   2.911  0.2183 -0.5031 -0.1065
   91MOL0     C12182   9.170   8.098   2.919 -0.1251 -0.1446 -0.2493
   91MOL0     C12183   9.245   8.037   3.030  0.2486  0.2693 -0.0404
   91MOL0     C12184   9.382   8.037   3.032 -0.3731  0.2319 -0.6418
   91MOL0     C12185   9.454   8.104   2.932 -0.0990  0.2398  0.0372
   91MOL0     O12186   9.594   8.106   2.949  0.5481 -0.1831  0.2813
   91MOL0     C12187   9.676   8.222   2.909 -0.2004  0.4861  0.1826
   91MOL0     C12188   9.811   8.156   2.870  0.8267  0.0107  0.2373
   91MOL0     C12189   9.908   8.191   2.989  0.4385  0.3950 -0.9224
   91MOL0     C12190  10.044   8.130   2.954 -0.7515  0.1012 -0.2819
   91MOL0     C12191  10.128   8.108   3.080  0.3991 -0.6881  0.0215
   91MOL0     C12192  10.068   7.988   3.174 -0.2202  0.2354  0.4680
   91MOL0     C12193  10.129   7.999   3.316 -0.1829  0.5003 -0.0022
   91MOL0     C12194  10.047   7.909   3.403 -0.0571  0.2972  0.8529
   91MOL0    Cl12195  10.054   7.734   3.339 -0.0616  0.0136 -0.1434
   91MOL0     C12196   9.383   8.164   2.826  0.7350 -0.8990  0.0992
   91MOL0     C12197   9.240   8.156   2.821 -1.3463 -0.2865 -0.1928
   91MOL0     O12198   8.956   7.975   3.088 -0.4073  0.1218 -0.3302
   91MOL0     C12199   8.702   7.968   3.026 -0.1600 -0.2460  0.8470
   91MOL0     C12200   8.569   7.971   3.003 -0.3901  0.3374 -0.3155
   91MOL0     N12201   8.040   7.739   2.604 -0.0711  0.0246 -0.9803
   91MOL0     N12202   8.097   7.694   2.492  0.1056 -0.3789  0.4297
   91MOL0     C12203   7.753   7.450   1.791  0.2121 -1.1643 -0.7077
   91MOL0     C12204   7.714   7.502   1.669  0.2522  0.4512 -0.0876
   91MOL0     C12205   7.836   7.655   1.409 -1.1453  1.0949  0.6455
   91MOL0     C12206   7.961   7.582   1.400  0.2745 -0.4207  0.4244
   91MOL0     C12207   8.076   7.654   1.420  0.7949  0.4093  0.2718
   91MOL0     C12208   8.072   7.793   1.445  0.5716  0.2943 -0.6108
   91MOL0     O12209   8.196   7.851   1.486 -0.1857 -0.5920 -0.0266
   91MOL0     C12210   8.208   7.995   1.458  0.4493  0.0490 -0.6938
   91MOL0     C12211   8.356   8.036   1.465 -0.4160  0.3355  1.0124
   91MOL0     C12212   8.415   8.026   1.605  0.1231  0.0060  0.6124
   91MOL0     C12213   8.559   8.073   1.630 -0.4903 -0.1195 -0.2192
   91MOL0     C12214   8.568   8.144   1.760  0.0452 -0.6820 -0.3282
   91MOL0     C12215   8.563   8.169   1.878  0.6607  0.0043 -0.3319
   91MOL0     C12216   7.956   7.864   1.441 -0.7714  0.2583  0.3083
   91MOL0     C12217   7.841   7.793   1.430  0.9738  1.0107  0.0899
   91MOL0     H12218   7.820   7.243   1.475  0.6331  2.0677 -0.9650
   91MOL0     H12219   7.924   7.177   1.673 -0.2464 -1.3696  2.9686
   91MOL0     H12220   7.799   7.096   1.919  0.3931 -1.7252  0.7631
   91MOL0     H12221   7.977   7.116   1.912  0.7193  2.1182  0.2794
   91MOL0     H12222   7.807   7.159   2.156 -1.4815 -2.2411  0.6687
   91MOL0     H12223   7.913   7.030   2.109  0.7093  0.1680  3.0082
   91MOL0     H12224   8.095   7.162   2.089 -0.9415 -0.5977 -0.4853
   91MOL0     H12225   8.008   7.319   2.138 -2.9914 -0.5286 -0.9677
   91MOL0     H12226   7.973   7.191   2.364 -0.1652 -2.9908  1.7587
   91MOL0     H12227   8.061   7.060   2.299 -0.1401  0.3809  0.8618
   91MOL0     H12228   8.194   7.195   2.434  0.7273  0.8537  0.4295
   91MOL0     H12229   8.261   7.201   2.269 -0.0185 -3.3890  0.4724
   91MOL0     H12230   8.178   7.429   2.257  0.8068  2.4493  0.7113
   91MOL0     H12231   8.076   7.404   2.415  1.3967  0.3995  1.2349
   91MOL0     H12232   8.293   7.372   2.522 -0.6747 -0.1309  0.3224
   91MOL0     H12233   8.382   7.397   2.368  0.3570  1.5705  0.1673
   91MOL0     H12234   8.306   7.617   2.347 -1.9140  1.8296  0.6222
   91MOL0     H12235   8.416   7.579   2.482 -1.4758 -4.5239  4.6574
   91MOL0     H12236   8.323   7.603   2.711 -1.4094 -1.7307 -0.8979
   91MOL0     H12237   8.018   7.685   2.872  1.3081 -1.1522  1.3175
   91MOL0     H12238   8.195   7.719   2.900  1.2184  0.5503 -1.7188
   91MOL0     H12239   8.027   7.873   2.994 -1.3522  0.7130 -0.5836
   91MOL0     H12240   7.972   7.913   2.841 -1.3681 -0.3069  2.4925
   91MOL0     H12241   8.124   8.092   2.926  0.3628 -0.2844  0.1826
   91MOL0     H12242   8.159   8.037   2.768  2.9082  4.1970  1.1950
   91MOL0     H12243   8.345   7.898   2.842  2.6038  3.7549 -1.2965
   91MOL0     H12244   8.299   7.915   3.003  1.1336 -0.4402 -0.0340
   91MOL0     H12245   8.531   8.242   2.833  1.2419  0.7334 -0.3197
   91MOL0     H12246   8.732   8.329   2.764 -2.1083 -2.3772 -0.2739
   91MOL0     H12247   8.873   8.343   2.855 -0.4536 -0.7187  1.0350
   91MOL0     H12248   8.857   8.220   2.722  1.4194  1.0539 -0.4361
   91MOL0     H12249   9.187   7.985   3.106  1.7854  0.4377  1.2819
   91MOL0     H12250   9.441   7.982   3.105 -2.6612 -2.2261 -0.4461
   91MOL0     H12251   9.637   8.271   2.818  0.1065  0.6748  0.1506
   91MOL0     H12252   9.694   8.304   2.979  1.2208  0.3447  0.0089
   91MOL0     H12253   9.792   8.049   2.859 -0.2962  0.3696 -1.7215
   91MOL0     H12254   9.838   8.193   2.771 -1.0428  0.3137 -0.2055
   91MOL0     H12255   9.872   8.161   3.088  1.3733  1.9633 -0.0565
   91MOL0     H12256   9.931   8.295   3.016  0.8746 -0.5717  3.2341
   91MOL0     H12257  10.036   8.031   2.909 -0.2391 -1.6152  3.1402
   91MOL0     H12258  10.087   8.203   2.884 -1.6469  2.3367  1.3890
   91MOL0     H12259  10.138   8.200   3.137 -2.2267 -0.5067  0.3300
   91MOL0     H12260  10.229   8.086   3.044  0.2021  0.2417 -1.1740
   91MOL0     H12261   9.960   7.978   3.187  0.1886 -4.2592  1.9522
   91MOL0     H12262  10.101   7.898   3.123 -0.2733  1.2938 -1.5611
   91MOL0     H12263  10.114   8.102   3.351 -0.6540 -0.4046  2.6250
   91MOL0     H12264  10.234   7.972   3.329  0.2687  1.6617 -1.0471
   91MOL0     H12265   9.942   7.941   3.401 -0.1531  0.0257 -2.1268
   91MOL0     H12266  10.086   7.911   3.506  3.0873  2.0086 -0.2271
   91MOL0     H12267   9.441   8.209   2.746 -0.1613 -0.6609 -0.4342
   91MOL0     H12268   9.176   8.202   2.746 -0.9208 -1.2587 -1.1842
   91MOL0     H12269   8.744   7.890   3.089  1.3006  0.2483  0.5356
   91MOL0     H12270   8.507   7.898   3.054  0.0972 -0.5717 -1.0002
   91MOL0     H12271   7.739   7.496   1.889 -0.2498 -0.1165 -1.2545
   91MOL0     H12272   7.663   7.598   1.659  0.5074  0.4618 -1.4668
   91MOL0     H12273   7.981   7.479   1.372 -0.6823 -0.6840  0.6736
   91MOL0     H12274   8.173   7.608   1.405  1.7710  2.3987  0.2283
   91MOL0     H12275   8.149   8.025   1.371  0.9787  1.0154 -0.7300
   91MOL0     H12276   8.160   8.053   1.537  0.9769  0.1939 -0.4731
   91MOL0     H12277   8.364   8.135   1.418  0.5839 -1.4710 -3.0792
   91MOL0     H12278   8.406   7.959   1.405 -2.1765 -0.0581 -0.0022
   91MOL0     H12279   8.409   7.918   1.622 -1.5945  0.2144  1.5311
   91MOL0     H12280   8.354   8.077   1.680  1.2745 -0.6902  2.0974
   91MOL0     H12281   8.593   8.148   1.559  4.1522 -1.8979 -0.1895
   91MOL0     H12282   8.633   7.993   1.629 -0.1016  0.1114  2.5529
   91MOL0     H12283   8.550   8.187   1.983  1.1894 -0.9564 -0.0864
   91MOL0     H12284   7.964   7.971   1.456  1.3787  0.1324  0.3476
   91MOL0     H12285   7.748   7.850   1.430 -1.5095 -2.7200 -0.0453
   92MOL0     O12286  10.973   2.790   9.004 -0.0539  0.2501 -0.1549
   92MOL0     C12287  10.988   2.913   8.993 -0.0458  0.2721  0.1896
   92MOL0     O12288  10.888   3.006   8.998  0.4343 -0.0334 -0.0843
   92MOL0     C12289  10.760   2.970   9.045 -0.4191  0.3516  0.4254
   92MOL0     C12290  10.721   3.017   9.171 -0.5620  0.0572  0.0232
   92MOL0     C12291  10.598   2.975   9.229  0.1827  0.2631  0.3637
   92MOL0     C12292  10.510   2.898   9.158  0.2428  0.3782  0.7052
   92MOL0     O12293  10.394   2.849   9.215 -0.4299  0.3887  0.4213
   92MOL0     C12294  10.348   2.918   9.332 -0.4544  0.3610  0.4279
   92MOL0     C12295  10.198   2.906   9.338  0.9700 -1.2502  0.1439
   92MOL0     C12296  10.114   2.981   9.234 -0.2355  0.0298  1.2406
   92MOL0     C12297   9.973   2.923   9.203 -0.5123  0.6632 -0.5215
   92MOL0     C12298   9.880   3.022   9.133  0.2746  0.5656 -1.0306
   92MOL0     C12299   9.752   2.955   9.078 -0.3010 -0.0543 -0.2510
   92MOL0     C12300   9.656   3.068   9.048  0.9183 -0.6655 -0.4328
   92MOL0     C12301   9.546   3.011   8.970  0.5160 -0.6625 -1.0163
   92MOL0     N12302   9.456   3.133   8.932 -0.0312 -0.6785 -1.2215
   92MOL0     C12303   9.455   3.199   8.809  0.5673  0.2443 -0.0864
   92MOL0     C12304   9.342   3.273   8.806 -0.7326  0.0632 -0.0038
   92MOL0     C12305   9.288   3.369   8.701 -0.2567  0.1251  0.1494
   92MOL0     C12306   9.328   3.339   8.553 -0.2392 -0.0372 -1.0826
   92MOL0     C12307   9.259   3.443   8.447 -0.0646  1.0433 -0.9881
   92MOL0     C12308   9.108   3.429   8.451  0.6830 -0.3067  0.1950
   92MOL0     O12309   9.047   3.444   8.318 -0.0358 -0.1190 -0.3259
   92MOL0     C12310   8.908   3.439   8.310  1.0423 -1.3221  0.5105
   92MOL0     C12311   8.847   3.432   8.187 -0.2321 -0.3616 -0.5087
   92MOL0     C12312   8.709   3.444   8.161 -0.5774 -0.3594  0.5823
   92MOL0     C12313   8.663   3.442   8.016 -0.5867  0.6835 -0.3692
   92MOL0     C12314   8.621   3.443   8.269 -0.3275  0.0475  0.5277
   92MOL0     C12315   8.478   3.428   8.258  1.0547  0.5725  0.1969
   92MOL0     O12316   8.429   3.336   8.353 -0.4094  0.2578 -0.2216
   92MOL0     C12317   8.311   3.363   8.412  0.1915  0.2034 -0.6004
   92MOL0     C12318   8.239   3.488   8.409 -0.1805 -0.1905 -0.7971
   92MOL0     C12319   8.110   3.489   8.465 -0.3444  0.4936  0.2596
   92MOL0     C12320   8.055   3.374   8.533  0.0277 -0.7986 -0.4077
   92MOL0     O12321   7.923   3.371   8.566  0.3850 -0.0369 -0.5962
   92MOL0     C12322   7.834   3.275   8.512  0.5479 -0.3496  0.1610
   92MOL0     C12323   7.704   3.350   8.495 -0.8064  0.2431 -0.3757
   92MOL0     C12324   7.729   3.455   8.381 -0.7399 -0.5321 -0.3056
   92MOL0     C12325   7.589   3.519   8.324 -1.0799 -0.6453  0.2790
   92MOL0     C12326   7.624   3.631   8.232 -0.4240 -0.4921  0.2426
   92MOL0     C12327   7.508   3.649   8.139 -0.2846 -0.2580 -0.4050
   92MOL0     C12328   7.385   3.723   8.200 -0.0536 -1.1546  0.7919
   92MOL0     C12329   7.245   3.688   8.134  0.9569 -0.6249 -0.8459
   92MOL0    Cl12330   7.201   3.525   8.188  0.5285  0.2331 -0.2870
   92MOL0     C12331   8.132   3.262   8.542 -0.5556  0.3998 -0.2047
   92MOL0     C12332   8.253   3.260   8.485  0.3375  0.1263 -0.2957
   92MOL0     O12333   8.411   3.487   8.170 -0.1257 -0.1766  0.5117
   92MOL0     C12334   8.679   3.444   8.395 -0.0393 -1.3425 -1.0446
   92MOL0     C12335   8.815   3.445   8.413 -0.0842 -0.0035 -0.2428
   92MOL0     N12336   9.284   3.258   8.937 -0.3270 -0.0978  0.6349
   92MOL0     N12337   9.358   3.178   9.010  0.2914 -0.2380 -0.7312
   92MOL0     C12338  10.556   2.845   9.028 -0.8226 -0.3000  0.3118
   92MOL0     C12339  10.672   2.884   8.980 -0.0856 -0.5280  1.2768
   92MOL0     C12340  11.136   2.947   8.973  0.6101  0.3643  0.3991
   92MOL0     C12341  11.220   2.842   8.915 -0.4927 -0.4522  0.1573
   92MOL0     C12342  11.356   2.867   8.894  1.1492 -0.2231  0.0565
   92MOL0     C12343  11.412   2.988   8.939  0.6799 -0.1303  0.9330
   92MOL0     O12344  11.549   3.007   8.901  0.2483  0.2563  0.6304
   92MOL0     C12345  11.626   3.106   8.975  0.9609 -0.0219 -0.4804
   92MOL0     C12346  11.645   3.082   9.125 -0.2719 -0.7014 -0.5478
   92MOL0     C12347  11.701   3.217   9.176  0.3479  0.4094 -0.1971
   92MOL0     C12348  11.751   3.212   9.313 -0.2040  0.8485 -1.7265
   92MOL0     C12349  11.864   3.121   9.344 -0.7881  0.0757  0.1471
   92MOL0     C12350  11.960   3.047   9.355 -0.8399 -0.0867  0.5777
   92MOL0     C12351  11.335   3.079   9.013 -0.9423 -0.7513  0.6915
   92MOL0     C12352  11.195   3.062   9.032 -0.4318 -0.6068 -0.4601
   92MOL0     H12353  10.784   3.088   9.223  1.8851 -0.6449 -1.7983
   92MOL0     H12354  10.577   3.006   9.331  2.5443  1.8866  0.4331
   92MOL0     H12355  10.407   2.873   9.412  1.6144 -0.1053 -1.2467
   92MOL0     H12356  10.377   3.024   9.337 -0.1659  0.2478  1.3961
   92MOL0     H12357  10.177   2.799   9.327 -4.3569 -0.3623 -1.1611
   92MOL0     H12358  10.157   2.929   9.437  2.0008 -0.3219  0.3707
   92MOL0     H12359  10.101   3.084   9.270  0.7129  1.8339 -2.9656
   92MOL0     H12360  10.175   2.992   9.143 -0.6811  3.0402  1.1883
   92MOL0     H12361   9.997   2.834   9.144 -2.1232  0.3941 -0.8158
   92MOL0     H12362   9.926   2.887   9.295 -3.1315  0.3433 -1.8819
   92MOL0     H12363   9.852   3.097   9.208 -3.9339 -1.0203 -0.7236
   92MOL0     H12364   9.941   3.068   9.055  2.2154  0.2338  0.2214
   92MOL0     H12365   9.757   2.898   8.985 -2.3167 -0.6943 -0.0250
   92MOL0     H12366   9.698   2.889   9.146 -0.2350 -0.5438 -0.6729
   92MOL0     H12367   9.618   3.116   9.139  1.6611 -0.0447 -0.4411
   92MOL0     H12368   9.711   3.145   8.993  1.7508 -0.6542  0.3888
   92MOL0     H12369   9.492   2.955   9.047 -0.8732  2.2422  0.2600
   92MOL0     H12370   9.577   2.948   8.886  0.1884 -2.3361  0.0566
   92MOL0     H12371   9.531   3.185   8.731  1.9434  1.2768  1.0127
   92MOL0     H12372   9.180   3.372   8.711 -0.6510 -2.3106 -2.3832
   92MOL0     H12373   9.321   3.467   8.737  0.2770 -0.8784  2.6944
   92MOL0     H12374   9.288   3.239   8.534  0.2579 -0.7342  1.2904
   92MOL0     H12375   9.436   3.327   8.550 -0.3190 -1.5080  0.4184
   92MOL0     H12376   9.302   3.412   8.351 -0.6486 -0.1125 -0.8976
   92MOL0     H12377   9.289   3.544   8.477 -2.4513  1.5504 -0.1039
   92MOL0     H12378   9.060   3.503   8.516  0.3128 -0.4474  0.0871
   92MOL0     H12379   9.069   3.332   8.481  1.9105 -0.4758  1.2945
   92MOL0     H12380   8.910   3.433   8.098  0.4066 -2.6291 -0.1309
   92MOL0     H12381   8.621   3.533   7.973  2.2117  2.2863  0.0348
   92MOL0     H12382   8.746   3.408   7.953 -2.1977  2.3928 -3.6723
   92MOL0     H12383   8.590   3.361   8.009  0.4463 -0.1463 -2.1587
   92MOL0     H12384   8.264   3.574   8.348  2.9538  0.1659  0.8201
   92MOL0     H12385   8.046   3.573   8.441 -2.5522 -1.3453 -0.7017
   92MOL0     H12386   7.858   3.221   8.420  0.9173  0.2296 -0.0930
   92MOL0     H12387   7.807   3.204   8.590 -0.5227  0.2294  0.3324
   92MOL0     H12388   7.625   3.278   8.473 -1.3869  0.4414  0.9928
   92MOL0     H12389   7.667   3.388   8.590  0.6862 -0.5049  0.5471
   92MOL0     H12390   7.781   3.410   8.296  0.0243 -2.1781  0.9655
   92MOL0     H12391   7.792   3.533   8.425 -2.6619 -0.5675  2.7807
   92MOL0     H12392   7.548   3.443   8.257  1.8075 -0.1129 -2.2935
   92MOL0     H12393   7.521   3.545   8.406 -0.0101  0.8398  0.7404
   92MOL0     H12394   7.715   3.608   8.177 -1.0528  1.6764 -1.8786
   92MOL0     H12395   7.638   3.721   8.293 -0.5741 -0.5531  0.3690
   92MOL0     H12396   7.540   3.718   8.060  0.3719  0.0684  0.1367
   92MOL0     H12397   7.465   3.555   8.104  2.3752 -2.0812  0.8350
   92MOL0     H12398   7.397   3.831   8.186  1.3796 -1.0228  2.5937
   92MOL0     H12399   7.376   3.713   8.308 -2.2940 -2.1259  0.5693
   92MOL0     H12400   7.251   3.688   8.025 -4.4360  1.6562 -1.4267
   92MOL0     H12401   7.171   3.765   8.154 -0.7900 -1.8591 -2.2521
   92MOL0     H12402   8.092   3.174   8.591  1.1076 -0.5601 -0.4774
   92MOL0     H12403   8.295   3.161   8.478 -5.2416 -2.5362 -1.0834
   92MOL0     H12404   8.617   3.442   8.485 -1.1028 -2.4601 -1.7792
   92MOL0     H12405   8.851   3.458   8.514  0.5562  2.9192 -0.7715
   92MOL0     H12406  10.500   2.774   8.968 -3.7947  3.7510 -2.2020
   92MOL0     H12407  10.702   2.839   8.885 -0.6494 -3.6975  2.4741
   92MOL0     H12408  11.182   2.750   8.872 -3.2796  0.0035  1.4414
   92MOL0     H12409  11.415   2.801   8.831  1.3627  1.6656 -1.8406
   92MOL0     H12410  11.721   3.114   8.921  0.1702 -3.3332 -2.6282
   92MOL0     H12411  11.579   3.202   8.953  1.4303 -0.0708 -1.7785
   92MOL0     H12412  11.717   2.999   9.131 -1.1007 -1.5586 -1.9594
   92MOL0     H12413  11.556   3.051   9.179  1.5148 -3.4356  1.0991
   92MOL0     H12414  11.622   3.289   9.153  1.2385  0.6814 -2.6978
   92MOL0     H12415  11.790   3.247   9.120  0.6694 -0.9817 -0.4580
   92MOL0     H12416  11.660   3.184   9.367 -1.1597  0.1440 -3.6121
   92MOL0     H12417  11.785   3.311   9.345  0.2645 -0.4214  2.2061
   92MOL0     H12418  12.047   2.987   9.373 -1.1470 -0.3895  1.0671
   92MOL0     H12419  11.385   3.163   9.061  1.7314 -1.0409 -1.3545
   92MOL0     H12420  11.129   3.128   9.087 -0.2668  1.6957 -2.8237
   93MOL0     O12421  10.298   9.875   8.966 -0.0803 -0.0048  0.4011
   93MOL0     C12422  10.410   9.840   8.986 -0.0966  0.2146  0.9654
   93MOL0     O12423  10.501   9.900   9.070  0.3927 -0.5645  0.3414
   93MOL0     C12424  10.454  10.011   9.128  0.2173 -0.2906 -0.1491
   93MOL0     C12425  10.531  10.126   9.104  0.1844  0.2088  0.3826
   93MOL0     C12426  10.504  10.243   9.176  0.2671  0.7993 -0.1098
   93MOL0     C12427  10.387  10.249   9.260 -0.3176  0.5978  0.3412
   93MOL0     O12428  10.354  10.347   9.343 -0.2136  0.3370  0.4674
   93MOL0     C12429  10.384  10.479   9.284 -0.2759  0.5610  0.2223
   93MOL0     C12430  10.277  10.577   9.335  0.3472 -0.3271 -0.0476
   93MOL0     C12431  10.269  10.588   9.487  0.9405  0.9041  0.6776
   93MOL0     C12432  10.153  10.702   9.512 -0.4015 -1.1123 -0.7544
   93MOL0     C12433  10.118  10.720   9.660  0.4466 -0.2708 -0.7154
   93MOL0     C12434  10.050  10.594   9.706  0.3108  0.3254  0.8569
   93MOL0     C12435  10.020  10.618   9.852 -0.6166 -0.7612  0.4827
   93MOL0     C12436   9.938  10.513   9.920  0.2634  0.1514  0.6299
   93MOL0     N12437   9.799  10.518   9.880  0.0544  0.5287 -0.5380
   93MOL0     C12438   9.722  10.429   9.945  0.2195 -0.4045 -0.9617
   93MOL0     C12439   9.604  10.451   9.888 -0.1305  0.3981  0.0727
   93MOL0     C12440   9.483  10.370   9.916  0.5942 -0.0733 -0.2176
   93MOL0     C12441   9.356  10.468   9.958 -0.1535  0.7385  0.5412
   93MOL0     C12442   9.310  10.556   9.837  0.7009 -0.6473 -0.1554
   93MOL0     C12443   9.163  10.593   9.837 -0.1313  0.1971 -0.7460
   93MOL0     O12444   9.133  10.676   9.727  0.4809  0.9457 -0.0186
   93MOL0     C12445   8.993  10.691   9.706 -0.6596  0.1925 -0.4593
   93MOL0     C12446   8.966  10.735   9.577  0.5309  0.1872  0.0806
   93MOL0     C12447   8.838  10.779   9.533 -0.4874  0.0201 -1.0226
   93MOL0     C12448   8.826  10.817   9.387  0.0953  0.9521 -0.9045
   93MOL0     C12449   8.729  10.781   9.630 -0.1447  0.2511  0.5389
   93MOL0     C12450   8.595  10.823   9.600 -0.0900 -1.1741 -0.7001
   93MOL0     O12451   8.504  10.742   9.666 -0.2438 -0.6100 -0.3605
   93MOL0     C12452   8.371  10.771   9.649  0.1294 -0.5296 -0.5414
   93MOL0     C12453   8.303  10.779   9.523  0.6726 -0.0722  0.2931
   93MOL0     C12454   8.165  10.804   9.523 -0.3830  0.1171  0.6658
   93MOL0     C12455   8.090  10.831   9.640  0.3354  0.4283  0.3513
   93MOL0     O12456   7.954  10.844   9.637  0.3351  0.0671 -0.3521
   93MOL0     C12457   7.893  10.936   9.719 -0.0345 -0.9770 -0.3868
   93MOL0     C12458   7.808  10.859   9.820 -0.0889  0.7547  0.0663
   93MOL0     C12459   7.751  10.940   9.935 -0.2740 -0.6651  0.8217
   93MOL0     C12460   7.634  10.862  10.008  0.2254 -0.1523  0.2574
   93MOL0     C12461   7.499  10.884   9.961 -0.2495  0.1584  0.1587
   93MOL0     C12462   7.466  10.833   9.817  0.7087  0.1540 -0.1565
   93MOL0     C12463   7.314  10.837   9.789  0.2699  0.5390 -0.2334
   93MOL0     C12464   7.265  10.800   9.640 -1.0710  0.0656  0.5898
   93MOL0    Cl12465   7.315  10.636   9.609 -0.0324  0.1093 -0.4350
   93MOL0     C12466   8.159  10.818   9.763 -0.5230  0.5055 -0.5961
   93MOL0     C12467   8.294  10.786   9.772 -0.6091  0.0537  0.5863
   93MOL0     O12468   8.567  10.903   9.512 -0.5437  0.8616 -0.7145
   93MOL0     C12469   8.762  10.743   9.758  1.0758  0.6224 -0.4939
   93MOL0     C12470   8.888  10.693   9.800 -0.2992 -1.1770 -0.2249
   93MOL0     N12471   9.613  10.551   9.796  1.1269  0.2273  0.0584
   93MOL0     N12472   9.732  10.591   9.794 -0.2001 -0.8358  0.1752
   93MOL0     C12473  10.309  10.133   9.272  0.0984  0.0055  0.4258
   93MOL0     C12474  10.346  10.012   9.216 -0.7579 -0.7587  0.4002
   93MOL0     C12475  10.436   9.706   8.920  0.7444 -0.2402 -0.0389
   93MOL0     C12476  10.339   9.631   8.851  0.1113  0.7039 -0.0932
   93MOL0     C12477  10.368   9.500   8.810  0.1027 -0.5787  0.2278
   93MOL0     C12478  10.491   9.446   8.828  0.2043  0.7888 -0.0831
   93MOL0     O12479  10.529   9.326   8.774  0.3693  0.0026 -0.7697
   93MOL0     C12480  10.438   9.246   8.695 -0.0350 -0.5442  0.1047
   93MOL0     C12481  10.412   9.325   8.555 -0.3577  0.7134  0.6877
   93MOL0     C12482  10.549   9.357   8.479 -0.0716 -0.0000 -0.4884
   93MOL0     C12483  10.619   9.234   8.421  0.4791 -0.5561 -0.4871
   93MOL0     C12484  10.560   9.189   8.293 -0.8380  0.3911 -0.8811
   93MOL0     C12485  10.509   9.162   8.186 -0.0165  0.5776  0.1064
   93MOL0     C12486  10.588   9.518   8.892  0.1654 -0.1667 -0.7977
   93MOL0     C12487  10.562   9.645   8.939 -0.2098 -0.7177 -0.5618
   93MOL0     H12488  10.622  10.123   9.044  1.8790  0.1641  2.8178
   93MOL0     H12489  10.579  10.322   9.173 -0.3932  1.4198 -0.5304
   93MOL0     H12490  10.485  10.506   9.316 -0.0201  1.8501 -1.5084
   93MOL0     H12491  10.380  10.463   9.176 -2.2867 -0.5285  0.4193
   93MOL0     H12492  10.300  10.676   9.296 -1.0198  1.2872  2.9804
   93MOL0     H12493  10.177  10.547   9.304 -0.1716 -2.5683  3.2183
   93MOL0     H12494  10.248  10.490   9.531 -0.6978  1.8283  2.0806
   93MOL0     H12495  10.366  10.613   9.530  1.8337  2.1091 -1.8423
   93MOL0     H12496  10.191  10.795   9.470  0.7288 -2.1606 -2.1669
   93MOL0     H12497  10.059  10.674   9.464 -0.3727 -0.5918 -1.1236
   93MOL0     H12498  10.210  10.721   9.720  2.9613  0.0005 -4.2528
   93MOL0     H12499  10.066  10.814   9.679  0.5534 -0.0082 -1.6601
   93MOL0     H12500   9.966  10.575   9.639  2.3539  3.2263 -2.8747
   93MOL0     H12501  10.116  10.507   9.695 -0.2604 -0.0067 -0.0774
   93MOL0     H12502  10.112  10.629   9.910 -0.6354 -0.5450  0.4732
   93MOL0     H12503   9.962  10.711   9.861 -2.7447 -1.8085 -1.3720
   93MOL0     H12504   9.947  10.532  10.027 -2.0683  0.7005  0.8010
   93MOL0     H12505   9.974  10.411   9.911 -1.3517 -0.4073  0.0489
   93MOL0     H12506   9.753  10.355  10.018  0.6767 -0.4554 -1.2043
   93MOL0     H12507   9.464  10.299   9.836 -1.3158 -1.0030  0.9872
   93MOL0     H12508   9.511  10.310  10.003  0.7957  0.4537  0.0872
   93MOL0     H12509   9.390  10.533  10.040 -0.3818  0.9137  0.4965
   93MOL0     H12510   9.281  10.395   9.988  2.1535 -1.4693  1.2980
   93MOL0     H12511   9.334  10.502   9.745  2.2458  0.1579 -0.2567
   93MOL0     H12512   9.379  10.639   9.821  1.4390 -0.7160  2.2535
   93MOL0     H12513   9.132  10.640   9.931  0.8755 -0.5489 -0.0118
   93MOL0     H12514   9.113  10.495   9.844  0.8678 -0.2212  2.9965
   93MOL0     H12515   9.049  10.728   9.508  0.3368  1.5130 -0.3223
   93MOL0     H12516   8.813  10.924   9.368 -1.8754  0.7279 -1.0483
   93MOL0     H12517   8.906  10.777   9.324 -2.3248 -0.6083 -3.2577
   93MOL0     H12518   8.739  10.762   9.349  1.5140 -1.7427 -0.4337
   93MOL0     H12519   8.349  10.770   9.425 -0.3232  3.0400 -0.5610
   93MOL0     H12520   8.125  10.798   9.422  4.3044  3.9203 -1.8242
   93MOL0     H12521   7.964  11.003   9.769 -1.9001  1.5629 -0.9512
   93MOL0     H12522   7.820  10.996   9.664  1.0727  1.4270  0.6069
   93MOL0     H12523   7.724  10.814   9.765  0.1603  1.7494 -1.1657
   93MOL0     H12524   7.863  10.779   9.870 -0.9792  1.1169  1.6902
   93MOL0     H12525   7.696  11.019   9.883 -0.2731 -1.8824 -1.1263
   93MOL0     H12526   7.820  10.976  10.011 -0.3407  1.0804  0.1047
   93MOL0     H12527   7.662  10.756  10.012  2.2186  0.1189 -2.8824
   93MOL0     H12528   7.633  10.897  10.111 -0.5460  1.4782 -0.2807
   93MOL0     H12529   7.469  10.989   9.965 -0.9709 -0.0677  1.1148
   93MOL0     H12530   7.427  10.850  10.036 -0.3991 -0.8514 -0.4239
   93MOL0     H12531   7.513  10.885   9.733 -0.9664  0.7683 -0.7408
   93MOL0     H12532   7.503  10.730   9.818 -0.2001 -0.1747  0.2328
   93MOL0     H12533   7.269  10.934   9.811  3.4738  2.0649  0.1219
   93MOL0     H12534   7.264  10.779   9.867  0.8559  3.7766  2.8077
   93MOL0     H12535   7.310  10.870   9.568  1.6733 -1.0641  1.0936
   93MOL0     H12536   7.160  10.820   9.616 -0.2772  1.0027 -2.6583
   93MOL0     H12537   8.107  10.815   9.858 -0.6645 -0.6704 -0.6897
   93MOL0     H12538   8.341  10.795   9.869 -0.6190 -0.9001  0.6835
   93MOL0     H12539   8.685  10.740   9.834  1.9417 -0.0818  0.3798
   93MOL0     H12540   8.905  10.669   9.905  2.3539 -0.8910 -0.5214
   93MOL0     H12541  10.225  10.130   9.341  0.0913  2.7788  0.6481
   93MOL0     H12542  10.293   9.921   9.242 -2.0637  0.0685  0.7330
   93MOL0     H12543  10.243   9.673   8.823  2.4717  6.2629 -1.0475
   93MOL0     H12544  10.281   9.447   8.772  0.4178 -0.3012 -0.9183
   93MOL0     H12545  10.489   9.151   8.676 -0.9405 -0.8031 -1.1675
   93MOL0     H12546  10.349   9.229   8.756 -0.4882  0.5344 -0.2292
   93MOL0     H12547  10.359   9.421   8.560 -0.3798  0.9792 -2.4798
   93MOL0     H12548  10.349   9.268   8.486 -1.4486  0.7394  1.6381
   93MOL0     H12549  10.626   9.399   8.545  2.1450 -2.9798 -0.9851
   93MOL0     H12550  10.522   9.433   8.405 -0.7247  0.2225 -0.0341
   93MOL0     H12551  10.635   9.156   8.496 -0.1500 -0.4317 -0.2176
   93MOL0     H12552  10.720   9.269   8.396  0.7102 -1.4333 -0.8042
   93MOL0     H12553  10.482   9.125   8.089  5.0248  0.8416 -1.6848
   93MOL0     H12554  10.690   9.485   8.912  0.6267  1.4994 -0.1974
   93MOL0     H12555  10.637   9.686   9.006 -0.6311 -1.4048  0.3356
   94MOL0     O12556   0.452   8.148   6.280 -0.4236 -0.2584 -0.1933
   94MOL0     C12557   0.545   8.224   6.246 -0.1306  0.6942 -0.0947
   94MOL0     O12558   0.533   8.335   6.164 -0.0071 -0.3037 -0.0768
   94MOL0     C12559   0.416   8.374   6.113 -0.4367  0.5524  0.6235
   94MOL0     C12560   0.339   8.282   6.040 -1.3305  0.3042  0.4936
   94MOL0     C12561   0.209   8.318   5.996  0.5355  0.6353  0.2909
   94MOL0     C12562   0.158   8.447   6.021 -0.0823  0.3667 -0.1950
   94MOL0     O12563   0.037   8.479   5.956  0.4201  0.3583 -0.4947
   94MOL0     C12564  -0.031   8.601   6.002 -0.1487  0.4993  0.7900
   94MOL0     C12565  -0.134   8.636   5.899  0.8503 -0.2248  0.6918
   94MOL0     C12566  -0.087   8.685   5.766 -1.1899 -0.2111  0.7157
   94MOL0     C12567  -0.198   8.756   5.688  0.0383  0.5984 -1.2995
   94MOL0     C12568  -0.140   8.801   5.545  0.2300  0.2094 -0.4751
   94MOL0     C12569  -0.253   8.870   5.472 -0.0786  0.7164  0.6870
   94MOL0     C12570  -0.215   8.950   5.348 -1.5015  0.9572 -0.0549
   94MOL0     C12571  -0.331   9.054   5.302 -0.1132  0.3948 -1.0088
   94MOL0     N12572  -0.453   8.989   5.266  0.1925 -0.1031  0.3320
   94MOL0     C12573  -0.495   8.957   5.133 -0.6141 -0.0544 -0.3689
   94MOL0     C12574  -0.619   8.914   5.155 -0.5139 -0.1399  0.7898
   94MOL0     C12575  -0.716   8.844   5.065 -0.5279  0.7153  0.4796
   94MOL0     C12576  -0.861   8.874   5.090  1.6663 -0.3568 -0.1389
   94MOL0     C12577  -0.935   8.803   5.210  0.2891  0.1997 -0.1597
   94MOL0     C12578  -1.090   8.810   5.206  0.1299  0.0049 -0.0117
   94MOL0     O12579  -1.136   8.918   5.294  0.6815  0.5605 -0.4479
   94MOL0     C12580  -1.271   8.916   5.332  0.4195  0.2431  0.6543
   94MOL0     C12581  -1.339   8.796   5.381 -0.3593 -0.4593 -0.1166
   94MOL0     C12582  -1.476   8.809   5.421 -0.2300  0.0653 -0.7291
   94MOL0     C12583  -1.550   8.684   5.463  0.3416  0.2325 -0.0774
   94MOL0     C12584  -1.542   8.933   5.411  0.0030 -0.4984 -0.7792
   94MOL0     C12585  -1.681   8.961   5.452 -0.9799  0.7006 -0.0632
   94MOL0     O12586  -1.764   9.010   5.353 -0.4019  0.4848 -0.5371
   94MOL0     C12587  -1.888   9.041   5.399 -0.8766  0.3107 -0.0701
   94MOL0     C12588  -1.977   8.933   5.410 -0.2131 -0.1114 -0.6794
   94MOL0     C12589  -2.109   8.948   5.452  0.6903 -0.4825 -0.9428
   94MOL0     C12590  -2.153   9.078   5.466 -0.0285  0.7013 -0.4711
   94MOL0     O12591  -2.286   9.106   5.479  0.0608  0.0818  0.2314
   94MOL0     C12592  -2.379   9.039   5.387  0.6302 -0.4677  0.3871
   94MOL0     C12593  -2.512   9.041   5.458 -0.0647  0.6846  1.1157
   94MOL0     C12594  -2.626   8.979   5.378  0.1881  0.9295  0.3485
   94MOL0     C12595  -2.764   9.025   5.437 -0.1401 -0.1884 -0.5226
   94MOL0     C12596  -2.892   8.971   5.355 -0.3390 -0.3955 -0.3600
   94MOL0     C12597  -3.015   8.965   5.438  0.6207 -0.4848  0.1200
   94MOL0     C12598  -3.136   8.899   5.368  0.4456 -0.5755 -0.0466
   94MOL0     C12599  -3.172   8.970   5.237  0.8736 -0.9574 -0.1755
   94MOL0    Cl12600  -3.324   8.900   5.175 -0.5727  0.1219 -0.2225
   94MOL0     C12601  -2.073   9.185   5.444 -0.5853  0.0419 -0.4103
   94MOL0     C12602  -1.935   9.165   5.416  0.0300  0.4920 -0.6178
   94MOL0     O12603  -1.709   8.951   5.576  0.3444 -0.2689 -0.3279
   94MOL0     C12604  -1.460   9.038   5.375  0.3074 -0.0746  0.3323
   94MOL0     C12605  -1.330   9.038   5.321  1.1715 -0.0556 -0.1067
   94MOL0     N12606  -0.653   8.923   5.290 -0.2108  1.0489  0.3910
   94MOL0     N12607  -0.549   8.964   5.357 -0.6706  0.5050 -0.5426
   94MOL0     C12608   0.235   8.538   6.099 -0.0493  0.1354 -0.7654
   94MOL0     C12609   0.361   8.493   6.150 -0.6156  0.0530  0.1525
   94MOL0     C12610   0.680   8.183   6.284  0.6764 -0.1474 -0.6109
   94MOL0     C12611   0.785   8.272   6.276 -0.4315 -0.4896  0.3265
   94MOL0     C12612   0.914   8.252   6.322  0.2047  0.6518  0.6124
   94MOL0     C12613   0.942   8.129   6.386 -0.2095  0.4932 -0.0096
   94MOL0     O12614   1.070   8.106   6.432 -0.6563 -0.0688  0.3093
   94MOL0     C12615   1.107   8.000   6.524 -0.9410  0.1550  0.2322
   94MOL0     C12616   1.250   8.007   6.573 -0.5404 -0.8353 -0.4539
   94MOL0     C12617   1.274   8.145   6.653  0.7080 -0.2186 -0.2243
   94MOL0     C12618   1.337   8.259   6.572  0.8535 -0.2407  0.3340
   94MOL0     C12619   1.472   8.229   6.543 -0.3297 -0.2148 -0.0674
   94MOL0     C12620   1.592   8.199   6.542 -0.7784  0.6985  0.6780
   94MOL0     C12621   0.836   8.032   6.401  0.0544  0.2796 -0.2080
   94MOL0     C12622   0.711   8.056   6.340  0.9360 -0.5028 -0.6187
   94MOL0     H12623   0.390   8.190   6.014  1.4419  1.5518  1.1426
   94MOL0     H12624   0.143   8.246   5.949 -1.3675  0.0727  3.4921
   94MOL0     H12625  -0.075   8.592   6.102 -1.7790  1.8878  0.2300
   94MOL0     H12626   0.041   8.684   5.996 -2.8077  2.9014  0.2212
   94MOL0     H12627  -0.199   8.552   5.875 -0.3525 -0.0877  3.1897
   94MOL0     H12628  -0.199   8.707   5.952 -2.5501 -3.3294  1.0403
   94MOL0     H12629  -0.002   8.753   5.771 -2.5743  1.8759 -1.4956
   94MOL0     H12630  -0.053   8.601   5.704 -0.2449  1.0780 -0.5735
   94MOL0     H12631  -0.287   8.692   5.677 -0.6959  0.6867  2.7104
   94MOL0     H12632  -0.225   8.846   5.743 -1.9164 -0.0920 -1.0511
   94MOL0     H12633  -0.052   8.865   5.553 -0.6420  1.7520 -2.4352
   94MOL0     H12634  -0.101   8.714   5.492  3.1549 -0.0606  1.8835
   94MOL0     H12635  -0.322   8.789   5.444 -0.9672  1.5585  0.3678
   94MOL0     H12636  -0.308   8.934   5.541 -0.2415  0.1688  1.0726
   94MOL0     H12637  -0.125   9.006   5.377  1.8763 -3.6460 -0.6243
   94MOL0     H12638  -0.178   8.876   5.277  0.1315  2.9064 -1.3657
   94MOL0     H12639  -0.292   9.118   5.222 -0.0882 -0.0288 -1.3360
   94MOL0     H12640  -0.355   9.126   5.381 -0.1052 -1.7297  1.0415
   94MOL0     H12641  -0.452   8.950   5.033  0.3648  1.1498 -0.0419
   94MOL0     H12642  -0.698   8.879   4.963  0.0577  1.5725  0.8706
   94MOL0     H12643  -0.711   8.736   5.077 -2.8422  0.8717  5.5707
   94MOL0     H12644  -0.916   8.859   4.997 -0.2531  1.6924  0.5705
   94MOL0     H12645  -0.864   8.982   5.110 -0.5982 -0.3692 -0.1239
   94MOL0     H12646  -0.899   8.853   5.300  1.9995 -1.4668  0.1360
   94MOL0     H12647  -0.908   8.697   5.210 -2.2457 -0.5690 -2.3828
   94MOL0     H12648  -1.135   8.716   5.240 -1.3325  1.3774  2.0456
   94MOL0     H12649  -1.124   8.823   5.103 -0.3264 -0.4316  0.0790
   94MOL0     H12650  -1.285   8.702   5.376  0.0633 -0.2035 -0.3789
   94MOL0     H12651  -1.659   8.685   5.467  0.3055  0.0552 -0.8247
   94MOL0     H12652  -1.534   8.602   5.392 -0.8012 -0.9294  0.9632
   94MOL0     H12653  -1.520   8.651   5.563 -1.5491 -1.8705 -0.1228
   94MOL0     H12654  -1.958   8.832   5.377 -1.8924 -0.0996 -1.8137
   94MOL0     H12655  -2.168   8.858   5.462 -1.0396  0.4165 -2.3835
   94MOL0     H12656  -2.392   9.089   5.291 -2.1583  1.8065  1.7981
   94MOL0     H12657  -2.353   8.935   5.366  2.4080 -0.3919  1.9379
   94MOL0     H12658  -2.511   8.996   5.557 -0.1336  1.9036  1.6833
   94MOL0     H12659  -2.523   9.150   5.461  1.1588  0.8816 -0.3288
   94MOL0     H12660  -2.618   8.870   5.374  0.8351  1.0135 -1.0802
   94MOL0     H12661  -2.626   9.015   5.275  3.9907  1.3027  0.3332
   94MOL0     H12662  -2.770   8.976   5.535 -0.5426 -0.6737 -0.7882
   94MOL0     H12663  -2.763   9.134   5.447  0.9692 -0.1459 -0.9387
   94MOL0     H12664  -2.869   8.869   5.321 -1.9115 -0.8606 -0.1230
   94MOL0     H12665  -2.913   9.030   5.265 -3.1453  0.0073  0.4475
   94MOL0     H12666  -2.994   8.917   5.534 -0.0298 -1.1799 -0.0780
   94MOL0     H12667  -3.035   9.072   5.448 -1.7519 -0.8262 -0.2034
   94MOL0     H12668  -3.223   8.894   5.434 -0.3729  0.0805 -1.0356
   94MOL0     H12669  -3.099   8.798   5.352  0.5657 -0.7108  1.0245
   94MOL0     H12670  -3.092   8.964   5.163  0.0473 -1.4320 -1.0711
   94MOL0     H12671  -3.189   9.077   5.255  0.5348 -1.3724  2.3377
   94MOL0     H12672  -2.098   9.290   5.445 -0.3416  0.1003 -0.0699
   94MOL0     H12673  -1.874   9.253   5.400  0.8151 -0.0108 -0.4808
   94MOL0     H12674  -1.515   9.131   5.371  2.0486  1.0357  0.9713
   94MOL0     H12675  -1.281   9.122   5.273 -4.8426  3.0678 -1.6968
   94MOL0     H12676   0.200   8.638   6.123  0.8119 -0.0457  1.4705
   94MOL0     H12677   0.415   8.566   6.210  1.6371 -0.6438 -0.9220
   94MOL0     H12678   0.754   8.371   6.246 -0.4819 -0.2601  1.1124
   94MOL0     H12679   0.976   8.341   6.328 -0.5593  1.1107  2.5574
   94MOL0     H12680   1.052   8.029   6.614 -1.0160  1.5384 -0.2465
   94MOL0     H12681   1.090   7.904   6.473 -2.9712  1.6322 -2.1126
   94MOL0     H12682   1.329   7.989   6.499  1.2877 -0.5262  1.3380
   94MOL0     H12683   1.247   7.926   6.646  1.7558  1.3972  2.3859
   94MOL0     H12684   1.342   8.116   6.734  0.2759 -1.7012 -0.3598
   94MOL0     H12685   1.180   8.177   6.699  0.6176  2.5898 -2.1433
   94MOL0     H12686   1.331   8.342   6.643 -2.2608 -2.5112  3.0156
   94MOL0     H12687   1.275   8.274   6.483 -1.3320 -3.0806  1.2303
   94MOL0     H12688   1.699   8.188   6.537 -0.8804 -0.5293 -4.1946
   94MOL0     H12689   0.840   7.950   6.472 -1.1091  0.3177 -0.0747
   94MOL0     H12690   0.632   7.984   6.357  0.4002  0.3116  0.4395
   95MOL0     O12691   7.083   1.753   3.277  0.1571 -0.5329  0.0969
   95MOL0     C12692   7.103   1.655   3.340 -0.1696  0.3422  0.5084
   95MOL0     O12693   7.066   1.638   3.461  0.7503  0.6139 -0.1890
   95MOL0     C12694   6.983   1.726   3.532  0.0268  0.7970  0.5441
   95MOL0     C12695   7.016   1.755   3.661  0.1149  0.5005  0.6901
   95MOL0     C12696   6.936   1.830   3.734  1.0001  0.9213 -0.4975
   95MOL0     C12697   6.805   1.873   3.696 -0.4971  0.4155  0.7367
   95MOL0     O12698   6.732   1.941   3.786  0.7071  0.0225  0.1854
   95MOL0     C12699   6.587   1.946   3.760  0.1091  0.5409  0.4774
   95MOL0     C12700   6.493   1.954   3.883 -0.5816 -0.4593  0.2194
   95MOL0     C12701   6.472   1.827   3.964  0.6376  0.9059  0.1589
   95MOL0     C12702   6.589   1.798   4.064  0.5693  0.2983 -0.6407
   95MOL0     C12703   6.581   1.671   4.155  0.4371  0.3034 -0.2301
   95MOL0     C12704   6.446   1.635   4.212  0.5440 -0.0797  0.6350
   95MOL0     C12705   6.436   1.505   4.284 -0.4195  0.8980  0.1917
   95MOL0     C12706   6.291   1.461   4.325 -0.2846 -0.0347 -0.0999
   95MOL0     N12707   6.210   1.567   4.393 -0.4288 -0.3435 -0.2122
   95MOL0     C12708   6.089   1.617   4.348  0.4279  0.3999  0.1449
   95MOL0     C12709   6.049   1.703   4.441 -0.3219  0.3002 -0.3573
   95MOL0     C12710   5.920   1.761   4.457  0.8230 -1.3333  0.0593
   95MOL0     C12711   5.835   1.656   4.536 -0.4741  0.2171 -0.1840
   95MOL0     C12712   5.693   1.713   4.556 -0.1780 -0.0087  0.7344
   95MOL0     C12713   5.607   1.635   4.653  0.3215 -0.0526 -0.1913
   95MOL0     O12714   5.488   1.718   4.663  0.3711 -0.3961 -0.1794
   95MOL0     C12715   5.387   1.662   4.731  0.4024  0.2176  0.4784
   95MOL0     C12716   5.272   1.741   4.741 -0.0298 -0.0113  0.2574
   95MOL0     C12717   5.161   1.707   4.820  0.0856 -0.3745  0.2822
   95MOL0     C12718   5.047   1.793   4.800  0.1077 -0.4532  0.2259
   95MOL0     C12719   5.166   1.593   4.903  0.1494 -0.9597  0.9165
   95MOL0     C12720   5.052   1.536   4.988  0.0775 -0.0986 -0.2972
   95MOL0     O12721   5.044   1.407   5.012  0.7923 -0.1299 -0.1464
   95MOL0     C12722   4.951   1.361   5.099  0.5373 -0.1323  0.5927
   95MOL0     C12723   4.968   1.351   5.240 -0.8090  0.3733 -0.2299
   95MOL0     C12724   4.871   1.290   5.328 -0.3608  0.4362  0.2963
   95MOL0     C12725   4.756   1.242   5.267  0.4622 -0.5274  0.2251
   95MOL0     O12726   4.642   1.185   5.326  0.8345  0.1746 -0.4731
   95MOL0     C12727   4.630   1.197   5.474 -0.3530 -0.6441  0.7243
   95MOL0     C12728   4.503   1.133   5.525 -0.0868  0.4207  0.3239
   95MOL0     C12729   4.446   1.187   5.656  0.1203  0.6853  0.2050
   95MOL0     C12730   4.330   1.096   5.709  0.0478 -0.2819  0.4199
   95MOL0     C12731   4.310   1.139   5.856  0.1870  0.8436 -0.6739
   95MOL0     C12732   4.223   1.041   5.928  0.3634 -0.1597  0.4250
   95MOL0     C12733   4.194   1.069   6.077 -0.1369 -0.0899  0.1932
   95MOL0     C12734   4.119   0.948   6.143 -0.1613 -0.0853  0.8815
   95MOL0    Cl12735   3.955   0.920   6.072  0.0776 -0.2753 -0.3084
   95MOL0     C12736   4.731   1.245   5.127 -0.3959  0.5979 -0.5352
   95MOL0     C12737   4.834   1.298   5.053 -0.4952 -0.1026  1.4471
   95MOL0     O12738   4.973   1.621   5.030  0.9325  0.3700 -0.4477
   95MOL0     C12739   5.275   1.509   4.882 -0.2734  0.8836  0.3537
   95MOL0     C12740   5.386   1.544   4.805 -0.3990  1.0852  0.3497
   95MOL0     N12741   6.147   1.711   4.532  0.3617  0.1023 -0.4422
   95MOL0     N12742   6.250   1.637   4.506 -0.5249 -0.6549  0.2174
   95MOL0     C12743   6.764   1.828   3.571 -0.5469  0.2681  0.4321
   95MOL0     C12744   6.853   1.767   3.485 -1.2222 -0.4063  0.2345
   95MOL0     C12745   7.208   1.554   3.284  0.7807 -0.3959 -0.6590
   95MOL0     C12746   7.243   1.553   3.150  0.2526  0.0734 -0.2434
   95MOL0     C12747   7.345   1.468   3.110 -0.1154  0.2939 -0.2847
   95MOL0     C12748   7.406   1.377   3.202 -0.2157 -0.1318  0.1219
   95MOL0     O12749   7.519   1.316   3.166  0.5193  0.2627 -0.3814
   95MOL0     C12750   7.562   1.202   3.235  0.2072  0.2526  0.3369
   95MOL0     C12751   7.698   1.164   3.185 -0.3761  0.6478  0.9052
   95MOL0     C12752   7.785   1.290   3.163 -0.0263  0.8358 -0.5349
   95MOL0     C12753   7.937   1.286   3.154  0.3174  0.3360 -0.3122
   95MOL0     C12754   7.988   1.224   3.273  0.1026 -0.5130 -0.9603
   95MOL0     C12755   8.056   1.182   3.369 -0.1365  0.1836 -0.7857
   95MOL0     C12756   7.362   1.370   3.332 -0.1385 -0.7174  0.0170
   95MOL0     C12757   7.269   1.465   3.375 -0.1454 -0.9279  1.1682
   95MOL0     H12758   7.111   1.713   3.694  0.1823  0.8558  0.9499
   95MOL0     H12759   6.962   1.855   3.836 -1.5199 -2.3051  1.1371
   95MOL0     H12760   6.556   2.026   3.692 -2.3954 -0.0959  0.7914
   95MOL0     H12761   6.570   1.850   3.709  0.5898 -1.5079  3.8872
   95MOL0     H12762   6.546   2.028   3.944 -0.1529  0.3278 -1.0883
   95MOL0     H12763   6.397   2.000   3.859 -0.8967  0.4391  2.8306
   95MOL0     H12764   6.374   1.829   4.014 -0.7878 -0.8232 -2.3734
   95MOL0     H12765   6.456   1.742   3.898  0.6577  1.5377 -0.6667
   95MOL0     H12766   6.684   1.789   4.010  0.9169 -1.5739  0.1994
   95MOL0     H12767   6.589   1.885   4.130 -1.4465 -0.0063 -0.1842
   95MOL0     H12768   6.610   1.577   4.107  1.6644 -0.0083  1.0555
   95MOL0     H12769   6.655   1.675   4.234 -0.4374  3.8075  0.5579
   95MOL0     H12770   6.397   1.714   4.271 -4.2735 -0.3654 -2.4271
   95MOL0     H12771   6.376   1.616   4.131  0.4376 -0.5693  0.8393
   95MOL0     H12772   6.477   1.428   4.219  0.7395 -0.0554  1.9849
   95MOL0     H12773   6.500   1.500   4.372  0.0385 -3.3055 -0.1802
   95MOL0     H12774   6.299   1.376   4.393  1.3258  0.8409  0.8754
   95MOL0     H12775   6.243   1.433   4.231 -0.1697  0.4302 -0.3017
   95MOL0     H12776   6.029   1.580   4.265  1.8711 -4.1687  0.8460
   95MOL0     H12777   5.930   1.857   4.510  2.1579 -1.5657  0.2668
   95MOL0     H12778   5.871   1.789   4.363 -2.4784 -1.1831  1.6747
   95MOL0     H12779   5.885   1.639   4.632 -1.2862 -0.3165  0.1578
   95MOL0     H12780   5.847   1.560   4.484  3.1723  1.2288 -1.5331
   95MOL0     H12781   5.634   1.723   4.464 -0.4946  2.1442  1.1165
   95MOL0     H12782   5.694   1.818   4.589 -1.3779  0.6626 -1.1632
   95MOL0     H12783   5.633   1.619   4.758 -2.5478 -1.2269  0.4387
   95MOL0     H12784   5.580   1.534   4.623 -1.6841 -0.0041  1.2608
   95MOL0     H12785   5.277   1.820   4.667  0.1025 -0.6981 -0.4825
   95MOL0     H12786   5.029   1.844   4.895 -2.5085 -2.0294  0.6744
   95MOL0     H12787   5.066   1.866   4.721 -1.6757  0.8362  0.9139
   95MOL0     H12788   4.952   1.740   4.783 -1.4293  1.6678  1.6474
   95MOL0     H12789   5.058   1.390   5.286 -2.1245  1.0540  1.9053
   95MOL0     H12790   4.896   1.279   5.433  0.1937  3.0561  0.5099
   95MOL0     H12791   4.715   1.145   5.519 -1.2149 -0.9785  2.0012
   95MOL0     H12792   4.626   1.304   5.496  2.9277 -0.2502 -0.0310
   95MOL0     H12793   4.427   1.144   5.446 -0.3773 -0.0110  0.5378
   95MOL0     H12794   4.521   1.026   5.540 -0.8916  0.1285 -0.6705
   95MOL0     H12795   4.409   1.289   5.640  0.7084  0.6173 -1.8880
   95MOL0     H12796   4.524   1.191   5.731  2.4271  0.6862 -2.0541
   95MOL0     H12797   4.235   1.099   5.654  0.0683  3.8082  0.3200
   95MOL0     H12798   4.373   0.996   5.705 -0.5024 -0.4808 -1.6902
   95MOL0     H12799   4.252   1.231   5.861  0.3347  1.1051 -2.8059
   95MOL0     H12800   4.407   1.160   5.903 -1.3228  2.6772  1.8871
   95MOL0     H12801   4.133   1.030   5.868 -0.4564  1.2593  1.3529
   95MOL0     H12802   4.280   0.947   5.926  1.6051  0.5767 -0.8641
   95MOL0     H12803   4.127   1.156   6.084  0.4378  0.3588  0.2533
   95MOL0     H12804   4.294   1.084   6.119  0.2048 -2.2927  0.2375
   95MOL0     H12805   4.117   0.966   6.251 -0.2746 -0.7140  0.9850
   95MOL0     H12806   4.179   0.858   6.129  1.1942  1.0071 -0.8724
   95MOL0     H12807   4.633   1.216   5.090 -1.2476  1.9618  0.5558
   95MOL0     H12808   4.822   1.296   4.945  0.3866 -1.9344  1.3396
   95MOL0     H12809   5.285   1.421   4.945  3.3981  0.9553  0.0808
   95MOL0     H12810   5.477   1.486   4.811 -1.4255 -0.5023  1.4062
   95MOL0     H12811   6.670   1.857   3.526  0.3634  3.7189  0.4633
   95MOL0     H12812   6.814   1.739   3.388  0.3071  4.6351 -2.1442
   95MOL0     H12813   7.203   1.634   3.090  0.9668  1.4516  1.0845
   95MOL0     H12814   7.391   1.481   3.013  2.1929 -1.7857  0.4364
   95MOL0     H12815   7.564   1.228   3.342  0.8087  2.2302 -0.1128
   95MOL0     H12816   7.488   1.123   3.219  0.8574 -0.5641  1.2752
   95MOL0     H12817   7.684   1.111   3.090  2.8553  0.3561  0.4814
   95MOL0     H12818   7.757   1.097   3.249  0.6804  1.3951  0.7385
   95MOL0     H12819   7.766   1.359   3.246  0.8834  1.1283 -0.5607
   95MOL0     H12820   7.753   1.350   3.077 -1.0731  3.5083  1.5856
   95MOL0     H12821   7.974   1.387   3.131 -3.4278  2.4731  1.9889
   95MOL0     H12822   7.960   1.224   3.067 -1.8945  0.4130 -1.0199
   95MOL0     H12823   8.109   1.157   3.459  0.2372  2.4093 -0.3336
   95MOL0     H12824   7.399   1.299   3.406  0.5251  1.2810  1.7261
   95MOL0     H12825   7.237   1.469   3.479 -0.7113  0.4114  0.9547
   96MOL0     O12826   5.857  10.207  10.322  0.6962  0.2184 -0.2312
   96MOL0     C12827   5.961  10.146  10.299 -0.2599  0.3502 -1.0630
   96MOL0     O12828   5.979  10.046  10.201 -0.8599 -0.8161 -1.1418
   96MOL0     C12829   5.869  10.019  10.128  0.4342  0.4614 -0.5507
   96MOL0     C12830   5.751   9.975  10.182  0.4706  0.4684 -0.1127
   96MOL0     C12831   5.654   9.936  10.105  0.8578  0.2648  1.1070
   96MOL0     C12832   5.648   9.945   9.970 -0.0644 -0.9538 -0.0309
   96MOL0     O12833   5.543   9.909   9.886 -0.1378 -0.0469 -0.0997
   96MOL0     C12834   5.450   9.820   9.953 -0.0602  0.5033 -1.0346
   96MOL0     C12835   5.351   9.767   9.850  0.0818 -0.0616 -0.0433
   96MOL0     C12836   5.267   9.870   9.775  0.2243  0.7990  0.1110
   96MOL0     C12837   5.134   9.809   9.739  0.5946 -0.3683  0.5336
   96MOL0     C12838   5.037   9.896   9.651 -0.4441  0.7717 -0.2098
   96MOL0     C12839   5.099   9.915   9.508  0.7795 -0.2398  0.2705
   96MOL0     C12840   4.995   9.958   9.416  0.0888 -0.7948 -0.1265
   96MOL0     C12841   5.041   9.959   9.264 -0.4252  0.4723 -0.4587
   96MOL0     N12842   4.930   9.968   9.178  0.1081 -0.1772  0.5219
   96MOL0     C12843   4.860  10.078   9.152  0.7023 -0.1302  0.0641
   96MOL0     C12844   4.759  10.044   9.069  0.3476 -0.4518 -0.4203
   96MOL0     C12845   4.670  10.150   9.004  0.0624  0.4997 -0.4647
   96MOL0     C12846   4.561  10.181   9.102  0.2317  0.0813  0.3172
   96MOL0     C12847   4.455  10.283   9.050 -1.0030  0.5706 -1.3430
   96MOL0     C12848   4.378  10.329   9.165  0.2801 -0.3135  0.7380
   96MOL0     O12849   4.285  10.438   9.137  0.7095  0.8961  0.2723
   96MOL0     C12850   4.155  10.437   9.167  0.6878  0.4400 -0.4213
   96MOL0     C12851   4.086  10.553   9.180  0.3783 -0.3307  0.2223
   96MOL0     C12852   3.954  10.571   9.231  1.2841  0.1792  0.0555
   96MOL0     C12853   3.894  10.709   9.253  0.3772 -0.6801 -0.5145
   96MOL0     C12854   3.882  10.455   9.260 -0.6902 -0.0274  0.5819
   96MOL0     C12855   3.745  10.456   9.312  0.0805  0.0139  0.1311
   96MOL0     O12856   3.726  10.531   9.435  0.4443  0.1687  0.1303
   96MOL0     C12857   3.601  10.536   9.485 -1.1477  0.0542 -0.9737
   96MOL0     C12858   3.550  10.656   9.532  0.7692 -0.1514  0.0300
   96MOL0     C12859   3.422  10.678   9.585 -0.7745  0.1926  0.7762
   96MOL0     C12860   3.342  10.561   9.588 -0.0300 -0.0634  0.2744
   96MOL0     O12861   3.207  10.568   9.608 -0.1692  0.6061 -0.8306
   96MOL0     C12862   3.123  10.656   9.530 -1.5266 -0.6221  0.1223
   96MOL0     C12863   3.024  10.731   9.620  0.3960 -0.6996  0.1360
   96MOL0     C12864   2.926  10.638   9.695 -0.9762 -0.3732  0.1711
   96MOL0     C12865   2.778  10.669   9.675 -0.4312  0.8727 -0.5074
   96MOL0     C12866   2.671  10.577   9.742  0.2117  0.4305 -0.0986
   96MOL0     C12867   2.533  10.651   9.751  1.7143  1.4077 -0.3258
   96MOL0     C12868   2.420  10.551   9.775  0.0845 -0.5983  0.1761
   96MOL0     C12869   2.292  10.620   9.799  0.3416  0.1582  0.2979
   96MOL0    Cl12870   2.161  10.571   9.680 -0.1860 -0.1899 -0.7085
   96MOL0     C12871   3.398  10.433   9.556  0.1369  0.0750 -0.0477
   96MOL0     C12872   3.526  10.424   9.503 -1.1274 -0.4121 -1.0501
   96MOL0     O12873   3.660  10.392   9.252 -0.8623  0.7494 -0.0534
   96MOL0     C12874   3.955  10.337   9.259 -0.4945 -0.1728 -0.2593
   96MOL0     C12875   4.080  10.325   9.204 -1.0973  0.5849  0.5975
   96MOL0     N12876   4.768   9.909   9.038 -0.0268 -0.1411  0.6900
   96MOL0     N12877   4.865   9.863   9.108  1.0736 -0.1303 -0.0769
   96MOL0     C12878   5.766  10.000   9.914  0.2188  0.4556  0.2512
   96MOL0     C12879   5.882  10.034   9.991  0.7401 -0.0878 -0.7227
   96MOL0     C12880   6.063  10.178  10.399 -0.7245 -0.1250 -0.5982
   96MOL0     C12881   6.195  10.120  10.386  0.0045  0.3872 -0.2790
   96MOL0     C12882   6.300  10.148  10.471  0.6865 -0.5828 -0.1021
   96MOL0     C12883   6.281  10.246  10.576 -0.4614  0.3010  1.0393
   96MOL0     O12884   6.385  10.280  10.656 -0.9589 -0.0523 -1.5789
   96MOL0     C12885   6.365  10.386  10.754  0.3923  0.7466 -0.1754
   96MOL0     C12886   6.486  10.396  10.844  0.8457  0.7192 -0.5528
   96MOL0     C12887   6.487  10.276  10.943  0.5883  0.3899 -1.1590
   96MOL0     C12888   6.618  10.273  11.017  0.4256 -0.4182 -0.5847
   96MOL0     C12889   6.616  10.375  11.127 -1.1913 -0.4444 -0.3619
   96MOL0     C12890   6.622  10.465  11.206 -0.6186  0.5250 -0.9659
   96MOL0     C12891   6.158  10.310  10.575 -0.1035  0.7326 -0.2012
   96MOL0     C12892   6.050  10.269  10.498 -0.1091  0.1648  0.3473
   96MOL0     H12893   5.729   9.977  10.288 -0.4787  4.5572 -0.2241
   96MOL0     H12894   5.565   9.897  10.154  1.0075  2.8036  3.6969
   96MOL0     H12895   5.498   9.738  10.007  1.2498  1.3511 -0.8763
   96MOL0     H12896   5.383   9.873  10.022 -1.6555 -2.3504 -0.2232
   96MOL0     H12897   5.386   9.688   9.783 -0.1143 -2.4252  2.4422
   96MOL0     H12898   5.281   9.710   9.913 -0.7066 -1.9153 -2.4449
   96MOL0     H12899   5.251   9.962   9.833 -0.9922 -0.1153  1.3028
   96MOL0     H12900   5.317   9.898   9.682 -1.0088 -0.9120 -1.1253
   96MOL0     H12901   5.149   9.713   9.688  0.0275  0.6049 -1.6132
   96MOL0     H12902   5.087   9.794   9.836  0.7057 -2.5398  0.2995
   96MOL0     H12903   4.941   9.844   9.643 -1.8419  3.3907 -1.7361
   96MOL0     H12904   5.027   9.992   9.702  0.3326 -0.1641  1.8451
   96MOL0     H12905   5.172   9.994   9.528  0.4904 -0.6969  4.0045
   96MOL0     H12906   5.143   9.825   9.464 -2.8373 -2.3666  0.5608
   96MOL0     H12907   4.902   9.902   9.429  0.1728 -0.7122  1.0068
   96MOL0     H12908   4.973  10.062   9.443 -0.8229 -1.7264  3.1682
   96MOL0     H12909   5.091   9.864   9.242  0.1802  0.5812  0.3762
   96MOL0     H12910   5.111  10.043   9.256  0.6541 -0.1094  1.9507
   96MOL0     H12911   4.877  10.184   9.169 -0.3257 -0.2146  2.0222
   96MOL0     H12912   4.726  10.237   8.969  1.5791 -0.5232 -0.6962
   96MOL0     H12913   4.616  10.111   8.917  1.2479  1.2122 -1.5562
   96MOL0     H12914   4.608  10.214   9.195  1.5010  0.2404 -0.3506
   96MOL0     H12915   4.508  10.087   9.117  0.5240 -0.4430 -1.5935
   96MOL0     H12916   4.382  10.229   8.989 -0.8143 -1.5287  0.1640
   96MOL0     H12917   4.517  10.357   8.999  2.7215  0.1463  2.0438
   96MOL0     H12918   4.446  10.380   9.234 -2.6623  0.7479  3.0462
   96MOL0     H12919   4.322  10.256   9.222 -3.5013 -0.5028 -2.7528
   96MOL0     H12920   4.149  10.638   9.158 -0.6119 -0.0667 -1.7588
   96MOL0     H12921   3.965  10.781   9.293 -1.5847  0.6268  0.7894
   96MOL0     H12922   3.859  10.755   9.161 -0.0856 -0.0988 -0.0590
   96MOL0     H12923   3.814  10.721   9.326 -1.4028  3.2333 -2.8327
   96MOL0     H12924   3.603  10.746   9.503 -1.2422  0.6640 -1.3423
   96MOL0     H12925   3.385  10.772   9.624 -0.5270 -0.7216  3.4736
   96MOL0     H12926   3.164  10.740   9.473 -2.4783  0.5458  1.0962
   96MOL0     H12927   3.067  10.596   9.458  0.3814 -3.5475  0.8854
   96MOL0     H12928   3.083  10.786   9.694 -1.5613  1.3558  0.2458
   96MOL0     H12929   2.969  10.806   9.563  0.8714 -1.2695 -1.1158
   96MOL0     H12930   2.962  10.637   9.798  0.9087  2.9876 -0.2963
   96MOL0     H12931   2.935  10.539   9.648  1.4863  0.7290 -1.9358
   96MOL0     H12932   2.760  10.774   9.701  1.1424  0.6865  1.7139
   96MOL0     H12933   2.757  10.660   9.568 -2.4194  0.8065 -0.1452
   96MOL0     H12934   2.698  10.547   9.843 -0.3528  0.4061  0.0459
   96MOL0     H12935   2.665  10.486   9.681  1.0136 -0.2957  0.8883
   96MOL0     H12936   2.522  10.722   9.833 -3.2590 -1.0347  1.5394
   96MOL0     H12937   2.504  10.707   9.661 -1.4441 -0.7136 -0.8077
   96MOL0     H12938   2.447  10.485   9.859 -0.9024  2.3053  2.9729
   96MOL0     H12939   2.419  10.489   9.685  1.1638  0.8576 -0.8820
   96MOL0     H12940   2.316  10.725   9.819  2.9464 -0.3441  0.2474
   96MOL0     H12941   2.263  10.591   9.900  2.0409  0.4338  0.9031
   96MOL0     H12942   3.337  10.345   9.575 -0.9601  0.7158 -0.4900
   96MOL0     H12943   3.564  10.324   9.482 -2.7025 -0.8399 -2.0190
   96MOL0     H12944   3.915  10.244   9.300  0.9723 -2.1471 -3.0124
   96MOL0     H12945   4.129  10.229   9.193 -0.5885  0.7926  1.0524
   96MOL0     H12946   5.771  10.017   9.807 -1.4324 -2.1803 -0.3210
   96MOL0     H12947   5.967  10.078   9.941  0.7262 -0.8282 -1.4216
   96MOL0     H12948   6.217  10.045  10.311  0.5720 -0.6962  0.9372
   96MOL0     H12949   6.400  10.113  10.449  0.0794 -2.7348  0.3784
   96MOL0     H12950   6.372  10.484  10.704  1.6771  1.1428  0.7153
   96MOL0     H12951   6.274  10.364  10.811 -0.3811 -2.5011 -2.4273
   96MOL0     H12952   6.471  10.485  10.905 -0.9558 -0.2382  0.4988
   96MOL0     H12953   6.569  10.391  10.772  0.4095  0.7432 -1.0600
   96MOL0     H12954   6.451  10.187  10.892 -1.9728 -0.8224  2.4116
   96MOL0     H12955   6.410  10.303  11.016 -0.1418 -1.4696 -1.2011
   96MOL0     H12956   6.709  10.288  10.958 -0.0987 -2.0759 -1.8740
   96MOL0     H12957   6.627  10.171  11.054 -0.4871 -0.6230 -0.9165
   96MOL0     H12958   6.638  10.554  11.264  3.0770 -0.5175 -0.1222
   96MOL0     H12959   6.150  10.395  10.641  0.0334  0.3372  0.3338
   96MOL0     H12960   5.959  10.326  10.514  1.1215  1.5478  3.2108
   97MOL0     O12961   5.192   1.496   3.611 -0.5648 -0.6257  0.3123
   97MOL0     C12962   5.203   1.571   3.707  1.3025  0.5682  0.6023
   97MOL0     O12963   5.104   1.593   3.799  0.3777 -0.3552 -0.5120
   97MOL0     C12964   4.985   1.527   3.787 -0.2552  0.0688 -0.8359
   97MOL0     C12965   4.865   1.597   3.810  0.0589  0.2486 -0.7273
   97MOL0     C12966   4.744   1.536   3.803  0.2717 -0.3032  0.0497
   97MOL0     C12967   4.739   1.403   3.763  1.2592 -0.1820 -1.0815
   97MOL0     O12968   4.617   1.339   3.755  0.2177 -0.1938  0.3767
   97MOL0     C12969   4.616   1.235   3.654  0.6093 -0.6301  0.6536
   97MOL0     C12970   4.479   1.229   3.582 -0.0645  0.1094  0.4549
   97MOL0     C12971   4.357   1.209   3.679 -0.1445 -0.1446 -0.5277
   97MOL0     C12972   4.340   1.071   3.733  0.0915 -0.1439 -0.0752
   97MOL0     C12973   4.214   1.065   3.818  1.3224  0.3791  0.1259
   97MOL0     C12974   4.250   1.095   3.966 -0.0305  0.0233  0.7243
   97MOL0     C12975   4.141   1.037   4.064  0.0845  0.0315 -0.0755
   97MOL0     C12976   4.140   1.117   4.194 -0.7332  0.0355 -0.3644
   97MOL0     N12977   4.016   1.082   4.271  0.0940  0.7202  0.2532
   97MOL0     C12978   3.994   0.981   4.363  0.0767 -0.1555 -0.8848
   97MOL0     C12979   3.859   0.986   4.401 -0.6300  0.0463  1.2568
   97MOL0     C12980   3.790   0.897   4.502  0.2064 -0.1100  0.7324
   97MOL0     C12981   3.647   0.862   4.474  0.0101 -0.1422 -0.5665
   97MOL0     C12982   3.535   0.963   4.501  0.5971  0.6690  0.1530
   97MOL0     C12983   3.407   0.898   4.541  0.4460 -0.5857 -0.3008
   97MOL0     O12984   3.428   0.871   4.683 -0.0495 -0.7808  0.0223
   97MOL0     C12985   3.321   0.897   4.766 -0.2475 -1.1206 -0.0013
   97MOL0     C12986   3.337   0.927   4.907 -0.0752  0.6251  0.0545
   97MOL0     C12987   3.242   0.951   5.000  0.8468 -0.1615 -0.2063
   97MOL0     C12988   3.287   0.969   5.151 -0.1688  0.3858 -0.5176
   97MOL0     C12989   3.107   0.971   4.950  0.2210  0.2786 -0.4435
   97MOL0     C12990   2.997   1.006   5.046 -1.2074 -0.1563  0.2365
   97MOL0     O12991   2.880   1.012   4.982 -0.2787 -0.4100 -0.7828
   97MOL0     C12992   2.755   1.039   5.044  0.2997  0.7095  0.6666
   97MOL0     C12993   2.639   1.032   4.962  0.2914  1.2729 -0.2596
   97MOL0     C12994   2.514   1.069   5.009 -0.9627 -0.1543 -0.6590
   97MOL0     C12995   2.496   1.121   5.143  0.8784  1.4043  0.7330
   97MOL0     O12996   2.374   1.178   5.188 -1.0226  0.0214  0.1560
   97MOL0     C12997   2.264   1.091   5.195  0.0005 -0.5743  0.5038
   97MOL0     C12998   2.155   1.154   5.105  0.1831  0.6230 -0.3800
   97MOL0     C12999   2.031   1.070   5.078  0.2599  0.3795  0.4704
   97MOL0     C13000   1.913   1.164   5.078 -0.6328 -1.2869 -0.1860
   97MOL0     C13001   1.778   1.093   5.074  0.3724  0.6385  0.2228
   97MOL0     C13002   1.661   1.192   5.070 -0.5550 -0.7825  0.0156
   97MOL0     C13003   1.625   1.229   4.923  0.5853  0.2785 -0.3729
   97MOL0     C13004   1.677   1.379   4.902 -0.3126  0.2366  0.3427
   97MOL0    Cl13005   1.557   1.480   4.977  0.1654  0.1926 -0.1836
   97MOL0     C13006   2.608   1.122   5.227 -0.3252  0.9168  0.6475
   97MOL0     C13007   2.729   1.080   5.179  0.2179  0.1684 -0.5376
   97MOL0     O13008   3.025   1.045   5.161  1.0963  0.2206 -0.8861
   97MOL0     C13009   3.080   0.938   4.810  0.0259 -0.5485 -0.3782
   97MOL0     C13010   3.184   0.895   4.724 -0.6336  0.1811  0.0810
   97MOL0     N13011   3.805   1.094   4.329 -0.1937 -0.1187  0.2699
   97MOL0     N13012   3.896   1.140   4.254 -0.7533  0.4506  0.5435
   97MOL0     C13013   4.856   1.333   3.741 -0.4616 -0.3973  0.3607
   97MOL0     C13014   4.972   1.393   3.751  0.1918  0.8502  0.5469
   97MOL0     C13015   5.329   1.640   3.723  0.0288 -0.6864 -0.3539
   97MOL0     C13016   5.438   1.606   3.644  0.1904 -0.8034  0.4712
   97MOL0     C13017   5.559   1.674   3.656  0.8153 -0.1923 -0.8348
   97MOL0     C13018   5.579   1.766   3.759 -0.9897  0.2255  0.1859
   97MOL0     O13019   5.698   1.840   3.756  1.0087 -0.3649 -0.2716
   97MOL0     C13020   5.784   1.788   3.860  0.1005 -0.3623 -0.1153
   97MOL0     C13021   5.919   1.849   3.854 -1.0414  0.8947  0.2866
   97MOL0     C13022   6.023   1.758   3.778  0.1446 -0.2831 -0.3503
   97MOL0     C13023   6.163   1.815   3.773 -0.4381  0.1724 -0.1869
   97MOL0     C13024   6.266   1.737   3.706  0.6501  0.6800  0.4129
   97MOL0     C13025   6.341   1.664   3.650  0.5356 -0.1227 -0.3526
   97MOL0     C13026   5.471   1.798   3.834  0.1699 -0.0637 -0.5544
   97MOL0     C13027   5.347   1.741   3.820 -0.2829  0.1289  0.6513
   97MOL0     H13028   4.862   1.699   3.847 -1.2912 -1.2734  4.0853
   97MOL0     H13029   4.659   1.597   3.829 -1.1920 -0.9332 -2.9035
   97MOL0     H13030   4.687   1.245   3.572  0.3181  0.5598  0.5289
   97MOL0     H13031   4.635   1.142   3.708  0.7940  0.0615  1.8073
   97MOL0     H13032   4.461   1.318   3.521 -0.0270  1.1500  1.9337
   97MOL0     H13033   4.490   1.145   3.512 -3.3865  1.2522 -1.6735
   97MOL0     H13034   4.385   1.272   3.764  3.9409  1.1943 -2.5726
   97MOL0     H13035   4.263   1.245   3.635  0.2738  1.0564 -0.4910
   97MOL0     H13036   4.322   1.003   3.649  1.4729  1.6840 -1.9481
   97MOL0     H13037   4.423   1.021   3.783 -0.4753 -0.4153  0.6074
   97MOL0     H13038   4.146   1.139   3.774  1.2526  0.8207  0.9720
   97MOL0     H13039   4.149   0.979   3.801  1.8161  0.2663 -1.4078
   97MOL0     H13040   4.353   1.066   3.984 -0.6916 -2.0065  1.5378
   97MOL0     H13041   4.246   1.204   3.966  2.5844  0.1775 -0.3722
   97MOL0     H13042   4.042   1.041   4.020 -0.4282  0.5129  1.0898
   97MOL0     H13043   4.179   0.935   4.080 -1.2997 -0.9509 -2.5181
   97MOL0     H13044   4.135   1.227   4.192  1.6877  0.2104  0.2188
   97MOL0     H13045   4.226   1.099   4.259 -0.9008  2.3527  0.5948
   97MOL0     H13046   4.070   0.919   4.411  3.0196  3.3022 -0.6645
   97MOL0     H13047   3.849   0.809   4.527  1.2300  0.6822  1.2000
   97MOL0     H13048   3.784   0.948   4.599  0.6944 -1.1340  1.3082
   97MOL0     H13049   3.615   0.773   4.528 -2.1500  1.1510  0.4590
   97MOL0     H13050   3.643   0.844   4.366  0.2381  0.9270 -0.7664
   97MOL0     H13051   3.517   1.012   4.405  0.1421  2.3980  1.0790
   97MOL0     H13052   3.553   1.044   4.573  2.6033  1.5032 -1.1914
   97MOL0     H13053   3.381   0.808   4.484  1.5902 -0.4534 -1.0648
   97MOL0     H13054   3.326   0.967   4.517 -0.8601 -2.0978 -0.4546
   97MOL0     H13055   3.442   0.918   4.936 -0.0504 -1.9085 -0.5455
   97MOL0     H13056   3.209   0.919   5.209 -0.8777  1.4735 -0.5143
   97MOL0     H13057   3.382   0.927   5.187  0.9154 -0.6491 -4.0950
   97MOL0     H13058   3.282   1.075   5.174 -1.0075  0.6666 -1.8956
   97MOL0     H13059   2.654   0.999   4.860  4.7717  1.3452  0.1501
   97MOL0     H13060   2.427   1.070   4.944  0.2261 -0.0083 -2.2879
   97MOL0     H13061   2.293   0.991   5.160 -1.0699 -0.6067 -0.3659
   97MOL0     H13062   2.217   1.086   5.293 -3.4757  1.6569 -0.8674
   97MOL0     H13063   2.122   1.251   5.145 -1.8484 -0.5614  1.0491
   97MOL0     H13064   2.201   1.179   5.009  4.6794 -2.1978  0.7390
   97MOL0     H13065   2.023   0.992   5.154 -2.6703 -2.1697 -2.1681
   97MOL0     H13066   2.042   1.023   4.980 -2.3657  1.3690 -0.3693
   97MOL0     H13067   1.906   1.228   5.167  0.1766  1.2373 -1.8316
   97MOL0     H13068   1.921   1.226   4.988  0.0041 -3.2038 -1.5187
   97MOL0     H13069   1.776   1.038   5.169 -0.0961  0.3495  0.0493
   97MOL0     H13070   1.765   1.025   4.989  0.8993  2.1370 -1.1049
   97MOL0     H13071   1.572   1.156   5.122 -0.3403  0.7860  1.5635
   97MOL0     H13072   1.695   1.284   5.120 -1.7055  0.4490 -1.3659
   97MOL0     H13073   1.519   1.221   4.897  0.9970 -2.2367 -1.5734
   97MOL0     H13074   1.670   1.155   4.856  0.3050  1.0691 -1.4656
   97MOL0     H13075   1.678   1.390   4.793 -0.8774 -2.3676  0.0069
   97MOL0     H13076   1.772   1.419   4.939 -0.3089  0.6325 -0.0902
   97MOL0     H13077   2.589   1.179   5.317 -3.7557  1.1327 -0.0743
   97MOL0     H13078   2.814   1.080   5.246 -1.9953  2.0695  2.5163
   97MOL0     H13079   2.977   0.943   4.775 -0.2943  1.5358  0.7429
   97MOL0     H13080   3.168   0.849   4.627  1.7094 -0.0381 -0.2531
   97MOL0     H13081   4.845   1.227   3.717 -1.7380 -0.2699  0.2841
   97MOL0     H13082   5.056   1.325   3.737 -0.4691 -0.4266  2.3570
   97MOL0     H13083   5.438   1.539   3.558 -1.0830  2.2960 -2.1203
   97MOL0     H13084   5.634   1.637   3.587  1.1883 -1.8008  0.3575
   97MOL0     H13085   5.738   1.811   3.957 -0.6846  0.9276 -0.7552
   97MOL0     H13086   5.784   1.681   3.840  1.3852 -0.5224  0.6683
   97MOL0     H13087   5.954   1.852   3.958  0.4481 -0.8730 -0.1148
   97MOL0     H13088   5.917   1.943   3.799 -0.0777  0.0909 -1.1850
   97MOL0     H13089   5.999   1.756   3.672  3.6619  0.5976 -1.2751
   97MOL0     H13090   6.020   1.659   3.824 -1.5611  1.0911  2.8289
   97MOL0     H13091   6.193   1.809   3.878  2.8036 -2.4742 -1.1047
   97MOL0     H13092   6.167   1.916   3.733 -0.2179 -0.5299 -2.0774
   97MOL0     H13093   6.386   1.590   3.589 -0.8291  0.6195 -2.3736
   97MOL0     H13094   5.465   1.873   3.912 -1.1276 -0.4123 -0.3010
   97MOL0     H13095   5.262   1.769   3.881  0.4459 -1.3809  2.4417
   98MOL0     O13096   2.492   6.188  10.605  0.1275  0.4285  1.1389
   98MOL0     C13097   2.516   6.293  10.656  0.5945 -0.2403  0.5210
   98MOL0     O13098   2.423   6.375  10.719 -0.1794  0.6625 -0.9730
   98MOL0     C13099   2.297   6.330  10.753  0.4355  0.4529 -0.6157
   98MOL0     C13100   2.260   6.199  10.779 -1.1502 -0.2102 -0.1892
   98MOL0     C13101   2.128   6.172  10.798 -0.2286 -0.4702 -0.9863
   98MOL0     C13102   2.032   6.270  10.801 -0.5699 -0.3067  0.4617
   98MOL0     O13103   1.897   6.246  10.797 -0.4351  0.4081 -0.2368
   98MOL0     C13104   1.851   6.109  10.784 -1.0631 -0.4648 -0.0401
   98MOL0     C13105   1.700   6.112  10.755  0.8847  0.4206  0.3039
   98MOL0     C13106   1.628   5.973  10.746 -0.5979 -0.1580  0.6568
   98MOL0     C13107   1.485   6.013  10.692  0.3016  0.6241 -0.5837
   98MOL0     C13108   1.393   5.895  10.703 -0.4895  0.0738 -0.2786
   98MOL0     C13109   1.431   5.773  10.616 -0.3340  0.4452 -0.0553
   98MOL0     C13110   1.328   5.661  10.640 -0.0673  0.3742 -0.6648
   98MOL0     C13111   1.355   5.527  10.560 -0.0025  0.1301  0.1053
   98MOL0     N13112   1.243   5.431  10.569 -0.1433 -0.4750  0.1057
   98MOL0     C13113   1.148   5.424  10.472 -0.5425 -0.6951  0.6532
   98MOL0     C13114   1.067   5.329  10.522  0.5498 -1.2483 -0.3583
   98MOL0     C13115   0.951   5.273  10.443  0.7003  0.0998  0.2921
   98MOL0     C13116   0.978   5.227  10.301 -1.3866  1.4956 -0.0039
   98MOL0     C13117   1.037   5.076  10.291  0.5814 -0.5576 -0.4108
   98MOL0     C13118   1.174   5.044  10.345 -0.0555 -0.7533 -0.3781
   98MOL0     O13119   1.271   5.139  10.294  0.1184  0.4909  0.2318
   98MOL0     C13120   1.395   5.142  10.350 -0.6641 -0.5989  0.2366
   98MOL0     C13121   1.474   5.251  10.319  0.0185 -0.7977  0.5022
   98MOL0     C13122   1.599   5.273  10.382 -0.1315 -0.4935 -0.2077
   98MOL0     C13123   1.685   5.399  10.345  0.4277  0.6919 -0.9458
   98MOL0     C13124   1.647   5.172  10.470  0.3208  0.2003 -0.0549
   98MOL0     C13125   1.770   5.178  10.546  0.4669  1.0488  0.7097
   98MOL0     O13126   1.802   5.074  10.622 -0.3354 -0.2364  0.4847
   98MOL0     C13127   1.918   5.083  10.688 -0.5700  0.0670  0.6618
   98MOL0     C13128   1.936   5.143  10.812  0.3915  0.4234  0.1347
   98MOL0     C13129   2.054   5.133  10.883  0.1764 -0.2709  0.6272
   98MOL0     C13130   2.164   5.071  10.824 -0.4313  0.2606 -0.0383
   98MOL0     O13131   2.289   5.059  10.877 -0.5404  0.4964  0.4317
   98MOL0     C13132   2.298   5.103  11.013  0.0170 -0.7058 -0.3998
   98MOL0     C13133   2.427   5.045  11.070  0.3437 -0.1651 -0.2019
   98MOL0     C13134   2.412   4.889  11.086  0.7496  0.1033 -0.2233
   98MOL0     C13135   2.549   4.828  11.125 -0.8388 -0.1943  0.1107
   98MOL0     C13136   2.550   4.672  11.142  0.2354 -0.1645  0.0786
   98MOL0     C13137   2.465   4.612  11.259 -0.0133 -0.2273 -0.0083
   98MOL0     C13138   2.474   4.454  11.254  0.5447 -0.0723  0.5458
   98MOL0     C13139   2.431   4.401  11.388  0.7754 -0.3612  0.0640
   98MOL0    Cl13140   2.439   4.214  11.401  0.0424 -0.0274  0.6509
   98MOL0     C13141   2.150   5.011  10.699 -0.5867 -0.7541 -0.3443
   98MOL0     C13142   2.033   5.026  10.628  0.2268 -0.3124  0.8281
   98MOL0     O13143   1.849   5.273  10.524 -0.3457 -0.0982 -0.2134
   98MOL0     C13144   1.573   5.057  10.489  0.0966  0.2625 -0.0075
   98MOL0     C13145   1.451   5.037  10.425  0.0153 -0.0869  0.8624
   98MOL0     N13146   1.109   5.297  10.645 -0.5653  0.6576 -0.1810
   98MOL0     N13147   1.222   5.348  10.677  0.1014  0.2746  0.3847
   98MOL0     C13148   2.074   6.405  10.785  0.0812  0.9673 -1.1392
   98MOL0     C13149   2.210   6.431  10.760 -0.1530 -0.6904 -0.3526
   98MOL0     C13150   2.652   6.336  10.651  0.1003  0.3563 -0.1853
   98MOL0     C13151   2.746   6.273  10.570  0.3557  0.5422 -0.2849
   98MOL0     C13152   2.881   6.307  10.581 -0.0720 -0.8576 -0.6207
   98MOL0     C13153   2.925   6.419  10.654 -0.3315 -0.3649 -0.2737
   98MOL0     O13154   3.055   6.460  10.664  0.0523 -0.2551 -1.1449
   98MOL0     C13155   3.157   6.397  10.589  0.7062  0.3209  0.2411
   98MOL0     C13156   3.283   6.467  10.643  0.4089  0.1926 -0.4895
   98MOL0     C13157   3.291   6.611  10.598 -0.3032  0.0821 -0.2983
   98MOL0     C13158   3.324   6.689  10.722  0.7235  0.5231 -0.1154
   98MOL0     C13159   3.356   6.816  10.675 -0.7587 -0.3205 -0.3482
   98MOL0     C13160   3.373   6.928  10.636  0.0814  0.2047 -1.0108
   98MOL0     C13161   2.824   6.487  10.729  0.0392 -0.3486  0.1632
   98MOL0     C13162   2.691   6.443  10.734 -0.5785 -0.3065 -0.3566
   98MOL0     H13163   2.334   6.120  10.777  0.2060  0.9568  1.2576
   98MOL0     H13164   2.096   6.068  10.810 -0.9710 -0.2621 -1.0737
   98MOL0     H13165   1.913   6.063  10.706  0.5802  2.3887 -0.5737
   98MOL0     H13166   1.865   6.048  10.874  1.8589  0.9715  0.6151
   98MOL0     H13167   1.666   6.163  10.846  0.3153 -1.6668  1.3379
   98MOL0     H13168   1.689   6.175  10.666  0.6668  1.3357  0.9678
   98MOL0     H13169   1.675   5.914  10.666 -0.5121  2.4143 -1.3397
   98MOL0     H13170   1.628   5.915  10.838  0.2693  0.0093  0.7723
   98MOL0     H13171   1.448   6.092  10.758 -2.5855 -0.5869 -0.5782
   98MOL0     H13172   1.485   6.058  10.593 -0.8285 -0.4548 -1.1083
   98MOL0     H13173   1.386   5.878  10.811  0.3891  1.7053  0.0634
   98MOL0     H13174   1.292   5.930  10.682  0.2885  3.4793  0.9907
   98MOL0     H13175   1.430   5.801  10.511  2.3447  3.3224  0.5136
   98MOL0     H13176   1.531   5.735  10.641  0.5903  2.9550  0.4010
   98MOL0     H13177   1.337   5.626  10.744 -2.5949  1.5440  0.0145
   98MOL0     H13178   1.230   5.694  10.606  0.2875  0.5570 -1.5276
   98MOL0     H13179   1.448   5.479  10.589  0.2008 -1.2908 -2.6090
   98MOL0     H13180   1.365   5.541  10.451 -3.6541 -0.0512 -0.3742
   98MOL0     H13181   1.159   5.475  10.377  2.9390 -0.7283  0.9175
   98MOL0     H13182   0.907   5.194  10.504  1.5219 -1.6446 -1.2817
   98MOL0     H13183   0.876   5.353  10.441  1.4157  0.7864 -0.8585
   98MOL0     H13184   1.041   5.295  10.243  3.9350 -1.2572  1.8795
   98MOL0     H13185   0.881   5.211  10.252 -2.1685 -0.2189  1.9332
   98MOL0     H13186   1.032   5.051  10.184 -1.2232 -0.5865 -0.3517
   98MOL0     H13187   0.962   5.017  10.345 -0.4726  0.9939 -0.1065
   98MOL0     H13188   1.191   4.944  10.306 -0.1540 -0.7659 -0.3881
   98MOL0     H13189   1.181   5.050  10.454  2.7299  2.6574 -0.5638
   98MOL0     H13190   1.435   5.319  10.244 -1.0116 -1.7494  0.1486
   98MOL0     H13191   1.628   5.454  10.269 -0.7999  0.4619 -0.2197
   98MOL0     H13192   1.702   5.461  10.433 -1.7999  0.6040 -0.3947
   98MOL0     H13193   1.781   5.374  10.300  2.3243  0.9306  2.6614
   98MOL0     H13194   1.846   5.188  10.853  0.4244  1.2189 -0.6221
   98MOL0     H13195   2.051   5.189  10.976  2.7413  2.6045 -0.8143
   98MOL0     H13196   2.303   5.212  11.017  0.7377 -0.7387  3.9756
   98MOL0     H13197   2.216   5.064  11.074  3.9312 -5.8762  2.2901
   98MOL0     H13198   2.516   5.078  11.014  0.4591  3.1511  1.6668
   98MOL0     H13199   2.443   5.106  11.160  1.1366  2.0188 -1.7229
   98MOL0     H13200   2.369   4.846  10.995  0.6299  2.2128 -1.2087
   98MOL0     H13201   2.346   4.873  11.172  2.8389  1.1265  1.6545
   98MOL0     H13202   2.617   4.847  11.041 -0.9684 -0.1495  0.0161
   98MOL0     H13203   2.595   4.887  11.206  1.5976 -0.5174 -0.9428
   98MOL0     H13204   2.650   4.630  11.134  0.7865  1.1760 -0.3488
   98MOL0     H13205   2.503   4.637  11.050 -3.2890  2.2039  0.7563
   98MOL0     H13206   2.486   4.645  11.362 -1.2958 -0.4904  0.3615
   98MOL0     H13207   2.362   4.640  11.232  0.7425 -0.2562 -3.3028
   98MOL0     H13208   2.579   4.428  11.238 -0.1081 -1.2508 -2.4392
   98MOL0     H13209   2.405   4.402  11.186 -2.2819  3.4457  0.3898
   98MOL0     H13210   2.332   4.434  11.421  1.9428 -0.0737  3.6181
   98MOL0     H13211   2.489   4.451  11.467 -1.7422  2.4751  0.3112
   98MOL0     H13212   2.235   4.958  10.656  1.2273 -2.0210  4.2619
   98MOL0     H13213   2.031   4.981  10.530 -0.8499  1.9187 -0.2645
   98MOL0     H13214   1.603   4.985  10.564 -1.3516 -0.5587 -0.1860
   98MOL0     H13215   1.404   4.944  10.456  0.1252  0.2682  2.1284
   98MOL0     H13216   2.000   6.481  10.810  0.8589  1.5305 -0.5149
   98MOL0     H13217   2.245   6.534  10.769 -4.5552  0.8599  1.8110
   98MOL0     H13218   2.727   6.199  10.493 -4.9168 -0.6335  1.7335
   98MOL0     H13219   2.958   6.246  10.535  0.0992  0.9218 -2.8963
   98MOL0     H13220   3.154   6.291  10.617  1.5368  0.2442  0.0497
   98MOL0     H13221   3.142   6.408  10.482  1.2500  1.4313  0.2709
   98MOL0     H13222   3.371   6.409  10.612  0.1590 -0.4544 -0.0045
   98MOL0     H13223   3.291   6.458  10.751 -2.1230 -1.7551 -0.3651
   98MOL0     H13224   3.197   6.645  10.554  0.7552  3.8121 -0.0032
   98MOL0     H13225   3.354   6.637  10.512 -0.4749 -0.2153 -0.5137
   98MOL0     H13226   3.404   6.658  10.790 -0.1455 -2.6663 -0.3882
   98MOL0     H13227   3.235   6.699  10.784  1.2914  4.4375  0.3291
   98MOL0     H13228   3.377   7.032  10.611 -2.9609  0.8271  0.6705
   98MOL0     H13229   2.851   6.573  10.789  0.5767  0.8136 -1.6907
   98MOL0     H13230   2.625   6.489  10.807 -3.1769 -2.0189 -1.5002
   99MOL0     O13231   6.883   9.329   0.850  0.2735 -0.2952 -0.1936
   99MOL0     C13232   6.970   9.374   0.785 -0.5304 -0.9990 -0.0875
   99MOL0     O13233   7.023   9.502   0.797  0.0301  0.3947 -0.4560
   99MOL0     C13234   6.978   9.592   0.891  0.6514 -0.6487 -0.4049
   99MOL0     C13235   6.952   9.724   0.854  0.2452 -0.5681 -0.2230
   99MOL0     C13236   6.897   9.827   0.940 -1.2529  0.7453 -0.1892
   99MOL0     C13237   6.861   9.797   1.065  0.5699 -1.0280 -0.7863
   99MOL0     O13238   6.810   9.905   1.135  0.0149 -0.4067  0.0868
   99MOL0     C13239   6.801   9.902   1.278 -0.4596 -0.0781  0.9273
   99MOL0     C13240   6.934   9.881   1.356 -0.6624 -0.2700 -0.0411
   99MOL0     C13241   7.056   9.956   1.302 -0.1626 -0.1817 -0.1108
   99MOL0     C13242   7.021  10.105   1.303 -1.0231 -0.8679 -0.1066
   99MOL0     C13243   7.151  10.184   1.316  1.1234 -0.6197 -0.2519
   99MOL0     C13244   7.239  10.169   1.188  0.5788 -0.3679 -0.0194
   99MOL0     C13245   7.172  10.207   1.054  0.6135  0.4793 -0.2769
   99MOL0     C13246   7.134  10.081   0.972 -0.5125 -0.3890 -0.8238
   99MOL0     N13247   7.112  10.115   0.837  0.4440  0.1313 -0.2866
   99MOL0     C13248   7.181  10.189   0.741 -0.9651  0.4067 -0.3701
   99MOL0     C13249   7.097  10.222   0.645 -0.0911  0.0740  0.0581
   99MOL0     C13250   7.111  10.309   0.512 -0.4129 -0.0357  1.0969
   99MOL0     C13251   7.244  10.288   0.438  0.7923  0.3418 -0.2765
   99MOL0     C13252   7.242  10.244   0.291  0.7425 -0.3800 -0.4859
   99MOL0     C13253   7.222  10.351   0.185 -0.6378 -0.3702  0.9643
   99MOL0     O13254   7.094  10.431   0.203  0.1464  0.0471  0.1462
   99MOL0     C13255   6.972  10.383   0.156  0.7439  0.6108  1.1880
   99MOL0     C13256   6.950  10.261   0.084  0.0660  0.0287  0.3837
   99MOL0     C13257   6.827  10.220   0.039  0.8806 -0.1948 -0.1247
   99MOL0     C13258   6.834  10.099  -0.050  1.0989  0.0362 -0.6222
   99MOL0     C13259   6.715  10.295   0.069 -0.2100 -0.2212 -0.2316
   99MOL0     C13260   6.576  10.236   0.049 -0.0731 -0.0359  0.2538
   99MOL0     O13261   6.475  10.313   0.088 -0.0835  0.5165  0.1055
   99MOL0     C13262   6.337  10.280   0.073  0.6770 -0.5479  0.3779
   99MOL0     C13263   6.282  10.253  -0.055  0.4418  0.0758  0.4615
   99MOL0     C13264   6.144  10.220  -0.064  0.6167  0.4844 -0.4473
   99MOL0     C13265   6.066  10.210   0.060  0.3176  0.1326 -0.0131
   99MOL0     O13266   5.935  10.164   0.072  0.4258 -0.0220  0.0764
   99MOL0     C13267   5.867  10.107  -0.040  0.5859  0.7521  0.0742
   99MOL0     C13268   5.819  10.203  -0.140 -0.0569 -0.2918  0.1309
   99MOL0     C13269   5.742  10.322  -0.083  0.0216 -0.2585  0.3565
   99MOL0     C13270   5.660  10.388  -0.194  0.3787  0.7560 -0.0188
   99MOL0     C13271   5.562  10.498  -0.147  0.0534  0.6752  0.5321
   99MOL0     C13272   5.477  10.550  -0.262  0.7395  1.3807  0.3561
   99MOL0     C13273   5.545  10.617  -0.379 -0.5801 -0.6437  1.2385
   99MOL0     C13274   5.640  10.745  -0.351 -0.0430  0.3445 -0.6855
   99MOL0    Cl13275   5.539  10.887  -0.263 -0.1499 -0.2556  0.0489
   99MOL0     C13276   6.126  10.260   0.177 -0.0922 -0.0444  1.0292
   99MOL0     C13277   6.259  10.288   0.180 -0.0923  0.1936 -0.3000
   99MOL0     O13278   6.558  10.124   0.007 -0.2435  0.1163  0.9518
   99MOL0     C13279   6.735  10.417   0.129 -0.3298 -0.2500  0.0788
   99MOL0     C13280   6.858  10.462   0.171 -0.9683  0.6854 -0.5461
   99MOL0     N13281   6.979  10.168   0.686  0.5391 -0.4250  0.1515
   99MOL0     N13282   6.991  10.096   0.785 -0.2850  0.3157  0.4287
   99MOL0     C13283   6.889   9.665   1.108  0.8537  0.9103  0.4995
   99MOL0     C13284   6.939   9.564   1.016 -0.9118 -0.1823 -0.1806
   99MOL0     C13285   7.024   9.298   0.670 -0.6043  1.0453 -0.5459
   99MOL0     C13286   7.144   9.337   0.609 -0.0102 -0.4245 -0.3432
   99MOL0     C13287   7.194   9.263   0.498  0.7175 -0.2970  0.1746
   99MOL0     C13288   7.114   9.162   0.432 -0.1470 -0.0835 -0.1791
   99MOL0     O13289   7.165   9.118   0.312  0.0531  0.0312 -1.0820
   99MOL0     C13290   7.125   8.994   0.255 -0.5345 -0.1346  0.2027
   99MOL0     C13291   7.194   8.962   0.126 -0.1344  0.3572  0.3186
   99MOL0     C13292   7.349   8.956   0.137  0.4418  0.5423 -0.3630
   99MOL0     C13293   7.407   9.090   0.102 -1.2840 -0.5762  0.0546
   99MOL0     C13294   7.553   9.084   0.083 -0.5709 -0.0149  1.4097
   99MOL0     C13295   7.675   9.084   0.085  0.2712  0.4621  0.3508
   99MOL0     C13296   6.992   9.129   0.490  0.1987 -0.1324  0.3861
   99MOL0     C13297   6.948   9.187   0.609 -0.6546 -1.0064 -0.5228
   99MOL0     H13298   6.979   9.742   0.751 -0.2689  0.4489 -0.1959
   99MOL0     H13299   6.865   9.919   0.893 -2.3495  0.0940 -0.7662
   99MOL0     H13300   6.767  10.002   1.306 -0.0286 -0.4368  2.8619
   99MOL0     H13301   6.720   9.837   1.313 -1.3844 -0.4248 -1.6017
   99MOL0     H13302   6.908   9.921   1.454 -0.9006  1.5264 -0.7960
   99MOL0     H13303   6.959   9.776   1.370 -1.4161 -0.5465 -0.6827
   99MOL0     H13304   7.135   9.949   1.377 -2.0652 -2.3082  1.8647
   99MOL0     H13305   7.099   9.912   1.211 -0.1997  1.1915 -0.8143
   99MOL0     H13306   6.963  10.138   1.217  1.0977  0.2396 -1.1880
   99MOL0     H13307   6.965  10.131   1.393 -1.8839  1.6262 -1.2827
   99MOL0     H13308   7.107  10.283   1.330  0.6854 -1.2288  3.9822
   99MOL0     H13309   7.206  10.153   1.405  1.7540  0.8837 -0.0770
   99MOL0     H13310   7.323  10.239   1.196  2.5982 -2.5974 -0.6878
   99MOL0     H13311   7.291  10.073   1.176 -1.1922 -1.3701  0.0990
   99MOL0     H13312   7.084  10.272   1.058 -0.7286 -1.1171 -1.9763
   99MOL0     H13313   7.248  10.260   0.996  1.0785  0.6148  0.4387
   99MOL0     H13314   7.044  10.039   1.017  0.9374 -1.1476  1.5943
   99MOL0     H13315   7.212  10.004   0.973 -0.3162 -0.1897 -0.2145
   99MOL0     H13316   7.284  10.224   0.747 -0.1876 -1.5816 -1.3106
   99MOL0     H13317   7.044  10.275   0.432  1.4647 -0.1522 -0.4727
   99MOL0     H13318   7.093  10.415   0.528 -1.3264  0.3071 -1.6686
   99MOL0     H13319   7.300  10.212   0.493 -0.9491  0.4265  1.7198
   99MOL0     H13320   7.305  10.378   0.435  0.7586  0.4840  1.9387
   99MOL0     H13321   7.163  10.170   0.276 -0.3519  0.6472  0.0470
   99MOL0     H13322   7.337  10.197   0.266  2.3550  1.4014  1.7699
   99MOL0     H13323   7.225  10.314   0.083 -3.0556 -1.9215  1.3707
   99MOL0     H13324   7.297  10.431   0.192  0.7164 -1.4620 -0.5516
   99MOL0     H13325   7.036  10.205   0.048  0.2123  0.0127  0.7586
   99MOL0     H13326   6.755  10.102  -0.125 -0.4652 -3.3450  0.6718
   99MOL0     H13327   6.936  10.088  -0.090  1.8367 -3.1503  1.6838
   99MOL0     H13328   6.823  10.011   0.014  2.3268  0.0781 -0.3155
   99MOL0     H13329   6.339  10.246  -0.147 -1.8385  0.4819 -1.0646
   99MOL0     H13330   6.112  10.203  -0.166 -0.2998 -0.3585 -0.0371
   99MOL0     H13331   5.917  10.018  -0.079  0.4644  0.2799  0.9698
   99MOL0     H13332   5.778  10.063   0.005 -0.2938 -0.4789 -2.6776
   99MOL0     H13333   5.909  10.248  -0.184  0.3088 -0.8146  0.3249
   99MOL0     H13334   5.761  10.143  -0.211 -1.0086 -0.1770  0.8002
   99MOL0     H13335   5.809  10.391  -0.032  0.3048 -0.2101 -0.0763
   99MOL0     H13336   5.674  10.284  -0.006 -2.8065 -0.1515 -1.9132
   99MOL0     H13337   5.729  10.424  -0.271 -0.5675 -1.7125 -2.1394
   99MOL0     H13338   5.585  10.324  -0.240 -3.1262  4.0746  0.5115
   99MOL0     H13339   5.624  10.579  -0.106  0.7082  0.8350 -0.7148
   99MOL0     H13340   5.496  10.462  -0.067  2.0454  2.8793  3.4047
   99MOL0     H13341   5.428  10.458  -0.293  2.8311  1.0472 -2.3807
   99MOL0     H13342   5.405  10.624  -0.226 -0.5076 -0.3817  1.6553
   99MOL0     H13343   5.466  10.651  -0.447  2.4044 -0.6321 -2.6077
   99MOL0     H13344   5.607  10.545  -0.434 -0.4340  1.0610 -0.9532
   99MOL0     H13345   5.671  10.785  -0.448 -1.0303  1.4145 -0.5763
   99MOL0     H13346   5.723  10.714  -0.287 -0.2024  2.0587  0.4055
   99MOL0     H13347   6.067  10.281   0.266  0.0624 -0.1279  1.1521
   99MOL0     H13348   6.312  10.321   0.269  1.2013  1.0544 -1.3538
   99MOL0     H13349   6.653  10.481   0.161 -2.7422 -1.5111 -3.0521
   99MOL0     H13350   6.881  10.555   0.220 -0.5510 -0.4947  1.5977
   99MOL0     H13351   6.875   9.639   1.212  1.9634 -0.1765  0.3963
   99MOL0     H13352   6.948   9.462   1.049  0.6075 -0.2826 -0.8550
   99MOL0     H13353   7.202   9.426   0.630 -1.4350  0.9629 -2.0596
   99MOL0     H13354   7.290   9.288   0.452  0.4427 -0.5008 -0.5229
   99MOL0     H13355   7.159   8.921   0.329  0.2671  0.6820  0.6559
   99MOL0     H13356   7.016   8.992   0.243 -0.3910  0.2247 -1.3155
   99MOL0     H13357   7.158   9.042   0.061 -3.0522 -0.5423  0.6909
   99MOL0     H13358   7.160   8.869   0.082 -0.0480 -1.5137  3.8390
   99MOL0     H13359   7.396   8.877   0.077 -0.3746 -2.7506  2.9568
   99MOL0     H13360   7.376   8.926   0.239 -2.6894 -2.8192 -0.3180
   99MOL0     H13361   7.378   9.162   0.180 -0.6680  0.7785 -0.9363
   99MOL0     H13362   7.368   9.125   0.006  1.3930 -1.2403 -1.3882
   99MOL0     H13363   7.780   9.067   0.092 -0.0538 -1.2324  1.9021
   99MOL0     H13364   6.938   9.044   0.450  1.2067  0.0352 -1.4423
   99MOL0     H13365   6.849   9.158   0.642 -1.0683  1.5368  0.7131
  100MOL0     O13366   8.004   3.781  11.190 -0.4088 -0.0543  0.1970
  100MOL0     C13367   8.038   3.670  11.140  0.4943  0.2439 -0.6216
  100MOL0     O13368   7.959   3.567  11.098  0.8647  0.1993 -0.9742
  100MOL0     C13369   7.821   3.585  11.102  0.0269 -0.8540  0.4304
  100MOL0     C13370   7.748   3.650  11.199  0.2980  0.2999 -1.0041
  100MOL0     C13371   7.610   3.667  11.196  0.2781  0.8646 -0.7319
  100MOL0     C13372   7.536   3.605  11.095  1.0132  0.8410 -0.6450
  100MOL0     O13373   7.399   3.587  11.085  0.0239  0.5191 -0.1432
  100MOL0     C13374   7.313   3.664  11.173  0.0172 -0.3217  0.6333
  100MOL0     C13375   7.162   3.620  11.144  0.3144  0.3812  0.3601
  100MOL0     C13376   7.109   3.632  11.003 -0.7090  0.1664  0.2321
  100MOL0     C13377   6.960   3.607  10.996  0.2336  0.4329 -1.2015
  100MOL0     C13378   6.899   3.624  10.856 -0.6341  0.2300  0.8542
  100MOL0     C13379   6.930   3.508  10.759  0.3882 -0.1460  0.3673
  100MOL0     C13380   6.899   3.559  10.621  0.4055  0.0881  0.0800
  100MOL0     C13381   6.958   3.475  10.514 -0.3374  0.3731 -0.1418
  100MOL0     N13382   6.912   3.334  10.519 -0.1348  0.2121 -0.2658
  100MOL0     C13383   6.789   3.286  10.570  0.1953 -0.4684 -0.4079
  100MOL0     C13384   6.799   3.154  10.567 -0.1091 -0.5009  0.1927
  100MOL0     C13385   6.702   3.067  10.648  1.1058 -0.0054  0.2941
  100MOL0     C13386   6.592   3.006  10.558 -0.0089  0.2246  0.1824
  100MOL0     C13387   6.475   3.105  10.523  0.1853 -0.2912  0.5895
  100MOL0     C13388   6.356   3.037  10.462 -0.6613  0.0395  0.0797
  100MOL0     O13389   6.287   2.954  10.551  0.7923 -0.5180 -1.0828
  100MOL0     C13390   6.151   2.972  10.571 -0.1420  0.2116  0.1710
  100MOL0     C13391   6.068   2.859  10.578  0.4776  0.2349  0.3837
  100MOL0     C13392   5.928   2.862  10.595  0.5334  0.4349 -0.4330
  100MOL0     C13393   5.866   2.722  10.624  0.6805 -0.1924  0.5856
  100MOL0     C13394   5.864   2.988  10.601 -1.5313  0.3437 -0.0569
  100MOL0     C13395   5.727   3.008  10.629  0.3194 -0.9439  0.8633
  100MOL0     O13396   5.701   3.145  10.638  0.0935 -0.9035  0.6334
  100MOL0     C13397   5.566   3.162  10.661 -0.4586  0.1520 -0.3527
  100MOL0     C13398   5.465   3.157  10.564 -0.9271 -0.4687 -0.1074
  100MOL0     C13399   5.327   3.172  10.590  0.3425 -0.2670  0.4121
  100MOL0     C13400   5.292   3.205  10.725  0.4601 -0.0457 -0.7950
  100MOL0     O13401   5.157   3.205  10.753 -0.5274  0.8285 -0.0276
  100MOL0     C13402   5.071   3.320  10.715  0.2871 -0.1739 -0.4372
  100MOL0     C13403   5.083   3.439  10.804  0.1535  0.1268  0.1586
  100MOL0     C13404   5.195   3.536  10.788  0.4911  0.0377  0.9180
  100MOL0     C13405   5.224   3.567  10.645  0.8243 -0.2026 -0.3175
  100MOL0     C13406   5.331   3.672  10.632 -0.7813 -0.1676  0.5626
  100MOL0     C13407   5.463   3.616  10.688  0.7306  0.3748  0.0923
  100MOL0     C13408   5.588   3.698  10.656  0.0774  0.3369  0.0569
  100MOL0     C13409   5.717   3.642  10.715 -0.5071  0.6407  0.0384
  100MOL0    Cl13410   5.770   3.487  10.646  0.1474 -0.1059 -0.0062
  100MOL0     C13411   5.389   3.229  10.821 -0.3225  0.2874 -0.3269
  100MOL0     C13412   5.532   3.197  10.796  1.1187  0.6043  0.0566
  100MOL0     O13413   5.644   2.918  10.636 -0.3942 -0.0226 -0.1113
  100MOL0     C13414   5.954   3.108  10.589  0.4750 -0.2954 -0.5345
  100MOL0     C13415   6.087   3.100  10.573  0.0188 -0.5192  0.3028
  100MOL0     N13416   6.919   3.120  10.523  0.0815 -0.2076  0.8039
  100MOL0     N13417   6.989   3.227  10.488 -0.1686 -0.1161 -0.2509
  100MOL0     C13418   7.606   3.536  10.997  0.0472  0.1279 -0.9273
  100MOL0     C13419   7.744   3.537  10.991  0.0291  1.2238 -0.1471
  100MOL0     C13420   8.182   3.647  11.142 -0.6548  0.7731  0.8444
  100MOL0     C13421   8.243   3.514  11.145  0.9382  0.7571  0.3395
  100MOL0     C13422   8.381   3.495  11.148 -1.3226 -0.1083 -0.6676
  100MOL0     C13423   8.468   3.599  11.170  0.1165  0.3060 -0.6108
  100MOL0     O13424   8.601   3.562  11.201 -0.4404 -0.4425 -0.0577
  100MOL0     C13425   8.696   3.661  11.248 -0.6011  0.9535  0.0397
  100MOL0     C13426   8.823   3.569  11.276  0.1485 -0.5220  0.1347
  100MOL0     C13427   8.815   3.513  11.420 -0.1787  0.0935 -0.7762
  100MOL0     C13428   8.929   3.419  11.452  0.1075 -0.5149  0.7685
  100MOL0     C13429   8.901   3.340  11.569  0.3773  0.1291  0.3524
  100MOL0     C13430   8.883   3.279  11.672 -0.6422 -0.0766 -1.0931
  100MOL0     C13431   8.408   3.726  11.179 -1.1098 -0.2967  0.0175
  100MOL0     C13432   8.274   3.751  11.170  0.6561  0.3193  0.4836
  100MOL0     H13433   7.808   3.676  11.286 -1.2035 -2.3323  0.9640
  100MOL0     H13434   7.561   3.722  11.276  2.0423 -0.9300  1.7302
  100MOL0     H13435   7.337   3.646  11.278  5.0456  1.2229  0.0210
  100MOL0     H13436   7.310   3.772  11.158 -3.4313 -0.3041  0.7569
  100MOL0     H13437   7.151   3.523  11.192  2.8387 -0.2333 -0.1165
  100MOL0     H13438   7.101   3.692  11.199 -0.0164  0.6940 -0.4017
  100MOL0     H13439   7.122   3.734  10.965 -2.8082  0.2251 -0.4548
  100MOL0     H13440   7.165   3.575  10.928 -2.9324  0.2099 -1.5802
  100MOL0     H13441   6.943   3.504  11.028 -1.7323  1.0112 -0.2326
  100MOL0     H13442   6.916   3.679  11.066  1.2482 -2.0751  2.2871
  100MOL0     H13443   6.792   3.646  10.864 -0.5970  0.1865  1.5366
  100MOL0     H13444   6.953   3.712  10.821  0.0392 -1.1479 -1.7653
  100MOL0     H13445   7.037   3.488  10.753  0.6133  1.0907  0.0054
  100MOL0     H13446   6.857   3.429  10.781 -1.1307  0.6653 -1.4706
  100MOL0     H13447   6.793   3.586  10.615  0.6522  0.8711 -1.2572
  100MOL0     H13448   6.958   3.651  10.621  1.0433 -0.3174  0.2065
  100MOL0     H13449   7.066   3.469  10.526 -0.1511  0.8298 -1.4568
  100MOL0     H13450   6.947   3.514  10.413 -1.0147  0.2326 -0.1296
  100MOL0     H13451   6.717   3.331  10.637  0.7998  0.5263 -0.4144
  100MOL0     H13452   6.760   2.994  10.705 -3.0698 -0.3942  4.6991
  100MOL0     H13453   6.645   3.128  10.718 -1.5009  0.9418 -2.4311
  100MOL0     H13454   6.547   2.925  10.616  0.5704  1.1298  1.9893
  100MOL0     H13455   6.628   2.965  10.464 -2.9801  0.3710 -1.1198
  100MOL0     H13456   6.515   3.185  10.461 -0.3600 -0.4657 -0.0059
  100MOL0     H13457   6.441   3.144  10.619 -1.5966  1.8707 -0.7986
  100MOL0     H13458   6.379   2.969  10.379 -1.3017 -1.4773  1.1113
  100MOL0     H13459   6.291   3.111  10.415  0.2805  0.2389 -0.9750
  100MOL0     H13460   6.102   2.757  10.559 -2.3878 -0.2629 -3.0771
  100MOL0     H13461   5.916   2.644  10.565 -0.5551 -1.9575  1.8096
  100MOL0     H13462   5.867   2.691  10.728 -0.6720  1.4505  1.1301
  100MOL0     H13463   5.763   2.714  10.588  1.2358  0.6593 -1.3303
  100MOL0     H13464   5.494   3.117  10.467  0.9425 -2.2821  1.1229
  100MOL0     H13465   5.255   3.142  10.515  0.4866 -0.6657  0.4310
  100MOL0     H13466   5.073   3.338  10.607  2.7107 -0.6944 -0.5306
  100MOL0     H13467   4.972   3.289  10.749 -1.0287  1.5802 -2.4546
  100MOL0     H13468   4.994   3.499  10.788  1.3101  1.5515 -1.2067
  100MOL0     H13469   5.085   3.399  10.906  0.4933 -1.7328 -0.5256
  100MOL0     H13470   5.285   3.488  10.826  1.3880  1.1863  0.2960
  100MOL0     H13471   5.181   3.626  10.849  1.4307  0.5880  0.3380
  100MOL0     H13472   5.251   3.474  10.593  1.0390 -0.7576  0.7449
  100MOL0     H13473   5.127   3.605  10.612  0.6588  2.9925  3.2389
  100MOL0     H13474   5.302   3.760  10.690 -0.5931 -1.2385  2.3256
  100MOL0     H13475   5.351   3.698  10.527  2.6630 -1.7329  0.6760
  100MOL0     H13476   5.457   3.604  10.797 -3.1215 -2.0481 -0.1945
  100MOL0     H13477   5.475   3.518  10.641 -1.9603 -0.5183  1.0339
  100MOL0     H13478   5.574   3.803  10.683 -2.6200  0.4093 -1.3301
  100MOL0     H13479   5.604   3.692  10.548 -0.8687 -2.0418 -0.0022
  100MOL0     H13480   5.703   3.627  10.823 -1.0608  0.2976 -0.0731
  100MOL0     H13481   5.803   3.707  10.700  1.9249 -2.4029 -0.2605
  100MOL0     H13482   5.362   3.246  10.924  0.0451  0.4501 -0.2545
  100MOL0     H13483   5.602   3.202  10.879  0.5193 -1.7273  0.7772
  100MOL0     H13484   5.921   3.210  10.607  1.9645  0.0127  0.6984
  100MOL0     H13485   6.150   3.187  10.585 -1.6232  0.8043 -0.1931
  100MOL0     H13486   7.544   3.483  10.925  1.7002 -1.6457 -1.1451
  100MOL0     H13487   7.783   3.486  10.904 -4.3940  0.9679 -2.2454
  100MOL0     H13488   8.179   3.427  11.135  1.3556  0.1534  2.4503
  100MOL0     H13489   8.423   3.396  11.159 -0.2119  0.5316  1.5096
  100MOL0     H13490   8.715   3.734  11.169 -1.3349 -0.7227 -1.7824
  100MOL0     H13491   8.666   3.708  11.342 -0.1084 -0.7669  1.1045
  100MOL0     H13492   8.911   3.632  11.263  0.4414 -0.9467  0.0609
  100MOL0     H13493   8.834   3.497  11.195 -0.5457  1.0093 -1.4055
  100MOL0     H13494   8.720   3.460  11.435 -1.0230  1.8554  0.5450
  100MOL0     H13495   8.810   3.595  11.492 -0.4170 -0.4614 -0.1454
  100MOL0     H13496   9.017   3.482  11.470 -0.6129  0.5819  0.5810
  100MOL0     H13497   8.948   3.347  11.372  1.3056 -2.6648  2.8370
  100MOL0     H13498   8.880   3.225  11.765 -1.6400  0.7340 -0.6435
  100MOL0     H13499   8.466   3.814  11.205  0.2282 -1.5731  1.6082
  100MOL0     H13500   8.227   3.845  11.197  0.2103 -0.2457  1.8032
  101MOL0     O13501   6.970   5.790   0.386  0.6503  0.7121  0.2178
  101MOL0     C13502   7.054   5.788   0.290 -0.3130  0.7175 -0.3528
  101MOL0     O13503   7.062   5.690   0.189 -0.2566  0.9705 -0.2422
  101MOL0     C13504   6.987   5.577   0.174  0.6633  0.2395 -0.7052
  101MOL0     C13505   6.997   5.504   0.057  1.1815  0.7110  0.6533
  101MOL0     C13506   6.924   5.391   0.030  1.5043  0.3283  0.0440
  101MOL0     C13507   6.836   5.338   0.122 -0.3267 -0.8749 -0.1274
  101MOL0     O13508   6.754   5.236   0.086  0.4162 -0.1586 -0.5069
  101MOL0     C13509   6.706   5.161   0.197 -0.3860  1.3720  0.5308
  101MOL0     C13510   6.623   5.040   0.135  0.9516 -0.7520  0.7217
  101MOL0     C13511   6.564   4.936   0.234  0.1473  0.6486  0.0992
  101MOL0     C13512   6.444   4.859   0.163 -0.8397 -0.6395 -0.6745
  101MOL0     C13513   6.374   4.748   0.234  0.2238  0.8374  0.6128
  101MOL0     C13514   6.298   4.786   0.359  0.7837  0.1658  0.4704
  101MOL0     C13515   6.173   4.878   0.334  0.1528  0.2896 -0.5048
  101MOL0     C13516   6.093   4.908   0.456  0.0793  0.7018 -0.6576
  101MOL0     N13517   6.008   5.024   0.448  0.5424  0.3142 -0.7882
  101MOL0     C13518   5.913   5.038   0.350  0.6470  0.3337 -0.4979
  101MOL0     C13519   5.880   5.171   0.349  0.7670  0.1436 -1.3081
  101MOL0     C13520   5.766   5.224   0.256 -0.3165  0.3931 -0.9057
  101MOL0     C13521   5.655   5.276   0.354  0.7537  0.0230  0.5630
  101MOL0     C13522   5.536   5.185   0.369  0.9064 -0.8419  0.2835
  101MOL0     C13523   5.561   5.046   0.440 -0.3525 -0.9012  0.3410
  101MOL0     O13524   5.439   4.990   0.486 -0.7591  0.0186 -0.1791
  101MOL0     C13525   5.364   5.050   0.584 -0.0144  0.0030  0.4763
  101MOL0     C13526   5.407   5.149   0.670 -0.1044  0.4310  0.0027
  101MOL0     C13527   5.319   5.200   0.758  0.9496  1.0128 -0.5164
  101MOL0     C13528   5.382   5.283   0.872  0.1944 -0.1387 -0.0283
  101MOL0     C13529   5.183   5.158   0.762 -0.3324 -0.4080 -0.5517
  101MOL0     C13530   5.085   5.226   0.862 -0.0873  0.0934 -0.2533
  101MOL0     O13531   4.976   5.148   0.884  0.3657 -0.6174 -0.0827
  101MOL0     C13532   4.850   5.205   0.898 -0.0466 -0.7994 -0.3447
  101MOL0     C13533   4.822   5.343   0.875 -0.5700 -0.4017 -1.3511
  101MOL0     C13534   4.695   5.392   0.890 -0.0738  0.1672  0.1369
  101MOL0     C13535   4.595   5.312   0.945  0.8197  0.1385  0.8775
  101MOL0     O13536   4.465   5.340   0.935  0.2615 -0.2872 -0.8760
  101MOL0     C13537   4.414   5.392   0.808  0.3502  0.1092  0.3914
  101MOL0     C13538   4.298   5.308   0.754 -0.6586 -0.1474 -0.3629
  101MOL0     C13539   4.201   5.248   0.852 -0.3696 -0.7786 -0.4181
  101MOL0     C13540   4.116   5.365   0.916  0.0509 -0.2312  0.5579
  101MOL0     C13541   4.002   5.313   0.997 -0.0874  0.1579  0.2660
  101MOL0     C13542   3.907   5.434   1.032  0.2334  0.8598  0.2764
  101MOL0     C13543   3.779   5.402   1.104 -0.0971 -0.5501 -0.4686
  101MOL0     C13544   3.793   5.362   1.248 -0.0796  0.1313  0.3964
  101MOL0    Cl13545   3.801   5.508   1.345  0.0015  0.6035  0.2675
  101MOL0     C13546   4.622   5.178   0.964  0.0073  0.4127 -0.6752
  101MOL0     C13547   4.748   5.126   0.957 -0.7181 -0.2137  0.4819
  101MOL0     O13548   5.108   5.334   0.918 -0.3139 -0.1576 -0.1917
  101MOL0     C13549   5.149   5.049   0.682 -0.2416 -0.5622 -0.2167
  101MOL0     C13550   5.235   5.000   0.587 -0.2063 -0.0363 -0.9153
  101MOL0     N13551   5.951   5.237   0.448 -0.9446 -0.0408  0.1860
  101MOL0     N13552   6.032   5.148   0.503 -0.3819 -0.1039 -0.1846
  101MOL0     C13553   6.828   5.399   0.251 -0.4158 -1.0923 -0.1680
  101MOL0     C13554   6.908   5.522   0.269 -0.6105  0.5935 -0.2628
  101MOL0     C13555   7.162   5.894   0.277  0.1907  0.2930 -0.4533
  101MOL0     C13556   7.255   5.884   0.171  0.9187  0.0073 -0.0298
  101MOL0     C13557   7.361   5.972   0.165  0.4100 -0.1155 -0.3323
  101MOL0     C13558   7.372   6.078   0.258  0.1143  0.3224 -0.2073
  101MOL0     O13559   7.481   6.153   0.235  1.1405 -0.3131 -0.5482
  101MOL0     C13560   7.430   6.293   0.236 -0.8828  0.5360 -0.7320
  101MOL0     C13561   7.485   6.358   0.113  0.5351 -0.2227  0.3528
  101MOL0     C13562   7.463   6.508   0.102  0.0153  0.3886  0.1585
  101MOL0     C13563   7.308   6.538   0.114  0.5907 -0.3191  0.0870
  101MOL0     C13564   7.280   6.668   0.043  0.1015 -1.0003 -0.2186
  101MOL0     C13565   7.270   6.768  -0.024 -0.1168 -0.5296  0.1708
  101MOL0     C13566   7.281   6.077   0.362 -0.6718 -0.4301 -0.2427
  101MOL0     C13567   7.173   5.991   0.375  0.2426  0.0997 -0.4090
  101MOL0     H13568   7.059   5.534  -0.027  0.7828  1.1414  0.5083
  101MOL0     H13569   6.932   5.345  -0.068 -0.4688  2.9034 -1.4792
  101MOL0     H13570   6.788   5.120   0.257  1.0626  1.1539 -1.5040
  101MOL0     H13571   6.632   5.219   0.253 -3.2194 -1.9021  0.4840
  101MOL0     H13572   6.558   5.081   0.057  0.8919  2.2733  2.2170
  101MOL0     H13573   6.685   4.975   0.073  0.3688 -1.3266  0.7385
  101MOL0     H13574   6.637   4.858   0.254 -0.4443 -0.2288 -1.0589
  101MOL0     H13575   6.539   4.994   0.324  0.5053  1.3515 -0.2400
  101MOL0     H13576   6.373   4.936   0.130 -1.3574 -1.6753 -2.0571
  101MOL0     H13577   6.478   4.816   0.069 -0.5939  0.0950 -0.9284
  101MOL0     H13578   6.310   4.703   0.158  1.4245 -0.1786  0.1656
  101MOL0     H13579   6.442   4.665   0.256  0.6566  0.9682 -0.2272
  101MOL0     H13580   6.273   4.703   0.426  1.3524  0.0634  0.5647
  101MOL0     H13581   6.362   4.852   0.419 -2.6343  1.9215  2.5040
  101MOL0     H13582   6.222   4.971   0.302  3.5468 -0.5274  1.7969
  101MOL0     H13583   6.098   4.834   0.268  0.2969  0.0591 -0.5118
  101MOL0     H13584   6.171   4.942   0.525  0.0805  3.5750 -1.9137
  101MOL0     H13585   6.041   4.822   0.499 -1.8630  2.2754  0.3063
  101MOL0     H13586   5.882   4.964   0.278  3.3571 -1.7943  0.3198
  101MOL0     H13587   5.811   5.301   0.192 -1.6586 -0.4211 -2.9035
  101MOL0     H13588   5.725   5.144   0.195 -2.6581  0.3546  0.5866
  101MOL0     H13589   5.614   5.368   0.311  0.3831 -1.1607 -1.7380
  101MOL0     H13590   5.704   5.303   0.448 -1.2805 -1.4578  2.1372
  101MOL0     H13591   5.489   5.181   0.271 -0.0096  1.5036  0.5698
  101MOL0     H13592   5.465   5.235   0.436 -1.5274 -1.6341 -1.5756
  101MOL0     H13593   5.629   5.059   0.525 -1.9289 -1.9756  1.8276
  101MOL0     H13594   5.612   4.974   0.376  1.0830  1.7750 -1.7518
  101MOL0     H13595   5.512   5.176   0.675 -0.6019  2.4980 -0.0229
  101MOL0     H13596   5.343   5.278   0.974 -2.0771  2.2776 -0.6875
  101MOL0     H13597   5.490   5.262   0.870  0.6474  1.5313  2.7718
  101MOL0     H13598   5.376   5.388   0.843  1.8239  0.0893  0.3365
  101MOL0     H13599   4.893   5.419   0.842 -4.1637  2.1413 -3.9823
  101MOL0     H13600   4.659   5.489   0.857 -3.7306 -0.5749  1.4816
  101MOL0     H13601   4.368   5.491   0.815  0.3330  0.0901  0.5539
  101MOL0     H13602   4.482   5.380   0.723 -1.8052  0.5912 -1.4845
  101MOL0     H13603   4.249   5.361   0.672 -0.0505 -0.0027 -0.6401
  101MOL0     H13604   4.342   5.220   0.706  0.4133  0.1301  0.0936
  101MOL0     H13605   4.260   5.187   0.922 -1.4930 -1.5082 -0.0817
  101MOL0     H13606   4.139   5.183   0.789  0.1426 -0.5523 -1.1686
  101MOL0     H13607   4.171   5.430   0.984  0.8203 -1.0456  0.7368
  101MOL0     H13608   4.061   5.416   0.836 -1.6106 -1.8839  0.5700
  101MOL0     H13609   4.049   5.266   1.084 -0.4170 -2.0759 -0.6916
  101MOL0     H13610   3.942   5.241   0.941  2.6108 -1.4856 -0.6593
  101MOL0     H13611   3.958   5.507   1.096  0.4735  0.0957  0.9767
  101MOL0     H13612   3.878   5.496   0.947  0.0667 -0.5093 -0.6840
  101MOL0     H13613   3.727   5.318   1.057 -0.6304 -0.9385  0.7540
  101MOL0     H13614   3.711   5.487   1.102 -0.2168 -0.5696  1.1923
  101MOL0     H13615   3.889   5.311   1.262 -0.1416 -0.2076 -0.3421
  101MOL0     H13616   3.713   5.302   1.294 -0.5337 -0.1680 -0.7459
  101MOL0     H13617   4.537   5.131   1.013  0.2646  1.4563  0.8410
  101MOL0     H13618   4.792   5.035   0.996 -0.0367 -0.2790 -0.4280
  101MOL0     H13619   5.045   5.017   0.687 -0.8762  1.5463  1.3860
  101MOL0     H13620   5.190   4.915   0.536 -0.1205 -0.3943 -0.4071
  101MOL0     H13621   6.780   5.360   0.341  0.5385  0.5157  1.1085
  101MOL0     H13622   6.879   5.575   0.360  0.2081  1.8142 -0.6820
  101MOL0     H13623   7.252   5.818   0.085  2.9419  1.1947 -1.0974
  101MOL0     H13624   7.433   5.977   0.084 -0.6721 -1.1083 -1.3919
  101MOL0     H13625   7.321   6.296   0.234 -0.9149  0.6669  0.7062
  101MOL0     H13626   7.460   6.349   0.325 -1.8772 -0.0965  0.0236
  101MOL0     H13627   7.434   6.321   0.023  3.0082 -0.3263 -1.1160
  101MOL0     H13628   7.592   6.337   0.104  0.2362 -1.0355 -2.0310
  101MOL0     H13629   7.493   6.538   0.001  1.0934  1.6632  0.8122
  101MOL0     H13630   7.510   6.569   0.180 -3.4005  1.4285  1.6236
  101MOL0     H13631   7.284   6.548   0.220 -0.4627 -2.6950  0.1399
  101MOL0     H13632   7.232   6.472   0.070 -2.8368  2.4672  1.4106
  101MOL0     H13633   7.244   6.855  -0.081 -1.3012 -0.5950  0.5988
  101MOL0     H13634   7.301   6.146   0.443 -1.6714  0.7297 -0.9447
  101MOL0     H13635   7.100   6.014   0.452 -2.4922 -0.3968 -2.6598
  102MOL0     O13636   7.253  10.744   4.779 -0.4885  0.4646 -0.0347
  102MOL0     C13637   7.265  10.752   4.652 -0.3549 -0.0920  0.3757
  102MOL0     O13638   7.166  10.749   4.564  0.4374 -0.3159  0.6373
  102MOL0     C13639   7.040  10.708   4.598  0.0566 -0.2126  0.0727
  102MOL0     C13640   6.944  10.735   4.503 -0.3568 -0.6526  0.8845
  102MOL0     C13641   6.816  10.692   4.527 -0.3997 -0.1681 -0.1906
  102MOL0     C13642   6.779  10.617   4.641 -0.0708  0.0141  0.2110
  102MOL0     O13643   6.647  10.580   4.645  0.0058  0.7307  0.1565
  102MOL0     C13644   6.612  10.444   4.667  0.4011 -0.8681  0.6532
  102MOL0     C13645   6.467  10.441   4.639  0.4554  0.2223  0.1104
  102MOL0     C13646   6.384  10.536   4.713  0.6299 -0.4168  0.2411
  102MOL0     C13647   6.237  10.510   4.686 -0.3118 -1.1739 -0.2599
  102MOL0     C13648   6.149  10.631   4.699 -0.1886 -0.0651  0.6515
  102MOL0     C13649   6.004  10.601   4.663  0.5311  0.1689 -0.5451
  102MOL0     C13650   5.923  10.730   4.663 -0.0179 -0.0261  0.1391
  102MOL0     C13651   5.778  10.722   4.694  0.1913  0.2473 -1.4210
  102MOL0     N13652   5.699  10.677   4.584  0.0496  0.4755 -0.5222
  102MOL0     C13653   5.703  10.559   4.509  0.3992 -0.7443 -0.0875
  102MOL0     C13654   5.597  10.567   4.424 -0.0283  0.4136  0.2701
  102MOL0     C13655   5.558  10.467   4.321  0.4452 -0.0841 -0.5297
  102MOL0     C13656   5.440  10.383   4.372 -0.1270  0.1525  0.3807
  102MOL0     C13657   5.347  10.341   4.264  1.0360  1.0381  1.0200
  102MOL0     C13658   5.229  10.277   4.334  0.4397 -0.3888  0.3900
  102MOL0     O13659   5.128  10.247   4.240 -0.0727 -0.3110 -0.1582
  102MOL0     C13660   5.007  10.209   4.297 -0.4062 -0.4396 -0.5301
  102MOL0     C13661   4.888  10.240   4.233 -0.6728  0.1455 -0.1571
  102MOL0     C13662   4.764  10.205   4.277  0.6925 -0.0532  0.0827
  102MOL0     C13663   4.652  10.249   4.180  0.0601  0.0635  0.3244
  102MOL0     C13664   4.747  10.138   4.398  0.2008 -1.3150  0.5496
  102MOL0     C13665   4.620  10.097   4.457  0.0201 -0.1325 -0.6144
  102MOL0     O13666   4.509  10.083   4.377 -0.3532 -0.2461  0.3496
  102MOL0     C13667   4.389  10.027   4.421 -0.1249 -0.4459 -0.9300
  102MOL0     C13668   4.287  10.045   4.330  0.5171 -0.6735  0.4146
  102MOL0     C13669   4.166   9.991   4.354  0.6613  0.2610 -0.5816
  102MOL0     C13670   4.123   9.932   4.470 -0.7641 -0.0536 -0.6073
  102MOL0     O13671   3.999   9.887   4.484  0.7066 -0.6418  0.8342
  102MOL0     C13672   3.942   9.914   4.614 -0.8858 -0.1574 -0.0854
  102MOL0     C13673   3.785   9.922   4.625  0.0446 -0.3924  0.3189
  102MOL0     C13674   3.702   9.811   4.553  0.5403 -0.1411  0.1699
  102MOL0     C13675   3.569   9.782   4.609 -0.5413 -0.2611 -0.7160
  102MOL0     C13676   3.510   9.650   4.561 -0.4160 -0.1498 -1.2210
  102MOL0     C13677   3.388   9.623   4.651  0.2920  0.1668 -0.5234
  102MOL0     C13678   3.296   9.515   4.592  0.0466  0.3254  0.0517
  102MOL0     C13679   3.155   9.558   4.606  0.4834  0.0601 -0.1764
  102MOL0    Cl13680   3.128   9.607   4.781 -0.5233 -0.1258  0.1866
  102MOL0     C13681   4.219   9.928   4.575 -0.2950  0.1836  0.1671
  102MOL0     C13682   4.352   9.962   4.544  0.0539  0.0506  0.2320
  102MOL0     O13683   4.627  10.054   4.574  0.3429 -0.2106  0.5308
  102MOL0     C13684   4.871  10.121   4.473  1.2188  1.3629 -0.1000
  102MOL0     C13685   4.994  10.154   4.430  0.7442 -0.1781 -0.1189
  102MOL0     N13686   5.539  10.686   4.447  0.0030  0.7571 -0.8592
  102MOL0     N13687   5.587  10.743   4.551  0.8483  0.5392 -0.1668
  102MOL0     C13688   6.880  10.591   4.729  0.1459  0.1123  0.3908
  102MOL0     C13689   7.007  10.628   4.708 -0.4082  0.2326  0.8300
  102MOL0     C13690   7.399  10.753   4.591 -0.3886  0.0853  0.4247
  102MOL0     C13691   7.510  10.739   4.682 -0.5468  0.1204 -0.0492
  102MOL0     C13692   7.638  10.758   4.634 -0.0184  0.0543  0.6540
  102MOL0     C13693   7.659  10.779   4.499  0.3292  0.8406  0.4231
  102MOL0     O13694   7.776  10.808   4.438  0.2175 -0.4640 -0.5053
  102MOL0     C13695   7.894  10.802   4.527 -0.8232 -0.0834  0.3205
  102MOL0     C13696   8.018  10.852   4.444 -1.4191  0.0838  0.0737
  102MOL0     C13697   8.161  10.840   4.522 -0.2699 -0.2510 -0.3661
  102MOL0     C13698   8.247  10.716   4.514 -0.8955  0.2483  0.3447
  102MOL0     C13699   8.380  10.719   4.585 -0.3284  0.0734 -0.7731
  102MOL0     C13700   8.486  10.724   4.644 -0.6783 -0.5975 -0.3735
  102MOL0     C13701   7.558  10.773   4.405 -0.4736  0.3380 -0.0823
  102MOL0     C13702   7.420  10.760   4.450 -0.6966 -0.7072 -0.9950
  102MOL0     H13703   6.976  10.787   4.412  0.3602 -1.7171  0.5127
  102MOL0     H13704   6.735  10.735   4.469 -0.0527  0.1997 -0.4091
  102MOL0     H13705   6.665  10.379   4.597  2.5187  2.6172 -1.2479
  102MOL0     H13706   6.623  10.417   4.772 -0.6017  0.5776  1.1544
  102MOL0     H13707   6.452  10.447   4.531  2.9184 -2.0014 -0.4663
  102MOL0     H13708   6.419  10.348   4.671 -0.0798  1.4503  3.3182
  102MOL0     H13709   6.409  10.523   4.819  2.6836  0.4288 -0.0854
  102MOL0     H13710   6.407  10.640   4.693  1.6481 -0.5858  0.4418
  102MOL0     H13711   6.236  10.482   4.580  1.9054 -0.4989 -0.5101
  102MOL0     H13712   6.191  10.427   4.740 -0.2712 -0.6499  0.5965
  102MOL0     H13713   6.150  10.662   4.804  0.1638  0.2787  0.5511
  102MOL0     H13714   6.192  10.723   4.657 -1.6746 -0.0263 -0.8674
  102MOL0     H13715   5.992  10.555   4.564  0.5459 -1.4432  0.1704
  102MOL0     H13716   5.962  10.538   4.742  0.3675 -0.6802 -1.2914
  102MOL0     H13717   5.978  10.807   4.718 -1.6603  2.0144 -0.9284
  102MOL0     H13718   5.926  10.770   4.561 -2.4431 -0.3822 -0.1320
  102MOL0     H13719   5.749  10.822   4.724 -1.6564 -1.1464  1.8949
  102MOL0     H13720   5.757  10.667   4.786  1.5346 -0.0923 -1.2930
  102MOL0     H13721   5.765  10.472   4.528  2.0643  0.7130  1.5328
  102MOL0     H13722   5.531  10.505   4.222  1.4285 -1.9417 -1.5694
  102MOL0     H13723   5.646  10.402   4.311  1.4332  1.1679 -0.1822
  102MOL0     H13724   5.393  10.435   4.456  0.8688 -1.0374  1.7284
  102MOL0     H13725   5.486  10.297   4.422 -0.9977  0.4438  1.7290
  102MOL0     H13726   5.395  10.269   4.198 -1.5650 -1.9011  2.0566
  102MOL0     H13727   5.324  10.429   4.203  3.1581  0.8912 -0.0701
  102MOL0     H13728   5.182  10.346   4.405 -1.9306  0.8019 -2.1671
  102MOL0     H13729   5.266  10.194   4.396  2.8104 -0.2499 -0.7420
  102MOL0     H13730   4.905  10.287   4.136  2.3840  0.4560  0.4262
  102MOL0     H13731   4.620  10.159   4.126  1.1009  0.4967 -1.0710
  102MOL0     H13732   4.572  10.302   4.231 -1.2522  0.1365 -1.6998
  102MOL0     H13733   4.702  10.312   4.106 -2.9266 -1.3505 -3.2277
  102MOL0     H13734   4.310  10.093   4.235  1.4956 -0.3346  0.8103
  102MOL0     H13735   4.091   9.993   4.275 -0.9103 -1.0343  0.7987
  102MOL0     H13736   3.984   9.830   4.670  3.2548  0.6044 -1.6409
  102MOL0     H13737   3.972  10.015   4.645 -1.0535  0.3696 -1.5455
  102MOL0     H13738   3.756   9.910   4.730 -1.4212 -1.9919 -0.2188
  102MOL0     H13739   3.753  10.021   4.594 -0.8503  0.0864  2.6039
  102MOL0     H13740   3.750   9.714   4.570  1.2269  0.0432 -0.6463
  102MOL0     H13741   3.691   9.845   4.450 -1.7832 -0.7532  0.1760
  102MOL0     H13742   3.577   9.775   4.718  1.7211 -3.6940 -0.9356
  102MOL0     H13743   3.501   9.865   4.590 -2.1225 -1.9733 -3.1299
  102MOL0     H13744   3.574   9.561   4.567  0.4976  0.5630 -0.1699
  102MOL0     H13745   3.486   9.669   4.456 -1.6700  1.4710 -0.6834
  102MOL0     H13746   3.405   9.600   4.757 -1.8552  0.4860 -0.0619
  102MOL0     H13747   3.329   9.715   4.654 -0.9814 -0.6277 -0.4824
  102MOL0     H13748   3.322   9.421   4.642  2.0705  1.7839  1.9553
  102MOL0     H13749   3.310   9.512   4.484  2.2913 -3.7926  0.2482
  102MOL0     H13750   3.085   9.480   4.572 -0.2827  0.5757  0.1832
  102MOL0     H13751   3.123   9.649   4.554  0.7465 -0.0841 -0.5973
  102MOL0     H13752   4.202   9.889   4.674 -1.8221  2.7787  1.0145
  102MOL0     H13753   4.419   9.951   4.629 -0.3598 -3.3136  0.2336
  102MOL0     H13754   4.859  10.076   4.571 -0.1510 -0.3655 -1.0159
  102MOL0     H13755   5.076  10.121   4.493  1.7010 -1.1381 -1.7919
  102MOL0     H13756   6.866  10.535   4.820 -0.2956  2.7253  2.0315
  102MOL0     H13757   7.077  10.602   4.787  0.6708 -1.4862 -0.6303
  102MOL0     H13758   7.487  10.714   4.785 -0.7926 -1.7839 -0.5282
  102MOL0     H13759   7.720  10.770   4.704  1.3924 -0.4579 -0.8466
  102MOL0     H13760   7.887  10.861   4.619  0.6189 -1.5337  1.4238
  102MOL0     H13761   7.903  10.699   4.565  4.4928 -0.9300 -2.2759
  102MOL0     H13762   7.996  10.956   4.421  0.5978  1.5362  3.7603
  102MOL0     H13763   8.032  10.796   4.351  1.6556 -1.3917  1.2786
  102MOL0     H13764   8.146  10.855   4.629  1.4965  0.1567 -0.1443
  102MOL0     H13765   8.226  10.926   4.506 -0.7696  1.1512  3.9323
  102MOL0     H13766   8.255  10.700   4.406 -0.1435  1.0861  0.2619
  102MOL0     H13767   8.197  10.629   4.556  0.9697 -0.5520  1.0126
  102MOL0     H13768   8.588  10.722   4.678  1.1780 -0.9501 -5.1887
  102MOL0     H13769   7.586  10.778   4.300  0.5877  0.1986  0.1843
  102MOL0     H13770   7.339  10.766   4.378 -1.7734  3.4430  0.3065
  103MOL0     O13771   2.560   6.296   6.581 -0.9436 -0.1103 -0.7217
  103MOL0     C13772   2.642   6.304   6.492 -0.9766 -0.1778  0.2453
  103MOL0     O13773   2.626   6.398   6.386 -0.2938  0.1389  0.5346
  103MOL0     C13774   2.495   6.438   6.354 -0.8200  0.1257  0.1204
  103MOL0     C13775   2.466   6.568   6.317  0.0595 -0.1952  0.6096
  103MOL0     C13776   2.338   6.607   6.278 -0.0347  0.1263  1.2386
  103MOL0     C13777   2.233   6.509   6.282  0.4313 -0.2418 -0.0561
  103MOL0     O13778   2.107   6.536   6.242  0.4269  0.0064  0.1571
  103MOL0     C13779   2.064   6.641   6.151  0.4506 -0.1916 -0.2694
  103MOL0     C13780   2.045   6.766   6.239 -0.2883  0.0516 -1.0338
  103MOL0     C13781   2.017   6.894   6.169  0.0422 -0.3220 -0.4247
  103MOL0     C13782   1.916   7.000   6.228  0.0224  1.6157  0.1387
  103MOL0     C13783   1.948   7.019   6.372 -0.6899  0.0789  0.6275
  103MOL0     C13784   2.085   7.075   6.408  0.1818 -0.3511 -0.0388
  103MOL0     C13785   2.146   7.180   6.322 -0.0392  0.5271 -0.2055
  103MOL0     C13786   2.272   7.233   6.386  0.5869  0.0955 -0.2016
  103MOL0     N13787   2.274   7.379   6.405  0.6345 -0.2477  0.5915
  103MOL0     C13788   2.280   7.471   6.295  1.2133  0.2705  0.6177
  103MOL0     C13789   2.270   7.587   6.362 -0.2661  0.4743  1.4966
  103MOL0     C13790   2.244   7.723   6.306  0.0815 -0.8546 -0.2151
  103MOL0     C13791   2.356   7.825   6.318 -0.5789 -0.5982  0.0227
  103MOL0     C13792   2.371   7.910   6.443 -0.3992 -0.3538 -0.7409
  103MOL0     C13793   2.505   7.995   6.461  0.3668 -0.1958  0.2409
  103MOL0     O13794   2.490   8.070   6.577  1.0332 -1.0676  0.1639
  103MOL0     C13795   2.547   8.191   6.574  0.0143 -0.6734 -0.0049
  103MOL0     C13796   2.475   8.308   6.608  0.4128  1.1807 -0.0475
  103MOL0     C13797   2.523   8.441   6.598 -0.7488  0.1372 -0.1840
  103MOL0     C13798   2.436   8.561   6.622 -0.4271 -0.5855  0.5694
  103MOL0     C13799   2.665   8.460   6.566  0.3946  0.2704  0.5805
  103MOL0     C13800   2.732   8.596   6.574  0.1153 -0.1447 -0.3607
  103MOL0     O13801   2.803   8.625   6.466  0.6282  0.0909 -0.5855
  103MOL0     C13802   2.859   8.749   6.462  0.5234 -0.4765  0.8561
  103MOL0     C13803   2.787   8.863   6.435 -0.1392 -0.1011  0.1814
  103MOL0     C13804   2.850   8.991   6.415  0.4449  0.7177 -0.3648
  103MOL0     C13805   2.989   9.001   6.435  0.1165  0.2780 -0.5630
  103MOL0     O13806   3.053   9.114   6.426  0.3811  0.8276  0.4558
  103MOL0     C13807   3.073   9.153   6.282 -0.2425  0.5709  0.0086
  103MOL0     C13808   3.200   9.079   6.225 -0.2977 -0.1838 -0.3724
  103MOL0     C13809   3.331   9.116   6.299 -0.5624  0.5988 -0.2291
  103MOL0     C13810   3.453   9.037   6.243 -0.2426 -0.5331 -0.7463
  103MOL0     C13811   3.573   9.037   6.333 -0.2389 -0.1689 -1.4398
  103MOL0     C13812   3.698   8.969   6.269  0.6275 -0.6204 -1.1131
  103MOL0     C13813   3.811   8.967   6.378  0.3444 -0.2179  0.2546
  103MOL0     C13814   3.946   8.929   6.320  0.0062  0.5314 -0.1447
  103MOL0    Cl13815   4.072   8.954   6.435  0.0121  0.0654 -0.3654
  103MOL0     C13816   3.066   8.883   6.477 -0.3637 -0.5383 -0.0639
  103MOL0     C13817   3.001   8.758   6.472 -0.3424 -0.3109 -0.8495
  103MOL0     O13818   2.717   8.662   6.681 -0.6047 -0.9026  0.7212
  103MOL0     C13819   2.738   8.344   6.523  0.2140 -0.9670  0.3374
  103MOL0     C13820   2.681   8.215   6.522 -0.3494 -0.1319 -0.1628
  103MOL0     N13821   2.274   7.567   6.500 -0.3307  0.1524  0.1566
  103MOL0     N13822   2.296   7.442   6.521  0.0383 -0.2738  0.6821
  103MOL0     C13823   2.260   6.379   6.324  0.4470  0.1737  0.1660
  103MOL0     C13824   2.391   6.345   6.358 -0.3169  0.3770  0.7714
  103MOL0     C13825   2.768   6.218   6.491  0.4246 -0.0284 -0.2774
  103MOL0     C13826   2.857   6.223   6.381 -0.4903  0.3159 -0.6592
  103MOL0     C13827   2.968   6.134   6.383  0.4035  1.1382 -1.3347
  103MOL0     C13828   2.987   6.043   6.488  0.2137 -0.1251 -0.2841
  103MOL0     O13829   3.088   5.949   6.497  0.6665  0.2307 -0.0916
  103MOL0     C13830   3.194   5.954   6.402 -0.3352  0.3693  0.0860
  103MOL0     C13831   3.317   5.874   6.453  0.3327  0.0563  0.7532
  103MOL0     C13832   3.387   5.938   6.577 -0.0834 -0.6297  0.0605
  103MOL0     C13833   3.501   5.859   6.638  0.2386  0.5600  0.0455
  103MOL0     C13834   3.597   5.956   6.697  1.0404  0.0698  1.3531
  103MOL0     C13835   3.675   6.031   6.752  0.6163  0.7429 -0.5105
  103MOL0     C13836   2.906   6.052   6.599  0.0897 -0.1912  0.2254
  103MOL0     C13837   2.797   6.139   6.604  0.2559  1.0528  0.0828
  103MOL0     H13838   2.544   6.643   6.304  0.8177 -0.4300  3.1688
  103MOL0     H13839   2.306   6.704   6.241 -0.1250 -1.0912 -2.3104
  103MOL0     H13840   2.135   6.667   6.072 -1.5406  2.4836 -1.3035
  103MOL0     H13841   1.966   6.615   6.111  0.1570 -1.6591  1.2867
  103MOL0     H13842   1.954   6.743   6.297  0.6001  2.0059  1.2717
  103MOL0     H13843   2.128   6.783   6.308  0.0837  2.4490 -1.9872
  103MOL0     H13844   2.114   6.937   6.143 -0.4287  1.4159  0.5136
  103MOL0     H13845   1.965   6.857   6.080  0.5477 -3.7548  0.5649
  103MOL0     H13846   1.917   7.097   6.176  3.2134  1.7262  0.1713
  103MOL0     H13847   1.818   6.958   6.207  1.0935  0.7330 -4.1078
  103MOL0     H13848   1.883   7.101   6.405  0.0773  0.7075  0.5978
  103MOL0     H13849   1.922   6.932   6.434 -0.8230 -0.6650 -0.4456
  103MOL0     H13850   2.083   7.107   6.513 -3.2249 -1.8989  0.5126
  103MOL0     H13851   2.149   6.987   6.420 -1.9940 -1.6619  4.7120
  103MOL0     H13852   2.169   7.145   6.221  0.2912  2.0843 -0.7054
  103MOL0     H13853   2.084   7.268   6.300  1.9097  1.7211 -1.1748
  103MOL0     H13854   2.354   7.194   6.324  0.2472  0.1625 -0.7033
  103MOL0     H13855   2.300   7.186   6.480 -1.7211  1.9025  1.4815
  103MOL0     H13856   2.280   7.440   6.191  0.5838 -0.1584  0.7411
  103MOL0     H13857   2.227   7.710   6.199  0.6832 -1.5383 -0.2373
  103MOL0     H13858   2.152   7.756   6.356  1.0162  1.8922 -0.0939
  103MOL0     H13859   2.333   7.891   6.234 -1.3782 -1.6541 -0.6173
  103MOL0     H13860   2.454   7.780   6.299  1.7881  1.6332  4.9400
  103MOL0     H13861   2.366   7.846   6.532 -0.9955  1.5412  0.6517
  103MOL0     H13862   2.282   7.974   6.451 -1.2853 -1.5179 -0.9117
  103MOL0     H13863   2.520   8.060   6.375 -0.4101  0.4625  0.5815
  103MOL0     H13864   2.589   7.925   6.465  0.3451 -0.1665  2.3749
  103MOL0     H13865   2.369   8.295   6.628  0.6136  3.7854  3.7173
  103MOL0     H13866   2.465   8.651   6.567 -0.0971 -1.0185  0.0261
  103MOL0     H13867   2.331   8.539   6.597 -1.1059  1.4034  1.4257
  103MOL0     H13868   2.434   8.599   6.725  0.9726  0.5357  0.2149
  103MOL0     H13869   2.679   8.864   6.422 -0.2822 -0.2349  1.2750
  103MOL0     H13870   2.799   9.081   6.382 -0.3750 -0.8800 -3.9050
  103MOL0     H13871   2.988   9.123   6.220  0.1339 -1.5497  0.4459
  103MOL0     H13872   3.087   9.261   6.272 -1.0023  0.5674 -1.3210
  103MOL0     H13873   3.183   8.971   6.230 -3.9086  0.3295  1.7195
  103MOL0     H13874   3.207   9.107   6.119 -1.9049  2.0652  0.0363
  103MOL0     H13875   3.305   9.084   6.400 -1.6138 -0.0610 -0.7003
  103MOL0     H13876   3.343   9.225   6.303  0.0464  0.6593 -2.1553
  103MOL0     H13877   3.420   8.934   6.222 -1.1167 -1.5375  4.2832
  103MOL0     H13878   3.467   9.083   6.145  0.2169 -2.8242 -1.8428
  103MOL0     H13879   3.553   8.999   6.433  1.3673  0.8213 -0.7000
  103MOL0     H13880   3.607   9.139   6.354 -2.3711  0.1626  0.8230
  103MOL0     H13881   3.672   8.867   6.238 -4.4354  0.4982 -1.3803
  103MOL0     H13882   3.721   9.018   6.174  0.4492 -2.5858 -2.2245
  103MOL0     H13883   3.783   8.890   6.451 -1.9932  0.0596 -0.2758
  103MOL0     H13884   3.821   9.066   6.423  2.1927  1.1167 -2.7593
  103MOL0     H13885   3.972   8.991   6.234  0.0872 -0.9685 -1.2440
  103MOL0     H13886   3.944   8.829   6.276  2.4919 -0.5148  1.9091
  103MOL0     H13887   3.171   8.895   6.500 -1.0111  0.0691  3.1313
  103MOL0     H13888   3.052   8.663   6.480 -1.9303 -1.0715  1.5803
  103MOL0     H13889   2.841   8.358   6.492  0.9467 -1.0424  2.5672
  103MOL0     H13890   2.749   8.130   6.515 -0.6104 -0.9209  4.1023
  103MOL0     H13891   2.173   6.313   6.326 -1.4457  2.5501  0.9372
  103MOL0     H13892   2.425   6.244   6.377  0.7397  0.5129 -0.2470
  103MOL0     H13893   2.830   6.288   6.299  1.5866  1.5668 -0.4295
  103MOL0     H13894   3.039   6.132   6.301  2.0506 -1.3917  0.0434
  103MOL0     H13895   3.178   5.899   6.308  0.6567  0.2598 -0.0354
  103MOL0     H13896   3.221   6.058   6.383  1.0477  0.1753  0.8243
  103MOL0     H13897   3.400   5.871   6.381  1.7601 -1.5520  2.3798
  103MOL0     H13898   3.293   5.770   6.478 -2.1689 -0.2866 -2.3696
  103MOL0     H13899   3.317   5.955   6.659 -0.1905  3.2133 -0.6765
  103MOL0     H13900   3.429   6.033   6.542  0.5412 -1.6832 -2.2729
  103MOL0     H13901   3.545   5.793   6.563 -2.9663 -2.9590  0.9214
  103MOL0     H13902   3.458   5.793   6.715 -1.5504 -2.7068 -3.4423
  103MOL0     H13903   3.752   6.082   6.807  1.2807 -0.3866 -0.3557
  103MOL0     H13904   2.915   5.981   6.681 -0.8495  0.4687  0.9255
  103MOL0     H13905   2.726   6.133   6.686  0.7800 -2.5185  0.4516
  104MOL0     O13906   5.301   2.134   9.677  0.0303  0.4892 -0.3272
  104MOL0     C13907   5.341   2.089   9.569 -0.0217  0.6700 -0.4851
  104MOL0     O13908   5.256   2.032   9.477 -0.5511  0.9629 -0.5215
  104MOL0     C13909   5.117   2.023   9.506 -0.4995 -0.5434 -0.4885
  104MOL0     C13910   5.035   2.131   9.519 -0.1661 -0.4023 -0.1726
  104MOL0     C13911   4.889   2.119   9.536  0.1648  0.2914 -0.1070
  104MOL0     C13912   4.835   1.987   9.563  0.1857 -0.5663  0.2008
  104MOL0     O13913   4.700   1.978   9.592  0.0848  0.6415 -0.8118
  104MOL0     C13914   4.600   2.079   9.565  0.4998  0.3482  0.4805
  104MOL0     C13915   4.459   2.007   9.543 -0.2408 -0.0140  0.6833
  104MOL0     C13916   4.350   2.112   9.497 -0.1812  0.2305  0.2217
  104MOL0     C13917   4.223   2.040   9.473 -0.4579 -0.9070  0.6673
  104MOL0     C13918   4.119   2.135   9.420 -0.5555  1.1147 -0.3427
  104MOL0     C13919   3.990   2.044   9.415 -0.2458 -0.2584 -0.4509
  104MOL0     C13920   3.863   2.122   9.403 -0.1045 -0.0553 -0.4035
  104MOL0     C13921   3.756   2.038   9.345  0.0979  0.1063 -0.0655
  104MOL0     N13922   3.630   2.105   9.372 -0.1619  0.6725 -0.8658
  104MOL0     C13923   3.565   2.107   9.501 -0.9123  0.3294 -0.0171
  104MOL0     C13924   3.455   2.175   9.470  0.6199 -0.7486 -0.1393
  104MOL0     C13925   3.355   2.190   9.569 -0.1119  0.3148 -0.8409
  104MOL0     C13926   3.208   2.149   9.528 -0.1428  0.0415  0.7387
  104MOL0     C13927   3.119   2.136   9.653 -0.5601 -0.0216 -0.9523
  104MOL0     C13928   2.977   2.088   9.623  0.0128 -0.8343  0.5564
  104MOL0     O13929   2.890   2.093   9.741  0.1138 -0.1924 -0.5215
  104MOL0     C13930   2.754   2.100   9.725 -0.8168 -0.1457  0.1756
  104MOL0     C13931   2.674   2.126   9.838  1.0563 -0.6970  0.4802
  104MOL0     C13932   2.528   2.161   9.830 -0.6709 -0.2493  0.5957
  104MOL0     C13933   2.466   2.209   9.959  0.3610  0.1862 -0.1247
  104MOL0     C13934   2.464   2.142   9.706 -1.0137  0.0788  0.0203
  104MOL0     C13935   2.316   2.165   9.681  0.4412  0.1773 -0.1663
  104MOL0     O13936   2.278   2.208   9.555  0.0768 -0.4216  0.3305
  104MOL0     C13937   2.155   2.263   9.545  0.7619  0.2349  0.0825
  104MOL0     C13938   2.086   2.351   9.634  0.5169  0.7640 -0.4240
  104MOL0     C13939   1.945   2.387   9.596 -0.3600 -1.1748  0.4824
  104MOL0     C13940   1.893   2.368   9.472  0.2061  0.0101  0.3681
  104MOL0     O13941   1.771   2.413   9.432  0.5047 -0.5884 -0.1695
  104MOL0     C13942   1.694   2.356   9.330  0.3901 -0.1294  0.2419
  104MOL0     C13943   1.565   2.440   9.329 -0.0958  0.4184  0.0482
  104MOL0     C13944   1.448   2.358   9.284  0.2764 -0.0793  1.1429
  104MOL0     C13945   1.332   2.427   9.361  1.1272  1.0262  0.0835
  104MOL0     C13946   1.204   2.360   9.316 -1.4072  0.1376 -0.1453
  104MOL0     C13947   1.096   2.437   9.386  0.5919  0.3089  0.2893
  104MOL0     C13948   0.958   2.401   9.330 -0.6777 -0.3120  0.1527
  104MOL0     C13949   0.930   2.252   9.323 -0.9942  0.4115  0.3273
  104MOL0    Cl13950   0.911   2.182   9.484  0.2302 -0.7013 -0.0128
  104MOL0     C13951   1.964   2.278   9.389  0.5290 -0.3751 -0.6435
  104MOL0     C13952   2.090   2.234   9.420  0.3928  0.4753 -0.2085
  104MOL0     O13953   2.237   2.154   9.774  0.6433 -0.2522 -0.3458
  104MOL0     C13954   2.544   2.095   9.598  0.4792  0.9437  0.4455
  104MOL0     C13955   2.682   2.075   9.607 -0.1829 -0.0598 -0.3949
  104MOL0     N13956   3.456   2.209   9.340  0.0051  0.5974 -0.0235
  104MOL0     N13957   3.561   2.166   9.280 -0.0004  0.4316  0.2887
  104MOL0     C13958   4.924   1.877   9.563  0.5998  0.6438 -0.4017
  104MOL0     C13959   5.061   1.896   9.533  0.8219  0.3022  0.1980
  104MOL0     C13960   5.481   2.072   9.545  0.8729  0.1816  0.3498
  104MOL0     C13961   5.569   2.104   9.648  0.7597 -0.5523  0.0161
  104MOL0     C13962   5.705   2.088   9.631 -0.4137  0.3214  1.2951
  104MOL0     C13963   5.767   2.042   9.513  0.2831 -0.8285  0.1793
  104MOL0     O13964   5.901   2.024   9.521  0.3196 -0.1740  0.3494
  104MOL0     C13965   5.972   2.010   9.392  0.0103 -0.2609 -0.1822
  104MOL0     C13966   5.993   1.860   9.357 -0.0366  0.6887  0.7031
  104MOL0     C13967   6.055   1.779   9.476 -0.0583  0.4068 -0.5050
  104MOL0     C13968   6.078   1.637   9.424  0.0539 -0.4380 -0.5019
  104MOL0     C13969   6.101   1.541   9.536 -0.4794 -0.1137  0.1912
  104MOL0     C13970   6.118   1.467   9.629 -0.8904 -0.6145  0.4194
  104MOL0     C13971   5.676   2.008   9.408 -0.2566  0.3321 -0.4357
  104MOL0     C13972   5.536   2.027   9.423  1.0964  0.4966  0.0109
  104MOL0     H13973   5.071   2.229   9.490  1.2323 -2.0722 -5.0672
  104MOL0     H13974   4.830   2.210   9.533 -0.6633 -0.2399 -3.0599
  104MOL0     H13975   4.590   2.154   9.643 -0.5794  0.7164  0.0097
  104MOL0     H13976   4.631   2.132   9.474  2.4088  3.0669  2.5440
  104MOL0     H13977   4.468   1.923   9.473  1.1984  1.8253 -1.5039
  104MOL0     H13978   4.432   1.982   9.646 -2.5051  0.4865  0.2752
  104MOL0     H13979   4.328   2.187   9.573 -0.8360 -0.2310  0.4960
  104MOL0     H13980   4.394   2.167   9.413  1.4201  3.2232  2.7749
  104MOL0     H13981   4.239   1.964   9.396 -0.6489  1.0698 -1.4533
  104MOL0     H13982   4.183   1.992   9.563  1.3348  0.8028  2.4849
  104MOL0     H13983   4.103   2.215   9.492 -0.9152 -0.1340  0.9978
  104MOL0     H13984   4.146   2.173   9.320  1.1316 -1.6304 -1.0294
  104MOL0     H13985   4.001   1.967   9.337 -0.3863  1.6966 -2.5230
  104MOL0     H13986   3.982   1.988   9.509  1.4404  0.4368  0.1419
  104MOL0     H13987   3.833   2.155   9.503 -0.9771 -2.6866  0.2895
  104MOL0     H13988   3.868   2.211   9.339 -2.1412  1.9281  1.9798
  104MOL0     H13989   3.757   1.939   9.393  1.2917 -0.0724 -0.4206
  104MOL0     H13990   3.775   2.022   9.239  2.9293 -0.3366  0.4283
  104MOL0     H13991   3.587   2.052   9.592 -1.7221  2.0707  1.2877
  104MOL0     H13992   3.382   2.125   9.653  0.0958  0.6042 -0.6816
  104MOL0     H13993   3.360   2.289   9.615  0.0863 -0.6802  1.4174
  104MOL0     H13994   3.220   2.055   9.472  1.2946 -0.1039  1.2293
  104MOL0     H13995   3.164   2.224   9.463 -0.8917 -2.1333 -1.4311
  104MOL0     H13996   3.119   2.239   9.688  3.2810 -1.1457  3.2937
  104MOL0     H13997   3.166   2.076   9.731 -0.9154 -0.0531 -0.7582
  104MOL0     H13998   2.990   1.990   9.577  1.6819  0.1672 -1.2718
  104MOL0     H13999   2.935   2.162   9.553 -0.3897 -0.5447  1.0953
  104MOL0     H14000   2.726   2.135   9.933  2.8497  0.6845 -0.5507
  104MOL0     H14001   2.396   2.134   9.997  0.7366  0.1323  0.4784
  104MOL0     H14002   2.543   2.222  10.036  0.9495  2.2178 -1.0121
  104MOL0     H14003   2.417   2.305   9.944 -1.1943 -0.7688 -1.5387
  104MOL0     H14004   2.133   2.370   9.730  0.5978 -2.0359  0.1705
  104MOL0     H14005   1.883   2.447   9.661  2.1897  1.0859  1.0366
  104MOL0     H14006   1.728   2.373   9.227 -1.3368 -0.4956 -0.4188
  104MOL0     H14007   1.684   2.249   9.346 -0.3813 -0.1504 -0.3001
  104MOL0     H14008   1.550   2.481   9.429  0.6980 -0.6085  0.5977
  104MOL0     H14009   1.578   2.535   9.276  1.3188  0.2879  0.1403
  104MOL0     H14010   1.459   2.254   9.316 -0.8501 -0.4542  0.3566
  104MOL0     H14011   1.436   2.365   9.176  1.3928 -1.0246  0.9354
  104MOL0     H14012   1.343   2.421   9.469 -3.3721  0.6344  0.7162
  104MOL0     H14013   1.319   2.530   9.328 -2.0012  0.4958 -0.7272
  104MOL0     H14014   1.205   2.254   9.345 -2.1834 -0.5523 -2.4569
  104MOL0     H14015   1.187   2.368   9.208 -2.7446  0.7178  0.0821
  104MOL0     H14016   1.092   2.418   9.494  0.0199 -2.6253 -0.1669
  104MOL0     H14017   1.108   2.543   9.363 -1.2786  0.2701 -1.1655
  104MOL0     H14018   0.973   2.449   9.232  1.9446  1.5252  1.3045
  104MOL0     H14019   0.878   2.452   9.384 -0.4289  0.7760 -0.4848
  104MOL0     H14020   1.009   2.207   9.261 -0.9429  0.9155  0.0262
  104MOL0     H14021   0.836   2.244   9.268  0.9311  0.9448 -3.4158
  104MOL0     H14022   1.917   2.237   9.301  0.2320 -1.1824 -0.1203
  104MOL0     H14023   2.129   2.168   9.343 -2.4330 -1.6433  0.0194
  104MOL0     H14024   2.482   2.062   9.515 -0.6255  3.7004  0.0569
  104MOL0     H14025   2.727   2.039   9.515  1.6167  2.1967 -0.4955
  104MOL0     H14026   4.895   1.777   9.593  0.3688  0.8646  0.1257
  104MOL0     H14027   5.136   1.818   9.523  0.2038 -0.1898 -0.7710
  104MOL0     H14028   5.542   2.140   9.747 -2.5812  1.5490 -1.4858
  104MOL0     H14029   5.771   2.103   9.716  0.0018  1.8312  0.7260
  104MOL0     H14030   5.907   2.059   9.319 -0.3476  0.3117  0.5147
  104MOL0     H14031   6.063   2.068   9.405 -0.1144 -0.5274  2.3590
  104MOL0     H14032   6.049   1.847   9.264  1.6436 -4.6543  2.1297
  104MOL0     H14033   5.892   1.825   9.334 -0.0260  1.3273 -0.3878
  104MOL0     H14034   5.988   1.782   9.562  1.1051  0.1810  0.4248
  104MOL0     H14035   6.150   1.828   9.499  0.2975 -0.3919 -0.2267
  104MOL0     H14036   6.160   1.619   9.354 -0.4433 -1.3698 -0.8688
  104MOL0     H14037   5.985   1.600   9.379 -0.4868  0.5128 -0.1969
  104MOL0     H14038   6.118   1.402   9.714 -3.5964 -1.1072  0.1357
  104MOL0     H14039   5.709   1.966   9.314  1.6493 -1.5123  0.9636
  104MOL0     H14040   5.467   2.008   9.341 -0.4342  1.2923  1.0684
  105MOL0     O14041   0.921   1.514   8.770 -0.5245 -0.4648  0.3069
  105MOL0     C14042   0.851   1.585   8.846  0.2201  0.7455 -0.1293
  105MOL0     O14043   0.861   1.716   8.856  0.5856  0.3425  0.2237
  105MOL0     C14044   0.908   1.785   8.748 -0.2524  0.5143  0.3400
  105MOL0     C14045   0.822   1.831   8.650 -0.4775  0.1875  0.5079
  105MOL0     C14046   0.886   1.891   8.528 -0.0222  0.1719  0.1738
  105MOL0     C14047   1.031   1.919   8.531  0.3572 -0.6290  0.5968
  105MOL0     O14048   1.094   1.993   8.430 -0.8982  0.3653 -0.6918
  105MOL0     C14049   1.038   1.992   8.302  0.3706 -0.2588  1.0774
  105MOL0     C14050   0.961   2.121   8.273 -0.4966 -0.1359 -0.3533
  105MOL0     C14051   0.891   2.123   8.134  0.1092  0.3705 -0.0404
  105MOL0     C14052   0.806   2.249   8.104 -0.3158  0.1154 -0.1441
  105MOL0     C14053   0.880   2.381   8.150  0.5387 -0.6014 -0.2197
  105MOL0     C14054   0.782   2.502   8.109 -0.6027 -0.1570 -0.2157
  105MOL0     C14055   0.823   2.640   8.148  0.5423 -1.4352  0.0964
  105MOL0     C14056   0.948   2.698   8.063  0.3417 -0.0367 -0.4743
  105MOL0     N14057   0.914   2.743   7.927 -0.2128  0.0380 -0.2395
  105MOL0     C14058   0.820   2.835   7.882 -0.3199 -0.6761 -0.2833
  105MOL0     C14059   0.846   2.843   7.750  0.8857  0.2124  0.2224
  105MOL0     C14060   0.787   2.930   7.647 -0.5743  0.3175  0.0361
  105MOL0     C14061   0.643   2.870   7.613 -0.5847 -0.0999  0.1654
  105MOL0     C14062   0.537   2.907   7.712  1.0626 -0.4318 -0.3891
  105MOL0     C14063   0.403   2.861   7.659  0.1281 -1.1700 -0.8198
  105MOL0     O14064   0.302   2.893   7.756  0.6308 -0.5167 -0.6928
  105MOL0     C14065   0.173   2.894   7.708 -0.6248  0.1156 -0.5468
  105MOL0     C14066   0.116   2.784   7.641 -0.4707 -0.7919  0.0162
  105MOL0     C14067  -0.016   2.776   7.611 -0.3148 -0.1071 -0.1441
  105MOL0     C14068  -0.059   2.634   7.559 -0.4619  0.7007  0.1930
  105MOL0     C14069  -0.101   2.890   7.630 -0.2208  1.0312 -0.4011
  105MOL0     C14070  -0.247   2.905   7.597  0.3631  0.2230 -0.1730
  105MOL0     O14071  -0.308   2.802   7.528  0.0055  0.4042 -0.6119
  105MOL0     C14072  -0.438   2.818   7.490  0.3786  0.6243 -0.1985
  105MOL0     C14073  -0.465   2.905   7.381  0.3832  0.1020 -0.0413
  105MOL0     C14074  -0.590   2.940   7.336  0.2079 -0.3063 -0.0399
  105MOL0     C14075  -0.705   2.886   7.404  0.8023  0.0349  0.8093
  105MOL0     O14076  -0.826   2.937   7.364  0.1323  0.3584 -0.0313
  105MOL0     C14077  -0.949   2.900   7.440 -0.5559 -0.3588  0.4878
  105MOL0     C14078  -1.068   2.968   7.394  0.0954 -0.3767 -1.0517
  105MOL0     C14079  -1.160   3.003   7.514  0.7903 -0.4889 -0.4129
  105MOL0     C14080  -1.280   3.078   7.469 -0.0914 -0.6424  0.1732
  105MOL0     C14081  -1.261   3.229   7.449  0.9800  0.6948 -0.1087
  105MOL0     C14082  -1.387   3.274   7.373 -0.1053  0.4562 -0.2867
  105MOL0     C14083  -1.361   3.416   7.315  0.2138  0.0889 -1.6771
  105MOL0     C14084  -1.496   3.487   7.281  0.3024  0.8170  0.2351
  105MOL0    Cl14085  -1.590   3.397   7.159  0.6669 -0.0838  0.1740
  105MOL0     C14086  -0.679   2.787   7.507  0.0066 -0.0253 -1.0234
  105MOL0     C14087  -0.551   2.753   7.550 -0.3170 -0.0319 -0.2426
  105MOL0     O14088  -0.300   3.004   7.641  0.3123  0.5004  0.3732
  105MOL0     C14089  -0.043   2.997   7.703 -0.5187  0.9237 -0.5415
  105MOL0     C14090   0.087   2.998   7.743  0.2716 -0.7058  0.7403
  105MOL0     N14091   0.930   2.744   7.712 -0.7989 -0.1880 -0.9024
  105MOL0     N14092   0.963   2.679   7.816  0.8979  0.1339  0.3390
  105MOL0     C14093   1.107   1.871   8.637  0.2575  0.4947 -0.0385
  105MOL0     C14094   1.047   1.800   8.740  0.0576 -0.3297  0.1731
  105MOL0     C14095   0.765   1.520   8.949 -0.4365  0.9668  0.4444
  105MOL0     C14096   0.650   1.592   8.997 -0.1861  0.5468 -0.0388
  105MOL0     C14097   0.554   1.523   9.077  0.1809 -0.1194  1.1479
  105MOL0     C14098   0.571   1.390   9.107 -0.0666  0.5157 -1.1914
  105MOL0     O14099   0.471   1.325   9.184 -0.0866 -0.7331 -0.3564
  105MOL0     C14100   0.494   1.201   9.246 -0.5038 -0.8115  0.1815
  105MOL0     C14101   0.591   1.216   9.374  0.4962  0.5201 -0.4237
  105MOL0     C14102   0.509   1.292   9.477  0.2337 -0.8909 -0.3650
  105MOL0     C14103   0.576   1.311   9.614  0.6050 -0.1838  0.7228
  105MOL0     C14104   0.714   1.366   9.609  0.0455 -0.1829  0.1747
  105MOL0     C14105   0.820   1.418   9.611  1.1064 -0.7058 -0.0959
  105MOL0     C14106   0.693   1.325   9.075  0.1390  0.2735 -1.5038
  105MOL0     C14107   0.793   1.393   8.998  0.5434  0.1775  0.1250
  105MOL0     H14108   0.715   1.814   8.655 -0.0297 -3.4321  0.2895
  105MOL0     H14109   0.823   1.918   8.444 -2.3087 -0.3393  1.6330
  105MOL0     H14110   1.128   2.003   8.241  0.6364 -0.8417  1.3549
  105MOL0     H14111   0.983   1.905   8.265  1.6229 -0.1697 -1.1951
  105MOL0     H14112   0.897   2.155   8.354  2.5029 -0.3531  2.2976
  105MOL0     H14113   1.041   2.195   8.274  0.5771 -1.2688 -0.0683
  105MOL0     H14114   0.964   2.113   8.053 -0.9968 -0.6890 -0.9361
  105MOL0     H14115   0.827   2.035   8.132  0.1234  0.3624 -0.1190
  105MOL0     H14116   0.765   2.241   8.003  0.4926  0.1591 -0.4788
  105MOL0     H14117   0.716   2.246   8.166  1.7025  1.8454  3.1548
  105MOL0     H14118   0.908   2.387   8.255  3.1065  0.1325 -0.8633
  105MOL0     H14119   0.973   2.389   8.092  1.4397 -2.6801  0.8199
  105MOL0     H14120   0.772   2.494   8.001  0.3006  0.4189 -0.3485
  105MOL0     H14121   0.685   2.486   8.157 -1.3131 -3.0199 -2.3385
  105MOL0     H14122   0.741   2.710   8.130  2.2318  1.1266  1.6151
  105MOL0     H14123   0.855   2.650   8.253 -3.0177  0.9154  1.1225
  105MOL0     H14124   1.021   2.616   8.062  0.8537  0.3930 -2.2346
  105MOL0     H14125   1.002   2.773   8.121  1.2871 -2.1434  1.5396
  105MOL0     H14126   0.753   2.896   7.942 -0.2655  0.3624 -1.2331
  105MOL0     H14127   0.767   3.030   7.684 -0.5534 -0.6655  2.9464
  105MOL0     H14128   0.854   2.920   7.561  0.8326 -1.6184  1.2601
  105MOL0     H14129   0.650   2.762   7.597 -1.5172 -0.2712  0.8492
  105MOL0     H14130   0.611   2.901   7.513  2.5797 -1.9526 -1.5851
  105MOL0     H14131   0.536   3.016   7.717 -0.7890 -0.3982 -0.6581
  105MOL0     H14132   0.563   2.864   7.809 -0.9645  2.8131  1.7971
  105MOL0     H14133   0.400   2.754   7.636  0.8131 -1.2181 -0.6855
  105MOL0     H14134   0.385   2.917   7.566  0.5615 -0.4513 -0.4802
  105MOL0     H14135   0.177   2.697   7.620 -1.5995 -1.6642  0.2162
  105MOL0     H14136  -0.140   2.604   7.627  1.1963  2.4789  3.1585
  105MOL0     H14137  -0.097   2.634   7.456 -0.0383 -2.3841 -0.0660
  105MOL0     H14138   0.019   2.560   7.576  1.1378  2.2413 -0.2102
  105MOL0     H14139  -0.371   2.942   7.341  0.7410  0.0701  0.7410
  105MOL0     H14140  -0.605   2.990   7.241  1.5319  0.5556  0.1824
  105MOL0     H14141  -0.971   2.793   7.431  2.6639 -1.1620  1.0392
  105MOL0     H14142  -0.918   2.930   7.540  1.0728  5.2275 -1.3046
  105MOL0     H14143  -1.032   3.060   7.346  1.9419  0.5162  1.8082
  105MOL0     H14144  -1.130   2.906   7.329 -0.6762 -0.8339  0.0891
  105MOL0     H14145  -1.115   3.063   7.594 -1.2920 -0.2387  0.6405
  105MOL0     H14146  -1.191   2.918   7.574 -4.5211  1.5944  0.2989
  105MOL0     H14147  -1.330   3.034   7.382 -2.5473  2.2255 -0.0185
  105MOL0     H14148  -1.354   3.066   7.549 -1.9465  0.3700 -1.3254
  105MOL0     H14149  -1.177   3.239   7.379  0.1747 -1.0887 -1.4247
  105MOL0     H14150  -1.256   3.287   7.542 -2.8939  3.2278 -1.2630
  105MOL0     H14151  -1.415   3.211   7.288 -0.9360 -0.0108  0.3216
  105MOL0     H14152  -1.458   3.282   7.455  1.7749 -0.6796  1.5507
  105MOL0     H14153  -1.294   3.416   7.228  1.3329 -1.4561 -0.8512
  105MOL0     H14154  -1.316   3.477   7.393 -2.1509  0.5730 -0.5820
  105MOL0     H14155  -1.473   3.585   7.237  0.9454 -0.1780 -1.7595
  105MOL0     H14156  -1.548   3.508   7.375  2.0715 -1.8643  1.9549
  105MOL0     H14157  -0.760   2.757   7.573  0.2753  3.6618  1.2547
  105MOL0     H14158  -0.530   2.690   7.636  1.4612 -2.0528 -2.0216
  105MOL0     H14159  -0.098   3.081   7.743  0.8033  0.9208  1.4067
  105MOL0     H14160   0.116   3.075   7.814  2.2729 -2.2627  1.7356
  105MOL0     H14161   1.215   1.882   8.644  0.1021  2.2141  0.1880
  105MOL0     H14162   1.107   1.759   8.820  1.0336 -3.1861 -1.8250
  105MOL0     H14163   0.628   1.694   8.970 -2.0120 -0.0259 -0.8413
  105MOL0     H14164   0.457   1.566   9.098  0.2741  0.7700 -0.1442
  105MOL0     H14165   0.399   1.157   9.279 -1.3538  1.0669  0.3665
  105MOL0     H14166   0.536   1.141   9.166  2.0450  2.1365 -0.8933
  105MOL0     H14167   0.679   1.276   9.346 -0.2060  2.1199  0.6452
  105MOL0     H14168   0.623   1.117   9.409  3.0250  1.3508 -0.1430
  105MOL0     H14169   0.418   1.236   9.497 -1.1508 -0.0727 -3.7734
  105MOL0     H14170   0.502   1.393   9.435 -2.0865 -0.8736 -0.0224
  105MOL0     H14171   0.583   1.207   9.647  0.2938 -1.2224 -2.2458
  105MOL0     H14172   0.509   1.364   9.682  0.6934  0.0265  0.6476
  105MOL0     H14173   0.916   1.462   9.630  1.9293 -2.0271 -1.0476
  105MOL0     H14174   0.702   1.224   9.113  1.6241  1.2999  1.1162
  105MOL0     H14175   0.883   1.338   8.971  0.2104 -0.4208  0.2223
  106MOL0     O14176   4.078  10.744   9.535  0.8955  0.1463  0.4241
  106MOL0     C14177   4.152  10.844   9.521  1.0897  0.0592 -0.8386
  106MOL0     O14178   4.120  10.970   9.564 -0.0613 -0.0142  0.3266
  106MOL0     C14179   3.998  10.992   9.611  0.0836  0.7415  0.0027
  106MOL0     C14180   3.883  10.969   9.537 -0.2051 -0.6288  0.2424
  106MOL0     C14181   3.757  11.017   9.588 -0.3566 -0.4913  0.3450
  106MOL0     C14182   3.754  11.062   9.721  0.2027  0.0708  0.6821
  106MOL0     O14183   3.631  11.098   9.774 -0.4947  0.0365  0.0604
  106MOL0     C14184   3.504  11.068   9.701 -0.6494  0.3301 -0.2679
  106MOL0     C14185   3.388  11.070   9.801  0.1581  0.3161  0.7097
  106MOL0     C14186   3.424  10.978   9.923  0.6521  0.9262  0.0983
  106MOL0     C14187   3.314  10.964  10.035  1.6202 -0.9755  0.0085
  106MOL0     C14188   3.354  10.861  10.155  0.7658  1.0860  0.5178
  106MOL0     C14189   3.360  10.706  10.117 -0.9644  0.4135  0.9166
  106MOL0     C14190   3.234  10.636  10.055 -1.2404 -0.0988 -0.4366
  106MOL0     C14191   3.251  10.483  10.059 -0.8620  0.2199  0.0979
  106MOL0     N14192   3.121  10.417  10.048  0.3125 -0.0544  0.0394
  106MOL0     C14193   3.076  10.355   9.938 -0.3171 -0.3475  0.2286
  106MOL0     C14194   2.946  10.327   9.963 -0.2169 -0.1325 -0.4810
  106MOL0     C14195   2.847  10.279   9.866 -0.3807 -0.4848  0.0911
  106MOL0     C14196   2.810  10.137   9.894 -0.3219 -0.1415  0.8330
  106MOL0     C14197   2.742  10.063   9.770 -0.6563 -0.5987 -0.0588
  106MOL0     C14198   2.650   9.956   9.820 -0.5341 -0.6001  0.2704
  106MOL0     O14199   2.608   9.871   9.707  0.5740 -0.2696  0.5512
  106MOL0     C14200   2.513   9.769   9.729  0.5431 -0.1035  0.1255
  106MOL0     C14201   2.446   9.753   9.847 -0.2297  0.0050 -0.3103
  106MOL0     C14202   2.360   9.646   9.873  0.1836 -1.1686 -0.5664
  106MOL0     C14203   2.317   9.635  10.019  0.4380  0.4199 -0.0933
  106MOL0     C14204   2.332   9.555   9.766 -0.0241 -0.1753 -0.0301
  106MOL0     C14205   2.254   9.432   9.791 -0.4649  0.2531  0.0814
  106MOL0     O14206   2.153   9.428   9.883  0.2425 -0.1471  0.5287
  106MOL0     C14207   2.055   9.326   9.905 -0.0218 -0.6249 -0.3441
  106MOL0     C14208   1.955   9.362  10.002 -0.6194  0.2499  1.0891
  106MOL0     C14209   1.858   9.267  10.022  0.0036 -0.0411 -0.4857
  106MOL0     C14210   1.854   9.144   9.967 -0.1905 -1.0041 -0.4774
  106MOL0     O14211   1.733   9.070   9.988  0.5571  0.1691 -0.0684
  106MOL0     C14212   1.716   8.941   9.934 -1.2862 -0.7109 -0.2901
  106MOL0     C14213   1.590   8.869   9.976 -0.0167  0.4310  0.4927
  106MOL0     C14214   1.470   8.934   9.918 -0.2239  0.6431 -0.3531
  106MOL0     C14215   1.349   8.843   9.924 -0.7063 -0.2137 -0.0679
  106MOL0     C14216   1.229   8.934   9.909  0.0242  0.4660 -0.0696
  106MOL0     C14217   1.101   8.856   9.941 -0.4630  0.0845  0.2397
  106MOL0     C14218   0.982   8.953   9.951 -0.2215 -0.4545  0.3205
  106MOL0     C14219   0.946   8.989   9.798  0.2212  0.6574 -0.8043
  106MOL0    Cl14220   0.817   9.108   9.780 -0.1976  0.1852 -0.2494
  106MOL0     C14221   1.958   9.110   9.873  0.1685 -0.0516 -0.5880
  106MOL0     C14222   2.059   9.204   9.846  0.6078 -0.8252  0.4943
  106MOL0     O14223   2.294   9.330   9.728 -0.0036  0.1719  0.4918
  106MOL0     C14224   2.393   9.581   9.638 -0.6658  0.3755 -0.1432
  106MOL0     C14225   2.479   9.690   9.625  0.4821  0.9987  0.0526
  106MOL0     N14226   2.915  10.354  10.095 -0.4866 -0.0669 -0.5032
  106MOL0     N14227   3.020  10.408  10.139  0.3778 -0.8704 -0.6079
  106MOL0     C14228   3.868  11.077   9.790  0.2076 -0.4073 -0.6208
  106MOL0     C14229   3.992  11.042   9.739 -0.8037  0.1996 -0.0573
  106MOL0     C14230   4.280  10.832   9.452  0.1808  0.3986 -0.1658
  106MOL0     C14231   4.369  10.941   9.445 -0.5031  0.2315 -0.4730
  106MOL0     C14232   4.495  10.937   9.381  0.1530  0.5218  0.2709
  106MOL0     C14233   4.524  10.817   9.295  0.2138  0.1777  0.2674
  106MOL0     O14234   4.634  10.805   9.209  0.4554 -0.5016 -0.4543
  106MOL0     C14235   4.735  10.909   9.192 -0.5653  0.9604  0.7254
  106MOL0     C14236   4.801  10.888   9.060  0.0227 -0.7068  0.1438
  106MOL0     C14237   4.900  11.004   9.020 -0.3608 -0.8649 -0.0125
  106MOL0     C14238   4.839  11.145   8.998 -0.2755 -0.3785  0.6254
  106MOL0     C14239   4.709  11.130   8.938  0.1876 -0.1992 -0.1423
  106MOL0     C14240   4.603  11.110   8.882 -0.5096 -0.6754  1.2007
  106MOL0     C14241   4.430  10.716   9.293  0.1791  0.1247  0.2831
  106MOL0     C14242   4.314  10.719   9.375 -0.7745 -0.8798  0.4236
  106MOL0     H14243   3.893  10.920   9.441  0.6693 -1.5353  0.7746
  106MOL0     H14244   3.668  11.002   9.527 -1.1656 -1.8417  1.7496
  106MOL0     H14245   3.485  11.140   9.620 -1.1729  1.1298  0.5528
  106MOL0     H14246   3.521  10.974   9.649 -2.3759  0.4881 -1.2254
  106MOL0     H14247   3.369  11.169   9.843 -0.6266  0.3263  0.3580
  106MOL0     H14248   3.294  11.042   9.752  2.2310 -2.5878 -2.0033
  106MOL0     H14249   3.442  10.874   9.897 -0.9523  0.0268  2.2724
  106MOL0     H14250   3.518  11.013   9.967  1.3583 -0.9888  0.1806
  106MOL0     H14251   3.300  11.066  10.073  2.7648  1.4954 -5.2430
  106MOL0     H14252   3.219  10.930   9.992  1.2468 -1.4889  1.2081
  106MOL0     H14253   3.446  10.897  10.202  0.4089  0.0707  2.0475
  106MOL0     H14254   3.285  10.871  10.239  1.3782 -4.0442  1.9916
  106MOL0     H14255   3.438  10.702  10.040 -1.4848  1.3601  0.3148
  106MOL0     H14256   3.397  10.660  10.210 -0.7065 -0.2878  0.4746
  106MOL0     H14257   3.144  10.679  10.100 -2.4687 -1.9008 -1.0405
  106MOL0     H14258   3.221  10.655   9.949  2.2560  0.6212 -0.8559
  106MOL0     H14259   3.292  10.457  10.157 -2.9492  1.9453  1.5700
  106MOL0     H14260   3.316  10.449   9.979 -0.8929 -3.1242  1.3525
  106MOL0     H14261   3.131  10.352   9.845  0.6371 -2.4044  0.8061
  106MOL0     H14262   2.758  10.342   9.872 -1.1697 -1.3603 -1.6767
  106MOL0     H14263   2.883  10.280   9.763 -1.5567 -3.0627 -0.4273
  106MOL0     H14264   2.753  10.124   9.986 -2.5359  1.1825 -0.2648
  106MOL0     H14265   2.896  10.071   9.907  2.1019  2.4663 -0.7962
  106MOL0     H14266   2.818  10.016   9.708 -0.5545 -1.5063  0.7332
  106MOL0     H14267   2.684  10.128   9.702 -2.6015 -1.5973  0.5585
  106MOL0     H14268   2.555  10.001   9.853  0.0389  0.5568  0.4113
  106MOL0     H14269   2.691   9.890   9.897  1.0697 -0.6237 -0.5618
  106MOL0     H14270   2.464   9.832   9.919  2.2170 -0.9038  0.1484
  106MOL0     H14271   2.399   9.578  10.065  1.6923  0.0516 -2.6034
  106MOL0     H14272   2.294   9.732  10.065 -0.8405  1.6456 -3.0522
  106MOL0     H14273   2.221   9.584  10.030  0.7100  0.4173  3.2000
  106MOL0     H14274   1.953   9.451  10.065 -0.7620 -1.2164  3.2761
  106MOL0     H14275   1.787   9.291  10.100 -0.6195  0.9306 -1.3311
  106MOL0     H14276   1.709   8.947   9.825  3.0003 -1.0896 -0.7568
  106MOL0     H14277   1.803   8.879   9.957 -1.2547  0.2066  2.4917
  106MOL0     H14278   1.607   8.765   9.948  3.1897 -0.5405  4.9099
  106MOL0     H14279   1.581   8.879  10.085 -0.1932  1.4350  0.4030
  106MOL0     H14280   1.487   8.965   9.815 -1.0626  0.5060 -0.5378
  106MOL0     H14281   1.461   9.026   9.977 -0.1500  0.1579  0.4347
  106MOL0     H14282   1.342   8.763   9.849 -0.4784  0.5797 -0.9508
  106MOL0     H14283   1.348   8.791  10.020 -1.8751  0.4147  0.2762
  106MOL0     H14284   1.229   8.979   9.810 -1.6314 -1.1076 -0.8576
  106MOL0     H14285   1.251   9.013   9.982 -0.1184  0.6819 -0.2594
  106MOL0     H14286   1.089   8.785   9.859  3.1757 -0.7534  0.2532
  106MOL0     H14287   1.110   8.795  10.032 -0.5013 -0.9425 -0.4270
  106MOL0     H14288   1.007   9.035  10.019  0.7933  0.1564 -0.7542
  106MOL0     H14289   0.898   8.900   9.997  0.6485 -1.6569  0.5815
  106MOL0     H14290   0.908   8.895   9.759 -1.1160  0.8712 -0.0683
  106MOL0     H14291   1.026   9.036   9.739 -1.1568  4.8209  0.3323
  106MOL0     H14292   1.970   9.009   9.836 -0.4369 -1.3700  2.4809
  106MOL0     H14293   2.132   9.165   9.776 -1.2317 -3.6988 -0.0014
  106MOL0     H14294   2.365   9.511   9.559 -0.4253 -0.0569  0.1490
  106MOL0     H14295   2.535   9.719   9.537 -0.4614  1.1542 -0.5179
  106MOL0     H14296   3.871  11.120   9.890  1.3407 -0.8264 -0.4631
  106MOL0     H14297   4.090  11.066   9.781 -1.8098  2.1581  1.3484
  106MOL0     H14298   4.354  11.035   9.497  4.0335  2.1247 -2.0158
  106MOL0     H14299   4.577  11.008   9.375  0.6477 -0.1555 -3.0823
  106MOL0     H14300   4.670  10.996   9.200 -1.8927  0.1635 -0.8684
  106MOL0     H14301   4.817  10.913   9.265 -0.1740  0.0562  0.3495
  106MOL0     H14302   4.727  10.868   8.983 -1.8874 -2.1170  2.2059
  106MOL0     H14303   4.863  10.799   9.075 -0.6173 -1.6524 -2.3978
  106MOL0     H14304   4.964  10.980   8.935  0.2020  1.8323 -0.4241
  106MOL0     H14305   4.969  11.004   9.106  0.1645  0.5601 -0.4041
  106MOL0     H14306   4.912  11.196   8.934 -1.7118  0.9055 -0.0517
  106MOL0     H14307   4.822  11.193   9.095  0.1071 -0.5283  0.7693
  106MOL0     H14308   4.512  11.101   8.826 -0.4516 -0.9606  1.1517
  106MOL0     H14309   4.455  10.635   9.226  0.3127  0.6533 -0.3124
  106MOL0     H14310   4.249  10.632   9.375 -1.5199 -0.3357  0.2478
  107MOL0     O14311   3.087   8.687   7.122  0.2217  0.7651  0.3115
  107MOL0     C14312   3.095   8.686   7.001  0.0854  0.4877 -0.3601
  107MOL0     O14313   3.014   8.608   6.915  0.2421 -0.0216 -0.1879
  107MOL0     C14314   2.903   8.536   6.960 -0.1245  0.3058 -0.5902
  107MOL0     C14315   2.865   8.423   6.879  0.3803  0.9428  0.0039
  107MOL0     C14316   2.749   8.340   6.906  0.6313  0.1916  0.4413
  107MOL0     C14317   2.674   8.368   7.025 -0.6745  0.8421  0.4494
  107MOL0     O14318   2.552   8.313   7.048  0.0887  0.2698  0.4212
  107MOL0     C14319   2.497   8.210   6.959  0.3363  0.1152 -0.3818
  107MOL0     C14320   2.396   8.122   7.037  0.3623 -0.1419 -1.1126
  107MOL0     C14321   2.382   7.976   6.992 -0.7297  0.7458 -0.8677
  107MOL0     C14322   2.278   7.956   6.877 -0.3861 -0.2229 -0.7387
  107MOL0     C14323   2.265   7.813   6.820  0.2722 -0.5494  0.4014
  107MOL0     C14324   2.287   7.706   6.921 -0.0442  0.4725 -0.2295
  107MOL0     C14325   2.299   7.565   6.859 -0.2689  0.2524  0.1284
  107MOL0     C14326   2.288   7.447   6.964 -0.3803 -0.3730 -0.5281
  107MOL0     N14327   2.208   7.329   6.917 -0.0873 -0.5438 -0.0028
  107MOL0     C14328   2.082   7.313   6.983  1.0366  0.5188  0.3052
  107MOL0     C14329   2.037   7.198   6.926 -1.2060  0.0712 -0.1839
  107MOL0     C14330   1.900   7.152   6.944 -0.1966 -0.1694  0.0546
  107MOL0     C14331   1.812   7.221   6.834  0.0467 -0.6494  0.6647
  107MOL0     C14332   1.688   7.140   6.792  0.2506  0.2433 -0.2823
  107MOL0     C14333   1.587   7.131   6.908 -0.3968 -0.2032  0.1280
  107MOL0     O14334   1.474   7.050   6.853  1.3479 -0.0696 -0.5509
  107MOL0     C14335   1.355   7.105   6.793 -0.3477  0.9615  0.1929
  107MOL0     C14336   1.264   7.008   6.771  0.2512 -0.9157 -0.6924
  107MOL0     C14337   1.136   7.037   6.731 -0.4241  0.5557  0.5678
  107MOL0     C14338   1.035   6.922   6.716 -0.5126 -0.6716  0.3238
  107MOL0     C14339   1.105   7.172   6.695 -0.1422 -1.4250  0.3103
  107MOL0     C14340   0.980   7.216   6.629 -0.3385  0.4595  0.0556
  107MOL0     O14341   0.915   7.146   6.529  0.0854  0.0616  0.2535
  107MOL0     C14342   0.798   7.195   6.477  0.2386 -0.2531  0.5601
  107MOL0     C14343   0.693   7.233   6.567  0.1453 -0.0376 -0.3356
  107MOL0     C14344   0.573   7.274   6.512  0.1429  1.8573 -0.4545
  107MOL0     C14345   0.555   7.294   6.374 -0.1887 -1.1404  0.0914
  107MOL0     O14346   0.429   7.328   6.340  1.2506  0.1238  0.6319
  107MOL0     C14347   0.368   7.261   6.228  0.1405  0.0590 -0.8344
  107MOL0     C14348   0.219   7.297   6.242 -0.5503 -0.0434 -0.0452
  107MOL0     C14349   0.167   7.431   6.198  0.3809 -0.0526 -0.3405
  107MOL0     C14350   0.195   7.553   6.286 -0.5460 -0.8587  0.6247
  107MOL0     C14351   0.092   7.664   6.268 -0.7030  0.0847 -0.1319
  107MOL0     C14352   0.131   7.788   6.341  0.1788  0.2541  0.5266
  107MOL0     C14353   0.036   7.915   6.331 -0.6705  0.9016 -0.2948
  107MOL0     C14354   0.112   8.038   6.274  0.0721  0.5759 -0.4607
  107MOL0    Cl14355   0.139   8.018   6.100  0.2539  0.5008 -0.3215
  107MOL0     C14356   0.660   7.249   6.284 -0.8421 -0.1701 -0.1109
  107MOL0     C14357   0.778   7.201   6.341 -0.8999 -0.1457  0.7897
  107MOL0     O14358   0.934   7.312   6.688  0.2232  0.4190 -0.3175
  107MOL0     C14359   1.211   7.274   6.707 -0.3387  0.2577  0.3335
  107MOL0     C14360   1.338   7.238   6.759  0.4268 -0.3882 -0.0995
  107MOL0     N14361   2.139   7.142   6.845  0.2176  0.2266 -0.1757
  107MOL0     N14362   2.236   7.224   6.841  0.0180  0.6378 -0.5728
  107MOL0     C14363   2.725   8.465   7.111  0.1829 -1.0171  0.0442
  107MOL0     C14364   2.832   8.549   7.081  0.4699 -0.0931 -0.1778
  107MOL0     C14365   3.215   8.754   6.937  0.9222 -0.6244  0.5843
  107MOL0     C14366   3.225   8.784   6.793  0.1362 -0.1936 -0.3403
  107MOL0     C14367   3.322   8.862   6.736  0.3740 -0.2599  0.4942
  107MOL0     C14368   3.422   8.916   6.814 -0.5544  0.2562 -0.6122
  107MOL0     O14369   3.512   8.991   6.741 -0.5420  0.6393 -0.3238
  107MOL0     C14370   3.590   9.087   6.819  0.6405 -0.4153  0.4984
  107MOL0     C14371   3.728   9.032   6.872  0.7525 -0.7108 -0.7858
  107MOL0     C14372   3.827   8.982   6.774  0.8243  0.1551  0.2666
  107MOL0     C14373   3.899   8.848   6.809 -0.0444 -0.4395  0.6820
  107MOL0     C14374   3.970   8.873   6.937  0.6155 -0.1118 -0.0327
  107MOL0     C14375   4.036   8.899   7.043 -0.7993  0.0297 -0.6294
  107MOL0     C14376   3.421   8.889   6.954  0.1718  0.9954  0.1635
  107MOL0     C14377   3.311   8.810   7.009 -0.0563  0.1979 -0.5106
  107MOL0     H14378   2.911   8.423   6.781  3.3186 -2.5443  1.1801
  107MOL0     H14379   2.715   8.263   6.838  0.5246 -1.0031  1.7955
  107MOL0     H14380   2.455   8.246   6.865 -0.2800  0.4383  0.0164
  107MOL0     H14381   2.586   8.152   6.930  0.6321  1.0968 -1.5383
  107MOL0     H14382   2.435   8.131   7.139 -0.4387  1.3943 -0.9062
  107MOL0     H14383   2.295   8.163   7.026  1.1554  2.6499  0.8861
  107MOL0     H14384   2.482   7.947   6.957 -1.4605 -2.2343 -0.7175
  107MOL0     H14385   2.356   7.910   7.074  2.4400 -2.0078 -1.8485
  107MOL0     H14386   2.179   7.979   6.917 -1.5097 -1.8149 -2.4392
  107MOL0     H14387   2.295   8.028   6.797  0.5035  1.2132  0.6740
  107MOL0     H14388   2.165   7.802   6.777  0.2446  0.4298  0.2002
  107MOL0     H14389   2.340   7.793   6.743 -0.9942 -2.7907 -0.3769
  107MOL0     H14390   2.381   7.733   6.970  0.7678 -0.2504 -1.3355
  107MOL0     H14391   2.206   7.704   6.994  1.4105  1.1764  1.4842
  107MOL0     H14392   2.212   7.553   6.793 -1.0913 -0.3140  1.2803
  107MOL0     H14393   2.394   7.546   6.809  0.0851 -0.0229  0.8954
  107MOL0     H14394   2.246   7.488   7.056  1.7903  2.6907 -0.7480
  107MOL0     H14395   2.389   7.416   6.994 -0.3450  0.3539  0.1281
  107MOL0     H14396   2.030   7.384   7.046  2.2360  1.3571  0.3897
  107MOL0     H14397   1.899   7.043   6.929 -2.5060  0.0892 -2.3204
  107MOL0     H14398   1.867   7.178   7.045  0.4076  1.6143 -0.1837
  107MOL0     H14399   1.856   7.215   6.734 -0.5213  0.2895  0.3388
  107MOL0     H14400   1.795   7.324   6.866 -1.4313 -0.8593  0.6542
  107MOL0     H14401   1.722   7.044   6.753  1.9959  1.3834 -1.7444
  107MOL0     H14402   1.636   7.187   6.708  2.0381  0.0605 -1.5471
  107MOL0     H14403   1.545   7.227   6.941 -1.8620 -1.7086  3.0710
  107MOL0     H14404   1.640   7.086   6.992  1.5043 -0.2194 -1.0295
  107MOL0     H14405   1.289   6.904   6.790  2.2722  0.1028  3.5659
  107MOL0     H14406   1.057   6.848   6.794  0.9025  0.4787  1.0618
  107MOL0     H14407   0.935   6.964   6.725 -0.6829 -0.0631 -3.0273
  107MOL0     H14408   1.033   6.875   6.617 -3.8595 -1.0153  0.4350
  107MOL0     H14409   0.712   7.220   6.673  0.3535  0.4133 -0.3153
  107MOL0     H14410   0.494   7.295   6.584  2.0943  2.4511  1.6497
  107MOL0     H14411   0.405   7.298   6.133  0.5693  1.4829 -0.1465
  107MOL0     H14412   0.373   7.153   6.241 -0.4289  0.2021  0.9088
  107MOL0     H14413   0.175   7.222   6.176  1.7879 -1.6413  0.0754
  107MOL0     H14414   0.186   7.274   6.344  0.3569 -0.7346  0.1069
  107MOL0     H14415   0.059   7.417   6.182  0.3811  2.6338 -3.6038
  107MOL0     H14416   0.205   7.455   6.099 -1.7105 -0.2629 -1.2574
  107MOL0     H14417   0.193   7.516   6.389 -2.9224  2.7583  2.0726
  107MOL0     H14418   0.294   7.597   6.268  0.0336 -1.6354  1.7596
  107MOL0     H14419  -0.007   7.633   6.304  0.2609 -1.5950  1.2353
  107MOL0     H14420   0.088   7.683   6.161 -0.3398  1.3342  0.0704
  107MOL0     H14421   0.140   7.763   6.447 -4.0431  1.9753  1.4891
  107MOL0     H14422   0.232   7.811   6.307 -0.9494  0.5947 -3.0377
  107MOL0     H14423   0.004   7.939   6.433  0.4876 -0.1229  0.3448
  107MOL0     H14424  -0.053   7.888   6.274 -0.5221  2.6433 -1.4196
  107MOL0     H14425   0.210   8.047   6.323  1.2516 -1.0679 -2.3612
  107MOL0     H14426   0.055   8.130   6.286 -1.1576 -0.1524 -0.5692
  107MOL0     H14427   0.634   7.267   6.180 -1.9574  0.3269  0.2461
  107MOL0     H14428   0.852   7.155   6.276 -0.6084  1.0111  0.2771
  107MOL0     H14429   1.194   7.380   6.687 -0.6952  0.2162  0.4115
  107MOL0     H14430   1.407   7.317   6.786 -1.8647  1.4270  0.7545
  107MOL0     H14431   2.662   8.498   7.193  2.4760  0.9377  1.1234
  107MOL0     H14432   2.863   8.624   7.154 -1.7554  0.3397  0.4267
  107MOL0     H14433   3.147   8.738   6.734 -1.9678  0.6750  1.6057
  107MOL0     H14434   3.323   8.878   6.629 -3.0212  0.7671  0.4881
  107MOL0     H14435   3.629   9.161   6.748 -0.3770 -2.4375 -2.3432
  107MOL0     H14436   3.532   9.134   6.900 -0.4411  0.7188 -0.8876
  107MOL0     H14437   3.708   8.953   6.945 -2.8182  0.8105  0.1191
  107MOL0     H14438   3.774   9.109   6.936  0.2078 -1.7556  0.9443
  107MOL0     H14439   3.900   9.059   6.749  0.7777 -0.3069 -1.4042
  107MOL0     H14440   3.773   8.972   6.679 -1.8034  1.5535  1.4920
  107MOL0     H14441   3.972   8.824   6.731 -1.5387  0.6232 -1.1161
  107MOL0     H14442   3.832   8.763   6.823  0.0507 -0.7413 -0.6150
  107MOL0     H14443   4.078   8.908   7.141 -2.1638 -0.9004  0.0746
  107MOL0     H14444   3.491   8.933   7.023  0.5193  1.5130 -0.5017
  107MOL0     H14445   3.314   8.802   7.117  3.0569 -0.9929 -0.5736
  108MOL0     O14446  10.592   8.774   8.839 -0.6894 -0.4997 -0.0359
  108MOL0     C14447  10.634   8.888   8.858 -1.2850 -0.1729 -0.2739
  108MOL0     O14448  10.583   8.979   8.949 -0.2158  0.3783  0.3594
  108MOL0     C14449  10.485   8.940   9.036  0.0011 -0.3710 -0.2546
  108MOL0     C14450  10.459   8.826   9.113 -0.8755  0.2855 -0.8455
  108MOL0     C14451  10.344   8.801   9.181  0.7314  0.3524 -0.3160
  108MOL0     C14452  10.257   8.899   9.198  0.5492 -0.3102 -0.4951
  108MOL0     O14453  10.149   8.883   9.288 -0.1886  0.1435 -0.1562
  108MOL0     C14454  10.036   8.970   9.295  0.0309 -0.2059  0.7259
  108MOL0     C14455   9.948   8.974   9.166  0.3611  0.4934 -0.3313
  108MOL0     C14456   9.873   9.109   9.174  0.2497 -0.7311 -0.6257
  108MOL0     C14457   9.815   9.143   9.037 -0.1820  0.1015  0.8713
  108MOL0     C14458   9.769   9.284   9.024  0.2828  0.9256 -0.1324
  108MOL0     C14459   9.866   9.400   9.029 -1.1456  0.0747 -0.5439
  108MOL0     C14460   9.850   9.514   8.932 -0.0888 -0.2872 -0.4757
  108MOL0     C14461   9.912   9.496   8.790 -0.6437  1.0305  0.3288
  108MOL0     N14462   9.918   9.627   8.720 -0.1638  0.1967  0.4773
  108MOL0     C14463   9.990   9.741   8.761  0.3198 -0.2853  0.3663
  108MOL0     C14464   9.946   9.835   8.673  0.0751 -0.0486  0.1355
  108MOL0     C14465   9.992   9.980   8.678  0.1487 -0.3172  0.5276
  108MOL0     C14466   9.876  10.071   8.720 -0.7846  1.1376  0.0665
  108MOL0     C14467   9.924  10.212   8.745 -0.0992  0.1954  0.2432
  108MOL0     C14468   9.817  10.321   8.740  0.7814 -0.1351  0.0009
  108MOL0     O14469   9.741  10.325   8.620 -0.3776 -0.8668  0.2218
  108MOL0     C14470   9.623  10.389   8.612 -0.6963  0.4969 -1.2978
  108MOL0     C14471   9.586  10.499   8.690  0.1598  0.4232 -1.0693
  108MOL0     C14472   9.457  10.561   8.691  0.2072 -0.4134  0.2030
  108MOL0     C14473   9.437  10.668   8.794 -0.3894 -0.3203  0.4631
  108MOL0     C14474   9.364  10.523   8.588  0.1934  0.1111 -0.7410
  108MOL0     C14475   9.215  10.557   8.583 -1.1084  0.4235  0.4284
  108MOL0     O14476   9.138  10.478   8.496  0.1533  0.1231 -0.8458
  108MOL0     C14477   9.008  10.519   8.495  0.8468 -0.2507 -0.6761
  108MOL0     C14478   8.923  10.433   8.559  0.3451 -0.4053 -0.5648
  108MOL0     C14479   8.783  10.461   8.569 -0.7275 -0.4004 -0.0445
  108MOL0     C14480   8.731  10.585   8.516  0.9261  0.6322  0.0453
  108MOL0     O14481   8.598  10.603   8.516  0.3196 -0.1658 -0.4435
  108MOL0     C14482   8.536  10.711   8.444  0.3426 -1.1489 -0.5825
  108MOL0     C14483   8.493  10.668   8.308  0.3753 -0.8050  0.0901
  108MOL0     C14484   8.405  10.783   8.238  0.3780 -0.2013 -0.0647
  108MOL0     C14485   8.491  10.909   8.205  0.3445  0.4801 -0.6178
  108MOL0     C14486   8.426  11.014   8.124  0.2304  0.6865 -0.0152
  108MOL0     C14487   8.297  11.084   8.181  0.9379  0.5262  0.2973
  108MOL0     C14488   8.310  11.134   8.325 -0.3352 -0.5528  1.0746
  108MOL0     C14489   8.189  11.200   8.379  0.1960  0.9033 -0.2588
  108MOL0    Cl14490   8.158  11.345   8.293  0.5106 -0.0078  0.0261
  108MOL0     C14491   8.821  10.673   8.455 -0.7512 -0.2135 -0.9037
  108MOL0     C14492   8.962  10.640   8.440  0.6868 -0.3664 -0.4906
  108MOL0     O14493   9.173  10.637   8.662 -0.1364 -0.1179  0.2123
  108MOL0     C14494   9.412  10.424   8.494  0.3884  0.2599 -0.8494
  108MOL0     C14495   9.539  10.356   8.512  0.1309 -0.0867 -0.1081
  108MOL0     N14496   9.858   9.771   8.586 -0.4978  0.1703  0.2094
  108MOL0     N14497   9.846   9.655   8.604 -0.1752 -1.1271 -0.0449
  108MOL0     C14498  10.280   9.026   9.136  0.8522 -0.9861  0.6444
  108MOL0     C14499  10.394   9.040   9.056 -0.6058  0.5962 -0.2968
  108MOL0     C14500  10.744   8.951   8.778 -0.4108  0.5356  0.5671
  108MOL0     C14501  10.799   9.086   8.807 -0.0568  0.1066 -0.0148
  108MOL0     C14502  10.920   9.132   8.745 -0.2262  0.2657 -0.8302
  108MOL0     C14503  10.991   9.047   8.660  0.3955 -0.0070 -0.0316
  108MOL0     O14504  11.113   9.085   8.619 -0.1756 -0.2233 -0.1366
  108MOL0     C14505  11.145   9.083   8.480  0.1882 -0.7909 -0.6205
  108MOL0     C14506  11.040   9.130   8.393  0.7849 -0.4451 -0.3013
  108MOL0     C14507  11.082   9.144   8.241 -0.9293 -0.4058 -0.1240
  108MOL0     C14508  10.970   9.185   8.148  0.2791  0.5652  0.4461
  108MOL0     C14509  10.915   9.316   8.188 -0.2929  0.5457  0.0525
  108MOL0     C14510  10.879   9.422   8.218  0.1025 -0.0550  0.1149
  108MOL0     C14511  10.938   8.919   8.627 -0.1545  0.0039 -0.2926
  108MOL0     C14512  10.812   8.877   8.678  0.4434  0.3664 -0.0456
  108MOL0     H14513  10.528   8.743   9.101 -0.7790  0.2657 -0.1547
  108MOL0     H14514  10.335   8.702   9.225 -2.1837  1.0632  0.9190
  108MOL0     H14515   9.974   8.941   9.380 -0.2999 -1.7914 -0.0130
  108MOL0     H14516  10.081   9.066   9.321  0.1773 -0.5560  1.8178
  108MOL0     H14517  10.012   8.963   9.078  0.8202 -3.5654  0.3279
  108MOL0     H14518   9.872   8.895   9.167  2.2768 -1.4355 -0.0412
  108MOL0     H14519   9.791   9.118   9.246  1.7203 -1.4244  1.1965
  108MOL0     H14520   9.947   9.184   9.202 -0.8743 -0.7352  2.8732
  108MOL0     H14521   9.888   9.146   8.955  0.2563 -0.0239  1.2565
  108MOL0     H14522   9.744   9.069   8.998  0.8102  0.6701 -2.3614
  108MOL0     H14523   9.726   9.287   8.923  1.2034 -0.8521 -0.6057
  108MOL0     H14524   9.689   9.308   9.094 -0.0675  1.2051 -0.6185
  108MOL0     H14525   9.862   9.439   9.131  1.3592 -0.7290 -0.0653
  108MOL0     H14526   9.971   9.372   9.032 -1.9431 -3.2813  0.8226
  108MOL0     H14527   9.744   9.535   8.920 -0.3228 -0.4874  1.1205
  108MOL0     H14528   9.904   9.600   8.974  0.6284 -1.3769  0.9026
  108MOL0     H14529   9.839   9.433   8.738 -1.0964 -1.5904  3.7901
  108MOL0     H14530  10.012   9.455   8.801 -0.8944  0.2673 -0.1726
  108MOL0     H14531  10.043   9.753   8.855 -0.8850 -3.1129  1.5159
  108MOL0     H14532  10.069   9.993   8.753  0.9721 -0.3503 -0.2929
  108MOL0     H14533  10.027   9.998   8.575  0.1367 -0.7734  0.4407
  108MOL0     H14534   9.830  10.032   8.811  1.2111  0.4255  0.8090
  108MOL0     H14535   9.805  10.070   8.637 -1.5212  0.3418  0.6889
  108MOL0     H14536   9.999  10.239   8.671  1.9510 -1.8358  1.4694
  108MOL0     H14537   9.976  10.215   8.841 -1.3806  1.6480  0.9324
  108MOL0     H14538   9.857  10.422   8.758  1.5601 -0.5013  0.3984
  108MOL0     H14539   9.750  10.305   8.825  0.3752  0.8060 -0.1369
  108MOL0     H14540   9.660  10.541   8.757  2.0454 -0.5543 -2.4370
  108MOL0     H14541   9.448  10.633   8.898 -2.8054  0.0190  0.8951
  108MOL0     H14542   9.514  10.741   8.769  0.4136 -1.2128  0.2555
  108MOL0     H14543   9.340  10.718   8.787  0.2683  1.2611  1.9650
  108MOL0     H14544   8.953  10.338   8.601 -1.7629 -1.0055 -0.3182
  108MOL0     H14545   8.717  10.379   8.596 -1.6177 -0.3021 -1.7705
  108MOL0     H14546   8.448  10.743   8.499  0.4058 -0.2273 -1.0082
  108MOL0     H14547   8.597  10.801   8.431 -0.7471 -0.2621  0.2704
  108MOL0     H14548   8.569  10.652   8.231 -2.8136 -3.2062 -2.9569
  108MOL0     H14549   8.431  10.577   8.309 -1.0786  0.1513 -0.1664
  108MOL0     H14550   8.316  10.813   8.295 -2.9721 -3.6610 -2.8274
  108MOL0     H14551   8.354  10.744   8.149 -0.0017 -1.6727  0.7592
  108MOL0     H14552   8.529  10.967   8.290  1.0712  0.4133 -0.8816
  108MOL0     H14553   8.584  10.883   8.152  0.7172  0.5880 -0.0324
  108MOL0     H14554   8.397  10.968   8.030  1.1066  0.4349 -0.1778
  108MOL0     H14555   8.503  11.089   8.101 -0.1111  0.6125 -1.4704
  108MOL0     H14556   8.274  11.171   8.119  0.6856  0.1360 -0.1561
  108MOL0     H14557   8.221  11.006   8.179 -1.8094  2.9914  1.2751
  108MOL0     H14558   8.395  11.202   8.336  0.3713 -1.2464  0.1483
  108MOL0     H14559   8.323  11.043   8.385 -0.4131  0.7175  3.1368
  108MOL0     H14560   8.195  11.221   8.487 -0.5790 -0.4678  0.0730
  108MOL0     H14561   8.113  11.125   8.357  2.6654 -2.7553  2.3795
  108MOL0     H14562   8.804  10.774   8.417 -0.2485  0.3763  0.3556
  108MOL0     H14563   9.029  10.711   8.393 -1.0840  0.7280 -1.4686
  108MOL0     H14564   9.347  10.390   8.413 -0.6086  2.2687 -0.9569
  108MOL0     H14565   9.582  10.293   8.434  0.9227  1.6774 -1.1537
  108MOL0     H14566  10.218   9.114   9.136 -0.3477 -1.7508 -1.5477
  108MOL0     H14567  10.417   9.141   9.023  0.6738  0.4270  0.0256
  108MOL0     H14568  10.751   9.143   8.885  1.0961  0.2823  0.5886
  108MOL0     H14569  10.962   9.224   8.783  0.1951 -0.8380  1.5557
  108MOL0     H14570  11.223   9.158   8.467 -0.9249  0.0849 -2.6667
  108MOL0     H14571  11.189   8.986   8.455 -0.4959 -0.9423 -1.2701
  108MOL0     H14572  11.010   9.233   8.418 -0.4301  0.1172 -3.4923
  108MOL0     H14573  10.955   9.062   8.389 -0.3177  0.8650 -0.2394
  108MOL0     H14574  11.105   9.040   8.215  0.8150  0.3186 -1.7010
  108MOL0     H14575  11.171   9.206   8.227 -1.9681  1.1471 -0.1715
  108MOL0     H14576  10.888   9.113   8.147 -0.3641  1.2768 -0.8179
  108MOL0     H14577  11.012   9.195   8.048  0.4419  2.4945  0.6580
  108MOL0     H14578  10.836   9.517   8.243 -3.2084 -0.9242 -1.6769
  108MOL0     H14579  10.999   8.870   8.551 -0.0422  0.5829 -0.5837
  108MOL0     H14580  10.764   8.780   8.662  0.5717  0.4353 -0.8784
  109MOL0     O14581   5.705  10.713   0.143 -0.5116 -0.4789 -1.1187
  109MOL0     C14582   5.692  10.782   0.238  0.0758 -0.2117  0.0216
  109MOL0     O14583   5.564  10.807   0.300 -0.4739  0.0683 -0.5387
  109MOL0     C14584   5.441  10.766   0.254 -0.3772  0.3757 -0.3365
  109MOL0     C14585   5.414  10.731   0.125 -0.1967 -0.4585 -0.3475
  109MOL0     C14586   5.292  10.670   0.092  0.4078  0.0238  0.3778
  109MOL0     C14587   5.189  10.655   0.185 -0.3285  0.7366  0.4679
  109MOL0     O14588   5.074  10.589   0.143  0.2203  0.0101 -0.4180
  109MOL0     C14589   4.980  10.568   0.240 -0.0224 -0.1881 -0.7265
  109MOL0     C14590   5.012  10.465   0.344 -0.4814 -0.8135 -0.8031
  109MOL0     C14591   5.056  10.323   0.288 -0.2838 -0.0481 -0.1090
  109MOL0     C14592   5.212  10.317   0.272 -0.2994 -0.9389  0.0251
  109MOL0     C14593   5.301  10.328   0.403  0.8142 -0.0817  0.1270
  109MOL0     C14594   5.453  10.298   0.381  0.0203  0.9005 -0.3254
  109MOL0     C14595   5.513  10.389   0.282 -0.5308  0.4033  0.4427
  109MOL0     C14596   5.666  10.376   0.263  0.6634  0.7545  0.0475
  109MOL0     N14597   5.737  10.412   0.388 -0.1656 -0.6407  0.7241
  109MOL0     C14598   5.712  10.541   0.455  0.2751 -0.5083  0.9650
  109MOL0     C14599   5.790  10.536   0.563 -0.3636  0.0270 -0.1102
  109MOL0     C14600   5.791  10.645   0.655  1.0027 -0.0753  0.3308
  109MOL0     C14601   5.698  10.612   0.778  0.2127  0.0852  0.0268
  109MOL0     C14602   5.550  10.574   0.745 -0.4167  0.5900  0.6686
  109MOL0     C14603   5.469  10.524   0.854 -0.0854  0.6987 -0.8441
  109MOL0     O14604   5.342  10.474   0.810 -0.4401 -0.2658  0.8474
  109MOL0     C14605   5.263  10.418   0.903  0.0021 -0.3861 -0.4154
  109MOL0     C14606   5.137  10.376   0.852 -0.7098  0.2951 -0.3295
  109MOL0     C14607   5.041  10.337   0.946 -0.2535 -0.8925 -0.9559
  109MOL0     C14608   4.911  10.313   0.889 -0.0925  0.6221 -0.3905
  109MOL0     C14609   5.070  10.336   1.085  0.6495  0.8305 -0.3205
  109MOL0     C14610   4.970  10.278   1.176  0.2186 -1.1042 -0.2901
  109MOL0     O14611   4.904  10.163   1.143  0.3178  0.5598  0.1342
  109MOL0     C14612   4.805  10.113   1.225  0.4502  0.2930 -0.7645
  109MOL0     C14613   4.821   9.988   1.279  0.3955  0.1748  0.6909
  109MOL0     C14614   4.715   9.921   1.335 -0.0803 -0.3812 -0.5806
  109MOL0     C14615   4.586   9.975   1.333 -0.2079 -0.1751  0.1583
  109MOL0     O14616   4.476   9.902   1.370  0.0150 -0.1413 -0.2041
  109MOL0     C14617   4.361   9.958   1.445  1.1299 -1.4498 -0.6008
  109MOL0     C14618   4.261   9.840   1.455  0.2325 -0.5470  0.1183
  109MOL0     C14619   4.116   9.883   1.470  0.1374  0.9348 -0.2272
  109MOL0     C14620   4.040   9.808   1.579  0.3183 -0.9466 -1.5336
  109MOL0     C14621   3.887   9.825   1.550 -0.6903 -0.6629  0.9207
  109MOL0     C14622   3.827   9.969   1.543  0.2183 -1.1033  0.2223
  109MOL0     C14623   3.685   9.972   1.583 -0.5484  0.4974  0.3900
  109MOL0     C14624   3.672   9.926   1.730 -0.1490  0.0304  1.0746
  109MOL0    Cl14625   3.513   9.936   1.791 -0.4551 -0.0379 -0.1270
  109MOL0     C14626   4.571  10.111   1.287 -0.4150 -0.1088 -0.6162
  109MOL0     C14627   4.677  10.178   1.235  0.6227 -1.1687 -0.2923
  109MOL0     O14628   4.942  10.347   1.279 -0.0976  0.2517 -0.0656
  109MOL0     C14629   5.195  10.386   1.136 -0.2067  0.5972  0.6268
  109MOL0     C14630   5.293  10.418   1.042 -0.2028  0.8618 -0.2598
  109MOL0     N14631   5.870  10.418   0.557 -0.9112  0.3857  0.5601
  109MOL0     N14632   5.833  10.343   0.458  0.1786 -0.7191 -0.0471
  109MOL0     C14633   5.211  10.722   0.304  0.7946 -0.3636 -0.0493
  109MOL0     C14634   5.340  10.772   0.340  0.2438  0.4484  0.3977
  109MOL0     C14635   5.813  10.824   0.304  0.1236  0.2479  0.6829
  109MOL0     C14636   5.943  10.775   0.277  0.0005 -0.0657 -0.1328
  109MOL0     C14637   6.053  10.818   0.347  0.2014 -0.5396 -0.4893
  109MOL0     C14638   6.037  10.911   0.454  0.0441  0.2074  0.3681
  109MOL0     O14639   6.149  10.951   0.524  0.3797  0.4610  0.0178
  109MOL0     C14640   6.130  10.953   0.664 -0.5464  0.7123 -0.4850
  109MOL0     C14641   6.186  11.079   0.729 -0.0187  1.2281  0.2240
  109MOL0     C14642   6.112  11.202   0.675 -0.9522 -0.2271  0.0819
  109MOL0     C14643   6.171  11.331   0.729 -0.2843 -0.2382 -0.1279
  109MOL0     C14644   6.153  11.341   0.880  1.6517 -0.8531  1.0217
  109MOL0     C14645   6.137  11.341   1.001  0.5233  0.8328  0.1365
  109MOL0     C14646   5.910  10.970   0.478  0.6255  0.8465 -0.9526
  109MOL0     C14647   5.802  10.926   0.401 -0.5692  0.0203  0.2128
  109MOL0     H14648   5.485  10.752   0.046 -1.1430  1.0849 -0.8181
  109MOL0     H14649   5.276  10.629  -0.008  1.0909 -2.8154  1.3448
  109MOL0     H14650   4.940  10.664   0.275  0.8142 -0.4166  0.9364
  109MOL0     H14651   4.894  10.517   0.197 -0.7549 -1.1892  1.7782
  109MOL0     H14652   5.082  10.507   0.417 -0.9169 -1.0267 -0.2495
  109MOL0     H14653   4.922  10.459   0.406  0.5408 -1.0344  0.7161
  109MOL0     H14654   5.015  10.255   0.363 -1.0497  0.3127 -0.1884
  109MOL0     H14655   5.018  10.299   0.189 -0.4424  0.7217 -0.2406
  109MOL0     H14656   5.239  10.229   0.213 -1.1002 -0.9050 -0.4131
  109MOL0     H14657   5.248  10.398   0.208 -1.6579 -1.3843 -1.3758
  109MOL0     H14658   5.299  10.426   0.452  2.1439 -0.9288  2.0280
  109MOL0     H14659   5.277  10.265   0.490  0.7667  2.2013  1.8642
  109MOL0     H14660   5.505  10.298   0.478 -1.2857 -2.8837  0.5557
  109MOL0     H14661   5.465  10.196   0.346  2.3104  0.8179  0.5185
  109MOL0     H14662   5.467  10.383   0.184  1.3494  1.9827 -0.6131
  109MOL0     H14663   5.486  10.488   0.320  0.0029  0.3695  0.9278
  109MOL0     H14664   5.686  10.449   0.184 -0.6196 -0.5956 -1.6330
  109MOL0     H14665   5.700  10.277   0.231  0.2253  0.8135 -0.6352
  109MOL0     H14666   5.644  10.623   0.435 -0.9185 -1.5051  0.8621
  109MOL0     H14667   5.899  10.653   0.674  1.0529  1.0103 -0.3281
  109MOL0     H14668   5.757  10.738   0.609 -0.7189 -0.3201  1.0638
  109MOL0     H14669   5.702  10.699   0.844 -0.9250  1.9193 -2.2061
  109MOL0     H14670   5.743  10.530   0.836 -1.3339 -1.8175 -1.3137
  109MOL0     H14671   5.549  10.496   0.669 -2.2671 -0.4939  1.7472
  109MOL0     H14672   5.499  10.661   0.703 -2.9758 -1.6226 -1.0814
  109MOL0     H14673   5.459  10.604   0.927  0.5493 -1.1389  1.3699
  109MOL0     H14674   5.527  10.444   0.901  0.4045 -0.0115 -2.5741
  109MOL0     H14675   5.114  10.389   0.746  0.7927  0.6567 -0.6276
  109MOL0     H14676   4.910  10.321   0.780 -3.1132 -1.2435 -0.6061
  109MOL0     H14677   4.883  10.210   0.913 -2.4216  1.5359  1.1962
  109MOL0     H14678   4.830  10.376   0.927 -2.2802 -0.7288 -2.5260
  109MOL0     H14679   4.911   9.929   1.265 -0.4417 -0.5268 -2.6823
  109MOL0     H14680   4.721   9.817   1.364  2.2018 -0.2825 -0.5241
  109MOL0     H14681   4.389  10.004   1.541  1.2793 -2.1633 -0.2986
  109MOL0     H14682   4.298  10.028   1.389 -0.9748  0.5729  3.7862
  109MOL0     H14683   4.260   9.773   1.368  0.1444 -0.1517 -0.1880
  109MOL0     H14684   4.293   9.774   1.536  2.4284  1.2060  0.7670
  109MOL0     H14685   4.068   9.865   1.374 -2.2531  1.8767  0.6997
  109MOL0     H14686   4.112   9.989   1.496  0.3485  0.9268 -0.1575
  109MOL0     H14687   4.070   9.703   1.571  3.2365 -0.3729  0.4409
  109MOL0     H14688   4.059   9.851   1.677 -3.3820 -0.6484 -0.8090
  109MOL0     H14689   3.842   9.767   1.632  0.3089 -0.7882  1.3972
  109MOL0     H14690   3.860   9.783   1.453  0.1601 -0.2619  0.5081
  109MOL0     H14691   3.890  10.036   1.603 -0.9298 -1.1432  1.5314
  109MOL0     H14692   3.818   9.997   1.438 -5.2385  2.2434  1.2044
  109MOL0     H14693   3.622   9.924   1.508 -1.5348  2.8297 -0.3653
  109MOL0     H14694   3.657  10.077   1.569 -1.8579 -0.0752 -1.8418
  109MOL0     H14695   3.736   9.989   1.793  2.6308 -1.7760  0.2308
  109MOL0     H14696   3.699   9.821   1.741 -1.2753 -0.4270 -0.2931
  109MOL0     H14697   4.468  10.147   1.290 -0.6437 -0.7003  2.3428
  109MOL0     H14698   4.670  10.278   1.193 -2.4297 -2.2379 -2.7457
  109MOL0     H14699   5.212  10.380   1.243 -1.8955 -0.6997  0.8663
  109MOL0     H14700   5.393  10.430   1.082  0.5683  2.6974 -2.5305
  109MOL0     H14701   5.139  10.733   0.384 -0.8678 -2.5554 -1.1474
  109MOL0     H14702   5.360  10.827   0.431 -0.6497  2.0899 -0.3541
  109MOL0     H14703   5.951  10.694   0.206  0.2358  0.2354 -0.4507
  109MOL0     H14704   6.152  10.791   0.310  1.2345  0.8107  1.0953
  109MOL0     H14705   6.024  10.944   0.686 -0.9225 -4.2338 -2.9317
  109MOL0     H14706   6.173  10.864   0.710 -2.1381 -0.1143 -0.5356
  109MOL0     H14707   6.295  11.092   0.725  0.2078 -0.3141  0.5733
  109MOL0     H14708   6.169  11.084   0.837  0.3764 -2.1398  0.5542
  109MOL0     H14709   6.009  11.212   0.712 -1.8031 -1.1308 -1.8748
  109MOL0     H14710   6.097  11.201   0.566 -0.7239 -1.2952  0.0463
  109MOL0     H14711   6.121  11.417   0.682  1.7266  0.3185 -1.3940
  109MOL0     H14712   6.277  11.351   0.708 -0.5558  2.1065  0.4734
  109MOL0     H14713   6.160  11.343   1.105 -0.8750 -2.6738  0.6513
  109MOL0     H14714   5.899  11.059   0.540  1.6574 -0.6413  1.5371
  109MOL0     H14715   5.707  10.977   0.409 -0.1784  0.6387  1.0375
  110MOL0     O14716   1.585   0.544   8.192 -0.6857 -0.1038  1.0020
  110MOL0     C14717   1.592   0.423   8.202 -0.0803 -0.0819  0.8526
  110MOL0     O14718   1.524   0.346   8.293  0.2838  0.4767 -0.2103
  110MOL0     C14719   1.418   0.399   8.369 -0.0956  0.5656 -0.9969
  110MOL0     C14720   1.294   0.336   8.364 -0.4840 -0.8993 -0.2818
  110MOL0     C14721   1.194   0.364   8.462  0.2655 -0.1716 -1.2097
  110MOL0     C14722   1.212   0.462   8.559 -0.1747  0.5067 -0.2994
  110MOL0     O14723   1.117   0.474   8.654  0.5325  1.1977  0.3189
  110MOL0     C14724   1.099   0.603   8.711 -0.1144  0.0118 -0.6372
  110MOL0     C14725   0.992   0.575   8.825 -0.8279 -0.2712  0.0774
  110MOL0     C14726   0.856   0.581   8.762  0.7503 -0.4521  0.3483
  110MOL0     C14727   0.758   0.501   8.848 -0.1302 -0.6515 -0.4703
  110MOL0     C14728   0.611   0.530   8.815 -0.2192  0.0339 -1.1022
  110MOL0     C14729   0.588   0.446   8.693 -0.6120  0.1635 -0.4414
  110MOL0     C14730   0.463   0.469   8.611 -0.4934  0.0484  0.6202
  110MOL0     C14731   0.337   0.466   8.706  0.0150  0.1993  0.1291
  110MOL0     N14732   0.307   0.329   8.737  0.1463 -0.1086  0.1290
  110MOL0     C14733   0.199   0.263   8.689 -0.6232  1.3136 -0.2298
  110MOL0     C14734   0.205   0.138   8.750 -0.0888 -0.5240 -0.1695
  110MOL0     C14735   0.101   0.032   8.719  0.2385 -0.3873 -0.1049
  110MOL0     C14736   0.150  -0.107   8.723 -0.1332 -0.0884  0.3585
  110MOL0     C14737   0.207  -0.155   8.858  0.1266  0.2106  1.1444
  110MOL0     C14738   0.198  -0.298   8.893  0.3174  0.0917  0.2034
  110MOL0     O14739   0.062  -0.348   8.900 -0.1537 -0.2247 -0.4005
  110MOL0     C14740   0.045  -0.480   8.933  0.7274  0.1705 -0.5798
  110MOL0     C14741  -0.089  -0.528   8.945 -0.0317 -0.5376 -0.2920
  110MOL0     C14742  -0.123  -0.646   9.010 -0.1507 -0.3458 -0.0970
  110MOL0     C14743  -0.272  -0.669   9.026 -1.1590  0.0507  0.0673
  110MOL0     C14744  -0.015  -0.731   9.052  0.7282  0.5920 -0.8432
  110MOL0     C14745  -0.044  -0.868   9.102 -1.3446 -0.2401  0.6242
  110MOL0     O14746   0.065  -0.946   9.117 -0.0264  0.7900 -0.2338
  110MOL0     C14747   0.056  -1.073   9.175  0.6386 -0.8156  0.2825
  110MOL0     C14748   0.055  -1.087   9.313  0.3309  0.0195 -0.3978
  110MOL0     C14749   0.026  -1.211   9.374 -0.2602 -0.1359  0.1391
  110MOL0     C14750  -0.012  -1.322   9.293  0.4887  0.5952  0.6661
  110MOL0     O14751  -0.058  -1.440   9.362  0.1914 -1.3161 -0.3996
  110MOL0     C14752   0.035  -1.483   9.458 -0.5643  0.0306 -0.7493
  110MOL0     C14753   0.010  -1.638   9.473  0.7449 -0.3981  0.1451
  110MOL0     C14754   0.103  -1.696   9.580  0.6225  0.5601 -0.2414
  110MOL0     C14755   0.077  -1.836   9.639 -1.4157  0.0646  0.6117
  110MOL0     C14756   0.181  -1.873   9.749 -0.2579  0.3756  0.0921
  110MOL0     C14757   0.231  -2.017   9.743 -0.5281  0.2821 -0.1306
  110MOL0     C14758   0.307  -2.054   9.874 -0.1060  0.2101  0.0226
  110MOL0     C14759   0.331  -2.207   9.870  0.4152 -0.2233  0.6928
  110MOL0    Cl14760   0.189  -2.306   9.828 -0.3053  0.0992  0.2157
  110MOL0     C14761  -0.022  -1.313   9.153 -0.1103 -0.4752 -0.4124
  110MOL0     C14762   0.019  -1.187   9.094 -0.7623 -0.2292 -0.1828
  110MOL0     O14763  -0.155  -0.897   9.129 -0.0133  0.0056  0.0016
  110MOL0     C14764   0.115  -0.692   9.036 -0.1390 -0.7685  0.2371
  110MOL0     C14765   0.142  -0.570   8.972 -0.4615 -0.0025  0.0968
  110MOL0     N14766   0.314   0.136   8.839  0.6340  0.0110  0.3117
  110MOL0     N14767   0.364   0.248   8.835 -0.6690  0.2994 -0.2251
  110MOL0     C14768   1.332   0.534   8.558  0.5201  0.0755  0.7561
  110MOL0     C14769   1.430   0.501   8.460 -0.1878 -0.1965 -0.1179
  110MOL0     C14770   1.690   0.357   8.115  0.3444  0.3246 -0.5937
  110MOL0     C14771   1.697   0.214   8.116 -0.2422 -0.2531 -0.0219
  110MOL0     C14772   1.789   0.152   8.043  0.1162 -0.3062  0.0916
  110MOL0     C14773   1.878   0.212   7.956  0.1731 -0.0764  0.0743
  110MOL0     O14774   1.969   0.140   7.892  0.2990  1.0475  0.9283
  110MOL0     C14775   2.090   0.205   7.862 -0.7071 -0.6271  0.6341
  110MOL0     C14776   2.190   0.099   7.812 -0.2930  0.3187 -0.0296
  110MOL0     C14777   2.322   0.158   7.754 -0.1365  0.0237 -0.4577
  110MOL0     C14778   2.429   0.065   7.708  1.2969 -0.2623  0.1855
  110MOL0     C14779   2.530   0.141   7.640  1.1310  0.5744 -0.2203
  110MOL0     C14780   2.611   0.194   7.567  0.6928  0.4446  0.2216
  110MOL0     C14781   1.864   0.349   7.951 -0.3209 -0.5453 -1.2229
  110MOL0     C14782   1.776   0.422   8.038 -0.7093 -0.7068 -0.6944
  110MOL0     H14783   1.280   0.256   8.292 -3.7855 -0.6680 -0.0580
  110MOL0     H14784   1.102   0.306   8.460  1.0117 -1.4717  0.1848
  110MOL0     H14785   1.189   0.640   8.761  1.0805 -2.0959 -1.1003
  110MOL0     H14786   1.066   0.669   8.630  0.9841  2.2265  0.6311
  110MOL0     H14787   1.010   0.477   8.871  0.6696  0.6063  1.4796
  110MOL0     H14788   1.002   0.644   8.909 -0.9594 -1.6886  1.3021
  110MOL0     H14789   0.816   0.683   8.759  0.1120 -0.6218  1.8483
  110MOL0     H14790   0.863   0.545   8.659  1.6832  0.7694 -0.0461
  110MOL0     H14791   0.798   0.402   8.825 -1.4073 -1.2983  0.0075
  110MOL0     H14792   0.782   0.520   8.953  3.4839 -2.4358 -0.8355
  110MOL0     H14793   0.546   0.510   8.900  2.1630 -0.2454  0.7746
  110MOL0     H14794   0.590   0.636   8.800 -4.8707 -0.3631  0.9814
  110MOL0     H14795   0.670   0.455   8.621 -0.2923 -0.8212 -0.2300
  110MOL0     H14796   0.585   0.342   8.727 -2.2047  0.4839  0.5197
  110MOL0     H14797   0.473   0.562   8.555 -0.7002 -2.0275 -3.1728
  110MOL0     H14798   0.464   0.393   8.533  0.8091 -2.8416  3.2553
  110MOL0     H14799   0.252   0.524   8.668  1.2816  2.8016  1.0113
  110MOL0     H14800   0.362   0.514   8.801 -0.2369 -1.2350  0.9472
  110MOL0     H14801   0.127   0.286   8.611 -3.0907 -4.4804 -0.1043
  110MOL0     H14802   0.022   0.030   8.795  0.2299 -1.0327 -0.1221
  110MOL0     H14803   0.045   0.055   8.628 -1.2509  2.7298  1.4700
  110MOL0     H14804   0.231  -0.129   8.654  0.5383 -1.7327  1.6017
  110MOL0     H14805   0.067  -0.169   8.688 -1.4811  1.4929  0.6231
  110MOL0     H14806   0.166  -0.093   8.938 -4.0815 -2.1592  1.0840
  110MOL0     H14807   0.314  -0.132   8.865  0.7910 -1.9481 -0.6800
  110MOL0     H14808   0.249  -0.303   8.989  3.2126  0.1977 -1.2214
  110MOL0     H14809   0.264  -0.362   8.833  4.1142  2.0872  1.8687
  110MOL0     H14810  -0.177  -0.471   8.915 -0.8455 -0.9318  1.2184
  110MOL0     H14811  -0.286  -0.687   9.133  0.9420  0.4844  0.4620
  110MOL0     H14812  -0.321  -0.578   8.988  1.8443  0.8921 -2.1564
  110MOL0     H14813  -0.291  -0.761   8.970 -1.0706 -0.1384  0.3497
  110MOL0     H14814   0.088  -1.016   9.389  1.7733 -2.6799  1.6673
  110MOL0     H14815   0.050  -1.223   9.479  0.3835 -1.6666 -0.1525
  110MOL0     H14816   0.141  -1.472   9.431 -1.0046  0.2545 -2.5287
  110MOL0     H14817   0.025  -1.436   9.556  2.7134 -3.3813  1.5187
  110MOL0     H14818  -0.092  -1.652   9.511  0.6713 -1.9798 -0.5290
  110MOL0     H14819   0.027  -1.690   9.378  2.8492 -0.9822  0.7956
  110MOL0     H14820   0.123  -1.625   9.661 -0.5827 -0.6829  1.2222
  110MOL0     H14821   0.199  -1.705   9.529 -0.0951  0.0663 -1.5535
  110MOL0     H14822  -0.027  -1.852   9.672 -0.6580 -2.8423  1.9878
  110MOL0     H14823   0.083  -1.900   9.550  1.4723  0.1042  0.7012
  110MOL0     H14824   0.143  -1.850   9.849  0.0165 -0.4794  0.4021
  110MOL0     H14825   0.273  -1.814   9.736  0.3817 -0.8925 -1.3761
  110MOL0     H14826   0.142  -2.078   9.735 -0.4234  0.1230 -0.0824
  110MOL0     H14827   0.301  -2.033   9.660 -1.3680  1.3760 -1.0833
  110MOL0     H14828   0.242  -2.025   9.957  1.0004  1.2279  0.5629
  110MOL0     H14829   0.396  -1.991   9.886 -0.4423  0.5972  0.5182
  110MOL0     H14830   0.379  -2.247   9.960  0.8873 -0.1983  0.4550
  110MOL0     H14831   0.415  -2.222   9.802 -0.6986  0.3001 -0.8611
  110MOL0     H14832  -0.039  -1.401   9.092  2.0903 -0.7064 -0.7989
  110MOL0     H14833   0.011  -1.175   8.986 -0.8690  0.9920 -0.0543
  110MOL0     H14834   0.202  -0.753   9.060 -0.5598 -0.7023  2.0042
  110MOL0     H14835   0.245  -0.541   8.955 -1.3293  1.9033 -2.4266
  110MOL0     H14836   1.355   0.606   8.637 -1.7162 -0.3219  1.8251
  110MOL0     H14837   1.526   0.546   8.484 -0.1776 -2.2101  4.6491
  110MOL0     H14838   1.629   0.150   8.171 -1.2952  0.5952 -0.3156
  110MOL0     H14839   1.808   0.046   8.059  1.5734  0.3957  4.2957
  110MOL0     H14840   2.082   0.269   7.774  1.6133 -0.3990  0.5237
  110MOL0     H14841   2.132   0.256   7.949 -0.5410  1.7813 -0.7571
  110MOL0     H14842   2.135   0.045   7.735 -1.0381 -1.1318  1.4631
  110MOL0     H14843   2.215   0.033   7.896  0.3489  0.4128 -0.1449
  110MOL0     H14844   2.372   0.224   7.825 -2.8319  1.3532  0.3498
  110MOL0     H14845   2.304   0.222   7.667  0.1047 -1.1095 -1.3775
  110MOL0     H14846   2.380  -0.011   7.646 -1.3905  1.9072 -0.5698
  110MOL0     H14847   2.478   0.021   7.795 -0.0173  2.4252  2.4699
  110MOL0     H14848   2.684   0.255   7.517  0.9789  1.1476  1.4468
  110MOL0     H14849   1.930   0.404   7.884  3.5253 -0.6016  2.1230
  110MOL0     H14850   1.763   0.529   8.027 -0.9466 -0.4989  1.2089
  111MOL0     O14851   3.414   5.046   1.607 -0.5315 -0.0099  0.2390
  111MOL0     C14852   3.489   4.956   1.633  0.2782  0.0312  0.2112
  111MOL0     O14853   3.463   4.860   1.732 -0.2892 -0.4294 -0.6006
  111MOL0     C14854   3.354   4.871   1.809  0.3554 -0.4699  0.2429
  111MOL0     C14855   3.242   4.802   1.761 -0.2273  0.0236  0.0224
  111MOL0     C14856   3.136   4.803   1.852 -1.0978  0.0899  0.3744
  111MOL0     C14857   3.141   4.856   1.978  0.5600  0.1416  0.2270
  111MOL0     O14858   3.034   4.836   2.058  0.1715  0.3424  0.4203
  111MOL0     C14859   3.009   4.931   2.156 -0.4140 -0.4714 -0.1836
  111MOL0     C14860   2.868   4.924   2.225 -0.6858 -0.5319  0.2446
  111MOL0     C14861   2.751   4.895   2.127  0.3382  0.7622 -0.1950
  111MOL0     C14862   2.622   4.875   2.213  0.1761 -0.4230 -0.7362
  111MOL0     C14863   2.499   4.796   2.150  0.3563 -0.0592 -0.5405
  111MOL0     C14864   2.465   4.853   2.013 -0.1543 -0.1527 -0.1654
  111MOL0     C14865   2.338   4.787   1.979 -0.4042  0.0343 -0.2885
  111MOL0     C14866   2.305   4.791   1.822  0.4863  0.3955 -0.4788
  111MOL0     N14867   2.182   4.712   1.795  0.2581  0.2982  0.4327
  111MOL0     C14868   2.155   4.582   1.823  0.4709 -0.4801  0.2668
  111MOL0     C14869   2.029   4.555   1.776 -0.1049 -0.4112  0.4151
  111MOL0     C14870   1.960   4.413   1.776 -0.0951  0.1765 -0.4242
  111MOL0     C14871   1.857   4.393   1.895  0.4129 -0.1223  0.2884
  111MOL0     C14872   1.732   4.492   1.884  0.1644 -0.1047 -0.5710
  111MOL0     C14873   1.598   4.404   1.894 -0.1080  0.0825 -0.9560
  111MOL0     O14874   1.573   4.357   2.028  0.1736  0.2676  0.3116
  111MOL0     C14875   1.443   4.319   2.059 -0.1146 -0.9721  0.4391
  111MOL0     C14876   1.433   4.199   2.120  0.2874 -0.6313  0.2135
  111MOL0     C14877   1.315   4.152   2.170  0.1970 -0.0130  0.3017
  111MOL0     C14878   1.327   4.007   2.222 -0.2716 -0.7417  1.0550
  111MOL0     C14879   1.205   4.232   2.160  0.6167  0.1187  0.2214
  111MOL0     C14880   1.062   4.189   2.189 -0.2991  0.4514  0.5720
  111MOL0     O14881   0.963   4.263   2.120  0.0706 -0.5467 -0.3332
  111MOL0     C14882   0.828   4.243   2.160  0.2516  0.5510  0.5265
  111MOL0     C14883   0.765   4.366   2.153 -0.6493  0.4834 -0.0552
  111MOL0     C14884   0.627   4.374   2.181 -0.8536 -0.3379  0.6077
  111MOL0     C14885   0.550   4.257   2.208 -0.2406  0.7095 -0.7701
  111MOL0     O14886   0.421   4.258   2.257  0.1918 -0.5668  0.3215
  111MOL0     C14887   0.351   4.378   2.289 -0.0627 -0.2061  0.1834
  111MOL0     C14888   0.207   4.349   2.255 -0.2214 -0.3969 -0.8538
  111MOL0     C14889   0.118   4.453   2.333  0.5369 -0.2285  0.2264
  111MOL0     C14890  -0.015   4.391   2.332  0.3605  0.6336 -0.3409
  111MOL0     C14891  -0.110   4.488   2.407  0.1802 -0.3665  0.4117
  111MOL0     C14892  -0.254   4.445   2.412 -0.2869  0.1407  0.4293
  111MOL0     C14893  -0.327   4.442   2.275 -0.1727 -0.5225 -0.3362
  111MOL0     C14894  -0.466   4.383   2.278 -0.8910  0.5341 -0.3771
  111MOL0    Cl14895  -0.533   4.387   2.111 -0.2580  0.2738  0.2027
  111MOL0     C14896   0.618   4.132   2.217  0.2182 -0.1357 -0.6099
  111MOL0     C14897   0.754   4.128   2.192 -0.0658 -0.0526  0.1260
  111MOL0     O14898   1.047   4.109   2.286 -0.3410 -0.5056  0.0010
  111MOL0     C14899   1.211   4.358   2.101 -0.0707  0.3210 -0.0415
  111MOL0     C14900   1.338   4.407   2.046 -0.8898  0.4535 -0.6833
  111MOL0     N14901   1.982   4.669   1.719  0.1822 -0.3116  0.9162
  111MOL0     N14902   2.070   4.764   1.735 -0.1930 -0.0663  0.1993
  111MOL0     C14903   3.258   4.904   2.025 -0.5393  0.0693  0.0465
  111MOL0     C14904   3.369   4.913   1.942 -0.1347  0.3865 -0.4339
  111MOL0     C14905   3.616   4.940   1.561 -0.0683  0.4897  0.8055
  111MOL0     C14906   3.653   5.012   1.450  0.7376 -0.4155 -0.1631
  111MOL0     C14907   3.779   4.979   1.396  1.3124 -0.0283  0.1575
  111MOL0     C14908   3.869   4.885   1.444  0.1714  0.4034  0.0543
  111MOL0     O14909   3.993   4.857   1.390  0.8615  0.0737  0.0027
  111MOL0     C14910   4.024   4.896   1.256 -0.7531  0.6323  0.3723
  111MOL0     C14911   4.085   5.038   1.242  0.6611  1.1824 -0.2564
  111MOL0     C14912   4.208   5.065   1.332 -0.1272  0.4051 -0.6572
  111MOL0     C14913   4.243   5.213   1.355  0.3354 -0.4443 -0.3327
  111MOL0     C14914   4.151   5.279   1.450  1.5622  0.6565  1.0883
  111MOL0     C14915   4.075   5.318   1.542  0.2139 -0.0665  0.5883
  111MOL0     C14916   3.832   4.816   1.553 -0.4213 -0.6061 -0.0531
  111MOL0     C14917   3.708   4.839   1.610  0.3388  0.1637 -0.5924
  111MOL0     H14918   3.241   4.760   1.661  1.5999 -0.8905  0.3415
  111MOL0     H14919   3.032   4.774   1.838 -1.1955 -0.5719  2.1991
  111MOL0     H14920   3.077   4.909   2.239  0.3549  0.5282 -0.5196
  111MOL0     H14921   3.035   5.028   2.111 -3.0131  1.0400  1.2911
  111MOL0     H14922   2.865   4.844   2.300  4.3583 -2.5353 -1.2491
  111MOL0     H14923   2.860   5.026   2.263  1.6717  0.9925 -2.9572
  111MOL0     H14924   2.743   4.981   2.060  1.7647  0.6410 -0.5721
  111MOL0     H14925   2.753   4.803   2.067 -1.4588 -1.4293  2.8208
  111MOL0     H14926   2.646   4.839   2.314 -1.3078  0.1901 -0.1291
  111MOL0     H14927   2.582   4.974   2.237 -0.8255 -1.2870  1.5017
  111MOL0     H14928   2.513   4.688   2.145  0.4826 -0.2659  2.5978
  111MOL0     H14929   2.414   4.809   2.218 -0.4672 -2.0119 -1.1444
  111MOL0     H14930   2.457   4.962   2.008 -0.8622 -0.1919 -0.0088
  111MOL0     H14931   2.540   4.813   1.944 -0.9689 -4.4247  1.1520
  111MOL0     H14932   2.332   4.681   2.005 -0.4374 -0.2320 -1.3422
  111MOL0     H14933   2.250   4.831   2.026 -0.9458  0.9914 -2.1022
  111MOL0     H14934   2.384   4.742   1.764  1.1044  0.4460  0.3155
  111MOL0     H14935   2.291   4.891   1.781  1.6455  0.6606 -0.2512
  111MOL0     H14936   2.223   4.515   1.874 -0.9791 -1.4403  1.0113
  111MOL0     H14937   1.908   4.406   1.681 -1.9764 -3.0427  0.7008
  111MOL0     H14938   2.033   4.332   1.781 -2.1450 -1.8455 -1.5108
  111MOL0     H14939   1.907   4.422   1.987 -3.3089  1.8536  1.9198
  111MOL0     H14940   1.827   4.288   1.903  1.0133 -0.4751 -1.6103
  111MOL0     H14941   1.731   4.543   1.787  0.5480  0.8388 -0.0943
  111MOL0     H14942   1.733   4.560   1.970 -2.4012 -1.8860  1.0083
  111MOL0     H14943   1.626   4.322   1.826  1.2978  1.2107 -1.8107
  111MOL0     H14944   1.512   4.456   1.852 -0.6334 -0.7951 -0.9885
  111MOL0     H14945   1.519   4.132   2.125  2.1331  1.3235 -2.4605
  111MOL0     H14946   1.416   3.962   2.177 -3.7223 -3.0919 -4.4550
  111MOL0     H14947   1.323   4.004   2.332  1.5718 -0.1919  1.1868
  111MOL0     H14948   1.248   3.950   2.174  1.8014 -0.4487 -3.0887
  111MOL0     H14949   0.814   4.455   2.116  1.5213 -0.4056  0.5418
  111MOL0     H14950   0.585   4.475   2.186  0.1253  0.1425 -0.4327
  111MOL0     H14951   0.368   4.410   2.392 -0.1865 -3.5510  1.3455
  111MOL0     H14952   0.368   4.463   2.222  0.1750 -0.0525  0.4365
  111MOL0     H14953   0.184   4.346   2.149  0.9648 -0.1202 -1.1373
  111MOL0     H14954   0.196   4.248   2.295  1.6129 -0.0908  0.6003
  111MOL0     H14955   0.118   4.546   2.275 -1.9659 -1.0565 -1.2185
  111MOL0     H14956   0.156   4.479   2.432  0.3158 -2.6754  1.0064
  111MOL0     H14957  -0.041   4.367   2.228  1.7086  1.0294 -0.7917
  111MOL0     H14958  -0.017   4.297   2.389  0.9672  1.0159  0.3242
  111MOL0     H14959  -0.112   4.586   2.358 -1.8885 -0.1193  0.8995
  111MOL0     H14960  -0.071   4.501   2.508 -1.2830  1.1329  0.8350
  111MOL0     H14961  -0.257   4.352   2.469 -1.2977  0.9027  1.6796
  111MOL0     H14962  -0.312   4.522   2.465  1.1802 -0.4255  3.0039
  111MOL0     H14963  -0.273   4.367   2.216  1.3779  1.7515 -1.9811
  111MOL0     H14964  -0.319   4.533   2.215  0.1177 -0.2353  0.1286
  111MOL0     H14965  -0.531   4.441   2.345  0.6139  0.6986  1.0220
  111MOL0     H14966  -0.470   4.283   2.321 -0.2444  0.7234  0.1379
  111MOL0     H14967   0.574   4.038   2.252  2.1670 -0.7102  0.4642
  111MOL0     H14968   0.809   4.035   2.202  0.7810  0.2826 -1.2524
  111MOL0     H14969   1.130   4.427   2.077  3.0913  3.8862 -1.4443
  111MOL0     H14970   1.346   4.499   1.989 -1.0739  1.0733  0.2604
  111MOL0     H14971   3.270   4.927   2.130  0.8271 -0.1530 -0.0354
  111MOL0     H14972   3.464   4.951   1.980  1.8776 -4.2792 -0.1072
  111MOL0     H14973   3.586   5.088   1.412 -0.2266 -0.9233  0.4871
  111MOL0     H14974   3.809   5.037   1.309  0.4713 -0.3550 -0.3602
  111MOL0     H14975   4.100   4.827   1.217 -0.3354  2.5604 -2.5352
  111MOL0     H14976   3.939   4.891   1.188 -1.1449 -0.1311  0.9068
  111MOL0     H14977   4.002   5.097   1.283  0.8673  0.2749  1.5945
  111MOL0     H14978   4.101   5.066   1.138 -1.7437  0.1535 -0.9819
  111MOL0     H14979   4.290   5.022   1.274 -1.1698 -2.7476 -0.0416
  111MOL0     H14980   4.193   5.011   1.427  0.2539  1.1800 -0.1464
  111MOL0     H14981   4.240   5.270   1.262  0.7575 -3.6621 -2.5085
  111MOL0     H14982   4.340   5.232   1.401 -0.1821 -1.7286  1.4294
  111MOL0     H14983   4.029   5.354   1.632  0.7760  2.6574 -0.1207
  111MOL0     H14984   3.897   4.736   1.587 -1.0984 -0.6144  1.2799
  111MOL0     H14985   3.689   4.767   1.689  0.5843 -0.1174 -0.7866
  112MOL0     O14986   5.950   3.888   5.027  0.1485 -0.0058 -0.3761
  112MOL0     C14987   5.964   3.786   4.965 -0.3947  0.2422 -0.2884
  112MOL0     O14988   5.885   3.673   4.979  0.3955 -0.4234  0.0677
  112MOL0     C14989   5.781   3.672   5.071 -0.4043  0.8392  0.3184
  112MOL0     C14990   5.802   3.705   5.207 -0.0240 -0.1185  0.8853
  112MOL0     C14991   5.698   3.712   5.294  0.2276 -0.4337 -0.0939
  112MOL0     C14992   5.569   3.665   5.255 -0.0781 -0.4316 -0.5945
  112MOL0     O14993   5.467   3.670   5.348  0.1668  0.1248 -0.3506
  112MOL0     C14994   5.440   3.546   5.409 -0.1246 -0.5804 -0.0487
  112MOL0     C14995   5.544   3.509   5.516  0.7051  0.5496 -0.1914
  112MOL0     C14996   5.547   3.597   5.641 -0.0642  0.2928 -0.7136
  112MOL0     C14997   5.682   3.599   5.716 -0.0227  0.6501  0.3020
  112MOL0     C14998   5.709   3.710   5.813  0.0291 -0.0172  0.9683
  112MOL0     C14999   5.591   3.725   5.916  0.2317 -0.1444  0.9043
  112MOL0     C15000   5.635   3.801   6.038  0.0231  0.3343 -0.0829
  112MOL0     C15001   5.533   3.781   6.150  0.1379  0.1242  0.3205
  112MOL0     N15002   5.396   3.835   6.127 -0.4370  0.5697  0.6430
  112MOL0     C15003   5.368   3.956   6.080  0.0390 -0.5270  0.2937
  112MOL0     C15004   5.234   3.976   6.095  0.5936  1.1040  0.1861
  112MOL0     C15005   5.167   4.106   6.055  0.6058 -0.3200 -0.7394
  112MOL0     C15006   5.013   4.105   6.064  0.2169  0.2757 -0.0613
  112MOL0     C15007   4.956   4.201   6.166  0.2343  0.3295 -0.1650
  112MOL0     C15008   4.806   4.173   6.198 -0.0672  0.1722  0.5310
  112MOL0     O15009   4.786   4.037   6.245  0.0854 -0.3632 -0.3136
  112MOL0     C15010   4.665   3.998   6.293  0.0342  0.0093  0.8168
  112MOL0     C15011   4.663   3.882   6.373 -0.3711  0.4107 -0.6102
  112MOL0     C15012   4.548   3.837   6.443 -0.3235 -0.9874  0.0840
  112MOL0     C15013   4.558   3.716   6.525 -0.3129  0.4503 -0.3001
  112MOL0     C15014   4.430   3.912   6.432 -0.1408  0.0722  0.8796
  112MOL0     C15015   4.302   3.874   6.499  0.5374 -0.1726  1.1294
  112MOL0     O15016   4.198   3.949   6.461 -0.4559 -0.5777 -0.4710
  112MOL0     C15017   4.084   3.920   6.525 -0.5751  0.0414  0.7363
  112MOL0     C15018   3.979   3.867   6.451  0.0946 -0.0980  0.0799
  112MOL0     C15019   3.849   3.854   6.494  0.2310  0.5864 -0.8689
  112MOL0     C15020   3.824   3.901   6.627  0.0559  0.1009 -0.3243
  112MOL0     O15021   3.706   3.892   6.695  0.3582  0.4533  0.3003
  112MOL0     C15022   3.581   3.910   6.618 -0.0196 -0.6355  0.6079
  112MOL0     C15023   3.458   3.940   6.702  0.1046  0.0469 -0.8700
  112MOL0     C15024   3.346   3.988   6.596  0.0818  0.9926 -0.8323
  112MOL0     C15025   3.212   4.028   6.667 -0.0708  0.1505  0.1168
  112MOL0     C15026   3.121   4.097   6.561 -0.2542 -0.4148 -0.3894
  112MOL0     C15027   2.965   4.092   6.592 -0.9295 -0.8960  0.1699
  112MOL0     C15028   2.877   4.154   6.491  0.4890 -0.3187  0.0272
  112MOL0     C15029   2.730   4.185   6.538  0.3736 -0.1189  0.1939
  112MOL0    Cl15030   2.729   4.260   6.694 -0.2282 -0.1987  0.0422
  112MOL0     C15031   3.933   3.948   6.706 -0.5314 -0.1605  0.0558
  112MOL0     C15032   4.065   3.957   6.658 -0.2226 -0.4216 -0.0621
  112MOL0     O15033   4.294   3.768   6.562 -0.7787  0.7222 -0.1120
  112MOL0     C15034   4.433   4.026   6.356 -0.6372  0.1374 -0.2164
  112MOL0     C15035   4.542   4.074   6.291 -0.0534  0.0397  0.4222
  112MOL0     N15036   5.185   3.852   6.145 -0.2189  0.1355  0.4276
  112MOL0     N15037   5.279   3.775   6.158  0.3166 -0.3238  0.0134
  112MOL0     C15038   5.549   3.610   5.125  0.5844 -0.3995 -0.6672
  112MOL0     C15039   5.646   3.627   5.032  1.0403  0.6318 -0.4274
  112MOL0     C15040   6.083   3.781   4.883  0.6063 -0.2871 -0.6062
  112MOL0     C15041   6.159   3.900   4.870  0.0740  0.0338  0.0645
  112MOL0     C15042   6.264   3.900   4.778  0.3636 -0.1004  0.6479
  112MOL0     C15043   6.304   3.782   4.707  0.2734  0.0888  0.2633
  112MOL0     O15044   6.401   3.778   4.616  0.0962 -0.8405 -0.5202
  112MOL0     C15045   6.526   3.726   4.661  0.4962 -0.3396  0.6639
  112MOL0     C15046   6.633   3.818   4.615 -0.4637 -0.4464 -0.0319
  112MOL0     C15047   6.642   3.942   4.698  0.8623  0.2894  0.4173
  112MOL0     C15048   6.754   4.035   4.641 -0.6869  0.0049 -0.6361
  112MOL0     C15049   6.747   4.063   4.498  0.0715 -0.3183  0.1452
  112MOL0     C15050   6.762   4.104   4.384  0.5379  0.6384  0.0802
  112MOL0     C15051   6.236   3.671   4.741 -0.6630 -0.0478 -0.6099
  112MOL0     C15052   6.129   3.659   4.822  0.6209  0.7829 -0.2492
  112MOL0     H15053   5.902   3.728   5.244  1.2692  1.4419 -3.0572
  112MOL0     H15054   5.722   3.748   5.393  0.7651  2.3148 -1.1403
  112MOL0     H15055   5.341   3.553   5.455  0.5413 -0.8028  1.4755
  112MOL0     H15056   5.448   3.475   5.326 -0.5678 -1.1512  0.3897
  112MOL0     H15057   5.523   3.404   5.540 -1.1017  1.3860  2.3303
  112MOL0     H15058   5.640   3.515   5.464  0.5319  0.5578 -0.5125
  112MOL0     H15059   5.508   3.695   5.613 -0.7185 -0.0381 -0.9902
  112MOL0     H15060   5.474   3.566   5.717  1.2533  0.8670  0.8574
  112MOL0     H15061   5.681   3.508   5.776  1.8484 -0.8100 -1.7354
  112MOL0     H15062   5.762   3.609   5.642 -1.3355  0.8418 -1.1464
  112MOL0     H15063   5.807   3.701   5.861  0.2496  1.3597  0.8238
  112MOL0     H15064   5.712   3.806   5.760 -0.0884  0.1825  1.3135
  112MOL0     H15065   5.512   3.770   5.856  1.5315  1.2153  0.1334
  112MOL0     H15066   5.561   3.624   5.944  0.1257 -0.3653  0.0387
  112MOL0     H15067   5.725   3.747   6.069  0.2557  1.5072  1.3724
  112MOL0     H15068   5.661   3.903   6.009 -0.1763  0.1654 -0.9059
  112MOL0     H15069   5.564   3.833   6.241 -1.4851  1.3796  0.2051
  112MOL0     H15070   5.538   3.673   6.170  0.0268 -0.4048 -2.1719
  112MOL0     H15071   5.437   4.031   6.044 -1.6470 -0.1347 -2.4705
  112MOL0     H15072   5.209   4.188   6.114 -1.8963  1.2564 -1.0047
  112MOL0     H15073   5.199   4.120   5.952  0.8965  0.6699 -0.5311
  112MOL0     H15074   4.980   4.007   6.100  0.8254 -0.3745 -1.2172
  112MOL0     H15075   4.965   4.126   5.968 -0.3342  2.2466  0.5891
  112MOL0     H15076   4.969   4.305   6.134 -1.2436  0.3767 -0.7069
  112MOL0     H15077   5.001   4.188   6.265 -1.5818 -1.4880  0.4963
  112MOL0     H15078   4.740   4.198   6.114 -1.2987  0.4205  1.5426
  112MOL0     H15079   4.775   4.244   6.275  1.4714  2.0959 -0.5298
  112MOL0     H15080   4.753   3.821   6.368  2.3255  4.0375 -0.2632
  112MOL0     H15081   4.512   3.626   6.482  3.4882 -1.2780 -1.2329
  112MOL0     H15082   4.665   3.703   6.545 -0.8180  1.0786  3.3616
  112MOL0     H15083   4.509   3.727   6.621  0.7883  0.0346  0.3310
  112MOL0     H15084   4.009   3.854   6.347 -3.2278  0.9432 -1.1447
  112MOL0     H15085   3.771   3.802   6.439  0.9640 -1.6269  0.0655
  112MOL0     H15086   3.594   3.997   6.553 -3.1463 -2.1431 -2.3839
  112MOL0     H15087   3.563   3.828   6.548  0.7238 -1.7892  1.7279
  112MOL0     H15088   3.431   3.855   6.766 -0.5738  1.9258  1.4845
  112MOL0     H15089   3.473   4.027   6.766 -0.5860 -0.7757  0.4498
  112MOL0     H15090   3.330   3.898   6.535 -0.2931 -0.7709  1.7071
  112MOL0     H15091   3.381   4.066   6.529  2.6164 -0.8113 -1.7734
  112MOL0     H15092   3.162   3.938   6.705  3.7752 -2.4063 -0.3247
  112MOL0     H15093   3.239   4.084   6.756 -3.3212  2.3915 -0.1121
  112MOL0     H15094   3.141   4.035   6.474  2.0751 -3.1352  1.8832
  112MOL0     H15095   3.150   4.200   6.541 -3.9929  0.3157 -3.1436
  112MOL0     H15096   2.917   3.995   6.603 -1.3903 -0.6048  0.8397
  112MOL0     H15097   2.955   4.145   6.688  1.5229  1.7087 -0.8888
  112MOL0     H15098   2.867   4.087   6.405 -2.7105  2.6114 -2.1574
  112MOL0     H15099   2.911   4.253   6.459 -3.0943  2.0656  2.7509
  112MOL0     H15100   2.677   4.090   6.546 -0.7007  0.4204 -0.3246
  112MOL0     H15101   2.680   4.246   6.462 -1.3760 -1.1281  0.4804
  112MOL0     H15102   3.915   3.972   6.810 -1.3219  3.0727 -0.7307
  112MOL0     H15103   4.146   3.997   6.718  0.1402  0.1052 -0.8780
  112MOL0     H15104   4.349   4.095   6.354  1.6748  3.1970 -0.5451
  112MOL0     H15105   4.538   4.169   6.239  1.5991  0.0384  0.2335
  112MOL0     H15106   5.453   3.568   5.099  1.1839 -1.4567 -1.2182
  112MOL0     H15107   5.631   3.600   4.928 -0.1989  1.6649 -0.5360
  112MOL0     H15108   6.138   3.995   4.919  0.0585 -0.6689  1.4586
  112MOL0     H15109   6.319   3.990   4.754 -0.0214  0.4687  1.8145
  112MOL0     H15110   6.537   3.718   4.769  1.1113  1.4088  0.7610
  112MOL0     H15111   6.529   3.625   4.620 -0.8409  0.2968 -1.1242
  112MOL0     H15112   6.632   3.829   4.506 -0.2592 -1.1331 -0.1115
  112MOL0     H15113   6.735   3.781   4.632 -0.5602  0.5751  3.5807
  112MOL0     H15114   6.674   3.915   4.799  2.0221  1.7037  0.4633
  112MOL0     H15115   6.552   4.004   4.694  1.7615  1.6683  0.6283
  112MOL0     H15116   6.849   3.989   4.671 -1.1637  0.7959  2.5492
  112MOL0     H15117   6.756   4.129   4.698  1.2892 -0.7037  0.5979
  112MOL0     H15118   6.788   4.126   4.282  2.2481  0.8800  0.5263
  112MOL0     H15119   6.274   3.573   4.714  2.0217 -0.2280  3.0987
  112MOL0     H15120   6.096   3.556   4.830  2.2692  0.0483 -2.1123
  113MOL0     O15121   6.575  11.077   4.455 -0.6033  0.2556 -0.5760
  113MOL0     C15122   6.466  11.037   4.483 -0.3346  0.6478 -0.6263
  113MOL0     O15123   6.372  11.115   4.563 -0.4938  0.0911 -0.7655
  113MOL0     C15124   6.400  11.243   4.617  0.7206  0.7194  0.5160
  113MOL0     C15125   6.523  11.295   4.649  1.1283 -0.2898 -0.5299
  113MOL0     C15126   6.539  11.430   4.680  0.5138  0.1817  0.0522
  113MOL0     C15127   6.431  11.514   4.692  0.4882 -0.5183  0.2324
  113MOL0     O15128   6.444  11.646   4.722  0.9473  0.3697  0.3128
  113MOL0     C15129   6.551  11.686   4.818  0.4704 -0.4786  0.1929
  113MOL0     C15130   6.511  11.815   4.893 -0.1646  0.5778  0.2411
  113MOL0     C15131   6.410  11.797   5.006  0.4621 -0.3942 -0.6161
  113MOL0     C15132   6.346  11.927   5.046 -0.2738  0.7772 -1.1916
  113MOL0     C15133   6.246  11.909   5.162 -0.2667 -0.6462 -0.7168
  113MOL0     C15134   6.119  11.842   5.130 -0.0741  0.2968  1.1064
  113MOL0     C15135   6.001  11.890   5.213  0.9306 -0.3372  0.2527
  113MOL0     C15136   5.961  12.038   5.178  0.1424 -0.2082 -0.6512
  113MOL0     N15137   5.833  12.085   5.227  0.8103  0.2772 -0.1329
  113MOL0     C15138   5.801  12.206   5.279 -0.4141  0.3609  0.1043
  113MOL0     C15139   5.675  12.190   5.337 -0.1207  0.3828  0.0193
  113MOL0     C15140   5.596  12.299   5.402  0.5370 -0.3261 -0.5363
  113MOL0     C15141   5.504  12.242   5.511  0.1463  0.1983 -0.4188
  113MOL0     C15142   5.428  12.363   5.582  0.2109 -0.1122  0.3750
  113MOL0     C15143   5.522  12.451   5.668  0.5338  0.2046  0.2395
  113MOL0     O15144   5.564  12.360   5.780  0.3420 -0.4201 -0.6999
  113MOL0     C15145   5.494  12.348   5.903 -0.2227 -0.4906  0.5397
  113MOL0     C15146   5.563  12.280   6.014 -0.1104 -0.6285  0.1083
  113MOL0     C15147   5.494  12.243   6.125  0.2169  0.3242 -0.2892
  113MOL0     C15148   5.567  12.148   6.214 -0.2059  0.3780  0.5592
  113MOL0     C15149   5.364  12.298   6.145 -0.1321  0.4279 -0.6595
  113MOL0     C15150   5.283  12.280   6.270  0.7143 -0.0896  0.2701
  113MOL0     O15151   5.152  12.333   6.280  0.5235 -0.6377  0.1326
  113MOL0     C15152   5.079  12.341   6.396 -0.0426 -0.4811 -0.0710
  113MOL0     C15153   4.944  12.295   6.399 -0.1655  0.5645 -0.7000
  113MOL0     C15154   4.879  12.304   6.525  0.1822  0.0843  0.2045
  113MOL0     C15155   4.936  12.360   6.640 -0.5158  0.1494 -0.7169
  113MOL0     O15156   4.860  12.362   6.752 -0.1087  0.4415 -0.2729
  113MOL0     C15157   4.734  12.438   6.743 -0.3093  0.8561 -0.5832
  113MOL0     C15158   4.680  12.475   6.883 -0.1767 -0.1477 -0.2941
  113MOL0     C15159   4.539  12.520   6.866 -0.1567 -0.2986 -0.4509
  113MOL0     C15160   4.484  12.580   6.999 -0.2979 -0.2040  1.2101
  113MOL0     C15161   4.336  12.582   7.012  1.3303 -0.4782 -0.1610
  113MOL0     C15162   4.279  12.673   6.899 -0.0275  0.2468 -0.1526
  113MOL0     C15163   4.121  12.697   6.929  0.1195 -0.0718 -0.6287
  113MOL0     C15164   4.040  12.732   6.804  0.1489 -0.7457  0.2826
  113MOL0    Cl15165   4.114  12.854   6.701 -0.0409 -0.1494  0.0457
  113MOL0     C15166   5.068  12.412   6.640 -0.3363  0.7904  0.0956
  113MOL0     C15167   5.129  12.412   6.513  0.6058  0.4247  0.4592
  113MOL0     O15168   5.339  12.221   6.362  0.5438 -0.1645 -0.1983
  113MOL0     C15169   5.309  12.378   6.044 -0.6602 -0.1843  1.0171
  113MOL0     C15170   5.365  12.396   5.920 -0.1540 -0.0065 -0.4229
  113MOL0     N15171   5.633  12.059   5.316 -0.0892 -0.4951  0.3636
  113MOL0     N15172   5.731  11.999   5.250 -0.5186  0.4711  0.3674
  113MOL0     C15173   6.303  11.461   4.681  0.1262 -0.5061 -0.6185
  113MOL0     C15174   6.285  11.326   4.644  0.4081  1.1110  0.2301
  113MOL0     C15175   6.420  10.902   4.435 -0.4589  0.8439 -0.4504
  113MOL0     C15176   6.505  10.813   4.359 -0.3629  0.2702 -0.1896
  113MOL0     C15177   6.443  10.693   4.307 -0.2626 -0.3482 -0.8339
  113MOL0     C15178   6.305  10.667   4.328  1.2390 -0.0232  0.2671
  113MOL0     O15179   6.235  10.552   4.286  0.4216  0.5805  0.3014
  113MOL0     C15180   6.287  10.454   4.201  0.8058 -0.3667  0.2530
  113MOL0     C15181   6.178  10.344   4.168 -0.4452  0.2240 -0.3310
  113MOL0     C15182   6.145  10.279   4.310 -0.3199 -1.0206 -0.5036
  113MOL0     C15183   6.071  10.149   4.293  0.6191 -0.3361 -0.4523
  113MOL0     C15184   5.945  10.166   4.217  0.3451 -0.8097  0.9126
  113MOL0     C15185   5.845  10.181   4.148 -1.1975 -0.6386 -0.3113
  113MOL0     C15186   6.221  10.758   4.377  1.0057 -0.2389  0.9052
  113MOL0     C15187   6.275  10.874   4.435  0.1564  1.2123 -0.7100
  113MOL0     H15188   6.619  11.245   4.653  3.4596  3.6657  4.4115
  113MOL0     H15189   6.643  11.462   4.677  0.6565 -0.3261 -1.7383
  113MOL0     H15190   6.567  11.614   4.899  0.7331 -1.1254 -0.4278
  113MOL0     H15191   6.641  11.707   4.760 -1.0532  0.9793 -1.7744
  113MOL0     H15192   6.606  11.865   4.915 -0.0128  1.6667 -2.5346
  113MOL0     H15193   6.473  11.886   4.819  1.0705 -0.7319 -1.7522
  113MOL0     H15194   6.327  11.736   4.970 -0.3027 -1.2870  2.3202
  113MOL0     H15195   6.463  11.754   5.091  0.5700 -0.2489 -0.6090
  113MOL0     H15196   6.426  11.996   5.077 -0.1995  1.2032 -2.2820
  113MOL0     H15197   6.289  11.975   4.965 -1.9349 -1.1212 -1.2228
  113MOL0     H15198   6.290  11.846   5.240  0.7423 -0.2492 -0.9526
  113MOL0     H15199   6.233  11.999   5.221  3.0390 -1.9582  2.3439
  113MOL0     H15200   6.112  11.856   5.022  0.7037 -4.1973  0.2668
  113MOL0     H15201   6.133  11.734   5.144 -0.7253 -0.5473 -3.3020
  113MOL0     H15202   5.920  11.823   5.187  2.0871 -0.7797 -2.5642
  113MOL0     H15203   6.033  11.886   5.318  3.9281  2.4782 -0.3683
  113MOL0     H15204   5.954  12.040   5.069  0.1626  4.4866 -0.7882
  113MOL0     H15205   6.034  12.112   5.214 -1.1552  1.4591 -1.3148
  113MOL0     H15206   5.873  12.288   5.286  2.7462 -2.3188  1.9482
  113MOL0     H15207   5.656  12.383   5.436 -2.8267  2.0108  0.1942
  113MOL0     H15208   5.528  12.346   5.330  0.2520 -0.1382 -0.1500
  113MOL0     H15209   5.561  12.196   5.592 -2.9034 -0.6502  1.4030
  113MOL0     H15210   5.436  12.167   5.469 -0.7379  0.6027  0.2509
  113MOL0     H15211   5.343  12.319   5.633 -0.5384 -0.5312 -1.1745
  113MOL0     H15212   5.379  12.434   5.515  0.7553 -1.1285 -1.1632
  113MOL0     H15213   5.471  12.543   5.698  1.1311  0.3185  0.9458
  113MOL0     H15214   5.608  12.486   5.610 -1.3971  1.7565 -1.8234
  113MOL0     H15215   5.666  12.249   5.998 -0.3608 -0.8981 -1.1628
  113MOL0     H15216   5.647  12.111   6.150  0.1630 -1.3058  1.9310
  113MOL0     H15217   5.612  12.189   6.305  3.6647 -2.8758  0.3503
  113MOL0     H15218   5.501  12.065   6.240  0.3535  0.0858  1.0737
  113MOL0     H15219   4.892  12.266   6.308  1.5596 -1.5967 -1.0569
  113MOL0     H15220   4.776  12.271   6.532  1.5060 -4.8389  0.1995
  113MOL0     H15221   4.745  12.527   6.680 -0.5997  0.7215 -0.8253
  113MOL0     H15222   4.656  12.384   6.687  1.7388  1.2615 -4.1436
  113MOL0     H15223   4.672  12.387   6.946  0.0401  1.0753  1.5035
  113MOL0     H15224   4.741  12.551   6.934 -0.8215  1.3756 -1.6740
  113MOL0     H15225   4.478  12.432   6.845  0.9550 -1.2333  0.1653
  113MOL0     H15226   4.536  12.594   6.785  2.2605  1.2906  0.8074
  113MOL0     H15227   4.527  12.516   7.077  1.5220 -2.6749 -1.5826
  113MOL0     H15228   4.523  12.681   7.011 -0.8594  0.1413  0.1896
  113MOL0     H15229   4.300  12.611   7.111  0.7060  2.2643 -1.0909
  113MOL0     H15230   4.308  12.478   6.995 -1.1994  0.2056 -0.6289
  113MOL0     H15231   4.333  12.768   6.899 -1.4593  1.0858 -0.4334
  113MOL0     H15232   4.285  12.616   6.806 -0.8618  0.4480 -0.3370
  113MOL0     H15233   4.112  12.787   6.990 -1.5939  1.0956 -2.5004
  113MOL0     H15234   4.076  12.611   6.979  0.1736  0.1189 -0.2461
  113MOL0     H15235   3.942  12.768   6.839  0.3778  3.8478 -2.8458
  113MOL0     H15236   4.027  12.645   6.740 -2.4910  0.9942 -1.8054
  113MOL0     H15237   5.106  12.439   6.738  1.4161  1.7214 -0.8006
  113MOL0     H15238   5.233  12.443   6.523  0.0031  2.4201  1.1987
  113MOL0     H15239   5.220  12.438   6.059 -1.3095 -0.7885 -0.2618
  113MOL0     H15240   5.318  12.471   5.856 -2.8105 -0.8302  0.4377
  113MOL0     H15241   6.223  11.534   4.688 -0.1389 -0.8575  0.1182
  113MOL0     H15242   6.186  11.283   4.631  0.6084  0.9502 -0.8555
  113MOL0     H15243   6.609  10.829   4.332 -0.4676  3.1009  0.7732
  113MOL0     H15244   6.500  10.616   4.256 -1.0671 -1.4576 -0.0950
  113MOL0     H15245   6.314  10.497   4.104  0.1201  2.2364  1.1439
  113MOL0     H15246   6.371  10.396   4.241  0.9181 -0.0434  0.4897
  113MOL0     H15247   6.235  10.275   4.105 -0.7050 -2.0088  1.7473
  113MOL0     H15248   6.098  10.377   4.101  2.0356  2.1799 -2.5156
  113MOL0     H15249   6.089  10.347   4.376  0.8492 -1.5432  1.0895
  113MOL0     H15250   6.228  10.263   4.380 -3.3768 -0.7650  3.5320
  113MOL0     H15251   6.042  10.106   4.389  0.4248  1.8137  0.5134
  113MOL0     H15252   6.130  10.075   4.238 -0.6304 -0.7582 -1.2728
  113MOL0     H15253   5.778  10.186   4.064 -1.2154  3.4025 -0.2264
  113MOL0     H15254   6.114  10.739   4.378  0.7273  1.1866  0.2898
  113MOL0     H15255   6.209  10.956   4.463 -0.6858  0.7766 -1.3611
  114MOL0     O15256   1.863   5.429   2.669 -0.0575 -0.5077 -0.1171
  114MOL0     C15257   1.918   5.347   2.743 -0.1541  0.3583  1.3432
  114MOL0     O15258   1.853   5.255   2.818 -0.0187 -0.0826 -0.0851
  114MOL0     C15259   1.717   5.249   2.806 -0.3374 -0.4107  0.5824
  114MOL0     C15260   1.645   5.222   2.921  0.4360 -0.1062  0.4763
  114MOL0     C15261   1.507   5.222   2.929 -0.5292 -0.4703 -0.6063
  114MOL0     C15262   1.436   5.227   2.805 -0.1189 -0.4673 -0.1826
  114MOL0     O15263   1.306   5.206   2.810  0.9979  0.1434  0.1031
  114MOL0     C15264   1.227   5.277   2.717  0.6368  0.6903  1.0323
  114MOL0     C15265   1.080   5.271   2.756 -0.0218  0.2988 -0.0568
  114MOL0     C15266   0.995   5.287   2.633  0.5826 -0.3261 -0.5767
  114MOL0     C15267   0.847   5.246   2.666 -0.3760 -0.5576 -0.9731
  114MOL0     C15268   0.761   5.234   2.541  0.2901  0.4669  0.1947
  114MOL0     C15269   0.625   5.181   2.578 -0.7605 -0.1448 -0.1130
  114MOL0     C15270   0.620   5.060   2.675  0.1951 -0.3139  0.4921
  114MOL0     C15271   0.699   4.945   2.619  0.7453  0.1382  0.0801
  114MOL0     N15272   0.661   4.914   2.481  0.6080 -0.1388 -0.1488
  114MOL0     C15273   0.529   4.892   2.436 -0.2649  0.3813 -0.0563
  114MOL0     C15274   0.556   4.861   2.305  0.6669 -0.7008 -0.1392
  114MOL0     C15275   0.466   4.838   2.189 -0.0126  0.2972  0.5219
  114MOL0     C15276   0.333   4.909   2.185  0.8091 -0.6712 -0.8944
  114MOL0     C15277   0.215   4.829   2.233 -0.4129 -0.1165 -0.4743
  114MOL0     C15278   0.083   4.914   2.220  0.0070  0.5584  0.5137
  114MOL0     O15279  -0.026   4.853   2.288  0.0736  0.1987 -0.8007
  114MOL0     C15280  -0.149   4.909   2.278 -0.0355  0.5676  0.9506
  114MOL0     C15281  -0.252   4.852   2.364  0.2261 -0.6582 -0.1243
  114MOL0     C15282  -0.391   4.896   2.359 -1.0517  0.3831  0.2927
  114MOL0     C15283  -0.483   4.826   2.451 -0.3660  0.6304  0.0632
  114MOL0     C15284  -0.428   5.003   2.270  0.0559  0.0069 -0.4472
  114MOL0     C15285  -0.568   5.058   2.262  0.2714 -0.3601  0.2259
  114MOL0     O15286  -0.585   5.172   2.185 -0.0187 -0.0769  0.2611
  114MOL0     C15287  -0.708   5.233   2.197  0.0341  0.1867 -0.5502
  114MOL0     C15288  -0.704   5.365   2.234 -0.1541 -0.8161 -0.4597
  114MOL0     C15289  -0.821   5.426   2.265 -1.1329 -0.8732 -0.2617
  114MOL0     C15290  -0.946   5.367   2.261 -1.1499 -0.3930  0.3692
  114MOL0     O15291  -1.068   5.418   2.292  0.2578  0.5068  0.0660
  114MOL0     C15292  -1.071   5.546   2.362 -0.6817  0.0294  0.0387
  114MOL0     C15293  -1.220   5.595   2.374  0.7685  0.4907 -0.7867
  114MOL0     C15294  -1.290   5.541   2.505  0.0204 -0.1605  0.8580
  114MOL0     C15295  -1.423   5.607   2.531 -0.0722  0.3836 -0.1525
  114MOL0     C15296  -1.486   5.543   2.656 -0.4374  0.0847  1.1463
  114MOL0     C15297  -1.625   5.597   2.688 -0.7198 -0.5861 -0.0939
  114MOL0     C15298  -1.685   5.526   2.809  0.1461 -0.0037  0.1071
  114MOL0     C15299  -1.746   5.387   2.785  0.0403  0.1977 -1.0357
  114MOL0    Cl15300  -1.896   5.410   2.688  0.7036 -0.0917 -0.3335
  114MOL0     C15301  -0.954   5.240   2.202  0.5986  0.2312 -0.1740
  114MOL0     C15302  -0.832   5.171   2.176  0.1354  0.2647 -0.5134
  114MOL0     O15303  -0.656   5.005   2.341  0.1066 -0.1924  0.4385
  114MOL0     C15304  -0.325   5.048   2.178  0.7821  0.6945  0.8186
  114MOL0     C15305  -0.193   5.001   2.178  0.5736  0.1804  0.3357
  114MOL0     N15306   0.700   4.861   2.280 -0.3546 -0.7380 -0.3687
  114MOL0     N15307   0.752   4.906   2.390 -0.0400  0.1260 -0.1959
  114MOL0     C15308   1.506   5.246   2.687 -0.0584 -0.7479  0.6404
  114MOL0     C15309   1.648   5.252   2.686  0.4096 -0.4139 -0.4195
  114MOL0     C15310   2.066   5.335   2.741 -0.4197 -0.8376 -0.6238
  114MOL0     C15311   2.126   5.269   2.847  0.0194  0.0623  0.9365
  114MOL0     C15312   2.259   5.236   2.847  0.4004  0.1545  0.0439
  114MOL0     C15313   2.343   5.296   2.754  0.3130  0.7399 -0.1748
  114MOL0     O15314   2.475   5.284   2.758 -0.2836  0.2628  0.0188
  114MOL0     C15315   2.526   5.151   2.725 -0.4662 -0.1574  0.4757
  114MOL0     C15316   2.589   5.162   2.581 -0.2920 -0.6690 -0.5533
  114MOL0     C15317   2.710   5.071   2.558 -0.3688  0.1724  0.5480
  114MOL0     C15318   2.701   4.939   2.628 -0.5385  0.4129 -0.0505
  114MOL0     C15319   2.598   4.858   2.569  0.7330  0.7189 -0.2574
  114MOL0     C15320   2.506   4.782   2.535 -0.1534 -0.1741  1.0265
  114MOL0     C15321   2.285   5.376   2.653  1.0784  0.6472 -0.4556
  114MOL0     C15322   2.148   5.378   2.643  0.6805 -0.5284 -0.0289
  114MOL0     H15323   1.696   5.200   3.015 -0.3865 -2.5809  0.4118
  114MOL0     H15324   1.450   5.212   3.021  2.0115  0.6035  1.2057
  114MOL0     H15325   1.264   5.380   2.712  3.1684 -0.2091 -0.9229
  114MOL0     H15326   1.242   5.224   2.623  1.9856 -3.4956  3.3693
  114MOL0     H15327   1.058   5.173   2.797 -0.4176  0.7156  0.7445
  114MOL0     H15328   1.055   5.343   2.835  0.0821 -1.2682  1.4398
  114MOL0     H15329   0.997   5.383   2.580 -2.3855 -1.4710 -3.0642
  114MOL0     H15330   1.030   5.217   2.557 -0.9865 -1.0389 -0.6830
  114MOL0     H15331   0.847   5.148   2.715  0.4129 -0.6948 -1.2334
  114MOL0     H15332   0.803   5.319   2.735 -3.7259 -1.6592 -1.7461
  114MOL0     H15333   0.741   5.323   2.481 -3.3888  0.9555  1.8812
  114MOL0     H15334   0.816   5.171   2.469  0.7172 -0.5745  1.4033
  114MOL0     H15335   0.572   5.262   2.630  1.1681  0.1998  1.4763
  114MOL0     H15336   0.568   5.157   2.489  1.2968 -1.3378 -1.1782
  114MOL0     H15337   0.664   5.088   2.771 -1.8540 -1.0402  1.7110
  114MOL0     H15338   0.513   5.038   2.679  0.0932 -0.1947 -0.9951
  114MOL0     H15339   0.677   4.861   2.685 -0.8889  1.8149  1.7802
  114MOL0     H15340   0.806   4.965   2.622  0.6894  0.3692  0.4852
  114MOL0     H15341   0.434   4.924   2.477 -0.0528  1.3116 -0.2635
  114MOL0     H15342   0.524   4.867   2.101 -1.8879  3.0351  0.0707
  114MOL0     H15343   0.449   4.731   2.176 -0.3316  0.7541 -6.1951
  114MOL0     H15344   0.320   4.941   2.081  0.8137 -0.0219 -0.7041
  114MOL0     H15345   0.358   4.997   2.245  3.3671 -0.9170 -1.4852
  114MOL0     H15346   0.228   4.788   2.333  2.5849  0.3167 -0.5985
  114MOL0     H15347   0.201   4.740   2.171 -3.1161  0.8434 -1.4083
  114MOL0     H15348   0.056   4.922   2.114  0.5938  0.3296  0.3439
  114MOL0     H15349   0.095   5.015   2.260  0.7577  0.6578  0.0447
  114MOL0     H15350  -0.233   4.775   2.439 -0.1272  1.4802  2.3275
  114MOL0     H15351  -0.509   4.887   2.538  0.3893 -0.2564  0.9280
  114MOL0     H15352  -0.578   4.792   2.408 -1.2002 -0.4955  2.6099
  114MOL0     H15353  -0.444   4.733   2.494 -0.2476  1.0393  0.8624
  114MOL0     H15354  -0.609   5.418   2.237  1.0824 -2.7463 -2.3571
  114MOL0     H15355  -0.811   5.529   2.298  0.4689 -0.2309 -2.5196
  114MOL0     H15356  -1.036   5.525   2.464 -0.7456 -0.1152  0.0305
  114MOL0     H15357  -1.009   5.623   2.315  0.8284 -0.9259  0.3692
  114MOL0     H15358  -1.211   5.704   2.380  3.1028  0.2865  0.5348
  114MOL0     H15359  -1.261   5.569   2.276  0.0421 -1.4061 -0.0151
  114MOL0     H15360  -1.226   5.558   2.592  0.5930 -0.2931  0.4639
  114MOL0     H15361  -1.303   5.433   2.497 -1.2408  0.0303 -0.0356
  114MOL0     H15362  -1.420   5.715   2.548  3.8889  0.2945  0.6907
  114MOL0     H15363  -1.487   5.590   2.443  1.5470  0.3530 -1.3728
  114MOL0     H15364  -1.417   5.574   2.736  0.4814  0.6974  0.1517
  114MOL0     H15365  -1.490   5.434   2.648  0.3509  0.1827 -2.0355
  114MOL0     H15366  -1.607   5.703   2.708  1.8916 -0.2600 -3.1868
  114MOL0     H15367  -1.687   5.585   2.598 -1.1992 -2.8006  0.4725
  114MOL0     H15368  -1.749   5.595   2.864 -0.0961 -0.5990  0.5854
  114MOL0     H15369  -1.601   5.516   2.879 -1.4383  4.2955  3.0086
  114MOL0     H15370  -1.762   5.330   2.877  3.0089  2.3517  1.0087
  114MOL0     H15371  -1.676   5.327   2.726  1.0656 -0.5935  0.8850
  114MOL0     H15372  -1.053   5.198   2.187 -0.9049  2.8088  1.7881
  114MOL0     H15373  -0.834   5.072   2.132 -0.3620  0.4991 -1.0370
  114MOL0     H15374  -0.372   5.117   2.108 -3.4182 -0.4729  2.2161
  114MOL0     H15375  -0.115   5.047   2.117  1.0785 -1.7000 -0.5099
  114MOL0     H15376   1.455   5.238   2.591  2.5168 -1.5487 -0.7667
  114MOL0     H15377   1.702   5.249   2.591  0.1851 -2.4970 -0.5416
  114MOL0     H15378   2.073   5.240   2.937 -0.5084  0.0329  0.6193
  114MOL0     H15379   2.302   5.181   2.930  2.0606 -0.9479 -1.4564
  114MOL0     H15380   2.596   5.115   2.800 -0.9408 -1.8170  0.1551
  114MOL0     H15381   2.441   5.083   2.714  0.6621 -1.2176 -2.8141
  114MOL0     H15382   2.628   5.264   2.576  2.1433 -1.3465  1.7949
  114MOL0     H15383   2.507   5.139   2.513 -1.0460 -3.2460  1.1114
  114MOL0     H15384   2.795   5.127   2.600 -3.0335  5.1873  0.1018
  114MOL0     H15385   2.740   5.063   2.454  0.0522  0.6106  0.6307
  114MOL0     H15386   2.695   4.953   2.736  2.5378 -0.7520  0.3887
  114MOL0     H15387   2.797   4.887   2.623 -1.2549 -1.4039  2.6241
  114MOL0     H15388   2.420   4.723   2.508  1.2168 -1.4580 -0.8438
  114MOL0     H15389   2.344   5.439   2.586  1.4864  0.0896 -0.6255
  114MOL0     H15390   2.096   5.425   2.560 -0.9483 -0.0865  1.1742
  115MOL0     O15391   9.975   7.548   1.335 -0.5691 -0.2500 -0.3851
  115MOL0     C15392  10.055   7.500   1.262 -0.8402  0.1778  0.6127
  115MOL0     O15393  10.035   7.388   1.182 -0.0304 -0.2927  0.1690
  115MOL0     C15394   9.916   7.317   1.182  0.0442 -0.1673 -0.2896
  115MOL0     C15395   9.799   7.349   1.255 -1.2301  0.2716 -0.9671
  115MOL0     C15396   9.695   7.256   1.254  0.1560 -0.9944  0.1932
  115MOL0     C15397   9.703   7.132   1.193 -0.8425 -0.0859 -0.7267
  115MOL0     O15398   9.605   7.042   1.225  0.5531 -0.4647 -0.0277
  115MOL0     C15399   9.618   6.913   1.172  0.1312  0.5073  0.1952
  115MOL0     C15400   9.499   6.832   1.236  0.6465 -0.5519 -0.2354
  115MOL0     C15401   9.364   6.894   1.188  0.8016 -0.5887 -0.8726
  115MOL0     C15402   9.345   6.883   1.037  1.6356  0.0806 -0.4809
  115MOL0     C15403   9.195   6.872   0.989 -0.2084  0.4016  0.0761
  115MOL0     C15404   9.116   6.756   1.059  0.5997  0.4022 -0.1683
  115MOL0     C15405   8.978   6.719   0.980  0.5725 -0.6108 -0.2660
  115MOL0     C15406   8.930   6.562   0.977  0.6004 -0.8625  0.0584
  115MOL0     N15407   8.830   6.523   1.083 -0.4059  0.1217  0.5570
  115MOL0     C15408   8.734   6.424   1.085  0.1828 -1.2977 -0.1600
  115MOL0     C15409   8.670   6.435   1.202  0.0571 -0.3605 -0.8905
  115MOL0     C15410   8.545   6.358   1.233  0.4159  0.6494  0.5908
  115MOL0     C15411   8.455   6.428   1.336  0.2378 -0.3819 -0.3388
  115MOL0     C15412   8.319   6.362   1.334 -0.3752 -0.2077  0.3075
  115MOL0     C15413   8.243   6.394   1.465 -0.2277  0.4894 -0.6421
  115MOL0     O15414   8.189   6.520   1.461  0.7837 -1.0425  0.5477
  115MOL0     C15415   8.087   6.538   1.549 -0.5001  0.1741  0.2240
  115MOL0     C15416   8.006   6.439   1.620 -0.6384  1.1578 -0.1325
  115MOL0     C15417   7.902   6.482   1.709 -0.7996  0.2250  0.2215
  115MOL0     C15418   7.837   6.368   1.794  1.0196  0.7567 -0.5004
  115MOL0     C15419   7.873   6.619   1.722 -0.3606  0.1273  0.1375
  115MOL0     C15420   7.754   6.679   1.807 -0.1498 -0.0250  0.5239
  115MOL0     O15421   7.645   6.609   1.834 -0.5050 -0.5448 -0.2723
  115MOL0     C15422   7.536   6.663   1.907 -0.2337 -0.2037  0.0782
  115MOL0     C15423   7.511   6.787   1.960 -0.1204 -0.8108  0.0258
  115MOL0     C15424   7.412   6.810   2.057  0.2052  0.7211 -0.0837
  115MOL0     C15425   7.315   6.706   2.090 -0.0254 -0.2355 -0.3273
  115MOL0     O15426   7.210   6.724   2.177  0.1703  0.3520  0.1665
  115MOL0     C15427   7.255   6.771   2.307  0.5127 -0.1385  0.4729
  115MOL0     C15428   7.282   6.649   2.390 -0.0279 -0.0575  0.1212
  115MOL0     C15429   7.153   6.590   2.444 -0.1054 -0.4599  0.0512
  115MOL0     C15430   7.171   6.444   2.505  0.5060  0.2104  0.0844
  115MOL0     C15431   7.051   6.350   2.541  0.0881  0.4328 -0.6513
  115MOL0     C15432   6.949   6.427   2.623 -0.2264  0.6546  0.1241
  115MOL0     C15433   6.824   6.355   2.689 -0.2821 -0.8239  0.9368
  115MOL0     C15434   6.731   6.299   2.583  1.0604 -0.4030  0.1279
  115MOL0    Cl15435   6.625   6.195   2.674  0.5040  0.0610 -0.1037
  115MOL0     C15436   7.341   6.583   2.033  0.3701 -0.0913 -0.6743
  115MOL0     C15437   7.447   6.557   1.940 -0.2847 -0.0604 -0.4974
  115MOL0     O15438   7.752   6.805   1.811  0.4590 -0.6914  0.9158
  115MOL0     C15439   7.943   6.712   1.645 -0.2755  0.2957  0.0553
  115MOL0     C15440   8.043   6.675   1.561 -0.2475  0.4705 -0.0876
  115MOL0     N15441   8.727   6.538   1.276 -0.4196 -0.6163  0.5242
  115MOL0     N15442   8.813   6.590   1.198 -0.2272 -0.4808 -0.4387
  115MOL0     C15443   9.820   7.100   1.112 -0.4367 -0.2387 -0.3030
  115MOL0     C15444   9.914   7.202   1.100 -0.0686 -0.8526 -0.6940
  115MOL0     C15445  10.181   7.567   1.242  0.9784 -0.4140 -0.0575
  115MOL0     C15446  10.226   7.665   1.332 -0.1956  0.1325 -0.9564
  115MOL0     C15447  10.340   7.740   1.309 -0.4683 -0.0270 -0.4165
  115MOL0     C15448  10.413   7.714   1.202  0.1561  0.4744  0.7808
  115MOL0     O15449  10.540   7.769   1.176  0.3482  0.7132  0.6030
  115MOL0     C15450  10.601   7.850   1.275 -0.8378 -0.1818 -0.3410
  115MOL0     C15451  10.758   7.879   1.239  0.4679 -0.2920  0.6916
  115MOL0     C15452  10.768   7.974   1.123 -0.8027 -0.0107 -0.4046
  115MOL0     C15453  10.922   7.982   1.091  0.6010 -0.5357 -0.1256
  115MOL0     C15454  10.947   8.110   1.024  0.0083 -0.8917  0.5541
  115MOL0     C15455  10.963   8.232   0.996 -0.2177 -0.7729 -0.2596
  115MOL0     C15456  10.373   7.618   1.110 -0.5047  0.6463  0.2794
  115MOL0     C15457  10.261   7.545   1.126  0.3607 -0.3607  0.3561
  115MOL0     H15458   9.793   7.430   1.327  0.8433 -0.1354 -0.2611
  115MOL0     H15459   9.602   7.278   1.306 -1.1851  4.0749 -3.6126
  115MOL0     H15460   9.608   6.921   1.064  0.6957  0.1290  0.1105
  115MOL0     H15461   9.715   6.865   1.192  1.0015  2.5479  1.1703
  115MOL0     H15462   9.499   6.733   1.189  3.9644  0.1121 -1.9572
  115MOL0     H15463   9.506   6.812   1.343  1.7704 -0.8570 -0.3446
  115MOL0     H15464   9.289   6.832   1.238  1.5482 -0.5355  0.3718
  115MOL0     H15465   9.347   6.997   1.221 -2.3027 -1.3498  0.2869
  115MOL0     H15466   9.395   6.966   0.986  3.4508 -1.3246 -1.1013
  115MOL0     H15467   9.389   6.787   1.009 -0.5442 -1.3619  0.7251
  115MOL0     H15468   9.141   6.966   1.001 -4.3119 -1.4820 -1.8136
  115MOL0     H15469   9.199   6.841   0.884  0.1565  0.9093 -0.0667
  115MOL0     H15470   9.163   6.658   1.061  0.8987  0.5193  2.9565
  115MOL0     H15471   9.089   6.778   1.163  2.4201 -1.7735  0.8537
  115MOL0     H15472   8.901   6.784   1.022  0.1999  0.1378 -2.0098
  115MOL0     H15473   8.992   6.762   0.881  1.2946  0.6968  0.3785
  115MOL0     H15474   9.022   6.504   0.974  1.8347  0.8062  2.5892
  115MOL0     H15475   8.875   6.549   0.883 -1.7564  2.3417  0.8095
  115MOL0     H15476   8.706   6.358   1.004 -1.1509 -1.7326  0.6199
  115MOL0     H15477   8.493   6.330   1.141  0.8870 -3.2722  1.3634
  115MOL0     H15478   8.580   6.265   1.278 -0.1679 -0.5252 -1.2718
  115MOL0     H15479   8.440   6.532   1.305  2.5799  0.4279  0.9486
  115MOL0     H15480   8.498   6.436   1.437 -1.2722  1.5086  0.2290
  115MOL0     H15481   8.337   6.255   1.327  1.0093  0.1268 -3.5467
  115MOL0     H15482   8.273   6.394   1.240  3.1452  1.6299 -0.9725
  115MOL0     H15483   8.309   6.373   1.549 -2.3157 -1.2982  0.6716
  115MOL0     H15484   8.169   6.313   1.470 -1.2244  1.1942 -2.6623
  115MOL0     H15485   8.022   6.333   1.608  2.3880  1.4197  0.6526
  115MOL0     H15486   7.841   6.383   1.902  2.9229 -1.5561 -0.1718
  115MOL0     H15487   7.730   6.355   1.773  1.9628 -2.3118 -4.8653
  115MOL0     H15488   7.879   6.269   1.776 -1.4868 -0.3708 -0.5361
  115MOL0     H15489   7.568   6.878   1.940  1.8084 -1.6027  1.6093
  115MOL0     H15490   7.400   6.906   2.107 -1.0804  0.4732  0.1172
  115MOL0     H15491   7.343   6.836   2.301  0.6764 -0.4637 -1.5591
  115MOL0     H15492   7.178   6.828   2.359 -1.1108 -0.5392 -1.3748
  115MOL0     H15493   7.340   6.575   2.333  1.2190  0.8181  0.2149
  115MOL0     H15494   7.339   6.675   2.480 -0.7794  0.6211  0.4089
  115MOL0     H15495   7.068   6.592   2.374 -0.1330  1.2312  0.0898
  115MOL0     H15496   7.131   6.650   2.532  3.1495  1.1862 -0.1222
  115MOL0     H15497   7.222   6.397   2.420  0.2814 -0.5473  0.3573
  115MOL0     H15498   7.229   6.447   2.598 -2.4950 -1.1012  2.1332
  115MOL0     H15499   7.089   6.265   2.599 -2.2980 -1.8221 -2.2008
  115MOL0     H15500   7.027   6.308   2.443  0.8505 -1.1316 -0.2100
  115MOL0     H15501   7.009   6.486   2.693 -0.7162  3.2760 -1.5457
  115MOL0     H15502   6.900   6.500   2.558 -0.8716 -1.9554 -2.5395
  115MOL0     H15503   6.771   6.430   2.749 -1.5000 -0.8100 -0.1269
  115MOL0     H15504   6.854   6.269   2.750 -1.3120 -3.6005 -2.2024
  115MOL0     H15505   6.782   6.241   2.504  1.8315 -0.3758  0.5956
  115MOL0     H15506   6.682   6.386   2.539 -0.5839 -1.4655 -0.2361
  115MOL0     H15507   7.281   6.499   2.068 -1.0587  1.5259  1.0048
  115MOL0     H15508   7.461   6.461   1.891  0.8613  0.2447 -0.7965
  115MOL0     H15509   7.929   6.819   1.654 -0.8744  0.1609  0.8125
  115MOL0     H15510   8.106   6.751   1.517 -1.3031 -0.9441 -4.5496
  115MOL0     H15511   9.847   7.005   1.066  1.4852  1.1036 -2.1270
  115MOL0     H15512  10.000   7.177   1.039 -0.5755 -3.1097 -0.5752
  115MOL0     H15513  10.162   7.689   1.416  1.2606 -1.9144  0.8463
  115MOL0     H15514  10.365   7.819   1.379 -0.9715 -0.8036  0.6684
  115MOL0     H15515  10.567   7.954   1.274  1.5020  0.6475 -0.7487
  115MOL0     H15516  10.607   7.822   1.381  1.5985  2.3491  0.3103
  115MOL0     H15517  10.800   7.783   1.208 -1.6743 -1.0129 -0.1562
  115MOL0     H15518  10.798   7.919   1.333 -2.2074  1.3515  1.2295
  115MOL0     H15519  10.719   8.069   1.147 -0.5511  0.0301 -0.0517
  115MOL0     H15520  10.716   7.936   1.035 -1.0015 -2.4653  0.6855
  115MOL0     H15521  10.946   7.900   1.023 -0.9090 -0.2271 -1.0824
  115MOL0     H15522  10.989   7.980   1.178 -1.5930  1.2681  1.7651
  115MOL0     H15523  10.981   8.338   0.999 -0.4109 -0.7491  0.2979
  115MOL0     H15524  10.455   7.612   1.039  0.4535  2.1761  1.2034
  115MOL0     H15525  10.237   7.474   1.048  1.3167 -1.1559  0.7617
  116MOL0     O15526  10.002   8.366   0.116 -0.3284 -0.2622  0.0745
  116MOL0     C15527  10.070   8.326   0.209  0.2624 -0.1046 -1.2631
  116MOL0     O15528  10.026   8.265   0.325 -0.6196 -0.4112 -0.8994
  116MOL0     C15529   9.907   8.192   0.322  0.6691  0.3168  0.2225
  116MOL0     C15530   9.818   8.196   0.431  0.5774  0.4804 -0.6309
  116MOL0     C15531   9.698   8.123   0.427  0.1791  0.3471 -0.0350
  116MOL0     C15532   9.650   8.061   0.310 -0.0937 -0.6295  0.0374
  116MOL0     O15533   9.530   7.993   0.305  1.3436 -0.4625 -0.3685
  116MOL0     C15534   9.435   8.023   0.417  0.2327 -0.3479  0.1576
  116MOL0     C15535   9.291   7.979   0.379  0.0666  0.7076  0.4134
  116MOL0     C15536   9.194   7.920   0.483 -0.3976 -0.3287 -0.0686
  116MOL0     C15537   9.065   7.865   0.412  0.1667 -0.5815 -0.6727
  116MOL0     C15538   8.962   7.827   0.515 -0.2806  0.0491 -0.3091
  116MOL0     C15539   8.817   7.822   0.465 -0.4732  0.0264 -0.7066
  116MOL0     C15540   8.794   7.717   0.359  0.5687  0.2331 -0.1652
  116MOL0     C15541   8.648   7.700   0.301  0.0229  1.1391  0.3648
  116MOL0     N15542   8.557   7.665   0.414  0.9815  0.1449 -0.1117
  116MOL0     C15543   8.573   7.552   0.491  0.6230 -0.6578 -0.0227
  116MOL0     C15544   8.473   7.564   0.588 -0.2827  0.0314  1.5553
  116MOL0     C15545   8.455   7.464   0.698  0.5209 -0.4459 -1.2717
  116MOL0     C15546   8.449   7.321   0.648  0.1942  0.4026  0.9708
  116MOL0     C15547   8.364   7.301   0.518 -0.2701 -1.5747  0.8621
  116MOL0     C15548   8.213   7.279   0.531 -0.4710 -0.5645  0.0163
  116MOL0     O15549   8.140   7.299   0.413 -0.2008 -0.0068  0.0563
  116MOL0     C15550   8.018   7.250   0.398 -0.0370 -0.8839  0.7088
  116MOL0     C15551   7.971   7.145   0.470 -0.2416  0.2182  0.6250
  116MOL0     C15552   7.836   7.110   0.474  0.7856 -0.4345 -0.2592
  116MOL0     C15553   7.801   6.997   0.559  0.0658  0.2531  0.0519
  116MOL0     C15554   7.740   7.179   0.394 -0.5443 -0.7972 -1.2870
  116MOL0     C15555   7.592   7.155   0.390  0.1271  0.0798  0.0476
  116MOL0     O15556   7.549   7.032   0.445  0.3222 -0.2174  0.2252
  116MOL0     C15557   7.413   7.015   0.465 -0.1141  0.8763  0.4614
  116MOL0     C15558   7.336   7.058   0.580 -0.1916  0.8762 -0.0980
  116MOL0     C15559   7.198   7.035   0.578  0.9812 -0.4687  0.6568
  116MOL0     C15560   7.133   6.961   0.477  0.4672  0.1853  0.3503
  116MOL0     O15561   6.995   6.923   0.479 -0.7919  0.4425 -1.0587
  116MOL0     C15562   6.901   6.989   0.563  0.5727 -0.2405 -0.1302
  116MOL0     C15563   6.762   6.984   0.496  0.6708 -1.0401 -0.2206
  116MOL0     C15564   6.641   7.034   0.582  1.0639  0.4215  0.0567
  116MOL0     C15565   6.618   7.183   0.586 -0.3749 -0.0146  1.0695
  116MOL0     C15566   6.497   7.226   0.659  0.0082 -0.2189 -0.7759
  116MOL0     C15567   6.460   7.370   0.643 -0.4608 -0.1085  0.0689
  116MOL0     C15568   6.315   7.395   0.672 -0.6539  0.0644  0.0157
  116MOL0     C15569   6.291   7.545   0.645  0.2150  0.3822 -0.5939
  116MOL0    Cl15570   6.227   7.546   0.476 -0.4405 -0.4753 -0.4393
  116MOL0     C15571   7.211   6.914   0.372  0.1797  0.4063 -0.4350
  116MOL0     C15572   7.346   6.938   0.361 -0.0072  0.3644 -0.8041
  116MOL0     O15573   7.523   7.242   0.333 -0.5494 -0.3730 -0.3603
  116MOL0     C15574   7.789   7.286   0.323 -0.2867  0.5306 -0.3950
  116MOL0     C15575   7.924   7.324   0.325 -0.1223  0.0037 -0.1747
  116MOL0     N15576   8.386   7.668   0.547  0.0245  0.7698  0.1609
  116MOL0     N15577   8.437   7.729   0.441 -0.4845 -0.1612 -1.0666
  116MOL0     C15578   9.741   8.062   0.198  0.1534  0.5524  0.5704
  116MOL0     C15579   9.870   8.123   0.202  0.3117  0.2272 -0.4892
  116MOL0     C15580  10.208   8.377   0.203 -0.1509 -0.1402  0.6380
  116MOL0     C15581  10.239   8.479   0.108 -0.0948 -0.2051 -0.0805
  116MOL0     C15582  10.371   8.531   0.095  0.1295  0.6213  0.5476
  116MOL0     C15583  10.476   8.467   0.168 -0.2069  0.5072 -0.6853
  116MOL0     O15584  10.607   8.500   0.142  0.3221  0.2044 -0.0089
  116MOL0     C15585  10.666   8.574   0.247  0.1119  0.1461 -0.6428
  116MOL0     C15586  10.618   8.719   0.230  0.3089  0.2074  0.5849
  116MOL0     C15587  10.638   8.782   0.098 -0.7562 -0.5671  0.2992
  116MOL0     C15588  10.556   8.908   0.066 -0.2718 -0.6490  0.0901
  116MOL0     C15589  10.631   9.031   0.059 -0.8526 -0.5679  0.2660
  116MOL0     C15590  10.695   9.126   0.032 -0.1194 -0.5912 -0.2536
  116MOL0     C15591  10.448   8.359   0.252  0.5787  0.4849  0.0261
  116MOL0     C15592  10.317   8.319   0.270 -0.1236 -0.8037  0.3557
  116MOL0     H15593   9.845   8.243   0.525  1.1378 -0.1699 -0.4657
  116MOL0     H15594   9.642   8.118   0.520  0.4596 -0.7667  0.0805
  116MOL0     H15595   9.471   7.977   0.509 -0.1130  1.9094  1.5038
  116MOL0     H15596   9.436   8.131   0.436 -0.3946  0.5194 -3.8629
  116MOL0     H15597   9.249   8.072   0.341  0.0399  0.6990  0.4225
  116MOL0     H15598   9.298   7.897   0.306 -0.1729 -0.3007  1.4960
  116MOL0     H15599   9.247   7.836   0.529  1.2655  0.8663  0.2705
  116MOL0     H15600   9.181   7.987   0.568 -0.9929 -0.8844  0.2902
  116MOL0     H15601   9.030   7.936   0.336 -0.8249 -0.2600  0.0518
  116MOL0     H15602   9.095   7.771   0.365  0.3900 -0.6105 -0.4713
  116MOL0     H15603   8.992   7.737   0.569  0.0219  0.2969 -0.0665
  116MOL0     H15604   8.956   7.905   0.591 -0.2468  0.2537 -0.5157
  116MOL0     H15605   8.751   7.801   0.550 -0.6261 -1.1958 -1.1131
  116MOL0     H15606   8.783   7.916   0.422 -3.3434  1.0387  3.1945
  116MOL0     H15607   8.860   7.735   0.274 -0.7686 -0.0327 -1.2989
  116MOL0     H15608   8.809   7.616   0.399 -3.6123 -1.9644 -3.2626
  116MOL0     H15609   8.640   7.624   0.222  0.4074  3.1739 -1.7651
  116MOL0     H15610   8.617   7.793   0.254  0.9944 -0.0849 -3.0876
  116MOL0     H15611   8.653   7.480   0.485  0.2739 -0.9526 -1.6866
  116MOL0     H15612   8.542   7.470   0.765  1.3709 -1.6577 -2.2285
  116MOL0     H15613   8.359   7.492   0.741  0.7509 -0.3063 -0.8332
  116MOL0     H15614   8.412   7.260   0.731  1.5340  1.8149  2.7085
  116MOL0     H15615   8.551   7.286   0.631  0.5637  2.2863 -1.1765
  116MOL0     H15616   8.400   7.204   0.484 -0.3289 -0.9639 -1.0359
  116MOL0     H15617   8.385   7.380   0.445 -1.6280 -2.3280 -0.3829
  116MOL0     H15618   8.167   7.346   0.603  1.7030 -0.1333  1.0640
  116MOL0     H15619   8.205   7.177   0.569 -0.2498  0.0454  1.7532
  116MOL0     H15620   8.038   7.087   0.532 -1.3259 -0.8657  0.8199
  116MOL0     H15621   7.776   6.907   0.501  0.1020 -0.0117  0.4483
  116MOL0     H15622   7.881   6.971   0.628 -1.5758 -1.1944  1.4998
  116MOL0     H15623   7.711   7.019   0.617  1.0473  1.5241  1.1215
  116MOL0     H15624   7.396   7.103   0.658  1.2728 -0.9798 -0.0692
  116MOL0     H15625   7.142   7.066   0.666 -0.2895  0.1270 -0.3203
  116MOL0     H15626   6.892   6.945   0.662 -0.9571  0.3270  0.0097
  116MOL0     H15627   6.924   7.096   0.569  3.7780 -0.7240 -1.6335
  116MOL0     H15628   6.773   7.034   0.400 -1.6338 -1.1840 -0.6219
  116MOL0     H15629   6.750   6.879   0.470 -1.1517 -1.1866  1.0075
  116MOL0     H15630   6.662   6.996   0.682  0.6070  3.0030  1.2362
  116MOL0     H15631   6.554   6.974   0.555  0.9767  1.0897 -1.2667
  116MOL0     H15632   6.706   7.243   0.610 -1.9173  1.9921  2.0195
  116MOL0     H15633   6.596   7.208   0.482  2.1895 -1.0020  0.2112
  116MOL0     H15634   6.496   7.195   0.764 -0.9055  1.4809 -0.2428
  116MOL0     H15635   6.422   7.166   0.606  0.1221 -3.2690  2.1592
  116MOL0     H15636   6.524   7.430   0.709 -0.3940 -2.8679  2.7783
  116MOL0     H15637   6.468   7.403   0.539 -1.5961 -0.2433 -0.0705
  116MOL0     H15638   6.310   7.385   0.781 -1.3085  0.9956  0.0829
  116MOL0     H15639   6.244   7.329   0.622 -0.0236 -0.6559  0.0545
  116MOL0     H15640   6.384   7.602   0.655  0.4991 -0.3354  1.3018
  116MOL0     H15641   6.221   7.594   0.713  0.9437 -0.3566  0.7538
  116MOL0     H15642   7.168   6.850   0.296 -1.9611  0.2520  0.8142
  116MOL0     H15643   7.397   6.884   0.282  1.4664 -2.7373  2.0381
  116MOL0     H15644   7.734   7.350   0.255  2.7349  2.2549 -1.3838
  116MOL0     H15645   7.952   7.408   0.263 -0.2232 -0.9822 -1.5896
  116MOL0     H15646   9.716   8.012   0.104  1.9058 -0.2817  0.5205
  116MOL0     H15647   9.941   8.103   0.122  2.8027  0.1953  1.6084
  116MOL0     H15648  10.163   8.540   0.059 -0.6000  0.6889  1.7246
  116MOL0     H15649  10.388   8.612   0.025  2.7047 -0.8558 -0.6667
  116MOL0     H15650  10.643   8.524   0.342 -1.7986 -0.6724 -1.4794
  116MOL0     H15651  10.774   8.564   0.232 -0.4185 -2.4771 -4.0883
  116MOL0     H15652  10.667   8.788   0.300  1.0744  1.6043 -1.2338
  116MOL0     H15653  10.511   8.721   0.253  0.3113  0.2464  0.5922
  116MOL0     H15654  10.613   8.711   0.019 -2.1352  0.3670 -0.1438
  116MOL0     H15655  10.745   8.804   0.094 -0.9668  0.2928 -1.7125
  116MOL0     H15656  10.475   8.927   0.137 -0.3057 -0.5457  0.0241
  116MOL0     H15657  10.512   8.887  -0.032 -1.4108 -0.8845  0.6450
  116MOL0     H15658  10.727   9.223   0.001 -4.9632  1.7970  1.2139
  116MOL0     H15659  10.526   8.308   0.307 -0.5423 -2.6661 -1.0615
  116MOL0     H15660  10.287   8.245   0.344  0.0576  0.7773  2.0862
  117MOL0     O15661   5.346   7.367   2.908  0.2910 -1.0569 -1.3263
  117MOL0     C15662   5.336   7.327   2.798  0.5245 -0.4564 -0.2334
  117MOL0     O15663   5.213   7.290   2.737 -0.2916  1.3868 -1.0712
  117MOL0     C15664   5.088   7.324   2.784 -0.2952 -0.5069  0.6583
  117MOL0     C15665   5.055   7.383   2.904 -0.3969 -0.8508 -0.5660
  117MOL0     C15666   4.914   7.403   2.942  0.0725  0.6980  0.7370
  117MOL0     C15667   4.817   7.364   2.850 -0.6188 -0.1362  0.2784
  117MOL0     O15668   4.689   7.405   2.876  0.0363  0.8621  0.0565
  117MOL0     C15669   4.589   7.384   2.772 -0.1406 -0.9691 -0.1588
  117MOL0     C15670   4.441   7.408   2.812 -0.4244 -0.6167  0.5988
  117MOL0     C15671   4.415   7.542   2.868  0.3833  0.0312  0.0531
  117MOL0     C15672   4.387   7.641   2.756  1.0540  0.0948 -0.9633
  117MOL0     C15673   4.293   7.757   2.797 -0.1804  0.5432  0.0622
  117MOL0     C15674   4.359   7.885   2.862 -0.2924  0.9234 -0.4019
  117MOL0     C15675   4.256   7.998   2.882  0.5443  0.4128  0.0340
  117MOL0     C15676   4.144   7.982   2.980  0.6378  0.7919 -0.2698
  117MOL0     N15677   4.175   7.920   3.109  0.1469  0.2377 -0.1304
  117MOL0     C15678   4.246   7.976   3.209 -0.5225 -0.5330 -0.4732
  117MOL0     C15679   4.243   7.884   3.309  0.8492  0.2636  0.6239
  117MOL0     C15680   4.310   7.876   3.443 -0.5080 -0.2471 -0.5586
  117MOL0     C15681   4.247   7.992   3.535  0.3176 -0.0844  0.0210
  117MOL0     C15682   4.097   7.955   3.551  1.0884 -1.6406  0.4687
  117MOL0     C15683   4.073   7.809   3.589  0.5759 -0.4608 -0.5946
  117MOL0     O15684   3.946   7.803   3.665 -0.1130 -0.0490 -0.3158
  117MOL0     C15685   3.828   7.787   3.601  0.2771  0.5807 -0.0564
  117MOL0     C15686   3.812   7.784   3.463  0.1344 -1.3833  0.3421
  117MOL0     C15687   3.686   7.762   3.397 -1.8457 -1.2192 -0.1147
  117MOL0     C15688   3.692   7.765   3.241 -0.4727  0.1703  0.0301
  117MOL0     C15689   3.575   7.750   3.479 -0.7506 -0.1171 -0.6621
  117MOL0     C15690   3.440   7.743   3.416 -0.1423 -0.3031  0.5505
  117MOL0     O15691   3.411   7.732   3.276  0.1123 -0.3553 -0.3439
  117MOL0     C15692   3.303   7.659   3.236 -0.1487 -0.0367 -0.3053
  117MOL0     C15693   3.288   7.530   3.277 -0.7449  0.7569 -0.1884
  117MOL0     C15694   3.172   7.461   3.238 -0.6554 -0.4443 -0.0681
  117MOL0     C15695   3.077   7.531   3.166  0.9034  0.3244 -0.1746
  117MOL0     O15696   2.954   7.453   3.146 -0.4377  0.0127 -0.2906
  117MOL0     C15697   2.849   7.520   3.065 -0.4619 -0.1145 -0.4709
  117MOL0     C15698   2.717   7.449   3.046 -0.4996  0.5471  0.7147
  117MOL0     C15699   2.649   7.430   3.179 -0.7310 -0.1541  0.0435
  117MOL0     C15700   2.509   7.355   3.170 -0.4575  0.8281 -0.2035
  117MOL0     C15701   2.401   7.429   3.078 -0.0331 -0.1179 -1.0694
  117MOL0     C15702   2.382   7.576   3.121  0.4844 -0.6036  0.4341
  117MOL0     C15703   2.284   7.661   3.032 -0.1032 -0.5011 -0.1468
  117MOL0     C15704   2.211   7.763   3.120 -0.4256 -0.0494 -0.1558
  117MOL0    Cl15705   2.335   7.877   3.188 -0.4635  0.2287  0.3236
  117MOL0     C15706   3.101   7.661   3.120  0.6132 -0.2027 -0.1992
  117MOL0     C15707   3.214   7.728   3.158 -0.7425  0.0385 -0.1425
  117MOL0     O15708   3.357   7.728   3.499  0.2421  0.3787  0.5173
  117MOL0     C15709   3.596   7.752   3.619  0.9462 -0.3238 -0.2429
  117MOL0     C15710   3.723   7.777   3.680  0.6033 -0.5099 -0.3382
  117MOL0     N15711   4.177   7.766   3.252 -0.1376  0.2100  0.1078
  117MOL0     N15712   4.151   7.789   3.133  1.0728 -0.1886  0.5985
  117MOL0     C15713   4.851   7.301   2.733  0.6266  0.0426 -0.3620
  117MOL0     C15714   4.983   7.283   2.703  0.5101  0.8187  0.2133
  117MOL0     C15715   5.459   7.302   2.715  1.4403  0.0305  0.5055
  117MOL0     C15716   5.445   7.271   2.581 -0.5164  0.7722 -0.5058
  117MOL0     C15717   5.546   7.247   2.494 -0.6877  0.2534  0.4643
  117MOL0     C15718   5.678   7.243   2.543  0.2811  0.3054 -0.6238
  117MOL0     O15719   5.780   7.221   2.458  0.2402 -0.5724  0.4792
  117MOL0     C15720   5.913   7.238   2.499 -0.6082  0.4145 -0.3190
  117MOL0     C15721   6.007   7.231   2.375 -0.7246  0.2086 -0.2133
  117MOL0     C15722   5.958   7.322   2.264 -0.5232  0.8965 -0.1438
  117MOL0     C15723   6.086   7.349   2.177  0.2353 -1.3540 -0.1799
  117MOL0     C15724   6.125   7.235   2.094 -0.0100 -0.7442  0.2639
  117MOL0     C15725   6.150   7.150   2.018  0.0806  1.0246 -0.6154
  117MOL0     C15726   5.703   7.264   2.691  0.1155  0.5022 -0.3564
  117MOL0     C15727   5.585   7.298   2.772 -0.0464 -0.6054  0.6624
  117MOL0     H15728   5.130   7.409   2.978 -2.8376 -3.4193  3.1964
  117MOL0     H15729   4.870   7.452   3.028 -2.3366 -0.9135  0.5093
  117MOL0     H15730   4.614   7.446   2.685  0.5408  0.1363  0.7861
  117MOL0     H15731   4.588   7.279   2.743  2.2223 -1.3389  0.8824
  117MOL0     H15732   4.386   7.399   2.718  1.9745  1.9801 -1.2083
  117MOL0     H15733   4.413   7.328   2.881  1.3041 -1.4951  0.3475
  117MOL0     H15734   4.328   7.530   2.933 -0.6947 -1.4975 -1.5795
  117MOL0     H15735   4.504   7.582   2.918 -1.1302  1.0112  2.1118
  117MOL0     H15736   4.477   7.678   2.706  2.7729 -3.3661 -0.7650
  117MOL0     H15737   4.339   7.593   2.670 -0.1737  0.7583 -0.6637
  117MOL0     H15738   4.253   7.782   2.698 -0.3434  0.6265  0.1485
  117MOL0     H15739   4.210   7.719   2.858 -0.4171 -0.4863 -0.8646
  117MOL0     H15740   4.399   7.861   2.961 -0.6069  1.8538 -0.0406
  117MOL0     H15741   4.449   7.914   2.806  1.0006 -0.2677  0.9792
  117MOL0     H15742   4.308   8.090   2.912 -1.7277  1.7710  0.0367
  117MOL0     H15743   4.224   8.036   2.785 -0.6471  0.4319  0.4241
  117MOL0     H15744   4.063   7.918   2.943 -0.1720  2.0587 -0.7540
  117MOL0     H15745   4.080   8.070   2.992 -3.5045 -2.0350  0.5184
  117MOL0     H15746   4.301   8.070   3.215 -0.6662 -0.3453 -1.8215
  117MOL0     H15747   4.295   7.773   3.477 -1.0198 -1.0382 -2.9259
  117MOL0     H15748   4.416   7.899   3.429 -0.2338 -1.5900 -0.7993
  117MOL0     H15749   4.260   8.090   3.488 -0.1260  0.0486  0.1633
  117MOL0     H15750   4.280   7.990   3.639  0.9143  2.5598 -0.0504
  117MOL0     H15751   4.033   7.991   3.470 -0.6269  1.1973  2.9100
  117MOL0     H15752   4.041   8.013   3.624  0.6506  0.1793 -1.2282
  117MOL0     H15753   4.151   7.772   3.656  0.6440 -2.1468 -1.5349
  117MOL0     H15754   4.072   7.728   3.515  1.2977 -1.0748  0.0548
  117MOL0     H15755   3.902   7.798   3.405 -1.2925 -0.4103 -1.7759
  117MOL0     H15756   3.669   7.664   3.205  1.5785 -0.2695 -0.1633
  117MOL0     H15757   3.612   7.832   3.205 -0.6172  0.8300  1.5372
  117MOL0     H15758   3.793   7.789   3.209  0.2143 -1.7879  0.6299
  117MOL0     H15759   3.366   7.488   3.340 -1.0242  0.1548 -0.2408
  117MOL0     H15760   3.136   7.372   3.289  0.5365  0.9125  3.4789
  117MOL0     H15761   2.831   7.617   3.112  0.9403 -0.4669  0.8708
  117MOL0     H15762   2.889   7.526   2.963 -2.9749  2.1371 -1.4598
  117MOL0     H15763   2.647   7.495   2.976  0.8398  1.2293 -0.2332
  117MOL0     H15764   2.751   7.350   3.012 -0.5109  1.5029 -2.3953
  117MOL0     H15765   2.625   7.530   3.217  1.7232  0.5928 -0.2095
  117MOL0     H15766   2.713   7.377   3.251 -0.5929 -0.7543 -0.5105
  117MOL0     H15767   2.533   7.260   3.121  0.0748  0.9518 -0.1887
  117MOL0     H15768   2.458   7.336   3.265  1.2689 -0.3922  0.5420
  117MOL0     H15769   2.305   7.376   3.074  0.9622 -2.4741  2.3718
  117MOL0     H15770   2.440   7.432   2.975  0.4258  0.7402 -0.8745
  117MOL0     H15771   2.345   7.568   3.224 -0.2039  0.2340  0.2604
  117MOL0     H15772   2.479   7.624   3.106 -0.8613  1.7236 -1.8178
  117MOL0     H15773   2.210   7.601   2.978  0.0048  0.3038 -1.2304
  117MOL0     H15774   2.333   7.720   2.954 -2.9929  0.3471 -1.4497
  117MOL0     H15775   2.165   7.711   3.205  1.0483 -0.0284  0.6997
  117MOL0     H15776   2.139   7.813   3.056 -2.1716 -1.7706  0.3717
  117MOL0     H15777   3.035   7.721   3.058  0.4431 -0.4088 -0.2193
  117MOL0     H15778   3.227   7.833   3.131 -0.1223 -0.6519 -2.8552
  117MOL0     H15779   3.510   7.739   3.684  0.7772  2.8971  0.3320
  117MOL0     H15780   3.735   7.784   3.788  1.5106  0.6536 -0.4883
  117MOL0     H15781   4.782   7.259   2.660 -0.3454  1.5345 -0.3417
  117MOL0     H15782   5.011   7.236   2.609  2.6945 -1.4836  1.8670
  117MOL0     H15783   5.343   7.274   2.542 -0.2667 -0.2439 -1.2657
  117MOL0     H15784   5.532   7.232   2.387  0.4814 -0.6746  0.4219
  117MOL0     H15785   5.923   7.333   2.553 -0.3906 -0.4947  1.3109
  117MOL0     H15786   5.936   7.157   2.569 -3.9061  0.6312  1.2195
  117MOL0     H15787   6.008   7.126   2.345 -4.0952 -0.0936  0.3011
  117MOL0     H15788   6.105   7.261   2.413 -1.1123  0.3362  0.6958
  117MOL0     H15789   5.929   7.406   2.328 -0.9229 -0.1171  1.0439
  117MOL0     H15790   5.879   7.277   2.202 -0.1843 -1.1767  0.8542
  117MOL0     H15791   6.170   7.378   2.239  0.4407 -0.0915 -1.0225
  117MOL0     H15792   6.063   7.431   2.108  0.2920 -0.9826  0.2437
  117MOL0     H15793   6.163   7.059   1.962  0.8222  0.6994  0.0595
  117MOL0     H15794   5.797   7.254   2.744  0.1721  2.4465 -0.0414
  117MOL0     H15795   5.594   7.321   2.878 -2.0347 -0.7023  0.8845
  118MOL0     O15796   9.803   9.659   7.754 -0.0667 -0.3703 -0.4356
  118MOL0     C15797   9.862   9.561   7.733  0.0434  0.2821  0.2120
  118MOL0     O15798   9.837   9.440   7.789 -0.0272 -0.0828 -0.3305
  118MOL0     C15799   9.735   9.419   7.875 -0.1430  0.4650 -0.7206
  118MOL0     C15800   9.640   9.322   7.838 -0.3673  0.3266  0.2110
  118MOL0     C15801   9.531   9.296   7.916  0.3341  0.3270 -0.7959
  118MOL0     C15802   9.508   9.359   8.043 -0.6209 -0.1799  0.1077
  118MOL0     O15803   9.397   9.312   8.102 -0.6464  0.3966 -0.0908
  118MOL0     C15804   9.349   9.367   8.223 -0.0586  0.1114 -0.0847
  118MOL0     C15805   9.252   9.267   8.285  0.5162  0.6763 -0.7451
  118MOL0     C15806   9.124   9.241   8.217  0.2661 -0.8328  0.8265
  118MOL0     C15807   9.041   9.154   8.310 -1.0186  0.1621 -0.6258
  118MOL0     C15808   8.904   9.115   8.249 -0.1408 -0.3232  0.8789
  118MOL0     C15809   8.818   9.241   8.236 -0.0868  0.0256 -0.4324
  118MOL0     C15810   8.679   9.196   8.176 -0.2074 -0.2185 -0.5300
  118MOL0     C15811   8.587   9.319   8.166 -0.4054  0.7971  0.2994
  118MOL0     N15812   8.464   9.282   8.097  0.0590 -0.0964  0.0470
  118MOL0     C15813   8.447   9.201   7.987  0.4901  0.1299  0.3059
  118MOL0     C15814   8.320   9.214   7.946  0.5095  0.8199 -0.2244
  118MOL0     C15815   8.266   9.146   7.828  0.8955 -0.1566  0.9573
  118MOL0     C15816   8.115   9.123   7.842 -0.4252  0.5268 -0.2913
  118MOL0     C15817   8.032   9.253   7.818  0.3693 -0.5479  0.2238
  118MOL0     C15818   7.933   9.278   7.944  0.1415 -0.7521  0.5673
  118MOL0     O15819   7.848   9.170   7.945 -0.0871  0.0920  0.7839
  118MOL0     C15820   7.731   9.195   8.014 -0.2881  0.0158  1.4241
  118MOL0     C15821   7.714   9.160   8.150 -0.8532  0.7373 -0.5201
  118MOL0     C15822   7.587   9.160   8.209  1.3735  0.6105  0.0626
  118MOL0     C15823   7.576   9.104   8.343  0.9935  0.2036 -0.0801
  118MOL0     C15824   7.480   9.229   8.141  0.4778 -0.3068  0.4954
  118MOL0     C15825   7.342   9.249   8.207  0.9600 -0.3005 -0.0140
  118MOL0     O15826   7.232   9.272   8.129  0.7499  0.1611  0.2903
  118MOL0     C15827   7.115   9.308   8.191 -0.3951 -0.0264 -0.7953
  118MOL0     C15828   7.068   9.433   8.165 -0.1977  1.2147 -0.3451
  118MOL0     C15829   6.960   9.477   8.241 -0.7729  0.2711 -0.4900
  118MOL0     C15830   6.889   9.394   8.333  0.0600 -0.2492 -0.0138
  118MOL0     O15831   6.775   9.449   8.391 -0.4892  0.1989 -0.3223
  118MOL0     C15832   6.689   9.351   8.450 -1.1413 -0.4392  0.1076
  118MOL0     C15833   6.572   9.430   8.511  0.0751 -0.2624  0.0610
  118MOL0     C15834   6.477   9.478   8.401  0.6875  0.1954 -1.0515
  118MOL0     C15835   6.357   9.551   8.464  0.0298 -0.7555 -0.6976
  118MOL0     C15836   6.274   9.595   8.343 -0.4162  0.9711 -0.3404
  118MOL0     C15837   6.144   9.678   8.391 -0.2355  0.2996  0.1223
  118MOL0     C15838   6.042   9.701   8.280  0.1917 -0.2887 -0.2268
  118MOL0     C15839   5.916   9.772   8.334  0.1164 -0.8781 -0.3650
  118MOL0    Cl15840   5.798   9.746   8.200 -0.1807 -0.1757  0.1866
  118MOL0     C15841   6.929   9.262   8.348  0.3585 -0.7156  0.6840
  118MOL0     C15842   7.041   9.217   8.275  0.5034 -0.5886  0.4610
  118MOL0     O15843   7.340   9.280   8.324 -0.0757 -1.3962 -0.1204
  118MOL0     C15844   7.500   9.274   8.011 -0.3027 -0.0198  1.7974
  118MOL0     C15845   7.623   9.249   7.944 -0.6155 -0.9197 -0.1676
  118MOL0     N15846   8.262   9.291   8.043  0.0065  0.0130 -0.1856
  118MOL0     N15847   8.348   9.333   8.132  0.4244 -0.6384  0.7579
  118MOL0     C15848   9.611   9.440   8.091 -0.1672 -0.0770 -1.2576
  118MOL0     C15849   9.721   9.472   8.008 -0.7727  0.0257  0.2247
  118MOL0     C15850   9.975   9.585   7.648  0.7974 -0.6189 -0.0228
  118MOL0     C15851  10.033   9.716   7.636 -0.0982 -0.5336  0.0063
  118MOL0     C15852  10.149   9.727   7.560  0.8357  0.1269  0.0071
  118MOL0     C15853  10.205   9.616   7.495  0.3197 -1.0060  0.2396
  118MOL0     O15854  10.322   9.629   7.435 -0.7984 -0.2124 -0.3299
  118MOL0     C15855  10.433   9.617   7.531  0.7854  0.8229  0.0728
  118MOL0     C15856  10.553   9.680   7.474 -0.2981 -0.0657  0.0280
  118MOL0     C15857  10.547   9.837   7.508 -0.6961  0.2974 -0.3606
  118MOL0     C15858  10.673   9.900   7.439  0.3476 -0.2071 -0.8841
  118MOL0     C15859  10.682  10.039   7.472  0.5700 -0.4734 -0.2761
  118MOL0     C15860  10.700  10.156   7.515 -0.1327  0.6064  0.2978
  118MOL0     C15861  10.142   9.497   7.483  0.5366  1.1531 -0.0637
  118MOL0     C15862  10.029   9.482   7.561  0.4106 -0.9074 -0.6984
  118MOL0     H15863   9.655   9.270   7.744 -0.5103  0.9551 -0.1619
  118MOL0     H15864   9.452   9.230   7.882  0.4665  0.4885 -1.4351
  118MOL0     H15865   9.429   9.390   8.294 -0.5540  0.4879  0.3632
  118MOL0     H15866   9.301   9.465   8.212  3.4126  2.0075  0.3693
  118MOL0     H15867   9.298   9.168   8.287 -2.1462 -0.6854  2.4201
  118MOL0     H15868   9.223   9.290   8.388 -1.6422 -2.1598 -0.6017
  118MOL0     H15869   9.073   9.337   8.211 -0.3868 -1.2407 -0.3496
  118MOL0     H15870   9.134   9.207   8.114 -0.6351 -1.7911  1.0431
  118MOL0     H15871   9.106   9.067   8.325  0.8554  1.3500 -1.5201
  118MOL0     H15872   9.038   9.205   8.407  0.6342 -0.6752 -0.0954
  118MOL0     H15873   8.906   9.052   8.159 -1.6187  0.5770  0.1755
  118MOL0     H15874   8.857   9.055   8.327 -2.0244 -0.7000 -0.4750
  118MOL0     H15875   8.808   9.285   8.336  0.6596  0.8128 -0.6995
  118MOL0     H15876   8.866   9.312   8.168  2.7357 -1.2012  0.1485
  118MOL0     H15877   8.704   9.158   8.077  3.2307 -0.9354  0.4820
  118MOL0     H15878   8.630   9.126   8.245  0.3128  2.3743  2.7569
  118MOL0     H15879   8.632   9.404   8.114 -0.1165 -0.1956 -1.1208
  118MOL0     H15880   8.562   9.361   8.264 -1.3756  0.0287  0.3985
  118MOL0     H15881   8.522   9.142   7.934 -2.1113 -3.5182  0.3117
  118MOL0     H15882   8.271   9.208   7.738 -0.1043  1.1794  1.7747
  118MOL0     H15883   8.313   9.050   7.804 -0.2683 -0.2420 -1.2776
  118MOL0     H15884   8.088   9.086   7.942 -4.3369  2.5224 -0.4027
  118MOL0     H15885   8.104   9.034   7.780  1.8008 -2.2549  2.9706
  118MOL0     H15886   7.970   9.245   7.728 -0.6472 -0.1190  0.8719
  118MOL0     H15887   8.093   9.340   7.792  1.9210 -1.4890  0.6015
  118MOL0     H15888   7.889   9.377   7.932  2.3885  0.2723  0.3927
  118MOL0     H15889   7.992   9.278   8.036  1.1905  2.4932  0.0128
  118MOL0     H15890   7.798   9.134   8.213 -0.5693  0.5171 -0.9890
  118MOL0     H15891   7.552   9.179   8.419  2.8915 -1.3554  2.1797
  118MOL0     H15892   7.504   9.022   8.344 -0.0767  1.0636 -1.6289
  118MOL0     H15893   7.677   9.073   8.371  2.1888  1.0565 -3.0139
  118MOL0     H15894   7.127   9.504   8.107  0.2775  2.9212  2.0853
  118MOL0     H15895   6.926   9.579   8.224 -0.6518  0.4771  0.4383
  118MOL0     H15896   6.655   9.288   8.367 -2.1488 -0.4699  0.5306
  118MOL0     H15897   6.751   9.303   8.526  0.6185  1.5515  0.0377
  118MOL0     H15898   6.519   9.379   8.592 -0.9266  1.4150  0.5011
  118MOL0     H15899   6.614   9.517   8.562  3.5970 -2.1798  0.7379
  118MOL0     H15900   6.440   9.396   8.339 -1.7040 -0.6759  1.3183
  118MOL0     H15901   6.537   9.546   8.340  2.7302 -0.2474  0.3536
  118MOL0     H15902   6.297   9.477   8.516 -1.4882  0.7036 -0.2857
  118MOL0     H15903   6.395   9.639   8.518 -3.3991 -0.9503  2.3923
  118MOL0     H15904   6.240   9.506   8.289  1.3842 -1.3139  2.0179
  118MOL0     H15905   6.343   9.644   8.275  1.3885 -0.2657  0.5222
  118MOL0     H15906   6.085   9.618   8.461  0.0374 -0.6398 -0.4225
  118MOL0     H15907   6.183   9.771   8.431  1.6722 -0.0920 -0.6842
  118MOL0     H15908   6.011   9.607   8.233 -1.6869 -0.0138  0.3952
  118MOL0     H15909   6.076   9.769   8.202  1.0702 -0.2144  0.2005
  118MOL0     H15910   5.952   9.874   8.352 -2.5450  0.0229  0.2487
  118MOL0     H15911   5.888   9.725   8.429 -1.8592  3.6415  1.6276
  118MOL0     H15912   6.868   9.195   8.406  0.4186  0.3574  2.0326
  118MOL0     H15913   7.084   9.119   8.293 -0.5004 -1.2190 -0.4668
  118MOL0     H15914   7.425   9.328   7.954  1.0301  0.0157 -0.0262
  118MOL0     H15915   7.635   9.279   7.841 -5.3115  1.7641 -0.2427
  118MOL0     H15916   9.620   9.481   8.191  1.6817 -2.8122 -0.1880
  118MOL0     H15917   9.802   9.532   8.049 -0.6513  0.6849 -0.9289
  118MOL0     H15918   9.993   9.803   7.687  2.5444  0.0388  1.2819
  118MOL0     H15919  10.206   9.818   7.553  3.5545 -1.2242  2.5189
  118MOL0     H15920  10.414   9.659   7.630  1.2675  0.5886  0.2704
  118MOL0     H15921  10.438   9.510   7.553 -0.5278  0.6959 -0.1916
  118MOL0     H15922  10.558   9.683   7.364 -1.5751  0.3248 -0.0331
  118MOL0     H15923  10.635   9.618   7.511  2.2661  2.4565 -0.9633
  118MOL0     H15924  10.554   9.848   7.617 -0.9337  2.0133 -0.4907
  118MOL0     H15925  10.459   9.893   7.475  0.0860  2.6209  1.2231
  118MOL0     H15926  10.665   9.885   7.331 -2.9607 -2.7504 -0.4385
  118MOL0     H15927  10.759   9.849   7.483  0.2292  0.9507  0.8385
  118MOL0     H15928  10.711  10.258   7.545 -1.3020  0.7062  0.4316
  118MOL0     H15929  10.180   9.406   7.438  1.2812  0.7951  1.2393
  118MOL0     H15930   9.979   9.386   7.557  1.1466 -1.2504 -2.4632
  119MOL0     O15931   9.270   5.256  10.107 -0.4624  0.1668  0.4871
  119MOL0     C15932   9.312   5.327  10.191 -0.5719  0.0995 -0.5026
  119MOL0     O15933   9.264   5.452  10.214 -0.5422  0.1939 -0.2122
  119MOL0     C15934   9.162   5.504  10.143 -0.1172  0.5395  0.5597
  119MOL0     C15935   9.161   5.520  10.003  0.4875  0.3719  0.2002
  119MOL0     C15936   9.047   5.571   9.945  0.3136 -1.0761  0.6471
  119MOL0     C15937   8.938   5.619  10.020 -0.3057  0.1458  0.5843
  119MOL0     O15938   8.826   5.678   9.974 -0.4886  0.9321 -0.3137
  119MOL0     C15939   8.757   5.616   9.857 -0.2557 -0.4434 -0.8317
  119MOL0     C15940   8.608   5.654   9.850  0.1049 -0.3629  0.7741
  119MOL0     C15941   8.542   5.616   9.989 -0.3161  0.4564 -0.1599
  119MOL0     C15942   8.388   5.635   9.984  0.0803  0.7166 -0.8617
  119MOL0     C15943   8.320   5.573  10.108  0.5005 -0.1526  0.4928
  119MOL0     C15944   8.171   5.612  10.103  0.0982  0.4361  0.4673
  119MOL0     C15945   8.109   5.589  10.239  0.5390  0.5982  0.6351
  119MOL0     C15946   7.960   5.609  10.217 -0.8217 -0.1500 -0.5122
  119MOL0     N15947   7.878   5.582  10.337  0.7261 -2.0048  0.0504
  119MOL0     C15948   7.884   5.475  10.420  0.0298 -1.1312  0.7463
  119MOL0     C15949   7.810   5.515  10.530 -0.0531  0.6934  0.4521
  119MOL0     C15950   7.767   5.433  10.651  0.7841 -0.1898 -0.0093
  119MOL0     C15951   7.613   5.449  10.699  0.0972 -0.3979  0.2903
  119MOL0     C15952   7.559   5.367  10.822 -0.0524 -0.2107  0.0147
  119MOL0     C15953   7.529   5.220  10.788  0.0500  0.3609 -0.2719
  119MOL0     O15954   7.515   5.140  10.903 -0.0543  0.0529 -0.4838
  119MOL0     C15955   7.497   5.005  10.906 -0.4465 -0.5732  0.2486
  119MOL0     C15956   7.370   4.950  10.927 -0.5370  0.3988  0.1801
  119MOL0     C15957   7.343   4.816  10.880 -0.0978  0.7877  0.3869
  119MOL0     C15958   7.203   4.767  10.899  0.5083 -0.2513 -1.2416
  119MOL0     C15959   7.440   4.742  10.811  0.2704  0.5212  0.3080
  119MOL0     C15960   7.418   4.609  10.743 -0.0365  0.4383  0.1262
  119MOL0     O15961   7.534   4.553  10.694  0.3499  0.3577 -0.1809
  119MOL0     C15962   7.529   4.446  10.602 -0.7466  0.4415  0.7743
  119MOL0     C15963   7.418   4.413  10.512 -0.2578 -0.6589 -0.0276
  119MOL0     C15964   7.416   4.293  10.446  0.0042 -0.2948 -0.5296
  119MOL0     C15965   7.526   4.210  10.444 -0.2552  0.5640  0.4685
  119MOL0     O15966   7.516   4.096  10.377 -0.3775  0.5724 -0.2785
  119MOL0     C15967   7.523   4.091  10.235  0.4823 -0.0215  0.4808
  119MOL0     C15968   7.668   4.108  10.182 -0.0892 -0.1694  0.6915
  119MOL0     C15969   7.675   4.097  10.034  0.1416 -0.1109 -0.2842
  119MOL0     C15970   7.824   4.105   9.978  0.0460  0.8202 -0.1054
  119MOL0     C15971   7.840   4.162   9.832  0.2529  0.7438  1.0499
  119MOL0     C15972   7.771   4.081   9.715  0.4446 -0.3342  0.2087
  119MOL0     C15973   7.853   3.957   9.669  0.1893 -0.3845  0.4081
  119MOL0     C15974   7.796   3.902   9.544 -0.9816  0.4154  0.0013
  119MOL0    Cl15975   7.627   3.837   9.573 -0.1184  0.1956  0.0001
  119MOL0     C15976   7.635   4.245  10.523 -0.7948 -0.3277  0.6095
  119MOL0     C15977   7.641   4.356  10.603  0.5150 -0.5116  0.1347
  119MOL0     O15978   7.310   4.559  10.745  0.0523  0.8778 -0.0695
  119MOL0     C15979   7.568   4.804  10.804 -0.3057  0.0774  0.5705
  119MOL0     C15980   7.602   4.925  10.862  0.8073  0.0947  0.3291
  119MOL0     N15981   7.756   5.641  10.506  0.0710 -0.0601  0.5763
  119MOL0     N15982   7.804   5.681  10.394 -0.3152  0.2003  0.6538
  119MOL0     C15983   8.947   5.605  10.157 -0.2803 -0.2347  0.4231
  119MOL0     C15984   9.053   5.549  10.216 -0.2302  0.4769  0.2383
  119MOL0     C15985   9.408   5.276  10.286 -0.4067  0.0145  0.2096
  119MOL0     C15986   9.463   5.149  10.288 -0.0355  0.0940  0.2384
  119MOL0     C15987   9.567   5.118  10.379  0.5260 -0.0753  0.6013
  119MOL0     C15988   9.623   5.213  10.467  0.7327  0.1493 -0.2203
  119MOL0     O15989   9.728   5.183  10.545  0.1885 -0.0142  0.8077
  119MOL0     C15990   9.839   5.280  10.559 -0.9692  0.7911 -0.3154
  119MOL0     C15991   9.910   5.306  10.424 -0.3444  0.4916 -1.3503
  119MOL0     C15992  10.059   5.295  10.451  0.0738 -0.8889  0.9712
  119MOL0     C15993  10.143   5.296  10.322  0.7415 -0.3019 -1.2043
  119MOL0     C15994  10.280   5.246  10.338  1.3918  1.0183 -0.3005
  119MOL0     C15995  10.392   5.198  10.344 -0.1057  0.0827  0.5065
  119MOL0     C15996   9.554   5.341  10.473 -0.5857 -0.0118  0.5036
  119MOL0     C15997   9.458   5.374  10.377  0.2264 -0.5782 -0.0327
  119MOL0     H15998   9.239   5.481   9.937  0.1085 -3.6420  1.8468
  119MOL0     H15999   9.033   5.579   9.837  1.0969 -2.9866  0.3683
  119MOL0     H16000   8.800   5.641   9.759 -2.1549  0.9480 -1.3750
  119MOL0     H16001   8.757   5.507   9.865 -1.2453 -0.3773  0.2791
  119MOL0     H16002   8.588   5.760   9.833 -0.9231 -1.1576 -4.8286
  119MOL0     H16003   8.553   5.614   9.765 -0.2302  0.1873  0.7297
  119MOL0     H16004   8.577   5.517  10.021 -0.7663 -0.3135 -1.9191
  119MOL0     H16005   8.575   5.688  10.065 -0.2639  0.5612 -0.2806
  119MOL0     H16006   8.372   5.743   9.974  2.0352  1.5379  2.9886
  119MOL0     H16007   8.352   5.579   9.897  0.0796 -0.1082 -0.3404
  119MOL0     H16008   8.323   5.464  10.115 -0.2115 -0.3209 -1.2739
  119MOL0     H16009   8.375   5.611  10.195  1.5232  0.8721 -0.5579
  119MOL0     H16010   8.160   5.716  10.071 -0.7369  0.3186  0.3547
  119MOL0     H16011   8.114   5.563  10.023  1.8828  0.8560 -1.1525
  119MOL0     H16012   8.133   5.485  10.265  0.5002  0.9355  2.1185
  119MOL0     H16013   8.154   5.652  10.317  0.9951  1.5222 -0.3551
  119MOL0     H16014   7.929   5.547  10.133 -0.2084 -0.0547 -0.8179
  119MOL0     H16015   7.946   5.716  10.196 -0.2564  0.3473  1.4013
  119MOL0     H16016   7.942   5.388  10.392  1.7172  0.9066 -2.6798
  119MOL0     H16017   7.769   5.327  10.626 -1.0545 -1.1237  3.2718
  119MOL0     H16018   7.831   5.455  10.738  0.9268  2.1597 -0.6187
  119MOL0     H16019   7.563   5.413  10.609 -0.1252  2.5704 -0.8672
  119MOL0     H16020   7.580   5.553  10.711 -1.4236 -0.8671  0.3270
  119MOL0     H16021   7.468   5.420  10.850  0.3876  0.3275  0.4460
  119MOL0     H16022   7.628   5.359  10.906  0.5947  0.5397 -0.4349
  119MOL0     H16023   7.614   5.184  10.730 -1.2708  2.1639 -3.5971
  119MOL0     H16024   7.441   5.188  10.731  2.0388 -3.6589 -1.5379
  119MOL0     H16025   7.292   5.009  10.974 -0.3685 -0.7618  2.0303
  119MOL0     H16026   7.208   4.678  10.962  0.3266 -0.8710 -2.0800
  119MOL0     H16027   7.147   4.841  10.956  1.2339 -0.7553  0.1654
  119MOL0     H16028   7.148   4.752  10.806 -0.3034 -1.8034 -0.5430
  119MOL0     H16029   7.340   4.488  10.501 -1.9419 -2.4049 -0.4953
  119MOL0     H16030   7.327   4.264  10.391 -1.1854  0.4476  0.9397
  119MOL0     H16031   7.475   3.995  10.215  0.2865  0.2160 -0.1859
  119MOL0     H16032   7.469   4.174  10.189  0.3624 -1.4523 -2.1419
  119MOL0     H16033   7.707   4.201  10.224  3.8767 -2.2956  2.3202
  119MOL0     H16034   7.737   4.036  10.228 -1.4667 -1.2271  1.1446
  119MOL0     H16035   7.611   4.179  10.000  1.7500  2.2711  2.0412
  119MOL0     H16036   7.635   4.006   9.988 -0.4695  0.9630 -1.9512
  119MOL0     H16037   7.884   4.167  10.045 -0.2812  0.2922  0.7043
  119MOL0     H16038   7.858   4.002   9.976 -0.4188  0.6664 -2.1686
  119MOL0     H16039   7.945   4.168   9.802 -0.4073 -1.6912 -2.3444
  119MOL0     H16040   7.792   4.260   9.825 -2.7333 -0.5631  1.5443
  119MOL0     H16041   7.675   4.039   9.747 -0.0178 -2.2451 -3.1849
  119MOL0     H16042   7.732   4.139   9.631  1.6810 -0.2609 -0.3418
  119MOL0     H16043   7.868   3.877   9.742  0.7919  0.5906  1.3732
  119MOL0     H16044   7.954   3.987   9.639 -0.8141  1.0891 -1.8420
  119MOL0     H16045   7.862   3.819   9.518  0.5674  0.8062  2.3862
  119MOL0     H16046   7.803   3.965   9.454 -1.6571  1.4135  0.6239
  119MOL0     H16047   7.721   4.178  10.528 -0.0349  0.7334  3.5822
  119MOL0     H16048   7.731   4.386  10.655  1.1559  0.8060 -1.6310
  119MOL0     H16049   7.654   4.749  10.768  0.8823  2.4353 -0.4167
  119MOL0     H16050   7.708   4.951  10.870  1.3344 -1.7751 -0.0164
  119MOL0     H16051   8.862   5.651  10.208 -0.2896  2.2684 -1.6548
  119MOL0     H16052   9.051   5.525  10.322 -0.8822 -0.9236 -0.0772
  119MOL0     H16053   9.420   5.075  10.221 -0.6466 -0.2106  0.9548
  119MOL0     H16054   9.609   5.020  10.399  0.9746 -0.1899 -0.7686
  119MOL0     H16055   9.801   5.375  10.598 -0.7888 -0.1196  2.3335
  119MOL0     H16056   9.906   5.249  10.640  0.0779  0.3177 -1.3506
  119MOL0     H16057   9.887   5.405  10.383 -0.8261  1.3400  0.8485
  119MOL0     H16058   9.882   5.235  10.345  1.2061 -1.7723  0.0250
  119MOL0     H16059  10.082   5.205  10.509  0.1715  0.8029  3.7644
  119MOL0     H16060  10.099   5.379  10.509 -1.7506 -0.3167  1.4670
  119MOL0     H16061  10.147   5.400  10.291 -3.8760 -0.3242 -2.6627
  119MOL0     H16062  10.088   5.243  10.243 -2.5159  0.3956  0.3933
  119MOL0     H16063  10.490   5.156  10.348 -0.6800 -1.1800  3.4963
  119MOL0     H16064   9.577   5.422  10.542  4.0972  0.9883 -1.8455
  119MOL0     H16065   9.405   5.468  10.381  0.6198 -0.4087  2.4868
  120MOL0     O16066  10.577  11.048  10.450 -0.3725  0.6158 -0.4190
  120MOL0     C16067  10.623  11.166  10.454  0.4408  0.2083  0.8052
  120MOL0     O16068  10.583  11.267  10.540 -0.1893 -0.0684  0.0201
  120MOL0     C16069  10.476  11.241  10.610 -0.0391 -0.1380 -0.0961
  120MOL0     C16070  10.462  11.129  10.701 -0.7824 -0.3681  0.9025
  120MOL0     C16071  10.349  11.119  10.782 -0.2444  0.1164  0.3497
  120MOL0     C16072  10.255  11.221  10.783  1.1540 -0.4983 -0.9919
  120MOL0     O16073  10.141  11.221  10.866 -0.3951 -0.7560 -0.4218
  120MOL0     C16074  10.127  11.137  10.977 -0.4430 -1.0484  0.1836
  120MOL0     C16075  10.015  11.185  11.068 -0.8596 -0.7097 -0.0785
  120MOL0     C16076   9.878  11.194  11.000  0.1293 -0.4467 -0.6751
  120MOL0     C16077   9.790  11.259  11.111 -1.1589  0.4985 -0.6050
  120MOL0     C16078   9.652  11.253  11.056 -0.2977 -0.2073 -0.0528
  120MOL0     C16079   9.547  11.286  11.168  0.0022  0.8576  1.8766
  120MOL0     C16080   9.410  11.268  11.105  0.9577  0.4662  0.6694
  120MOL0     C16081   9.314  11.311  11.218 -0.0674  0.1100  0.3354
  120MOL0     N16082   9.175  11.287  11.203  1.0758  0.1601  0.0086
  120MOL0     C16083   9.128  11.161  11.181  0.1176  0.6711 -0.1230
  120MOL0     C16084   9.008  11.181  11.129  0.1702 -0.3606 -0.7655
  120MOL0     C16085   8.916  11.066  11.113  0.1847  0.2620 -0.0837
  120MOL0     C16086   8.917  11.001  10.974 -0.5370  0.2400  0.6474
  120MOL0     C16087   8.910  10.854  10.975 -0.9548  0.4181  0.5678
  120MOL0     C16088   8.894  10.794  10.835  0.5480 -0.6933 -0.7592
  120MOL0     O16089   8.881  10.644  10.845 -0.2848  0.2398 -0.8392
  120MOL0     C16090   8.752  10.598  10.823 -0.9422 -0.7423  0.5333
  120MOL0     C16091   8.642  10.637  10.899  0.1421  0.2130  1.2247
  120MOL0     C16092   8.519  10.565  10.892 -0.1535 -1.0317  0.0849
  120MOL0     C16093   8.403  10.594  10.989 -1.0552 -0.1787  0.4348
  120MOL0     C16094   8.494  10.469  10.784  0.3202  0.5182 -0.4169
  120MOL0     C16095   8.373  10.387  10.754 -0.4178  0.1520  0.9907
  120MOL0     O16096   8.263  10.417  10.826  0.0532 -0.2734 -0.1148
  120MOL0     C16097   8.164  10.323  10.853  0.5811  0.3474  0.4580
  120MOL0     C16098   8.037  10.354  10.804  0.2059 -0.5011  0.1148
  120MOL0     C16099   7.936  10.257  10.805  0.2853  0.0165  0.7084
  120MOL0     C16100   7.964  10.126  10.857 -0.5041 -0.0413  0.6809
  120MOL0     O16101   7.868  10.029  10.863 -1.0647  0.1417 -0.4401
  120MOL0     C16102   7.869   9.962  10.745 -0.4596  0.3337  0.3008
  120MOL0     C16103   7.797   9.835  10.762  0.1764 -0.0960 -0.3338
  120MOL0     C16104   7.814   9.755  10.886 -0.2459  0.3076 -0.1704
  120MOL0     C16105   7.965   9.712  10.891  0.5947  0.4447  0.1823
  120MOL0     C16106   7.995   9.610  11.003 -0.8878 -0.9056 -0.2352
  120MOL0     C16107   8.143   9.600  11.022 -1.0202 -0.7662  0.2054
  120MOL0     C16108   8.174   9.499  11.133  0.3866 -0.2803  0.7400
  120MOL0     C16109   8.311   9.451  11.117  0.3331 -0.6764 -0.3906
  120MOL0    Cl16110   8.434   9.574  11.151 -0.3896 -0.0314 -0.3134
  120MOL0     C16111   8.086  10.094  10.906  0.5214 -0.6146 -0.6042
  120MOL0     C16112   8.188  10.192  10.912  0.1552  0.2858  0.2893
  120MOL0     O16113   8.379  10.307  10.665 -0.1349  0.5935  0.1765
  120MOL0     C16114   8.606  10.440  10.704  0.6014 -0.0025 -0.3857
  120MOL0     C16115   8.736  10.496  10.721 -0.7389  0.1186 -0.5426
  120MOL0     N16116   8.989  11.308  11.096 -0.1849  0.2209  0.5093
  120MOL0     N16117   9.091  11.372  11.135 -0.1437 -0.4777  0.2043
  120MOL0     C16118  10.264  11.330  10.692  0.9016  1.0391 -0.2218
  120MOL0     C16119  10.370  11.337  10.608 -0.2882 -0.0286  0.6705
  120MOL0     C16120  10.749  11.182  10.377 -0.3091 -0.1050  0.1553
  120MOL0     C16121  10.824  11.305  10.387  0.7318  0.3198  0.8978
  120MOL0     C16122  10.936  11.326  10.308 -1.0404  0.0832 -0.4792
  120MOL0     C16123  10.993  11.216  10.237  0.1405  0.8343 -0.2899
  120MOL0     O16124  11.107  11.224  10.162 -0.3748 -0.4742  0.7991
  120MOL0     C16125  11.213  11.295  10.224  0.1430 -0.2776 -0.0028
  120MOL0     C16126  11.330  11.202  10.210  0.0414 -0.6108  0.2243
  120MOL0     C16127  11.465  11.274  10.222  0.1650  0.0350  0.0378
  120MOL0     C16128  11.590  11.175  10.235 -0.3362  0.2826 -0.8684
  120MOL0     C16129  11.725  11.238  10.210 -0.7465  0.5568 -0.5612
  120MOL0     C16130  11.820  11.302  10.162 -0.0383  0.2876  0.1370
  120MOL0     C16131  10.920  11.099  10.229 -0.4563 -0.1544 -0.2156
  120MOL0     C16132  10.798  11.080  10.289 -0.3615 -0.3575 -1.0286
  120MOL0     H16133  10.543  11.058  10.708  0.6121  1.0635 -0.1902
  120MOL0     H16134  10.337  11.036  10.850 -0.1827 -1.4061 -1.4104
  120MOL0     H16135  10.096  11.037  10.944 -0.7763 -1.2021  0.9463
  120MOL0     H16136  10.222  11.137  11.030 -0.4136  4.4772  0.6273
  120MOL0     H16137  10.010  11.111  11.148  2.8462 -2.6657 -1.4065
  120MOL0     H16138  10.048  11.281  11.110  0.4300 -0.1931 -2.1024
  120MOL0     H16139   9.884  11.263  10.915 -1.3974  0.1121 -0.3471
  120MOL0     H16140   9.844  11.096  10.966 -0.0146 -1.2708  1.6826
  120MOL0     H16141   9.800  11.202  11.204 -0.8687  0.7973 -0.4520
  120MOL0     H16142   9.829  11.358  11.137  0.0445 -0.1887  0.3500
  120MOL0     H16143   9.636  11.327  10.977 -1.5905 -0.0951  0.2883
  120MOL0     H16144   9.628  11.151  11.022  2.4597 -1.1740  0.6746
  120MOL0     H16145   9.548  11.213  11.249 -0.4659 -0.7286  0.5173
  120MOL0     H16146   9.568  11.390  11.195  2.3359  0.8272  0.5079
  120MOL0     H16147   9.406  11.331  11.017 -0.0539 -1.0598 -0.4237
  120MOL0     H16148   9.390  11.163  11.080 -0.4606  0.8421  0.1665
  120MOL0     H16149   9.327  11.418  11.230 -0.8592 -0.0031  2.4792
  120MOL0     H16150   9.339  11.266  11.314 -1.1427 -0.8563  0.1835
  120MOL0     H16151   9.159  11.071  11.233 -0.5227 -0.1349 -1.0934
  120MOL0     H16152   8.938  10.995  11.193 -0.7122  0.8847  0.7404
  120MOL0     H16153   8.819  11.113  11.135  1.4854  3.1556 -0.1062
  120MOL0     H16154   9.011  11.032  10.927 -0.3414  0.6552  1.2894
  120MOL0     H16155   8.830  11.045  10.927  0.0067  2.5594  1.6789
  120MOL0     H16156   8.830  10.815  11.039 -1.4796  1.0562  0.3030
  120MOL0     H16157   9.003  10.812  11.017 -1.8160 -2.9292 -0.5324
  120MOL0     H16158   8.987  10.820  10.784  1.5620  1.1244  1.8300
  120MOL0     H16159   8.809  10.842  10.785  0.3688  3.0636  2.6329
  120MOL0     H16160   8.651  10.709  10.979 -2.8271  1.9191  0.1851
  120MOL0     H16161   8.430  10.659  11.073 -2.4328 -1.4918  1.9770
  120MOL0     H16162   8.317  10.628  10.930 -0.8175  0.3948  0.4115
  120MOL0     H16163   8.378  10.500  11.040  1.0393 -1.6369 -1.0385
  120MOL0     H16164   8.020  10.459  10.782  0.7914 -0.6354 -1.0945
  120MOL0     H16165   7.853  10.284  10.742  2.0317  0.1223 -1.6920
  120MOL0     H16166   7.805  10.011  10.671 -2.5568 -1.3986  0.8609
  120MOL0     H16167   7.968   9.946  10.703 -0.2386 -0.2978  1.0461
  120MOL0     H16168   7.694   9.873  10.763  0.5121  0.8216  0.9902
  120MOL0     H16169   7.800   9.772  10.672 -2.2188 -2.5582  1.1552
  120MOL0     H16170   7.754   9.664  10.881 -1.7957  1.2280  1.0072
  120MOL0     H16171   7.792   9.814  10.975  0.6716  2.9950 -1.6103
  120MOL0     H16172   7.975   9.665  10.793  0.8608  0.2050  0.3204
  120MOL0     H16173   8.035   9.795  10.900 -1.6291  2.2716  1.8425
  120MOL0     H16174   7.952   9.512  10.982  2.0517 -2.5219  0.6897
  120MOL0     H16175   7.944   9.641  11.095  1.0799  1.9882  0.0026
  120MOL0     H16176   8.166   9.565  10.921 -2.1695  2.9364 -1.5316
  120MOL0     H16177   8.197   9.694  11.037 -0.6047 -1.0470  0.4847
  120MOL0     H16178   8.113   9.411  11.111  1.0948 -0.5091 -0.3851
  120MOL0     H16179   8.165   9.538  11.235  0.4367  4.3069 -0.7941
  120MOL0     H16180   8.334   9.403  11.022  0.9277  2.1973 -1.7951
  120MOL0     H16181   8.332   9.369  11.187 -0.0120  0.0443  0.5750
  120MOL0     H16182   8.106   9.995  10.947  1.0237 -0.2746 -0.0138
  120MOL0     H16183   8.287  10.166  10.946 -0.7581 -2.7222  0.9389
  120MOL0     H16184   8.601  10.365  10.625 -2.1923 -2.0031  1.5188
  120MOL0     H16185   8.819  10.447  10.671  1.6896  2.7371  0.6087
  120MOL0     H16186  10.178  11.396  10.683 -0.7427 -1.2332 -5.3532
  120MOL0     H16187  10.365  11.411  10.529 -2.6181  0.2715  1.0089
  120MOL0     H16188  10.779  11.379  10.452 -1.6226  0.6496 -0.9656
  120MOL0     H16189  10.979  11.425  10.298 -1.4163  0.3074  0.0701
  120MOL0     H16190  11.219  11.387  10.166 -4.2805 -0.6219 -1.4050
  120MOL0     H16191  11.182  11.324  10.324 -0.3259 -0.7244 -0.0114
  120MOL0     H16192  11.329  11.157  10.110 -1.0170 -1.3869  0.5673
  120MOL0     H16193  11.317  11.114  10.272 -1.8207  0.5650  1.6056
  120MOL0     H16194  11.467  11.331  10.315 -1.6750  0.6481 -0.2447
  120MOL0     H16195  11.487  11.338  10.135  2.1634 -2.8170 -1.7436
  120MOL0     H16196  11.583  11.103  10.153  0.4263  0.8641 -1.4537
  120MOL0     H16197  11.595  11.142  10.340 -1.2722  2.4078 -0.0899
  120MOL0     H16198  11.905  11.365  10.144  0.2279 -0.5557 -1.7768
  120MOL0     H16199  10.954  11.026  10.156 -1.8371  1.0691 -2.2030
  120MOL0     H16200  10.751  10.984  10.272 -2.2196  0.1686  0.7215
  121MOL0     O16201   8.479   2.706  10.928  0.0015  0.3504 -0.0914
  121MOL0     C16202   8.546   2.610  10.975 -0.3271  0.5166  0.3668
  121MOL0     O16203   8.491   2.486  11.008  0.0780 -0.4232  0.1461
  121MOL0     C16204   8.358   2.464  10.970  0.2183  0.3027  0.2721
  121MOL0     C16205   8.338   2.416  10.840  1.2528  0.3869 -0.1208
  121MOL0     C16206   8.208   2.381  10.800  0.4775 -0.0872  0.0033
  121MOL0     C16207   8.099   2.392  10.886 -0.7428 -0.1927  0.2894
  121MOL0     O16208   7.983   2.353  10.829 -0.6733  0.1916  0.3649
  121MOL0     C16209   7.877   2.444  10.810 -1.1731 -0.4587  0.6149
  121MOL0     C16210   7.755   2.363  10.772  0.0259 -0.7072  0.4868
  121MOL0     C16211   7.760   2.313  10.620  0.6847 -0.4541 -0.3549
  121MOL0     C16212   7.735   2.428  10.512 -0.1618  0.0173 -0.2514
  121MOL0     C16213   7.763   2.354  10.379  0.2837  0.4114 -0.0638
  121MOL0     C16214   7.743   2.453  10.269 -0.4505  1.1673 -0.1044
  121MOL0     C16215   7.690   2.373  10.150 -0.1154 -0.1392 -0.3616
  121MOL0     C16216   7.543   2.319  10.148 -0.2758 -0.8299  0.0898
  121MOL0     N16217   7.448   2.444  10.156  0.2699  0.0279 -0.0396
  121MOL0     C16218   7.423   2.548  10.063  0.1354  0.6091  0.2048
  121MOL0     C16219   7.355   2.647  10.128  0.7930 -0.0738  0.5608
  121MOL0     C16220   7.317   2.781  10.077 -0.0861  1.1726 -0.1671
  121MOL0     C16221   7.215   2.854  10.167  0.5984 -0.3214 -0.7168
  121MOL0     C16222   7.150   2.974  10.102  0.2683 -0.7157  1.3664
  121MOL0     C16223   7.044   3.045  10.184 -0.5103 -0.6537  0.6591
  121MOL0     O16224   7.049   3.183  10.159 -0.0694 -0.2529 -0.3394
  121MOL0     C16225   6.929   3.255  10.175 -1.1782 -0.2444  0.3251
  121MOL0     C16226   6.941   3.395  10.160  0.0580  0.5826 -1.2407
  121MOL0     C16227   6.829   3.473  10.178 -0.1653 -0.0478  0.2963
  121MOL0     C16228   6.862   3.625  10.148  0.4635  0.7107 -0.4081
  121MOL0     C16229   6.704   3.417  10.207  0.2119  0.4384 -0.6238
  121MOL0     C16230   6.580   3.501  10.226  0.3339  0.7617  0.4780
  121MOL0     O16231   6.486   3.451  10.316 -0.0182 -0.4395  0.0542
  121MOL0     C16232   6.384   3.532  10.370  0.3198 -1.5621  0.1217
  121MOL0     C16233   6.277   3.460  10.423  0.0516 -0.6066 -0.2100
  121MOL0     C16234   6.165   3.528  10.472  0.4763 -0.2961 -0.0805
  121MOL0     C16235   6.164   3.670  10.462  1.3289 -0.1739  0.5296
  121MOL0     O16236   6.045   3.728  10.502  0.1245 -0.7537 -0.0188
  121MOL0     C16237   6.003   3.832  10.414 -0.1721 -0.1255  0.4274
  121MOL0     C16238   5.873   3.906  10.468 -0.4679 -0.6304 -0.6228
  121MOL0     C16239   5.836   4.012  10.366  0.7938 -0.0881  0.3815
  121MOL0     C16240   5.718   4.109  10.396 -0.7699 -0.6301  0.8143
  121MOL0     C16241   5.583   4.048  10.441 -0.5271  0.4581 -0.4206
  121MOL0     C16242   5.485   4.168  10.441 -0.0173  0.5205 -0.0184
  121MOL0     C16243   5.513   4.274  10.549  0.3083 -0.0761  0.3028
  121MOL0     C16244   5.403   4.381  10.547  0.6120  0.0511  0.3394
  121MOL0    Cl16245   5.242   4.314  10.573 -0.0651 -0.6547 -0.2534
  121MOL0     C16246   6.275   3.744  10.419 -0.8914 -0.0582 -0.1876
  121MOL0     C16247   6.382   3.673  10.359  0.4291 -0.8232  0.5176
  121MOL0     O16248   6.561   3.591  10.142 -0.4785  0.0491 -0.0479
  121MOL0     C16249   6.689   3.272  10.210 -0.4468 -0.0598  0.0351
  121MOL0     C16250   6.802   3.192  10.198  0.2992  0.2150  0.6107
  121MOL0     N16251   7.333   2.598  10.259 -0.7856 -0.2476 -0.5376
  121MOL0     N16252   7.389   2.487  10.276  0.6670  0.3907  0.2546
  121MOL0     C16253   8.120   2.443  11.015 -0.2401  1.5979 -0.1982
  121MOL0     C16254   8.249   2.483  11.056 -0.3567  0.2787 -0.5086
  121MOL0     C16255   8.688   2.629  11.005 -0.3495 -0.1495 -0.7526
  121MOL0     C16256   8.742   2.754  11.033 -0.2409 -0.0383 -0.7971
  121MOL0     C16257   8.874   2.770  11.074  0.1103 -0.4046  0.9002
  121MOL0     C16258   8.961   2.665  11.080 -0.3228 -0.0607 -0.1892
  121MOL0     O16259   9.091   2.697  11.110  0.3761  0.0180  0.1309
  121MOL0     C16260   9.192   2.591  11.124  1.3211 -0.1237  0.4710
  121MOL0     C16261   9.266   2.560  10.994 -0.0221  0.0179  0.1462
  121MOL0     C16262   9.382   2.455  11.006  0.4154  0.6121  0.2322
  121MOL0     C16263   9.326   2.309  11.031  0.2079 -0.4708 -0.6179
  121MOL0     C16264   9.249   2.266  10.915 -0.4918  0.3381 -0.3638
  121MOL0     C16265   9.187   2.226  10.813 -0.7962  0.0007 -0.2710
  121MOL0     C16266   8.913   2.537  11.050  0.0027 -0.6316  0.0659
  121MOL0     C16267   8.780   2.519  11.011 -0.7389 -0.1882 -0.3568
  121MOL0     H16268   8.424   2.390  10.780  1.6026 -0.7982  0.8465
  121MOL0     H16269   8.175   2.370  10.697 -1.2721  2.2843  0.2128
  121MOL0     H16270   7.859   2.514  10.892 -0.3392  2.0487 -1.2123
  121MOL0     H16271   7.904   2.514  10.730 -2.5215  0.1077  0.6379
  121MOL0     H16272   7.759   2.279  10.841  3.4757 -0.7545  0.3712
  121MOL0     H16273   7.660   2.418  10.775  1.0382  1.6819 -3.5125
  121MOL0     H16274   7.857   2.262  10.611  0.6133 -0.4101 -1.4658
  121MOL0     H16275   7.687   2.233  10.603  0.9814 -0.6530 -0.7102
  121MOL0     H16276   7.635   2.472  10.524 -0.8282 -1.7923  1.3897
  121MOL0     H16277   7.810   2.508  10.521 -0.8735  0.4915  2.1462
  121MOL0     H16278   7.866   2.316  10.380  0.7207  1.5604 -0.0761
  121MOL0     H16279   7.695   2.269  10.368 -2.5843  2.3939  1.1637
  121MOL0     H16280   7.676   2.536  10.293 -1.3652  0.9896 -1.9318
  121MOL0     H16281   7.837   2.503  10.241 -0.6131  0.3831 -2.1950
  121MOL0     H16282   7.716   2.438  10.066 -1.9894  1.6379  0.3629
  121MOL0     H16283   7.760   2.289  10.142 -0.4464 -0.9055  3.2716
  121MOL0     H16284   7.534   2.259  10.239  3.1889  1.6084  2.2808
  121MOL0     H16285   7.511   2.260  10.061 -0.0945  2.3039 -2.2804
  121MOL0     H16286   7.463   2.570   9.965  0.2270  2.6464  0.6399
  121MOL0     H16287   7.401   2.851  10.071  1.0287 -0.1192  0.0017
  121MOL0     H16288   7.283   2.757   9.976  0.8861  2.1774 -0.7485
  121MOL0     H16289   7.266   2.890  10.256  1.3029  1.5118 -1.7993
  121MOL0     H16290   7.146   2.776  10.201 -0.0661  0.3207 -0.5669
  121MOL0     H16291   7.118   2.956   9.998 -1.2414  0.5105  1.5853
  121MOL0     H16292   7.225   3.052  10.089 -0.0188 -0.6254  0.0232
  121MOL0     H16293   7.071   3.032  10.289 -2.9666  0.6653  1.5254
  121MOL0     H16294   6.950   2.989  10.177 -0.4757 -0.9296  2.1939
  121MOL0     H16295   7.039   3.429  10.127 -1.0207  2.8679 -2.3139
  121MOL0     H16296   6.839   3.648  10.044 -2.4195 -1.0628 -0.2760
  121MOL0     H16297   6.793   3.690  10.203 -0.6369  1.8085 -2.9323
  121MOL0     H16298   6.964   3.652  10.178  0.9059  1.6170 -2.5512
  121MOL0     H16299   6.262   3.352  10.419 -0.5997 -0.5222 -0.1355
  121MOL0     H16300   6.073   3.485  10.509  2.2700 -1.8096  3.0553
  121MOL0     H16301   6.074   3.915  10.419  0.3029 -0.5403  0.6736
  121MOL0     H16302   5.988   3.796  10.312 -0.7124 -0.5553  0.6497
  121MOL0     H16303   5.790   3.836  10.478 -1.1709  0.3611  0.9479
  121MOL0     H16304   5.885   3.945  10.570  0.3694  0.3672 -1.0787
  121MOL0     H16305   5.823   3.952  10.275  0.6797  0.4056  0.0717
  121MOL0     H16306   5.911   4.091  10.372 -0.5740  1.1479  2.7318
  121MOL0     H16307   5.756   4.174  10.475  1.0616 -2.2764  1.3864
  121MOL0     H16308   5.705   4.173  10.309  3.7165 -0.9531 -0.3398
  121MOL0     H16309   5.594   4.009  10.543  4.9989  0.2820 -0.8181
  121MOL0     H16310   5.544   3.974  10.370 -2.2675  0.8874  0.0312
  121MOL0     H16311   5.488   4.219  10.345 -1.8901 -1.3426 -1.1666
  121MOL0     H16312   5.379   4.141  10.452 -0.1206  1.7620  3.6705
  121MOL0     H16313   5.609   4.326  10.540  1.4577 -2.2953 -1.3911
  121MOL0     H16314   5.510   4.230  10.648 -0.0579  0.9365  0.7550
  121MOL0     H16315   5.405   4.446  10.459 -1.8671 -0.7407 -0.3971
  121MOL0     H16316   5.434   4.447  10.628  0.1797 -1.0087  1.4042
  121MOL0     H16317   6.265   3.849  10.397  0.5737  0.3496  0.9884
  121MOL0     H16318   6.467   3.726  10.315  0.9399 -2.1126 -0.0977
  121MOL0     H16319   6.592   3.224  10.214 -0.8141  0.5116 -1.4718
  121MOL0     H16320   6.789   3.084  10.209 -0.4289  0.1607 -0.5690
  121MOL0     H16321   8.034   2.468  11.077 -1.1753  1.1043 -1.2568
  121MOL0     H16322   8.268   2.521  11.156 -1.9671  0.2698 -0.1737
  121MOL0     H16323   8.692   2.849  11.020 -0.6844  0.4480  3.2826
  121MOL0     H16324   8.919   2.868  11.065 -0.2769 -0.3554 -0.9592
  121MOL0     H16325   9.264   2.638  11.192 -1.7090  4.1383  1.1444
  121MOL0     H16326   9.158   2.495  11.164 -1.1116 -0.0523 -1.2032
  121MOL0     H16327   9.306   2.658  10.967 -0.2097  1.2870  3.9675
  121MOL0     H16328   9.191   2.532  10.919 -1.0919 -4.1174  2.4026
  121MOL0     H16329   9.447   2.482  11.089  1.7977 -0.8642 -0.3098
  121MOL0     H16330   9.447   2.450  10.917 -1.8484 -0.8005 -1.4334
  121MOL0     H16331   9.265   2.310  11.122  1.1041  4.4664  0.2087
  121MOL0     H16332   9.413   2.247  11.052  1.6503  2.3393  2.6204
  121MOL0     H16333   9.131   2.205  10.724 -0.0724 -0.5195 -0.6074
  121MOL0     H16334   8.977   2.451  11.060  0.8578 -0.0741 -0.5332
  121MOL0     H16335   8.739   2.419  11.006 -0.3147 -0.3604 -0.3871
  122MOL0     O16336   4.585  10.679   2.652  0.0352 -0.1189 -0.2759
  122MOL0     C16337   4.598  10.605   2.562  0.7993  0.1082  1.0922
  122MOL0     O16338   4.497  10.554   2.471  0.1671  0.4081 -0.7458
  122MOL0     C16339   4.374  10.595   2.500  1.2817 -1.4535 -0.2838
  122MOL0     C16340   4.315  10.584   2.631 -0.2745 -0.6765 -0.2027
  122MOL0     C16341   4.188  10.621   2.661 -0.6646 -0.3737  1.0527
  122MOL0     C16342   4.110  10.678   2.560  0.4730  0.5691  0.2080
  122MOL0     O16343   3.974  10.702   2.573  0.8423  0.2946  0.2169
  122MOL0     C16344   3.886  10.596   2.618  0.1807 -0.7538 -0.1777
  122MOL0     C16345   3.738  10.638   2.618  0.3030 -1.1908  0.0934
  122MOL0     C16346   3.689  10.713   2.491  0.0716 -0.6033  0.7465
  122MOL0     C16347   3.541  10.755   2.493  0.2536 -0.1958 -0.2120
  122MOL0     C16348   3.447  10.638   2.492  0.7116  0.6862 -0.3489
  122MOL0     C16349   3.325  10.652   2.400  0.2041 -0.0106 -0.3876
  122MOL0     C16350   3.252  10.786   2.450  0.6591 -0.6040  1.2577
  122MOL0     C16351   3.114  10.796   2.391  0.0717  0.0861 -0.6113
  122MOL0     N16352   3.106  10.772   2.249  0.2839 -0.3013  0.5510
  122MOL0     C16353   3.018  10.676   2.187  0.9004 -0.9307  0.0691
  122MOL0     C16354   3.012  10.718   2.059 -0.2144 -0.7390 -0.4249
  122MOL0     C16355   2.935  10.670   1.944  0.9174 -0.0343 -0.6329
  122MOL0     C16356   2.797  10.725   1.946 -0.5043  0.5363 -0.4143
  122MOL0     C16357   2.713  10.675   1.834 -0.0201 -0.2257  0.1516
  122MOL0     C16358   2.558  10.697   1.862  0.1627 -0.2286  0.3777
  122MOL0     O16359   2.476  10.655   1.745 -0.0111 -0.5796 -0.1535
  122MOL0     C16360   2.392  10.545   1.764  0.5504  0.2479  0.4881
  122MOL0     C16361   2.276  10.547   1.685 -0.6802  0.1945  1.0001
  122MOL0     C16362   2.182  10.445   1.702 -0.7040  0.0162  0.2775
  122MOL0     C16363   2.048  10.465   1.644  0.3018 -0.2684 -0.6311
  122MOL0     C16364   2.219  10.322   1.767  0.0426 -0.1981  0.3437
  122MOL0     C16365   2.136  10.189   1.779 -0.0469 -0.2036 -0.4348
  122MOL0     O16366   2.169  10.101   1.881 -0.1257  0.5998  0.1090
  122MOL0     C16367   2.113   9.972   1.887  0.6782 -0.1558  0.2118
  122MOL0     C16368   2.100   9.893   1.779 -0.6130  1.7581  0.5597
  122MOL0     C16369   2.043   9.761   1.793  0.0321  0.2576  0.0741
  122MOL0     C16370   1.992   9.721   1.912  0.5218  0.1285 -0.2635
  122MOL0     O16371   1.943   9.595   1.918 -0.0346  0.2767  0.4437
  122MOL0     C16372   1.862   9.561   2.027  0.4194  0.1158 -0.5829
  122MOL0     C16373   1.721   9.618   2.011 -0.1265 -0.0138 -0.1661
  122MOL0     C16374   1.619   9.563   2.110  0.2642 -0.1846 -0.7971
  122MOL0     C16375   1.608   9.412   2.130 -0.3148 -0.2397  0.0694
  122MOL0     C16376   1.474   9.361   2.186 -0.2172  0.5584  0.4675
  122MOL0     C16377   1.461   9.206   2.210 -0.6882 -0.6343  0.7954
  122MOL0     C16378   1.318   9.177   2.267 -1.0763 -0.2737 -0.0971
  122MOL0     C16379   1.284   9.027   2.280  0.1780  0.2144 -0.1319
  122MOL0    Cl16380   1.389   8.939   2.387  0.0254 -0.2299  0.2152
  122MOL0     C16381   2.006   9.810   2.023 -0.0918 -1.2851 -0.1995
  122MOL0     C16382   2.069   9.930   2.016 -0.5371 -0.4163  1.2725
  122MOL0     O16383   2.056  10.171   1.693 -0.1087 -0.0326 -0.0221
  122MOL0     C16384   2.333  10.327   1.849  0.1924 -0.0513  0.2976
  122MOL0     C16385   2.426  10.428   1.842  0.0263  0.3638  1.3998
  122MOL0     N16386   3.112  10.810   2.044 -0.2547  0.2507  0.5477
  122MOL0     N16387   3.170  10.846   2.156 -0.5472  0.2945 -0.0526
  122MOL0     C16388   4.165  10.698   2.435  0.1219 -0.8123 -0.6999
  122MOL0     C16389   4.300  10.662   2.407  0.1722  0.1087 -0.1178
  122MOL0     C16390   4.747  10.570   2.534  0.6653 -0.6026  0.4625
  122MOL0     C16391   4.847  10.645   2.594  0.2307 -1.3642 -0.0556
  122MOL0     C16392   4.982  10.619   2.568  0.4483 -0.0495  0.3578
  122MOL0     C16393   5.024  10.512   2.498  0.5349  0.6324  0.5202
  122MOL0     O16394   5.156  10.485   2.491 -1.0294 -0.1621  0.1196
  122MOL0     C16395   5.246  10.577   2.430  0.4504  0.5777 -0.2740
  122MOL0     C16396   5.324  10.668   2.533 -0.2946 -0.4512 -0.4171
  122MOL0     C16397   5.374  10.585   2.659  0.1918  0.0282  0.2714
  122MOL0     C16398   5.467  10.673   2.748 -0.7532 -0.0227 -0.3818
  122MOL0     C16399   5.537  10.596   2.850  0.3762  0.2105  0.2233
  122MOL0     C16400   5.591  10.520   2.924 -0.3777 -0.7406 -0.5153
  122MOL0     C16401   4.927  10.433   2.431  0.2144  0.4098  0.1494
  122MOL0     C16402   4.790  10.460   2.449 -0.5996 -0.5851  1.1515
  122MOL0     H16403   4.369  10.551   2.720  1.3098  0.9112 -0.5103
  122MOL0     H16404   4.148  10.618   2.761 -3.5655  1.5964  0.1029
  122MOL0     H16405   3.900  10.504   2.561  0.1016 -0.7183 -0.2552
  122MOL0     H16406   3.905  10.568   2.722 -2.2038  2.3546  1.2838
  122MOL0     H16407   3.682  10.544   2.628  1.7607 -2.0481  0.4862
  122MOL0     H16408   3.714  10.706   2.700  0.9465 -1.4019  0.4582
  122MOL0     H16409   3.740  10.810   2.483 -1.6207  0.6395  3.5051
  122MOL0     H16410   3.707  10.653   2.402 -1.3238 -0.1542  0.1309
  122MOL0     H16411   3.521  10.824   2.576 -0.2356  1.7232 -1.8547
  122MOL0     H16412   3.535  10.805   2.396  1.4589 -1.2315 -0.8460
  122MOL0     H16413   3.492  10.546   2.453  2.3074  0.7871  1.1104
  122MOL0     H16414   3.415  10.609   2.592  0.5395  1.0497 -0.2973
  122MOL0     H16415   3.363  10.676   2.300  1.7569  0.2395  0.2315
  122MOL0     H16416   3.257  10.567   2.387 -0.2618  0.5227 -1.5804
  122MOL0     H16417   3.243  10.789   2.559  0.9614  3.4577  1.3233
  122MOL0     H16418   3.309  10.875   2.422  1.1294 -1.0337  0.8082
  122MOL0     H16419   3.074  10.892   2.423 -1.0987 -0.7121  0.4143
  122MOL0     H16420   3.064  10.722   2.454  1.8184  0.5423  1.4396
  122MOL0     H16421   2.960  10.593   2.223 -3.4051  0.6482 -2.5120
  122MOL0     H16422   2.978  10.697   1.847 -0.1129  0.0978 -1.0735
  122MOL0     H16423   2.936  10.564   1.971 -0.4625  0.3984  1.3556
  122MOL0     H16424   2.793  10.833   1.929 -2.0270  0.3028 -1.7664
  122MOL0     H16425   2.761  10.701   2.047 -1.6010 -0.6474 -1.0604
  122MOL0     H16426   2.729  10.569   1.810  1.3231  0.0329 -0.1987
  122MOL0     H16427   2.743  10.725   1.741 -0.3357  0.2186  0.2832
  122MOL0     H16428   2.527  10.797   1.892  0.7328 -0.9075  3.5156
  122MOL0     H16429   2.530  10.640   1.951  1.1310  3.4708  3.3027
  122MOL0     H16430   2.250  10.635   1.626  0.7729  1.9577  2.8689
  122MOL0     H16431   2.041  10.558   1.587 -3.8019 -0.4975 -0.7922
  122MOL0     H16432   2.013  10.377   1.590  2.9897 -1.7595 -0.1333
  122MOL0     H16433   1.975  10.495   1.720  0.3557  0.6464 -0.9287
  122MOL0     H16434   2.124   9.922   1.678  2.1964 -2.8056 -0.3784
  122MOL0     H16435   2.040   9.705   1.700 -1.8279  0.6072 -0.1226
  122MOL0     H16436   1.848   9.452   2.028  3.0288 -0.2885 -1.0296
  122MOL0     H16437   1.914   9.576   2.122 -0.8047 -0.4697  0.2134
  122MOL0     H16438   1.730   9.727   2.018  1.2539 -0.2350  2.3738
  122MOL0     H16439   1.678   9.588   1.914 -0.6648 -2.6899  0.8217
  122MOL0     H16440   1.519   9.601   2.089 -0.3322 -1.0111  0.4963
  122MOL0     H16441   1.638   9.612   2.206  0.4038 -3.0966  0.7770
  122MOL0     H16442   1.597   9.368   2.030 -1.7645 -3.5266  1.5289
  122MOL0     H16443   1.691   9.365   2.182 -0.5057 -2.4020 -1.4237
  122MOL0     H16444   1.396   9.399   2.121  0.4286  1.6684  0.3139
  122MOL0     H16445   1.465   9.413   2.282 -0.8220  1.1180  0.1142
  122MOL0     H16446   1.472   9.148   2.117 -1.5898  0.0693  0.2343
  122MOL0     H16447   1.542   9.169   2.274 -0.0142  0.5790  0.6751
  122MOL0     H16448   1.243   9.220   2.199  0.1130  1.4994 -0.3722
  122MOL0     H16449   1.319   9.232   2.361  1.8114  0.7948 -0.6420
  122MOL0     H16450   1.293   8.977   2.184  1.6161  3.1032 -1.6221
  122MOL0     H16451   1.180   9.025   2.316 -1.0521 -0.9470 -3.3833
  122MOL0     H16452   1.976   9.789   2.125 -3.5993 -2.6740 -1.3659
  122MOL0     H16453   2.079  10.006   2.093  3.4890  1.2526 -0.6091
  122MOL0     H16454   2.364  10.245   1.913 -0.5526 -1.0804 -0.6152
  122MOL0     H16455   2.521  10.430   1.894  1.4620  0.6477 -1.0990
  122MOL0     H16456   4.115  10.749   2.354  0.0268  0.1475 -0.0510
  122MOL0     H16457   4.351  10.686   2.314  0.2700 -1.3468 -0.4681
  122MOL0     H16458   4.826  10.721   2.669 -3.5019 -4.2733  2.1837
  122MOL0     H16459   5.059  10.677   2.617  1.1733 -1.0125  0.3767
  122MOL0     H16460   5.324  10.524   2.375 -1.4948 -1.6501 -1.0237
  122MOL0     H16461   5.183  10.639   2.366 -0.9020 -0.0247  0.4102
  122MOL0     H16462   5.270  10.750   2.580  0.3472 -0.3517  0.1739
  122MOL0     H16463   5.411  10.717   2.488 -0.4427  0.1283 -0.0889
  122MOL0     H16464   5.432  10.496   2.635  0.0304  0.1706 -0.6868
  122MOL0     H16465   5.286  10.562   2.719  0.7311  1.1952  1.5657
  122MOL0     H16466   5.401  10.753   2.782 -2.1001  1.2852 -5.3796
  122MOL0     H16467   5.545  10.728   2.695 -0.8143  1.4035  0.9512
  122MOL0     H16468   5.637  10.443   2.982 -1.2503 -2.2409 -1.7183
  122MOL0     H16469   4.947  10.358   2.355  0.5872 -1.8226  2.3284
  122MOL0     H16470   4.720  10.389   2.406  1.1991 -1.5170 -0.3357
  123MOL0     O16471   8.105   1.243   8.410  0.0136 -0.2770 -0.7146
  123MOL0     C16472   8.197   1.322   8.388 -0.5830  0.2314 -0.3700
  123MOL0     O16473   8.187   1.448   8.339  0.9455  0.0662  0.5788
  123MOL0     C16474   8.057   1.485   8.315 -0.1797  0.1545 -0.6007
  123MOL0     C16475   7.987   1.438   8.212 -0.7181  0.8569 -0.1542
  123MOL0     C16476   7.849   1.455   8.219  0.3347 -0.1456 -0.2117
  123MOL0     C16477   7.788   1.523   8.330  0.6306 -0.2447  0.8397
  123MOL0     O16478   7.652   1.524   8.346 -0.7624 -0.5497  0.5143
  123MOL0     C16479   7.619   1.430   8.444 -0.2070 -0.3926 -0.2942
  123MOL0     C16480   7.581   1.301   8.362 -0.0433 -0.6316 -0.9905
  123MOL0     C16481   7.470   1.335   8.264 -0.7973  0.1013  0.2110
  123MOL0     C16482   7.344   1.375   8.339 -0.1207  0.5651 -0.2626
  123MOL0     C16483   7.219   1.384   8.254  0.4986 -0.1505  0.6708
  123MOL0     C16484   7.104   1.463   8.322  0.2991  0.6271 -0.4769
  123MOL0     C16485   6.983   1.507   8.233  0.2452 -0.5540  0.3920
  123MOL0     C16486   6.896   1.378   8.199 -0.6890 -0.2087  0.4059
  123MOL0     N16487   6.767   1.406   8.148 -0.1859  0.1244 -0.4545
  123MOL0     C16488   6.655   1.405   8.234  0.0387 -0.3460 -0.3970
  123MOL0     C16489   6.553   1.442   8.153 -0.6742  0.4550 -0.4502
  123MOL0     C16490   6.405   1.477   8.174 -0.9839 -0.3339  0.0496
  123MOL0     C16491   6.316   1.342   8.192 -0.1132 -0.3900  0.8696
  123MOL0     C16492   6.173   1.393   8.190  0.5209  0.4045  0.8142
  123MOL0     C16493   6.072   1.287   8.165  0.2169 -0.3914 -0.0990
  123MOL0     O16494   5.990   1.280   8.279  0.6107  0.2578  0.6674
  123MOL0     C16495   5.863   1.343   8.279 -0.2041 -0.3075  1.4690
  123MOL0     C16496   5.792   1.391   8.161  0.0349  0.8115  0.1500
  123MOL0     C16497   5.675   1.461   8.165  0.2174  0.3491  0.4835
  123MOL0     C16498   5.616   1.508   8.031 -0.0987 -0.8084 -0.4975
  123MOL0     C16499   5.601   1.465   8.285  0.9392 -0.5657 -0.4064
  123MOL0     C16500   5.465   1.533   8.309  0.2528 -0.1570 -0.6922
  123MOL0     O16501   5.420   1.522   8.446  0.4399  0.2093  0.6218
  123MOL0     C16502   5.323   1.603   8.488 -0.4774  0.6451 -0.1535
  123MOL0     C16503   5.196   1.561   8.467 -0.8350 -1.0686  0.6105
  123MOL0     C16504   5.095   1.650   8.500  0.1068 -0.3087  0.3509
  123MOL0     C16505   5.120   1.778   8.556  0.3263 -0.0144 -0.4464
  123MOL0     O16506   5.003   1.851   8.555 -0.2709 -0.4485 -0.3061
  123MOL0     C16507   4.997   1.966   8.636 -0.6972 -0.1368  0.2622
  123MOL0     C16508   4.970   1.919   8.775 -0.2032 -0.6404 -0.7874
  123MOL0     C16509   4.829   1.851   8.797 -0.5239  0.2854 -0.7920
  123MOL0     C16510   4.703   1.929   8.782  0.7052 -0.6090  0.4531
  123MOL0     C16511   4.585   1.834   8.832 -0.1978 -0.4212  1.4147
  123MOL0     C16512   4.473   1.925   8.882 -0.0676 -0.3788  0.0595
  123MOL0     C16513   4.423   2.044   8.789  0.0301 -0.9801  0.0195
  123MOL0     C16514   4.298   2.093   8.857 -0.1615  0.7701 -0.1515
  123MOL0    Cl16515   4.232   2.242   8.787 -0.2193 -0.7346  0.5574
  123MOL0     C16516   5.257   1.817   8.585 -0.0530 -0.1511  0.2513
  123MOL0     C16517   5.354   1.725   8.553 -0.1255 -0.2620 -0.8761
  123MOL0     O16518   5.399   1.595   8.221 -0.0112  0.8084  0.0189
  123MOL0     C16519   5.661   1.398   8.395 -0.6727 -0.3885 -0.3371
  123MOL0     C16520   5.794   1.346   8.393 -0.4901 -0.1605 -0.5859
  123MOL0     N16521   6.608   1.466   8.027  0.0456 -0.2799  0.7605
  123MOL0     N16522   6.734   1.453   8.028 -0.8871  0.2166 -0.4670
  123MOL0     C16523   7.865   1.582   8.423  0.2747 -0.1675  0.1438
  123MOL0     C16524   8.002   1.564   8.413  0.5544  0.1812  0.1675
  123MOL0     C16525   8.328   1.269   8.421 -0.6449  0.7654 -0.0568
  123MOL0     C16526   8.346   1.137   8.472 -0.3547  0.1283 -0.7522
  123MOL0     C16527   8.476   1.084   8.496  0.1964  0.9310  0.8452
  123MOL0     C16528   8.589   1.153   8.481  0.3942  1.1575 -0.5943
  123MOL0     O16529   8.717   1.106   8.494  0.3598 -0.4889 -0.1386
  123MOL0     C16530   8.745   0.991   8.576 -0.2197 -0.1645  0.3389
  123MOL0     C16531   8.894   0.964   8.596 -0.8640 -0.2651 -0.7869
  123MOL0     C16532   8.951   1.019   8.734  0.2073 -0.6699 -0.1345
  123MOL0     C16533   9.060   1.125   8.719 -0.2391 -0.0340  0.4876
  123MOL0     C16534   8.998   1.242   8.663 -0.0867  0.3291  0.3145
  123MOL0     C16535   8.932   1.331   8.616  0.4527  1.1069 -0.1258
  123MOL0     C16536   8.581   1.282   8.431 -0.1650  0.7919 -0.9795
  123MOL0     C16537   8.452   1.342   8.404  0.2827 -0.2849 -0.0733
  123MOL0     H16538   8.029   1.381   8.129 -1.0826 -0.0570  0.2747
  123MOL0     H16539   7.789   1.403   8.146 -2.0392  0.4804  1.1972
  123MOL0     H16540   7.704   1.409   8.510 -1.6092  1.4851  2.3310
  123MOL0     H16541   7.548   1.465   8.520 -0.7875  0.6190 -1.2730
  123MOL0     H16542   7.656   1.265   8.291  0.8933 -0.0289 -0.3337
  123MOL0     H16543   7.556   1.216   8.427 -2.5325  2.0843  1.9767
  123MOL0     H16544   7.503   1.412   8.194  2.3836 -1.6411 -0.3956
  123MOL0     H16545   7.448   1.246   8.204  1.5032  0.5830 -1.4649
  123MOL0     H16546   7.327   1.315   8.429  0.5739 -0.4862 -0.8185
  123MOL0     H16547   7.371   1.477   8.368  2.2909  0.9462 -3.2931
  123MOL0     H16548   7.250   1.425   8.158  0.6920  1.0613  1.2211
  123MOL0     H16549   7.178   1.284   8.241  0.8971 -0.6147  2.5886
  123MOL0     H16550   7.065   1.411   8.410 -3.8567  1.4476 -1.6293
  123MOL0     H16551   7.151   1.549   8.370 -3.0824  2.3663  0.0118
  123MOL0     H16552   6.922   1.586   8.279 -0.1696 -1.1556  0.9000
  123MOL0     H16553   7.019   1.552   8.140 -3.4648  1.8782 -0.0902
  123MOL0     H16554   6.879   1.315   8.287 -1.0011  0.7314  1.0347
  123MOL0     H16555   6.956   1.311   8.137 -0.5028 -2.0927  2.4965
  123MOL0     H16556   6.660   1.384   8.340 -3.0820 -1.1461 -0.3108
  123MOL0     H16557   6.391   1.530   8.268 -2.1822  0.6689 -0.6647
  123MOL0     H16558   6.376   1.547   8.095  0.6444 -1.4020 -1.5797
  123MOL0     H16559   6.356   1.286   8.276  0.4187  0.9906  1.5628
  123MOL0     H16560   6.329   1.286   8.099 -3.6655 -0.0298 -0.0227
  123MOL0     H16561   6.155   1.461   8.107 -0.9510 -0.5005  0.3526
  123MOL0     H16562   6.138   1.454   8.274 -3.0566  1.9113 -1.5277
  123MOL0     H16563   6.114   1.188   8.144 -0.7861 -0.2479 -3.3396
  123MOL0     H16564   6.017   1.309   8.073 -2.6548  0.9761  1.7755
  123MOL0     H16565   5.835   1.373   8.063  1.6215 -3.9590  1.4429
  123MOL0     H16566   5.704   1.531   7.971 -0.3192  1.2533 -0.1238
  123MOL0     H16567   5.552   1.432   7.986 -0.9648 -0.7438  0.5702
  123MOL0     H16568   5.562   1.597   8.065 -0.4705 -1.4877  0.7824
  123MOL0     H16569   5.188   1.464   8.420  0.1769 -0.9898  0.2467
  123MOL0     H16570   4.995   1.615   8.475  1.6677 -3.8496 -1.7279
  123MOL0     H16571   5.089   2.024   8.633 -1.9394  1.9136 -2.8105
  123MOL0     H16572   4.914   2.030   8.604 -1.2903  1.4103  4.2309
  123MOL0     H16573   5.054   1.857   8.807  0.5703 -0.1360 -1.8017
  123MOL0     H16574   4.969   2.001   8.847 -0.2379 -2.0055  0.8377
  123MOL0     H16575   4.838   1.812   8.899 -0.5609 -1.3346 -1.3740
  123MOL0     H16576   4.828   1.761   8.735 -1.1797 -0.6532  0.5134
  123MOL0     H16577   4.708   2.014   8.851  0.3168  0.6881 -1.0611
  123MOL0     H16578   4.671   1.974   8.687 -2.7267 -1.4802  1.0313
  123MOL0     H16579   4.628   1.763   8.902  2.1443  0.6610  1.1810
  123MOL0     H16580   4.541   1.778   8.749  1.3249 -0.6867  0.7553
  123MOL0     H16581   4.387   1.858   8.891  0.2427 -1.2154 -2.4690
  123MOL0     H16582   4.513   1.968   8.974 -1.0293 -0.1271  0.3629
  123MOL0     H16583   4.413   2.012   8.685 -0.1166  0.7476 -0.5240
  123MOL0     H16584   4.498   2.123   8.790 -0.1099 -0.8444 -0.0061
  123MOL0     H16585   4.309   2.107   8.965  1.7989 -0.8706 -0.0709
  123MOL0     H16586   4.219   2.018   8.852  0.4349  0.1035  0.1525
  123MOL0     H16587   5.273   1.914   8.630 -0.5070  0.7874 -1.4932
  123MOL0     H16588   5.455   1.756   8.581 -0.2026 -1.0087  0.2836
  123MOL0     H16589   5.618   1.401   8.495 -0.4328  1.1547 -0.2630
  123MOL0     H16590   5.839   1.302   8.482  3.1560  2.6337 -0.8582
  123MOL0     H16591   7.820   1.640   8.503  0.3100 -1.7306  1.3642
  123MOL0     H16592   8.058   1.613   8.492  1.0863  0.9335 -0.6527
  123MOL0     H16593   8.255   1.079   8.467  1.1544 -2.3256 -1.1639
  123MOL0     H16594   8.485   0.979   8.522 -0.0075  0.7197  0.0978
  123MOL0     H16595   8.696   1.005   8.673 -0.9576 -0.9495  0.0882
  123MOL0     H16596   8.720   0.896   8.528 -1.0838 -0.5688  1.5365
  123MOL0     H16597   8.952   1.003   8.513  1.3205  1.9562  1.6117
  123MOL0     H16598   8.914   0.856   8.600  3.3212  0.3681  0.6478
  123MOL0     H16599   8.997   0.939   8.793 -0.4686 -0.6813  0.3900
  123MOL0     H16600   8.867   1.055   8.794  1.4499 -0.5817  1.6237
  123MOL0     H16601   9.137   1.087   8.651 -0.9338 -2.5340  0.9874
  123MOL0     H16602   9.109   1.153   8.813  0.8278  2.2965 -0.6934
  123MOL0     H16603   8.872   1.400   8.560  1.2719  1.0379 -1.1221
  123MOL0     H16604   8.671   1.339   8.417  0.5236  0.1227  0.4453
  123MOL0     H16605   8.458   1.443   8.365  0.8817 -0.3323 -0.1063
  124MOL0     O16606   8.539   6.355   8.317  0.7831  0.1431  0.0450
  124MOL0     C16607   8.535   6.245   8.262  0.4807 -0.7155  0.1448
  124MOL0     O16608   8.458   6.139   8.300 -0.0209 -0.2291 -0.9662
  124MOL0     C16609   8.370   6.165   8.402  0.6953 -1.0375  0.4574
  124MOL0     C16610   8.239   6.171   8.358 -0.4619  0.3996  0.3003
  124MOL0     C16611   8.130   6.149   8.449 -0.8336  0.3194  0.4538
  124MOL0     C16612   8.166   6.152   8.585  1.0997 -0.1851  0.3294
  124MOL0     O16613   8.074   6.136   8.683 -0.8901 -0.3780 -0.2227
  124MOL0     C16614   7.928   6.145   8.653  0.1743  0.1536 -0.0759
  124MOL0     C16615   7.843   6.162   8.780 -0.1693  0.4794  0.2485
  124MOL0     C16616   7.696   6.195   8.764 -0.2947 -0.1228 -0.8596
  124MOL0     C16617   7.628   6.168   8.898 -0.6031 -0.3702 -0.4499
  124MOL0     C16618   7.481   6.174   8.880  1.0319 -0.5613  0.0892
  124MOL0     C16619   7.405   6.089   8.983 -0.7111  0.0874 -0.4477
  124MOL0     C16620   7.253   6.101   8.954  0.1993 -0.1112  0.7411
  124MOL0     C16621   7.179   6.022   9.050 -0.4507 -0.5345 -0.0704
  124MOL0     N16622   7.032   6.033   9.040  0.2065 -0.2599 -0.1588
  124MOL0     C16623   6.944   6.039   8.930  0.7848  0.3674 -0.1612
  124MOL0     C16624   6.813   6.031   8.970 -0.2044 -0.4992  0.0280
  124MOL0     C16625   6.689   6.015   8.880  0.1516 -0.4355 -0.0178
  124MOL0     C16626   6.555   5.962   8.937 -0.2724  0.1165 -0.2719
  124MOL0     C16627   6.442   5.949   8.830  0.3886 -0.5389 -0.9501
  124MOL0     C16628   6.309   5.904   8.903  0.6014 -0.4116 -0.1268
  124MOL0     O16629   6.269   5.971   9.029  0.3437  0.6919  0.5153
  124MOL0     C16630   6.166   5.909   9.084 -0.4905 -0.1846 -0.4905
  124MOL0     C16631   6.198   5.813   9.176 -0.4841 -0.2356  0.1236
  124MOL0     C16632   6.116   5.712   9.230  0.4720  0.4353 -0.6639
  124MOL0     C16633   6.174   5.617   9.327 -0.0713 -0.0400  0.3270
  124MOL0     C16634   5.981   5.714   9.192  1.0437 -0.0969 -0.6437
  124MOL0     C16635   5.872   5.626   9.248  0.7712 -0.7887 -1.2406
  124MOL0     O16636   5.779   5.574   9.162  0.3375 -0.0361 -0.0011
  124MOL0     C16637   5.692   5.485   9.203  0.1495  0.9288  0.1764
  124MOL0     C16638   5.722   5.364   9.271 -0.1148 -0.4597 -0.4568
  124MOL0     C16639   5.623   5.283   9.335  0.9074 -0.2559  0.2994
  124MOL0     C16640   5.492   5.345   9.347  0.9656 -0.3373 -0.1856
  124MOL0     O16641   5.397   5.298   9.437  0.1740 -0.3963 -0.9605
  124MOL0     C16642   5.432   5.170   9.506  0.5182  0.3522 -0.0120
  124MOL0     C16643   5.320   5.116   9.590 -0.6308 -0.2582  0.1790
  124MOL0     C16644   5.226   5.034   9.495  0.4387 -0.1828 -0.3674
  124MOL0     C16645   5.084   5.022   9.568 -0.6521 -0.4677 -0.3187
  124MOL0     C16646   4.993   4.931   9.485  0.3534  0.4041  0.0174
  124MOL0     C16647   4.926   4.993   9.364 -0.4481  0.2642  1.0943
  124MOL0     C16648   4.888   4.887   9.258 -0.2629  0.1955  0.0076
  124MOL0     C16649   4.792   4.948   9.163  0.1672 -0.2018  0.0785
  124MOL0    Cl16650   4.718   4.814   9.070  0.0597 -0.4578 -0.2570
  124MOL0     C16651   5.459   5.453   9.280 -0.4103 -1.4268 -0.5462
  124MOL0     C16652   5.558   5.523   9.201  0.4050 -0.2645  0.4334
  124MOL0     O16653   5.870   5.607   9.371 -0.2211 -0.6290 -0.1423
  124MOL0     C16654   5.939   5.799   9.089  0.0595  0.3238 -0.3904
  124MOL0     C16655   6.036   5.895   9.034  0.2600  0.3850  0.4492
  124MOL0     N16656   6.817   6.041   9.107  0.2797 -0.4992  0.3763
  124MOL0     N16657   6.946   6.053   9.144  0.1216  0.1256  0.3011
  124MOL0     C16658   8.295   6.160   8.625 -0.6468 -0.2313  0.1434
  124MOL0     C16659   8.403   6.149   8.539  0.3956 -0.4630 -0.1892
  124MOL0     C16660   8.635   6.242   8.156 -0.1810 -0.4412  0.0639
  124MOL0     C16661   8.737   6.345   8.150  0.8265 -0.2622 -0.6071
  124MOL0     C16662   8.828   6.359   8.050 -1.0797  0.1664  0.5347
  124MOL0     C16663   8.828   6.254   7.945 -0.4291 -0.1592 -0.2871
  124MOL0     O16664   8.910   6.245   7.839 -0.9746  0.3765 -0.4237
  124MOL0     C16665   9.010   6.350   7.811  0.6818  0.8278 -0.1854
  124MOL0     C16666   9.124   6.308   7.891  0.6048 -0.0938 -0.4871
  124MOL0     C16667   9.246   6.394   7.851 -0.3623  0.2983  0.5981
  124MOL0     C16668   9.364   6.384   7.953  1.1364 -0.0292  0.5044
  124MOL0     C16669   9.480   6.464   7.913  0.8984  0.0344  0.0557
  124MOL0     C16670   9.575   6.530   7.878 -0.2377 -0.3904  0.2769
  124MOL0     C16671   8.725   6.156   7.950  0.1646  0.3295  0.3389
  124MOL0     C16672   8.627   6.155   8.048  0.2388  0.6135 -0.4469
  124MOL0     H16673   8.231   6.176   8.250 -0.2003 -0.1536  0.2507
  124MOL0     H16674   8.027   6.136   8.418 -1.4835  0.9958  2.2472
  124MOL0     H16675   7.904   6.225   8.583 -0.2807  1.4483  1.5007
  124MOL0     H16676   7.906   6.049   8.605  2.4597 -0.9464  0.8831
  124MOL0     H16677   7.834   6.061   8.820 -0.6995 -2.2894 -5.6889
  124MOL0     H16678   7.888   6.238   8.844 -0.4811  1.8763 -1.1127
  124MOL0     H16679   7.687   6.296   8.724 -0.5679  0.2654  0.1453
  124MOL0     H16680   7.660   6.137   8.678  0.3828 -2.3482  0.2678
  124MOL0     H16681   7.657   6.071   8.939  4.2404 -0.2744 -2.8846
  124MOL0     H16682   7.649   6.235   8.982  2.3410  2.5955 -3.2369
  124MOL0     H16683   7.440   6.275   8.877  0.6045 -0.6629  1.4661
  124MOL0     H16684   7.466   6.125   8.784 -0.9704 -0.8254  0.5007
  124MOL0     H16685   7.438   5.985   8.983 -4.0665 -1.1015 -0.6235
  124MOL0     H16686   7.428   6.128   9.083 -2.8316  0.5338 -0.0765
  124MOL0     H16687   7.230   6.207   8.964 -0.4849 -0.0801 -0.8660
  124MOL0     H16688   7.234   6.074   8.849 -2.4742  3.2729  0.1902
  124MOL0     H16689   7.208   6.056   9.150  1.0532  2.4562 -1.3869
  124MOL0     H16690   7.215   5.919   9.041  2.4125  0.0501  2.7536
  124MOL0     H16691   6.969   6.027   8.825  0.0142 -0.4983 -0.2590
  124MOL0     H16692   6.670   6.109   8.828 -0.2534  1.2618  2.9617
  124MOL0     H16693   6.716   5.944   8.801 -1.6392 -0.3648 -0.7620
  124MOL0     H16694   6.512   6.014   9.023 -2.1718  0.8214 -1.5562
  124MOL0     H16695   6.559   5.858   8.971 -1.9843 -0.5308 -1.8182
  124MOL0     H16696   6.477   5.875   8.758 -1.3324 -2.3880  0.0218
  124MOL0     H16697   6.439   6.046   8.780  1.1857 -1.3967 -2.7322
  124MOL0     H16698   6.303   5.798   8.927  0.0668  0.5656  5.3837
  124MOL0     H16699   6.227   5.925   8.834  0.5730 -1.6275 -0.4781
  124MOL0     H16700   6.301   5.807   9.210 -0.0380 -0.1266 -1.1372
  124MOL0     H16701   6.120   5.522   9.321 -1.7419  0.7036  2.2281
  124MOL0     H16702   6.280   5.607   9.303 -0.2576  3.3296 -2.7128
  124MOL0     H16703   6.162   5.662   9.426 -1.0654 -1.6053  0.9579
  124MOL0     H16704   5.828   5.341   9.273  0.0206  0.1405 -0.6580
  124MOL0     H16705   5.653   5.188   9.379  0.7875 -0.5689 -0.2889
  124MOL0     H16706   5.478   5.088   9.451 -1.6043 -0.2031 -1.0260
  124MOL0     H16707   5.502   5.196   9.587 -0.1607  1.6922  0.1749
  124MOL0     H16708   5.346   5.043   9.668 -4.1376 -2.5117 -0.5496
  124MOL0     H16709   5.271   5.197   9.644 -1.5649  0.5908 -1.8566
  124MOL0     H16710   5.286   4.948   9.465  2.0787  0.7478  0.0663
  124MOL0     H16711   5.211   5.097   9.407  2.5251  2.1989  0.8217
  124MOL0     H16712   5.093   4.979   9.668  1.3576 -1.3504 -0.8346
  124MOL0     H16713   5.062   5.128   9.588  4.5479  0.5106  1.7169
  124MOL0     H16714   4.917   4.889   9.552  0.5557 -4.1192 -2.2467
  124MOL0     H16715   5.051   4.843   9.457 -1.8683 -1.7533  1.7761
  124MOL0     H16716   4.840   5.056   9.384  0.4978  2.3108 -0.9014
  124MOL0     H16717   5.007   5.050   9.318  0.0446 -0.6280  0.8282
  124MOL0     H16718   4.842   4.797   9.301  1.4955 -0.5764  0.3641
  124MOL0     H16719   4.977   4.855   9.204  1.0663  0.2381  2.0722
  124MOL0     H16720   4.844   5.010   9.089 -2.3037 -0.8353 -2.3631
  124MOL0     H16721   4.713   4.998   9.220  0.5895  0.8397 -0.2173
  124MOL0     H16722   5.355   5.482   9.284 -0.3063 -1.1660  0.6459
  124MOL0     H16723   5.528   5.611   9.145 -1.5265 -0.6508  0.7728
  124MOL0     H16724   5.833   5.811   9.072 -1.2562 -0.6567  5.0999
  124MOL0     H16725   6.000   5.969   8.963  0.4034  1.2792  1.2875
  124MOL0     H16726   8.317   6.152   8.731 -3.3997 -3.1458  0.6458
  124MOL0     H16727   8.508   6.133   8.563  0.4782 -3.4460 -2.0943
  124MOL0     H16728   8.748   6.408   8.237  0.5651  0.6256 -1.2040
  124MOL0     H16729   8.889   6.449   8.044 -1.0615  0.3387  2.5698
  124MOL0     H16730   9.030   6.347   7.703  1.1145  3.8193 -0.2960
  124MOL0     H16731   8.973   6.448   7.843  0.0560 -0.5133  3.7021
  124MOL0     H16732   9.151   6.205   7.865  1.5188  0.2423 -0.9080
  124MOL0     H16733   9.093   6.322   7.995 -0.8687 -1.4819 -0.7020
  124MOL0     H16734   9.217   6.497   7.830 -0.2297  1.1491  3.9271
  124MOL0     H16735   9.276   6.355   7.753 -2.1067 -2.8676  1.1973
  124MOL0     H16736   9.397   6.280   7.962 -0.5820 -0.7565 -0.8583
  124MOL0     H16737   9.326   6.416   8.051  0.0167 -0.7077  0.3194
  124MOL0     H16738   9.665   6.579   7.846  0.2917 -1.0143  0.7713
  124MOL0     H16739   8.717   6.087   7.866  3.2301 -1.4408  1.3211
  124MOL0     H16740   8.549   6.080   8.059 -1.2092  2.3752  2.0675
  125MOL0     O16741   4.458   2.953   0.252 -0.4780 -0.2601 -1.2976
  125MOL0     C16742   4.519   2.923   0.354 -1.3850 -0.2356  0.3690
  125MOL0     O16743   4.621   2.833   0.362  0.2975  0.7599  0.1175
  125MOL0     C16744   4.666   2.789   0.237  0.0308 -0.5451 -0.0294
  125MOL0     C16745   4.782   2.838   0.184 -0.2707 -0.6326  0.3030
  125MOL0     C16746   4.827   2.786   0.065 -0.1359 -0.0407  0.0466
  125MOL0     C16747   4.768   2.677   0.001  0.8243 -0.1340 -0.2439
  125MOL0     O16748   4.808   2.628  -0.117 -0.9185  0.1226  0.4596
  125MOL0     C16749   4.942   2.650  -0.160 -0.1916  0.2736  0.5853
  125MOL0     C16750   4.967   2.581  -0.290  0.1835 -1.0993 -0.6819
  125MOL0     C16751   4.946   2.427  -0.284 -0.5227 -0.7940 -0.7414
  125MOL0     C16752   4.818   2.364  -0.224 -0.5044 -0.4494 -0.5362
  125MOL0     C16753   4.804   2.215  -0.272 -0.5378 -0.2108 -0.0542
  125MOL0     C16754   4.667   2.173  -0.222 -0.3444 -0.0228 -0.0276
  125MOL0     C16755   4.638   2.027  -0.267 -0.0723  0.1359 -0.1984
  125MOL0     C16756   4.499   1.971  -0.238  0.2713  0.0020 -0.6016
  125MOL0     N16757   4.473   1.923  -0.098  0.1186 -0.6738  0.1354
  125MOL0     C16758   4.352   1.941  -0.031  0.0410  0.1421 -0.1831
  125MOL0     C16759   4.372   1.912   0.101 -1.0914 -0.7826 -0.2004
  125MOL0     C16760   4.279   1.908   0.212  0.4791 -0.7452 -0.6545
  125MOL0     C16761   4.193   2.029   0.223  0.1318 -0.1312 -0.2732
  125MOL0     C16762   4.132   2.056   0.364 -0.6739  0.3514 -0.7335
  125MOL0     C16763   4.065   2.194   0.376  0.1386  0.1371 -0.3866
  125MOL0     O16764   3.949   2.200   0.293  0.4135  0.5612 -0.0320
  125MOL0     C16765   3.870   2.313   0.282 -0.8071  0.4346 -0.1784
  125MOL0     C16766   3.815   2.375   0.395  0.1534  0.0313 -0.6575
  125MOL0     C16767   3.734   2.490   0.390  0.2391 -0.3585 -0.1484
  125MOL0     C16768   3.656   2.539   0.511 -0.1851 -0.0608  0.4779
  125MOL0     C16769   3.708   2.537   0.257 -0.1187 -0.3835  1.2733
  125MOL0     C16770   3.631   2.663   0.220 -0.5931 -0.1701  0.3363
  125MOL0     O16771   3.601   2.756   0.316  0.1820  0.3539  0.5189
  125MOL0     C16772   3.515   2.865   0.284  0.2321  1.3646 -0.3323
  125MOL0     C16773   3.414   2.879   0.375 -0.8509  0.8331 -0.1766
  125MOL0     C16774   3.333   2.997   0.376 -0.5889  0.2173  0.2273
  125MOL0     C16775   3.354   3.097   0.282 -0.3297  0.2113  0.2162
  125MOL0     O16776   3.264   3.200   0.273  0.2644 -0.0944 -0.5485
  125MOL0     C16777   3.320   3.325   0.249  0.0118  0.3782 -0.5035
  125MOL0     C16778   3.239   3.440   0.311  0.5892 -1.0091 -0.1749
  125MOL0     C16779   3.309   3.578   0.276  0.0130 -0.6537  0.1008
  125MOL0     C16780   3.211   3.689   0.286  0.1401 -0.5974  0.0489
  125MOL0     C16781   3.272   3.824   0.259  0.4488  0.1050  0.5369
  125MOL0     C16782   3.402   3.887   0.324 -0.3393  0.4058 -0.5224
  125MOL0     C16783   3.360   3.926   0.472 -0.5097 -0.3651 -0.9195
  125MOL0     C16784   3.487   3.943   0.558 -0.4242 -0.1615 -0.2243
  125MOL0    Cl16785   3.579   4.093   0.508 -0.2553  0.2972 -0.1989
  125MOL0     C16786   3.458   3.075   0.189  0.5204  1.0360  0.4688
  125MOL0     C16787   3.545   2.967   0.194 -0.9807 -0.0074  0.3152
  125MOL0     O16788   3.592   2.672   0.107 -0.1107 -0.1041  0.1782
  125MOL0     C16789   3.781   2.483   0.147 -0.0133 -0.0435  0.7800
  125MOL0     C16790   3.861   2.371   0.156 -0.8235  0.8049 -0.8473
  125MOL0     N16791   4.509   1.883   0.114  0.0174 -0.4710  0.1939
  125MOL0     N16792   4.567   1.896  -0.004 -0.1834  0.7375  0.2440
  125MOL0     C16793   4.649   2.631   0.058 -0.3042  0.1149  0.7140
  125MOL0     C16794   4.596   2.689   0.172  0.7047  0.2859  0.2732
  125MOL0     C16795   4.469   2.983   0.483  0.4760 -0.3594  0.7085
  125MOL0     C16796   4.540   2.959   0.601 -0.0167  0.4622 -1.1505
  125MOL0     C16797   4.484   2.990   0.732 -0.5731  0.2265 -0.4347
  125MOL0     C16798   4.358   3.045   0.738 -0.2215  0.3404 -0.6329
  125MOL0     O16799   4.301   3.064   0.863 -0.0063 -0.2587 -0.5577
  125MOL0     C16800   4.162   3.071   0.874  0.6781 -0.7332  0.0369
  125MOL0     C16801   4.130   3.046   1.023  0.7079  0.3769 -0.4259
  125MOL0     C16802   3.991   3.103   1.056 -0.6184  0.2236  0.0894
  125MOL0     C16803   3.985   3.247   1.112  0.4666  0.0623  0.5738
  125MOL0     C16804   3.942   3.353   1.016  0.1919  0.1060 -0.0826
  125MOL0     C16805   3.887   3.444   0.954 -0.2525  0.1035  0.0281
  125MOL0     C16806   4.285   3.072   0.622 -0.2295 -0.1451 -0.2788
  125MOL0     C16807   4.340   3.039   0.495  0.0139  0.0772 -0.6818
  125MOL0     H16808   4.834   2.911   0.245  0.3743  1.1947 -2.2314
  125MOL0     H16809   4.903   2.844   0.013  0.9901 -0.0471  1.6215
  125MOL0     H16810   4.954   2.758  -0.170  1.7821  0.6676  5.0279
  125MOL0     H16811   5.015   2.620  -0.085 -0.6511  1.4716  1.5394
  125MOL0     H16812   4.899   2.628  -0.363  0.4205 -1.0806 -0.8906
  125MOL0     H16813   5.073   2.599  -0.308  0.9482 -2.7031  1.8284
  125MOL0     H16814   4.978   2.388  -0.381  3.6794 -2.0078  0.9018
  125MOL0     H16815   5.036   2.399  -0.228  0.0537  0.2810 -1.1004
  125MOL0     H16816   4.832   2.368  -0.116 -0.1613  1.2044 -0.6100
  125MOL0     H16817   4.737   2.424  -0.267 -0.5804  1.4324  1.9863
  125MOL0     H16818   4.829   2.214  -0.379  0.5153  2.0729  0.1112
  125MOL0     H16819   4.882   2.161  -0.217 -1.3467  0.2074  1.5652
  125MOL0     H16820   4.669   2.167  -0.113  0.2687  1.5302  0.0693
  125MOL0     H16821   4.595   2.248  -0.257  0.0086 -0.3353 -1.4869
  125MOL0     H16822   4.648   2.028  -0.376  1.1600 -0.9072 -0.1308
  125MOL0     H16823   4.720   1.962  -0.237 -0.3313  1.0642  2.8052
  125MOL0     H16824   4.469   1.891  -0.306  1.1440 -0.8755  0.0270
  125MOL0     H16825   4.425   2.051  -0.244  1.1803  0.8998 -0.1263
  125MOL0     H16826   4.260   1.966  -0.084  0.2691  2.2754  0.3364
  125MOL0     H16827   4.205   1.828   0.201 -4.4964  3.2001  0.2971
  125MOL0     H16828   4.332   1.898   0.307 -2.0470  3.3813  1.4882
  125MOL0     H16829   4.112   2.034   0.150 -1.7725  0.1176  1.7461
  125MOL0     H16830   4.253   2.120   0.213 -0.6266  0.6089  1.5340
  125MOL0     H16831   4.207   2.043   0.442 -2.2253  1.4653  1.0491
  125MOL0     H16832   4.054   1.980   0.377  0.4037 -1.1473 -2.5495
  125MOL0     H16833   4.134   2.277   0.359 -0.5692  1.0428  1.0440
  125MOL0     H16834   4.022   2.209   0.475  0.5886  1.5207 -0.3852
  125MOL0     H16835   3.814   2.324   0.491 -0.1371 -2.0344 -1.7072
  125MOL0     H16836   3.690   2.639   0.539 -1.1077  0.7555 -1.1361
  125MOL0     H16837   3.548   2.548   0.495 -0.5400  0.8076  2.9710
  125MOL0     H16838   3.681   2.475   0.596  0.0209  1.7162  1.8106
  125MOL0     H16839   3.413   2.808   0.457 -1.5398 -1.8150 -2.3081
  125MOL0     H16840   3.258   3.017   0.452 -0.1833 -0.2564  0.7640
  125MOL0     H16841   3.423   3.343   0.280  0.6421 -4.1167  0.7585
  125MOL0     H16842   3.322   3.322   0.140 -0.3186 -3.0748 -0.5156
  125MOL0     H16843   3.135   3.416   0.286 -0.4420  1.8922  0.9669
  125MOL0     H16844   3.245   3.431   0.420  0.4421 -1.2991 -0.1892
  125MOL0     H16845   3.351   3.573   0.176 -1.4230  0.6720 -0.6297
  125MOL0     H16846   3.396   3.600   0.338  0.8178  0.6899 -1.4356
  125MOL0     H16847   3.130   3.665   0.216 -0.7355  2.2061 -0.0283
  125MOL0     H16848   3.167   3.690   0.386 -1.3118 -3.4701 -0.4420
  125MOL0     H16849   3.194   3.901   0.263  0.1900 -0.1813  1.2361
  125MOL0     H16850   3.302   3.828   0.154 -1.1466  0.2726  0.0571
  125MOL0     H16851   3.493   3.826   0.316  1.1641  2.7353 -2.5967
  125MOL0     H16852   3.438   3.976   0.272 -1.3144  0.5383 -0.9923
  125MOL0     H16853   3.309   3.844   0.524 -0.3267  0.4849  0.6581
  125MOL0     H16854   3.289   4.008   0.464  0.4000  0.3187 -2.4631
  125MOL0     H16855   3.558   3.860   0.546 -0.6509 -0.2998 -0.6241
  125MOL0     H16856   3.456   3.951   0.663 -1.3304 -2.1751 -0.2924
  125MOL0     H16857   3.477   3.148   0.110  0.2458 -3.0266 -3.8361
  125MOL0     H16858   3.639   2.982   0.143 -0.8341  2.6373  1.2231
  125MOL0     H16859   3.778   2.523   0.046 -2.5474  1.6525  1.4183
  125MOL0     H16860   3.910   2.321   0.073  1.6813 -2.4519  2.2667
  125MOL0     H16861   4.594   2.547   0.015  1.5446  0.2170 -2.1367
  125MOL0     H16862   4.513   2.646   0.227  0.1873 -3.0294 -2.7126
  125MOL0     H16863   4.640   2.918   0.605  0.0893  0.7420 -0.9500
  125MOL0     H16864   4.548   2.973   0.817  0.2083  0.2853 -1.0035
  125MOL0     H16865   4.116   3.166   0.846 -3.3932 -1.8059  2.2799
  125MOL0     H16866   4.118   2.992   0.811  3.3138 -0.4974 -2.3172
  125MOL0     H16867   4.205   3.101   1.081  1.2985  1.6960 -2.3609
  125MOL0     H16868   4.132   2.941   1.052 -1.8903  1.1243  3.1956
  125MOL0     H16869   3.951   3.035   1.132  1.4313 -2.1724 -0.8689
  125MOL0     H16870   3.925   3.093   0.969 -0.3581  1.7374 -0.3142
  125MOL0     H16871   4.082   3.274   1.156  1.4575  0.5156 -1.7325
  125MOL0     H16872   3.909   3.244   1.191 -0.5573  2.0900 -0.2739
  125MOL0     H16873   3.854   3.518   0.884  1.2599 -0.6954 -1.5905
  125MOL0     H16874   4.185   3.112   0.625 -1.8443 -3.7748  1.8846
  125MOL0     H16875   4.276   3.057   0.410 -0.9366 -0.2124 -0.0415
  126MOL0     O16876   6.728   2.323   3.144 -0.9268  0.1792 -0.0495
  126MOL0     C16877   6.804   2.351   3.241  0.0976  0.3640  0.3195
  126MOL0     O16878   6.766   2.340   3.374  0.2230 -0.4862  0.3749
  126MOL0     C16879   6.654   2.275   3.418 -0.4033  0.1574 -0.1273
  126MOL0     C16880   6.578   2.334   3.514  0.9651  0.3771 -0.5385
  126MOL0     C16881   6.458   2.277   3.560  0.3841 -0.2065 -0.4367
  126MOL0     C16882   6.410   2.163   3.501  0.3140  0.7965  1.1643
  126MOL0     O16883   6.289   2.110   3.543  0.3999  0.3259  0.7681
  126MOL0     C16884   6.165   2.192   3.525  0.7372  0.0537  0.0372
  126MOL0     C16885   6.117   2.273   3.655 -0.1458 -0.0576  0.8437
  126MOL0     C16886   6.010   2.376   3.642 -0.7409 -0.1988  0.6487
  126MOL0     C16887   5.890   2.333   3.562  1.0504 -0.4857  1.0119
  126MOL0     C16888   5.895   2.361   3.406  0.0986  0.2113 -0.4813
  126MOL0     C16889   5.816   2.261   3.321  0.1931 -0.3900  0.8747
  126MOL0     C16890   5.662   2.257   3.345  0.2710  0.7641  0.6930
  126MOL0     C16891   5.585   2.388   3.298 -0.0910  0.7728 -0.1629
  126MOL0     N16892   5.445   2.386   3.336  0.0032 -0.4720  0.3291
  126MOL0     C16893   5.342   2.406   3.241 -0.1527 -0.8084 -0.1998
  126MOL0     C16894   5.228   2.403   3.311  0.1961  0.2143  0.1348
  126MOL0     C16895   5.080   2.423   3.261  0.3498 -0.0943  0.1873
  126MOL0     C16896   5.043   2.294   3.179  0.0183 -0.5851 -0.0054
  126MOL0     C16897   4.900   2.251   3.175 -0.0332 -0.0873 -0.1735
  126MOL0     C16898   4.865   2.169   3.300  0.9114 -0.6213  1.3122
  126MOL0     O16899   4.722   2.166   3.327 -0.3447 -0.0565  0.1204
  126MOL0     C16900   4.634   2.090   3.259  0.0729 -0.0192  1.2531
  126MOL0     C16901   4.669   1.982   3.176  0.6629  0.3963  0.5939
  126MOL0     C16902   4.579   1.905   3.103  0.5285  0.2506  1.2829
  126MOL0     C16903   4.616   1.775   3.038  0.4345 -0.3725 -0.0493
  126MOL0     C16904   4.442   1.949   3.109 -0.9059  0.5113 -0.3420
  126MOL0     C16905   4.325   1.881   3.045 -0.1508 -0.1008 -0.8842
  126MOL0     O16906   4.195   1.903   3.097 -0.1179  0.0687  0.0535
  126MOL0     C16907   4.088   1.835   3.045  0.0898  1.1361  0.7677
  126MOL0     C16908   4.045   1.851   2.909 -0.3208 -0.5730  0.3921
  126MOL0     C16909   3.913   1.802   2.870 -0.7568 -0.3479 -0.2712
  126MOL0     C16910   3.833   1.736   2.966  0.3483 -0.4164  0.7907
  126MOL0     O16911   3.713   1.681   2.930 -0.1676 -0.2027 -0.1676
  126MOL0     C16912   3.649   1.712   2.808  0.6379  0.6830  0.1712
  126MOL0     C16913   3.523   1.624   2.822 -0.2077 -0.0587  0.6398
  126MOL0     C16914   3.531   1.495   2.736 -0.0627 -0.2940 -0.8736
  126MOL0     C16915   3.392   1.436   2.752  0.2389 -0.1109  0.5417
  126MOL0     C16916   3.393   1.297   2.675  0.7094 -0.5975 -0.2410
  126MOL0     C16917   3.263   1.265   2.607  0.1268 -0.8804 -0.3578
  126MOL0     C16918   3.255   1.137   2.513 -0.0008  0.1140  0.0740
  126MOL0     C16919   3.261   1.010   2.593 -0.1081  0.2630  0.4107
  126MOL0    Cl16920   3.191   0.870   2.508  0.0879 -0.2181  0.4344
  126MOL0     C16921   3.878   1.708   3.093  0.1079  0.0598  0.2228
  126MOL0     C16922   4.009   1.762   3.135  0.2618  0.7532 -0.0360
  126MOL0     O16923   4.345   1.811   2.944 -0.9944 -0.5300  0.2443
  126MOL0     C16924   4.416   2.058   3.185  0.5084 -0.8972 -0.4804
  126MOL0     C16925   4.499   2.133   3.268 -0.6477 -0.7923  0.7690
  126MOL0     N16926   5.261   2.373   3.455  0.2987  0.8317 -0.6159
  126MOL0     N16927   5.394   2.377   3.460  0.4061 -0.6265 -0.4999
  126MOL0     C16928   6.496   2.102   3.401 -0.4000 -0.2104 -0.6132
  126MOL0     C16929   6.619   2.156   3.366  0.1863 -1.1293  0.7790
  126MOL0     C16930   6.938   2.383   3.210 -0.7368 -0.6438  0.7128
  126MOL0     C16931   7.044   2.371   3.302  0.4630  0.2283  0.8984
  126MOL0     C16932   7.176   2.379   3.254  0.6741 -0.7594 -0.5203
  126MOL0     C16933   7.198   2.425   3.124 -0.9995  0.6163  0.7272
  126MOL0     O16934   7.331   2.430   3.069  0.4286  0.3792 -0.5345
  126MOL0     C16935   7.371   2.530   2.983  0.0555  0.0809  0.1589
  126MOL0     C16936   7.517   2.569   3.021 -0.4217 -0.1091 -0.6047
  126MOL0     C16937   7.562   2.679   2.922  0.2353  0.5975 -0.0319
  126MOL0     C16938   7.706   2.711   2.957  0.3053 -0.5861  0.7279
  126MOL0     C16939   7.718   2.783   3.085 -0.5227 -0.3819 -0.1765
  126MOL0     C16940   7.725   2.851   3.189 -0.6875 -0.3775  0.7315
  126MOL0     C16941   7.095   2.463   3.042  0.6435  0.5424  0.0359
  126MOL0     C16942   6.971   2.437   3.085 -0.2616 -0.4358 -0.2955
  126MOL0     H16943   6.613   2.430   3.550 -0.3401  1.0570 -1.0325
  126MOL0     H16944   6.393   2.322   3.634  0.9011  0.8396 -0.6030
  126MOL0     H16945   6.183   2.273   3.455  2.0967 -2.4830 -2.7876
  126MOL0     H16946   6.084   2.127   3.490 -0.4204 -0.2739  3.0657
  126MOL0     H16947   6.063   2.199   3.716 -3.2283  1.4876  0.2139
  126MOL0     H16948   6.197   2.321   3.711  0.8055  0.0899 -0.6170
  126MOL0     H16949   5.978   2.410   3.741  1.6778  4.2438  0.1594
  126MOL0     H16950   6.071   2.457   3.602 -0.2066 -0.5998  0.6368
  126MOL0     H16951   5.872   2.225   3.564 -0.0548 -0.3733 -0.9258
  126MOL0     H16952   5.797   2.375   3.601  0.3034 -2.4181  1.4510
  126MOL0     H16953   5.848   2.458   3.385 -4.1857 -1.3635  0.8156
  126MOL0     H16954   5.996   2.371   3.367  0.0529  1.1124 -0.3899
  126MOL0     H16955   5.833   2.283   3.215  0.0956 -1.7694  0.5535
  126MOL0     H16956   5.866   2.165   3.336  1.8936  0.3393  0.1518
  126MOL0     H16957   5.611   2.183   3.282 -0.2532  1.9820 -0.3612
  126MOL0     H16958   5.637   2.229   3.448 -1.2564 -1.4052 -0.1950
  126MOL0     H16959   5.583   2.399   3.189  0.0300  3.6889  0.0553
  126MOL0     H16960   5.633   2.476   3.342  2.0437 -0.6094  0.4729
  126MOL0     H16961   5.345   2.441   3.139  2.4645 -0.2240  0.0076
  126MOL0     H16962   5.023   2.420   3.354  0.0177  1.2954  0.0527
  126MOL0     H16963   5.069   2.518   3.208  0.7333  0.7934  1.6479
  126MOL0     H16964   5.094   2.200   3.201  0.9471 -0.1609 -0.2938
  126MOL0     H16965   5.069   2.323   3.077  0.5203 -0.5721  0.1230
  126MOL0     H16966   4.885   2.190   3.086  0.1718  1.6200 -1.4319
  126MOL0     H16967   4.835   2.338   3.183 -0.8345 -0.7583  0.7900
  126MOL0     H16968   4.912   2.212   3.388  0.9902 -0.2340  1.0816
  126MOL0     H16969   4.913   2.072   3.282  0.7362 -0.0893 -3.5910
  126MOL0     H16970   4.772   1.947   3.172 -0.1177 -2.0170 -2.1171
  126MOL0     H16971   4.554   1.689   3.064 -2.5510  2.1326  1.8382
  126MOL0     H16972   4.604   1.807   2.934 -1.0757 -0.7970 -0.0155
  126MOL0     H16973   4.722   1.753   3.056  0.6091  2.0732  2.5084
  126MOL0     H16974   4.111   1.910   2.846 -0.1858  0.6392  1.6075
  126MOL0     H16975   3.874   1.809   2.769 -0.8583 -0.6602 -0.2542
  126MOL0     H16976   3.633   1.819   2.796 -1.2894  0.4522  0.3466
  126MOL0     H16977   3.709   1.675   2.724  0.3701 -2.5471  1.2575
  126MOL0     H16978   3.514   1.588   2.925 -0.9590 -0.1229  0.5598
  126MOL0     H16979   3.433   1.681   2.796  0.2599  0.5416  0.2987
  126MOL0     H16980   3.607   1.431   2.780 -0.9545 -1.6702 -1.2828
  126MOL0     H16981   3.546   1.510   2.629 -3.2802 -1.3452 -1.5818
  126MOL0     H16982   3.364   1.429   2.857 -0.7875 -0.0027  0.2883
  126MOL0     H16983   3.312   1.501   2.717 -0.3209 -0.1443  1.7266
  126MOL0     H16984   3.433   1.217   2.738  0.7786 -0.5506 -0.2255
  126MOL0     H16985   3.459   1.304   2.588  0.3653 -0.4285 -0.4892
  126MOL0     H16986   3.188   1.245   2.685  2.3504 -1.0675  1.8483
  126MOL0     H16987   3.223   1.357   2.564 -0.9891  0.0051  2.3504
  126MOL0     H16988   3.345   1.125   2.452  1.8214  0.9213  2.4595
  126MOL0     H16989   3.157   1.144   2.463 -3.2549  2.1028  5.7466
  126MOL0     H16990   3.212   1.018   2.691  0.5768 -0.7043  0.8429
  126MOL0     H16991   3.366   0.982   2.604 -0.5413 -1.6272  0.0986
  126MOL0     H16992   3.813   1.636   3.141  1.0601 -0.2131  1.1527
  126MOL0     H16993   4.048   1.750   3.236 -0.5619 -2.3170  0.0083
  126MOL0     H16994   4.313   2.092   3.179  0.7195 -0.3222 -0.9727
  126MOL0     H16995   4.471   2.223   3.323  0.8982  0.7344 -0.7798
  126MOL0     H16996   6.462   2.008   3.360  2.6310 -1.0399 -1.4498
  126MOL0     H16997   6.681   2.116   3.287  0.0783 -0.2732  0.2464
  126MOL0     H16998   7.034   2.347   3.407  2.6951  2.4672  1.7451
  126MOL0     H16999   7.258   2.347   3.318  0.8469 -2.9598 -1.7213
  126MOL0     H17000   7.357   2.508   2.877  4.0026  1.7511 -0.8929
  126MOL0     H17001   7.308   2.617   3.001  1.2097  0.6831  1.4238
  126MOL0     H17002   7.583   2.481   3.019  1.3400  1.1044  0.5746
  126MOL0     H17003   7.516   2.603   3.125  1.6331 -3.3650  0.6278
  126MOL0     H17004   7.495   2.764   2.934  0.6448  0.7960  0.9334
  126MOL0     H17005   7.552   2.638   2.821  1.1869 -1.3370  0.6086
  126MOL0     H17006   7.755   2.769   2.878  3.6593  1.7050  4.1541
  126MOL0     H17007   7.775   2.627   2.966  1.3300  0.3926  2.9587
  126MOL0     H17008   7.736   2.892   3.287  1.7258 -0.7241  0.6550
  126MOL0     H17009   7.103   2.503   2.942  0.7029 -0.0877 -0.2206
  126MOL0     H17010   6.889   2.455   3.015  1.1320 -0.7074 -2.0789
  127MOL0     O17011   9.779  10.660   7.213  0.1311 -0.5520 -0.1088
  127MOL0     C17012   9.864  10.575   7.236 -1.1136 -0.5602 -0.1316
  127MOL0     O17013   9.845  10.441   7.227 -0.2549  0.0680 -0.2281
  127MOL0     C17014   9.717  10.388   7.238 -0.0132  0.2823  0.2426
  127MOL0     C17015   9.704  10.257   7.168 -0.5027 -0.4254 -0.8164
  127MOL0     C17016   9.575  10.201   7.174 -0.0546  0.2625 -0.3225
  127MOL0     C17017   9.468  10.242   7.246  0.0058 -1.1420 -0.3711
  127MOL0     O17018   9.358  10.170   7.247  0.0850  0.3990  0.6258
  127MOL0     C17019   9.231  10.230   7.241 -0.1962  0.6459  0.3275
  127MOL0     C17020   9.138  10.117   7.233 -0.2324  1.0199 -0.4033
  127MOL0     C17021   8.993  10.172   7.249 -0.8595 -0.4218  0.5718
  127MOL0     C17022   8.880  10.066   7.245 -0.2194 -0.3408 -0.0365
  127MOL0     C17023   8.859  10.008   7.105 -0.7905  0.3941 -0.7686
  127MOL0     C17024   8.817  10.112   6.999 -0.9188  0.2238  0.6515
  127MOL0     C17025   8.667  10.099   6.973  0.1936  0.7814 -0.1410
  127MOL0     C17026   8.615  10.226   6.899 -0.3711 -0.5003 -0.2087
  127MOL0     N17027   8.471  10.231   6.874 -0.3752  0.4555  0.3878
  127MOL0     C17028   8.383  10.300   6.959  1.1820 -0.1014 -0.4760
  127MOL0     C17029   8.260  10.275   6.899  0.2127 -0.4004  0.2929
  127MOL0     C17030   8.128  10.319   6.960  0.1329 -0.8202 -0.3907
  127MOL0     C17031   8.033  10.375   6.859  0.4325  0.7740 -0.1320
  127MOL0     C17032   7.910  10.425   6.929 -0.7875  0.6566 -0.3942
  127MOL0     C17033   7.817  10.497   6.828 -0.2061 -0.2541 -0.7012
  127MOL0     O17034   7.770  10.408   6.731 -0.4934  0.5896  0.3954
  127MOL0     C17035   7.639  10.425   6.682  0.2186  1.5348 -0.4178
  127MOL0     C17036   7.578  10.314   6.620  0.8832 -0.2050 -0.5776
  127MOL0     C17037   7.460  10.322   6.542 -0.1160 -0.1363 -0.6444
  127MOL0     C17038   7.411  10.204   6.462  0.2178 -0.3824  0.1427
  127MOL0     C17039   7.397  10.450   6.537  0.3703 -0.5282 -0.4966
  127MOL0     C17040   7.280  10.478   6.462  1.2062  0.1589  0.3255
  127MOL0     O17041   7.210  10.590   6.489  0.3333 -0.5844  0.4136
  127MOL0     C17042   7.078  10.604   6.460  0.6328 -0.2153  0.0697
  127MOL0     C17043   7.037  10.737   6.440  0.3461  0.8691 -0.8550
  127MOL0     C17044   6.903  10.769   6.411  0.0437  0.3419  0.0614
  127MOL0     C17045   6.806  10.673   6.410 -0.4658  0.4895  0.0794
  127MOL0     O17046   6.675  10.681   6.362  0.4901 -0.3857  0.1918
  127MOL0     C17047   6.637  10.806   6.307  0.0200 -0.8632 -1.0008
  127MOL0     C17048   6.486  10.814   6.266 -0.3597 -0.8140  0.4146
  127MOL0     C17049   6.440  10.957   6.225 -0.0897  0.4511 -0.5252
  127MOL0     C17050   6.292  10.990   6.232  0.3207 -0.0685  0.3860
  127MOL0     C17051   6.252  11.036   6.367  0.5144  0.7691  0.3404
  127MOL0     C17052   6.149  11.148   6.346  0.2121 -0.0047  0.1130
  127MOL0     C17053   6.116  11.233   6.467 -0.1948  0.5849  0.8363
  127MOL0     C17054   6.005  11.332   6.441  0.3034 -0.9438  0.2163
  127MOL0    Cl17055   6.000  11.443   6.578 -0.5310 -0.2273  0.1594
  127MOL0     C17056   6.844  10.541   6.420  0.0137 -0.6446 -1.5341
  127MOL0     C17057   6.975  10.509   6.452 -0.7906 -0.6779 -0.5197
  127MOL0     O17058   7.242  10.399   6.382  0.4964 -0.0803  0.5525
  127MOL0     C17059   7.456  10.551   6.625 -0.6833  0.6107  0.0611
  127MOL0     C17060   7.573  10.538   6.697 -1.2241 -0.2404 -0.1715
  127MOL0     N17061   8.278  10.188   6.792 -0.2455  0.5592 -0.8345
  127MOL0     N17062   8.408  10.161   6.781  0.2613  0.3896 -0.0363
  127MOL0     C17063   9.485  10.373   7.302 -0.0837 -0.2554 -0.6901
  127MOL0     C17064   9.608  10.447   7.302 -0.0664  0.3659  0.3973
  127MOL0     C17065  10.004  10.629   7.253 -0.9088  0.6806  0.0889
  127MOL0     C17066  10.102  10.534   7.285  1.0056  0.5003  0.4522
  127MOL0     C17067  10.237  10.571   7.298  0.2652 -0.4428 -0.4540
  127MOL0     C17068  10.276  10.706   7.273 -0.4671 -0.6341 -0.2162
  127MOL0     O17069  10.416  10.748   7.282  0.0633 -0.3179 -0.4912
  127MOL0     C17070  10.513  10.667   7.353  0.2755 -0.3916  0.5168
  127MOL0     C17071  10.580  10.584   7.248 -1.1637  0.2232 -0.5958
  127MOL0     C17072  10.634  10.457   7.317 -0.7847  0.0581 -0.2037
  127MOL0     C17073  10.712  10.352   7.227 -0.2736  0.1643 -0.2539
  127MOL0     C17074  10.854  10.386   7.224  0.0685 -0.4606 -0.3887
  127MOL0     C17075  10.969  10.410   7.241  0.6699 -0.4993  0.1200
  127MOL0     C17076  10.180  10.796   7.236  0.3115  0.2199  0.2247
  127MOL0     C17077  10.043  10.763   7.237  0.7792 -0.0875 -0.5318
  127MOL0     H17078   9.784  10.207   7.115 -0.7460 -0.6686 -0.9585
  127MOL0     H17079   9.555  10.102   7.135  4.7098  0.0374 -2.8987
  127MOL0     H17080   9.213  10.297   7.326  0.5747  0.5704  0.5543
  127MOL0     H17081   9.217  10.284   7.147  1.9685  3.0720  1.3063
  127MOL0     H17082   9.156  10.079   7.132 -2.3765 -1.2079 -0.0160
  127MOL0     H17083   9.163  10.046   7.313  1.7058  2.8730  0.7488
  127MOL0     H17084   8.999  10.221   7.346  1.1431 -2.1404  1.3883
  127MOL0     H17085   8.982  10.252   7.175  1.7651 -2.2734 -2.0523
  127MOL0     H17086   8.914   9.982   7.306  0.5270 -0.2130 -0.2677
  127MOL0     H17087   8.789  10.115   7.281 -1.7064 -0.0622 -3.7658
  127MOL0     H17088   8.954   9.962   7.077  0.0837  1.9445 -0.4330
  127MOL0     H17089   8.796   9.920   7.121 -0.2545 -0.4194 -2.7838
  127MOL0     H17090   8.828  10.219   7.020 -1.4776  0.8438 -1.9202
  127MOL0     H17091   8.860  10.087   6.902 -2.6516 -0.4247 -0.0035
  127MOL0     H17092   8.646  10.007   6.917 -0.5547 -0.2769  1.7774
  127MOL0     H17093   8.604  10.077   7.060  1.6630  0.2976  0.8424
  127MOL0     H17094   8.681  10.236   6.812  3.8207 -1.8348  2.5234
  127MOL0     H17095   8.639  10.307   6.969  2.5715 -1.7423  0.3772
  127MOL0     H17096   8.407  10.371   7.038  0.4089 -0.9954  0.5937
  127MOL0     H17097   8.080  10.226   6.992 -0.2582 -0.6855 -0.5703
  127MOL0     H17098   8.148  10.385   7.045  1.4548 -0.1731 -1.1868
  127MOL0     H17099   8.004  10.306   6.779 -1.4789 -0.0256  1.1967
  127MOL0     H17100   8.084  10.466   6.825  1.8584  1.0382  2.4499
  127MOL0     H17101   7.939  10.484   7.017  0.7792 -0.3188 -0.2127
  127MOL0     H17102   7.868  10.336   6.975 -2.0918  1.2084 -0.4834
  127MOL0     H17103   7.859  10.579   6.770 -2.4028  0.0650 -1.9559
  127MOL0     H17104   7.735  10.546   6.881  1.3974  0.0037  1.6856
  127MOL0     H17105   7.626  10.216   6.618  0.1645 -0.5567 -1.2910
  127MOL0     H17106   7.420  10.229   6.356 -0.3040 -0.7546  0.0055
  127MOL0     H17107   7.485  10.126   6.482  1.9433  1.2964  0.5927
  127MOL0     H17108   7.312  10.169   6.493 -0.4978 -0.8886 -2.4804
  127MOL0     H17109   7.109  10.818   6.442  2.2137 -0.6969  2.2295
  127MOL0     H17110   6.878  10.869   6.377 -1.6641 -0.7012 -2.0167
  127MOL0     H17111   6.663  10.889   6.374 -0.3100  0.3951 -2.3645
  127MOL0     H17112   6.704  10.810   6.221 -0.9919  2.4212 -1.7817
  127MOL0     H17113   6.476  10.731   6.195  2.9254 -2.0998  1.2377
  127MOL0     H17114   6.431  10.785   6.356  0.0208  0.6428  1.1416
  127MOL0     H17115   6.476  10.959   6.122  0.3236  0.8325 -0.3818
  127MOL0     H17116   6.502  11.034   6.271  4.3062 -2.0152 -1.7131
  127MOL0     H17117   6.275  11.066   6.154  0.9496 -2.3987 -2.1721
  127MOL0     H17118   6.236  10.906   6.191 -0.0484 -1.0435  2.7804
  127MOL0     H17119   6.336  11.072   6.428 -0.4905  1.7517  1.1866
  127MOL0     H17120   6.207  10.954   6.424  0.5538 -1.1676 -2.2265
  127MOL0     H17121   6.181  11.214   6.265 -0.9417 -2.6202 -2.6551
  127MOL0     H17122   6.052  11.101   6.326  1.9354 -3.3588 -1.3414
  127MOL0     H17123   6.197  11.292   6.511  0.1325  0.9229 -0.1957
  127MOL0     H17124   6.061  11.173   6.540  1.4951 -2.0432  0.1079
  127MOL0     H17125   5.902  11.297   6.427 -1.3253  1.8517  3.6111
  127MOL0     H17126   6.023  11.396   6.355  1.1538  0.3904  1.3361
  127MOL0     H17127   6.771  10.463   6.400  0.8281 -1.5347 -1.0986
  127MOL0     H17128   7.009  10.406   6.457  1.5449  0.0981  2.3889
  127MOL0     H17129   7.417  10.652   6.630 -0.3493  0.8431 -1.5146
  127MOL0     H17130   7.611  10.625   6.748 -3.5964  3.1333 -3.6098
  127MOL0     H17131   9.406  10.431   7.348  0.9771 -1.1430  2.4673
  127MOL0     H17132   9.610  10.544   7.351 -1.1664 -1.0796  3.6105
  127MOL0     H17133  10.086  10.429   7.307 -1.8332  0.3589 -1.6160
  127MOL0     H17134  10.303  10.497   7.342  0.7134 -0.9191 -1.9079
  127MOL0     H17135  10.592  10.724   7.402  0.8115 -1.3691  0.8119
  127MOL0     H17136  10.463  10.604   7.426 -3.1546 -0.4460 -1.6840
  127MOL0     H17137  10.660  10.635   7.194 -0.2428  0.2515  0.7590
  127MOL0     H17138  10.513  10.552   7.168 -3.6307  0.1795  1.3443
  127MOL0     H17139  10.554  10.397   7.362  0.5641 -1.9975 -0.4261
  127MOL0     H17140  10.697  10.494   7.399 -1.2668  2.3067 -0.7935
  127MOL0     H17141  10.674  10.346   7.125  1.1160  2.2616 -0.9594
  127MOL0     H17142  10.698  10.256   7.277  0.4014  1.8902  3.6398
  127MOL0     H17143  11.075  10.419   7.258  0.8553 -1.8146 -0.2001
  127MOL0     H17144  10.207  10.898   7.210 -2.2822  1.3393  1.5467
  127MOL0     H17145   9.971  10.829   7.190  0.8506  0.6885  0.4236
  128MOL0     O17146   6.063   8.753   0.917 -0.0461  0.2856 -0.1270
  128MOL0     C17147   6.114   8.862   0.908  0.3433 -0.6968  0.2411
  128MOL0     O17148   6.051   8.969   0.849 -0.2386 -0.1393 -0.4492
  128MOL0     C17149   5.922   8.943   0.800  0.1555 -0.5361  1.2692
  128MOL0     C17150   5.894   8.917   0.662 -0.2427 -0.8887 -0.3949
  128MOL0     C17151   5.766   8.886   0.622  0.2985  0.2018  0.4296
  128MOL0     C17152   5.661   8.877   0.722  0.0702 -0.4835  1.2012
  128MOL0     O17153   5.527   8.862   0.688  0.3544 -0.2374 -0.1471
  128MOL0     C17154   5.478   8.936   0.577 -0.0752  0.8363 -0.3576
  128MOL0     C17155   5.480   9.087   0.595  0.7606 -0.8298 -0.1348
  128MOL0     C17156   5.471   9.157   0.458 -0.0071 -0.2279  0.5187
  128MOL0     C17157   5.366   9.107   0.359  0.0048  0.1383  0.3479
  128MOL0     C17158   5.377   9.170   0.224 -0.6683  0.0263 -0.4485
  128MOL0     C17159   5.514   9.158   0.157 -0.4028 -0.1153 -0.3650
  128MOL0     C17160   5.599   9.282   0.181  0.0926 -0.3356 -0.0196
  128MOL0     C17161   5.752   9.264   0.137  0.5380  0.1017  0.8681
  128MOL0     N17162   5.832   9.205   0.242 -0.7607 -1.2195 -0.2959
  128MOL0     C17163   5.892   9.278   0.341  0.6918  0.2447  0.0308
  128MOL0     C17164   5.966   9.196   0.407  0.1895  0.1235  0.1654
  128MOL0     C17165   6.081   9.238   0.503  0.2556 -0.3534  0.1133
  128MOL0     C17166   6.051   9.344   0.601 -0.3560 -0.2958  0.0338
  128MOL0     C17167   5.951   9.306   0.718 -0.8647 -0.2544 -0.6908
  128MOL0     C17168   5.944   9.419   0.818 -0.2960  0.2670  0.9824
  128MOL0     O17169   5.886   9.545   0.764 -0.2234 -0.0685  0.1007
  128MOL0     C17170   5.763   9.536   0.712  0.3356 -0.0273  0.1183
  128MOL0     C17171   5.652   9.499   0.786  0.3611  0.3375 -0.1981
  128MOL0     C17172   5.520   9.486   0.728  0.1839 -0.9339 -0.0652
  128MOL0     C17173   5.413   9.425   0.813  0.6015 -0.0961 -0.0736
  128MOL0     C17174   5.505   9.530   0.590  0.3537  1.0232 -0.9600
  128MOL0     C17175   5.377   9.537   0.520  0.6909  0.4246 -0.1722
  128MOL0     O17176   5.390   9.556   0.385  0.2081 -0.2477 -0.3645
  128MOL0     C17177   5.276   9.560   0.302 -0.3532  0.1579  0.6176
  128MOL0     C17178   5.308   9.585   0.167 -0.3949  0.5573  0.9048
  128MOL0     C17179   5.205   9.610   0.066  0.3017 -0.3449 -0.7005
  128MOL0     C17180   5.071   9.590   0.100 -0.8658  0.7472  0.4566
  128MOL0     O17181   4.985   9.587  -0.006  0.7749 -0.5612 -0.3576
  128MOL0     C17182   4.843   9.614   0.015 -0.1703  0.1634 -0.5237
  128MOL0     C17183   4.758   9.643  -0.111 -0.3131 -0.3183  0.2073
  128MOL0     C17184   4.603   9.620  -0.096  0.8579 -0.7582 -1.1141
  128MOL0     C17185   4.528   9.633  -0.230 -0.1814  0.3213  0.1664
  128MOL0     C17186   4.372   9.624  -0.238 -0.1481  0.4134  0.1825
  128MOL0     C17187   4.321   9.683  -0.363 -0.3977 -0.3233  0.2275
  128MOL0     C17188   4.166   9.644  -0.365 -0.2298  0.9736 -0.9224
  128MOL0     C17189   4.104   9.702  -0.489  0.3452 -0.6916 -0.8597
  128MOL0    Cl17190   3.922   9.700  -0.477 -0.2874  0.0648  0.2003
  128MOL0     C17191   5.037   9.562   0.235 -0.1611 -0.3239  0.9733
  128MOL0     C17192   5.134   9.539   0.336  0.1887 -0.0144  0.6159
  128MOL0     O17193   5.275   9.518   0.582  0.8857  0.6406 -1.0909
  128MOL0     C17194   5.624   9.562   0.519  0.4931  0.1938 -0.2228
  128MOL0     C17195   5.752   9.570   0.575  0.3617  0.3316 -0.8357
  128MOL0     N17196   5.938   9.071   0.361 -0.4024  0.3036  0.1138
  128MOL0     N17197   5.846   9.071   0.270  0.2334  0.0431 -0.8809
  128MOL0     C17198   5.695   8.887   0.855 -0.0539 -0.4785  0.6248
  128MOL0     C17199   5.822   8.921   0.890  0.6913  0.4174  0.7485
  128MOL0     C17200   6.246   8.881   0.957 -0.3008  0.0852 -0.6916
  128MOL0     C17201   6.311   8.803   1.053 -0.1988 -0.4532  0.6783
  128MOL0     C17202   6.439   8.833   1.116 -0.3759 -0.4208  0.6040
  128MOL0     C17203   6.501   8.949   1.072 -0.2135 -0.0583  0.7610
  128MOL0     O17204   6.623   8.985   1.111  0.3166 -0.1957  0.0744
  128MOL0     C17205   6.710   9.065   1.031 -0.0512 -0.1868  0.6721
  128MOL0     C17206   6.851   9.026   1.058 -0.7300  0.1802 -0.7975
  128MOL0     C17207   6.868   8.873   1.040 -0.6447 -0.0060  0.0544
  128MOL0     C17208   6.971   8.833   0.940  0.2131  0.6955  0.4968
  128MOL0     C17209   6.923   8.872   0.801 -0.1217  0.6694 -0.9176
  128MOL0     C17210   6.887   8.891   0.684 -0.2044 -0.0014 -0.6203
  128MOL0     C17211   6.436   9.024   0.968 -0.5782  0.0610 -0.2890
  128MOL0     C17212   6.318   8.992   0.912  0.3596  0.6815  0.2954
  128MOL0     H17213   5.974   8.943   0.594  0.0832  0.0757  0.3233
  128MOL0     H17214   5.740   8.882   0.516 -0.5446 -0.6110  0.6498
  128MOL0     H17215   5.528   8.903   0.486 -1.0739 -2.9492  0.3153
  128MOL0     H17216   5.373   8.906   0.571  0.0119  0.4956 -0.2005
  128MOL0     H17217   5.394   9.130   0.647 -0.7502 -2.1843 -1.3992
  128MOL0     H17218   5.569   9.115   0.651  0.2761 -0.7677  0.6290
  128MOL0     H17219   5.462   9.264   0.478 -2.3026 -0.6144  1.8782
  128MOL0     H17220   5.572   9.146   0.415 -0.3412  2.1220 -1.0413
  128MOL0     H17221   5.385   8.999   0.360 -1.6860 -0.3295  4.7689
  128MOL0     H17222   5.266   9.120   0.401 -0.7789 -2.1148 -0.6493
  128MOL0     H17223   5.304   9.115   0.164 -1.7490  0.4870  0.4045
  128MOL0     H17224   5.353   9.277   0.227  0.4778  0.2760  0.6829
  128MOL0     H17225   5.566   9.070   0.196 -1.5561 -0.6612 -0.0411
  128MOL0     H17226   5.491   9.134   0.053 -1.5827  2.3091 -0.7362
  128MOL0     H17227   5.556   9.364   0.124 -1.7942 -0.6809  0.8298
  128MOL0     H17228   5.598   9.327   0.281 -0.9352  1.5588 -0.8423
  128MOL0     H17229   5.800   9.359   0.112 -1.7021  1.2493  0.7080
  128MOL0     H17230   5.764   9.207   0.044 -0.6733  0.7534  0.2904
  128MOL0     H17231   5.891   9.386   0.347  1.9362  0.2260  0.9714
  128MOL0     H17232   6.107   9.147   0.557  2.0378  2.1185  3.8557
  128MOL0     H17233   6.171   9.273   0.453  0.3936  1.0674  1.2956
  128MOL0     H17234   6.003   9.417   0.535 -1.5447 -1.3358 -0.2848
  128MOL0     H17235   6.140   9.393   0.642 -0.8002  1.3423 -0.8958
  128MOL0     H17236   5.978   9.215   0.771 -2.1840 -0.5469 -0.4816
  128MOL0     H17237   5.848   9.294   0.682 -2.1428 -0.8085  2.7684
  128MOL0     H17238   6.048   9.426   0.849  0.0562 -2.3735  0.5685
  128MOL0     H17239   5.873   9.404   0.901 -1.5501  0.0404 -0.0991
  128MOL0     H17240   5.655   9.492   0.894 -2.3624  1.1083  0.0106
  128MOL0     H17241   5.336   9.496   0.846  0.6712 -0.2907  0.5144
  128MOL0     H17242   5.366   9.336   0.771  5.1853 -1.8213 -2.1204
  128MOL0     H17243   5.456   9.391   0.907  0.8645  2.2123  0.6989
  128MOL0     H17244   5.415   9.593   0.149 -0.4335  4.5996  1.4915
  128MOL0     H17245   5.221   9.634  -0.039 -2.7940  0.8691 -0.9986
  128MOL0     H17246   4.799   9.527   0.065 -1.2072  2.1709  2.3261
  128MOL0     H17247   4.819   9.695   0.085 -0.1253 -0.1360 -0.1553
  128MOL0     H17248   4.776   9.746  -0.143 -4.1581 -0.5477 -3.5016
  128MOL0     H17249   4.795   9.578  -0.190  1.3888 -0.0276  0.7165
  128MOL0     H17250   4.561   9.694  -0.027 -1.2366 -1.3616 -1.6724
  128MOL0     H17251   4.582   9.521  -0.054 -0.1049  0.2028  0.8132
  128MOL0     H17252   4.558   9.727  -0.276 -1.6898  1.0742  0.6680
  128MOL0     H17253   4.565   9.553  -0.295  2.9061  3.1777 -1.9032
  128MOL0     H17254   4.320   9.672  -0.154  0.6093  2.1757 -0.2937
  128MOL0     H17255   4.343   9.519  -0.230 -1.0961  0.6446 -0.1239
  128MOL0     H17256   4.336   9.791  -0.373  3.0409 -0.8508 -2.6740
  128MOL0     H17257   4.384   9.639  -0.442 -0.7397 -2.3721  1.0286
  128MOL0     H17258   4.116   9.686  -0.277  2.1743  1.8065  0.1387
  128MOL0     H17259   4.148   9.536  -0.363 -0.4003  1.0000  1.2613
  128MOL0     H17260   4.147   9.642  -0.570  0.5101  0.9647 -2.0529
  128MOL0     H17261   4.132   9.806  -0.506  1.2173 -0.9182 -0.8966
  128MOL0     H17262   4.938   9.544   0.275  0.4094 -1.6175  1.8561
  128MOL0     H17263   5.089   9.522   0.432 -0.0176  0.0043  0.5226
  128MOL0     H17264   5.617   9.594   0.416 -0.5149 -0.3158 -0.3298
  128MOL0     H17265   5.826   9.621   0.514  0.7887 -0.1814 -0.7467
  128MOL0     H17266   5.622   8.877   0.934 -0.2627  0.4204  0.5578
  128MOL0     H17267   5.846   8.930   0.995 -1.2527  0.0453  1.2651
  128MOL0     H17268   6.267   8.707   1.080 -2.7269 -0.0978 -1.7434
  128MOL0     H17269   6.486   8.791   1.204  1.1995  2.5766  1.3330
  128MOL0     H17270   6.695   9.043   0.925  1.0096  0.7667  0.2992
  128MOL0     H17271   6.694   9.172   1.045 -2.2363 -0.4085  0.2361
  128MOL0     H17272   6.878   9.054   1.161 -1.7725  2.1989 -1.0164
  128MOL0     H17273   6.925   9.075   0.994 -1.1821  1.9395 -0.0544
  128MOL0     H17274   6.776   8.817   1.024 -0.1373 -1.2145  1.2155
  128MOL0     H17275   6.910   8.830   1.131  0.3074 -0.2060 -0.4642
  128MOL0     H17276   6.993   8.727   0.933 -1.1031  0.4160  0.3002
  128MOL0     H17277   7.060   8.884   0.978  0.7435  0.6113 -0.5894
  128MOL0     H17278   6.853   8.892   0.582  1.6196 -1.4896 -1.3041
  128MOL0     H17279   6.469   9.119   0.928  0.0500  0.1883  0.5221
  128MOL0     H17280   6.271   9.064   0.846  1.8319  1.3540 -0.0766
  129MOL0     O17281   6.682   5.547   2.794 -0.8970 -0.7336  0.6038
  129MOL0     C17282   6.692   5.565   2.668  0.6011  0.1431 -0.7482
  129MOL0     O17283   6.594   5.523   2.578 -0.4295  0.3451  0.1971
  129MOL0     C17284   6.463   5.513   2.618  0.4441  0.0625  0.1747
  129MOL0     C17285   6.396   5.535   2.743 -0.0775  0.2110 -0.1076
  129MOL0     C17286   6.253   5.511   2.760  0.6039 -0.3840  0.1495
  129MOL0     C17287   6.173   5.479   2.646  0.5234 -0.0777 -0.9830
  129MOL0     O17288   6.036   5.466   2.633  0.3930 -0.4579  0.1150
  129MOL0     C17289   5.954   5.542   2.719  0.0493  0.3992  0.6897
  129MOL0     C17290   5.813   5.520   2.677  0.1089 -0.4186 -0.5655
  129MOL0     C17291   5.762   5.378   2.711  0.6391 -0.2198  0.4391
  129MOL0     C17292   5.617   5.351   2.658  1.3283 -0.2589  0.2863
  129MOL0     C17293   5.561   5.223   2.708  0.1389  0.9646  0.2750
  129MOL0     C17294   5.436   5.172   2.636 -0.8944 -0.7698 -1.0320
  129MOL0     C17295   5.351   5.075   2.734  0.0867 -0.4286 -0.2254
  129MOL0     C17296   5.257   5.152   2.822  0.1624 -0.7101 -0.2803
  129MOL0     N17297   5.176   5.073   2.921  0.1200  0.9741  0.3461
  129MOL0     C17298   5.051   5.015   2.888 -0.4476  0.9803 -0.2140
  129MOL0     C17299   5.008   4.977   3.006 -0.1777  0.8395 -0.5117
  129MOL0     C17300   4.888   4.904   3.044  1.0401  0.9054  0.5612
  129MOL0     C17301   4.763   4.974   2.984  0.1700 -0.0242 -0.3331
  129MOL0     C17302   4.760   5.118   3.016  0.7004 -0.1152  0.6642
  129MOL0     C17303   4.617   5.169   2.999  1.5557 -1.5930  0.1158
  129MOL0     O17304   4.621   5.311   3.020 -0.6130  0.6221 -0.1137
  129MOL0     C17305   4.552   5.388   2.934 -0.5881 -0.9711  0.1380
  129MOL0     C17306   4.608   5.494   2.859  0.7383  0.1926  0.0989
  129MOL0     C17307   4.531   5.584   2.782  0.5937 -0.4607 -0.8185
  129MOL0     C17308   4.614   5.686   2.706 -0.2898  0.3869  0.5646
  129MOL0     C17309   4.385   5.570   2.774  0.5721  0.0636  0.1784
  129MOL0     C17310   4.301   5.663   2.693  0.2374 -0.2960  0.4590
  129MOL0     O17311   4.171   5.637   2.699 -0.3278 -0.6537 -0.7699
  129MOL0     C17312   4.083   5.733   2.667 -0.0914 -0.8073 -0.8002
  129MOL0     C17313   4.022   5.756   2.544 -0.4663 -0.5755  0.9318
  129MOL0     C17314   3.945   5.868   2.520  0.5308  0.0986  0.4131
  129MOL0     C17315   3.905   5.955   2.626 -0.2477 -0.2575  0.3003
  129MOL0     O17316   3.820   6.063   2.599 -0.3942 -0.0386 -0.1547
  129MOL0     C17317   3.871   6.191   2.637 -0.3046 -0.2978 -0.4992
  129MOL0     C17318   3.798   6.250   2.767 -0.2530  0.1474  0.6566
  129MOL0     C17319   3.658   6.197   2.785 -0.4561 -0.0307  0.6228
  129MOL0     C17320   3.571   6.278   2.872  0.3985  0.2679 -1.1929
  129MOL0     C17321   3.424   6.229   2.868  0.1792 -0.4466 -0.0219
  129MOL0     C17322   3.349   6.307   2.974  0.2203 -0.7171  0.1069
  129MOL0     C17323   3.195   6.276   2.983 -0.7796  0.9072  0.5996
  129MOL0     C17324   3.113   6.385   2.924  0.5690  0.3913 -0.6243
  129MOL0    Cl17325   3.127   6.536   3.009  0.4301  0.5653  0.1197
  129MOL0     C17326   3.961   5.925   2.755 -1.0596 -0.3929 -0.7783
  129MOL0     C17327   4.050   5.825   2.770  0.2578  0.3018  0.1162
  129MOL0     O17328   4.349   5.753   2.628 -0.3725 -0.2715  0.0800
  129MOL0     C17329   4.335   5.456   2.840 -0.4645 -0.9807 -0.2858
  129MOL0     C17330   4.417   5.377   2.920  0.4139 -0.2813 -0.4058
  129MOL0     N17331   5.105   5.010   3.107  0.3005  0.5998  0.6270
  129MOL0     N17332   5.204   5.057   3.052  0.8440  0.0195  0.0102
  129MOL0     C17333   6.240   5.463   2.523  0.1099  0.2614 -0.2578
  129MOL0     C17334   6.382   5.475   2.514  0.7576 -0.3767 -0.2841
  129MOL0     C17335   6.814   5.631   2.614 -0.0686  0.0220 -1.1235
  129MOL0     C17336   6.931   5.638   2.701 -0.1498 -0.3809  0.0506
  129MOL0     C17337   7.046   5.711   2.663  0.5608 -0.3480  0.2076
  129MOL0     C17338   7.059   5.773   2.534 -0.8302  0.8530  0.0573
  129MOL0     O17339   7.178   5.830   2.511  0.2460 -0.0489 -0.1766
  129MOL0     C17340   7.173   5.973   2.516 -0.3582 -0.0240  0.8010
  129MOL0     C17341   7.297   6.033   2.455  0.2917  0.1501 -0.3036
  129MOL0     C17342   7.277   6.030   2.305  0.4242 -0.8236  0.7394
  129MOL0     C17343   7.400   6.086   2.243  0.1070 -0.2769 -0.3040
  129MOL0     C17344   7.403   6.053   2.104  0.3866 -0.6095  0.1556
  129MOL0     C17345   7.407   6.035   1.980 -0.2095 -0.0671 -1.1623
  129MOL0     C17346   6.944   5.762   2.442  0.4877 -0.1893 -0.9516
  129MOL0     C17347   6.824   5.693   2.483  0.2267  0.3587 -0.1178
  129MOL0     H17348   6.448   5.584   2.824  2.2054 -0.5531 -1.0407
  129MOL0     H17349   6.208   5.540   2.854 -0.7017 -0.1470 -0.5278
  129MOL0     H17350   5.965   5.510   2.823 -2.2665 -0.7954  0.6300
  129MOL0     H17351   5.970   5.650   2.712  0.9286  0.4918  3.0903
  129MOL0     H17352   5.753   5.598   2.725  0.5192 -0.6398  0.3511
  129MOL0     H17353   5.803   5.540   2.570  0.0452 -0.7755 -0.6259
  129MOL0     H17354   5.820   5.291   2.678 -3.2731 -3.1378  0.5245
  129MOL0     H17355   5.752   5.363   2.819 -1.4896  0.0106  0.3226
  129MOL0     H17356   5.551   5.433   2.685  2.0339  0.1325  0.8633
  129MOL0     H17357   5.606   5.355   2.549  0.7743 -0.9054  0.3133
  129MOL0     H17358   5.636   5.144   2.695  1.0665  1.8756 -0.0864
  129MOL0     H17359   5.543   5.235   2.815 -0.3147  0.1314  0.3025
  129MOL0     H17360   5.374   5.257   2.606 -2.0885 -0.4290  2.0703
  129MOL0     H17361   5.466   5.114   2.548  0.6884 -1.8577  0.1584
  129MOL0     H17362   5.284   5.008   2.679 -1.1325 -1.4173  2.3152
  129MOL0     H17363   5.413   5.007   2.795 -0.3196 -0.7793 -0.1995
  129MOL0     H17364   5.178   5.200   2.763  0.3709  0.1112  0.0895
  129MOL0     H17365   5.310   5.233   2.873 -1.3964  0.5438 -0.5543
  129MOL0     H17366   5.005   5.001   2.791 -0.2877  3.0621 -0.6360
  129MOL0     H17367   4.882   4.798   3.015  0.6082  1.5110 -1.8486
  129MOL0     H17368   4.868   4.909   3.151 -3.0725 -1.7811  0.1490
  129MOL0     H17369   4.674   4.931   3.031 -0.4363 -0.3799 -1.7431
  129MOL0     H17370   4.761   4.952   2.877 -1.3691 -2.8773  0.1880
  129MOL0     H17371   4.832   5.173   2.955  1.1559 -2.5264 -1.1520
  129MOL0     H17372   4.784   5.121   3.123 -0.9971  0.0827  1.0604
  129MOL0     H17373   4.539   5.128   3.064 -1.5578  1.1416 -1.5853
  129MOL0     H17374   4.593   5.158   2.893  4.2606  1.6866 -0.9895
  129MOL0     H17375   4.716   5.503   2.865  0.7683 -0.3004  5.6622
  129MOL0     H17376   4.722   5.672   2.719  0.1486  4.0133  2.0938
  129MOL0     H17377   4.598   5.670   2.599  4.0757  1.8161 -0.4963
  129MOL0     H17378   4.600   5.793   2.723  0.8049  0.2005  3.1190
  129MOL0     H17379   4.045   5.687   2.464 -0.4618  0.9255 -0.4209
  129MOL0     H17380   3.891   5.889   2.428 -3.5997  0.8989  2.7544
  129MOL0     H17381   3.981   6.185   2.642 -0.1242  2.3862  0.2960
  129MOL0     H17382   3.865   6.255   2.548  0.8822  0.5736  0.0127
  129MOL0     H17383   3.852   6.221   2.857 -0.4797 -0.1350  0.7030
  129MOL0     H17384   3.802   6.359   2.756  2.2873  0.0632  0.1426
  129MOL0     H17385   3.659   6.093   2.819  2.8652 -0.2205  0.3034
  129MOL0     H17386   3.608   6.202   2.687 -3.1939  3.6658  1.9667
  129MOL0     H17387   3.613   6.273   2.973  1.0403  0.5235 -1.4427
  129MOL0     H17388   3.579   6.383   2.843  0.6329  0.0024 -2.1049
  129MOL0     H17389   3.425   6.122   2.889  1.6728 -0.2488  1.0271
  129MOL0     H17390   3.385   6.243   2.766 -0.5179 -1.0298  0.1602
  129MOL0     H17391   3.392   6.278   3.070 -0.4905 -2.8089 -0.1579
  129MOL0     H17392   3.369   6.415   2.965 -1.9600 -0.0714  1.9826
  129MOL0     H17393   3.170   6.245   3.085  0.0042 -0.7233  0.3367
  129MOL0     H17394   3.175   6.179   2.936  1.6596  0.2328  0.7990
  129MOL0     H17395   3.007   6.358   2.929  0.5099  0.8675  1.2728
  129MOL0     H17396   3.126   6.385   2.815  0.0608 -0.9114 -0.7054
  129MOL0     H17397   3.945   5.992   2.839  3.2274 -1.6856  1.3558
  129MOL0     H17398   4.117   5.817   2.856  0.6815 -2.0395 -0.3516
  129MOL0     H17399   4.230   5.428   2.841 -1.2461  1.5228  2.1217
  129MOL0     H17400   4.371   5.291   2.967 -1.7348  0.1553 -1.5828
  129MOL0     H17401   6.180   5.445   2.435  0.7434  0.1264 -0.6716
  129MOL0     H17402   6.431   5.457   2.418  0.8437  1.5088 -0.6401
  129MOL0     H17403   6.922   5.589   2.798 -2.9314  1.1204  0.6710
  129MOL0     H17404   7.127   5.728   2.733 -1.2400  0.0953  2.3012
  129MOL0     H17405   7.086   6.014   2.464  1.6903  0.6372 -2.3684
  129MOL0     H17406   7.167   6.003   2.620  0.4586 -1.0470  1.1653
  129MOL0     H17407   7.377   5.961   2.472 -0.5807 -0.4593  1.5288
  129MOL0     H17408   7.318   6.131   2.499 -1.9006  1.1777 -1.4132
  129MOL0     H17409   7.193   6.085   2.260  0.5443 -2.0421 -1.0863
  129MOL0     H17410   7.268   5.924   2.277  1.0779 -0.9595  1.0313
  129MOL0     H17411   7.487   6.057   2.303 -0.1241  0.3390  0.3485
  129MOL0     H17412   7.386   6.194   2.243 -1.9047 -0.4841 -0.7579
  129MOL0     H17413   7.402   6.012   1.876 -0.0515 -1.4309 -0.8875
  129MOL0     H17414   6.943   5.787   2.337  2.9973 -3.7479 -2.0185
  129MOL0     H17415   6.730   5.704   2.429  0.2947  0.8993 -0.1225
  130MOL0     O17416   2.331   0.081   6.626  0.5870  1.1680  0.4468
  130MOL0     C17417   2.303   0.115   6.512 -1.2306 -0.3672  0.4628
  130MOL0     O17418   2.179   0.095   6.449 -0.2203 -0.2112  0.7361
  130MOL0     C17419   2.090   0.025   6.523 -0.1493  0.1684  0.7689
  130MOL0     C17420   1.986   0.099   6.576  0.9962  0.1041  0.0123
  130MOL0     C17421   1.884   0.038   6.650 -0.4951 -0.2501  0.9593
  130MOL0     C17422   1.887  -0.105   6.670  0.0734 -0.1287  0.4734
  130MOL0     O17423   1.787  -0.164   6.742 -0.3956 -0.3246  0.2131
  130MOL0     C17424   1.810  -0.283   6.811  0.4263  0.3774  0.2775
  130MOL0     C17425   1.916  -0.277   6.927  0.0791 -0.7577 -0.4205
  130MOL0     C17426   1.873  -0.179   7.046 -0.1874  1.0842 -0.0485
  130MOL0     C17427   1.907  -0.043   7.015 -0.4329  0.7631 -0.2820
  130MOL0     C17428   1.914   0.046   7.132 -0.0382 -0.1421  0.1172
  130MOL0     C17429   1.905   0.197   7.114  0.3520  0.3817 -0.1866
  130MOL0     C17430   1.961   0.254   6.980  0.0210 -0.7518  0.0762
  130MOL0     C17431   1.943   0.406   6.983 -0.7951 -1.0710  0.3481
  130MOL0     N17432   1.965   0.449   6.840 -1.1156  0.0979 -0.3204
  130MOL0     C17433   2.088   0.462   6.780 -0.1580  0.8573  0.6935
  130MOL0     C17434   2.059   0.502   6.654  0.9120  0.3651 -0.5671
  130MOL0     C17435   2.154   0.530   6.537  0.7686 -0.4983 -0.4195
  130MOL0     C17436   2.247   0.656   6.553 -0.7869  0.3850 -0.6601
  130MOL0     C17437   2.187   0.791   6.541  0.7327  0.3393 -0.1870
  130MOL0     C17438   2.126   0.850   6.664  0.8125  0.2049 -0.3500
  130MOL0     O17439   2.062   0.974   6.639  0.4347 -0.2810  0.1047
  130MOL0     C17440   1.932   0.965   6.601 -0.0673  0.3244  0.0711
  130MOL0     C17441   1.864   0.847   6.561  0.8009 -1.1518  0.3912
  130MOL0     C17442   1.731   0.850   6.513  0.0593  0.7503  0.3650
  130MOL0     C17443   1.682   0.718   6.457 -0.5673 -0.4209  0.1914
  130MOL0     C17444   1.660   0.975   6.497  0.0335  0.1452  0.0639
  130MOL0     C17445   1.524   0.986   6.437  0.1317 -1.1390  0.6701
  130MOL0     O17446   1.484   1.109   6.389  0.1690  0.6354 -0.8077
  130MOL0     C17447   1.354   1.132   6.359  0.9055  0.4404 -0.3216
  130MOL0     C17448   1.277   1.202   6.450  0.6720 -0.4772  0.2236
  130MOL0     C17449   1.141   1.247   6.409 -0.3539 -0.2446  0.2817
  130MOL0     C17450   1.099   1.225   6.279 -0.0571  0.0283  0.1182
  130MOL0     O17451   0.981   1.270   6.219  0.4074 -0.6182  0.4198
  130MOL0     C17452   0.895   1.360   6.288  0.3652 -0.5128  0.5974
  130MOL0     C17453   0.769   1.302   6.346 -0.2218  0.9340 -0.1722
  130MOL0     C17454   0.679   1.406   6.420 -0.0938  0.1707 -0.0534
  130MOL0     C17455   0.534   1.374   6.446  0.2081  0.9452  0.0831
  130MOL0     C17456   0.477   1.499   6.513 -0.0655 -1.2972  0.4995
  130MOL0     C17457   0.323   1.500   6.557 -0.7245 -0.0694 -0.5734
  130MOL0     C17458   0.294   1.375   6.652  0.2642 -0.0269  0.2110
  130MOL0     C17459   0.147   1.361   6.688 -0.1542  0.1458 -0.5824
  130MOL0    Cl17460   0.056   1.347   6.535  0.1100 -0.0436 -0.4252
  130MOL0     C17461   1.167   1.148   6.198 -0.0691 -0.3400 -0.1422
  130MOL0     C17462   1.301   1.102   6.238 -0.3280 -0.0449 -0.1641
  130MOL0     O17463   1.456   0.884   6.425 -0.6872 -0.0847  0.3743
  130MOL0     C17464   1.727   1.094   6.536 -0.9844 -0.1177 -0.9700
  130MOL0     C17465   1.856   1.085   6.587  0.3905  0.4153 -0.0843
  130MOL0     N17466   1.920   0.505   6.644  0.1732 -0.2059 -1.0267
  130MOL0     N17467   1.860   0.487   6.760 -0.4364  0.4006  0.3364
  130MOL0     C17468   1.997  -0.173   6.618  0.6270  0.6619  1.3105
  130MOL0     C17469   2.093  -0.112   6.537  1.2120  0.1740 -0.8204
  130MOL0     C17470   2.415   0.180   6.441  0.0113 -0.2837  0.7386
  130MOL0     C17471   2.543   0.186   6.490 -0.1728  0.0663 -0.1025
  130MOL0     C17472   2.643   0.234   6.411 -0.7850  0.0715 -0.6637
  130MOL0     C17473   2.619   0.308   6.293  0.0297  0.0980 -0.0102
  130MOL0     O17474   2.706   0.368   6.206 -0.8733  0.3022  0.6762
  130MOL0     C17475   2.837   0.383   6.258  0.1035 -0.1768  0.4299
  130MOL0     C17476   2.907   0.490   6.176 -0.0193  0.4762  0.2705
  130MOL0     C17477   3.052   0.491   6.217 -0.1568  0.5362 -1.6895
  130MOL0     C17478   3.124   0.579   6.124  0.8352 -0.2831 -0.1131
  130MOL0     C17479   3.267   0.567   6.143  0.3243 -0.2809 -0.3256
  130MOL0     C17480   3.386   0.539   6.165 -0.3884  0.0581  0.7289
  130MOL0     C17481   2.484   0.313   6.250  0.0983 -0.5174  0.1608
  130MOL0     C17482   2.386   0.251   6.328 -0.7224 -0.0047  0.6841
  130MOL0     H17483   1.986   0.207   6.566  3.5521  0.1062 -0.7432
  130MOL0     H17484   1.805   0.098   6.696 -0.2789  0.8895 -0.0827
  130MOL0     H17485   1.713  -0.325   6.838  0.7534 -0.1527  0.6466
  130MOL0     H17486   1.850  -0.353   6.738 -0.0113  2.9251 -2.6304
  130MOL0     H17487   1.930  -0.372   6.980 -1.3364  1.3176  4.2183
  130MOL0     H17488   2.013  -0.245   6.888 -0.8678  1.6251 -1.0271
  130MOL0     H17489   1.764  -0.190   7.051 -0.1855  1.2274  0.4054
  130MOL0     H17490   1.920  -0.208   7.141 -0.9727 -2.6327 -0.6618
  130MOL0     H17491   1.993  -0.042   6.949 -0.5416  0.0062 -0.4472
  130MOL0     H17492   1.820  -0.005   6.961 -1.2256 -0.2641  0.2210
  130MOL0     H17493   1.837   0.027   7.208 -2.1630  1.3531 -1.5215
  130MOL0     H17494   2.011   0.016   7.172  0.7108  1.6413 -0.2959
  130MOL0     H17495   1.801   0.229   7.126 -0.1415 -1.5842  1.2201
  130MOL0     H17496   1.948   0.242   7.204  1.7113 -0.6118 -0.3232
  130MOL0     H17497   2.068   0.232   6.973  0.7992  2.7232 -0.6696
  130MOL0     H17498   1.897   0.205   6.907 -1.3333 -1.8767  1.9333
  130MOL0     H17499   2.019   0.453   7.047 -1.0156  2.3271 -1.6736
  130MOL0     H17500   1.847   0.442   7.021 -0.3052 -0.5489  1.1213
  130MOL0     H17501   2.189   0.462   6.822 -0.6901  2.0411  2.0683
  130MOL0     H17502   2.207   0.437   6.514 -1.6640 -2.4232  1.3104
  130MOL0     H17503   2.095   0.549   6.447 -0.4630  3.9974  1.0764
  130MOL0     H17504   2.333   0.637   6.488 -0.3171 -0.7415  0.2280
  130MOL0     H17505   2.293   0.648   6.653  1.3654 -3.4575 -1.7448
  130MOL0     H17506   2.111   0.786   6.462 -0.8100 -0.7652  1.2788
  130MOL0     H17507   2.264   0.863   6.512 -0.1365  1.0626 -0.7658
  130MOL0     H17508   2.205   0.861   6.739 -0.1132 -2.9454  1.2622
  130MOL0     H17509   2.054   0.778   6.705  0.9250  2.3188  4.0892
  130MOL0     H17510   1.912   0.751   6.548 -3.0923 -3.3623  0.8312
  130MOL0     H17511   1.764   0.646   6.448 -1.3686 -1.4053  0.5652
  130MOL0     H17512   1.601   0.686   6.524 -1.5535  3.1500  0.9121
  130MOL0     H17513   1.640   0.720   6.356 -2.1237 -0.9697  0.7983
  130MOL0     H17514   1.314   1.236   6.546  0.6702  1.1487 -0.3207
  130MOL0     H17515   1.078   1.298   6.480 -0.6853  1.6930 -1.3039
  130MOL0     H17516   0.952   1.415   6.363 -0.5086 -0.7941  1.4936
  130MOL0     H17517   0.856   1.432   6.215  0.2293  0.3794  1.5312
  130MOL0     H17518   0.708   1.271   6.261 -1.6299 -0.8249  1.3816
  130MOL0     H17519   0.791   1.212   6.405 -0.5480  0.9323 -0.0503
  130MOL0     H17520   0.686   1.494   6.356  3.3263  1.5858  1.9867
  130MOL0     H17521   0.723   1.429   6.517  0.3657  1.1333 -0.4799
  130MOL0     H17522   0.475   1.325   6.368 -0.1413 -0.9909  1.5159
  130MOL0     H17523   0.530   1.288   6.513 -0.0500  1.9599  1.4254
  130MOL0     H17524   0.484   1.588   6.449  1.0605  0.0416  2.3830
  130MOL0     H17525   0.531   1.515   6.607 -2.0773 -0.3790  1.5743
  130MOL0     H17526   0.290   1.595   6.599 -1.4505  0.3497 -2.0389
  130MOL0     H17527   0.271   1.482   6.462  0.1034 -2.2331 -0.6848
  130MOL0     H17528   0.349   1.395   6.744  0.6721  0.0008 -0.0381
  130MOL0     H17529   0.324   1.282   6.604 -1.1759 -0.0947 -0.6376
  130MOL0     H17530   0.107   1.440   6.752  0.6386  0.1941 -0.1309
  130MOL0     H17531   0.146   1.262   6.736  3.8441  0.7724  1.2470
  130MOL0     H17532   1.122   1.128   6.101  1.8994 -0.2698 -1.1191
  130MOL0     H17533   1.358   1.065   6.154  1.2867  1.0610  0.3969
  130MOL0     H17534   1.684   1.193   6.546  2.3524  1.2996  1.0148
  130MOL0     H17535   1.914   1.170   6.620 -0.5868  1.6260 -1.3886
  130MOL0     H17536   2.007  -0.280   6.636  1.5202  0.3561 -0.7340
  130MOL0     H17537   2.177  -0.164   6.491  0.9706 -1.3588  0.3953
  130MOL0     H17538   2.572   0.148   6.587  1.9391 -1.2541 -1.1754
  130MOL0     H17539   2.745   0.245   6.447 -1.2748 -1.1755  1.2618
  130MOL0     H17540   2.836   0.420   6.361 -0.0057 -0.9293  0.7070
  130MOL0     H17541   2.889   0.288   6.257  1.9611  0.7688  1.9366
  130MOL0     H17542   2.866   0.590   6.187 -0.6419  0.4175 -1.3126
  130MOL0     H17543   2.900   0.465   6.070  0.9058  1.1463  0.0446
  130MOL0     H17544   3.094   0.390   6.215  0.1483  0.6477 -3.8433
  130MOL0     H17545   3.072   0.527   6.318  0.7654 -0.9151 -1.3370
  130MOL0     H17546   3.092   0.682   6.140 -1.5872 -1.2517  2.0398
  130MOL0     H17547   3.105   0.542   6.023  2.1612  2.0116 -1.2787
  130MOL0     H17548   3.487   0.504   6.167 -0.6816 -0.8031  2.6248
  130MOL0     H17549   2.458   0.370   6.162  1.8913  0.0088 -0.0529
  130MOL0     H17550   2.286   0.258   6.287 -0.0900 -0.2281 -0.9760
  131MOL0     O17551   2.439   5.099  10.235 -1.0322 -0.0564 -0.1092
  131MOL0     C17552   2.352   5.177  10.212  0.0233 -0.3095 -0.1541
  131MOL0     O17553   2.302   5.275  10.301 -0.3008 -0.5769  0.3919
  131MOL0     C17554   2.353   5.303  10.422 -0.1866  0.5030 -0.6212
  131MOL0     C17555   2.482   5.344  10.434 -0.5848  0.3162 -0.0030
  131MOL0     C17556   2.540   5.393  10.550  0.1579  0.3433 -0.2211
  131MOL0     C17557   2.449   5.408  10.660 -0.6090  0.2955  0.3163
  131MOL0     O17558   2.490   5.483  10.768 -0.0269 -0.1053  0.6258
  131MOL0     C17559   2.509   5.616  10.726  0.6374  0.7357 -0.3992
  131MOL0     C17560   2.401   5.693  10.796 -0.5522  0.3219  0.7832
  131MOL0     C17561   2.408   5.849  10.812 -0.9403 -0.1546  0.1317
  131MOL0     C17562   2.534   5.913  10.879  0.5542 -0.3615  0.4985
  131MOL0     C17563   2.563   5.860  11.018  0.3999 -0.8400 -0.0214
  131MOL0     C17564   2.445   5.903  11.105 -0.1089  0.1216  0.2839
  131MOL0     C17565   2.481   5.892  11.258  0.3776  0.1644 -0.7943
  131MOL0     C17566   2.365   5.897  11.364 -0.3907 -0.3603  0.2586
  131MOL0     N17567   2.286   6.015  11.343 -0.4142 -0.6124 -0.6104
  131MOL0     C17568   2.321   6.144  11.357 -0.6894  0.4311  0.3914
  131MOL0     C17569   2.208   6.213  11.334 -0.5352 -0.5958  0.9711
  131MOL0     C17570   2.189   6.359  11.341  0.4958 -0.4999 -0.8045
  131MOL0     C17571   2.203   6.424  11.484 -0.0389 -0.2239 -0.1621
  131MOL0     C17572   2.075   6.408  11.571 -0.8183  0.3996  0.0617
  131MOL0     C17573   2.113   6.468  11.707  0.1799 -0.3849 -0.6935
  131MOL0     O17574   2.103   6.619  11.701  0.2678  1.1209  0.1837
  131MOL0     C17575   2.157   6.686  11.804  0.9873  0.4453  0.4532
  131MOL0     C17576   2.211   6.626  11.917 -0.0483 -0.1465 -0.1044
  131MOL0     C17577   2.280   6.700  12.021  0.4432  0.1452 -0.0392
  131MOL0     C17578   2.329   6.617  12.137  0.2114 -1.1127  0.2254
  131MOL0     C17579   2.295   6.839  12.003  0.3827 -0.1880  0.4717
  131MOL0     C17580   2.373   6.934  12.092  0.1044  0.4333  0.1436
  131MOL0     O17581   2.435   6.883  12.198  0.3340 -0.7739  0.3268
  131MOL0     C17582   2.494   6.974  12.285  0.1099  0.6506  0.7135
  131MOL0     C17583   2.432   7.081  12.353 -0.2985  0.8104  0.6255
  131MOL0     C17584   2.484   7.160  12.463 -0.9929 -0.4494  0.9255
  131MOL0     C17585   2.617   7.147  12.484 -0.1248 -0.3993 -0.3214
  131MOL0     O17586   2.690   7.229  12.567 -0.1085 -0.3903  0.2631
  131MOL0     C17587   2.631   7.346  12.634 -0.4544  0.2320  0.1115
  131MOL0     C17588   2.743   7.441  12.684 -0.4399  0.0235  0.7299
  131MOL0     C17589   2.841   7.376  12.778 -0.0992  0.3584 -0.6776
  131MOL0     C17590   2.971   7.455  12.801  0.3579  0.3657  0.8075
  131MOL0     C17591   3.068   7.385  12.892 -0.6601  0.4662 -0.7402
  131MOL0     C17592   3.197   7.461  12.929  0.4399 -0.1132 -1.0366
  131MOL0     C17593   3.284   7.386  13.042  0.3284  0.2234  0.1469
  131MOL0     C17594   3.392   7.473  13.092  0.3786  0.1671 -0.1663
  131MOL0    Cl17595   3.304   7.578  13.221 -0.5984  0.0635  0.2683
  131MOL0     C17596   2.686   7.046  12.419  0.1933  0.0756 -0.5871
  131MOL0     C17597   2.625   6.963  12.328 -0.0746  0.7789 -0.2756
  131MOL0     O17598   2.384   7.050  12.059  0.5781 -0.3957 -0.0108
  131MOL0     C17599   2.234   6.899  11.894 -0.5733  1.0229 -0.7747
  131MOL0     C17600   2.176   6.823  11.787 -0.4943 -0.1920  0.0313
  131MOL0     N17601   2.108   6.125  11.293  0.3015  0.2733 -0.4317
  131MOL0     N17602   2.157   6.004  11.308 -0.1697  0.5996 -0.0468
  131MOL0     C17603   2.317   5.365  10.649  0.1313  0.4954  0.0906
  131MOL0     C17604   2.270   5.307  10.537  0.6122 -0.1378  0.1963
  131MOL0     C17605   2.303   5.169  10.070  0.8466  0.1833  0.4406
  131MOL0     C17606   2.182   5.234  10.044  0.0622  0.5963  0.1896
  131MOL0     C17607   2.125   5.234   9.916  0.7297 -1.2719 -0.1460
  131MOL0     C17608   2.177   5.160   9.818  0.4051  0.7860  0.7055
  131MOL0     O17609   2.121   5.175   9.696  0.3285  0.8220  0.0684
  131MOL0     C17610   2.167   5.286   9.612 -0.2911  0.1227  0.2331
  131MOL0     C17611   2.073   5.316   9.493 -0.1000 -0.6369  0.9614
  131MOL0     C17612   1.928   5.342   9.534  0.5924  0.4945  0.3831
  131MOL0     C17613   1.915   5.457   9.627 -0.1088 -0.3892  0.4953
  131MOL0     C17614   1.937   5.579   9.556 -0.8571 -0.2198  0.2858
  131MOL0     C17615   1.941   5.668   9.474 -0.6090 -0.3851 -1.4981
  131MOL0     C17616   2.286   5.078   9.835 -0.0886  0.7291  1.2769
  131MOL0     C17617   2.352   5.087   9.964 -0.8296 -0.8699 -0.8119
  131MOL0     H17618   2.545   5.346  10.346  1.1659  1.2309  1.2241
  131MOL0     H17619   2.642   5.428  10.554  1.4586 -3.1893  1.1037
  131MOL0     H17620   2.601   5.656  10.769  1.2667  0.3939 -1.3980
  131MOL0     H17621   2.510   5.629  10.617 -0.4653  0.4160 -0.4663
  131MOL0     H17622   2.310   5.679  10.737  0.3816 -0.6908 -0.4716
  131MOL0     H17623   2.385   5.657  10.898 -0.3716  1.4131  1.2068
  131MOL0     H17624   2.380   5.892  10.715  0.5735 -1.2300 -0.8151
  131MOL0     H17625   2.323   5.886  10.872  0.3124  3.7394 -0.2068
  131MOL0     H17626   2.617   5.900  10.809  0.6451 -0.5783  0.6464
  131MOL0     H17627   2.515   6.017  10.907 -0.6467 -1.3736  3.8971
  131MOL0     H17628   2.579   5.752  11.026  2.3193 -0.4962  2.0018
  131MOL0     H17629   2.653   5.912  11.052  0.8452 -1.5590 -0.0865
  131MOL0     H17630   2.406   6.003  11.084  0.9980  0.3034 -1.0695
  131MOL0     H17631   2.364   5.830  11.101 -0.8780  0.9328  0.7880
  131MOL0     H17632   2.533   5.798  11.277 -1.5363 -0.9677 -0.8711
  131MOL0     H17633   2.546   5.974  11.290 -2.1995  1.8097  0.5266
  131MOL0     H17634   2.422   5.902  11.457  2.9531 -2.7235 -1.4511
  131MOL0     H17635   2.297   5.814  11.342 -2.0181  1.7256 -3.7419
  131MOL0     H17636   2.407   6.191  11.406 -1.7284  1.6227  1.1389
  131MOL0     H17637   2.264   6.404  11.276  1.3824 -0.0195  0.5083
  131MOL0     H17638   2.091   6.381  11.297 -1.1420 -3.1885  1.1889
  131MOL0     H17639   2.213   6.532  11.476  0.8781 -0.1602  1.4425
  131MOL0     H17640   2.297   6.386  11.524  0.5006  0.5684 -0.6514
  131MOL0     H17641   2.060   6.303  11.596  0.7784  0.2010  0.2837
  131MOL0     H17642   1.990   6.454  11.521  0.6111  0.6868 -2.2550
  131MOL0     H17643   2.215   6.448  11.742  0.0910 -0.8996 -0.7179
  131MOL0     H17644   2.027   6.432  11.764 -2.3802  1.6586 -3.0514
  131MOL0     H17645   2.191   6.520  11.932  1.4190 -0.7066 -1.8489
  131MOL0     H17646   2.437   6.622  12.155  0.2509  0.8524 -0.2688
  131MOL0     H17647   2.276   6.653  12.226 -0.2496 -0.0985 -0.4397
  131MOL0     H17648   2.302   6.513  12.117 -2.2224 -0.4365 -0.2795
  131MOL0     H17649   2.328   7.089  12.322  0.9698  0.9570 -4.5656
  131MOL0     H17650   2.415   7.233  12.504  0.8972  1.2382  1.2551
  131MOL0     H17651   2.571   7.404  12.564  0.1459 -0.8417 -1.3597
  131MOL0     H17652   2.570   7.312  12.719 -3.3400  0.3460 -1.7844
  131MOL0     H17653   2.809   7.478  12.605  4.0043 -1.2940  3.4770
  131MOL0     H17654   2.692   7.529  12.726  0.4175  0.4398  0.9087
  131MOL0     H17655   2.870   7.282  12.732  0.5011  0.1782  0.0471
  131MOL0     H17656   2.794   7.369  12.877 -0.7974 -0.7279 -1.0747
  131MOL0     H17657   3.024   7.485  12.710 -0.1052 -0.6470  0.1875
  131MOL0     H17658   2.939   7.552  12.841  0.7757  1.4957 -1.4286
  131MOL0     H17659   3.093   7.283  12.863  0.7124  0.2383  1.0931
  131MOL0     H17660   3.014   7.376  12.986  0.4020  2.6867  0.1608
  131MOL0     H17661   3.252   7.469  12.834 -1.5896 -0.3663 -2.2888
  131MOL0     H17662   3.168   7.563  12.954  2.0130  0.3548 -1.0370
  131MOL0     H17663   3.325   7.294  12.999 -2.4336  0.6528 -4.0955
  131MOL0     H17664   3.228   7.360  13.132 -0.0684  1.8539  0.4039
  131MOL0     H17665   3.429   7.533  13.008 -0.9814 -0.0928 -0.9839
  131MOL0     H17666   3.479   7.419  13.129  0.7537 -1.3434 -3.0260
  131MOL0     H17667   2.794   7.045  12.430  0.2963 -1.1860 -1.4588
  131MOL0     H17668   2.677   6.882  12.278 -2.2392 -0.0602 -1.2734
  131MOL0     H17669   2.248   7.005  11.876  3.0487  0.9469  0.7103
  131MOL0     H17670   2.150   6.867  11.692  0.5895 -2.0933 -1.1896
  131MOL0     H17671   2.250   5.380  10.733  0.4515  0.3846  0.3689
  131MOL0     H17672   2.167   5.278  10.519  0.6954  0.9337 -2.3771
  131MOL0     H17673   2.141   5.283  10.132  0.9551 -0.1219  1.0330
  131MOL0     H17674   2.040   5.301   9.904  1.2966  0.1363  2.7129
  131MOL0     H17675   2.186   5.378   9.668 -0.9077 -0.4183  1.3592
  131MOL0     H17676   2.259   5.258   9.560 -0.1105  0.1074  0.5550
  131MOL0     H17677   2.078   5.224   9.435  0.8480 -0.2698  0.4341
  131MOL0     H17678   2.107   5.395   9.426 -1.0284 -0.3906  0.7619
  131MOL0     H17679   1.884   5.253   9.581 -1.7802  0.6861 -1.2810
  131MOL0     H17680   1.867   5.369   9.448 -1.6029  1.6220  2.1989
  131MOL0     H17681   1.974   5.448   9.719 -1.1449 -2.6726  1.0262
  131MOL0     H17682   1.812   5.448   9.665  0.0167 -2.2722  0.5001
  131MOL0     H17683   1.926   5.755   9.414  1.1194  1.8889  1.0820
  131MOL0     H17684   2.317   5.003   9.762  0.9806  2.7961 -0.5268
  131MOL0     H17685   2.433   5.019   9.987 -1.0950 -0.9154  0.0474
  132MOL0     O17686   2.944   1.887   7.022 -0.0271  0.0800  0.4054
  132MOL0     C17687   3.011   1.933   6.927 -0.3078 -0.0611  0.1982
  132MOL0     O17688   2.989   2.051   6.861  0.4974  0.5504  0.1307
  132MOL0     C17689   2.871   2.114   6.892  0.2870 -0.0392 -0.6057
  132MOL0     C17690   2.871   2.237   6.955 -0.3863  0.3292  0.3777
  132MOL0     C17691   2.748   2.302   6.972 -0.6968  0.2447 -0.2939
  132MOL0     C17692   2.634   2.238   6.930  0.3246  0.0703  0.5610
  132MOL0     O17693   2.524   2.314   6.951  0.3498 -0.2108  0.0490
  132MOL0     C17694   2.396   2.265   6.986  0.5985  0.1380 -0.3427
  132MOL0     C17695   2.374   2.248   7.140 -0.6688  0.4967 -0.8555
  132MOL0     C17696   2.223   2.246   7.172 -0.8206  0.4661  0.3178
  132MOL0     C17697   2.192   2.231   7.323 -0.8204 -0.5807 -0.6033
  132MOL0     C17698   2.168   2.084   7.382  0.8266 -0.3102  0.0152
  132MOL0     C17699   2.151   2.088   7.533 -0.5829 -0.8373 -0.5844
  132MOL0     C17700   2.016   2.143   7.586 -0.7179  0.8587 -0.3244
  132MOL0     C17701   1.911   2.030   7.591  0.3989  0.6049  0.4011
  132MOL0     N17702   1.794   2.053   7.506  0.1267  0.6649 -1.6340
  132MOL0     C17703   1.666   2.002   7.524 -0.1656 -0.5958  0.1355
  132MOL0     C17704   1.600   2.043   7.409  0.0893 -0.7761  0.7473
  132MOL0     C17705   1.463   2.014   7.368  0.1668 -0.7849 -0.6018
  132MOL0     C17706   1.356   1.990   7.481  0.2096  0.2721  0.0517
  132MOL0     C17707   1.213   1.982   7.423  0.1373  0.7822 -0.2958
  132MOL0     C17708   1.202   1.848   7.357  0.2898  0.3467 -0.3612
  132MOL0     O17709   1.254   1.836   7.222  0.1629 -0.5596  0.2363
  132MOL0     C17710   1.223   1.733   7.149  0.2973  0.6403  0.7118
  132MOL0     C17711   1.098   1.706   7.091  0.0009 -0.0775  0.0498
  132MOL0     C17712   1.075   1.597   7.004 -0.9720 -0.6046  0.7677
  132MOL0     C17713   0.932   1.584   6.955 -0.6794  0.0056  1.2354
  132MOL0     C17714   1.183   1.506   6.984  0.5839 -0.2491 -0.5933
  132MOL0     C17715   1.168   1.383   6.908  1.2177  0.1565 -0.8084
  132MOL0     O17716   1.043   1.323   6.926 -0.1974 -0.2350  0.3413
  132MOL0     C17717   1.014   1.210   6.858  0.9952 -0.0857 -0.0473
  132MOL0     C17718   0.899   1.200   6.782  0.5237  0.0109  0.8048
  132MOL0     C17719   0.870   1.074   6.715 -0.8614  0.7057  0.5698
  132MOL0     C17720   0.943   0.962   6.734 -0.6394  0.1464  0.2079
  132MOL0     O17721   0.913   0.844   6.674  0.3476 -0.2853  0.3652
  132MOL0     C17722   0.773   0.815   6.662  0.1499 -0.6033 -0.0019
  132MOL0     C17723   0.761   0.667   6.671  0.7923  0.6127 -0.6213
  132MOL0     C17724   0.623   0.621   6.649  0.0932  0.3987  0.4243
  132MOL0     C17725   0.620   0.469   6.703 -0.3458 -0.2128 -0.9329
  132MOL0     C17726   0.463   0.431   6.702 -0.5844 -0.6761 -0.4149
  132MOL0     C17727   0.460   0.277   6.698  0.4016 -0.4141 -0.4558
  132MOL0     C17728   0.315   0.221   6.702 -0.9148 -0.1255  1.4395
  132MOL0     C17729   0.243   0.264   6.829 -0.1637  1.4623 -0.0873
  132MOL0    Cl17730   0.336   0.228   6.963  0.5450  0.3977 -0.4069
  132MOL0     C17731   1.065   0.970   6.802 -1.1420 -0.2725  0.1708
  132MOL0     C17732   1.097   1.089   6.868  0.7168  0.1376  0.0739
  132MOL0     O17733   1.264   1.337   6.849  0.4091  0.3282  0.0388
  132MOL0     C17734   1.301   1.533   7.029 -0.1579  0.3767  1.0991
  132MOL0     C17735   1.321   1.638   7.121 -0.3492  0.0483 -0.2398
  132MOL0     N17736   1.691   2.124   7.335  0.1150  0.4165 -0.5819
  132MOL0     N17737   1.797   2.129   7.397 -0.0788  0.8212  0.0989
  132MOL0     C17738   2.632   2.112   6.862  0.3119 -0.1954 -0.1647
  132MOL0     C17739   2.757   2.052   6.855  1.4765  0.1109 -0.0836
  132MOL0     C17740   3.104   1.832   6.885  0.6661  0.2070 -0.8212
  132MOL0     C17741   3.142   1.722   6.972 -0.3380 -1.2820 -1.0000
  132MOL0     C17742   3.232   1.634   6.938 -0.3699  0.4768  0.1984
  132MOL0     C17743   3.306   1.644   6.814 -0.9495  0.0023  0.3128
  132MOL0     O17744   3.406   1.545   6.790 -0.1295 -0.7556 -0.3922
  132MOL0     C17745   3.532   1.588   6.736 -0.1159 -0.6708 -1.1503
  132MOL0     C17746   3.626   1.649   6.853  0.6716  0.6454 -0.9315
  132MOL0     C17747   3.673   1.551   6.964  0.5117 -0.1469 -0.4832
  132MOL0     C17748   3.761   1.623   7.072  0.0578  0.8777  0.5491
  132MOL0     C17749   3.869   1.704   7.021 -0.5360  0.5008  0.4793
  132MOL0     C17750   3.963   1.769   6.982 -0.6011 -0.2347 -0.3225
  132MOL0     C17751   3.266   1.741   6.722 -0.7226  0.0392  0.6352
  132MOL0     C17752   3.161   1.831   6.758  0.4081  0.0604 -0.2116
  132MOL0     H17753   2.961   2.291   6.981  0.0553  0.2256 -0.8550
  132MOL0     H17754   2.741   2.400   7.020 -0.8080  0.0084  0.1856
  132MOL0     H17755   2.326   2.338   6.944  3.6859  3.1945 -0.6369
  132MOL0     H17756   2.366   2.175   6.933  1.7452  0.6297 -1.9099
  132MOL0     H17757   2.428   2.155   7.160 -0.3198  0.4637 -1.8817
  132MOL0     H17758   2.430   2.326   7.192 -1.6328 -1.3717  3.3830
  132MOL0     H17759   2.186   2.341   7.133 -0.9097 -0.7983 -2.9901
  132MOL0     H17760   2.171   2.165   7.119 -0.2275  0.2073  0.1218
  132MOL0     H17761   2.270   2.275   7.386  0.6318 -2.1913 -1.1789
  132MOL0     H17762   2.100   2.287   7.342 -2.2342 -2.0237 -2.8081
  132MOL0     H17763   2.076   2.043   7.339  1.3790 -2.3542  0.6664
  132MOL0     H17764   2.254   2.022   7.355  0.3734 -1.2124  0.5830
  132MOL0     H17765   2.160   1.987   7.573 -0.3538 -0.2907  0.8104
  132MOL0     H17766   2.231   2.156   7.565 -0.3145 -0.4374 -2.0527
  132MOL0     H17767   2.021   2.170   7.692  1.4329 -1.1122  0.1727
  132MOL0     H17768   1.984   2.234   7.535  0.5731  1.8167  0.5302
  132MOL0     H17769   1.874   2.027   7.694 -3.1408  1.2547 -0.7300
  132MOL0     H17770   1.951   1.933   7.560  0.9938  0.2766  2.0944
  132MOL0     H17771   1.638   1.926   7.596  1.3023 -2.7103 -1.3965
  132MOL0     H17772   1.424   2.098   7.310 -0.5270 -0.4053  0.3909
  132MOL0     H17773   1.465   1.921   7.311 -0.6254 -0.7588 -0.6834
  132MOL0     H17774   1.369   2.073   7.550 -1.2128  1.0598 -0.5814
  132MOL0     H17775   1.373   1.893   7.529 -0.4367 -0.0137 -0.2867
  132MOL0     H17776   1.184   2.057   7.349  1.9159  2.6559  0.8115
  132MOL0     H17777   1.141   1.982   7.505 -0.2208  0.6258 -0.6059
  132MOL0     H17778   1.095   1.826   7.352  0.4355 -0.0646 -1.9720
  132MOL0     H17779   1.242   1.770   7.422 -3.2278  0.7637  2.6961
  132MOL0     H17780   1.014   1.772   7.107  0.7393  1.3673 -1.6349
  132MOL0     H17781   0.875   1.677   6.964  1.2121  1.9842 -3.6752
  132MOL0     H17782   0.925   1.542   6.854 -2.2265 -0.7426  1.6175
  132MOL0     H17783   0.889   1.512   7.026 -0.8674 -0.6198  0.5077
  132MOL0     H17784   0.820   1.272   6.764 -1.7070 -2.2456  0.9480
  132MOL0     H17785   0.782   1.075   6.651  0.3383  2.5523 -1.1754
  132MOL0     H17786   0.714   0.859   6.743 -0.1561  1.5603 -1.3158
  132MOL0     H17787   0.732   0.851   6.567 -4.6793 -0.7643  1.7575
  132MOL0     H17788   0.833   0.622   6.601 -0.4870 -2.1253 -0.3243
  132MOL0     H17789   0.794   0.636   6.770  4.5284  1.7642 -1.3464
  132MOL0     H17790   0.590   0.634   6.545  3.6504  0.8039 -0.7701
  132MOL0     H17791   0.568   0.690   6.714  0.1278  0.3270  0.5305
  132MOL0     H17792   0.678   0.396   6.645  1.2057  0.3237 -0.1123
  132MOL0     H17793   0.664   0.456   6.802  0.1379  2.0473 -0.8060
  132MOL0     H17794   0.399   0.471   6.623 -3.1474  0.0658  1.8956
  132MOL0     H17795   0.408   0.461   6.792 -0.0404  0.2978 -0.3900
  132MOL0     H17796   0.513   0.235   6.612 -1.8102 -0.4698 -1.8542
  132MOL0     H17797   0.507   0.236   6.788 -0.1642 -1.5965 -0.6756
  132MOL0     H17798   0.312   0.112   6.699  2.0207 -0.3024  1.9130
  132MOL0     H17799   0.265   0.250   6.609 -2.6970 -2.2242  1.6786
  132MOL0     H17800   0.145   0.216   6.820  0.0240  1.3802 -2.2479
  132MOL0     H17801   0.233   0.372   6.832  0.4548  1.5112  2.6869
  132MOL0     H17802   1.121   0.878   6.816 -1.0543 -0.1739  0.4886
  132MOL0     H17803   1.183   1.104   6.933  2.1754 -1.0312 -1.5003
  132MOL0     H17804   1.391   1.477   7.003 -2.2727 -2.2337 -1.1315
  132MOL0     H17805   1.415   1.663   7.171  0.2723 -1.7531 -0.4498
  132MOL0     H17806   2.538   2.078   6.821 -1.0175 -0.4506  2.8758
  132MOL0     H17807   2.772   1.956   6.806  1.9845  1.0098 -1.7830
  132MOL0     H17808   3.093   1.722   7.068 -1.0189  0.8012 -1.2914
  132MOL0     H17809   3.259   1.551   7.002 -2.0004 -1.3530 -1.3503
  132MOL0     H17810   3.587   1.502   6.696  0.6256  0.3336 -2.3748
  132MOL0     H17811   3.515   1.656   6.652 -0.6496 -1.3877 -1.6416
  132MOL0     H17812   3.581   1.738   6.896 -0.5425  0.5435 -1.9309
  132MOL0     H17813   3.720   1.677   6.803  1.0120 -1.0828 -1.3656
  132MOL0     H17814   3.724   1.468   6.915 -0.3410 -1.6468  1.0412
  132MOL0     H17815   3.578   1.515   7.005 -0.0033  3.9653  2.6316
  132MOL0     H17816   3.799   1.549   7.143 -0.8075  1.7743  1.9905
  132MOL0     H17817   3.697   1.692   7.128 -0.6178  0.1405  0.6915
  132MOL0     H17818   4.043   1.820   6.932 -0.5888  0.9955  0.8849
  132MOL0     H17819   3.316   1.746   6.626 -1.8505 -0.2644  0.0169
  132MOL0     H17820   3.138   1.914   6.691  2.3231 -1.9095 -3.5538
  133MOL0     O17821   6.005  10.771   8.981  0.0138 -0.3693  0.0467
  133MOL0     C17822   6.022  10.824   8.875  0.2216  0.0645  0.6115
  133MOL0     O17823   5.990  10.952   8.842 -0.0006 -0.1649  1.2657
  133MOL0     C17824   5.918  11.033   8.924 -0.4701  0.1451  0.0853
  133MOL0     C17825   5.862  11.148   8.862  0.5868  0.2161 -0.5052
  133MOL0     C17826   5.824  11.257   8.942  0.2541 -0.3872 -0.2961
  133MOL0     C17827   5.832  11.245   9.081  0.1052  0.6512  0.9889
  133MOL0     O17828   5.784  11.349   9.152  0.2268  0.5060 -0.2319
  133MOL0     C17829   5.642  11.344   9.176 -0.5395 -0.5572  0.6482
  133MOL0     C17830   5.608  11.477   9.232  0.1764 -0.5367 -0.2469
  133MOL0     C17831   5.663  11.503   9.372  0.0915  0.5889  0.8434
  133MOL0     C17832   5.628  11.397   9.483  0.1194 -0.1439 -0.3005
  133MOL0     C17833   5.631  11.470   9.613  0.1036 -1.6917 -0.0102
  133MOL0     C17834   5.607  11.396   9.748 -0.2567  0.2685  0.0563
  133MOL0     C17835   5.591  11.508   9.847 -0.0659 -0.4703 -1.0611
  133MOL0     C17836   5.599  11.479   9.991  0.2367 -0.2099 -0.5761
  133MOL0     N17837   5.720  11.392  10.018 -0.5668 -0.1398 -0.4027
  133MOL0     C17838   5.730  11.261  10.071  0.4373  0.1472  0.4220
  133MOL0     C17839   5.859  11.229  10.045 -0.3541  0.5319  0.6877
  133MOL0     C17840   5.913  11.100  10.109 -0.7849  0.6287  0.4616
  133MOL0     C17841   6.018  11.128  10.212  0.1079 -0.3020 -0.4043
  133MOL0     C17842   5.964  11.209  10.333 -0.6480 -0.1033 -0.2284
  133MOL0     C17843   6.074  11.290  10.401  0.5984 -0.0787  0.8521
  133MOL0     O17844   6.043  11.323  10.537  0.4577 -0.3078 -0.3679
  133MOL0     C17845   6.105  11.265  10.642 -0.7513  0.2262 -0.6930
  133MOL0     C17846   6.111  11.344  10.756 -0.4750  0.4820  0.3580
  133MOL0     C17847   6.184  11.308  10.874  1.4444 -0.1815 -0.2205
  133MOL0     C17848   6.150  11.397  10.995 -1.0590  0.0953  0.4260
  133MOL0     C17849   6.276  11.202  10.869 -0.0830  0.3454  0.3201
  133MOL0     C17850   6.373  11.178  10.981 -0.4465  0.1625  0.0245
  133MOL0     O17851   6.361  11.246  11.098 -0.7254  0.6665 -0.3479
  133MOL0     C17852   6.421  11.214  11.224  0.0145 -0.0279  0.5139
  133MOL0     C17853   6.413  11.322  11.308  0.0655 -0.0221 -0.3135
  133MOL0     C17854   6.471  11.313  11.437 -0.4671  0.0254  0.5355
  133MOL0     C17855   6.530  11.197  11.478 -0.0130 -0.4395 -0.7486
  133MOL0     O17856   6.586  11.207  11.597  0.0916 -0.3785 -0.3002
  133MOL0     C17857   6.553  11.101  11.684  0.4823  0.7637 -0.1682
  133MOL0     C17858   6.623  11.115  11.813  0.8102 -0.2970  0.1084
  133MOL0     C17859   6.578  11.007  11.921 -0.5860 -0.1940  0.3805
  133MOL0     C17860   6.591  11.066  12.064  0.0756 -0.2489  0.6413
  133MOL0     C17861   6.585  10.959  12.179 -0.2616 -0.3175  0.3666
  133MOL0     C17862   6.610  11.038  12.316 -0.2170  0.4253  0.4491
  133MOL0     C17863   6.641  10.938  12.430 -0.1538 -0.3384 -0.3809
  133MOL0     C17864   6.544  10.813  12.434  0.3080 -0.8024  0.1343
  133MOL0    Cl17865   6.371  10.874  12.466 -0.1726 -0.0710 -0.2129
  133MOL0     C17866   6.536  11.085  11.399 -0.2992  0.6755  0.3119
  133MOL0     C17867   6.483  11.094  11.266  0.0152 -0.0099 -0.6646
  133MOL0     O17868   6.472  11.107  10.951 -0.0869 -0.3296  0.0861
  133MOL0     C17869   6.277  11.121  10.755 -1.2369 -0.0616 -0.3811
  133MOL0     C17870   6.195  11.154  10.647 -0.4273 -0.1106  0.5326
  133MOL0     N17871   5.926  11.334   9.981 -0.3910 -0.1469  0.4815
  133MOL0     N17872   5.839  11.428   9.978 -0.6753 -0.5348  0.3042
  133MOL0     C17873   5.873  11.127   9.142  0.2479  0.6706  0.4588
  133MOL0     C17874   5.919  11.027   9.063  0.3049  0.3782 -0.1680
  133MOL0     C17875   6.109  10.752   8.777  0.3829 -0.5770 -0.5424
  133MOL0     C17876   6.155  10.816   8.660 -0.5328 -0.7984  0.9333
  133MOL0     C17877   6.254  10.751   8.576 -0.6201 -0.1662 -0.8098
  133MOL0     C17878   6.301  10.627   8.608  0.4556 -0.0358  0.0752
  133MOL0     O17879   6.402  10.575   8.527  0.0088  0.2972  0.2278
  133MOL0     C17880   6.431  10.435   8.540 -0.2904  0.1744  0.1610
  133MOL0     C17881   6.555  10.398   8.456 -0.3104 -0.7831 -0.9534
  133MOL0     C17882   6.691  10.468   8.490  0.4433 -0.0856 -0.0810
  133MOL0     C17883   6.801  10.429   8.390  0.1914 -0.6811 -0.0356
  133MOL0     C17884   6.926  10.505   8.417 -0.5646  0.0559 -0.3292
  133MOL0     C17885   7.033  10.559   8.437  0.0108 -0.1220 -0.2771
  133MOL0     C17886   6.242  10.561   8.720  0.1265 -0.2900 -0.1901
  133MOL0     C17887   6.148  10.623   8.801 -0.9406 -0.3940 -0.0038
  133MOL0     H17888   5.866  11.169   8.756 -0.9614  4.1138  0.0281
  133MOL0     H17889   5.777  11.338   8.888 -2.1541 -1.8377 -0.5235
  133MOL0     H17890   5.582  11.320   9.088 -1.2921 -2.5972  1.6401
  133MOL0     H17891   5.621  11.267   9.250  1.1561  0.0159  1.7838
  133MOL0     H17892   5.656  11.548   9.164 -0.9655  0.1950 -0.3174
  133MOL0     H17893   5.501  11.487   9.251  0.7240 -0.3365  3.6564
  133MOL0     H17894   5.771  11.516   9.374  0.0508  0.9675  0.5052
  133MOL0     H17895   5.616  11.598   9.399  1.3484  1.6637 -0.6413
  133MOL0     H17896   5.522  11.376   9.467  0.0351  0.3538 -0.4025
  133MOL0     H17897   5.704  11.318   9.480  1.3025  0.9533 -0.2745
  133MOL0     H17898   5.725  11.523   9.630  0.1898 -1.8454 -0.0077
  133MOL0     H17899   5.552  11.546   9.607  1.2226  0.0283  3.7500
  133MOL0     H17900   5.518  11.334   9.735  0.1037 -0.1214 -0.5828
  133MOL0     H17901   5.693  11.332   9.772 -2.2103 -3.4359 -1.9796
  133MOL0     H17902   5.669  11.583   9.831 -0.7910  1.0901  1.9963
  133MOL0     H17903   5.498  11.564   9.829 -0.4194 -0.1996  1.2489
  133MOL0     H17904   5.506  11.434  10.029  0.6182 -0.6266 -0.1244
  133MOL0     H17905   5.619  11.579  10.033  0.7540 -0.1178 -1.0387
  133MOL0     H17906   5.651  11.196  10.109 -0.2488  1.5826  1.5963
  133MOL0     H17907   5.843  11.033  10.160  0.4266 -0.4631  0.7467
  133MOL0     H17908   5.963  11.041  10.031  0.5256  0.4026  1.4400
  133MOL0     H17909   6.096  11.184  10.159  1.3073 -3.0534 -1.7395
  133MOL0     H17910   6.056  11.035  10.255 -0.2044 -0.3593 -0.2431
  133MOL0     H17911   5.924  11.147  10.414  1.2781  0.9461  1.6201
  133MOL0     H17912   5.899  11.289  10.299 -1.6721 -1.8922 -2.7609
  133MOL0     H17913   6.109  11.375  10.342 -1.0989 -1.2861 -2.1302
  133MOL0     H17914   6.158  11.220  10.399 -0.6221 -1.6165  1.3389
  133MOL0     H17915   6.067  11.443  10.743  2.4685  1.5931 -2.7866
  133MOL0     H17916   6.242  11.437  11.040  0.2827 -1.7799 -0.5124
  133MOL0     H17917   6.094  11.486  10.965 -1.3323  0.2658  1.4226
  133MOL0     H17918   6.089  11.334  11.060 -2.8704  1.9091  0.5638
  133MOL0     H17919   6.378  11.419  11.274  0.3283 -0.7746 -2.9766
  133MOL0     H17920   6.462  11.393  11.510  1.1530 -1.7201  2.8056
  133MOL0     H17921   6.446  11.104  11.703  0.4173 -0.3825 -0.2487
  133MOL0     H17922   6.573  11.005  11.636 -0.6908  0.4515 -0.0670
  133MOL0     H17923   6.727  11.097  11.785  0.4643 -3.4314  0.4520
  133MOL0     H17924   6.600  11.212  11.857  2.4460 -0.0562  0.4948
  133MOL0     H17925   6.640  10.918  11.904 -1.5319 -0.7672 -0.1143
  133MOL0     H17926   6.478  10.974  11.893 -0.8445  1.5711 -0.9463
  133MOL0     H17927   6.686  11.120  12.060 -0.8773  1.4065 -1.9916
  133MOL0     H17928   6.510  11.138  12.078  1.0062  0.9020  0.3348
  133MOL0     H17929   6.668  10.889  12.165 -0.2812 -0.1466 -0.7266
  133MOL0     H17930   6.485  10.916  12.187 -1.8006  2.9456  0.2505
  133MOL0     H17931   6.694  11.105  12.295  0.2679 -0.9612 -2.7732
  133MOL0     H17932   6.524  11.102  12.335  0.5625  2.0973 -1.3159
  133MOL0     H17933   6.638  10.981  12.531 -1.5370  3.0066 -1.7285
  133MOL0     H17934   6.738  10.890  12.420 -0.0834  0.2451 -3.6136
  133MOL0     H17935   6.565  10.747  12.519  1.2290  0.2795  0.7815
  133MOL0     H17936   6.552  10.757  12.340 -3.2870 -1.5214  0.1297
  133MOL0     H17937   6.590  10.996  11.431 -1.2734 -0.7816 -1.7976
  133MOL0     H17938   6.500  11.015  11.193  0.6884 -0.7967  0.3203
  133MOL0     H17939   6.345  11.037  10.746 -1.9234 -0.5948 -0.6245
  133MOL0     H17940   6.202  11.099  10.553  1.7102  0.5653  0.2568
  133MOL0     H17941   5.870  11.118   9.250  2.2998 -1.7693  0.3835
  133MOL0     H17942   5.967  10.949   9.121  1.0492  0.2458 -0.9285
  133MOL0     H17943   6.119  10.915   8.634 -2.8295 -1.2888  1.9816
  133MOL0     H17944   6.304  10.803   8.494 -1.2810  0.1577 -1.0133
  133MOL0     H17945   6.453  10.408   8.644 -2.1247 -2.8116 -0.0965
  133MOL0     H17946   6.349  10.377   8.497  0.2251  1.5367 -2.9081
  133MOL0     H17947   6.532  10.416   8.351  3.1369 -0.9420 -1.8585
  133MOL0     H17948   6.565  10.290   8.476 -0.2385 -1.2006 -2.9767
  133MOL0     H17949   6.726  10.435   8.588  0.0366  0.6668  0.3331
  133MOL0     H17950   6.673  10.576   8.488 -3.0926 -0.5708 -0.9095
  133MOL0     H17951   6.765  10.431   8.287  1.6432 -3.3851 -0.6968
  133MOL0     H17952   6.826  10.325   8.410  2.5931 -0.6437 -2.2806
  133MOL0     H17953   7.123  10.614   8.451 -0.6281  0.8314  0.2307
  133MOL0     H17954   6.268  10.459   8.746  0.0638 -1.0841 -2.8806
  133MOL0     H17955   6.110  10.576   8.892  3.1190 -3.6834  0.3145
  134MOL0     O17956  10.686   9.982   8.841 -0.5826 -0.3660  0.0913
  134MOL0     C17957  10.656   9.909   8.750  1.1730 -0.1318 -0.7038
  134MOL0     O17958  10.533   9.914   8.682 -0.2700  0.1142  0.3697
  134MOL0     C17959  10.481  10.036   8.650  0.5539 -0.4123 -0.5175
  134MOL0     C17960  10.547  10.125   8.568 -0.0315  0.6755  0.6899
  134MOL0     C17961  10.501  10.255   8.528  1.0853 -0.0041  0.2634
  134MOL0     C17962  10.377  10.295   8.570  0.7905  0.2148 -0.1480
  134MOL0     O17963  10.339  10.413   8.526 -0.5234  0.5208 -0.5163
  134MOL0     C17964  10.203  10.449   8.549  0.8300 -0.5112 -0.2150
  134MOL0     C17965  10.177  10.585   8.498  0.8717  0.2454 -0.3493
  134MOL0     C17966  10.025  10.628   8.523 -0.5910  0.1842  0.9527
  134MOL0     C17967  10.013  10.778   8.497 -0.7250 -0.0416 -0.1990
  134MOL0     C17968   9.871  10.817   8.455 -0.6841 -0.3960  0.1696
  134MOL0     C17969   9.764  10.821   8.571  0.3467 -0.7618 -0.4233
  134MOL0     C17970   9.625  10.865   8.523 -0.1717  0.3256 -0.1727
  134MOL0     C17971   9.569  10.781   8.407 -0.4672 -0.6096 -0.7514
  134MOL0     N17972   9.440  10.814   8.363 -0.3023  0.5565  0.5194
  134MOL0     C17973   9.359  10.920   8.407  0.5058  0.1234  0.3480
  134MOL0     C17974   9.264  10.934   8.312  0.2647 -0.6240 -0.4099
  134MOL0     C17975   9.158  11.050   8.310 -0.6626  0.0833  0.2897
  134MOL0     C17976   9.014  10.992   8.311  0.1326  0.0716  0.1476
  134MOL0     C17977   8.916  11.105   8.322 -0.1279 -0.5573  0.0707
  134MOL0     C17978   8.868  11.158   8.184 -0.9550  1.1164  0.2305
  134MOL0     O17979   8.774  11.264   8.192  0.8911  0.0699  0.4913
  134MOL0     C17980   8.676  11.281   8.096 -0.5267 -0.4219  0.5517
  134MOL0     C17981   8.699  11.265   7.953 -1.2276  0.0060  0.1013
  134MOL0     C17982   8.600  11.302   7.855 -0.3740  0.1378 -0.2185
  134MOL0     C17983   8.629  11.280   7.709 -0.1856 -0.1147 -0.3171
  134MOL0     C17984   8.477  11.356   7.913  0.4095 -0.1677  0.8202
  134MOL0     C17985   8.372  11.408   7.814 -1.8030  0.1623  0.1573
  134MOL0     O17986   8.240  11.388   7.843  0.1567  0.0894 -0.1870
  134MOL0     C17987   8.143  11.453   7.768  0.0413 -0.0469  0.2892
  134MOL0     C17988   8.029  11.507   7.835 -0.5797 -1.1076 -0.0545
  134MOL0     C17989   7.931  11.580   7.773 -0.0451 -0.2799 -0.8950
  134MOL0     C17990   7.939  11.604   7.633  0.3863  0.4403  0.4436
  134MOL0     O17991   7.836  11.674   7.577 -0.5628 -0.1978 -0.3281
  134MOL0     C17992   7.837  11.711   7.442 -0.2077 -0.5519 -0.4588
  134MOL0     C17993   7.714  11.794   7.411 -0.0627 -0.8464  0.2022
  134MOL0     C17994   7.598  11.749   7.504 -0.1934  0.1001 -0.6739
  134MOL0     C17995   7.470  11.807   7.447 -0.2526  0.4090 -0.0767
  134MOL0     C17996   7.360  11.790   7.554 -0.1416  0.5949 -0.6199
  134MOL0     C17997   7.234  11.818   7.476 -0.0132  0.4935 -0.8685
  134MOL0     C17998   7.106  11.807   7.561 -0.8244 -0.2395  0.0105
  134MOL0     C17999   6.980  11.868   7.497  0.3789 -0.2367  0.6537
  134MOL0    Cl18000   6.929  11.764   7.347 -0.5024  0.0540  0.1802
  134MOL0     C18001   8.041  11.546   7.560 -0.4554  0.1505  0.5465
  134MOL0     C18002   8.142  11.472   7.625 -0.5861 -0.5888  0.4966
  134MOL0     O18003   8.414  11.452   7.703  0.0080 -0.2963  0.7720
  134MOL0     C18004   8.458  11.356   8.056 -0.0691  0.2489  1.1505
  134MOL0     C18005   8.553  11.333   8.146  0.8438 -0.3916  0.2342
  134MOL0     N18006   9.275  10.845   8.214 -0.0670 -0.2924  0.3162
  134MOL0     N18007   9.374  10.767   8.256 -0.0247 -0.0695  0.8005
  134MOL0     C18008  10.299  10.198   8.645 -0.7499  0.3715  0.0605
  134MOL0     C18009  10.349  10.067   8.684 -0.4543 -0.5277 -0.7254
  134MOL0     C18010  10.758   9.804   8.707 -0.3376  0.4645  0.0164
  134MOL0     C18011  10.735   9.706   8.617  0.8029  0.5267  0.0641
  134MOL0     C18012  10.830   9.623   8.573 -0.3173  0.2971 -0.7121
  134MOL0     C18013  10.959   9.633   8.627  0.3463  0.5722  0.7769
  134MOL0     O18014  11.047   9.535   8.583  0.6594 -0.3662  0.4641
  134MOL0     C18015  11.186   9.541   8.615 -0.2624 -0.1866  0.2116
  134MOL0     C18016  11.261   9.440   8.525  0.5620 -0.4401 -0.3020
  134MOL0     C18017  11.410   9.505   8.500 -1.1062  0.9856  0.1574
  134MOL0     C18018  11.523   9.426   8.423  0.0994  0.2450 -0.0310
  134MOL0     C18019  11.466   9.354   8.304  0.0916 -0.0572  0.0195
  134MOL0     C18020  11.427   9.292   8.211  0.2035 -0.1154  0.0879
  134MOL0     C18021  10.992   9.722   8.728  0.5416 -0.4358  0.8945
  134MOL0     C18022  10.894   9.812   8.761  0.8052 -0.1248 -0.0851
  134MOL0     H18023  10.642  10.091   8.527 -0.9554 -1.8073  0.4582
  134MOL0     H18024  10.564  10.320   8.468  0.4069 -1.3493 -2.0599
  134MOL0     H18025  10.147  10.375   8.491  0.4924  0.9854 -1.8981
  134MOL0     H18026  10.183  10.462   8.655  0.4959  3.0402 -0.5727
  134MOL0     H18027  10.255  10.654   8.533  1.8664 -2.2129  2.7652
  134MOL0     H18028  10.184  10.580   8.389 -3.7582 -0.3408 -0.8262
  134MOL0     H18029   9.968  10.579   8.444 -2.1103  2.5694  0.4685
  134MOL0     H18030   9.979  10.603   8.619 -2.3173  5.2617  1.7393
  134MOL0     H18031  10.036  10.831   8.590  2.1147  0.0213 -0.8724
  134MOL0     H18032  10.083  10.816   8.423 -1.4857 -0.6472 -1.2582
  134MOL0     H18033   9.881  10.916   8.410  1.6563 -1.7331 -2.5884
  134MOL0     H18034   9.834  10.757   8.371 -3.6424  0.9771  0.3573
  134MOL0     H18035   9.748  10.724   8.619 -0.5288 -0.6728 -0.5284
  134MOL0     H18036   9.801  10.882   8.654 -1.4215 -1.2696  0.7917
  134MOL0     H18037   9.551  10.865   8.604  0.1890 -1.3417  0.1988
  134MOL0     H18038   9.639  10.969   8.492  2.3259 -0.1986 -1.0252
  134MOL0     H18039   9.552  10.684   8.455 -3.1991 -1.6861 -3.5587
  134MOL0     H18040   9.639  10.763   8.325 -3.2001  0.7527 -3.5679
  134MOL0     H18041   9.370  10.979   8.497 -0.8908 -0.9567  1.2712
  134MOL0     H18042   9.171  11.094   8.409  0.7327  3.5193 -1.2740
  134MOL0     H18043   9.171  11.118   8.225 -4.0517  1.2673  0.5664
  134MOL0     H18044   9.003  10.928   8.399 -1.7582 -2.1607 -1.5602
  134MOL0     H18045   8.983  10.938   8.221 -4.3239  0.9034  0.9575
  134MOL0     H18046   8.956  11.186   8.384  1.1585 -0.4940 -0.7990
  134MOL0     H18047   8.814  11.083   8.356 -1.1151  1.2181 -1.5087
  134MOL0     H18048   8.833  11.068   8.132  0.9373 -2.0060  3.8644
  134MOL0     H18049   8.954  11.194   8.126 -0.5223 -2.3057 -1.5061
  134MOL0     H18050   8.793  11.215   7.931 -1.1359 -0.3279  1.2008
  134MOL0     H18051   8.653  11.379   7.668  2.9962 -0.0489  1.4012
  134MOL0     H18052   8.725  11.227   7.710 -1.0043 -1.6485  0.3282
  134MOL0     H18053   8.544  11.227   7.664  0.0860  0.2296 -1.2701
  134MOL0     H18054   8.025  11.500   7.943  0.0813  0.2187  0.0764
  134MOL0     H18055   7.843  11.623   7.821  0.0754 -3.1849  2.4152
  134MOL0     H18056   7.932  11.761   7.419  0.5938 -2.1308 -0.7837
  134MOL0     H18057   7.827  11.620   7.381  2.2838 -1.7516  0.7697
  134MOL0     H18058   7.732  11.902   7.417 -1.2504 -0.5403 -1.1961
  134MOL0     H18059   7.693  11.767   7.308  0.8360 -1.4685  0.1749
  134MOL0     H18060   7.624  11.776   7.606 -0.0729  3.5365 -1.5125
  134MOL0     H18061   7.595  11.639   7.499  0.8072 -0.0436  1.1035
  134MOL0     H18062   7.494  11.911   7.425 -3.3439  1.1853 -0.2764
  134MOL0     H18063   7.429  11.750   7.362 -2.6229 -5.4349  4.2635
  134MOL0     H18064   7.369  11.850   7.646 -1.5391  2.6204 -1.7219
  134MOL0     H18065   7.349  11.685   7.582  0.2054  0.6510 -0.2665
  134MOL0     H18066   7.245  11.917   7.433  3.5294  0.3958 -0.4793
  134MOL0     H18067   7.214  11.742   7.400 -2.4272  0.6218 -0.4316
  134MOL0     H18068   7.115  11.874   7.648 -1.4708 -0.9901  0.6698
  134MOL0     H18069   7.083  11.707   7.599 -0.7455  0.2292  1.3658
  134MOL0     H18070   7.002  11.973   7.476  1.4786 -0.4558  0.6206
  134MOL0     H18071   6.892  11.867   7.561 -2.0906  0.8418 -2.4337
  134MOL0     H18072   8.040  11.558   7.453 -3.5279  0.6110  0.5427
  134MOL0     H18073   8.204  11.406   7.564 -0.2267  0.6800 -0.5635
  134MOL0     H18074   8.365  11.379   8.107  0.3326  3.4919  0.6575
  134MOL0     H18075   8.541  11.351   8.253  1.2416  0.2582  0.1733
  134MOL0     H18076  10.191  10.211   8.644 -1.0170 -1.2894 -2.5325
  134MOL0     H18077  10.296   9.988   8.736  2.4797 -2.5078 -0.4820
  134MOL0     H18078  10.638   9.684   8.574  0.3328  0.2406  1.2272
  134MOL0     H18079  10.806   9.547   8.500  2.1739  1.0886 -2.5018
  134MOL0     H18080  11.218   9.640   8.579 -2.1653 -0.0483 -1.2688
  134MOL0     H18081  11.195   9.532   8.723 -0.9163  4.0023  0.7969
  134MOL0     H18082  11.213   9.437   8.427  1.2195  0.5982 -0.6634
  134MOL0     H18083  11.266   9.344   8.578  1.3603 -0.4965 -0.4686
  134MOL0     H18084  11.454   9.533   8.596 -1.7506 -1.8885  1.4207
  134MOL0     H18085  11.396   9.599   8.445 -5.0153 -0.4451 -1.7129
  134MOL0     H18086  11.565   9.355   8.496 -2.7282 -1.5695 -0.0145
  134MOL0     H18087  11.600   9.498   8.392 -1.2870  1.7979  0.0034
  134MOL0     H18088  11.402   9.246   8.117  1.6047  0.8954 -0.8370
  134MOL0     H18089  11.086   9.725   8.782 -0.9164 -1.1518  3.6681
  134MOL0     H18090  10.911   9.873   8.849  0.3136  0.2557 -0.2472
  135MOL0     O18091   0.290   6.790  10.726 -0.1755 -0.3710  0.3489
  135MOL0     C18092   0.385   6.878  10.732 -0.2477  0.6509 -0.3310
  135MOL0     O18093   0.382   7.003  10.794 -0.6082  0.4333  0.6812
  135MOL0     C18094   0.275   7.042  10.853 -0.8693 -0.1773 -0.3744
  135MOL0     C18095   0.278   7.026  10.992  1.2883 -0.3939 -0.1867
  135MOL0     C18096   0.175   7.075  11.074 -0.3703  0.1324  0.6132
  135MOL0     C18097   0.072   7.137  11.002 -0.5896  0.3623 -0.6793
  135MOL0     O18098  -0.028   7.202  11.073  0.1592 -0.5395 -0.1331
  135MOL0     C18099   0.008   7.261  11.199  0.3987 -0.1845  0.3485
  135MOL0     C18100  -0.093   7.380  11.227  0.8598 -0.5653  0.2309
  135MOL0     C18101  -0.077   7.490  11.335  0.2445  0.0722 -0.1844
  135MOL0     C18102  -0.003   7.418  11.451 -0.2900 -0.5576 -0.2427
  135MOL0     C18103  -0.032   7.483  11.577 -0.7141 -0.6181  0.0690
  135MOL0     C18104  -0.175   7.446  11.631  0.0503 -0.6060 -0.1633
  135MOL0     C18105  -0.202   7.496  11.771  0.6638  0.3377 -0.8583
  135MOL0     C18106  -0.230   7.641  11.777 -0.1549 -0.1975 -1.1227
  135MOL0     N18107  -0.310   7.679  11.894 -0.2159  0.4094 -0.2907
  135MOL0     C18108  -0.430   7.748  11.906 -0.3749  0.7880  0.1463
  135MOL0     C18109  -0.456   7.767  12.035 -0.3885  0.2909 -0.2069
  135MOL0     C18110  -0.587   7.809  12.087  0.3174  0.4986 -0.4575
  135MOL0     C18111  -0.690   7.701  12.096 -0.7000  0.4175  0.5875
  135MOL0     C18112  -0.683   7.596  12.215  1.3508  0.1580  0.3898
  135MOL0     C18113  -0.774   7.470  12.194  0.0515  0.4034 -0.1951
  135MOL0     O18114  -0.911   7.501  12.230  0.2433  1.7831 -0.6612
  135MOL0     C18115  -1.009   7.406  12.210 -0.3001 -0.2116  0.5588
  135MOL0     C18116  -1.120   7.461  12.144 -0.2595 -0.0298 -0.0678
  135MOL0     C18117  -1.228   7.387  12.118 -0.6665 -0.2283  0.7440
  135MOL0     C18118  -1.336   7.451  12.030  0.6029  0.0098 -0.0399
  135MOL0     C18119  -1.238   7.262  12.169 -0.4091  0.2474 -0.0657
  135MOL0     C18120  -1.362   7.179  12.160 -1.3641  0.4236 -0.1753
  135MOL0     O18121  -1.479   7.243  12.141  0.5093 -0.3213 -0.5330
  135MOL0     C18122  -1.604   7.191  12.123  0.5446 -0.4111 -0.3752
  135MOL0     C18123  -1.696   7.276  12.061  0.2288 -0.6376 -0.6724
  135MOL0     C18124  -1.822   7.216  12.037  0.0137 -0.3299  0.8475
  135MOL0     C18125  -1.867   7.093  12.087 -0.0681  0.1206  0.4214
  135MOL0     O18126  -1.995   7.053  12.062 -0.8516  0.6262 -0.2980
  135MOL0     C18127  -2.015   6.908  12.038 -0.6371 -0.5273  0.2686
  135MOL0     C18128  -2.152   6.880  11.989  0.6219  0.0706 -0.5339
  135MOL0     C18129  -2.174   6.947  11.850  0.5045 -0.5277 -0.1876
  135MOL0     C18130  -2.314   6.907  11.792 -0.0352 -0.2138 -0.1905
  135MOL0     C18131  -2.350   6.983  11.657 -0.2933  0.8180  0.1012
  135MOL0     C18132  -2.427   7.107  11.692 -0.7839  0.0320  0.4274
  135MOL0     C18133  -2.468   7.183  11.572  0.8988  0.3626  0.0985
  135MOL0     C18134  -2.495   7.331  11.600 -0.1252 -0.4728  0.1847
  135MOL0    Cl18135  -2.627   7.370  11.721  0.0987  0.0613  0.3740
  135MOL0     C18136  -1.770   7.010  12.146  0.2414  0.4246 -0.7436
  135MOL0     C18137  -1.642   7.061  12.170 -0.5505  0.3154 -0.1468
  135MOL0     O18138  -1.346   7.059  12.173  0.1430 -0.2034  0.3556
  135MOL0     C18139  -1.127   7.201  12.235 -0.0744 -0.8206 -0.2607
  135MOL0     C18140  -1.003   7.268  12.242 -0.5857  0.2496  0.5619
  135MOL0     N18141  -0.353   7.702  12.111 -0.2319  0.8866  0.0623
  135MOL0     N18142  -0.267   7.672  12.021 -0.4311 -0.3929 -0.4251
  135MOL0     C18143   0.077   7.149  10.865 -0.3520 -0.0489 -0.3900
  135MOL0     C18144   0.180   7.105  10.789 -0.2456 -0.5841  0.8011
  135MOL0     C18145   0.520   6.838  10.671  0.1699  0.5748  0.4127
  135MOL0     C18146   0.555   6.701  10.647  0.5950 -0.6021 -0.3510
  135MOL0     C18147   0.681   6.665  10.606 -0.3583 -0.1243 -0.3448
  135MOL0     C18148   0.787   6.762  10.611 -0.2036  0.2713 -0.9360
  135MOL0     O18149   0.922   6.718  10.599 -0.0409 -0.3039  0.5163
  135MOL0     C18150   0.997   6.784  10.496  0.2819 -0.1811  0.0792
  135MOL0     C18151   1.136   6.719  10.500  0.6869 -0.8858 -0.5742
  135MOL0     C18152   1.233   6.760  10.388  0.9631  0.2540 -0.1043
  135MOL0     C18153   1.342   6.657  10.360 -0.2216 -0.6055  0.3886
  135MOL0     C18154   1.405   6.705  10.234  0.0012  0.9369  0.2983
  135MOL0     C18155   1.441   6.744  10.125  0.4949 -0.6569 -0.2829
  135MOL0     C18156   0.759   6.899  10.630 -0.0051 -0.3797  0.4841
  135MOL0     C18157   0.628   6.932  10.661 -0.0145  0.2081  0.3527
  135MOL0     H18158   0.367   6.986  11.039  2.3697  1.0691 -0.9113
  135MOL0     H18159   0.178   7.077  11.182 -0.4909  0.9081  0.6107
  135MOL0     H18160   0.014   7.183  11.275 -1.0900  0.1360  0.8137
  135MOL0     H18161   0.107   7.306  11.215 -0.8164  2.5646  0.6809
  135MOL0     H18162  -0.120   7.432  11.135 -0.4053 -1.7809 -0.1259
  135MOL0     H18163  -0.174   7.317  11.266  0.9528 -0.9876 -0.2488
  135MOL0     H18164  -0.018   7.576  11.302  0.2452  0.3107  0.4334
  135MOL0     H18165  -0.179   7.519  11.363  1.3110  3.1732  0.9775
  135MOL0     H18166  -0.044   7.317  11.457  2.5010 -1.7570  0.3583
  135MOL0     H18167   0.106   7.411  11.443 -0.2149  1.8976 -2.7807
  135MOL0     H18168   0.037   7.434  11.646  0.7847 -0.4644 -1.2536
  135MOL0     H18169  -0.018   7.590  11.562  3.8759 -0.8712  1.1968
  135MOL0     H18170  -0.247   7.491  11.562  1.1572  1.4383 -0.0613
  135MOL0     H18171  -0.180   7.337  11.636 -1.0857 -0.5129  2.0800
  135MOL0     H18172  -0.297   7.450  11.797  0.5264 -0.2976 -2.4048
  135MOL0     H18173  -0.127   7.457  11.840 -1.1194 -0.1384  0.8906
  135MOL0     H18174  -0.287   7.679  11.692 -1.0140 -0.1766 -0.5557
  135MOL0     H18175  -0.143   7.707  11.773  0.9587 -1.6894 -2.8394
  135MOL0     H18176  -0.491   7.782  11.823  2.1666  1.5036 -1.5513
  135MOL0     H18177  -0.570   7.844  12.189  0.4930 -2.2754  0.5349
  135MOL0     H18178  -0.620   7.906  12.047 -0.0190  0.7047  0.3014
  135MOL0     H18179  -0.684   7.645  12.002  0.9752  0.7541  0.4567
  135MOL0     H18180  -0.792   7.740  12.086  0.0518  2.4423  0.3546
  135MOL0     H18181  -0.728   7.647  12.301 -1.7775  0.0180 -1.0127
  135MOL0     H18182  -0.582   7.575  12.249  1.2537  0.7357  1.0522
  135MOL0     H18183  -0.739   7.383  12.251  0.9272  0.5980 -0.4151
  135MOL0     H18184  -0.768   7.448  12.087  2.9256 -0.3553  0.0270
  135MOL0     H18185  -1.114   7.564  12.110 -1.2817  0.8655  2.2182
  135MOL0     H18186  -1.414   7.498  12.090 -1.1494  0.3569 -2.4387
  135MOL0     H18187  -1.289   7.529  11.969  2.6738 -0.5084  0.8147
  135MOL0     H18188  -1.376   7.378  11.958  3.5857 -0.5894 -1.2618
  135MOL0     H18189  -1.669   7.376  12.031  1.2969 -1.1543 -1.4833
  135MOL0     H18190  -1.905   7.261  11.983  0.7256 -0.1742 -0.1443
  135MOL0     H18191  -1.940   6.878  11.965 -0.9380  0.1141 -0.3249
  135MOL0     H18192  -2.004   6.859  12.135 -2.0128 -3.8358 -1.1123
  135MOL0     H18193  -2.176   6.773  11.986  0.1299  0.0278  2.3430
  135MOL0     H18194  -2.218   6.926  12.064  2.0636  0.3540  0.6158
  135MOL0     H18195  -2.097   6.924  11.776  2.2673  1.9798  0.7583
  135MOL0     H18196  -2.158   7.053  11.872 -0.1149 -0.5990  0.6506
  135MOL0     H18197  -2.319   6.797  11.790  2.5581 -0.5136  2.8939
  135MOL0     H18198  -2.390   6.938  11.864  0.1157 -0.4529  0.0737
  135MOL0     H18199  -2.420   6.923  11.597 -1.3402  2.1938 -0.1155
  135MOL0     H18200  -2.263   7.007  11.595 -1.2731  1.5133 -1.0586
  135MOL0     H18201  -2.514   7.079  11.753  0.1081 -0.1495  1.6613
  135MOL0     H18202  -2.367   7.165  11.762  0.3426 -0.5540 -0.0399
  135MOL0     H18203  -2.554   7.136  11.523  2.2948  1.5323 -3.7944
  135MOL0     H18204  -2.379   7.183  11.509  1.1923 -2.1654  0.4273
  135MOL0     H18205  -2.514   7.389  11.510  0.5100  1.3383  1.1713
  135MOL0     H18206  -2.403   7.367  11.647 -0.7758  3.0607 -0.9716
  135MOL0     H18207  -1.795   6.914  12.188  2.3939  0.7865  1.6494
  135MOL0     H18208  -1.564   7.005  12.221  3.8393  4.2163 -1.8646
  135MOL0     H18209  -1.127   7.094  12.256  2.5294 -0.9683 -0.6978
  135MOL0     H18210  -0.924   7.231  12.307  2.2378  2.0372 -1.5912
  135MOL0     H18211  -0.012   7.196  10.826  0.9272  2.5981 -0.3557
  135MOL0     H18212   0.171   7.113  10.681  2.3138  0.6282  0.5807
  135MOL0     H18213   0.470   6.634  10.656  0.6570 -0.4935  1.2522
  135MOL0     H18214   0.723   6.569  10.578  1.0787  0.3964 -0.0424
  135MOL0     H18215   0.955   6.771  10.395 -1.6793 -0.7088  0.9265
  135MOL0     H18216   1.010   6.891  10.511 -1.0079 -0.0429  0.2668
  135MOL0     H18217   1.131   6.609  10.494  0.8508 -0.8378 -1.9628
  135MOL0     H18218   1.189   6.729  10.595  0.8343  0.1060 -0.7505
  135MOL0     H18219   1.275   6.860  10.399  3.0950 -0.7529  1.5720
  135MOL0     H18220   1.177   6.767  10.294 -1.3323  0.9623  1.2347
  135MOL0     H18221   1.294   6.559  10.347  0.5174 -0.6001 -3.8037
  135MOL0     H18222   1.412   6.652  10.443 -0.8705 -0.1804  0.9784
  135MOL0     H18223   1.480   6.778  10.031 -0.1190  1.5454  0.1919
  135MOL0     H18224   0.835   6.974  10.617 -0.8662  0.1154 -2.2143
  135MOL0     H18225   0.597   7.036  10.669 -1.0769 -0.2151  5.8298
  136MOL0     O18226  10.798   8.250   2.344 -0.1987 -0.0282  0.1976
  136MOL0     C18227  10.865   8.353   2.320 -1.4915 -0.0620 -0.3106
  136MOL0     O18228  10.816   8.473   2.297 -0.6811  0.0146  0.0854
  136MOL0     C18229  10.688   8.497   2.269  0.2844  0.5485  0.5056
  136MOL0     C18230  10.613   8.587   2.344 -0.3802  0.4377  0.7739
  136MOL0     C18231  10.481   8.615   2.308 -0.1035 -0.0588 -0.1352
  136MOL0     C18232  10.425   8.554   2.200  0.1490  0.7263  0.2749
  136MOL0     O18233  10.297   8.554   2.164  0.0629  0.1839 -0.3458
  136MOL0     C18234  10.192   8.569   2.264 -0.7620 -0.1163 -0.6712
  136MOL0     C18235  10.046   8.563   2.226  0.9202  0.3772  0.1248
  136MOL0     C18236  10.018   8.628   2.087  0.2187  0.6302 -0.5619
  136MOL0     C18237   9.858   8.636   2.059  0.1957  0.4143  0.1670
  136MOL0     C18238   9.798   8.499   2.023 -0.0778  0.5324 -0.4429
  136MOL0     C18239   9.640   8.499   2.023 -0.7005 -0.3909  0.0244
  136MOL0     C18240   9.577   8.361   2.062 -0.3843 -0.5151  0.1961
  136MOL0     C18241   9.646   8.239   1.985 -0.1231 -0.9358  0.7776
  136MOL0     N18242   9.606   8.102   2.016  0.1224  0.1373  0.2517
  136MOL0     C18243   9.471   8.065   2.024  0.3522  0.2317  1.1822
  136MOL0     C18244   9.480   7.946   2.094  0.0889 -0.7155 -0.5918
  136MOL0     C18245   9.378   7.851   2.154  0.0487  0.2781  0.8719
  136MOL0     C18246   9.237   7.901   2.112  0.2567 -0.0755  0.8610
  136MOL0     C18247   9.136   7.807   2.164  0.3975 -0.4085  0.2514
  136MOL0     C18248   9.128   7.672   2.089 -0.2657 -0.7852 -0.1122
  136MOL0     O18249   9.035   7.680   1.983  1.0155 -1.0544 -0.4786
  136MOL0     C18250   8.899   7.699   2.005  0.0106  1.1207  0.8011
  136MOL0     C18251   8.834   7.689   2.124 -1.3006  0.5444  0.3809
  136MOL0     C18252   8.696   7.703   2.141 -1.7567 -0.6075  0.9003
  136MOL0     C18253   8.638   7.686   2.279 -0.5815  0.4317 -0.6423
  136MOL0     C18254   8.618   7.735   2.030 -0.0392  0.9128  0.9758
  136MOL0     C18255   8.472   7.771   2.023  0.0309  0.0579  0.6377
  136MOL0     O18256   8.418   7.776   1.895  0.6861  0.7699 -1.0464
  136MOL0     C18257   8.280   7.772   1.902  0.4424 -0.1072 -0.1951
  136MOL0     C18258   8.204   7.876   1.860  0.3861 -0.1176  0.4825
  136MOL0     C18259   8.065   7.874   1.863 -0.2455 -0.4165  0.5327
  136MOL0     C18260   7.995   7.765   1.914  0.1847  0.7954  0.9467
  136MOL0     O18261   7.863   7.781   1.940 -0.2366  0.1080  0.2287
  136MOL0     C18262   7.823   7.817   2.074  0.4369  0.2592  0.5200
  136MOL0     C18263   7.673   7.788   2.085  1.0262  0.6661 -0.8110
  136MOL0     C18264   7.608   7.863   2.211 -0.6672  0.4514 -0.7920
  136MOL0     C18265   7.682   7.826   2.341  0.6390 -0.2361  0.5189
  136MOL0     C18266   7.615   7.902   2.449  0.8919 -0.9906 -0.9046
  136MOL0     C18267   7.700   7.884   2.570  0.1708 -0.3740 -0.8026
  136MOL0     C18268   7.653   7.954   2.697  0.3079 -0.2200  0.7501
  136MOL0     C18269   7.526   7.885   2.761 -0.2694 -0.0294  1.1943
  136MOL0    Cl18270   7.569   7.731   2.827  0.0355 -0.1597 -0.1660
  136MOL0     C18271   8.068   7.654   1.952  0.2891 -0.2634  0.4254
  136MOL0     C18272   8.211   7.657   1.935 -0.1375  1.1751 -0.3518
  136MOL0     O18273   8.408   7.787   2.135  0.0299  0.5089  0.3463
  136MOL0     C18274   8.687   7.740   1.907 -0.5703  0.2821  0.1055
  136MOL0     C18275   8.826   7.721   1.891 -0.1634  0.5813  0.0194
  136MOL0     N18276   9.617   7.921   2.124  0.2093  0.5860  0.0246
  136MOL0     N18277   9.685   8.015   2.081  0.4098 -0.0945  0.1960
  136MOL0     C18278  10.505   8.458   2.121 -1.1145 -0.3520 -0.2711
  136MOL0     C18279  10.621   8.428   2.165 -0.0803  0.1775  0.0870
  136MOL0     C18280  11.008   8.330   2.285  1.2488  0.7495 -0.5749
  136MOL0     C18281  11.088   8.233   2.345  1.0648 -0.2525 -0.4100
  136MOL0     C18282  11.214   8.215   2.308 -0.3700  0.0977  1.0139
  136MOL0     C18283  11.279   8.290   2.208  0.7595 -0.4939 -0.1155
  136MOL0     O18284  11.409   8.281   2.165  0.1561 -0.3931 -0.5942
  136MOL0     C18285  11.496   8.202   2.250  0.3364  0.4440  0.2900
  136MOL0     C18286  11.643   8.244   2.214 -0.5812 -0.1864 -0.5663
  136MOL0     C18287  11.742   8.176   2.298  0.7194  0.6192 -0.8337
  136MOL0     C18288  11.709   8.159   2.458 -0.5868 -0.0833  0.0913
  136MOL0     C18289  11.684   8.294   2.524 -0.7039 -0.6091  0.0495
  136MOL0     C18290  11.637   8.392   2.570  0.4970  0.6754 -0.2924
  136MOL0     C18291  11.202   8.387   2.147 -0.3153 -0.4981 -0.9602
  136MOL0     C18292  11.064   8.403   2.180 -0.1045 -0.2514 -0.2887
  136MOL0     H18293  10.649   8.640   2.431  1.8441 -1.9367  1.3943
  136MOL0     H18294  10.428   8.695   2.359  0.5194  1.2564 -1.4770
  136MOL0     H18295  10.202   8.498   2.347  1.3146  2.8334  1.7892
  136MOL0     H18296  10.204   8.662   2.321  2.4983 -2.9356  3.8986
  136MOL0     H18297  10.002   8.463   2.234 -0.2948  0.8410 -0.4747
  136MOL0     H18298   9.983   8.616   2.297 -3.2407  0.5591 -3.2643
  136MOL0     H18299  10.071   8.724   2.081  2.9066 -0.7682 -0.6623
  136MOL0     H18300  10.048   8.556   2.011 -2.1967  1.5731 -2.5637
  136MOL0     H18301   9.808   8.673   2.148 -0.7653 -3.1236  1.2553
  136MOL0     H18302   9.847   8.705   1.975 -0.8427  3.3330  2.5482
  136MOL0     H18303   9.844   8.453   1.935  1.5309 -0.6140  0.9280
  136MOL0     H18304   9.832   8.424   2.094  0.9003 -2.2515 -3.6030
  136MOL0     H18305   9.611   8.570   2.101  1.3272 -0.4120  0.8469
  136MOL0     H18306   9.608   8.537   1.925 -0.1642  0.6905  0.2626
  136MOL0     H18307   9.584   8.336   2.168 -0.9826  2.0989  0.9089
  136MOL0     H18308   9.469   8.363   2.047 -0.5567 -0.1469  1.4048
  136MOL0     H18309   9.755   8.241   1.992  0.1457 -0.6390 -2.1055
  136MOL0     H18310   9.619   8.245   1.879  0.9349 -2.0999  0.4149
  136MOL0     H18311   9.386   8.117   1.981 -0.5569 -1.2117  1.1550
  136MOL0     H18312   9.394   7.749   2.117  0.2581  0.5839  0.1031
  136MOL0     H18313   9.382   7.848   2.264  1.6485  1.9249  0.8984
  136MOL0     H18314   9.237   7.917   2.004 -2.0378  0.0468  0.8321
  136MOL0     H18315   9.239   8.001   2.157  2.2839  0.4861 -0.3646
  136MOL0     H18316   9.047   7.870   2.156  2.0557  2.1733  1.0229
  136MOL0     H18317   9.154   7.780   2.269 -2.6530 -4.7932 -0.0953
  136MOL0     H18318   9.096   7.599   2.163  1.4555 -0.3309  1.1543
  136MOL0     H18319   9.225   7.633   2.058 -0.0163  0.3326 -0.8052
  136MOL0     H18320   8.894   7.683   2.214 -0.8495  1.8609  0.1910
  136MOL0     H18321   8.555   7.614   2.279 -1.4875  1.4436 -0.8270
  136MOL0     H18322   8.719   7.658   2.347 -1.3327  0.1109  0.1403
  136MOL0     H18323   8.608   7.790   2.297  0.2936  0.8893 -1.6883
  136MOL0     H18324   8.245   7.974   1.836  0.5634 -0.1095  0.8162
  136MOL0     H18325   8.012   7.968   1.861  1.2924  0.7693  4.7780
  136MOL0     H18326   7.885   7.752   2.136  0.8101  0.3616  0.2613
  136MOL0     H18327   7.859   7.916   2.101  1.1954  0.0979  0.1359
  136MOL0     H18328   7.625   7.822   1.993  0.5654  0.8978 -0.4896
  136MOL0     H18329   7.663   7.680   2.099 -0.7325  0.9204  0.2660
  136MOL0     H18330   7.502   7.839   2.206 -1.3004  3.1317 -2.5571
  136MOL0     H18331   7.612   7.972   2.196 -1.2456  0.6963  0.6474
  136MOL0     H18332   7.676   7.719   2.363 -1.8312 -0.2773 -0.0093
  136MOL0     H18333   7.784   7.858   2.320 -0.3419  1.4077 -2.2802
  136MOL0     H18334   7.518   7.866   2.485  0.7942  0.5498  0.4816
  136MOL0     H18335   7.614   8.010   2.429 -0.3941 -0.4258  1.8313
  136MOL0     H18336   7.699   7.775   2.583 -1.3430 -0.3355 -0.4361
  136MOL0     H18337   7.800   7.923   2.548 -0.4619  1.9107  0.1024
  136MOL0     H18338   7.630   8.058   2.671  0.5487  0.2552  2.3219
  136MOL0     H18339   7.737   7.955   2.768 -0.2422  2.3641  1.4733
  136MOL0     H18340   7.443   7.876   2.691  1.2833  0.6240 -0.8126
  136MOL0     H18341   7.505   7.953   2.845  1.6114 -0.5541  2.1370
  136MOL0     H18342   8.028   7.559   1.987 -0.1899 -0.9539 -1.7989
  136MOL0     H18343   8.258   7.560   1.946 -1.4755  0.7649  2.9306
  136MOL0     H18344   8.637   7.746   1.811  1.2140 -1.2238 -0.9846
  136MOL0     H18345   8.869   7.733   1.793  1.6178 -2.4639  0.2979
  136MOL0     H18346  10.458   8.393   2.049 -1.6541 -0.1515 -0.1095
  136MOL0     H18347  10.683   8.350   2.123 -0.3378  0.3574 -0.6268
  136MOL0     H18348  11.046   8.177   2.427  0.8609 -1.1174 -1.0862
  136MOL0     H18349  11.254   8.121   2.344 -2.4731 -2.6871 -3.0674
  136MOL0     H18350  11.472   8.198   2.356  1.7586 -1.4534  0.5846
  136MOL0     H18351  11.488   8.098   2.218  2.1283 -0.1790  1.6861
  136MOL0     H18352  11.658   8.349   2.238 -0.5400 -0.3826  0.2903
  136MOL0     H18353  11.655   8.222   2.107 -2.2652 -0.7631 -0.6653
  136MOL0     H18354  11.840   8.225   2.296  0.9006  0.3432  0.3685
  136MOL0     H18355  11.758   8.071   2.275  0.3857  0.5417 -0.7213
  136MOL0     H18356  11.793   8.108   2.505 -2.7435 -2.5346  1.5804
  136MOL0     H18357  11.631   8.084   2.477 -0.5637 -0.0920  0.1465
  136MOL0     H18358  11.588   8.484   2.596  2.7032  1.3460  1.9099
  136MOL0     H18359  11.254   8.435   2.065  3.4767 -0.4761  1.2153
  136MOL0     H18360  11.001   8.468   2.120  0.8115  0.8368 -0.1177
  137MOL0     O18361   6.475   1.984   6.938 -0.5183 -0.1036  0.6309
  137MOL0     C18362   6.480   1.993   6.816 -0.0149  0.5131  0.1690
  137MOL0     O18363   6.387   2.038   6.735 -0.0958  0.2764  0.0421
  137MOL0     C18364   6.266   2.075   6.778  0.7517 -0.3047 -0.1033
  137MOL0     C18365   6.193   2.009   6.874  0.5481  0.5572  0.2692
  137MOL0     C18366   6.067   2.058   6.915 -0.7137 -0.0670  0.4638
  137MOL0     C18367   6.007   2.174   6.858  0.1002  0.2774 -0.3864
  137MOL0     O18368   5.881   2.207   6.899 -0.1620  0.5937 -0.1396
  137MOL0     C18369   5.852   2.349   6.900 -0.5009 -0.2006  1.0801
  137MOL0     C18370   5.718   2.369   6.969  0.5172 -0.4663 -0.1801
  137MOL0     C18371   5.601   2.411   6.866 -0.5605 -0.6274 -0.5666
  137MOL0     C18372   5.476   2.408   6.939  0.7282  0.5510  0.5498
  137MOL0     C18373   5.352   2.471   6.876  0.3699 -0.0029  0.6033
  137MOL0     C18374   5.226   2.415   6.930 -0.8968  0.0723 -0.4893
  137MOL0     C18375   5.101   2.503   6.917 -0.0398 -0.0696  0.0582
  137MOL0     C18376   5.104   2.614   7.022 -0.2556  0.0413 -0.1784
  137MOL0     N18377   5.003   2.719   7.010  0.2229 -0.0367  0.8129
  137MOL0     C18378   4.889   2.706   6.926  0.5723  1.3310 -0.3923
  137MOL0     C18379   4.838   2.830   6.916 -0.8795  0.7184  1.0574
  137MOL0     C18380   4.714   2.868   6.846 -0.3438  0.5722  0.8160
  137MOL0     C18381   4.751   2.869   6.697 -0.5266  0.2712 -0.3335
  137MOL0     C18382   4.634   2.930   6.607 -0.1557 -0.2231 -0.1846
  137MOL0     C18383   4.618   2.879   6.461 -0.0677  0.5307  0.1737
  137MOL0     O18384   4.611   2.735   6.449  0.3369  0.3563 -0.4457
  137MOL0     C18385   4.482   2.695   6.470 -0.1835  0.7056  0.0690
  137MOL0     C18386   4.443   2.648   6.599  1.0307 -0.5821  0.0170
  137MOL0     C18387   4.305   2.604   6.614 -1.0208 -0.0892 -0.1224
  137MOL0     C18388   4.265   2.554   6.751  0.1257 -0.4496 -0.2003
  137MOL0     C18389   4.217   2.595   6.501  0.0063 -0.4150 -0.3685
  137MOL0     C18390   4.073   2.560   6.503  0.5402  1.1387  1.3697
  137MOL0     O18391   4.009   2.553   6.383 -0.2195 -0.3480  0.1587
  137MOL0     C18392   3.874   2.564   6.390  0.3282  0.3352 -0.3721
  137MOL0     C18393   3.825   2.688   6.357 -0.7890 -0.3029 -0.3265
  137MOL0     C18394   3.684   2.701   6.335  0.1376  0.0829 -0.0983
  137MOL0     C18395   3.590   2.596   6.361 -0.3976  0.2107 -0.0858
  137MOL0     O18396   3.464   2.633   6.326  0.1651 -0.8313  0.6128
  137MOL0     C18397   3.362   2.529   6.299  0.1474 -0.5187  0.0091
  137MOL0     C18398   3.242   2.600   6.236 -0.5823 -0.1630 -0.0464
  137MOL0     C18399   3.130   2.660   6.322 -0.1118 -0.3271  0.2454
  137MOL0     C18400   3.020   2.733   6.234 -0.3659 -0.6376 -0.1342
  137MOL0     C18401   2.875   2.739   6.289 -0.1417 -0.7636  0.4809
  137MOL0     C18402   2.761   2.739   6.188  0.0626  0.0463 -0.0203
  137MOL0     C18403   2.618   2.725   6.251  0.1211 -0.1501 -0.2539
  137MOL0     C18404   2.533   2.642   6.163 -0.4942  0.8754  0.9922
  137MOL0    Cl18405   2.371   2.639   6.236  0.1324 -0.3148  0.1157
  137MOL0     C18406   3.643   2.477   6.416 -0.1318 -0.7054 -0.6205
  137MOL0     C18407   3.784   2.459   6.413  0.8733  0.0154  0.5163
  137MOL0     O18408   4.026   2.526   6.606 -1.2340 -0.1949 -0.4353
  137MOL0     C18409   4.264   2.641   6.379 -0.4106  0.0370 -0.0928
  137MOL0     C18410   4.401   2.684   6.362  0.5903  0.0884 -0.1746
  137MOL0     N18411   4.903   2.908   7.003  0.0726  0.1894 -0.1086
  137MOL0     N18412   4.990   2.846   7.065 -0.2891 -0.2291 -0.6328
  137MOL0     C18413   6.081   2.233   6.755 -0.8035  0.0516 -0.1414
  137MOL0     C18414   6.206   2.190   6.719 -0.1434  0.5158  1.0715
  137MOL0     C18415   6.604   1.966   6.744  0.0439  0.4806 -0.4975
  137MOL0     C18416   6.707   1.889   6.809 -0.6640  0.1413  0.3666
  137MOL0     C18417   6.841   1.870   6.743  0.4542  0.5655 -0.1989
  137MOL0     C18418   6.858   1.916   6.617 -0.4292 -0.2284  0.3035
  137MOL0     O18419   6.991   1.917   6.571  0.4325 -0.4443 -0.8568
  137MOL0     C18420   7.037   2.018   6.491  0.9336 -0.1892  0.3378
  137MOL0     C18421   7.189   2.029   6.481  0.3333 -0.2162  0.7881
  137MOL0     C18422   7.256   1.916   6.404  0.0771  0.4739 -0.1387
  137MOL0     C18423   7.413   1.917   6.412 -0.0009  0.0108 -0.5735
  137MOL0     C18424   7.476   1.812   6.485  0.1390 -0.1004 -0.7033
  137MOL0     C18425   7.523   1.729   6.552 -0.5984  0.8574  0.4646
  137MOL0     C18426   6.750   1.967   6.544  0.0094  1.5847 -0.1379
  137MOL0     C18427   6.628   1.995   6.607 -0.4261  0.4118 -0.6908
  137MOL0     H18428   6.220   1.910   6.909  2.2889 -0.2043 -2.8646
  137MOL0     H18429   6.009   1.991   6.977 -0.1830 -0.6246  0.3623
  137MOL0     H18430   5.926   2.402   6.960 -0.5764 -1.5490  2.4448
  137MOL0     H18431   5.850   2.406   6.807  0.3017 -0.1622  1.0836
  137MOL0     H18432   5.689   2.276   7.020  2.5415 -2.0055 -1.6718
  137MOL0     H18433   5.720   2.446   7.046 -1.1479 -0.5889  0.0318
  137MOL0     H18434   5.621   2.508   6.820 -2.4728  0.1274  0.0640
  137MOL0     H18435   5.593   2.339   6.785  1.3275 -2.2815  0.6133
  137MOL0     H18436   5.456   2.301   6.952  1.0803  0.4531  0.2938
  137MOL0     H18437   5.476   2.447   7.042 -1.0465  2.6850 -0.1784
  137MOL0     H18438   5.360   2.580   6.878 -0.9389  0.1231  0.0611
  137MOL0     H18439   5.357   2.440   6.771 -1.5897  1.0509  0.1485
  137MOL0     H18440   5.212   2.319   6.881 -0.2226 -1.3691  1.9567
  137MOL0     H18441   5.242   2.393   7.036 -0.4358  1.0219 -0.3522
  137MOL0     H18442   5.089   2.546   6.817 -3.7385 -0.2356  0.2850
  137MOL0     H18443   5.010   2.447   6.943  2.1165 -2.9904  1.9799
  137MOL0     H18444   5.200   2.667   7.015  0.5567 -0.3045  4.7453
  137MOL0     H18445   5.102   2.561   7.118 -0.8725  0.7501  0.2133
  137MOL0     H18446   4.852   2.615   6.879  1.8532 -0.7305  2.2966
  137MOL0     H18447   4.639   2.792   6.871  1.0835 -1.6692 -1.3122
  137MOL0     H18448   4.669   2.960   6.883 -0.2737 -0.0365  2.5196
  137MOL0     H18449   4.777   2.769   6.660 -3.8916  0.3611 -3.5469
  137MOL0     H18450   4.829   2.945   6.687 -1.1456  1.1680  1.3097
  137MOL0     H18451   4.631   3.039   6.607 -0.5788 -0.2310 -0.5911
  137MOL0     H18452   4.540   2.901   6.655  1.0589  0.4245  2.8204
  137MOL0     H18453   4.692   2.919   6.391 -0.2116 -1.5707 -1.2596
  137MOL0     H18454   4.523   2.918   6.421 -0.0029 -0.5116 -1.0626
  137MOL0     H18455   4.522   2.654   6.672  2.1114 -1.7611 -1.0033
  137MOL0     H18456   4.178   2.604   6.796  0.3037  0.2122 -0.5762
  137MOL0     H18457   4.242   2.448   6.741  2.0765 -0.6908 -2.8897
  137MOL0     H18458   4.346   2.574   6.821  0.1488  1.8171 -0.7816
  137MOL0     H18459   3.890   2.773   6.340 -0.1582 -0.5971  0.5857
  137MOL0     H18460   3.644   2.799   6.313 -0.5483  0.5395  2.7380
  137MOL0     H18461   3.415   2.454   6.239  2.8348  0.9043  0.4153
  137MOL0     H18462   3.325   2.477   6.387 -0.9102 -1.8256 -1.1689
  137MOL0     H18463   3.273   2.677   6.163  0.8359 -0.3137  0.3714
  137MOL0     H18464   3.191   2.518   6.186 -0.7581 -0.9440  1.3794
  137MOL0     H18465   3.177   2.730   6.393  1.2328 -1.7658  0.8517
  137MOL0     H18466   3.081   2.585   6.385 -1.6765 -0.1333 -0.6888
  137MOL0     H18467   3.051   2.836   6.214 -1.7240 -0.6448 -2.6810
  137MOL0     H18468   3.026   2.679   6.139 -1.0558  2.1248 -1.8624
  137MOL0     H18469   2.865   2.830   6.349 -0.3639  0.5124 -1.4079
  137MOL0     H18470   2.853   2.659   6.360 -1.9106 -0.7452  0.0017
  137MOL0     H18471   2.772   2.835   6.137  0.4909  0.5020  0.9150
  137MOL0     H18472   2.767   2.660   6.112 -1.5459 -0.5013  0.3844
  137MOL0     H18473   2.577   2.823   6.273  1.2589 -0.1024  2.0072
  137MOL0     H18474   2.635   2.682   6.351 -2.1717  1.3874  0.8839
  137MOL0     H18475   2.567   2.540   6.142  1.6923  2.1818 -2.8813
  137MOL0     H18476   2.523   2.683   6.062  3.3930  0.4755  0.2775
  137MOL0     H18477   3.585   2.388   6.438  0.0490 -0.0035  3.4747
  137MOL0     H18478   3.816   2.357   6.434  2.9042 -0.0770 -2.4512
  137MOL0     H18479   4.210   2.632   6.285 -0.3702 -0.7989 -0.0426
  137MOL0     H18480   4.438   2.719   6.266  0.1280  2.7118  0.5234
  137MOL0     H18481   6.050   2.324   6.705  2.6193 -0.5875 -3.9503
  137MOL0     H18482   6.251   2.233   6.631 -2.4307 -0.1020 -0.4826
  137MOL0     H18483   6.691   1.843   6.906  0.9501 -1.6033 -0.1532
  137MOL0     H18484   6.912   1.817   6.805 -0.7417 -0.9391 -0.0549
  137MOL0     H18485   6.988   2.014   6.394 -1.4607 -0.1914  1.4901
  137MOL0     H18486   6.999   2.104   6.547  0.4822 -0.9474  1.2161
  137MOL0     H18487   7.232   2.055   6.578  0.4566  1.5002  0.3081
  137MOL0     H18488   7.218   2.120   6.429  4.3600 -0.9670  1.3777
  137MOL0     H18489   7.240   1.908   6.296  1.1814  0.8776 -0.3374
  137MOL0     H18490   7.211   1.821   6.436 -0.3764 -0.5991 -3.5291
  137MOL0     H18491   7.441   2.013   6.457  1.2844 -0.5779 -0.0831
  137MOL0     H18492   7.454   1.919   6.310 -1.3163  0.6931 -1.1254
  137MOL0     H18493   7.583   1.652   6.596  2.2753  1.1456 -2.5625
  137MOL0     H18494   6.761   1.983   6.437 -4.2361 -1.0221 -1.1995
  137MOL0     H18495   6.563   2.046   6.536  0.3483  1.2459 -0.8215
  138MOL0     O18496   9.608   5.048   3.280 -0.1607  0.1277 -0.5052
  138MOL0     C18497   9.585   5.141   3.209  0.6541  0.6814 -1.0466
  138MOL0     O18498   9.476   5.161   3.130  0.6006  0.1422 -0.1217
  138MOL0     C18499   9.396   5.055   3.102  1.0852  0.2317 -0.3846
  138MOL0     C18500   9.259   5.078   3.123  0.3797  0.1555 -0.3666
  138MOL0     C18501   9.169   4.982   3.077 -0.2556  0.9021  0.1356
  138MOL0     C18502   9.221   4.857   3.029  0.9729 -0.0061 -0.0976
  138MOL0     O18503   9.126   4.763   2.997 -0.8449  0.2021 -0.1172
  138MOL0     C18504   9.034   4.718   3.097 -0.7314  0.3070 -0.2896
  138MOL0     C18505   8.950   4.599   3.040  0.6546 -0.3467 -0.5847
  138MOL0     C18506   8.851   4.549   3.151  0.0044 -0.2111  0.2936
  138MOL0     C18507   8.734   4.475   3.090  0.7560  0.1425 -0.0378
  138MOL0     C18508   8.629   4.572   3.032 -0.3521  0.4294 -0.6450
  138MOL0     C18509   8.512   4.489   2.983 -0.2735 -0.4509 -0.1730
  138MOL0     C18510   8.407   4.585   2.927  0.7748 -1.1030 -0.3574
  138MOL0     C18511   8.264   4.514   2.920  0.2284  0.0612 -0.7551
  138MOL0     N18512   8.234   4.466   3.054  0.3088  0.3948 -0.1583
  138MOL0     C18513   8.221   4.336   3.088  0.5570 -0.0707 -0.0461
  138MOL0     C18514   8.141   4.344   3.201 -0.3882  0.0331 -0.4839
  138MOL0     C18515   8.100   4.226   3.278 -0.1686 -0.6424  0.5901
  138MOL0     C18516   7.952   4.258   3.315 -0.1355  1.2822 -0.4813
  138MOL0     C18517   7.865   4.134   3.339  0.2238  0.0324 -0.6111
  138MOL0     C18518   7.908   4.041   3.456 -0.7452 -0.0509  0.2732
  138MOL0     O18519   7.891   4.114   3.580  0.0895 -0.1242  0.3946
  138MOL0     C18520   7.792   4.069   3.659  0.4032 -0.7188 -0.3630
  138MOL0     C18521   7.694   4.163   3.698  1.0701  0.3703 -0.3092
  138MOL0     C18522   7.589   4.127   3.786  0.0637  0.2016 -0.6567
  138MOL0     C18523   7.486   4.222   3.822 -0.2759  0.7477 -0.6600
  138MOL0     C18524   7.596   3.989   3.844  0.5091 -0.6296  0.3338
  138MOL0     C18525   7.487   3.943   3.933  0.3915 -1.0719  0.1968
  138MOL0     O18526   7.420   3.829   3.900 -0.1863 -0.6073 -0.3678
  138MOL0     C18527   7.312   3.789   3.968  0.6935  0.2269 -0.5602
  138MOL0     C18528   7.180   3.839   3.964 -0.7400  0.0973  1.1070
  138MOL0     C18529   7.079   3.775   4.038  0.7825  0.9361  0.7864
  138MOL0     C18530   7.095   3.642   4.081  1.4732  0.4481 -0.5833
  138MOL0     O18531   6.990   3.564   4.134 -0.5556 -0.3902  0.0706
  138MOL0     C18532   6.863   3.610   4.105 -1.5851  1.1197 -0.1339
  138MOL0     C18533   6.805   3.663   4.237 -0.1207 -0.4344  0.0564
  138MOL0     C18534   6.660   3.720   4.206 -0.2165 -0.1436 -0.1787
  138MOL0     C18535   6.558   3.599   4.214 -0.1544  0.2628  0.8207
  138MOL0     C18536   6.415   3.642   4.261  0.5007  0.2471 -0.0007
  138MOL0     C18537   6.332   3.522   4.294  0.3615  1.3882 -0.2713
  138MOL0     C18538   6.185   3.561   4.310 -0.9195 -0.4170 -0.4596
  138MOL0     C18539   6.112   3.454   4.385  0.2049 -0.8929  0.1494
  138MOL0    Cl18540   5.946   3.512   4.425 -0.4573  0.3499 -0.1428
  138MOL0     C18541   7.225   3.597   4.073  1.1133  0.1046 -0.0986
  138MOL0     C18542   7.329   3.665   4.027  0.9758  0.0417  0.0442
  138MOL0     O18543   7.454   4.025   4.021  0.8347 -0.0894 -1.0316
  138MOL0     C18544   7.696   3.894   3.800  0.7028  0.0713 -0.0004
  138MOL0     C18545   7.792   3.936   3.706  0.0253 -0.0168  0.4294
  138MOL0     N18546   8.138   4.476   3.244  1.2008  0.1673  0.0016
  138MOL0     N18547   8.196   4.551   3.148  0.0040 -0.7706 -0.6646
  138MOL0     C18548   9.353   4.832   3.010 -0.5326 -0.6043 -0.2839
  138MOL0     C18549   9.443   4.931   3.050 -0.0602  0.1118  0.8717
  138MOL0     C18550   9.692   5.240   3.213  0.4104  0.0514 -0.3241
  138MOL0     C18551   9.680   5.371   3.149 -0.6261  0.2244  0.3016
  138MOL0     C18552   9.783   5.468   3.157 -0.1398 -0.6760  0.0840
  138MOL0     C18553   9.901   5.447   3.224  1.1711 -0.3164  0.1623
  138MOL0     O18554  10.011   5.536   3.228  0.0064 -0.1416  0.1102
  138MOL0     C18555  10.013   5.656   3.146 -0.2072  0.2293  0.0206
  138MOL0     C18556   9.926   5.772   3.210  0.0511 -0.3925  0.1064
  138MOL0     C18557   9.955   5.805   3.357 -0.4476  0.0474  0.6849
  138MOL0     C18558   9.885   5.718   3.462 -0.7238  0.1253 -0.5150
  138MOL0     C18559   9.853   5.802   3.584  0.3477  0.3113  0.4547
  138MOL0     C18560   9.823   5.865   3.685  0.3173  0.7288  0.3383
  138MOL0     C18561   9.915   5.330   3.299  0.1607 -0.0982  0.6986
  138MOL0     C18562   9.818   5.230   3.285 -0.5945  0.3640 -0.3084
  138MOL0     H18563   9.232   5.177   3.158  0.8621 -0.1585  0.9348
  138MOL0     H18564   9.061   4.997   3.081 -0.8150 -1.6279 -2.5201
  138MOL0     H18565   9.088   4.668   3.178 -0.9811 -2.6567 -1.8001
  138MOL0     H18566   8.976   4.804   3.132  0.6219  1.0034  0.2862
  138MOL0     H18567   8.900   4.643   2.953 -1.3203 -1.0707  0.1487
  138MOL0     H18568   9.015   4.514   3.016  2.3040  0.3466  1.1485
  138MOL0     H18569   8.898   4.475   3.215 -4.1322 -2.6369  0.8589
  138MOL0     H18570   8.807   4.620   3.222 -1.1571 -0.6226  0.0010
  138MOL0     H18571   8.760   4.398   3.017 -0.8602 -0.9207  0.4390
  138MOL0     H18572   8.686   4.423   3.174 -1.9002  0.9730 -0.9418
  138MOL0     H18573   8.593   4.639   3.111  1.0456 -1.5244  1.7833
  138MOL0     H18574   8.667   4.622   2.943  0.5166  0.4834 -0.2489
  138MOL0     H18575   8.544   4.428   2.899 -3.0718  0.2689 -1.9230
  138MOL0     H18576   8.481   4.420   3.062 -0.4320 -2.9156 -2.2814
  138MOL0     H18577   8.395   4.681   2.977  1.0974  0.4987 -3.1161
  138MOL0     H18578   8.443   4.614   2.828  0.2557 -0.1346 -0.2739
  138MOL0     H18579   8.262   4.425   2.857  1.5208 -1.7479  1.5882
  138MOL0     H18580   8.181   4.572   2.879  0.2041  0.7794  0.2516
  138MOL0     H18581   8.253   4.244   3.040 -0.0722  0.3757 -1.3723
  138MOL0     H18582   8.115   4.130   3.227 -2.9538 -0.2917 -1.0792
  138MOL0     H18583   8.160   4.226   3.370  0.2831 -0.6316  0.3011
  138MOL0     H18584   7.902   4.319   3.239  2.1922  3.9086 -0.0746
  138MOL0     H18585   7.951   4.317   3.407 -0.4737  2.3942 -1.1680
  138MOL0     H18586   7.867   4.082   3.243  1.0197  2.1406 -1.7938
  138MOL0     H18587   7.758   4.143   3.362 -0.4413 -0.6133 -3.1312
  138MOL0     H18588   8.012   4.008   3.446 -0.0386  2.2377 -0.4607
  138MOL0     H18589   7.840   3.955   3.460 -0.5077 -0.2420  0.1823
  138MOL0     H18590   7.702   4.265   3.662 -1.9204  0.4734 -0.9496
  138MOL0     H18591   7.502   4.315   3.769  2.1133 -1.3217 -3.9124
  138MOL0     H18592   7.392   4.171   3.796  1.6413 -2.0559 -2.6331
  138MOL0     H18593   7.492   4.242   3.930 -0.3646 -1.4912 -0.1854
  138MOL0     H18594   7.155   3.931   3.912  2.3789 -0.3884 -1.5725
  138MOL0     H18595   6.990   3.832   4.059 -0.7261  0.0084 -2.4150
  138MOL0     H18596   6.859   3.681   4.022 -4.6235  1.8717  0.5085
  138MOL0     H18597   6.798   3.528   4.073 -0.1936 -0.4190  0.8592
  138MOL0     H18598   6.794   3.583   4.310 -3.4783  1.6446  2.0910
  138MOL0     H18599   6.868   3.745   4.274  2.0675 -1.1966 -1.7039
  138MOL0     H18600   6.659   3.773   4.111  0.3580 -1.0105 -0.6819
  138MOL0     H18601   6.639   3.786   4.291  1.4025 -1.0932  1.0161
  138MOL0     H18602   6.538   3.555   4.116 -3.3474  1.2184  0.9448
  138MOL0     H18603   6.594   3.527   4.287 -2.3998  0.5291  2.2753
  138MOL0     H18604   6.367   3.704   4.184  1.5547 -0.3471 -1.1676
  138MOL0     H18605   6.414   3.701   4.353 -3.8378  2.2349 -1.0247
  138MOL0     H18606   6.346   3.441   4.221 -0.0625  0.6648  0.4420
  138MOL0     H18607   6.363   3.481   4.390 -1.9025  1.5189  0.5653
  138MOL0     H18608   6.134   3.590   4.218  2.0828  1.8487 -1.5761
  138MOL0     H18609   6.180   3.653   4.371 -2.4159  0.1139 -1.3327
  138MOL0     H18610   6.172   3.440   4.476  0.7190 -1.1810 -0.2246
  138MOL0     H18611   6.110   3.365   4.321 -1.4786 -1.3679  0.8014
  138MOL0     H18612   7.238   3.498   4.116  3.2078 -0.0889 -1.0859
  138MOL0     H18613   7.431   3.631   4.017  0.6063 -2.4272  3.0217
  138MOL0     H18614   7.702   3.794   3.841 -2.8680 -0.5217 -0.6299
  138MOL0     H18615   7.874   3.873   3.673 -0.4583  0.9484 -2.9765
  138MOL0     H18616   9.383   4.741   2.958  0.6742  0.7532 -2.0694
  138MOL0     H18617   9.549   4.912   3.033 -0.2087  1.6589 -2.6473
  138MOL0     H18618   9.595   5.398   3.087 -0.3698  0.8735  0.2270
  138MOL0     H18619   9.763   5.559   3.101  0.3149 -2.0053 -2.4089
  138MOL0     H18620  10.118   5.688   3.151 -0.2172  0.2987 -0.2622
  138MOL0     H18621   9.994   5.646   3.039  1.5958 -3.0515 -0.1379
  138MOL0     H18622   9.823   5.739   3.199 -0.4381  0.3449  2.1080
  138MOL0     H18623   9.932   5.861   3.148  1.0529 -0.3264  0.2777
  138MOL0     H18624   9.924   5.909   3.367 -0.4372 -0.1062  2.5625
  138MOL0     H18625  10.063   5.796   3.377 -0.4824 -3.2388 -0.0730
  138MOL0     H18626   9.952   5.638   3.493 -0.7013 -0.8291 -2.8146
  138MOL0     H18627   9.791   5.668   3.438 -0.5568 -2.2659  3.1084
  138MOL0     H18628   9.795   5.920   3.772 -0.9140 -0.7419  0.9033
  138MOL0     H18629  10.008   5.312   3.353 -1.0613 -2.3766  2.1779
  138MOL0     H18630   9.829   5.128   3.321  1.0021 -0.6262 -3.2596
  139MOL0     O18631  10.169   8.166   3.727 -0.4966 -0.2656 -0.1930
  139MOL0     C18632  10.237   8.215   3.819 -0.2988  0.2656  0.2411
  139MOL0     O18633  10.239   8.345   3.864  0.5063  0.4365  1.0512
  139MOL0     C18634  10.123   8.416   3.869  0.0513 -0.4747  0.4659
  139MOL0     C18635  10.005   8.391   3.794 -0.1404 -0.0723 -0.1649
  139MOL0     C18636   9.898   8.478   3.795  0.2290 -0.6385  0.2364
  139MOL0     C18637   9.894   8.593   3.880 -0.2066 -0.1553 -1.0359
  139MOL0     O18638   9.795   8.688   3.893  0.4156  0.2695  0.8186
  139MOL0     C18639   9.673   8.665   3.819  0.4395  0.0280 -0.6457
  139MOL0     C18640   9.571   8.768   3.862  1.3318  0.3027  0.0817
  139MOL0     C18641   9.468   8.792   3.750 -0.1487 -0.1180  0.0437
  139MOL0     C18642   9.378   8.910   3.773 -0.2308  0.4212  1.2598
  139MOL0     C18643   9.310   8.948   3.637 -0.0119 -0.0623  0.5123
  139MOL0     C18644   9.174   8.896   3.627 -0.7328 -0.5644 -0.7953
  139MOL0     C18645   9.087   8.959   3.738 -0.6613  0.0550 -0.7357
  139MOL0     C18646   8.947   8.990   3.688 -0.3301  0.7073  0.5622
  139MOL0     N18647   8.891   8.885   3.594  0.0424 -0.0354  0.4086
  139MOL0     C18648   8.860   8.756   3.616  0.6988  0.2371 -0.7414
  139MOL0     C18649   8.777   8.719   3.512  0.2943 -0.5581  1.0136
  139MOL0     C18650   8.706   8.583   3.482  0.1082 -1.3794  0.0497
  139MOL0     C18651   8.556   8.611   3.479  0.4440  0.4807 -1.0459
  139MOL0     C18652   8.484   8.487   3.447  0.2786  0.2092 -0.0529
  139MOL0     C18653   8.332   8.513   3.415  0.7871 -0.2827  0.0741
  139MOL0     O18654   8.276   8.390   3.372 -0.2507  1.0761  0.0901
  139MOL0     C18655   8.145   8.381   3.331  0.2415  0.3866 -0.1980
  139MOL0     C18656   8.103   8.259   3.264  0.1863  0.3433 -0.3535
  139MOL0     C18657   7.968   8.242   3.215  0.4360 -0.6402 -0.7303
  139MOL0     C18658   7.938   8.115   3.148  0.4886 -0.0844 -0.5302
  139MOL0     C18659   7.881   8.352   3.244  0.1382  0.2653  0.1068
  139MOL0     C18660   7.739   8.342   3.205  0.3346 -0.8560 -0.6742
  139MOL0     O18661   7.688   8.216   3.173 -0.8239  0.1404 -0.8603
  139MOL0     C18662   7.568   8.215   3.107 -0.2978  0.1748 -0.6112
  139MOL0     C18663   7.456   8.160   3.160  0.8084  1.0298 -0.2197
  139MOL0     C18664   7.333   8.170   3.095 -0.3127 -0.2381  0.2712
  139MOL0     C18665   7.325   8.239   2.977 -0.1594  0.1992  0.0040
  139MOL0     O18666   7.197   8.259   2.927 -0.4591  1.1619  0.1373
  139MOL0     C18667   7.162   8.366   2.842 -0.7328 -0.7553 -0.2492
  139MOL0     C18668   7.011   8.389   2.821  0.5486  1.2197 -0.2622
  139MOL0     C18669   6.935   8.390   2.960 -0.0071  0.0451  1.6270
  139MOL0     C18670   6.785   8.359   2.917  0.2699  0.2725  0.1002
  139MOL0     C18671   6.690   8.374   3.042  0.0382  0.5025  0.1487
  139MOL0     C18672   6.543   8.367   3.011 -0.7191  0.5273  0.9727
  139MOL0     C18673   6.456   8.438   3.119  0.6773  0.2044 -0.2892
  139MOL0     C18674   6.303   8.422   3.115  0.5123 -0.1807 -0.2572
  139MOL0    Cl18675   6.231   8.470   2.966  0.4969  0.0134 -0.7439
  139MOL0     C18676   7.443   8.284   2.921 -0.2317 -1.3670  0.1106
  139MOL0     C18677   7.565   8.267   2.979 -0.4636  0.6114  0.7701
  139MOL0     O18678   7.672   8.443   3.224  0.0473  0.0963 -0.3653
  139MOL0     C18679   7.927   8.473   3.317  1.0221 -0.4178  0.4051
  139MOL0     C18680   8.055   8.481   3.353 -0.4313  0.3265 -0.3263
  139MOL0     N18681   8.743   8.829   3.440 -0.1916 -0.6576  0.2970
  139MOL0     N18682   8.811   8.922   3.489 -0.2624  0.5361 -0.4885
  139MOL0     C18683  10.002   8.606   3.965  0.2292  0.2966  0.6136
  139MOL0     C18684  10.112   8.521   3.964  0.3066  0.2352 -0.0569
  139MOL0     C18685  10.329   8.128   3.885  0.5758  0.1120 -1.0707
  139MOL0     C18686  10.430   8.182   3.967  1.1031 -1.0949 -0.0423
  139MOL0     C18687  10.532   8.124   4.033 -0.9621  0.4990  0.2750
  139MOL0     C18688  10.545   7.986   4.009 -0.0913 -0.1208  0.1057
  139MOL0     O18689  10.644   7.925   4.080  0.2918  0.3206 -0.0020
  139MOL0     C18690  10.632   7.786   4.120  0.4029 -0.2041  0.0675
  139MOL0     C18691  10.748   7.740   4.203 -0.1967  0.4283 -0.4165
  139MOL0     C18692  10.768   7.820   4.325 -0.3238  0.3633 -0.2803
  139MOL0     C18693  10.866   7.763   4.427  0.6015 -0.5782 -0.0182
  139MOL0     C18694  10.794   7.684   4.527 -0.8189  0.1149  0.2679
  139MOL0     C18695  10.742   7.633   4.622 -0.7319 -0.9040  0.0005
  139MOL0     C18696  10.453   7.923   3.919  0.0408 -0.0258  0.6523
  139MOL0     C18697  10.335   7.987   3.865  0.4888  0.2048 -0.5230
  139MOL0     H18698  10.002   8.312   3.718  3.1045 -1.4584  0.9705
  139MOL0     H18699   9.815   8.458   3.728  0.5529  1.8925 -1.0311
  139MOL0     H18700   9.693   8.673   3.712 -0.7285  0.2556 -0.8607
  139MOL0     H18701   9.630   8.567   3.846  0.2559  1.3890  5.4512
  139MOL0     H18702   9.522   8.739   3.956  2.2952  1.2280  0.8981
  139MOL0     H18703   9.628   8.859   3.884  1.6348 -0.2783  1.8831
  139MOL0     H18704   9.526   8.813   3.660  1.3584 -0.1526  0.9728
  139MOL0     H18705   9.396   8.709   3.744 -0.3808  0.1228 -0.5768
  139MOL0     H18706   9.302   8.878   3.844 -2.4700  2.5383 -0.0256
  139MOL0     H18707   9.427   8.995   3.823 -1.0458  0.3824  2.1466
  139MOL0     H18708   9.309   9.057   3.628  3.2729 -0.1295 -3.2951
  139MOL0     H18709   9.358   8.911   3.546  0.9879  0.6630  0.7298
  139MOL0     H18710   9.138   8.924   3.528 -0.0101  2.6262 -0.2650
  139MOL0     H18711   9.193   8.788   3.634  1.2386 -0.2163 -0.0759
  139MOL0     H18712   9.071   8.887   3.819 -1.3695 -0.8983 -1.6860
  139MOL0     H18713   9.142   9.048   3.771 -0.9261 -0.4284  1.0907
  139MOL0     H18714   8.942   9.080   3.627 -0.9138  1.0421  1.0882
  139MOL0     H18715   8.872   9.004   3.767 -1.4817 -0.2997 -0.3108
  139MOL0     H18716   8.893   8.701   3.703  0.9036  0.1673 -0.8635
  139MOL0     H18717   8.729   8.551   3.380  0.9642  0.1489 -0.2653
  139MOL0     H18718   8.736   8.511   3.558 -1.8768 -2.4891 -0.1618
  139MOL0     H18719   8.537   8.679   3.396 -1.5987 -0.3078 -1.2708
  139MOL0     H18720   8.533   8.654   3.578  2.1611  3.2682 -1.7409
  139MOL0     H18721   8.489   8.414   3.528 -1.1518 -2.1769 -2.0183
  139MOL0     H18722   8.530   8.434   3.363  1.4677 -0.5547  1.0401
  139MOL0     H18723   8.323   8.585   3.333  0.8935 -0.2367  0.1041
  139MOL0     H18724   8.275   8.566   3.492 -0.3508 -0.3576 -0.6772
  139MOL0     H18725   8.188   8.194   3.246  0.3930 -0.2365  2.2995
  139MOL0     H18726   7.907   8.129   3.044  0.7479 -3.7773 -1.2367
  139MOL0     H18727   8.027   8.050   3.149 -0.1722 -1.1041  2.4223
  139MOL0     H18728   7.859   8.065   3.205 -2.3717  3.3237 -1.1797
  139MOL0     H18729   7.471   8.111   3.255 -2.6682  2.9080  1.4632
  139MOL0     H18730   7.239   8.140   3.141  0.6845 -0.7466  2.0726
  139MOL0     H18731   7.218   8.454   2.873  3.1385 -2.4871 -1.6972
  139MOL0     H18732   7.199   8.328   2.746 -1.6777 -4.2052  0.5896
  139MOL0     H18733   6.994   8.492   2.790  0.6049  1.6368  1.0211
  139MOL0     H18734   6.975   8.309   2.756  1.2071  0.9955 -0.3568
  139MOL0     H18735   6.936   8.486   3.013  1.1354  1.2744 -0.4730
  139MOL0     H18736   6.967   8.305   3.021  0.7082  1.1773  2.8844
  139MOL0     H18737   6.749   8.426   2.838 -3.5033 -0.9813  0.5353
  139MOL0     H18738   6.787   8.261   2.868 -0.9957  1.9058 -3.6632
  139MOL0     H18739   6.708   8.470   3.090 -2.1262  0.9696  0.1181
  139MOL0     H18740   6.712   8.302   3.121 -1.0984  3.2500  3.1897
  139MOL0     H18741   6.533   8.428   2.921  0.6843 -0.5274  0.0701
  139MOL0     H18742   6.518   8.262   2.998 -2.1582  1.0166 -0.5081
  139MOL0     H18743   6.485   8.543   3.127  2.0768 -0.0285 -1.7206
  139MOL0     H18744   6.489   8.390   3.212 -0.6858  0.4796  0.3546
  139MOL0     H18745   6.262   8.491   3.190 -1.2135  0.1444 -1.4410
  139MOL0     H18746   6.284   8.317   3.138 -0.3561 -0.0451 -0.3141
  139MOL0     H18747   7.441   8.330   2.822  0.0013 -0.4272  0.5308
  139MOL0     H18748   7.652   8.289   2.918  0.3856 -0.4238  1.5627
  139MOL0     H18749   7.851   8.549   3.325  1.6995  0.2176  0.9434
  139MOL0     H18750   8.088   8.572   3.402 -2.9667  1.0462  0.2104
  139MOL0     H18751   9.999   8.683   4.042  0.9262 -0.4201  1.3724
  139MOL0     H18752  10.205   8.542   4.016 -0.4343 -2.2748  2.5807
  139MOL0     H18753  10.439   8.289   3.980 -1.6138 -1.0139  2.0567
  139MOL0     H18754  10.602   8.180   4.095  1.8273  1.7994 -3.6342
  139MOL0     H18755  10.540   7.767   4.176  0.6789 -2.4533 -0.1586
  139MOL0     H18756  10.633   7.719   4.033  2.2616  0.7076 -0.6515
  139MOL0     H18757  10.844   7.741   4.150  0.0798  2.2485  0.0290
  139MOL0     H18758  10.730   7.637   4.233  1.8066 -0.4392 -1.9689
  139MOL0     H18759  10.671   7.843   4.370  0.3379 -0.2916  1.5726
  139MOL0     H18760  10.808   7.917   4.295 -2.0324  0.6368 -1.8838
  139MOL0     H18761  10.910   7.846   4.484 -0.7894  0.1861 -0.0281
  139MOL0     H18762  10.943   7.712   4.368  0.7660  1.8417 -2.0573
  139MOL0     H18763  10.697   7.606   4.715 -0.6637  1.8329  0.9271
  139MOL0     H18764  10.464   7.820   3.885 -1.3337  0.8991 -3.0354
  139MOL0     H18765  10.265   7.940   3.797 -0.0384 -0.4370  0.4373
  140MOL0     O18766   9.700   9.443   9.353 -0.3824 -0.8698  0.1848
  140MOL0     C18767   9.607   9.446   9.440 -0.3139  0.6358  0.6594
  140MOL0     O18768   9.602   9.362   9.552 -0.3094  0.1182  0.1142
  140MOL0     C18769   9.695   9.261   9.559  0.4994 -0.5826 -0.2567
  140MOL0     C18770   9.652   9.132   9.560 -0.4318 -0.1851  0.1975
  140MOL0     C18771   9.752   9.032   9.588  0.3257 -0.3112 -0.3652
  140MOL0     C18772   9.882   9.067   9.627  1.3396  0.5997  0.2756
  140MOL0     O18773   9.972   8.964   9.652  0.5244  0.3964 -0.2288
  140MOL0     C18774  10.100   8.987   9.721  0.0544 -0.0399 -0.2941
  140MOL0     C18775  10.207   8.940   9.619  0.5196 -0.2856  0.3594
  140MOL0     C18776  10.351   8.972   9.660 -0.8535  0.1762  0.5263
  140MOL0     C18777  10.408   8.856   9.734 -0.8901  0.2047 -0.2589
  140MOL0     C18778  10.553   8.896   9.739 -0.0016 -1.2107 -0.6576
  140MOL0     C18779  10.636   8.774   9.778 -0.8372 -0.8068 -0.2868
  140MOL0     C18780  10.775   8.822   9.826  0.0171  0.3179 -0.4666
  140MOL0     C18781  10.861   8.706   9.866  0.1408 -0.0045  0.5203
  140MOL0     N18782  10.990   8.750   9.918 -0.0259 -0.9681  0.2369
  140MOL0     C18783  11.045   8.870   9.943  0.6697 -0.2719  0.4907
  140MOL0     C18784  11.178   8.855   9.948  0.3421 -0.5846  0.2294
  140MOL0     C18785  11.285   8.970   9.955  0.9242  0.4086 -0.1768
  140MOL0     C18786  11.227   9.111   9.920 -0.5080  0.3640 -0.0354
  140MOL0     C18787  11.193   9.200  10.033  0.4991 -0.5787  0.4453
  140MOL0     C18788  11.091   9.298   9.993 -0.2342 -0.2494  0.1292
  140MOL0     O18789  10.970   9.220   9.985  0.4928 -0.5300  0.8012
  140MOL0     C18790  10.854   9.287   9.960  0.7954  0.2438 -0.3380
  140MOL0     C18791  10.845   9.428   9.954 -0.4853 -1.0750  0.0367
  140MOL0     C18792  10.715   9.481   9.923 -0.3290 -0.1168 -0.6920
  140MOL0     C18793  10.709   9.631   9.909  0.7585  0.1665 -1.2902
  140MOL0     C18794  10.594   9.392   9.914 -0.3892 -0.1636  0.2019
  140MOL0     C18795  10.456   9.438   9.931 -0.4996  0.0884 -0.3764
  140MOL0     O18796  10.435   9.574   9.946  0.2791 -0.1333  0.3617
  140MOL0     C18797  10.305   9.625   9.935  0.3493  0.2499  0.6075
  140MOL0     C18798  10.201   9.561   9.995  0.3441  0.4285 -0.0497
  140MOL0     C18799  10.066   9.591   9.963 -0.8964  1.1734  0.0069
  140MOL0     C18800  10.036   9.700   9.874 -0.4425 -0.2365 -0.5136
  140MOL0     O18801   9.918   9.732   9.831  0.9456  0.3738  0.1309
  140MOL0     C18802   9.825   9.635   9.808  0.5205 -0.1409 -0.8317
  140MOL0     C18803   9.719   9.693   9.718  0.0816  0.3818  0.1534
  140MOL0     C18804   9.623   9.792   9.783  0.2551 -0.1124 -0.2809
  140MOL0     C18805   9.533   9.868   9.695  0.5199 -0.4317  0.4365
  140MOL0     C18806   9.598   9.974   9.604  0.0686 -0.1814 -0.2946
  140MOL0     C18807   9.656  10.088   9.685  0.3293 -0.1680  0.1705
  140MOL0     C18808   9.801  10.084   9.663 -0.0838  0.1476 -0.7804
  140MOL0     C18809   9.872  10.209   9.720  0.7178 -0.4633  0.8259
  140MOL0    Cl18810  10.039  10.211   9.666 -0.3011  0.0589  0.6468
  140MOL0     C18811  10.153   9.766   9.831 -0.2277  0.0121 -0.0794
  140MOL0     C18812  10.277   9.725   9.850 -0.3075  0.3590 -0.0353
  140MOL0     O18813  10.367   9.353   9.916  0.3634  0.1782  0.0013
  140MOL0     C18814  10.617   9.255   9.923 -0.7645  0.2507  0.5801
  140MOL0     C18815  10.745   9.202   9.951 -0.8879 -0.0495  1.1793
  140MOL0     N18816  11.199   8.718   9.921 -0.7059 -1.4311 -0.0789
  140MOL0     N18817  11.086   8.661   9.910 -0.9769  0.0766  1.2061
  140MOL0     C18818   9.912   9.201   9.638 -0.0367  0.3038  0.1863
  140MOL0     C18819   9.825   9.299   9.600 -0.3588  0.1407 -0.5267
  140MOL0     C18820   9.500   9.551   9.409 -0.1550  0.1436 -0.2562
  140MOL0     C18821   9.501   9.616   9.287 -0.1760  0.5562  0.6610
  140MOL0     C18822   9.392   9.704   9.251 -0.4502 -0.2699 -0.0373
  140MOL0     C18823   9.287   9.727   9.340 -0.5224 -0.6557 -0.9936
  140MOL0     O18824   9.191   9.822   9.317  0.0516 -0.0489  0.3764
  140MOL0     C18825   9.183   9.892   9.192  0.2782 -1.1070  0.3176
  140MOL0     C18826   9.040   9.946   9.173 -0.2105  0.3513 -0.1060
  140MOL0     C18827   8.983  10.035   9.284 -0.5608 -0.1933  0.2348
  140MOL0     C18828   8.848  10.102   9.249 -0.2742  0.0575  0.1373
  140MOL0     C18829   8.742   9.999   9.269 -0.3674 -0.4624 -1.1557
  140MOL0     C18830   8.649   9.930   9.304 -0.3044  0.9010  0.8462
  140MOL0     C18831   9.285   9.659   9.466 -0.7318  1.2290 -0.1247
  140MOL0     C18832   9.387   9.575   9.497 -0.3375  0.0123  1.0524
  140MOL0     H18833   9.555   9.093   9.530  0.2956 -1.5925 -0.4644
  140MOL0     H18834   9.726   8.927   9.595  3.7092 -1.1814  0.7491
  140MOL0     H18835  10.110   9.089   9.760  2.2581 -0.3749  0.1902
  140MOL0     H18836  10.099   8.932   9.816 -0.5431  1.0687  0.3675
  140MOL0     H18837  10.187   8.834   9.599  0.1553 -0.1845  0.1763
  140MOL0     H18838  10.183   8.993   9.527 -2.7217  1.9994  2.3081
  140MOL0     H18839  10.407   9.004   9.572  0.4913  1.7851  1.9070
  140MOL0     H18840  10.362   9.056   9.729  1.7828  0.7652 -0.5024
  140MOL0     H18841  10.369   8.836   9.834 -2.5270  0.1748 -0.8780
  140MOL0     H18842  10.404   8.760   9.683 -2.8797 -0.2788  0.7181
  140MOL0     H18843  10.593   8.934   9.644 -2.8270 -0.1057 -1.5164
  140MOL0     H18844  10.565   8.971   9.817 -0.1524 -0.9931 -0.8416
  140MOL0     H18845  10.579   8.718   9.853 -0.1855  0.8406  1.5135
  140MOL0     H18846  10.656   8.711   9.690 -0.5990 -0.9843 -0.1095
  140MOL0     H18847  10.829   8.890   9.760 -1.5024  1.0126 -1.0433
  140MOL0     H18848  10.759   8.885   9.915 -3.3161 -1.5353  0.4139
  140MOL0     H18849  10.876   8.632   9.787 -0.2564 -1.8213  2.0588
  140MOL0     H18850  10.808   8.654   9.946 -1.0244  1.8126  0.9902
  140MOL0     H18851  10.995   8.967   9.945  4.2368  1.7696 -0.1535
  140MOL0     H18852  11.341   8.955  10.048  1.6068  0.2647 -0.6044
  140MOL0     H18853  11.359   8.960   9.875 -1.5568 -0.0878 -2.5376
  140MOL0     H18854  11.140   9.087   9.859  0.6673  1.0498 -2.1013
  140MOL0     H18855  11.286   9.176   9.854 -1.4816  0.7738 -0.5149
  140MOL0     H18856  11.286   9.247  10.067 -0.1501 -1.4758  3.8016
  140MOL0     H18857  11.160   9.139  10.117  0.5100 -3.3176 -1.4063
  140MOL0     H18858  11.118   9.333   9.893 -1.0915  1.0685  0.3360
  140MOL0     H18859  11.088   9.385  10.059 -0.6011  1.8796 -2.5084
  140MOL0     H18860  10.932   9.492   9.955 -1.1916 -0.0993  1.4583
  140MOL0     H18861  10.813   9.664   9.907  0.6359  0.5581 -1.5114
  140MOL0     H18862  10.656   9.665   9.820 -0.2541  2.1784  0.0019
  140MOL0     H18863  10.667   9.679   9.998 -0.1050 -1.5475 -0.7417
  140MOL0     H18864  10.220   9.476  10.058 -4.0605  0.4169  1.6414
  140MOL0     H18865   9.989   9.520   9.989 -1.0364  0.6936 -1.6021
  140MOL0     H18866   9.860   9.548   9.752 -0.5904 -3.0001  2.5278
  140MOL0     H18867   9.787   9.602   9.906  2.7743 -1.1253 -0.2251
  140MOL0     H18868   9.776   9.735   9.635  2.9635 -1.6217  0.9498
  140MOL0     H18869   9.657   9.617   9.669  1.0252 -0.3672  0.0817
  140MOL0     H18870   9.687   9.863   9.835 -0.2976 -0.9903  1.6678
  140MOL0     H18871   9.572   9.736   9.862  1.0693 -1.0820 -0.4181
  140MOL0     H18872   9.476   9.790   9.643  3.4374 -1.2536 -1.8179
  140MOL0     H18873   9.466   9.918   9.766  0.3813 -3.3238  2.5218
  140MOL0     H18874   9.517  10.018   9.545  2.4489  2.8131 -1.5901
  140MOL0     H18875   9.669   9.926   9.536  0.1888  0.3533 -0.5505
  140MOL0     H18876   9.609  10.182   9.653 -1.5830 -0.8383  0.8300
  140MOL0     H18877   9.634  10.085   9.792  0.6459  1.8390  0.3263
  140MOL0     H18878   9.824  10.059   9.560  3.2086 -0.1029 -0.0752
  140MOL0     H18879   9.836  10.002   9.727 -0.0248  0.1914 -0.7545
  140MOL0     H18880   9.867  10.200   9.829  1.9792 -1.7342  0.8078
  140MOL0     H18881   9.827  10.305   9.694  1.4582 -0.5065 -0.7505
  140MOL0     H18882  10.134   9.854   9.770 -1.0349  0.5452  0.9114
  140MOL0     H18883  10.363   9.774   9.806  1.4299 -1.6803  0.8986
  140MOL0     H18884  10.542   9.178   9.926 -0.2313 -0.4176 -1.5428
  140MOL0     H18885  10.752   9.095   9.972 -1.2988 -0.4717 -0.6559
  140MOL0     H18886  10.015   9.224   9.664  0.7104 -3.2837  1.0647
  140MOL0     H18887   9.852   9.403   9.608  0.7977 -0.1443 -0.4924
  140MOL0     H18888   9.581   9.608   9.215 -0.8066  4.5060 -0.7257
  140MOL0     H18889   9.394   9.756   9.156 -1.1722  0.6337  0.4169
  140MOL0     H18890   9.244   9.983   9.200 -3.9173  2.0622 -0.2358
  140MOL0     H18891   9.209   9.828   9.108  0.4264 -1.3707  0.5637
  140MOL0     H18892   8.978   9.856   9.166 -1.4588  1.2632 -1.4874
  140MOL0     H18893   9.040  10.001   9.078 -0.7715 -2.1309 -1.6239
  140MOL0     H18894   9.054  10.117   9.298  0.7032 -1.3840  1.0556
  140MOL0     H18895   8.976   9.985   9.381 -0.4280  1.2779  1.0374
  140MOL0     H18896   8.841  10.155   9.153  0.4331 -2.7053 -1.5722
  140MOL0     H18897   8.830  10.178   9.325 -1.1323  2.0014 -1.8793
  140MOL0     H18898   8.571   9.868   9.344  1.8253 -1.0176  2.2245
  140MOL0     H18899   9.200   9.672   9.532 -3.0663  0.3284 -2.7169
  140MOL0     H18900   9.382   9.520   9.590  0.4804 -2.9188 -0.5081
  141MOL0     O18901   4.585   4.024   0.982  0.4561 -0.6119 -0.4117
  141MOL0     C18902   4.618   4.136   1.020  0.0923  0.0014 -0.5626
  141MOL0     O18903   4.558   4.212   1.118  0.0914  0.8424 -0.1873
  141MOL0     C18904   4.423   4.191   1.156 -0.2615  0.0632  0.6227
  141MOL0     C18905   4.329   4.142   1.071 -0.1025  0.0127  0.0324
  141MOL0     C18906   4.195   4.124   1.114  0.2329  0.6075 -0.6340
  141MOL0     C18907   4.143   4.169   1.235 -0.3459  0.0027  1.1131
  141MOL0     O18908   4.005   4.169   1.252 -0.0665  0.7767 -0.3448
  141MOL0     C18909   3.977   4.075   1.365 -0.0193 -0.4580  0.7748
  141MOL0     C18910   3.860   3.976   1.331  0.3069  0.4632 -0.4041
  141MOL0     C18911   3.730   4.050   1.344 -0.9360 -0.4931 -0.5556
  141MOL0     C18912   3.662   4.024   1.479 -0.7750 -0.1705  0.4370
  141MOL0     C18913   3.520   4.073   1.482 -0.0782 -0.0045 -1.1721
  141MOL0     C18914   3.443   4.063   1.616  0.1887  0.1418 -0.6672
  141MOL0     C18915   3.522   4.126   1.734  0.7544 -0.2084 -0.0014
  141MOL0     C18916   3.441   4.116   1.857 -0.0540 -0.8887  0.3913
  141MOL0     N18917   3.454   3.988   1.913  0.1822  0.0754  0.2472
  141MOL0     C18918   3.581   3.931   1.942  0.8691 -0.0718  0.9576
  141MOL0     C18919   3.552   3.805   1.971 -0.4464  0.0100  0.6601
  141MOL0     C18920   3.666   3.699   2.007  0.1998  0.1263  0.7447
  141MOL0     C18921   3.683   3.694   2.151  0.4514  0.4635  0.1523
  141MOL0     C18922   3.751   3.813   2.228 -0.0176  0.7224  0.1559
  141MOL0     C18923   3.898   3.843   2.181  0.2486  0.1097 -0.9476
  141MOL0     O18924   3.983   3.728   2.189 -0.6643 -0.4619 -0.5743
  141MOL0     C18925   4.117   3.751   2.208  1.6026 -0.0192 -0.1774
  141MOL0     C18926   4.199   3.638   2.221 -0.2767  0.0465  0.7828
  141MOL0     C18927   4.338   3.654   2.228 -0.1288  0.1106 -0.8514
  141MOL0     C18928   4.422   3.525   2.222 -0.0702 -0.0680  0.3839
  141MOL0     C18929   4.388   3.784   2.220  0.7280  0.5303  0.5362
  141MOL0     C18930   4.534   3.813   2.248  0.3666  0.3275  0.3768
  141MOL0     O18931   4.585   3.922   2.188 -0.6600 -0.0985  0.0333
  141MOL0     C18932   4.723   3.943   2.180  0.3185 -0.8044  0.2560
  141MOL0     C18933   4.780   3.953   2.059 -0.5534  0.2548  0.4368
  141MOL0     C18934   4.917   3.986   2.061 -0.2853  0.6850 -0.1300
  141MOL0     C18935   4.996   4.002   2.173  0.6085  0.1696  0.3246
  141MOL0     O18936   5.125   4.042   2.148  0.6649 -0.6219 -0.7404
  141MOL0     C18937   5.209   4.106   2.250 -0.4374 -0.0148 -1.0291
  141MOL0     C18938   5.318   4.169   2.168  0.3135  0.4306  0.6814
  141MOL0     C18939   5.417   4.237   2.252 -0.4803 -0.6756 -0.4541
  141MOL0     C18940   5.539   4.279   2.168 -0.5424  0.0643  0.1073
  141MOL0     C18941   5.578   4.426   2.185  0.6016 -0.3597  0.2959
  141MOL0     C18942   5.624   4.467   2.328  0.3910  0.2418  0.3543
  141MOL0     C18943   5.702   4.359   2.410  0.1134 -0.1705 -0.0519
  141MOL0     C18944   5.760   4.427   2.535 -0.9409  0.0249 -1.2752
  141MOL0    Cl18945   5.624   4.474   2.643 -0.4399 -0.2530 -0.1364
  141MOL0     C18946   4.923   4.012   2.297 -0.9224 -0.3440  0.6645
  141MOL0     C18947   4.792   3.991   2.294  0.8628 -0.4978 -0.6031
  141MOL0     O18948   4.602   3.739   2.330 -0.0631 -0.3449  0.5492
  141MOL0     C18949   4.304   3.899   2.210 -0.4118 -0.4046 -0.0992
  141MOL0     C18950   4.170   3.883   2.207 -0.2546 -0.1264 -1.0462
  141MOL0     N18951   3.416   3.785   1.979 -0.0090 -0.0731 -0.3962
  141MOL0     N18952   3.357   3.903   1.956  0.5779 -0.7183 -0.0915
  141MOL0     C18953   4.244   4.224   1.313  1.0244  0.6281 -0.4953
  141MOL0     C18954   4.378   4.230   1.285  0.0159  0.5263  0.4676
  141MOL0     C18955   4.748   4.180   0.966  0.0143  0.3005 -0.4495
  141MOL0     C18956   4.821   4.094   0.881 -0.7967 -0.4731  0.1773
  141MOL0     C18957   4.944   4.134   0.827 -0.0825 -0.0977  0.2343
  141MOL0     C18958   5.002   4.256   0.851  0.0830 -0.1016 -0.2329
  141MOL0     O18959   5.128   4.302   0.828  0.2915  0.1702  0.2298
  141MOL0     C18960   5.206   4.226   0.736 -0.0790  0.6420 -1.0518
  141MOL0     C18961   5.283   4.106   0.805 -0.0845  0.4981 -0.2071
  141MOL0     C18962   5.426   4.100   0.762  0.2039  0.2498 -0.7745
  141MOL0     C18963   5.502   3.999   0.846  0.7026 -0.0927  0.0255
  141MOL0     C18964   5.630   3.983   0.788  0.7567 -0.0778  0.6909
  141MOL0     C18965   5.737   3.964   0.740  0.3406 -0.5281 -0.0671
  141MOL0     C18966   4.922   4.344   0.923  0.7590 -0.2387 -0.0925
  141MOL0     C18967   4.796   4.314   0.977 -0.9490 -0.2847  0.5901
  141MOL0     H18968   4.348   4.095   0.975 -0.4063 -0.1204  0.0354
  141MOL0     H18969   4.123   4.091   1.039  0.3687  0.1943 -0.5858
  141MOL0     H18970   4.062   4.007   1.380 -0.2900 -0.5822  1.8402
  141MOL0     H18971   3.964   4.138   1.453 -0.0093  0.8121 -0.1091
  141MOL0     H18972   3.870   3.930   1.232  1.7507 -0.2442  0.0399
  141MOL0     H18973   3.859   3.901   1.410 -1.3509  0.9976  0.1207
  141MOL0     H18974   3.740   4.159   1.334  0.9574 -0.4576  1.1302
  141MOL0     H18975   3.658   4.026   1.265 -1.7766 -0.3420  0.1548
  141MOL0     H18976   3.663   3.919   1.511  2.1854 -0.9650 -1.7725
  141MOL0     H18977   3.712   4.078   1.560 -0.8825 -0.2836  0.5792
  141MOL0     H18978   3.524   4.179   1.452  0.3216 -0.0525 -1.2908
  141MOL0     H18979   3.478   4.007   1.405  2.2101 -0.4813 -2.0698
  141MOL0     H18980   3.361   4.133   1.601  2.4909  2.6249 -2.7244
  141MOL0     H18981   3.415   3.958   1.629  3.9370 -0.6277  4.4739
  141MOL0     H18982   3.624   4.085   1.736  0.2687 -1.5180 -0.9550
  141MOL0     H18983   3.529   4.234   1.719 -0.8656  0.1130  1.2802
  141MOL0     H18984   3.336   4.137   1.837  0.6697 -0.1530 -3.2855
  141MOL0     H18985   3.474   4.187   1.934 -1.4157  1.3126 -0.9269
  141MOL0     H18986   3.678   3.979   1.932  1.7291 -2.1112 -1.2949
  141MOL0     H18987   3.633   3.603   1.966 -1.9132  1.7723 -1.7497
  141MOL0     H18988   3.756   3.711   1.946 -0.2814  0.5719  0.1099
  141MOL0     H18989   3.736   3.605   2.187  2.4576  1.7980  0.6920
  141MOL0     H18990   3.581   3.683   2.187  0.9904 -2.0152  1.0801
  141MOL0     H18991   3.742   3.791   2.335 -3.0478 -0.3207 -0.2317
  141MOL0     H18992   3.686   3.899   2.210 -2.3825 -1.5231 -3.2239
  141MOL0     H18993   3.928   3.930   2.240 -1.2084 -0.7497  1.1900
  141MOL0     H18994   3.901   3.884   2.080  1.0976  1.2882 -0.4656
  141MOL0     H18995   4.151   3.541   2.235 -0.7262  0.2512  0.6886
  141MOL0     H18996   4.377   3.459   2.147 -0.7886  1.6317 -0.7531
  141MOL0     H18997   4.529   3.534   2.201 -0.7031  0.2706 -3.5303
  141MOL0     H18998   4.414   3.477   2.319 -2.6731 -2.0278 -0.6819
  141MOL0     H18999   4.735   3.917   1.967 -1.8496 -1.9649  1.8466
  141MOL0     H19000   4.960   4.007   1.964 -0.9646  1.4531 -0.2802
  141MOL0     H19001   5.163   4.187   2.307  1.1693 -0.3482  0.8309
  141MOL0     H19002   5.249   4.033   2.320  1.1848  0.3938 -1.5008
  141MOL0     H19003   5.373   4.088   2.119  1.3030  1.1851  0.5019
  141MOL0     H19004   5.280   4.238   2.092 -3.0227  2.1379  3.6258
  141MOL0     H19005   5.455   4.156   2.315 -3.7033 -1.1899  0.9929
  141MOL0     H19006   5.378   4.316   2.316  2.8153 -0.5148  1.6101
  141MOL0     H19007   5.623   4.217   2.200  0.4344  1.8637  1.1886
  141MOL0     H19008   5.522   4.261   2.061  1.1285  1.2113 -0.3914
  141MOL0     H19009   5.492   4.492   2.169  2.8057  2.4654 -0.7385
  141MOL0     H19010   5.656   4.440   2.110  0.4887 -2.1418 -0.1877
  141MOL0     H19011   5.683   4.558   2.310  1.2313 -0.5498 -1.1351
  141MOL0     H19012   5.537   4.498   2.386  1.0558 -0.0709  1.5558
  141MOL0     H19013   5.786   4.321   2.351 -1.1388 -3.3546  0.0311
  141MOL0     H19014   5.633   4.283   2.449  0.7749 -0.5053  0.4771
  141MOL0     H19015   5.825   4.513   2.514  0.5513 -1.2287 -1.9861
  141MOL0     H19016   5.819   4.352   2.589 -2.2969 -0.0501  0.1671
  141MOL0     H19017   4.967   4.052   2.388 -0.4648  0.8012 -0.0317
  141MOL0     H19018   4.738   3.998   2.387 -0.7461 -0.8986 -1.4788
  141MOL0     H19019   4.343   4.000   2.220  1.8841 -1.4151  2.1201
  141MOL0     H19020   4.116   3.974   2.180 -1.7634 -0.4890  0.5524
  141MOL0     H19021   4.216   4.262   1.411 -2.3416  1.7862 -1.7513
  141MOL0     H19022   4.448   4.269   1.359 -1.5420  0.5166  2.0059
  141MOL0     H19023   4.780   3.999   0.848 -2.9101  0.1301  0.8738
  141MOL0     H19024   4.993   4.066   0.758 -1.5151  0.2765 -1.2073
  141MOL0     H19025   5.153   4.193   0.646  1.7008  0.1010 -1.9590
  141MOL0     H19026   5.284   4.298   0.709 -2.1693  3.5901  0.2828
  141MOL0     H19027   5.240   4.011   0.771 -0.5375  0.4807  0.3885
  141MOL0     H19028   5.275   4.114   0.914  3.1493  0.4418  0.1278
  141MOL0     H19029   5.476   4.197   0.773  3.0593 -0.9731 -2.0433
  141MOL0     H19030   5.425   4.076   0.656 -1.3536  0.0554 -0.7441
  141MOL0     H19031   5.439   3.910   0.836 -1.3520  1.3548 -0.5480
  141MOL0     H19032   5.516   4.036   0.948  1.2109  0.0602 -0.0978
  141MOL0     H19033   5.827   3.954   0.684  0.0580  0.5625 -0.7316
  141MOL0     H19034   4.951   4.447   0.940 -0.4496  0.8355 -3.5711
  141MOL0     H19035   4.746   4.393   1.032  0.8975  0.3038  1.4841
  142MOL0     O19036   0.719   3.170   0.805  0.1720  0.4193  0.2063
  142MOL0     C19037   0.680   3.115   0.696  0.5029  0.1292 -0.7660
  142MOL0     O19038   0.550   3.113   0.646 -0.4399  0.0054  0.1521
  142MOL0     C19039   0.452   3.157   0.729  0.0759  0.6109  0.4183
  142MOL0     C19040   0.371   3.059   0.776 -0.1529  0.7903  0.0369
  142MOL0     C19041   0.257   3.094   0.847  0.5316 -0.6675 -0.1039
  142MOL0     C19042   0.226   3.229   0.878  0.1418  0.7498  0.2191
  142MOL0     O19043   0.112   3.269   0.940  0.8279 -0.9653 -0.2223
  142MOL0     C19044  -0.003   3.190   0.933  0.1736  0.0962  0.7291
  142MOL0     C19045  -0.120   3.291   0.964 -0.3366  0.0369  0.2305
  142MOL0     C19046  -0.151   3.376   0.836 -0.7654 -0.1772 -0.2707
  142MOL0     C19047  -0.214   3.293   0.723 -0.2999  0.2251 -0.4072
  142MOL0     C19048  -0.263   3.368   0.599  0.4775 -0.6457 -0.3867
  142MOL0     C19049  -0.149   3.432   0.521 -0.6271  0.3946  0.4764
  142MOL0     C19050  -0.067   3.328   0.439  0.7799  0.0269  0.1660
  142MOL0     C19051   0.064   3.389   0.427 -0.7164 -0.4623  0.6023
  142MOL0     N19052   0.147   3.295   0.346  0.0985 -1.4120  0.0689
  142MOL0     C19053   0.236   3.198   0.387 -0.3848  0.3236 -0.0433
  142MOL0     C19054   0.289   3.146   0.277 -0.2795 -0.0217  0.9697
  142MOL0     C19055   0.377   3.029   0.283 -0.1727  0.6022 -0.6295
  142MOL0     C19056   0.492   3.056   0.184  0.1796  0.7800 -0.7686
  142MOL0     C19057   0.577   3.185   0.214 -0.3065  0.5676  0.0344
  142MOL0     C19058   0.658   3.228   0.091 -0.5553  0.6923 -0.4137
  142MOL0     O19059   0.776   3.145   0.083 -0.9388  0.2083 -0.1835
  142MOL0     C19060   0.898   3.194   0.037 -0.3669  0.6322  0.1200
  142MOL0     C19061   1.007   3.103   0.022  0.0629  0.6534  0.8826
  142MOL0     C19062   1.138   3.141  -0.023  0.3821 -0.6783  1.1287
  142MOL0     C19063   1.241   3.033  -0.034 -0.1209  0.0239 -0.4516
  142MOL0     C19064   1.165   3.283  -0.045 -0.4815 -0.2394 -1.6346
  142MOL0     C19065   1.304   3.341  -0.052  0.0655  0.9340 -0.4784
  142MOL0     O19066   1.309   3.482  -0.058 -0.3464  0.3955  0.0709
  142MOL0     C19067   1.439   3.534  -0.073 -0.3228  1.1558  0.4114
  142MOL0     C19068   1.517   3.578   0.031 -0.4215  0.2391  0.4484
  142MOL0     C19069   1.643   3.632   0.001  0.1829 -0.4502 -0.4720
  142MOL0     C19070   1.692   3.644  -0.131 -0.5669 -0.1612  0.3437
  142MOL0     O19071   1.820   3.682  -0.148  0.5815 -0.0163  0.3484
  142MOL0     C19072   1.845   3.758  -0.271 -0.1374 -0.9651  0.4416
  142MOL0     C19073   1.999   3.769  -0.259 -0.0505  0.3257  0.0546
  142MOL0     C19074   2.067   3.629  -0.273  0.2372 -1.0113 -0.2669
  142MOL0     C19075   2.211   3.629  -0.233 -0.6299  0.2425 -0.1913
  142MOL0     C19076   2.285   3.497  -0.265 -1.3449  0.0204  0.3670
  142MOL0     C19077   2.348   3.491  -0.402 -0.6370  0.6151  0.2546
  142MOL0     C19078   2.471   3.581  -0.432 -0.7948  0.5071  0.2348
  142MOL0     C19079   2.594   3.502  -0.483  0.2851 -0.3390 -0.7962
  142MOL0    Cl19080   2.649   3.373  -0.355  0.4793  0.5573  0.5375
  142MOL0     C19081   1.608   3.614  -0.234 -0.4648  1.2471 -0.3885
  142MOL0     C19082   1.483   3.549  -0.206 -0.4724 -0.1527  0.3312
  142MOL0     O19083   1.400   3.268  -0.043 -0.1215  0.9593 -0.4093
  142MOL0     C19084   1.055   3.367  -0.031  0.7908 -1.0292  0.2200
  142MOL0     C19085   0.931   3.326   0.009  0.4225 -0.9796 -0.2924
  142MOL0     N19086   0.233   3.213   0.166  0.1213  0.3976 -0.5775
  142MOL0     N19087   0.144   3.287   0.209 -0.0846 -0.8668  0.1217
  142MOL0     C19088   0.317   3.327   0.852 -0.7308  0.0656  0.4075
  142MOL0     C19089   0.434   3.289   0.767  0.6581 -0.0377  0.4027
  142MOL0     C19090   0.787   3.050   0.617 -0.1260  0.1539 -0.2908
  142MOL0     C19091   0.916   3.028   0.667  0.7278  0.6489 -0.3513
  142MOL0     C19092   1.013   2.969   0.586 -0.2160  0.3784 -0.0714
  142MOL0     C19093   0.980   2.929   0.449 -1.0600 -0.6381  0.1273
  142MOL0     O19094   1.073   2.867   0.373  0.1281 -0.9703 -0.3561
  142MOL0     C19095   1.070   2.732   0.407  0.2599 -0.5154 -1.6652
  142MOL0     C19096   1.155   2.661   0.297 -0.0458 -1.0735 -1.1544
  142MOL0     C19097   1.286   2.740   0.273  0.0550 -0.0634 -0.3061
  142MOL0     C19098   1.367   2.755   0.405 -0.0643 -0.2942 -0.7132
  142MOL0     C19099   1.515   2.761   0.391  1.1898  0.3585 -0.3464
  142MOL0     C19100   1.631   2.775   0.356 -0.6193  0.2508  0.0860
  142MOL0     C19101   0.852   2.947   0.401 -0.0900 -0.2101 -0.4547
  142MOL0     C19102   0.753   3.007   0.479 -0.1605  0.3835  0.6748
  142MOL0     H19103   0.390   2.956   0.749  0.4550  0.6363  1.0210
  142MOL0     H19104   0.180   3.018   0.850 -0.2646  0.1424  1.6590
  142MOL0     H19105  -0.022   3.133   0.841 -2.1196 -1.6582  2.1475
  142MOL0     H19106   0.001   3.115   1.013 -0.8114 -2.5432 -1.5093
  142MOL0     H19107  -0.205   3.233   1.001  0.4411 -1.4609 -0.2595
  142MOL0     H19108  -0.096   3.355   1.050  0.4398 -1.3032  1.0444
  142MOL0     H19109  -0.227   3.445   0.874 -2.7864 -2.4596  0.0705
  142MOL0     H19110  -0.059   3.422   0.797 -0.2003  0.0590  1.2742
  142MOL0     H19111  -0.145   3.212   0.697 -0.4904 -0.3698  0.8567
  142MOL0     H19112  -0.307   3.252   0.762  0.8935 -1.3367  0.9445
  142MOL0     H19113  -0.317   3.308   0.525 -0.6047  0.1757 -0.2806
  142MOL0     H19114  -0.334   3.446   0.628 -0.9511 -1.5918 -1.2606
  142MOL0     H19115  -0.189   3.503   0.447  2.6710  0.6557 -1.2678
  142MOL0     H19116  -0.081   3.493   0.581  0.3030  0.9251 -1.0643
  142MOL0     H19117  -0.046   3.241   0.501  1.6333  0.7392  0.9048
  142MOL0     H19118  -0.108   3.307   0.339  2.4489  0.2482 -0.5952
  142MOL0     H19119   0.111   3.397   0.525  1.6878 -1.9717 -0.3511
  142MOL0     H19120   0.058   3.482   0.369 -2.3692 -1.3175 -0.7036
  142MOL0     H19121   0.255   3.163   0.488  2.4352 -1.2113 -0.9948
  142MOL0     H19122   0.414   3.005   0.383 -2.0088  0.6199  0.0968
  142MOL0     H19123   0.324   2.947   0.234 -0.0930 -0.6184  1.2448
  142MOL0     H19124   0.446   3.058   0.085 -1.4232  0.5784 -0.0650
  142MOL0     H19125   0.570   2.980   0.187  1.4666  2.0658 -0.5535
  142MOL0     H19126   0.637   3.175   0.305 -1.3745  1.5979  0.8801
  142MOL0     H19127   0.508   3.268   0.230 -2.9582 -1.5636  0.2772
  142MOL0     H19128   0.684   3.330   0.121 -3.8779  0.7461  2.9788
  142MOL0     H19129   0.603   3.235  -0.002  1.5107 -0.8064 -1.8544
  142MOL0     H19130   0.981   2.999   0.039 -0.3521  0.7888  1.1019
  142MOL0     H19131   1.188   2.938  -0.021  1.5748 -1.5299 -3.7914
  142MOL0     H19132   1.284   3.027  -0.134 -0.2937 -2.4843 -0.4508
  142MOL0     H19133   1.320   3.055   0.038 -0.6560  0.8745 -0.1038
  142MOL0     H19134   1.473   3.578   0.130  0.7096  1.1023  0.9638
  142MOL0     H19135   1.713   3.664   0.078  0.1501  3.0446 -1.7190
  142MOL0     H19136   1.823   3.699  -0.361  1.9417 -0.2890 -0.5793
  142MOL0     H19137   1.805   3.859  -0.268 -2.5053 -1.7382 -1.6091
  142MOL0     H19138   2.030   3.836  -0.340 -1.8227  1.7931  0.5234
  142MOL0     H19139   2.018   3.822  -0.165 -1.5251 -1.0375  1.1680
  142MOL0     H19140   2.060   3.604  -0.379 -0.7707  0.1779 -0.4990
  142MOL0     H19141   2.024   3.547  -0.214  1.2456 -0.6664  0.9773
  142MOL0     H19142   2.270   3.710  -0.278  0.0439 -0.6679 -0.9839
  142MOL0     H19143   2.220   3.645  -0.126 -1.1152  0.4080 -0.1753
  142MOL0     H19144   2.223   3.413  -0.234 -2.4087  1.3119  1.8904
  142MOL0     H19145   2.378   3.491  -0.208 -0.1847  1.9416 -1.1686
  142MOL0     H19146   2.383   3.390  -0.425 -0.0814  1.0662 -0.9825
  142MOL0     H19147   2.264   3.515  -0.467 -0.7558 -3.9916 -1.6881
  142MOL0     H19148   2.505   3.640  -0.346  1.7609 -2.7470  1.7378
  142MOL0     H19149   2.446   3.649  -0.513  1.7316 -0.0583 -1.1275
  142MOL0     H19150   2.679   3.564  -0.511 -0.3940  0.7533 -0.4947
  142MOL0     H19151   2.552   3.452  -0.571 -3.8412 -2.2246  1.9025
  142MOL0     H19152   1.642   3.610  -0.337 -2.0035 -1.0436 -0.8899
  142MOL0     H19153   1.428   3.534  -0.298 -1.4441  4.0602  0.0039
  142MOL0     H19154   1.060   3.474  -0.048  0.7140 -0.5017  3.1018
  142MOL0     H19155   0.861   3.408   0.026  1.3577 -0.2702  0.2320
  142MOL0     H19156   0.307   3.423   0.901  1.5362  0.6442 -0.1174
  142MOL0     H19157   0.498   3.368   0.730  0.7881  0.5397  1.8007
  142MOL0     H19158   0.934   3.064   0.768 -0.4338 -1.3471  0.6370
  142MOL0     H19159   1.115   2.976   0.623 -0.0384 -0.0850 -0.4678
  142MOL0     H19160   1.112   2.730   0.508 -4.2213  3.2776  0.6875
  142MOL0     H19161   0.973   2.682   0.414 -0.0508  0.2790  0.5319
  142MOL0     H19162   1.104   2.658   0.200 -0.0742  0.2951 -1.2031
  142MOL0     H19163   1.170   2.561   0.339 -1.5204 -0.8600 -0.0489
  142MOL0     H19164   1.263   2.836   0.226  0.1015  0.1018  0.0086
  142MOL0     H19165   1.347   2.684   0.200  0.3270  1.0454 -0.9549
  142MOL0     H19166   1.360   2.671   0.475 -1.2138 -0.2697 -0.7734
  142MOL0     H19167   1.331   2.847   0.452 -1.0156 -1.4846  0.9988
  142MOL0     H19168   1.735   2.777   0.331 -1.2223  1.4786 -2.7299
  142MOL0     H19169   0.851   2.913   0.298 -2.5950 -0.9956 -0.2200
  142MOL0     H19170   0.652   3.006   0.438  0.3784 -0.1910 -0.6994
  143MOL0     O19171   2.936   9.934   1.505 -1.1892  0.5642  0.0775
  143MOL0     C19172   2.943  10.046   1.466  0.5840 -0.5805 -0.9257
  143MOL0     O19173   2.833  10.120   1.426  0.5869  0.7411  0.1444
  143MOL0     C19174   2.707  10.065   1.429 -0.2370 -0.7331 -0.5436
  143MOL0     C19175   2.648   9.999   1.547  0.0304  0.1442  0.1344
  143MOL0     C19176   2.523   9.938   1.551  0.4835 -0.3111 -0.0781
  143MOL0     C19177   2.441   9.948   1.437  1.6653  0.0407  0.9075
  143MOL0     O19178   2.319   9.890   1.452 -0.3847  0.1692  0.1599
  143MOL0     C19179   2.251   9.870   1.334 -0.3814  0.1662 -0.2221
  143MOL0     C19180   2.162   9.984   1.286  0.3913 -0.0298  0.2941
  143MOL0     C19181   2.061   9.943   1.175  0.4015  0.2499 -0.5301
  143MOL0     C19182   1.969  10.056   1.143  0.0004  0.1255  0.4468
  143MOL0     C19183   1.865  10.023   1.029 -0.1197  0.4296  0.3967
  143MOL0     C19184   1.794  10.148   0.957 -0.7555  1.0894  0.2865
  143MOL0     C19185   1.678  10.100   0.869  0.2171  0.4153  1.4302
  143MOL0     C19186   1.567  10.033   0.938  0.6856  0.0321 -0.6501
  143MOL0     N19187   1.452  10.024   0.847 -0.3929  0.0427  0.0735
  143MOL0     C19188   1.438   9.922   0.754  0.7898  0.0282  0.4037
  143MOL0     C19189   1.319   9.964   0.686  0.2410  0.4301 -0.0704
  143MOL0     C19190   1.231   9.890   0.587  0.4375  0.2235 -0.6436
  143MOL0     C19191   1.111   9.833   0.663 -0.0494 -0.4294 -0.6173
  143MOL0     C19192   1.036   9.730   0.588 -0.0131  0.1258  0.7182
  143MOL0     C19193   0.938   9.797   0.483 -0.6829  0.1579 -0.5052
  143MOL0     O19194   0.999   9.893   0.393  0.0802 -0.1476 -0.1374
  143MOL0     C19195   1.059   9.849   0.277 -0.1041  0.6031 -0.0716
  143MOL0     C19196   1.119   9.950   0.197 -0.4629 -0.9351  0.2270
  143MOL0     C19197   1.185   9.921   0.077 -0.3278  0.6305  0.4326
  143MOL0     C19198   1.249  10.037   0.010 -0.1091  0.3469 -1.0116
  143MOL0     C19199   1.181   9.789   0.028  1.2915  1.3840  0.2233
  143MOL0     C19200   1.246   9.745  -0.093  0.0901  0.1041  0.3613
  143MOL0     O19201   1.209   9.615  -0.140  0.3031  0.4547  0.9870
  143MOL0     C19202   1.277   9.566  -0.247  0.1575  0.1919 -0.0184
  143MOL0     C19203   1.413   9.537  -0.222  1.0679  0.8052 -0.4401
  143MOL0     C19204   1.493   9.501  -0.329  0.7177  0.5457  0.3166
  143MOL0     C19205   1.432   9.480  -0.455  0.4751 -0.2541 -0.4458
  143MOL0     O19206   1.512   9.422  -0.550  0.4334  0.1682 -0.0856
  143MOL0     C19207   1.483   9.434  -0.693 -0.0132  0.4817 -0.7369
  143MOL0     C19208   1.585   9.385  -0.784  0.1653 -1.0178 -0.4807
  143MOL0     C19209   1.703   9.478  -0.781 -0.5181 -0.8240  0.4661
  143MOL0     C19210   1.798   9.418  -0.887 -0.7909 -0.0516  0.3000
  143MOL0     C19211   1.932   9.492  -0.908  0.2736  0.2294  0.1463
  143MOL0     C19212   2.020   9.417  -1.004  0.3705  0.4941  0.4177
  143MOL0     C19213   2.163   9.474  -1.045  0.4653 -0.4118 -0.1544
  143MOL0     C19214   2.281   9.419  -0.957 -0.0929  0.7835  0.1950
  143MOL0    Cl19215   2.252   9.461  -0.787  0.1200  0.5254 -0.0784
  143MOL0     C19216   1.296   9.492  -0.479 -0.2810  0.8650 -0.3210
  143MOL0     C19217   1.217   9.541  -0.372  0.3932 -0.2113 -0.3217
  143MOL0     O19218   1.335   9.819  -0.149  0.7224  0.0629  0.2624
  143MOL0     C19219   1.131   9.684   0.113 -1.1504  0.0357 -0.4155
  143MOL0     C19220   1.072   9.713   0.239 -0.5049 -0.4191 -0.1171
  143MOL0     N19221   1.272  10.078   0.750 -0.1189 -0.4453  0.0206
  143MOL0     N19222   1.340  10.110   0.850  0.2819  0.8660  0.0534
  143MOL0     C19223   2.490  10.023   1.323  0.1499  0.3798  0.0408
  143MOL0     C19224   2.624  10.069   1.317 -0.2246  0.2754 -0.5606
  143MOL0     C19225   3.071  10.101   1.422 -0.9998 -0.1186  0.1608
  143MOL0     C19226   3.090  10.223   1.361  0.7014  0.5426 -0.0567
  143MOL0     C19227   3.220  10.247   1.305 -1.1759 -0.0189  0.9158
  143MOL0     C19228   3.334  10.168   1.313 -0.1739 -0.4238  0.2942
  143MOL0     O19229   3.458  10.191   1.268 -0.1212  0.5817  0.1177
  143MOL0     C19230   3.478  10.127   1.138  0.1954 -0.3747  0.1137
  143MOL0     C19231   3.610  10.170   1.074 -0.2433 -0.5798  0.8526
  143MOL0     C19232   3.723  10.176   1.177  0.5047 -0.0154 -0.0315
  143MOL0     C19233   3.864  10.214   1.131 -0.4256 -0.0034 -0.3201
  143MOL0     C19234   3.962  10.212   1.232 -0.2862 -0.6593  0.3295
  143MOL0     C19235   4.062  10.215   1.306  0.3837 -0.6948  0.7486
  143MOL0     C19236   3.309  10.045   1.383  0.6232 -0.1984  0.3063
  143MOL0     C19237   3.183  10.016   1.441  0.4471  0.3922  0.7061
  143MOL0     H19238   2.713   9.994   1.634 -0.7488  2.9482  0.9902
  143MOL0     H19239   2.483   9.901   1.645  2.7385 -1.6576  0.4177
  143MOL0     H19240   2.316   9.842   1.251  1.1212 -1.9677  1.5346
  143MOL0     H19241   2.179   9.789   1.349 -0.0043 -0.4525 -1.5886
  143MOL0     H19242   2.104  10.013   1.375 -0.8622  1.3672 -0.9311
  143MOL0     H19243   2.223  10.068   1.252 -2.2918  1.7694 -0.3847
  143MOL0     H19244   2.106   9.911   1.081 -3.4199 -3.3828 -1.4502
  143MOL0     H19245   2.007   9.855   1.212  1.4938  0.2149  1.0684
  143MOL0     H19246   1.923  10.078   1.240  0.5031  1.2263  0.4555
  143MOL0     H19247   2.038  10.136   1.114  0.5855 -0.6763 -0.4562
  143MOL0     H19248   1.927   9.969   0.957 -1.3779  3.2639 -3.1043
  143MOL0     H19249   1.797   9.951   1.077 -0.1119 -0.1334 -0.4066
  143MOL0     H19250   1.756  10.210   1.039  0.0180 -0.2997  1.7491
  143MOL0     H19251   1.865  10.212   0.903  1.0368 -1.6446 -0.8261
  143MOL0     H19252   1.642  10.190   0.819  1.2118  0.6270  1.0605
  143MOL0     H19253   1.722  10.036   0.791  0.7001  0.1788  1.8846
  143MOL0     H19254   1.542  10.108   1.014 -3.7781 -1.3264 -0.5005
  143MOL0     H19255   1.599   9.936   0.976 -1.7348 -0.5235  0.1719
  143MOL0     H19256   1.502   9.837   0.730  3.0997  2.5005 -3.1684
  143MOL0     H19257   1.196   9.968   0.519 -0.1502  1.0081  0.5091
  143MOL0     H19258   1.292   9.810   0.544  0.5910  0.4536 -0.8568
  143MOL0     H19259   1.045   9.914   0.697 -1.6175 -1.7322 -0.4544
  143MOL0     H19260   1.143   9.773   0.748  0.8801  0.3307 -0.4103
  143MOL0     H19261   0.986   9.667   0.661 -2.5354  0.6434 -0.4521
  143MOL0     H19262   1.104   9.664   0.533 -0.0932  0.5788  0.0517
  143MOL0     H19263   0.861   9.839   0.549  0.7455 -0.9233  1.9932
  143MOL0     H19264   0.885   9.712   0.438  1.7650 -2.4267  1.2214
  143MOL0     H19265   1.106  10.052   0.231 -1.4050 -0.6928 -0.8076
  143MOL0     H19266   1.227  10.033  -0.097 -3.3353 -1.9809 -0.4120
  143MOL0     H19267   1.221  10.135   0.051 -2.5000 -0.3210 -0.8918
  143MOL0     H19268   1.356  10.017   0.023 -0.4025 -0.5461  0.1051
  143MOL0     H19269   1.451   9.552  -0.122 -1.6636  1.8957  0.5379
  143MOL0     H19270   1.595   9.468  -0.317  0.1126 -0.7294  2.5041
  143MOL0     H19271   1.408   9.358  -0.715 -0.1421 -0.1961  1.7604
  143MOL0     H19272   1.454   9.535  -0.726 -1.1183  0.2646 -0.4828
  143MOL0     H19273   1.615   9.281  -0.770 -0.3132 -1.7014 -3.6699
  143MOL0     H19274   1.535   9.391  -0.881  0.3891  2.5463 -0.5149
  143MOL0     H19275   1.757   9.486  -0.686  1.6979  0.7960 -0.8267
  143MOL0     H19276   1.675   9.581  -0.804 -1.0164 -0.7306  1.4366
  143MOL0     H19277   1.808   9.312  -0.865 -0.4794 -0.1487 -0.3007
  143MOL0     H19278   1.746   9.413  -0.984  0.8556  0.0517 -0.6314
  143MOL0     H19279   1.979   9.490  -0.809 -0.3017 -0.6421  0.4117
  143MOL0     H19280   1.921   9.593  -0.950  1.5390  0.2738 -0.1126
  143MOL0     H19281   2.038   9.317  -0.962 -2.2415  0.6314  2.1331
  143MOL0     H19282   1.962   9.392  -1.093  1.9532 -1.8713 -0.0388
  143MOL0     H19283   2.161   9.583  -1.056 -1.7300 -0.4868 -0.9061
  143MOL0     H19284   2.195   9.445  -1.146  1.3227 -0.7416  0.2021
  143MOL0     H19285   2.379   9.450  -0.994  0.7191  0.0181  1.6168
  143MOL0     H19286   2.290   9.312  -0.974 -1.4113  0.7153 -0.1892
  143MOL0     H19287   1.247   9.452  -0.567  0.0246 -1.7956  0.6199
  143MOL0     H19288   1.111   9.567  -0.371  0.5921  1.0010  3.1494
  143MOL0     H19289   1.137   9.579   0.087 -0.3246  0.1570 -0.7417
  143MOL0     H19290   1.043   9.618   0.282 -1.6138  0.0109  0.1416
  143MOL0     H19291   2.435  10.042   1.232 -0.0264  0.4687  0.1650
  143MOL0     H19292   2.663  10.120   1.229 -0.7878  0.3810 -0.7518
  143MOL0     H19293   3.008  10.285   1.326  0.3651  0.7078  0.9991
  143MOL0     H19294   3.247  10.333   1.245  0.2004 -2.7789 -2.7864
  143MOL0     H19295   3.490  10.024   1.175  3.7203  0.0540  0.4790
  143MOL0     H19296   3.387  10.143   1.080 -1.4778 -3.7978  1.4907
  143MOL0     H19297   3.591  10.268   1.030  0.0459 -1.3381 -1.0379
  143MOL0     H19298   3.629  10.099   0.993 -0.1157 -0.5361  0.8451
  143MOL0     H19299   3.735  10.073   1.213 -3.0541 -0.2438  0.8133
  143MOL0     H19300   3.697  10.238   1.263 -1.9541 -0.7504 -0.1788
  143MOL0     H19301   3.870  10.317   1.094 -0.5792  0.0932 -0.0809
  143MOL0     H19302   3.903  10.142   1.059  0.5974  0.0098  0.1914
  143MOL0     H19303   4.138  10.200   1.380  1.2217 -1.2379 -0.2164
  143MOL0     H19304   3.391   9.976   1.398  0.1753 -0.4872  1.4901
  143MOL0     H19305   3.181   9.925   1.500  1.9129 -1.1619 -1.4721
  144MOL0     O19306   9.640   6.549   7.494  0.2081 -0.2258  0.1194
  144MOL0     C19307   9.668   6.667   7.514  0.0381 -0.3935 -0.6966
  144MOL0     O19308   9.583   6.763   7.527  0.2231 -0.0213 -0.1924
  144MOL0     C19309   9.448   6.758   7.527  0.3921  0.3132 -0.5678
  144MOL0     C19310   9.355   6.649   7.550 -0.0598 -0.1020  0.3450
  144MOL0     C19311   9.220   6.672   7.522  0.2975 -0.3314 -0.1261
  144MOL0     C19312   9.168   6.795   7.492  0.0607  0.9697 -0.7489
  144MOL0     O19313   9.044   6.814   7.456 -0.4364 -0.5133  0.1110
  144MOL0     C19314   8.965   6.928   7.498 -0.4220 -0.4797 -0.2950
  144MOL0     C19315   8.818   6.910   7.485 -0.4730  0.6955  0.6046
  144MOL0     C19316   8.771   6.893   7.344  0.2621  0.6836 -0.9059
  144MOL0     C19317   8.633   6.963   7.322 -0.1492 -0.7105 -0.0236
  144MOL0     C19318   8.534   6.923   7.427  0.2115 -0.4158 -0.2143
  144MOL0     C19319   8.396   6.959   7.373 -0.0277 -0.9081 -0.1361
  144MOL0     C19320   8.378   7.118   7.357  0.0497  0.4373 -1.4241
  144MOL0     C19321   8.239   7.141   7.299  0.7198 -0.7155  0.7151
  144MOL0     N19322   8.119   7.109   7.386  0.1651 -0.0961  0.2060
  144MOL0     C19323   8.019   7.015   7.380 -0.5582 -0.2893  0.3371
  144MOL0     C19324   7.924   7.057   7.466 -0.6853  1.0426  0.1587
  144MOL0     C19325   7.793   6.990   7.471  0.3920  0.4626  0.0006
  144MOL0     C19326   7.757   6.972   7.616 -0.0722  0.3771 -0.0757
  144MOL0     C19327   7.611   6.932   7.634  0.2432  0.2865  0.4999
  144MOL0     C19328   7.582   6.913   7.777 -1.1020 -0.1625  1.0723
  144MOL0     O19329   7.471   6.832   7.780 -0.3970  0.6032  0.0439
  144MOL0     C19330   7.379   6.836   7.880  0.3542 -0.2280  0.0661
  144MOL0     C19331   7.371   6.922   7.997  0.6522  0.0738  0.0806
  144MOL0     C19332   7.253   6.924   8.078 -0.4514  0.2427  0.0156
  144MOL0     C19333   7.267   7.025   8.190  0.2501  1.0066 -0.4017
  144MOL0     C19334   7.151   6.829   8.059 -0.0508 -0.3826 -0.3941
  144MOL0     C19335   7.028   6.834   8.143  0.2647  0.9807  0.5839
  144MOL0     O19336   6.955   6.722   8.156  0.0131  0.5761  0.6510
  144MOL0     C19337   6.828   6.741   8.188  1.6140 -0.2117 -0.3349
  144MOL0     C19338   6.771   6.689   8.309 -0.0471 -0.6080 -0.7824
  144MOL0     C19339   6.644   6.719   8.364  0.2008 -0.1488 -0.3955
  144MOL0     C19340   6.552   6.785   8.279  0.8047  0.9863 -1.6683
  144MOL0     O19341   6.421   6.786   8.325  0.5558  0.0589  0.1177
  144MOL0     C19342   6.344   6.910   8.283  0.0285  1.0120  0.3799
  144MOL0     C19343   6.222   6.920   8.367 -0.9215 -0.1208  0.0202
  144MOL0     C19344   6.128   7.024   8.321  0.4053 -1.0171  0.0241
  144MOL0     C19345   6.006   7.016   8.419 -0.3086  0.0121 -0.0718
  144MOL0     C19346   5.892   7.104   8.371  0.8494  0.6108 -0.5897
  144MOL0     C19347   5.805   7.136   8.489  0.0389 -0.5751 -0.0722
  144MOL0     C19348   5.711   7.248   8.455 -0.2843  0.1477 -0.2112
  144MOL0     C19349   5.598   7.208   8.352  0.2777 -0.0403 -0.7198
  144MOL0    Cl19350   5.501   7.058   8.388 -0.0413  0.4528 -0.3096
  144MOL0     C19351   6.594   6.828   8.153 -0.2888 -0.2507 -0.0639
  144MOL0     C19352   6.730   6.812   8.119 -0.0654 -1.0237 -1.0549
  144MOL0     O19353   7.002   6.939   8.188  0.1580  0.4849 -0.7262
  144MOL0     C19354   7.155   6.737   7.951  0.1741  0.0475  0.4404
  144MOL0     C19355   7.262   6.758   7.861  0.1012  0.4545 -1.0366
  144MOL0     N19356   7.961   7.163   7.538 -0.1147 -0.4638  0.8428
  144MOL0     N19357   8.088   7.195   7.493  0.0980 -0.1656 -0.3672
  144MOL0     C19358   9.259   6.900   7.476 -0.6554 -1.1658  0.6353
  144MOL0     C19359   9.396   6.882   7.495 -0.1973  0.3716 -0.6635
  144MOL0     C19360   9.806   6.709   7.566 -1.5904  0.2138  0.8037
  144MOL0     C19361   9.916   6.610   7.555 -0.5056  0.8633  0.3855
  144MOL0     C19362  10.046   6.643   7.580  0.6999  0.1148 -0.5526
  144MOL0     C19363  10.079   6.769   7.626  0.1130 -0.3250  0.6368
  144MOL0     O19364  10.205   6.804   7.671 -0.4923  0.7209  0.4975
  144MOL0     C19365  10.306   6.701   7.690 -0.1835 -0.2028  0.7495
  144MOL0     C19366  10.412   6.733   7.792 -0.4013 -0.1053 -0.2393
  144MOL0     C19367  10.511   6.614   7.810 -0.2774 -0.6461 -0.8312
  144MOL0     C19368  10.639   6.650   7.904  0.6944 -0.9574  0.2803
  144MOL0     C19369  10.733   6.534   7.925 -0.0353 -0.0989  0.1411
  144MOL0     C19370  10.806   6.448   7.942  0.3927  0.3666  0.5503
  144MOL0     C19371   9.976   6.863   7.645 -0.1290 -0.1832  0.0913
  144MOL0     C19372   9.842   6.832   7.610  0.0081 -0.6117 -0.5107
  144MOL0     H19373   9.395   6.549   7.563  0.6327  0.3414  1.7286
  144MOL0     H19374   9.151   6.589   7.507  0.1483  0.2136 -2.9895
  144MOL0     H19375   8.982   6.946   7.605  1.1421 -0.0303 -0.5891
  144MOL0     H19376   8.990   7.017   7.440 -1.3682  1.5858  2.2635
  144MOL0     H19377   8.783   6.829   7.550  0.0782 -0.1668 -0.1541
  144MOL0     H19378   8.767   6.996   7.529 -0.5763  0.6877  0.4990
  144MOL0     H19379   8.838   6.925   7.264  2.8240 -2.2308 -0.1283
  144MOL0     H19380   8.760   6.786   7.324 -0.4715  1.1292 -3.1414
  144MOL0     H19381   8.655   7.070   7.321 -2.4824 -0.1721 -0.7656
  144MOL0     H19382   8.590   6.942   7.224 -3.1385  1.1092  0.7685
  144MOL0     H19383   8.550   6.817   7.449  1.1460 -0.1732  0.3619
  144MOL0     H19384   8.557   6.971   7.523  0.4786 -0.3886 -0.2906
  144MOL0     H19385   8.384   6.908   7.277  0.3822 -3.0425  0.8798
  144MOL0     H19386   8.321   6.913   7.438 -1.6556  0.3187 -1.0455
  144MOL0     H19387   8.390   7.172   7.451  1.1182  1.0770 -1.9086
  144MOL0     H19388   8.455   7.152   7.288  0.8325 -1.6373 -1.6465
  144MOL0     H19389   8.227   7.099   7.199 -0.9010  1.2938 -0.0154
  144MOL0     H19390   8.220   7.249   7.291 -3.7972 -1.3097  0.5243
  144MOL0     H19391   8.017   6.929   7.313  2.4063 -0.2269  0.0451
  144MOL0     H19392   7.721   7.047   7.411  0.5551  1.0105  0.3125
  144MOL0     H19393   7.804   6.892   7.423 -0.8331  0.4283 -0.2379
  144MOL0     H19394   7.765   7.074   7.656 -0.7220  0.3659  0.0952
  144MOL0     H19395   7.829   6.907   7.666 -0.7843  1.7419  2.9490
  144MOL0     H19396   7.585   6.840   7.580 -2.2450  1.3276 -0.1997
  144MOL0     H19397   7.537   7.003   7.597  1.2899  1.7027  1.0635
  144MOL0     H19398   7.580   7.011   7.826  0.5010 -0.6126  2.1245
  144MOL0     H19399   7.670   6.868   7.824 -0.1768  1.8039  1.3285
  144MOL0     H19400   7.446   6.996   8.023  0.8109  0.5716 -1.6852
  144MOL0     H19401   7.205   7.114   8.178 -0.9531  0.1901 -0.4443
  144MOL0     H19402   7.227   6.966   8.273  0.8324 -2.1076 -2.1642
  144MOL0     H19403   7.369   7.062   8.205  0.8889 -0.3387 -1.1827
  144MOL0     H19404   6.830   6.626   8.375  0.4996  2.0782  1.5027
  144MOL0     H19405   6.597   6.684   8.456  2.3258 -0.1405  0.7704
  144MOL0     H19406   6.403   6.999   8.307  0.5334  0.4040  1.4468
  144MOL0     H19407   6.308   6.911   8.179  1.0342  0.9877  0.0201
  144MOL0     H19408   6.187   6.818   8.381  2.7308 -1.6188 -0.5942
  144MOL0     H19409   6.257   6.951   8.465 -0.2382 -0.2744 -0.1696
  144MOL0     H19410   6.094   7.023   8.217 -0.2536  0.8145  0.1809
  144MOL0     H19411   6.176   7.122   8.310  1.3998 -1.7908 -4.2358
  144MOL0     H19412   5.973   6.915   8.444  0.4649 -0.3671 -0.5588
  144MOL0     H19413   6.047   7.058   8.512 -1.3415  2.2138 -0.5341
  144MOL0     H19414   5.831   7.050   8.297 -0.3797  0.3216  0.5938
  144MOL0     H19415   5.933   7.195   8.329  2.1230  0.5656  0.4988
  144MOL0     H19416   5.751   7.054   8.536  0.6738 -0.1176  1.5265
  144MOL0     H19417   5.877   7.187   8.554  0.1940 -0.8448 -0.0336
  144MOL0     H19418   5.764   7.341   8.432  1.7870 -0.5316  1.4349
  144MOL0     H19419   5.667   7.282   8.550 -1.0756 -0.4018 -0.3733
  144MOL0     H19420   5.660   7.194   8.263  2.4421  1.3785  0.4609
  144MOL0     H19421   5.533   7.295   8.339  2.0518  1.5919  0.7714
  144MOL0     H19422   6.526   6.884   8.089 -1.2364  0.7384  1.7414
  144MOL0     H19423   6.761   6.855   8.025  2.0867 -1.4376 -0.6125
  144MOL0     H19424   7.085   6.656   7.931  1.2044 -1.6050  2.9861
  144MOL0     H19425   7.278   6.674   7.794  2.2926  0.3299 -0.4288
  144MOL0     H19426   9.218   6.992   7.435  1.0449  0.1429  1.7673
  144MOL0     H19427   9.473   6.955   7.471  2.0330 -2.3063 -2.1414
  144MOL0     H19428   9.889   6.517   7.505 -2.2487  2.1345 -1.1673
  144MOL0     H19429  10.116   6.561   7.569 -0.3481 -0.8717 -0.1060
  144MOL0     H19430  10.270   6.601   7.712  1.1264 -1.3952 -2.0630
  144MOL0     H19431  10.367   6.688   7.600 -1.8295 -1.6958 -0.1885
  144MOL0     H19432  10.358   6.728   7.886 -0.5738 -0.7363 -0.3727
  144MOL0     H19433  10.471   6.824   7.775  4.8482 -2.7740  1.5037
  144MOL0     H19434  10.541   6.586   7.708 -1.5358 -0.6600 -1.2289
  144MOL0     H19435  10.465   6.527   7.858  1.7798 -0.9128  0.7791
  144MOL0     H19436  10.602   6.687   8.000  2.0803  0.2131  0.3894
  144MOL0     H19437  10.690   6.738   7.865 -0.3790 -0.5952 -0.3534
  144MOL0     H19438  10.870   6.365   7.966  0.9775 -1.1237 -4.8326
  144MOL0     H19439   9.998   6.956   7.697 -0.9009  0.4799 -0.7436
  144MOL0     H19440   9.768   6.909   7.627 -1.7553 -1.6073 -3.0576
  145MOL0     O19441   5.035   5.908   0.155  0.3154 -0.6660 -0.5666
  145MOL0     C19442   5.105   5.900   0.252 -0.3127  0.2075 -0.2403
  145MOL0     O19443   5.067   5.923   0.382 -0.6092 -0.7499 -0.2838
  145MOL0     C19444   4.940   5.955   0.413 -0.6915 -0.7962  0.2356
  145MOL0     C19445   4.825   5.895   0.366  0.2043  0.1239  0.1658
  145MOL0     C19446   4.700   5.950   0.407 -0.6696  0.1781  0.6052
  145MOL0     C19447   4.682   6.058   0.500  0.3414  0.3969  0.3790
  145MOL0     O19448   4.556   6.105   0.523  0.8566 -0.4800  0.2541
  145MOL0     C19449   4.517   6.163   0.647 -0.4044 -0.1295  0.7358
  145MOL0     C19450   4.359   6.166   0.649  0.1941 -0.1285 -0.1827
  145MOL0     C19451   4.312   6.209   0.786 -0.4367  0.2524  0.0788
  145MOL0     C19452   4.166   6.241   0.790  0.1716 -0.5046 -0.8337
  145MOL0     C19453   4.126   6.299   0.931  0.1081  0.6393  0.1991
  145MOL0     C19454   3.984   6.339   0.952 -0.0758  0.5714 -0.6622
  145MOL0     C19455   3.965   6.368   1.100 -0.5684 -0.0568 -0.6154
  145MOL0     C19456   3.845   6.443   1.165  0.2415 -1.1647  0.4277
  145MOL0     N19457   3.807   6.559   1.081 -0.2046 -0.0836  0.2395
  145MOL0     C19458   3.885   6.661   1.030 -0.5694  0.0328 -0.5946
  145MOL0     C19459   3.805   6.757   0.980  0.0111  1.3953 -0.8782
  145MOL0     C19460   3.865   6.894   0.935 -0.2354 -0.0299  0.1426
  145MOL0     C19461   3.890   6.999   1.047 -0.8473 -1.0829  1.4235
  145MOL0     C19462   3.754   7.057   1.089  0.2216 -0.1800  1.0927
  145MOL0     C19463   3.674   7.143   0.992 -0.5202  0.2883 -0.2174
  145MOL0     O19464   3.552   7.172   1.046 -0.1974  0.6707  0.0905
  145MOL0     C19465   3.467   7.253   0.983 -0.0455  0.4859  0.0567
  145MOL0     C19466   3.484   7.316   0.854 -0.8739  0.1302  0.5969
  145MOL0     C19467   3.379   7.395   0.805 -0.0085  0.2797  0.3314
  145MOL0     C19468   3.394   7.451   0.674 -0.3176 -0.2057 -0.1757
  145MOL0     C19469   3.260   7.412   0.877  1.1168 -0.0660  0.2437
  145MOL0     C19470   3.131   7.470   0.830 -0.0912 -0.4682 -0.5907
  145MOL0     O19471   3.029   7.495   0.919  0.3647  0.2064  0.3801
  145MOL0     C19472   2.905   7.510   0.864 -0.2338  0.1155 -0.0864
  145MOL0     C19473   2.834   7.390   0.843  0.4509 -0.9725  0.4374
  145MOL0     C19474   2.704   7.392   0.792  0.9049 -0.4949  0.0316
  145MOL0     C19475   2.626   7.514   0.780  0.2716 -0.5038  0.1363
  145MOL0     O19476   2.487   7.505   0.756 -0.0588  0.8954 -1.1547
  145MOL0     C19477   2.396   7.605   0.812 -0.3334 -0.6799 -0.0895
  145MOL0     C19478   2.298   7.536   0.906  0.6491 -0.3281  0.3142
  145MOL0     C19479   2.213   7.428   0.838  0.0706  0.2914 -0.1081
  145MOL0     C19480   2.127   7.340   0.932  0.2219  0.8612  0.2917
  145MOL0     C19481   2.078   7.202   0.880  0.3005 -0.2254  0.1007
  145MOL0     C19482   1.924   7.218   0.840  0.2901  0.2292 -0.0943
  145MOL0     C19483   1.857   7.077   0.817 -0.1845  0.0938 -0.7708
  145MOL0     C19484   1.921   7.003   0.696 -0.0381 -0.5670 -0.3248
  145MOL0    Cl19485   1.918   7.106   0.548  0.4199  0.3502 -0.3195
  145MOL0     C19486   2.702   7.630   0.801  0.1464 -0.1561  0.0353
  145MOL0     C19487   2.837   7.634   0.840 -0.2998 -1.0838  0.7212
  145MOL0     O19488   3.121   7.501   0.710  0.3822 -0.4366  0.1008
  145MOL0     C19489   3.253   7.366   1.012 -0.1466  0.7153  0.4507
  145MOL0     C19490   3.356   7.274   1.058  0.1735 -0.4388  0.2511
  145MOL0     N19491   3.678   6.714   0.990  1.5126  1.0980  0.2099
  145MOL0     N19492   3.678   6.595   1.049  0.9855  0.3721  0.5895
  145MOL0     C19493   4.807   6.113   0.549  0.1535  0.1586 -0.0015
  145MOL0     C19494   4.932   6.060   0.507  0.4964 -0.2077  0.1024
  145MOL0     C19495   5.253   5.881   0.226  0.5169 -0.5674 -0.2216
  145MOL0     C19496   5.291   5.900   0.090  0.5661  0.6621 -0.9402
  145MOL0     C19497   5.426   5.893   0.043  0.1130 -0.2551  0.8080
  145MOL0     C19498   5.515   5.859   0.129 -0.5733  0.1919  0.3526
  145MOL0     O19499   5.653   5.859   0.107  0.0707  0.6119  0.5540
  145MOL0     C19500   5.697   5.924  -0.013  0.6007 -0.1977  0.1363
  145MOL0     C19501   5.842   5.961  -0.007  0.2248  0.8918  0.0374
  145MOL0     C19502   5.869   6.090   0.064  0.4386 -0.9206 -0.2661
  145MOL0     C19503   6.022   6.113   0.064 -0.3143 -0.3529 -0.6460
  145MOL0     C19504   6.075   6.041   0.177  0.3336  0.7408  0.2536
  145MOL0     C19505   6.111   5.974   0.268 -0.0967  0.0580  0.4782
  145MOL0     C19506   5.480   5.819   0.260 -0.2084 -0.5151  0.2739
  145MOL0     C19507   5.348   5.842   0.309 -0.5957  0.1892  0.2846
  145MOL0     H19508   4.823   5.817   0.291  0.9114  0.0134  0.2578
  145MOL0     H19509   4.611   5.903   0.367 -0.2733 -0.1622  0.1067
  145MOL0     H19510   4.546   6.104   0.735 -2.7720  1.6094  2.8205
  145MOL0     H19511   4.560   6.263   0.656  0.8044 -0.4476 -0.9769
  145MOL0     H19512   4.315   6.234   0.575 -2.3558 -1.9737 -0.5128
  145MOL0     H19513   4.328   6.066   0.618  1.9113 -1.2964  1.6740
  145MOL0     H19514   4.343   6.134   0.859 -2.8815 -3.0554 -2.0264
  145MOL0     H19515   4.367   6.299   0.818  0.8321 -0.8382  1.0680
  145MOL0     H19516   4.145   6.319   0.716 -0.6863 -1.1489 -1.2811
  145MOL0     H19517   4.100   6.155   0.778 -1.0239  0.0558  1.2052
  145MOL0     H19518   4.147   6.223   1.007 -3.8739 -0.9433 -0.0518
  145MOL0     H19519   4.176   6.396   0.939  0.3637  1.3639 -5.9207
  145MOL0     H19520   3.958   6.435   0.907 -1.1854  1.6374  2.0047
  145MOL0     H19521   3.930   6.253   0.911 -0.2629  1.5028 -2.4802
  145MOL0     H19522   3.984   6.273   1.151 -3.4231  0.0142  0.7509
  145MOL0     H19523   4.049   6.437   1.116  1.0293 -0.7901 -4.5838
  145MOL0     H19524   3.875   6.491   1.259  1.0358  1.7327 -1.1899
  145MOL0     H19525   3.760   6.381   1.195 -2.3257  1.6862 -0.4621
  145MOL0     H19526   3.990   6.683   1.045 -0.8297  1.1638 -0.3045
  145MOL0     H19527   3.958   6.861   0.890  1.8509 -3.0911  5.7370
  145MOL0     H19528   3.802   6.938   0.857  1.5813 -2.1027 -2.6827
  145MOL0     H19529   3.939   7.090   1.013 -2.3491  0.1762  2.5078
  145MOL0     H19530   3.947   6.961   1.133 -1.5401 -0.9908  1.9289
  145MOL0     H19531   3.770   7.120   1.177  0.2216  2.8239 -0.9269
  145MOL0     H19532   3.691   6.973   1.120 -1.9865  0.4486 -1.3397
  145MOL0     H19533   3.657   7.087   0.900  0.3331  0.4701 -0.4958
  145MOL0     H19534   3.723   7.239   0.976 -0.6569  0.4084  0.0723
  145MOL0     H19535   3.576   7.314   0.797 -1.3077  1.2609 -0.1685
  145MOL0     H19536   3.501   7.467   0.658 -0.5666  1.3708 -0.4204
  145MOL0     H19537   3.367   7.379   0.596 -0.2656  0.7178 -1.0653
  145MOL0     H19538   3.342   7.547   0.664 -3.5447 -1.8014  0.0603
  145MOL0     H19539   2.891   7.299   0.857  0.7137 -1.1158 -1.3213
  145MOL0     H19540   2.644   7.305   0.768 -1.8324  2.0804 -3.4037
  145MOL0     H19541   2.443   7.684   0.871 -0.0895 -0.4504 -0.5847
  145MOL0     H19542   2.350   7.643   0.720  0.0912  0.0631  0.0018
  145MOL0     H19543   2.356   7.490   0.986 -0.1224  0.6259  1.4644
  145MOL0     H19544   2.230   7.602   0.960  1.7904  1.0885  0.0783
  145MOL0     H19545   2.277   7.358   0.782 -2.0035  0.2428 -2.5871
  145MOL0     H19546   2.147   7.480   0.769  1.7407  2.3360 -0.2663
  145MOL0     H19547   2.193   7.325   1.018 -0.6225 -2.0398  0.5329
  145MOL0     H19548   2.047   7.395   0.983 -2.0456 -3.6372  2.0816
  145MOL0     H19549   2.089   7.123   0.955  2.3194  0.6306  0.7824
  145MOL0     H19550   2.138   7.177   0.792  1.0195  0.8696  0.2642
  145MOL0     H19551   1.866   7.263   0.921 -3.4412 -1.2862 -1.6945
  145MOL0     H19552   1.891   7.289   0.763 -3.4728  0.3197  1.4143
  145MOL0     H19553   1.751   7.103   0.820 -1.0825 -3.1461  2.0144
  145MOL0     H19554   1.872   7.005   0.898 -1.6252 -1.2910 -1.6854
  145MOL0     H19555   1.885   6.901   0.680 -1.3039 -0.1581 -0.1503
  145MOL0     H19556   2.027   6.980   0.715 -0.2486  0.4201  2.6380
  145MOL0     H19557   2.650   7.723   0.778 -0.1945  0.4953  3.0111
  145MOL0     H19558   2.880   7.734   0.844 -0.2795 -1.0512 -0.1173
  145MOL0     H19559   3.161   7.360   1.070 -0.8205 -1.2274 -0.7505
  145MOL0     H19560   3.338   7.221   1.151 -3.0814 -0.2062 -0.1504
  145MOL0     H19561   4.807   6.205   0.606  2.1902 -1.2008  2.4068
  145MOL0     H19562   5.021   6.111   0.543 -0.6912  2.3511 -0.3664
  145MOL0     H19563   5.218   5.922   0.013 -1.6910 -1.6270  0.3948
  145MOL0     H19564   5.446   5.910  -0.062  1.1935  3.0136  1.4142
  145MOL0     H19565   5.683   5.864  -0.103  0.6163 -0.5646  0.3729
  145MOL0     H19566   5.644   6.018  -0.029 -3.3662 -2.2082  0.3050
  145MOL0     H19567   5.883   5.970  -0.108  1.4047  2.5782  0.6284
  145MOL0     H19568   5.895   5.874   0.034 -2.0368  0.0623  1.4251
  145MOL0     H19569   5.829   6.104   0.165 -0.5557  1.3501 -0.8943
  145MOL0     H19570   5.825   6.178   0.015 -0.0189  0.3545  2.2447
  145MOL0     H19571   6.055   6.218   0.066 -1.5664  0.0619 -0.6221
  145MOL0     H19572   6.067   6.067  -0.024  2.2902  1.0281 -0.1414
  145MOL0     H19573   6.155   5.911   0.343  0.2329  1.4428  1.4793
  145MOL0     H19574   5.559   5.778   0.323  0.5452 -0.3887 -0.5624
  145MOL0     H19575   5.309   5.829   0.409 -3.3247 -0.5497 -0.7979
  146MOL0     O19576   7.781   3.208  10.835 -0.4241 -0.6785 -0.1793
  146MOL0     C19577   7.884   3.189  10.902 -0.0306 -0.6496  0.0189
  146MOL0     O19578   7.998   3.259  10.879  0.3347 -0.3609  0.7918
  146MOL0     C19579   8.016   3.334  10.764 -0.2905 -0.1174  0.0315
  146MOL0     C19580   7.976   3.303  10.632  0.3838  0.3657  0.8513
  146MOL0     C19581   7.999   3.388  10.523 -1.1896 -0.1686 -0.2561
  146MOL0     C19582   8.080   3.504  10.542  0.0735  0.1116 -0.1958
  146MOL0     O19583   8.107   3.589  10.436  0.0433  0.2657  0.7303
  146MOL0     C19584   8.249   3.599  10.427 -0.7739  0.3731 -0.5225
  146MOL0     C19585   8.272   3.699  10.312  0.6476  0.5438 -1.2601
  146MOL0     C19586   8.183   3.824  10.338 -0.8108  0.5113  0.5674
  146MOL0     C19587   8.244   3.944  10.255 -0.3698  0.1248  0.4530
  146MOL0     C19588   8.144   4.058  10.245 -0.1719 -0.4462  0.3536
  146MOL0     C19589   8.136   4.139  10.374 -0.5062 -0.2087  0.0228
  146MOL0     C19590   8.037   4.248  10.352  0.7942  0.7035 -0.5005
  146MOL0     C19591   8.009   4.317  10.488  0.3298  0.3116 -0.2099
  146MOL0     N19592   8.134   4.357  10.556  0.4018 -0.0816  0.2325
  146MOL0     C19593   8.233   4.442  10.512 -0.2243 -0.2709  0.1972
  146MOL0     C19594   8.313   4.475  10.618  0.3873 -0.1049  0.2211
  146MOL0     C19595   8.432   4.567  10.620  0.1507 -0.0742  0.4185
  146MOL0     C19596   8.397   4.706  10.675 -0.0257 -0.3542  0.2474
  146MOL0     C19597   8.385   4.727  10.824  1.3381 -0.6014  0.6407
  146MOL0     C19598   8.310   4.856  10.856 -0.3557 -0.3836 -0.5965
  146MOL0     O19599   8.180   4.870  10.788 -0.4145  0.2586  0.6897
  146MOL0     C19600   8.079   4.799  10.857  0.3962  0.0770  0.4337
  146MOL0     C19601   8.011   4.848  10.965  0.1148  0.4477  0.8331
  146MOL0     C19602   7.908   4.786  11.032  0.8247  1.0169  0.1091
  146MOL0     C19603   7.841   4.845  11.157  0.2833  0.1165  0.1851
  146MOL0     C19604   7.887   4.652  10.990 -0.0091  0.3242  0.1175
  146MOL0     C19605   7.779   4.565  11.048  0.3200 -0.6999  0.7698
  146MOL0     O19606   7.827   4.446  11.080 -0.9213  0.0511  0.3913
  146MOL0     C19607   7.745   4.353  11.142 -1.0677  0.6534  0.7015
  146MOL0     C19608   7.778   4.295  11.268  0.4100  1.0404 -0.8460
  146MOL0     C19609   7.707   4.192  11.320  0.1223  0.4855 -1.0231
  146MOL0     C19610   7.596   4.140  11.257  0.3159 -0.3177 -1.0531
  146MOL0     O19611   7.528   4.046  11.322  0.1892  0.2102 -0.0357
  146MOL0     C19612   7.389   4.031  11.296  0.3028 -0.1471  0.2662
  146MOL0     C19613   7.309   3.957  11.393  0.4941 -0.4076 -0.5388
  146MOL0     C19614   7.163   3.989  11.384 -0.7056 -1.1065 -1.5010
  146MOL0     C19615   7.075   3.907  11.479 -0.3120 -0.0809 -0.3579
  146MOL0     C19616   6.924   3.960  11.475 -0.6646 -0.7084  0.5680
  146MOL0     C19617   6.864   4.005  11.342 -0.4366 -0.4857  0.2045
  146MOL0     C19618   6.731   4.063  11.346  0.1846 -0.0859  0.0612
  146MOL0     C19619   6.631   3.978  11.431 -0.5636 -0.0357 -0.3524
  146MOL0    Cl19620   6.477   4.063  11.430  0.0078 -0.1567  0.2625
  146MOL0     C19621   7.568   4.194  11.131  0.0533  0.3018  0.2552
  146MOL0     C19622   7.630   4.308  11.076  0.7926  1.1100  0.2438
  146MOL0     O19623   7.668   4.601  11.088  0.6246 -0.1219  0.2201
  146MOL0     C19624   7.960   4.599  10.882  0.0589 -0.2750  0.0255
  146MOL0     C19625   8.047   4.673  10.809 -0.7569 -0.5365  1.1099
  146MOL0     N19626   8.264   4.390  10.721  0.0049 -0.8797  0.5996
  146MOL0     N19627   8.163   4.330  10.679  0.1056  0.2656  0.0905
  146MOL0     C19628   8.125   3.531  10.669 -0.1849 -0.7276 -0.2240
  146MOL0     C19629   8.098   3.448  10.780 -0.1744 -0.8767 -0.1815
  146MOL0     C19630   7.873   3.089  11.017 -0.4033  0.4714 -0.0569
  146MOL0     C19631   7.953   3.112  11.128  0.1315 -0.0978 -0.2698
  146MOL0     C19632   7.961   3.022  11.226  0.7764 -0.3954 -0.7865
  146MOL0     C19633   7.891   2.900  11.221  0.0120 -0.0732  0.2113
  146MOL0     O19634   7.896   2.795  11.313  0.3702 -0.5360 -0.0608
  146MOL0     C19635   7.983   2.816  11.424  0.6690 -0.2806 -0.0792
  146MOL0     C19636   8.124   2.771  11.404  0.4134 -0.3391 -0.4587
  146MOL0     C19637   8.134   2.621  11.405 -0.4618 -0.2881  0.5960
  146MOL0     C19638   8.264   2.560  11.447  0.4595  0.0161 -0.2230
  146MOL0     C19639   8.380   2.612  11.374 -0.9646  0.7856  0.3933
  146MOL0     C19640   8.476   2.645  11.311  0.9072  0.0989 -0.3080
  146MOL0     C19641   7.821   2.875  11.101  0.4502  0.6881  0.5399
  146MOL0     C19642   7.803   2.967  11.000  0.1913 -0.2639  0.3017
  146MOL0     H19643   7.919   3.212  10.616 -0.1260  0.3624  2.4591
  146MOL0     H19644   7.951   3.372  10.426  1.2361  1.1441 -1.7605
  146MOL0     H19645   8.297   3.625  10.522 -0.1970  0.0151 -0.7128
  146MOL0     H19646   8.294   3.502  10.403  1.2268  0.6146  1.8816
  146MOL0     H19647   8.377   3.730  10.311  1.9075 -3.2409 -1.9032
  146MOL0     H19648   8.233   3.657  10.219 -1.4700 -1.1780  0.2850
  146MOL0     H19649   8.080   3.809  10.305 -0.5615 -0.8191  0.3564
  146MOL0     H19650   8.182   3.856  10.443 -1.0956 -1.6968  1.2821
  146MOL0     H19651   8.345   3.959  10.293  0.6279  0.1513 -1.9899
  146MOL0     H19652   8.256   3.908  10.152  2.3120  0.5207  0.5549
  146MOL0     H19653   8.179   4.131  10.171 -1.3219  0.4312  0.6519
  146MOL0     H19654   8.045   4.020  10.217 -1.4920  1.9809  1.4368
  146MOL0     H19655   8.111   4.076  10.459  0.1828  0.8173  1.0019
  146MOL0     H19656   8.237   4.179  10.386 -0.7255  2.6100 -4.8903
  146MOL0     H19657   8.058   4.315  10.267 -0.4810 -0.3394 -1.6697
  146MOL0     H19658   7.944   4.194  10.335  2.2649 -3.7105  3.4241
  146MOL0     H19659   7.961   4.240  10.549  3.2769 -2.2141 -0.7841
  146MOL0     H19660   7.941   4.402  10.473 -0.4968 -0.1658  0.7510
  146MOL0     H19661   8.233   4.483  10.411 -1.1195  0.8305  0.6223
  146MOL0     H19662   8.521   4.521  10.665  0.8729 -0.1948 -1.0731
  146MOL0     H19663   8.458   4.593  10.517 -2.2767 -1.0528 -0.5243
  146MOL0     H19664   8.313   4.746  10.617  0.0211  1.1416  1.1753
  146MOL0     H19665   8.482   4.773  10.662 -0.9658  1.4706  2.6215
  146MOL0     H19666   8.484   4.744  10.866  0.8607  0.1744  1.4921
  146MOL0     H19667   8.336   4.642  10.873 -2.3676  0.3752 -1.0468
  146MOL0     H19668   8.378   4.936  10.827  0.8990 -0.6639  1.4332
  146MOL0     H19669   8.308   4.862  10.965 -0.5629 -0.3195 -0.6018
  146MOL0     H19670   8.038   4.946  11.003 -2.7849  1.2934  0.9576
  146MOL0     H19671   7.898   4.925  11.204  0.3199  0.5517 -0.5877
  146MOL0     H19672   7.744   4.885  11.127  0.8756  1.1751 -0.3682
  146MOL0     H19673   7.824   4.774  11.239  0.9759  0.9607  1.0718
  146MOL0     H19674   7.873   4.323  11.312 -0.2028  3.9929 -1.2359
  146MOL0     H19675   7.740   4.144  11.412 -0.6174  1.7566 -0.0565
  146MOL0     H19676   7.356   4.135  11.303 -2.4833 -0.7267 -2.1895
  146MOL0     H19677   7.360   3.983  11.202 -1.2578 -1.1506  1.2053
  146MOL0     H19678   7.328   3.850  11.378  0.5674 -0.1745 -2.4169
  146MOL0     H19679   7.348   3.982  11.492  0.5757 -0.6507 -0.5092
  146MOL0     H19680   7.130   3.992  11.280 -2.1497 -1.4733 -1.0793
  146MOL0     H19681   7.149   4.092  11.419 -1.5560 -2.2834  2.0501
  146MOL0     H19682   7.092   3.808  11.436  1.5769  0.9249 -2.0985
  146MOL0     H19683   7.094   3.910  11.587 -4.5674  2.3605  0.5371
  146MOL0     H19684   6.920   4.045  11.544 -0.9223 -0.5441  0.3531
  146MOL0     H19685   6.867   3.887  11.533  2.6733 -2.8634  1.3970
  146MOL0     H19686   6.938   4.072  11.298  1.2171 -3.2700 -1.5400
  146MOL0     H19687   6.860   3.924  11.268  0.9683  0.2975 -0.7797
  146MOL0     H19688   6.695   4.072  11.243  0.3914 -0.7700 -0.0748
  146MOL0     H19689   6.741   4.155  11.404  1.3492 -1.2685  1.8152
  146MOL0     H19690   6.660   3.969  11.536 -1.6458 -2.9664 -0.2248
  146MOL0     H19691   6.628   3.873  11.402 -2.5886 -0.3788  0.9334
  146MOL0     H19692   7.489   4.156  11.066  0.0793  2.0405 -0.8553
  146MOL0     H19693   7.598   4.352  10.983  2.5583 -0.4508 -1.1745
  146MOL0     H19694   7.946   4.495  10.853  1.2226 -2.2023  5.2832
  146MOL0     H19695   8.097   4.626  10.726 -1.1131  2.1949 -0.8044
  146MOL0     H19696   8.190   3.616  10.685  0.8310 -0.7962 -3.3643
  146MOL0     H19697   8.130   3.471  10.881  0.3709 -2.1291 -0.0530
  146MOL0     H19698   7.993   3.212  11.146 -0.3808 -0.2770  2.2800
  146MOL0     H19699   8.027   3.044  11.310  0.2558  0.6016 -0.6192
  146MOL0     H19700   7.973   2.916  11.466 -5.7365 -0.7354  0.4827
  146MOL0     H19701   7.937   2.748  11.497  0.6815  0.7380  0.9015
  146MOL0     H19702   8.184   2.818  11.482 -1.9289  0.1481  1.1825
  146MOL0     H19703   8.153   2.810  11.306 -0.3530  0.5678 -0.3452
  146MOL0     H19704   8.119   2.582  11.304 -1.0581  1.9433 -0.2355
  146MOL0     H19705   8.056   2.585  11.472 -1.2228  0.3285  0.0636
  146MOL0     H19706   8.259   2.453  11.425 -0.8388 -0.4569  2.0887
  146MOL0     H19707   8.287   2.567  11.553 -3.7681  2.1931  0.7737
  146MOL0     H19708   8.553   2.679  11.245  0.3702 -1.7303 -1.9701
  146MOL0     H19709   7.783   2.775  11.081  1.2159  0.5577 -0.3292
  146MOL0     H19710   7.746   2.948  10.910 -1.9704  0.7654  1.3606
  147MOL0     O19711   1.447  11.062   0.560 -0.2814  0.2229 -0.0490
  147MOL0     C19712   1.481  11.019   0.446  0.0172 -0.6621  0.0778
  147MOL0     O19713   1.397  10.954   0.365  0.3331 -0.6617  0.5355
  147MOL0     C19714   1.269  10.915   0.401 -0.1754  0.2891  0.2732
  147MOL0     C19715   1.175  11.008   0.446 -1.0116  0.1538  0.1689
  147MOL0     C19716   1.050  10.965   0.487 -0.1970 -0.2465  0.7069
  147MOL0     C19717   1.021  10.822   0.495  0.2297 -0.0341  0.1553
  147MOL0     O19718   0.891  10.787   0.531 -0.1644  0.0646  0.4547
  147MOL0     C19719   0.837  10.674   0.461 -0.1970  0.3189  0.0860
  147MOL0     C19720   0.692  10.681   0.454  0.3977 -0.4091 -0.0045
  147MOL0     C19721   0.618  10.602   0.561  0.9128  0.4080 -0.1182
  147MOL0     C19722   0.468  10.602   0.532 -0.1616 -0.1019 -0.6110
  147MOL0     C19723   0.414  10.533   0.412  0.1833 -0.0340 -0.3581
  147MOL0     C19724   0.279  10.474   0.438  0.3878  0.3026  0.3667
  147MOL0     C19725   0.170  10.575   0.486  0.0698  0.3200 -0.1344
  147MOL0     C19726   0.108  10.658   0.368 -0.3002  0.8417 -0.2673
  147MOL0     N19727   0.045  10.586   0.253 -0.0524 -0.6774 -0.1623
  147MOL0     C19728  -0.014  10.457   0.262  0.0531 -0.3051 -0.5465
  147MOL0     C19729  -0.035  10.413   0.137 -0.4241 -1.0695  0.2245
  147MOL0     C19730  -0.084  10.280   0.094 -0.3002 -0.0030 -0.1836
  147MOL0     C19731   0.026  10.175   0.068 -0.3063 -0.1195  0.9986
  147MOL0     C19732   0.076  10.113   0.203  0.4140 -0.1728  0.4817
  147MOL0     C19733   0.211  10.040   0.191 -0.8331 -0.2693 -0.7918
  147MOL0     O19734   0.233   9.984   0.325  0.4378  0.5131  0.6558
  147MOL0     C19735   0.322   9.883   0.335 -0.2040  1.0242 -0.3830
  147MOL0     C19736   0.310   9.816   0.460  0.2868  0.6145  0.2735
  147MOL0     C19737   0.384   9.694   0.482  0.1946 -0.4582 -0.0296
  147MOL0     C19738   0.361   9.610   0.610  0.4142  0.3292 -0.4557
  147MOL0     C19739   0.486   9.659   0.384  0.0527 -0.2252  0.4826
  147MOL0     C19740   0.569   9.546   0.387 -0.6197  0.2951 -0.5168
  147MOL0     O19741   0.691   9.567   0.323 -0.2270  0.9138 -0.3539
  147MOL0     C19742   0.797   9.481   0.340  0.7525 -0.5385 -0.1341
  147MOL0     C19743   0.854   9.443   0.469 -1.2610  0.0609  0.2309
  147MOL0     C19744   0.953   9.344   0.474 -0.0973  0.3020  0.1491
  147MOL0     C19745   1.002   9.283   0.357 -0.4385 -0.2119 -1.4675
  147MOL0     O19746   1.109   9.197   0.375 -0.1446 -0.1880  0.1326
  147MOL0     C19747   1.216   9.224   0.285 -1.2707 -0.0224  0.0721
  147MOL0     C19748   1.331   9.293   0.367 -0.7011  0.1886  0.2794
  147MOL0     C19749   1.308   9.448   0.377 -0.1855 -0.1960  0.1390
  147MOL0     C19750   1.425   9.503   0.463  0.1042 -0.4250  0.6188
  147MOL0     C19751   1.425   9.491   0.611  0.9539  0.5816 -0.2389
  147MOL0     C19752   1.563   9.506   0.673  0.1967 -0.5092  0.0862
  147MOL0     C19753   1.552   9.488   0.828 -0.7368 -0.7833 -0.1804
  147MOL0     C19754   1.684   9.510   0.896 -0.0980  0.0061 -0.4723
  147MOL0    Cl19755   1.761   9.679   0.860 -0.3378  0.0993  0.1993
  147MOL0     C19756   0.944   9.317   0.239 -0.1149 -0.3015  0.1247
  147MOL0     C19757   0.844   9.413   0.226 -0.6997 -0.3815  0.3549
  147MOL0     O19758   0.530   9.440   0.439  0.0990 -0.2184 -0.4408
  147MOL0     C19759   0.498   9.741   0.272  0.2812 -0.2266  0.6732
  147MOL0     C19760   0.409   9.846   0.244 -0.4350 -0.0883  0.4055
  147MOL0     N19761   0.007  10.517   0.049  0.3968  0.9315 -0.8332
  147MOL0     N19762   0.049  10.611   0.122 -0.3974 -0.7356  0.0570
  147MOL0     C19763   1.116  10.731   0.448 -1.6059  1.4902 -0.3320
  147MOL0     C19764   1.240  10.784   0.406 -0.8655 -0.4478  0.3321
  147MOL0     C19765   1.613  11.050   0.388  0.5926 -0.2540 -0.2466
  147MOL0     C19766   1.648  11.030   0.255 -0.2895  0.0197  0.0167
  147MOL0     C19767   1.775  11.051   0.213  1.0675  0.4080  0.2097
  147MOL0     C19768   1.872  11.091   0.297  0.2460 -0.0332 -0.4543
  147MOL0     O19769   2.000  11.121   0.262 -0.1094 -0.5651 -0.1966
  147MOL0     C19770   2.023  11.255   0.219 -0.0840  1.0057 -0.5726
  147MOL0     C19771   2.176  11.271   0.192  0.1686  0.1087 -1.0828
  147MOL0     C19772   2.221  11.380   0.095  0.0791  0.3021  0.5167
  147MOL0     C19773   2.229  11.519   0.170 -0.2352 -0.5596 -0.5193
  147MOL0     C19774   2.098  11.575   0.184  1.1012 -0.5324  0.0753
  147MOL0     C19775   1.994  11.642   0.174 -0.2164  1.5369 -0.4992
  147MOL0     C19776   1.848  11.110   0.428 -0.3401 -0.0511 -1.2395
  147MOL0     C19777   1.719  11.081   0.474 -0.0894 -0.5704 -0.5292
  147MOL0     H19778   1.195  11.115   0.448  1.1831 -0.0174 -3.3766
  147MOL0     H19779   0.970  11.033   0.514 -1.1652 -0.3501 -1.5957
  147MOL0     H19780   0.874  10.652   0.360  3.0553  0.3303  1.1585
  147MOL0     H19781   0.873  10.586   0.515 -0.3666 -0.4403 -1.0161
  147MOL0     H19782   0.658  10.781   0.423 -1.1979 -0.5491  1.1479
  147MOL0     H19783   0.661  10.626   0.365 -1.2526 -2.1672  1.5666
  147MOL0     H19784   0.660  10.502   0.572  2.4911  0.9158 -1.2077
  147MOL0     H19785   0.631  10.648   0.660  0.2482  1.0167 -0.3049
  147MOL0     H19786   0.424  10.570   0.627  0.4957  1.1420  0.1387
  147MOL0     H19787   0.438  10.707   0.533  2.6784  0.8236  1.7776
  147MOL0     H19788   0.411  10.597   0.323  0.4570 -0.4152 -0.6465
  147MOL0     H19789   0.478  10.449   0.384 -2.2828 -1.7918 -1.0106
  147MOL0     H19790   0.246  10.440   0.339  1.9634  0.4944 -0.2491
  147MOL0     H19791   0.291  10.390   0.507 -0.0607  1.4784  1.9330
  147MOL0     H19792   0.088  10.530   0.542  2.5985 -1.7098  2.1972
  147MOL0     H19793   0.204  10.645   0.563  1.8493 -0.6771  0.0229
  147MOL0     H19794   0.183  10.729   0.333 -0.0262 -0.6041 -2.8442
  147MOL0     H19795   0.029  10.713   0.419 -1.2490  0.3919 -1.2139
  147MOL0     H19796  -0.027  10.400   0.353 -0.1033  0.9731  0.2562
  147MOL0     H19797  -0.166  10.244   0.157 -1.6596 -1.4283 -2.5951
  147MOL0     H19798  -0.142  10.293   0.002 -2.7416 -2.3492  0.8612
  147MOL0     H19799   0.110  10.210   0.008 -0.2839 -0.2895  0.9307
  147MOL0     H19800  -0.016  10.091   0.013 -2.5882  0.4868  1.6867
  147MOL0     H19801  -0.004  10.044   0.231 -1.0191  1.1207 -0.3345
  147MOL0     H19802   0.089  10.190   0.279  1.7881  0.1368 -0.0303
  147MOL0     H19803   0.287  10.113   0.162  0.8466 -2.2016 -1.5411
  147MOL0     H19804   0.214   9.966   0.111  2.7233  0.3424 -1.4059
  147MOL0     H19805   0.253   9.858   0.543 -2.2046 -0.6362 -0.6857
  147MOL0     H19806   0.321   9.509   0.599  0.1090  0.3649  0.2930
  147MOL0     H19807   0.455   9.587   0.661 -0.5992  1.0630  1.8651
  147MOL0     H19808   0.305   9.668   0.684  0.8899  0.9282 -0.5584
  147MOL0     H19809   0.819   9.491   0.560 -4.1943 -0.6135 -0.4224
  147MOL0     H19810   0.984   9.311   0.573 -2.7136  2.1798  1.7295
  147MOL0     H19811   1.262   9.128   0.258  0.1076  0.4559  0.6694
  147MOL0     H19812   1.202   9.276   0.190  0.7260  2.2470  0.9539
  147MOL0     H19813   1.337   9.243   0.464 -1.0052 -1.9290 -0.7277
  147MOL0     H19814   1.427   9.275   0.317 -1.2655 -1.6319 -0.2289
  147MOL0     H19815   1.207   9.472   0.410  0.3156  1.3180  0.6752
  147MOL0     H19816   1.314   9.478   0.272  0.0112 -2.2183 -0.4605
  147MOL0     H19817   1.522   9.461   0.435  0.5615  1.0429 -0.0647
  147MOL0     H19818   1.423   9.611   0.451  0.4722 -0.7203 -3.3065
  147MOL0     H19819   1.405   9.386   0.636 -0.1347  0.8892  0.2178
  147MOL0     H19820   1.347   9.557   0.648  1.1105  0.1027  1.0157
  147MOL0     H19821   1.638   9.438   0.633 -0.9063 -0.5145 -2.1421
  147MOL0     H19822   1.610   9.604   0.662  1.5622 -0.6855  3.2931
  147MOL0     H19823   1.522   9.384   0.845  0.9243 -1.2188  0.2918
  147MOL0     H19824   1.473   9.558   0.857 -1.4309 -1.4791 -0.3352
  147MOL0     H19825   1.751   9.431   0.863  0.8726  1.1300 -1.2838
  147MOL0     H19826   1.678   9.495   1.004  0.0378 -0.1001 -0.4797
  147MOL0     H19827   0.981   9.267   0.151 -0.2016 -2.3559  1.1840
  147MOL0     H19828   0.794   9.425   0.130  1.6858 -1.4878 -1.1345
  147MOL0     H19829   0.573   9.713   0.199  1.0806 -1.1117  1.7913
  147MOL0     H19830   0.428   9.895   0.150  1.9019 -1.8156 -0.1317
  147MOL0     H19831   1.090  10.626   0.444 -1.4576  1.3728  1.3047
  147MOL0     H19832   1.322  10.722   0.371  1.8518  2.0588  1.8168
  147MOL0     H19833   1.574  10.998   0.182  0.1222 -0.8157 -0.0523
  147MOL0     H19834   1.797  11.053   0.107  0.4717  0.9777  0.0880
  147MOL0     H19835   1.964  11.280   0.130 -4.5765  1.4682  2.2020
  147MOL0     H19836   1.988  11.324   0.296 -0.8462 -0.6339  0.6181
  147MOL0     H19837   2.213  11.175   0.155 -0.8105 -1.0521  0.8136
  147MOL0     H19838   2.233  11.287   0.284 -1.5204 -0.1433  0.0495
  147MOL0     H19839   2.150  11.385   0.012 -0.0748  0.3302  0.6503
  147MOL0     H19840   2.312  11.357   0.039 -0.2445 -2.1504  0.9171
  147MOL0     H19841   2.297  11.589   0.120  1.1623 -1.1006  0.5447
  147MOL0     H19842   2.269  11.491   0.267  2.4985 -0.7655 -1.6175
  147MOL0     H19843   1.905  11.695   0.146  0.0496  1.0754 -2.3826
  147MOL0     H19844   1.923  11.136   0.502 -3.8086 -1.3337  3.2209
  147MOL0     H19845   1.703  11.085   0.581 -1.0515  0.1062 -0.6841
  148MOL0     O19846  10.617   6.193   5.234  0.2149  0.0471 -0.7777
  148MOL0     C19847  10.719   6.194   5.157  0.0049  0.5493  0.0183
  148MOL0     O19848  10.728   6.250   5.033  0.9972 -0.4187  0.0942
  148MOL0     C19849  10.633   6.329   4.969  0.3753  0.0571  0.0252
  148MOL0     C19850  10.498   6.330   5.006  0.1726  0.7487  0.4632
  148MOL0     C19851  10.409   6.426   4.953  0.1888 -0.0565 -0.7289
  148MOL0     C19852  10.455   6.511   4.855 -0.0306  0.0288 -0.4775
  148MOL0     O19853  10.360   6.588   4.796 -0.1240 -0.4849  0.2185
  148MOL0     C19854  10.410   6.713   4.750 -0.0958  0.4138  0.2622
  148MOL0     C19855  10.292   6.806   4.730 -0.1321  0.6646  0.5585
  148MOL0     C19856  10.219   6.824   4.868  0.4175  0.1257  0.6396
  148MOL0     C19857  10.090   6.902   4.849 -0.9900  0.1384  0.4814
  148MOL0     C19858  10.016   6.941   4.980 -0.6187  0.5627 -0.1542
  148MOL0     C19859  10.077   7.068   5.049 -0.3761 -0.3319 -0.0464
  148MOL0     C19860  10.031   7.205   4.977  0.9175  0.3866  0.3137
  148MOL0     C19861  10.114   7.317   5.038  0.8425  0.3305  0.2117
  148MOL0     N19862  10.061   7.443   4.988  0.0073 -0.1526 -0.1675
  148MOL0     C19863  10.045   7.557   5.066 -0.6175  0.2230 -0.0662
  148MOL0     C19864  10.047   7.659   4.978 -0.1145 -1.1701  0.3700
  148MOL0     C19865  10.022   7.799   4.999  0.4442 -0.5504 -0.0306
  148MOL0     C19866   9.890   7.822   5.063 -0.4556 -0.3050  1.1451
  148MOL0     C19867   9.872   7.819   5.211 -0.1116  0.3418 -0.3099
  148MOL0     C19868   9.977   7.904   5.281  0.8819  0.2966  0.9089
  148MOL0     O19869  10.000   8.027   5.203  0.0910  0.5535 -0.0903
  148MOL0     C19870  10.128   8.064   5.211 -0.8050 -0.2887 -0.1353
  148MOL0     C19871  10.171   8.149   5.111  0.4230  0.0157  0.4079
  148MOL0     C19872  10.299   8.196   5.112  0.0033  0.2868  1.0616
  148MOL0     C19873  10.344   8.261   4.982  0.3952 -0.5513  0.7816
  148MOL0     C19874  10.391   8.158   5.215  0.6929 -0.1957 -0.0210
  148MOL0     C19875  10.533   8.193   5.215 -0.7631 -0.5175 -0.1414
  148MOL0     O19876  10.620   8.119   5.299 -0.3164 -0.9910 -0.4166
  148MOL0     C19877  10.756   8.148   5.311  0.1126  0.3689  0.1249
  148MOL0     C19878  10.832   8.138   5.189  0.4599 -0.6953 -0.4016
  148MOL0     C19879  10.975   8.139   5.195 -0.4387  0.7034 -0.4152
  148MOL0     C19880  11.040   8.156   5.318  0.2606 -0.5478  0.0319
  148MOL0     O19881  11.175   8.147   5.318  0.2918 -0.4399  0.6218
  148MOL0     C19882  11.263   8.197   5.422 -0.0732 -0.0157  0.0290
  148MOL0     C19883  11.399   8.137   5.414 -0.6962  0.0805  0.0584
  148MOL0     C19884  11.493   8.200   5.515  0.1131  0.3235  0.2422
  148MOL0     C19885  11.635   8.143   5.503  0.5751 -0.3069  0.5234
  148MOL0     C19886  11.719   8.170   5.625 -0.4981  0.2984  0.4928
  148MOL0     C19887  11.855   8.103   5.621 -0.0289 -0.8091 -0.4200
  148MOL0     C19888  11.906   8.114   5.760  0.1775  0.4202 -0.2145
  148MOL0     C19889  12.059   8.087   5.774  0.7876 -0.0916  0.2617
  148MOL0    Cl19890  12.089   8.098   5.946  0.3167  0.1416 -0.0462
  148MOL0     C19891  10.955   8.164   5.432  0.0750 -0.5844  0.7643
  148MOL0     C19892  10.821   8.166   5.434  1.2562 -0.3672  0.4043
  148MOL0     O19893  10.575   8.296   5.158  0.2686 -0.3838 -0.8387
  148MOL0     C19894  10.351   8.083   5.322 -0.0842  0.0597  0.3714
  148MOL0     C19895  10.213   8.039   5.316 -0.0043  1.0190  0.7416
  148MOL0     N19896  10.082   7.601   4.854 -0.8740 -0.1179 -0.8954
  148MOL0     N19897  10.088   7.476   4.860  0.0630 -0.6851  0.2499
  148MOL0     C19898  10.585   6.508   4.819  0.0250  0.4340 -0.4080
  148MOL0     C19899  10.670   6.410   4.869 -0.0773  0.0150  0.5254
  148MOL0     C19900  10.847   6.118   5.192 -0.6758  0.2899 -0.5695
  148MOL0     C19901  10.863   6.039   5.307 -0.1434 -0.8761 -0.8727
  148MOL0     C19902  10.987   5.982   5.336 -0.2248  0.1295  0.4773
  148MOL0     C19903  11.099   6.007   5.259  0.1615  0.4862 -0.0189
  148MOL0     O19904  11.222   5.945   5.282  0.5961  0.0423 -0.5274
  148MOL0     C19905  11.219   5.802   5.275 -0.3374 -0.5650  0.1676
  148MOL0     C19906  11.354   5.740   5.304  0.1294  0.5805  0.2915
  148MOL0     C19907  11.389   5.743   5.452  0.7334  0.4239  0.1445
  148MOL0     C19908  11.538   5.687   5.472  0.2332  0.3955  0.3032
  148MOL0     C19909  11.604   5.773   5.573 -0.4325  0.4173  0.4138
  148MOL0     C19910  11.653   5.851   5.648 -0.6627  0.3554  0.0959
  148MOL0     C19911  11.090   6.089   5.153  0.1221 -0.5086  0.0003
  148MOL0     C19912  10.962   6.136   5.112  0.3975 -0.0710  0.1576
  148MOL0     H19913  10.451   6.261   5.075  0.0936  0.8015  0.4620
  148MOL0     H19914  10.303   6.433   4.974 -0.0550  0.2616 -1.9442
  148MOL0     H19915  10.466   6.751   4.836  1.2926  0.4134 -0.6141
  148MOL0     H19916  10.467   6.687   4.660  1.8540 -0.5718  1.7084
  148MOL0     H19917  10.325   6.904   4.694 -0.9531 -0.3051 -3.3411
  148MOL0     H19918  10.224   6.766   4.654  0.5813 -0.3698  0.4603
  148MOL0     H19919  10.191   6.723   4.900  1.9453 -1.0011 -1.3536
  148MOL0     H19920  10.278   6.879   4.941  3.0647 -0.9558 -0.5298
  148MOL0     H19921  10.111   6.987   4.783 -1.9833 -1.2088 -1.6821
  148MOL0     H19922  10.018   6.844   4.791 -0.4104  2.3137 -2.6984
  148MOL0     H19923   9.915   6.966   4.945 -0.8219  0.5072  0.3842
  148MOL0     H19924  10.014   6.853   5.044 -5.3733  0.5666  0.0768
  148MOL0     H19925  10.047   7.064   5.154  1.8288 -1.0321  0.6146
  148MOL0     H19926  10.186   7.073   5.040 -0.5572  0.3455 -2.6348
  148MOL0     H19927  10.040   7.211   4.868  1.2851  3.7359  0.4135
  148MOL0     H19928   9.925   7.210   5.004  0.7666  1.9012 -0.4930
  148MOL0     H19929  10.219   7.313   5.008  2.2122  0.5302  4.2681
  148MOL0     H19930  10.116   7.317   5.148  0.9343  1.8743  0.2199
  148MOL0     H19931  10.056   7.577   5.172 -0.6629 -0.6834  0.1152
  148MOL0     H19932  10.109   7.853   5.038  0.1774  0.0704 -0.2830
  148MOL0     H19933  10.005   7.846   4.901  2.1705 -2.6259 -1.4196
  148MOL0     H19934   9.820   7.750   5.019 -2.7267  1.3079  1.8872
  148MOL0     H19935   9.849   7.915   5.024 -1.0635 -1.1055 -0.1847
  148MOL0     H19936   9.875   7.714   5.242 -1.3764  0.1404 -0.8385
  148MOL0     H19937   9.774   7.855   5.242  0.5571  0.3728  1.9564
  148MOL0     H19938  10.067   7.842   5.286 -0.1235 -1.3834 -0.7148
  148MOL0     H19939   9.940   7.939   5.378  1.3216  0.2324  1.1026
  148MOL0     H19940  10.098   8.161   5.032  3.6974  5.3156 -2.3927
  148MOL0     H19941  10.387   8.358   5.007  0.6441 -0.9694  2.0957
  148MOL0     H19942  10.436   8.212   4.950  2.1946  3.4961 -0.9446
  148MOL0     H19943  10.268   8.277   4.905  1.4961 -0.1226 -0.2405
  148MOL0     H19944  10.793   8.103   5.093  0.1853  1.4823 -1.1334
  148MOL0     H19945  11.026   8.113   5.103 -0.6314  1.0115 -0.6114
  148MOL0     H19946  11.255   8.306   5.431 -0.4113 -0.0243 -0.1595
  148MOL0     H19947  11.234   8.163   5.522  2.2500  0.1790  0.8240
  148MOL0     H19948  11.392   8.028   5.417 -0.2391 -0.0082 -1.3052
  148MOL0     H19949  11.432   8.174   5.316  0.5760 -0.0632  0.4114
  148MOL0     H19950  11.450   8.179   5.614 -1.9385  1.4125 -0.3641
  148MOL0     H19951  11.508   8.308   5.506  0.7678  0.2712  0.6522
  148MOL0     H19952  11.624   8.034   5.497  1.0766 -0.4432  1.6863
  148MOL0     H19953  11.685   8.181   5.414  0.0636  3.3200  1.6260
  148MOL0     H19954  11.669   8.133   5.716 -3.2689  0.2147 -0.9412
  148MOL0     H19955  11.718   8.279   5.630 -0.5849  0.4184 -1.3575
  148MOL0     H19956  11.841   8.001   5.586 -0.1732 -0.4660 -1.3864
  148MOL0     H19957  11.915   8.155   5.545  0.3465 -0.9116 -0.1966
  148MOL0     H19958  11.863   8.034   5.821  2.1034 -0.0389  0.6379
  148MOL0     H19959  11.885   8.211   5.805 -0.2207 -1.2568  3.5622
  148MOL0     H19960  12.116   8.168   5.726 -2.4065  3.5713  2.1292
  148MOL0     H19961  12.088   7.989   5.735  1.2441  1.2435 -3.1058
  148MOL0     H19962  11.000   8.178   5.530 -2.4093 -0.5968  1.9768
  148MOL0     H19963  10.760   8.184   5.522  0.6666 -1.9918  0.3629
  148MOL0     H19964  10.421   8.060   5.402  0.1406  2.1137  0.8207
  148MOL0     H19965  10.183   7.982   5.403  1.3981  1.7054  1.7088
  148MOL0     H19966  10.635   6.557   4.737 -0.4256 -0.7922 -1.4550
  148MOL0     H19967  10.776   6.421   4.849 -0.4322  1.9392 -0.5730
  148MOL0     H19968  10.776   6.026   5.371 -0.8441  1.8981 -1.1439
  148MOL0     H19969  10.985   5.915   5.421 -0.5479  0.7820  0.9900
  148MOL0     H19970  11.151   5.767   5.353 -1.6536 -0.3944 -0.8792
  148MOL0     H19971  11.173   5.771   5.181 -0.3141 -1.1489  0.3411
  148MOL0     H19972  11.431   5.789   5.244  0.7509  1.9580  2.0865
  148MOL0     H19973  11.339   5.639   5.264  0.2257  1.0870 -1.0665
  148MOL0     H19974  11.325   5.683   5.517  0.7080 -1.0097 -1.1239
  148MOL0     H19975  11.380   5.850   5.474 -2.4062  0.3688 -0.4814
  148MOL0     H19976  11.590   5.683   5.376 -2.4110  3.4202 -1.4441
  148MOL0     H19977  11.529   5.585   5.511  2.3007 -0.5253 -1.4128
  148MOL0     H19978  11.703   5.913   5.719  2.6518 -0.6744 -1.1288
  148MOL0     H19979  11.173   6.131   5.097 -0.2843 -0.6381 -0.7069
  148MOL0     H19980  10.972   6.186   5.016  1.5450 -2.9884 -1.4019
  149MOL0     O19981   5.657  11.065   1.428 -0.2458  0.4877 -0.1841
  149MOL0     C19982   5.581  11.115   1.351 -0.3134  0.5185 -0.4867
  149MOL0     O19983   5.602  11.231   1.288 -0.6064 -0.4738  1.3662
  149MOL0     C19984   5.713  11.303   1.325 -0.2002 -0.0662  0.7851
  149MOL0     C19985   5.783  11.317   1.442 -0.2126 -0.4805  0.4484
  149MOL0     C19986   5.906  11.395   1.436  0.4951 -0.6976 -0.6213
  149MOL0     C19987   5.943  11.466   1.333 -0.7592 -0.7791  0.2457
  149MOL0     O19988   6.048  11.559   1.327 -0.1979  0.2843 -0.6184
  149MOL0     C19989   6.061  11.646   1.444 -0.2447  0.5464 -1.1647
  149MOL0     C19990   6.190  11.621   1.519  0.2423  0.7139 -0.2757
  149MOL0     C19991   6.303  11.647   1.422 -0.0850  0.0779 -1.0845
  149MOL0     C19992   6.430  11.664   1.509 -0.5805 -0.3606 -0.1892
  149MOL0     C19993   6.548  11.710   1.433  0.6533 -0.4182  0.0841
  149MOL0     C19994   6.674  11.713   1.515 -0.4384 -0.6442  0.0180
  149MOL0     C19995   6.789  11.788   1.443 -0.6329 -0.4704  0.5879
  149MOL0     C19996   6.792  11.763   1.297 -0.1574  0.2496 -0.4612
  149MOL0     N19997   6.905  11.833   1.230 -0.1582  0.3649 -0.2028
  149MOL0     C19998   6.978  11.786   1.125 -0.7256  0.5489 -0.0609
  149MOL0     C19999   7.070  11.880   1.101 -0.4086  1.3727  0.1646
  149MOL0     C20000   7.155  11.866   0.973  0.4829 -0.6406 -0.2579
  149MOL0     C20001   7.280  11.778   0.992 -0.5180  0.2441 -0.0691
  149MOL0     C20002   7.382  11.796   0.880 -0.1783  0.2898  0.5492
  149MOL0     C20003   7.341  11.740   0.739 -0.3513  0.2777  0.3100
  149MOL0     O20004   7.328  11.601   0.726  0.3044  0.4938 -0.0272
  149MOL0     C20005   7.426  11.508   0.689  0.6708  0.5968  0.7311
  149MOL0     C20006   7.386  11.379   0.653 -0.9000 -0.4136 -0.4965
  149MOL0     C20007   7.479  11.279   0.597  0.0976 -0.7041 -0.1885
  149MOL0     C20008   7.419  11.138   0.571  0.0004 -0.5847 -0.3605
  149MOL0     C20009   7.609  11.316   0.576  0.7061 -0.5821  0.7523
  149MOL0     C20010   7.705  11.221   0.521 -0.9337 -0.3046 -0.9361
  149MOL0     O20011   7.831  11.222   0.578  0.3343  0.0246 -0.9591
  149MOL0     C20012   7.941  11.144   0.544  0.2762 -0.1513 -0.0146
  149MOL0     C20013   8.063  11.200   0.506 -0.4529 -0.0989  0.0048
  149MOL0     C20014   8.167  11.130   0.455  0.4759  0.0674  0.0978
  149MOL0     C20015   8.163  10.997   0.454 -1.3307 -0.0236 -0.5330
  149MOL0     O20016   8.284  10.937   0.430 -0.2440  0.1156 -0.1316
  149MOL0     C20017   8.339  10.843   0.518 -0.1983 -0.2144 -0.2612
  149MOL0     C20018   8.389  10.904   0.650 -0.8753 -0.5227  0.1843
  149MOL0     C20019   8.277  10.928   0.762 -0.1009  0.9739  0.2175
  149MOL0     C20020   8.186  10.804   0.790  0.1999 -0.3655 -0.0508
  149MOL0     C20021   8.125  10.825   0.923 -0.4211  0.4446  0.4481
  149MOL0     C20022   8.018  10.931   0.932 -0.6819  0.1548  0.0921
  149MOL0     C20023   7.878  10.856   0.917 -0.1245  0.5216  0.3119
  149MOL0     C20024   7.773  10.955   0.893  0.0774 -0.0497  0.0698
  149MOL0    Cl20025   7.598  10.887   0.856 -0.0555  0.4393 -0.1732
  149MOL0     C20026   8.042  10.935   0.499 -0.4324 -0.3858  0.8832
  149MOL0     C20027   7.931  11.007   0.537 -0.0526  0.1403 -0.1605
  149MOL0     O20028   7.676  11.151   0.418 -0.0328  0.5021 -0.1535
  149MOL0     C20029   7.645  11.452   0.610 -0.8630  0.7018 -0.7620
  149MOL0     C20030   7.556  11.549   0.665  0.5549  0.2149 -0.0837
  149MOL0     N20031   7.060  11.987   1.188  0.6744 -0.3896  0.2015
  149MOL0     N20032   6.961  11.952   1.265  0.1228  0.9091 -0.1911
  149MOL0     C20033   5.880  11.448   1.214  0.1361 -0.1531  0.3801
  149MOL0     C20034   5.767  11.369   1.206 -0.8768  0.1055 -0.3726
  149MOL0     C20035   5.455  11.034   1.325 -0.4083 -0.1511 -0.4914
  149MOL0     C20036   5.457  10.891   1.330  0.1944 -0.1452  0.2787
  149MOL0     C20037   5.338  10.820   1.301 -0.3363  1.0211 -1.2780
  149MOL0     C20038   5.220  10.878   1.268 -0.3412  0.4577  1.0666
  149MOL0     O20039   5.112  10.795   1.263 -0.5138  0.1176 -0.4807
  149MOL0     C20040   5.027  10.824   1.149  0.0320  0.0375 -0.6348
  149MOL0     C20041   4.921  10.716   1.108  1.7636  0.0351  0.1886
  149MOL0     C20042   4.825  10.665   1.226 -0.0399  0.3968 -0.3159
  149MOL0     C20043   4.712  10.566   1.184  0.0953 -0.6751 -1.0584
  149MOL0     C20044   4.612  10.642   1.120  0.3082  0.3613 -0.1366
  149MOL0     C20045   4.528  10.703   1.070  0.0894  0.8377 -0.6311
  149MOL0     C20046   5.216  11.023   1.273  0.5457  0.0485 -0.4674
  149MOL0     C20047   5.337  11.102   1.294 -0.3545  0.2073 -0.1387
  149MOL0     H20048   5.733  11.288   1.534 -0.4284  1.6611  1.0577
  149MOL0     H20049   5.958  11.406   1.531  0.4707 -4.3789 -0.0254
  149MOL0     H20050   6.056  11.752   1.419 -3.2190  1.6808  3.1122
  149MOL0     H20051   5.977  11.615   1.508  0.4101 -5.7824 -2.6655
  149MOL0     H20052   6.198  11.680   1.611 -0.7443  3.9146 -2.0606
  149MOL0     H20053   6.187  11.514   1.542  0.8778  1.1335  1.9774
  149MOL0     H20054   6.318  11.567   1.349 -0.9813  0.0690 -1.2788
  149MOL0     H20055   6.289  11.740   1.365  0.5399  0.2768 -0.9128
  149MOL0     H20056   6.410  11.742   1.582 -0.2747 -0.0386 -0.4468
  149MOL0     H20057   6.441  11.567   1.558 -1.6399 -1.4876 -2.0511
  149MOL0     H20058   6.559  11.639   1.350  0.4419 -0.9119  0.4765
  149MOL0     H20059   6.535  11.813   1.398 -0.7256 -0.5575  0.1337
  149MOL0     H20060   6.655  11.767   1.608  2.0148 -0.4608  0.4750
  149MOL0     H20061   6.695  11.610   1.545  0.9487 -0.5546 -0.5634
  149MOL0     H20062   6.778  11.894   1.469 -1.0014  0.3730 -2.6613
  149MOL0     H20063   6.890  11.765   1.479 -0.2023  2.4613  1.5444
  149MOL0     H20064   6.700  11.791   1.244 -0.0397 -0.3666 -0.9969
  149MOL0     H20065   6.801  11.656   1.278 -2.2893 -0.4077  1.6964
  149MOL0     H20066   6.949  11.700   1.064 -3.1497  0.3464  1.2409
  149MOL0     H20067   7.090  11.828   0.895  0.9465 -0.0213 -0.9532
  149MOL0     H20068   7.186  11.967   0.946 -2.6180  0.1470 -1.2378
  149MOL0     H20069   7.248  11.674   0.984 -2.2727  0.8010 -0.5302
  149MOL0     H20070   7.338  11.796   1.084 -1.8865 -3.7059  1.8079
  149MOL0     H20071   7.470  11.733   0.900  1.1167  1.8272 -0.0958
  149MOL0     H20072   7.416  11.900   0.874 -0.8367  0.7551  3.2259
  149MOL0     H20073   7.418  11.782   0.673  1.4462  0.2092  2.2560
  149MOL0     H20074   7.248  11.784   0.704  0.0024  1.1596  0.4499
  149MOL0     H20075   7.279  11.363   0.659 -1.4521  2.8606  0.8988
  149MOL0     H20076   7.416  11.107   0.466 -2.0285 -0.6666 -0.3119
  149MOL0     H20077   7.487  11.067   0.617  0.4653 -1.5221 -2.3605
  149MOL0     H20078   7.321  11.118   0.615 -1.2832 -1.2184 -3.2740
  149MOL0     H20079   8.080  11.307   0.493  1.2002 -0.4003 -0.5668
  149MOL0     H20080   8.258  11.186   0.435 -1.2956  3.6752  1.1525
  149MOL0     H20081   8.282  10.754   0.545  1.3938 -0.8502  1.1843
  149MOL0     H20082   8.426  10.807   0.462  0.8503 -1.2539  1.8841
  149MOL0     H20083   8.446  10.826   0.701  0.4762  0.8408  0.8559
  149MOL0     H20084   8.443  10.996   0.627 -1.4863 -0.4872 -1.2006
  149MOL0     H20085   8.203  11.004   0.737  0.1843  1.6179  1.2913
  149MOL0     H20086   8.324  10.969   0.852  0.1779  1.5677 -0.1995
  149MOL0     H20087   8.104  10.797   0.718 -2.1181 -0.8290  2.5249
  149MOL0     H20088   8.238  10.708   0.792 -1.6517 -1.5015 -2.1519
  149MOL0     H20089   8.204  10.836   0.997  0.1627 -1.8969  0.2543
  149MOL0     H20090   8.087  10.729   0.959  1.3212  0.3508  2.1629
  149MOL0     H20091   8.008  10.987   1.026 -1.7908  1.3624 -0.7054
  149MOL0     H20092   8.030  11.013   0.861 -0.2638  0.3945  0.4313
  149MOL0     H20093   7.850  10.792   1.002  0.6846  1.1428  1.0595
  149MOL0     H20094   7.879  10.789   0.830  1.6835  0.2508  0.4936
  149MOL0     H20095   7.806  11.009   0.804  1.7703 -1.0970  0.0147
  149MOL0     H20096   7.772  11.036   0.966  1.9009  1.5565 -1.5583
  149MOL0     H20097   8.049  10.828   0.483  2.9965  0.0681 -1.7929
  149MOL0     H20098   7.834  10.959   0.546 -0.6965  1.5058  0.4990
  149MOL0     H20099   7.742  11.491   0.583  0.0375 -0.2955  0.8747
  149MOL0     H20100   7.585  11.653   0.680  0.7048  0.4736 -1.9914
  149MOL0     H20101   5.916  11.504   1.128  0.9553  0.2945  1.0024
  149MOL0     H20102   5.718  11.359   1.109  0.4376  0.3022 -1.0836
  149MOL0     H20103   5.550  10.837   1.350  0.2277 -0.7538 -1.3926
  149MOL0     H20104   5.346  10.712   1.303  2.0878  1.1133  1.9022
  149MOL0     H20105   4.983  10.923   1.162  2.0769  0.8178  0.9738
  149MOL0     H20106   5.083  10.832   1.056 -1.0366 -0.6089 -1.3511
  149MOL0     H20107   4.956  10.625   1.060 -0.9786 -1.4909  0.8838
  149MOL0     H20108   4.852  10.769   1.042 -2.6754  2.0436  5.6392
  149MOL0     H20109   4.774  10.754   1.263 -0.9199 -0.0192 -0.4931
  149MOL0     H20110   4.882  10.619   1.307  2.3011  1.2569 -1.3958
  149MOL0     H20111   4.670  10.523   1.276 -0.8433 -2.9368 -2.4679
  149MOL0     H20112   4.743  10.485   1.118  0.1166 -1.0998 -0.5363
  149MOL0     H20113   4.440  10.754   1.037 -0.8319  0.6568  1.3869
  149MOL0     H20114   5.120  11.074   1.264  1.0995  1.2736  0.1734
  149MOL0     H20115   5.328  11.207   1.269 -1.0115  0.2325  0.1935
  150MOL0     O20116   4.248   4.722   0.237  0.9265  0.1008 -0.3928
  150MOL0     C20117   4.260   4.638   0.153 -0.3575  0.0042 -0.2696
  150MOL0     O20118   4.374   4.587   0.115 -0.4197  0.1790  0.4406
  150MOL0     C20119   4.505   4.624   0.165  0.2949 -0.5982  0.2935
  150MOL0     C20120   4.531   4.684   0.287  0.1984 -0.7653  0.5679
  150MOL0     C20121   4.655   4.711   0.334 -0.6512 -0.0487  1.7756
  150MOL0     C20122   4.768   4.689   0.249 -0.4475 -1.5844  0.0686
  150MOL0     O20123   4.892   4.684   0.312  0.3631  0.1635  0.6298
  150MOL0     C20124   5.012   4.672   0.236  0.4744 -0.0655 -0.0603
  150MOL0     C20125   5.119   4.746   0.310 -0.7313 -0.5116  0.4461
  150MOL0     C20126   5.248   4.768   0.234  0.4756 -0.6128  0.5297
  150MOL0     C20127   5.342   4.652   0.219  0.1939  0.6896  0.8644
  150MOL0     C20128   5.442   4.669   0.108 -0.1160 -0.5829  0.0704
  150MOL0     C20129   5.528   4.795   0.127  0.7660 -0.2583  0.5318
  150MOL0     C20130   5.667   4.788   0.060 -0.0379 -0.2019 -0.6855
  150MOL0     C20131   5.745   4.673   0.107 -0.6206 -0.6330  0.7865
  150MOL0     N20132   5.872   4.669   0.027  0.6127 -0.3116  0.4057
  150MOL0     C20133   5.876   4.646  -0.106 -0.2967 -0.7339  0.1894
  150MOL0     C20134   6.006   4.612  -0.138 -0.4598  0.0033  0.1041
  150MOL0     C20135   6.069   4.561  -0.267 -0.2306  0.6432  0.3789
  150MOL0     C20136   6.016   4.429  -0.315  0.0500 -0.4584  0.0467
  150MOL0     C20137   6.038   4.303  -0.225  0.9239  0.2592 -0.2527
  150MOL0     C20138   5.950   4.301  -0.098 -1.0634 -0.4292 -0.6041
  150MOL0     O20139   5.815   4.327  -0.135  0.4516 -0.0059 -0.2350
  150MOL0     C20140   5.717   4.306  -0.034 -0.0471  0.1165  0.0131
  150MOL0     C20141   5.743   4.287   0.104 -0.0446  0.4421  0.0335
  150MOL0     C20142   5.639   4.266   0.189 -0.3228  0.7957 -0.4557
  150MOL0     C20143   5.670   4.202   0.326  0.4511 -0.6772 -0.2449
  150MOL0     C20144   5.502   4.272   0.148  0.9849 -0.0554  1.0845
  150MOL0     C20145   5.378   4.260   0.230  0.1583 -1.1604  0.0573
  150MOL0     O20146   5.256   4.229   0.159 -0.7618 -0.2444 -0.5592
  150MOL0     C20147   5.147   4.203   0.235  0.6535  0.2886 -0.2503
  150MOL0     C20148   5.092   4.079   0.242  0.2067 -0.2921  0.1278
  150MOL0     C20149   4.973   4.057   0.308 -1.3709 -0.8630  0.2105
  150MOL0     C20150   4.925   4.156   0.395 -0.0100 -0.0277  0.3945
  150MOL0     O20151   4.818   4.139   0.480  0.2186 -0.2352 -0.5221
  150MOL0     C20152   4.726   4.037   0.478 -0.0484  0.5455  0.0456
  150MOL0     C20153   4.583   4.097   0.483  0.5472 -0.2935 -1.1678
  150MOL0     C20154   4.535   4.166   0.618  1.1280  0.2874  0.2199
  150MOL0     C20155   4.387   4.216   0.610  0.5688  0.3854  0.1684
  150MOL0     C20156   4.365   4.332   0.506 -0.4897  0.4008 -0.5270
  150MOL0     C20157   4.225   4.380   0.509  0.1693  0.0451 -0.1305
  150MOL0     C20158   4.137   4.307   0.411 -0.2903  0.3638  0.5918
  150MOL0     C20159   4.012   4.388   0.399 -0.2613 -0.1360 -0.1719
  150MOL0    Cl20160   3.910   4.377   0.540  0.4979 -0.5343 -0.6223
  150MOL0     C20161   4.982   4.286   0.397 -0.0920  0.1847 -0.6970
  150MOL0     C20162   5.089   4.309   0.307  0.3382 -0.2689  0.0678
  150MOL0     O20163   5.385   4.303   0.347 -0.1925 -0.5214 -0.6688
  150MOL0     C20164   5.485   4.281   0.009  0.3695  0.3906  0.7827
  150MOL0     C20165   5.587   4.305  -0.076  0.1198  0.2798 -0.0210
  150MOL0     N20166   6.084   4.641  -0.022 -0.0232  0.4544  0.3793
  150MOL0     N20167   6.000   4.687   0.072 -0.2485 -0.4710  0.7208
  150MOL0     C20168   4.748   4.634   0.123  0.9151 -0.0418 -0.5075
  150MOL0     C20169   4.613   4.601   0.084  0.0850  0.1320  0.0075
  150MOL0     C20170   4.134   4.575   0.111 -0.5172 -0.7403  1.5239
  150MOL0     C20171   4.010   4.640   0.126 -0.1085 -0.3498 -0.6528
  150MOL0     C20172   3.891   4.593   0.060 -1.0234 -0.1933 -0.6256
  150MOL0     C20173   3.897   4.465  -0.002  1.0038  0.6350 -0.4506
  150MOL0     O20174   3.793   4.394  -0.044 -0.2823  0.5617 -0.5067
  150MOL0     C20175   3.665   4.439  -0.007  0.2094 -0.2453 -0.2252
  150MOL0     C20176   3.626   4.418   0.140 -0.2248  0.3146 -0.0077
  150MOL0     C20177   3.549   4.539   0.200 -0.9974  0.3821  0.1941
  150MOL0     C20178   3.483   4.512   0.335  0.2024 -0.6106  0.0843
  150MOL0     C20179   3.380   4.406   0.329  0.0452 -0.4830  0.1746
  150MOL0     C20180   3.315   4.307   0.314  0.6057  0.7730  0.4186
  150MOL0     C20181   4.023   4.399  -0.012 -0.3972  0.1782 -0.0986
  150MOL0     C20182   4.145   4.458   0.036 -0.5323  0.2763  0.6300
  150MOL0     H20183   4.449   4.707   0.354 -2.8641 -1.8871 -2.5142
  150MOL0     H20184   4.658   4.753   0.434  1.5510 -0.7379  2.0482
  150MOL0     H20185   5.043   4.568   0.225 -0.4156 -0.3743  0.3036
  150MOL0     H20186   4.991   4.722   0.141  0.0461  0.0208  0.0809
  150MOL0     H20187   5.075   4.840   0.346 -1.2907 -0.7090  0.2968
  150MOL0     H20188   5.139   4.682   0.396  1.4089  1.4592  1.5337
  150MOL0     H20189   5.231   4.811   0.135  3.1922  1.5837  0.9078
  150MOL0     H20190   5.298   4.852   0.283 -0.3347 -0.5668  1.3098
  150MOL0     H20191   5.398   4.636   0.312 -0.8328 -0.6302  1.2909
  150MOL0     H20192   5.283   4.562   0.200  0.2590  1.0086 -0.9632
  150MOL0     H20193   5.494   4.575   0.092 -2.6251 -1.8265 -1.4957
  150MOL0     H20194   5.390   4.679   0.012  1.1425  1.5003 -0.4697
  150MOL0     H20195   5.481   4.890   0.097  1.5791 -0.1628 -0.5012
  150MOL0     H20196   5.543   4.815   0.233 -0.0529  0.9036  0.4517
  150MOL0     H20197   5.669   4.784  -0.049 -0.3868 -2.7181 -0.6697
  150MOL0     H20198   5.722   4.881   0.081  1.5501 -1.3256  0.4073
  150MOL0     H20199   5.686   4.584   0.085  0.1384 -0.8543 -0.5201
  150MOL0     H20200   5.768   4.680   0.213  1.9924  0.4150  0.2277
  150MOL0     H20201   5.785   4.644  -0.165  0.6648 -2.3865 -1.3619
  150MOL0     H20202   6.043   4.637  -0.341 -1.3830  2.0468  2.1567
  150MOL0     H20203   6.178   4.554  -0.263  0.0770  0.8497 -3.6717
  150MOL0     H20204   6.069   4.400  -0.406  0.8987 -0.7856  0.6381
  150MOL0     H20205   5.908   4.438  -0.332 -0.3523 -2.4533  1.1967
  150MOL0     H20206   6.144   4.308  -0.198  1.3876 -1.9432 -1.3749
  150MOL0     H20207   6.010   4.210  -0.276  0.7346  0.1260  0.0864
  150MOL0     H20208   5.981   4.374  -0.023 -1.1124 -2.3454  1.3676
  150MOL0     H20209   5.946   4.203  -0.050 -2.8284 -1.2236 -2.2320
  150MOL0     H20210   5.845   4.278   0.142 -0.1950  2.9948  1.1891
  150MOL0     H20211   5.664   4.291   0.390 -4.2380  0.1477 -1.4920
  150MOL0     H20212   5.586   4.134   0.343  0.4395 -0.9631 -1.3836
  150MOL0     H20213   5.768   4.153   0.325  0.2875 -1.3012  3.0402
  150MOL0     H20214   5.128   3.994   0.184 -2.4886 -2.8923  2.0037
  150MOL0     H20215   4.920   3.963   0.306 -1.2427 -0.9671  1.3362
  150MOL0     H20216   4.732   3.981   0.384 -0.7899  2.5665 -1.2729
  150MOL0     H20217   4.738   3.969   0.563  4.2292  2.7937  1.5450
  150MOL0     H20218   4.584   4.169   0.400 -3.2867  3.4604  1.6078
  150MOL0     H20219   4.505   4.027   0.451 -2.3634  2.0951  0.2692
  150MOL0     H20220   4.608   4.243   0.646  1.5855  0.5929 -1.6664
  150MOL0     H20221   4.534   4.093   0.700  0.2221  2.1538  1.9469
  150MOL0     H20222   4.326   4.131   0.580  1.7020 -1.1268  1.9009
  150MOL0     H20223   4.369   4.256   0.710  2.7568 -0.2369  0.8706
  150MOL0     H20224   4.398   4.307   0.404 -1.9342  2.0238 -1.4525
  150MOL0     H20225   4.424   4.421   0.528  4.5102 -2.0498 -2.4178
  150MOL0     H20226   4.191   4.370   0.612 -0.5318  3.0235  0.0113
  150MOL0     H20227   4.218   4.489   0.502 -0.4668  0.0940  1.0446
  150MOL0     H20228   4.127   4.204   0.447  1.5066  0.2202  0.7388
  150MOL0     H20229   4.176   4.304   0.309 -3.3711  0.0157 -0.6987
  150MOL0     H20230   3.965   4.347   0.309  1.6195 -0.5690 -1.0186
  150MOL0     H20231   4.038   4.492   0.373  0.3184  1.1751  4.7672
  150MOL0     H20232   4.942   4.363   0.462 -2.3645 -1.2173 -0.3215
  150MOL0     H20233   5.146   4.401   0.306 -0.0676  0.0039 -2.0068
  150MOL0     H20234   5.387   4.280  -0.038  1.3970  2.4960 -1.6597
  150MOL0     H20235   5.567   4.312  -0.183  0.9949 -1.8628 -0.3791
  150MOL0     H20236   4.837   4.612   0.065  3.0880  1.1822  2.1179
  150MOL0     H20237   4.588   4.546  -0.006  1.1830 -2.5437  1.2060
  150MOL0     H20238   4.016   4.738   0.171  2.8041 -1.3258  1.4059
  150MOL0     H20239   3.802   4.654   0.066  0.7625  2.4720  1.0621
  150MOL0     H20240   3.647   4.543  -0.035  0.2589  0.5329  2.2987
  150MOL0     H20241   3.594   4.387  -0.071  0.3654  1.0245 -1.4889
  150MOL0     H20242   3.719   4.396   0.193  0.4156 -4.0111 -2.4560
  150MOL0     H20243   3.560   4.331   0.141  2.1991 -1.6837 -1.3344
  150MOL0     H20244   3.470   4.551   0.126 -0.9286 -2.4352 -0.4426
  150MOL0     H20245   3.613   4.628   0.200 -0.0129 -0.2862 -1.4055
  150MOL0     H20246   3.428   4.602   0.366  0.3199 -0.1288 -1.0234
  150MOL0     H20247   3.559   4.496   0.411  0.2794  1.7266  0.5913
  150MOL0     H20248   3.271   4.210   0.309 -0.4438  1.2904 -1.9139
  150MOL0     H20249   4.026   4.303  -0.062 -0.1207  1.1528 -2.0426
  150MOL0     H20250   4.242   4.410   0.029 -0.8938 -0.3986  0.1111
  151MOL0     O20251   6.628   7.681   4.094 -1.0738  0.0415 -0.3793
  151MOL0     C20252   6.649   7.694   4.218  0.3175 -0.3917 -0.0561
  151MOL0     O20253   6.555   7.702   4.312 -0.3711 -0.4446 -0.9027
  151MOL0     C20254   6.420   7.667   4.282  0.5069  0.1051 -0.4127
  151MOL0     C20255   6.384   7.546   4.219  0.1335  1.4144 -0.5271
  151MOL0     C20256   6.246   7.516   4.200  0.3868  0.3473  0.0576
  151MOL0     C20257   6.152   7.602   4.234  0.1570 -0.7379  0.4316
  151MOL0     O20258   6.019   7.588   4.207 -0.1049 -0.1374  0.1504
  151MOL0     C20259   5.970   7.465   4.149 -0.5123  0.2094  0.4853
  151MOL0     C20260   5.962   7.350   4.242 -0.1985  0.6044 -0.3215
  151MOL0     C20261   5.869   7.379   4.351 -0.5749  0.7495 -0.1394
  151MOL0     C20262   5.722   7.402   4.309 -0.3697 -0.0113  0.6340
  151MOL0     C20263   5.625   7.329   4.402 -0.8445  0.6535 -0.8038
  151MOL0     C20264   5.546   7.421   4.499 -0.2828 -0.3024  0.4647
  151MOL0     C20265   5.415   7.353   4.541  0.0264 -0.1323  0.5659
  151MOL0     C20266   5.326   7.441   4.630 -0.2154  0.0377  0.0462
  151MOL0     N20267   5.203   7.359   4.660  0.3068  0.7043 -0.3550
  151MOL0     C20268   5.152   7.325   4.786 -0.0131  0.3216  0.6814
  151MOL0     C20269   5.023   7.279   4.762 -0.4738 -0.1191 -0.2374
  151MOL0     C20270   4.912   7.228   4.850  0.8681  0.2588  0.2997
  151MOL0     C20271   4.874   7.079   4.811  0.3317 -0.4015  0.6209
  151MOL0     C20272   4.774   7.015   4.899 -0.0320  0.4181  0.1835
  151MOL0     C20273   4.701   6.886   4.838  0.1397  0.3956 -0.3511
  151MOL0     O20274   4.576   6.852   4.901  0.0605  0.5860 -0.0359
  151MOL0     C20275   4.494   6.756   4.836 -0.2028 -0.0932  0.7485
  151MOL0     C20276   4.523   6.678   4.720  0.7640 -0.1230  1.1825
  151MOL0     C20277   4.425   6.596   4.660 -1.2231  0.0188 -0.5068
  151MOL0     C20278   4.443   6.537   4.527 -0.6061  0.3734  0.2306
  151MOL0     C20279   4.313   6.572   4.744  0.2468 -0.6122 -0.0681
  151MOL0     C20280   4.222   6.459   4.703 -0.1217 -0.1157 -0.7905
  151MOL0     O20281   4.092   6.479   4.711  0.6702 -0.8660  0.2101
  151MOL0     C20282   3.992   6.391   4.664 -0.1637 -0.4157  0.0117
  151MOL0     C20283   3.872   6.424   4.730  0.6440  0.9806 -0.3192
  151MOL0     C20284   3.756   6.351   4.704 -0.2371  0.0022  0.6098
  151MOL0     C20285   3.764   6.240   4.621  0.0091  0.4374  0.7506
  151MOL0     O20286   3.658   6.156   4.587  0.0663  0.8122  0.9067
  151MOL0     C20287   3.526   6.175   4.636  0.3625  0.1621  0.5044
  151MOL0     C20288   3.442   6.242   4.528  0.3156 -0.4164 -0.1220
  151MOL0     C20289   3.312   6.180   4.496  0.5877 -0.1548  0.4085
  151MOL0     C20290   3.239   6.256   4.387  0.2275  0.8334 -0.6977
  151MOL0     C20291   3.100   6.184   4.361 -0.1207 -0.2515  0.6097
  151MOL0     C20292   2.987   6.236   4.459  0.0169 -0.3826 -0.3966
  151MOL0     C20293   2.881   6.124   4.484  0.4946 -0.4328 -0.1573
  151MOL0     C20294   2.791   6.161   4.605  0.2002  0.0020 -0.1264
  151MOL0    Cl20295   2.724   6.324   4.571 -0.5775 -0.2171 -0.0993
  151MOL0     C20296   3.887   6.210   4.563  0.0074 -0.0981  0.4553
  151MOL0     C20297   4.000   6.282   4.584 -1.1076  0.1037  0.1540
  151MOL0     O20298   4.275   6.354   4.658  0.4820  0.0016 -0.0967
  151MOL0     C20299   4.293   6.633   4.868 -0.5470  0.1131 -0.4318
  151MOL0     C20300   4.386   6.728   4.907 -0.1529  0.4756  0.0981
  151MOL0     N20301   5.005   7.276   4.623 -0.0948 -1.1698  0.7397
  151MOL0     N20302   5.111   7.327   4.560  0.0334  0.1287  0.5974
  151MOL0     C20303   6.181   7.712   4.305 -0.5395 -0.3903 -0.4590
  151MOL0     C20304   6.315   7.744   4.336 -0.2393  0.8170  1.4366
  151MOL0     C20305   6.789   7.719   4.260 -0.6296  0.5047 -0.3066
  151MOL0     C20306   6.903   7.676   4.184  0.1055 -0.4018 -0.1197
  151MOL0     C20307   7.031   7.701   4.225  0.5114  0.5428 -0.4955
  151MOL0     C20308   7.057   7.787   4.340  0.1588 -0.4250  0.3554
  151MOL0     O20309   7.169   7.844   4.383 -0.4783  0.3027  0.1538
  151MOL0     C20310   7.297   7.780   4.341 -0.1714 -0.3479 -0.7011
  151MOL0     C20311   7.410   7.866   4.403 -0.1911 -0.2859  0.0864
  151MOL0     C20312   7.397   7.874   4.552 -0.1299  0.8493  0.3594
  151MOL0     C20313   7.286   7.965   4.613 -0.4737  0.0224 -0.7578
  151MOL0     C20314   7.320   7.994   4.755 -0.1453 -0.1889 -0.3867
  151MOL0     C20315   7.318   8.029   4.873  0.0185  0.7654  0.2353
  151MOL0     C20316   6.939   7.829   4.407 -0.2964  0.2822 -0.6056
  151MOL0     C20317   6.812   7.803   4.371 -0.1336  0.6748  0.5466
  151MOL0     H20318   6.468   7.485   4.188  0.6065  1.0323  1.4051
  151MOL0     H20319   6.233   7.427   4.138 -0.1473 -0.1254  0.8344
  151MOL0     H20320   5.873   7.482   4.103  0.2532 -2.5283 -2.5293
  151MOL0     H20321   6.037   7.434   4.068  0.3031  0.2325  1.1288
  151MOL0     H20322   5.939   7.255   4.192  0.9644 -0.9401  1.8749
  151MOL0     H20323   6.061   7.318   4.278  0.0162  0.0928 -1.3234
  151MOL0     H20324   5.880   7.295   4.421  3.3893  0.6024 -0.6964
  151MOL0     H20325   5.897   7.464   4.414  0.7209  1.0109 -1.0230
  151MOL0     H20326   5.708   7.510   4.298  0.5841  0.0665  0.1383
  151MOL0     H20327   5.706   7.365   4.207 -0.3119  2.8211 -0.5141
  151MOL0     H20328   5.552   7.280   4.336 -2.3635  0.1154  1.1638
  151MOL0     H20329   5.670   7.251   4.464  0.6569  0.8720 -1.5755
  151MOL0     H20330   5.611   7.441   4.584 -2.0522  3.7135  1.0942
  151MOL0     H20331   5.523   7.515   4.448 -1.8196 -1.0347 -0.2585
  151MOL0     H20332   5.355   7.325   4.454  1.1815 -3.3410  0.6536
  151MOL0     H20333   5.435   7.263   4.600 -0.4148  0.4877  1.6955
  151MOL0     H20334   5.292   7.530   4.577 -2.2998 -0.4141  0.5302
  151MOL0     H20335   5.391   7.467   4.715 -0.6083  3.0247 -0.4459
  151MOL0     H20336   5.201   7.343   4.881  1.3348 -1.7466  0.4319
  151MOL0     H20337   4.942   7.237   4.955  0.5756 -1.9114  0.6183
  151MOL0     H20338   4.818   7.282   4.837  0.6684  1.1242  4.0200
  151MOL0     H20339   4.955   7.005   4.810 -0.4303 -1.2560 -1.1947
  151MOL0     H20340   4.822   7.079   4.715  1.4405  2.1267 -0.0759
  151MOL0     H20341   4.698   7.090   4.921  0.6613  0.5464  2.4624
  151MOL0     H20342   4.805   6.980   4.998 -0.8720  0.7084  0.5579
  151MOL0     H20343   4.768   6.801   4.850  1.8254  1.7757  0.5691
  151MOL0     H20344   4.673   6.911   4.735 -2.1378  1.5989  0.4693
  151MOL0     H20345   4.606   6.711   4.660  0.1520 -1.6890 -0.6048
  151MOL0     H20346   4.489   6.438   4.531 -0.1272  0.4435 -2.3453
  151MOL0     H20347   4.349   6.521   4.473  0.4015 -3.6261 -0.6816
  151MOL0     H20348   4.504   6.607   4.470  2.2349 -2.3947 -0.3793
  151MOL0     H20349   3.867   6.502   4.805  1.3087 -1.9161  3.0401
  151MOL0     H20350   3.667   6.390   4.753 -0.4471  2.0427 -1.2359
  151MOL0     H20351   3.485   6.075   4.649  2.5819 -0.7390  1.0980
  151MOL0     H20352   3.519   6.225   4.733  2.1159  0.9665  0.2569
  151MOL0     H20353   3.416   6.341   4.567 -0.2320 -0.4340 -0.4283
  151MOL0     H20354   3.497   6.254   4.434  0.4726 -0.0725  0.0125
  151MOL0     H20355   3.258   6.178   4.592  0.8210 -1.9810  0.5388
  151MOL0     H20356   3.329   6.080   4.455 -1.8581 -0.1658 -0.7668
  151MOL0     H20357   3.236   6.364   4.398  2.8840  0.8489  0.6499
  151MOL0     H20358   3.296   6.245   4.294  1.3056 -1.0740  0.1353
  151MOL0     H20359   3.119   6.077   4.367  1.9988 -0.0577 -1.5427
  151MOL0     H20360   3.070   6.204   4.258  0.2281 -1.2035  0.3122
  151MOL0     H20361   3.027   6.262   4.557 -0.5125  0.9755 -0.5147
  151MOL0     H20362   2.945   6.327   4.415  1.2881  0.3952 -0.0190
  151MOL0     H20363   2.934   6.032   4.513  0.6109 -0.0871  0.7691
  151MOL0     H20364   2.826   6.101   4.393 -0.7278 -2.5450  1.0433
  151MOL0     H20365   2.851   6.169   4.697 -1.0964 -1.0075  0.8415
  151MOL0     H20366   2.717   6.082   4.617  0.7488 -0.5559 -0.3787
  151MOL0     H20367   3.888   6.117   4.507 -2.3791 -1.1055  1.8968
  151MOL0     H20368   4.097   6.256   4.542 -0.3619 -1.3659  2.5968
  151MOL0     H20369   4.201   6.638   4.926 -0.9767  0.4304 -1.1177
  151MOL0     H20370   4.372   6.784   4.999 -0.7016 -2.3027  1.8420
  151MOL0     H20371   6.108   7.784   4.340 -0.1912 -0.3633  0.2150
  151MOL0     H20372   6.329   7.831   4.400  1.0905  1.2481  0.5884
  151MOL0     H20373   6.892   7.611   4.098 -3.1537  0.1478 -0.2602
  151MOL0     H20374   7.119   7.677   4.165  0.6292  0.3538 -0.2476
  151MOL0     H20375   7.288   7.676   4.372  3.8745 -0.9433 -1.0204
  151MOL0     H20376   7.319   7.781   4.234  1.4520  0.7926 -0.3920
  151MOL0     H20377   7.400   7.972   4.376  0.5436 -0.2117  0.1087
  151MOL0     H20378   7.506   7.823   4.376 -0.6054 -0.8760 -0.4848
  151MOL0     H20379   7.488   7.928   4.576 -0.0685  1.3722 -1.0033
  151MOL0     H20380   7.390   7.772   4.592 -1.1492 -0.9263 -3.7800
  151MOL0     H20381   7.184   7.924   4.611  0.1040 -1.4762 -2.8098
  151MOL0     H20382   7.277   8.062   4.563 -1.0013 -0.0920 -0.8982
  151MOL0     H20383   7.297   8.054   4.975  0.3727  0.4393  0.3925
  151MOL0     H20384   6.961   7.885   4.498  0.3497 -0.4609 -0.2963
  151MOL0     H20385   6.725   7.848   4.417 -0.8090  0.4568 -0.4751
  152MOL0     O20386   3.568   3.208  11.307 -0.0190  0.0480 -0.0992
  152MOL0     C20387   3.533   3.097  11.275 -0.3224  0.0965  1.3677
  152MOL0     O20388   3.402   3.052  11.271 -0.4543  0.1521 -0.4990
  152MOL0     C20389   3.307   3.153  11.270 -0.6722 -1.2485  0.5919
  152MOL0     C20390   3.209   3.156  11.368  0.6020  0.3351  0.0580
  152MOL0     C20391   3.109   3.251  11.355 -0.1411  0.3487  0.2622
  152MOL0     C20392   3.114   3.349  11.261 -0.4962  0.1501 -0.4062
  152MOL0     O20393   3.029   3.457  11.262 -0.8282  0.0356 -0.8748
  152MOL0     C20394   2.918   3.460  11.365  0.2179  0.2139 -0.0197
  152MOL0     C20395   2.831   3.581  11.342  0.3378 -1.3173  0.5974
  152MOL0     C20396   2.717   3.610  11.447  0.0601  0.1862  0.2707
  152MOL0     C20397   2.616   3.722  11.410  0.7158 -0.7903 -0.1912
  152MOL0     C20398   2.501   3.744  11.515 -0.8068  0.4817 -0.3380
  152MOL0     C20399   2.410   3.848  11.469  0.0328 -0.5940 -0.3061
  152MOL0     C20400   2.286   3.846  11.559 -0.8810 -0.0007 -0.0290
  152MOL0     C20401   2.198   3.950  11.508  0.2149 -0.3322  0.5064
  152MOL0     N20402   2.081   3.982  11.590  0.2721  0.0321 -0.1909
  152MOL0     C20403   1.964   3.909  11.593  0.5339 -0.0409 -0.2365
  152MOL0     C20404   1.892   3.983  11.688  0.2700  0.5347 -0.6287
  152MOL0     C20405   1.746   3.959  11.714 -1.1256  0.2800  0.1039
  152MOL0     C20406   1.730   3.890  11.850  0.3526  0.0802  1.1713
  152MOL0     C20407   1.589   3.892  11.910 -0.6197 -0.3676  0.1377
  152MOL0     C20408   1.478   3.845  11.823  0.5993  1.0449  0.2411
  152MOL0     O20409   1.401   3.954  11.753 -0.0622  0.0607  0.0534
  152MOL0     C20410   1.299   3.923  11.671  1.1702 -0.2642  0.0435
  152MOL0     C20411   1.237   4.031  11.610 -0.4452  0.9114 -0.6834
  152MOL0     C20412   1.126   4.024  11.526 -0.2195 -0.8635  0.0822
  152MOL0     C20413   1.064   4.152  11.478  0.4313 -0.5000 -0.1905
  152MOL0     C20414   1.075   3.894  11.485  0.5411  0.0570 -0.3975
  152MOL0     C20415   0.951   3.853  11.412  0.1888 -0.3607 -0.1203
  152MOL0     O20416   0.910   3.722  11.435 -0.3782 -0.3089  0.3055
  152MOL0     C20417   0.790   3.685  11.379 -0.8961  0.7343  0.8783
  152MOL0     C20418   0.797   3.590  11.273 -0.1210 -0.1147 -0.1121
  152MOL0     C20419   0.687   3.548  11.210  0.0633  0.5292 -0.0865
  152MOL0     C20420   0.561   3.591  11.258  0.4770 -0.6482 -0.6805
  152MOL0     O20421   0.441   3.547  11.216 -0.7110 -0.6135 -0.8699
  152MOL0     C20422   0.432   3.473  11.092  0.0897 -0.3187  0.1343
  152MOL0     C20423   0.288   3.477  11.028 -0.0075  0.3886 -1.3444
  152MOL0     C20424   0.231   3.607  11.005 -1.2508 -0.1783 -0.7468
  152MOL0     C20425   0.088   3.594  10.975  0.5770 -0.2271 -0.1073
  152MOL0     C20426   0.034   3.730  10.927  0.4922 -0.4500 -0.3298
  152MOL0     C20427  -0.112   3.740  10.888  0.0296 -0.2383 -0.4774
  152MOL0     C20428  -0.147   3.640  10.784  0.9340  0.5669  1.5044
  152MOL0     C20429  -0.288   3.686  10.727  0.0490  0.1386 -0.1840
  152MOL0    Cl20430  -0.310   3.593  10.575 -0.2193  0.2765 -0.3383
  152MOL0     C20431   0.548   3.671  11.365 -0.2870  0.3109  0.1662
  152MOL0     C20432   0.661   3.723  11.428 -0.5335  0.6783  0.1715
  152MOL0     O20433   0.888   3.929  11.338 -0.0863 -0.0482  0.7389
  152MOL0     C20434   1.155   3.781  11.531 -0.6918  0.6180  0.4129
  152MOL0     C20435   1.259   3.801  11.618 -0.0858  0.5816 -0.1004
  152MOL0     N20436   1.964   4.090  11.743  0.4268 -0.1083 -0.2776
  152MOL0     N20437   2.073   4.088  11.677 -0.1227  0.2837  0.7596
  152MOL0     C20438   3.212   3.353  11.167  0.4285 -0.6883 -0.7972
  152MOL0     C20439   3.307   3.247  11.164 -0.3866 -0.2411 -0.0528
  152MOL0     C20440   3.640   2.997  11.280  0.3037  0.1452 -0.3276
  152MOL0     C20441   3.776   3.026  11.289  0.3856 -0.0721  0.1592
  152MOL0     C20442   3.872   2.922  11.298 -0.0045  0.3277  1.0351
  152MOL0     C20443   3.838   2.784  11.279 -0.3744  0.1073  0.1129
  152MOL0     O20444   3.925   2.680  11.278  0.0479  0.1012  0.2057
  152MOL0     C20445   4.067   2.712  11.261  0.1469  0.1516 -1.5827
  152MOL0     C20446   4.145   2.582  11.283 -0.7482 -0.8752 -0.5035
  152MOL0     C20447   4.289   2.607  11.276  0.5009  0.5800  0.1839
  152MOL0     C20448   4.373   2.469  11.265  0.7477 -0.1285 -0.0317
  152MOL0     C20449   4.373   2.400  11.394 -0.1674  0.1292 -0.0365
  152MOL0     C20450   4.368   2.353  11.504 -0.2652  0.5142 -0.0011
  152MOL0     C20451   3.700   2.758  11.267 -0.4012  0.0419 -0.1989
  152MOL0     C20452   3.602   2.862  11.272 -0.1058  1.2516  0.5076
  152MOL0     H20453   3.203   3.072  11.436 -0.1739  0.9891  0.8129
  152MOL0     H20454   3.022   3.253  11.421 -0.9210  4.4380 -0.6257
  152MOL0     H20455   2.849   3.377  11.352  3.6828 -2.9380 -0.1169
  152MOL0     H20456   2.961   3.457  11.465 -1.4088 -2.0429  0.6818
  152MOL0     H20457   2.896   3.668  11.326  0.4677 -1.4071  0.6338
  152MOL0     H20458   2.785   3.569  11.244 -0.1108  4.6947 -0.3177
  152MOL0     H20459   2.653   3.522  11.459 -0.6300  0.8194  1.3469
  152MOL0     H20460   2.763   3.629  11.544 -0.1568 -1.0128  0.6254
  152MOL0     H20461   2.662   3.816  11.378 -0.4390 -0.8230 -2.1677
  152MOL0     H20462   2.564   3.688  11.319 -0.7778 -2.5075  1.2224
  152MOL0     H20463   2.438   3.655  11.528 -0.9525  0.5929 -0.2861
  152MOL0     H20464   2.537   3.758  11.617 -2.5579 -2.8337  0.9015
  152MOL0     H20465   2.465   3.942  11.482 -0.9282  0.1887 -1.7302
  152MOL0     H20466   2.390   3.848  11.362 -2.3667 -1.2069  0.0934
  152MOL0     H20467   2.244   3.745  11.555  0.4459 -0.6297  0.9961
  152MOL0     H20468   2.328   3.868  11.658  1.4984  0.2862 -1.0457
  152MOL0     H20469   2.166   3.916  11.409  0.7531  3.1304 -0.9756
  152MOL0     H20470   2.256   4.042  11.497  1.6330 -1.1436  0.8737
  152MOL0     H20471   1.925   3.821  11.543  0.0322 -0.5469  0.9986
  152MOL0     H20472   1.686   4.049  11.700  1.2423  2.0105  0.4416
  152MOL0     H20473   1.712   3.893  11.634 -2.9748  1.6684 -0.3208
  152MOL0     H20474   1.799   3.940  11.919  2.7803  0.8644 -1.6427
  152MOL0     H20475   1.755   3.784  11.842 -0.2695  0.0357 -0.8223
  152MOL0     H20476   1.571   3.996  11.938 -0.6651 -0.2612 -0.2918
  152MOL0     H20477   1.583   3.831  12.001  0.3653  1.0722  1.2172
  152MOL0     H20478   1.407   3.785  11.880  0.4795  1.0383  0.0854
  152MOL0     H20479   1.521   3.781  11.746  0.7278 -1.6519  2.4109
  152MOL0     H20480   1.281   4.127  11.636 -0.2114  1.7197 -3.6167
  152MOL0     H20481   1.101   4.190  11.382 -1.1240 -1.1115 -1.0663
  152MOL0     H20482   0.956   4.142  11.477  0.2188  0.6074 -3.7882
  152MOL0     H20483   1.092   4.228  11.552  1.0054 -2.5972  1.8704
  152MOL0     H20484   0.891   3.552  11.234  0.3526 -3.0269  3.3642
  152MOL0     H20485   0.707   3.481  11.127  2.7984 -0.6881  1.4171
  152MOL0     H20486   0.505   3.512  11.021  0.7171 -2.5251 -0.5119
  152MOL0     H20487   0.462   3.368  11.098 -0.1653 -0.4693 -0.8921
  152MOL0     H20488   0.299   3.428  10.931 -0.8070 -0.0643 -1.2126
  152MOL0     H20489   0.213   3.414  11.078  0.0032  0.9569 -0.5976
  152MOL0     H20490   0.292   3.647  10.923 -0.5733 -3.6125 -2.0660
  152MOL0     H20491   0.241   3.662  11.099  2.6746 -3.1738  0.8681
  152MOL0     H20492   0.069   3.521  10.896 -3.4373 -0.2926  0.7394
  152MOL0     H20493   0.031   3.556  11.060  0.5851 -1.9629 -0.8299
  152MOL0     H20494   0.090   3.768  10.840  1.2084 -1.4823 -0.3277
  152MOL0     H20495   0.070   3.809  10.993  1.9542 -0.3126 -1.2374
  152MOL0     H20496  -0.163   3.743  10.985 -1.6388  2.9492 -1.2967
  152MOL0     H20497  -0.127   3.840  10.845 -2.2796  0.2130  1.1411
  152MOL0     H20498  -0.153   3.539  10.825 -1.5315  0.9988  2.3373
  152MOL0     H20499  -0.076   3.641  10.700  1.3517 -1.8132  1.7622
  152MOL0     H20500  -0.295   3.795  10.723 -0.2243  0.1171 -0.3051
  152MOL0     H20501  -0.365   3.656  10.799  2.0620 -2.4562  1.0473
  152MOL0     H20502   0.452   3.715  11.389  0.0231  0.9305  0.3045
  152MOL0     H20503   0.652   3.802  11.501 -0.8108  1.9610 -1.2081
  152MOL0     H20504   1.127   3.679  11.509 -0.3395  0.3561  1.1705
  152MOL0     H20505   1.310   3.713  11.657 -0.3435  0.5517  0.1726
  152MOL0     H20506   3.204   3.428  11.089  1.5138 -0.8734 -1.1050
  152MOL0     H20507   3.385   3.249  11.089  1.2630 -0.3160  1.5936
  152MOL0     H20508   3.823   3.123  11.302  1.2837 -0.6286  1.2296
  152MOL0     H20509   3.971   2.960  11.321  0.6576 -0.3827 -0.4457
  152MOL0     H20510   4.085   2.748  11.159 -1.1962  0.7446 -1.6330
  152MOL0     H20511   4.104   2.789  11.328  1.6436 -0.5171 -1.5958
  152MOL0     H20512   4.114   2.516  11.201  0.0097 -1.0260 -0.6748
  152MOL0     H20513   4.122   2.543  11.383  2.3831 -0.3987  0.4998
  152MOL0     H20514   4.319   2.653  11.371 -0.6486  1.1573  0.2775
  152MOL0     H20515   4.306   2.669  11.188 -4.3662  2.0564  0.0459
  152MOL0     H20516   4.476   2.486  11.232 -0.1811  2.7719 -1.8232
  152MOL0     H20517   4.333   2.398  11.193  0.7044 -0.3805  0.2383
  152MOL0     H20518   4.364   2.329  11.608  1.9727 -2.3210 -0.4394
  152MOL0     H20519   3.667   2.655  11.263 -3.0379  0.8264 -0.5607
  152MOL0     H20520   3.496   2.839  11.278  0.3370 -0.7323  1.8200
  153MOL0     O20521   9.648   6.886  11.263 -0.1734 -0.2860  0.3670
  153MOL0     C20522   9.647   6.818  11.162 -0.7791 -0.5647 -0.7796
  153MOL0     O20523   9.753   6.761  11.096  0.8370 -0.6324 -0.1587
  153MOL0     C20524   9.866   6.768  11.168 -1.2777 -0.1969  0.5333
  153MOL0     C20525   9.888   6.711  11.290  1.1470 -0.1152  0.8642
  153MOL0     C20526  10.003   6.724  11.367 -0.2981  0.1333 -0.7870
  153MOL0     C20527  10.110   6.799  11.318  0.9651 -0.2477  0.0285
  153MOL0     O20528  10.227   6.804  11.391 -0.6002  0.3580 -0.4682
  153MOL0     C20529  10.243   6.713  11.499 -0.0747 -0.4553  0.0022
  153MOL0     C20530  10.398   6.722  11.536 -0.2392 -0.4524  0.5023
  153MOL0     C20531  10.452   6.868  11.572  1.0021 -0.6997  0.7347
  153MOL0     C20532  10.584   6.851  11.650 -0.2295  0.4984  0.6593
  153MOL0     C20533  10.657   6.983  11.663 -0.1640  0.0788 -0.0773
  153MOL0     C20534  10.743   7.018  11.540  0.4121  0.0076 -0.1886
  153MOL0     C20535  10.850   7.127  11.560 -0.2368  0.2816 -0.3049
  153MOL0     C20536  10.962   7.114  11.459 -0.5198 -0.2398 -0.2031
  153MOL0     N20537  10.914   7.133  11.320 -0.6359 -0.2210 -1.1651
  153MOL0     C20538  10.847   7.039  11.251  0.2478  0.5332  0.8490
  153MOL0     C20539  10.834   7.096  11.130  0.5354 -0.5302 -0.2730
  153MOL0     C20540  10.799   7.028  11.006 -1.5051 -0.0106  0.1166
  153MOL0     C20541  10.640   7.021  10.987 -0.5008 -0.4690 -0.5665
  153MOL0     C20542  10.596   6.944  10.871 -0.9849 -0.8307  0.0190
  153MOL0     C20543  10.452   6.961  10.848 -0.3390  0.5105 -0.0100
  153MOL0     O20544  10.422   6.917  10.723 -0.1995 -0.1309  0.1958
  153MOL0     C20545  10.283   6.895  10.694  0.6459  0.2232 -0.1425
  153MOL0     C20546  10.259   6.808  10.586  0.2181 -0.3064  0.5690
  153MOL0     C20547  10.134   6.765  10.553  0.7292  0.8030  0.1877
  153MOL0     C20548  10.128   6.656  10.444 -0.1871 -0.0207  0.5795
  153MOL0     C20549  10.026   6.797  10.631 -0.5426 -0.4383 -0.6183
  153MOL0     C20550   9.886   6.764  10.596  0.2503 -0.1489 -0.1483
  153MOL0     O20551   9.790   6.857  10.641  0.4706  0.2425  0.5411
  153MOL0     C20552   9.659   6.859  10.590 -0.2188  0.5130 -0.9069
  153MOL0     C20553   9.622   6.801  10.463  0.4459 -0.3664 -0.7617
  153MOL0     C20554   9.486   6.774  10.432  0.3807 -0.5852  0.1559
  153MOL0     C20555   9.387   6.819  10.523  0.8063 -0.3137 -0.3519
  153MOL0     O20556   9.249   6.801  10.514  0.1853 -0.3429 -0.2348
  153MOL0     C20557   9.198   6.827  10.380  0.3362  1.1053  0.1152
  153MOL0     C20558   9.069   6.747  10.378  1.0556  0.2712  0.7209
  153MOL0     C20559   8.998   6.744  10.236  0.1944  0.8857 -0.3866
  153MOL0     C20560   8.872   6.653  10.222 -0.0112 -0.7266  0.2345
  153MOL0     C20561   8.755   6.735  10.283  1.2327  0.6141  0.0896
  153MOL0     C20562   8.636   6.653  10.319  1.0700  0.4783 -0.2299
  153MOL0     C20563   8.567   6.587  10.193  1.2840 -0.5207  0.1518
  153MOL0     C20564   8.431   6.519  10.248 -0.4801 -0.4181 -0.3836
  153MOL0    Cl20565   8.348   6.439  10.115  0.2853  0.0152  0.3994
  153MOL0     C20566   9.423   6.879  10.648  0.3419  0.0291 -0.2054
  153MOL0     C20567   9.561   6.890  10.677 -0.5432  0.6473 -0.1389
  153MOL0     O20568   9.857   6.649  10.570  0.3329  0.4120  1.0073
  153MOL0     C20569  10.045   6.891  10.735  0.1763 -0.4825 -0.0429
  153MOL0     C20570  10.174   6.934  10.769 -0.3971  0.5534 -0.4042
  153MOL0     N20571  10.877   7.228  11.129  0.9236  0.6762 -0.5500
  153MOL0     N20572  10.919   7.245  11.251 -0.1398 -0.3214  0.0683
  153MOL0     C20573  10.101   6.853  11.187 -0.4385 -0.0527  0.0122
  153MOL0     C20574   9.973   6.841  11.125  1.6557 -0.0052  0.4482
  153MOL0     C20575   9.524   6.800  11.082  0.6170 -0.7129 -0.0838
  153MOL0     C20576   9.519   6.700  10.980  0.1665 -0.0309 -0.0160
  153MOL0     C20577   9.393   6.675  10.920  0.3262  0.1895  0.0313
  153MOL0     C20578   9.279   6.743  10.966  0.5094  0.8396 -0.5375
  153MOL0     O20579   9.152   6.715  10.909 -0.0544  0.7351 -0.3317
  153MOL0     C20580   9.139   6.616  10.807 -0.2749 -0.1985 -0.7781
  153MOL0     C20581   8.995   6.622  10.755 -0.5262 -0.3659 -0.1059
  153MOL0     C20582   8.935   6.493  10.686  1.0281  0.5261 -0.6783
  153MOL0     C20583   8.786   6.515  10.672 -0.1449  0.0117  0.8346
  153MOL0     C20584   8.717   6.509  10.806 -0.5149  0.2476  1.3442
  153MOL0     C20585   8.674   6.516  10.921 -0.2830 -0.0651 -1.2827
  153MOL0     C20586   9.293   6.843  11.064 -0.5514 -0.2674  0.4106
  153MOL0     C20587   9.407   6.867  11.130  0.6045  0.4634 -0.5676
  153MOL0     H20588   9.807   6.645  11.320  0.9945 -2.9353 -4.4727
  153MOL0     H20589   9.991   6.666  11.458 -2.3245  2.9795  0.9276
  153MOL0     H20590  10.182   6.735  11.587 -0.2197  2.1717 -0.6672
  153MOL0     H20591  10.220   6.612  11.465 -1.3834  0.8981 -3.6772
  153MOL0     H20592  10.411   6.660  11.626 -0.8126  2.8621  3.0644
  153MOL0     H20593  10.458   6.673  11.459  1.9419  0.6682  1.4048
  153MOL0     H20594  10.468   6.922  11.479 -1.5819 -0.0239  0.6072
  153MOL0     H20595  10.375   6.928  11.622 -1.5549  0.3291 -3.9214
  153MOL0     H20596  10.551   6.822  11.750 -0.3614  2.2472  1.1490
  153MOL0     H20597  10.655   6.770  11.626  0.3276 -0.6487  5.2361
  153MOL0     H20598  10.580   7.061  11.669 -1.1495 -0.9388  0.9209
  153MOL0     H20599  10.712   6.989  11.757 -0.2932  1.0501 -0.0476
  153MOL0     H20600  10.802   6.933  11.506  0.0366 -0.3086 -0.0578
  153MOL0     H20601  10.670   7.031  11.460  0.1106 -0.9383 -0.0734
  153MOL0     H20602  10.812   7.230  11.569  0.8811  0.8425 -1.5703
  153MOL0     H20603  10.893   7.124  11.660  0.7127  1.1679 -0.6624
  153MOL0     H20604  11.011   7.019  11.480 -1.2273 -0.2131  1.8934
  153MOL0     H20605  11.037   7.192  11.477 -1.9098  0.6800  2.1582
  153MOL0     H20606  10.830   6.940  11.293  0.9602  0.3983  0.8327
  153MOL0     H20607  10.840   7.093  10.928  1.8695 -0.9090  0.9990
  153MOL0     H20608  10.832   6.924  11.013 -1.2017  0.0309 -0.6869
  153MOL0     H20609  10.605   7.124  10.990  3.9250  1.2025  0.3709
  153MOL0     H20610  10.600   6.963  11.070  2.0449 -0.2632  0.9041
  153MOL0     H20611  10.628   6.840  10.881  0.5380 -0.2968  1.1225
  153MOL0     H20612  10.651   6.987  10.786  0.4617  1.0593  1.8061
  153MOL0     H20613  10.433   7.066  10.872  0.7890  0.1239  2.8864
  153MOL0     H20614  10.396   6.903  10.922  0.7823 -0.3477  0.1925
  153MOL0     H20615  10.338   6.776  10.520 -0.1809  0.0175 -0.0681
  153MOL0     H20616  10.141   6.556  10.485 -3.4263  0.0854  2.2016
  153MOL0     H20617  10.031   6.643  10.394  0.1244 -2.6193  0.5294
  153MOL0     H20618  10.201   6.701  10.376 -2.3688  2.6843 -0.1601
  153MOL0     H20619   9.698   6.776  10.390 -0.1129 -1.9119 -0.8686
  153MOL0     H20620   9.460   6.727  10.338 -0.5753  1.8471 -0.8863
  153MOL0     H20621   9.180   6.934  10.368 -3.3020  1.0193  2.8713
  153MOL0     H20622   9.256   6.795  10.293 -1.9750  1.4245 -1.6226
  153MOL0     H20623   9.100   6.647  10.407  1.8688  0.5708  0.9041
  153MOL0     H20624   9.012   6.791  10.460 -1.9768 -0.0908 -1.0047
  153MOL0     H20625   9.060   6.702  10.156 -1.0339 -2.7897  0.3587
  153MOL0     H20626   8.977   6.851  10.231  0.1022  1.0213  1.9499
  153MOL0     H20627   8.865   6.620  10.118 -0.2990 -2.7441  0.8549
  153MOL0     H20628   8.891   6.569  10.289  2.5216  1.4396  2.4340
  153MOL0     H20629   8.718   6.807  10.209 -1.8359 -2.7778 -2.0238
  153MOL0     H20630   8.791   6.785  10.373 -1.1392  1.0051  0.8764
  153MOL0     H20631   8.659   6.573  10.389 -0.1264 -1.2983 -1.7619
  153MOL0     H20632   8.568   6.726  10.363  1.1516  2.1675 -2.6724
  153MOL0     H20633   8.617   6.509  10.133 -1.8491 -0.7153 -2.5439
  153MOL0     H20634   8.546   6.672  10.127  0.9622 -0.6567  0.0766
  153MOL0     H20635   8.360   6.593  10.285  1.6101  1.0035  0.9839
  153MOL0     H20636   8.450   6.441  10.322 -1.3509 -1.9459 -1.6869
  153MOL0     H20637   9.342   6.895  10.718 -1.5344 -3.4144 -1.3464
  153MOL0     H20638   9.606   6.939  10.763  1.0055  0.2003 -0.6583
  153MOL0     H20639   9.956   6.931  10.782  0.4397  1.2835 -0.9384
  153MOL0     H20640  10.195   7.009  10.844 -0.0613 -0.5357  0.6229
  153MOL0     H20641  10.185   6.907  11.147 -1.3675  2.2124  0.9163
  153MOL0     H20642   9.960   6.894  11.031 -1.3085  1.3071  1.4830
  153MOL0     H20643   9.603   6.633  10.964 -2.1267 -3.2641  0.3181
  153MOL0     H20644   9.395   6.592  10.852 -1.2595 -0.3610  0.5936
  153MOL0     H20645   9.214   6.634  10.730  2.4969  0.2353  1.8338
  153MOL0     H20646   9.160   6.519  10.853 -1.2337  0.8818  2.1784
  153MOL0     H20647   8.992   6.708  10.687 -1.5867 -0.2581  0.0676
  153MOL0     H20648   8.935   6.646  10.843 -0.8999 -0.8999 -0.2123
  153MOL0     H20649   8.955   6.411  10.756 -2.4516  2.4150  2.9060
  153MOL0     H20650   8.978   6.463  10.590  2.5188 -2.6575  0.8150
  153MOL0     H20651   8.741   6.433  10.615 -2.6569  1.6234  0.3437
  153MOL0     H20652   8.760   6.598  10.605  0.3457  0.8683  1.6957
  153MOL0     H20653   8.644   6.527  11.023 -0.8573  3.1342 -1.7078
  153MOL0     H20654   9.211   6.904  11.100  0.8878  1.2843  1.1685
  153MOL0     H20655   9.420   6.940  11.208 -0.0565  2.2284 -2.0395
  154MOL0     O20656   5.926   9.583   0.233 -0.3362  0.1930  0.2368
  154MOL0     C20657   5.984   9.664   0.158 -0.3814  0.0256  0.3651
  154MOL0     O20658   5.924   9.757   0.078 -0.1353  0.5798  0.4944
  154MOL0     C20659   5.791   9.762   0.053  0.4267  0.1664  0.4353
  154MOL0     C20660   5.748   9.772  -0.079  0.3925 -0.1402 -0.7301
  154MOL0     C20661   5.609   9.792  -0.105 -0.5291 -0.9541 -0.0064
  154MOL0     C20662   5.523   9.822   0.001  0.8191 -0.2956  0.1793
  154MOL0     O20663   5.402   9.862  -0.038 -0.7204 -0.1197  0.2543
  154MOL0     C20664   5.317   9.947   0.039 -0.7843  0.0935 -0.7741
  154MOL0     C20665   5.218  10.014  -0.050 -0.8667 -0.1025  0.1477
  154MOL0     C20666   5.267  10.118  -0.155  0.6915  0.1572 -1.0673
  154MOL0     C20667   5.223  10.071  -0.292 -0.3076 -0.1399 -0.4436
  154MOL0     C20668   5.246  10.174  -0.393  0.8476 -0.1562  0.0974
  154MOL0     C20669   5.203  10.123  -0.523  0.2737 -0.2967  1.0730
  154MOL0     C20670   5.221  10.220  -0.643  0.0786 -0.8586 -0.0731
  154MOL0     C20671   5.359  10.302  -0.635 -0.6103 -0.6756 -0.8026
  154MOL0     N20672   5.370  10.395  -0.747  0.0691  0.0485 -0.0283
  154MOL0     C20673   5.482  10.465  -0.774  0.2247  0.8666 -0.1926
  154MOL0     C20674   5.442  10.556  -0.863 -0.5042  0.7469  0.3641
  154MOL0     C20675   5.545  10.630  -0.958 -0.0392 -0.0601 -0.3246
  154MOL0     C20676   5.510  10.580  -1.104  0.0537  0.2994 -0.2285
  154MOL0     C20677   5.535  10.430  -1.106  0.5546 -0.3846  1.5543
  154MOL0     C20678   5.523  10.374  -1.246  0.1562 -0.0909 -0.6652
  154MOL0     O20679   5.388  10.373  -1.281 -0.2979  0.1837  0.7080
  154MOL0     C20680   5.366  10.326  -1.411 -0.1437  0.1733 -0.1531
  154MOL0     C20681   5.244  10.335  -1.464  0.3588  0.3888 -0.6674
  154MOL0     C20682   5.201  10.312  -1.595 -0.2941  0.1127  0.5064
  154MOL0     C20683   5.057  10.304  -1.622  0.6332 -0.0132 -0.8170
  154MOL0     C20684   5.304  10.271  -1.683  0.6741 -0.0336 -0.1776
  154MOL0     C20685   5.281  10.234  -1.832 -0.6419  1.5201 -0.1460
  154MOL0     O20686   5.391  10.184  -1.901 -0.0073 -0.5473  0.3108
  154MOL0     C20687   5.382  10.158  -2.033  0.1620 -0.2409  0.6105
  154MOL0     C20688   5.326  10.247  -2.127 -0.2181  0.1119 -0.3397
  154MOL0     C20689   5.338  10.218  -2.264 -0.0822  0.8719  0.0095
  154MOL0     C20690   5.393  10.098  -2.311  0.0929 -0.7920 -0.6124
  154MOL0     O20691   5.405  10.097  -2.448 -0.1767  0.0074  0.2588
  154MOL0     C20692   5.409   9.974  -2.524  0.1395 -0.4657 -0.1458
  154MOL0     C20693   5.260   9.911  -2.538 -1.6610 -0.2666 -0.1876
  154MOL0     C20694   5.163  10.009  -2.598  0.9465  0.5599  1.3913
  154MOL0     C20695   5.034   9.920  -2.634 -0.1662 -0.7157  0.4342
  154MOL0     C20696   4.906   9.986  -2.676 -0.3495 -0.2294  0.1102
  154MOL0     C20697   4.916  10.069  -2.802 -0.0628 -0.3014  0.1079
  154MOL0     C20698   4.797  10.157  -2.825 -0.1448 -0.4356 -0.8783
  154MOL0     C20699   4.825  10.296  -2.796 -0.2257 -1.1010  1.0082
  154MOL0    Cl20700   4.891  10.359  -2.947  0.1266  0.1081 -0.0369
  154MOL0     C20701   5.433  10.009  -2.219  0.1505  0.0790 -0.4369
  154MOL0     C20702   5.430  10.040  -2.079  0.4032  0.6581  0.1813
  154MOL0     O20703   5.167  10.239  -1.878 -0.9331 -0.5314  0.6550
  154MOL0     C20704   5.430  10.251  -1.633 -1.6063 -0.2059 -0.0482
  154MOL0     C20705   5.467  10.283  -1.504  0.6114 -0.3176 -0.3006
  154MOL0     N20706   5.304  10.546  -0.890 -0.4621  0.2566 -1.1401
  154MOL0     N20707   5.265  10.456  -0.805 -0.5294 -0.0262 -0.6915
  154MOL0     C20708   5.563   9.816   0.134  0.9606 -0.2666 -0.2154
  154MOL0     C20709   5.698   9.805   0.155 -1.4184  0.0090  0.5091
  154MOL0     C20710   6.125   9.667   0.164  0.4587  0.4221 -0.2016
  154MOL0     C20711   6.193   9.544   0.177 -0.3381 -0.3646  0.4493
  154MOL0     C20712   6.335   9.552   0.187  0.3178  0.3408 -0.3565
  154MOL0     C20713   6.411   9.668   0.161  0.6427  0.3138 -0.2648
  154MOL0     O20714   6.550   9.672   0.179 -0.1112  0.0398  0.6730
  154MOL0     C20715   6.623   9.796   0.159  0.3260  0.0411  0.4333
  154MOL0     C20716   6.765   9.774   0.217 -0.0936  0.4973  0.5798
  154MOL0     C20717   6.762   9.735   0.360  0.1065 -0.7885  0.1978
  154MOL0     C20718   6.896   9.705   0.428  0.0186 -0.0632  1.0671
  154MOL0     C20719   6.951   9.582   0.374  0.2698 -0.4800  0.9837
  154MOL0     C20720   7.002   9.488   0.319  0.5226  0.2713 -0.0890
  154MOL0     C20721   6.333   9.781   0.127 -0.1158 -0.4809  0.3327
  154MOL0     C20722   6.193   9.781   0.118 -0.7541  0.3448  0.3480
  154MOL0     H20723   5.825   9.752  -0.152 -0.9551 -1.7809 -1.7824
  154MOL0     H20724   5.570   9.803  -0.205 -0.1783  0.2807 -0.0264
  154MOL0     H20725   5.252   9.884   0.101 -0.4657  0.8587  0.3530
  154MOL0     H20726   5.371  10.016   0.104  3.3247 -2.5865 -0.9833
  154MOL0     H20727   5.163   9.931  -0.095 -0.1993 -2.0323  2.6718
  154MOL0     H20728   5.146  10.061   0.018 -2.0312 -1.8492  0.2022
  154MOL0     H20729   5.215  10.213  -0.144 -2.1921 -1.2298 -1.7645
  154MOL0     H20730   5.371  10.152  -0.148 -0.3983  3.7294  4.1351
  154MOL0     H20731   5.265   9.972  -0.314 -0.8293 -0.9886  1.9997
  154MOL0     H20732   5.115  10.054  -0.301 -0.2791  0.1491 -1.3810
  154MOL0     H20733   5.188  10.264  -0.371  0.8805  0.1042 -0.8522
  154MOL0     H20734   5.354  10.188  -0.396  1.0576 -1.7814 -1.9722
  154MOL0     H20735   5.268  10.040  -0.551  0.7147  1.2105 -3.1998
  154MOL0     H20736   5.095  10.107  -0.522 -0.0174  0.3244 -2.7547
  154MOL0     H20737   5.212  10.157  -0.733 -1.5549 -0.3853 -0.2736
  154MOL0     H20738   5.136  10.288  -0.645  2.0090  1.6931  0.1796
  154MOL0     H20739   5.443  10.234  -0.620 -1.0802 -0.8705  1.4467
  154MOL0     H20740   5.351  10.374  -0.553 -0.4619  0.2682 -1.5980
  154MOL0     H20741   5.581  10.450  -0.733  0.5713  1.8591 -0.6256
  154MOL0     H20742   5.524  10.737  -0.943  0.8755  0.1356 -0.3428
  154MOL0     H20743   5.650  10.616  -0.931  0.2474  2.6832  0.3152
  154MOL0     H20744   5.567  10.627  -1.185 -3.4685  0.3283 -2.9818
  154MOL0     H20745   5.406  10.601  -1.129  0.0310  2.0032  1.1187
  154MOL0     H20746   5.468  10.367  -1.047 -0.7923 -1.6923 -1.1814
  154MOL0     H20747   5.636  10.405  -1.074  0.7211 -1.4647  0.2443
  154MOL0     H20748   5.562  10.273  -1.254 -1.3027 -0.6845 -0.5798
  154MOL0     H20749   5.583  10.433  -1.316 -2.7510  2.1810 -1.4457
  154MOL0     H20750   5.166  10.360  -1.393  1.6133  2.3185  0.0939
  154MOL0     H20751   5.022  10.359  -1.710 -0.3529  0.3754 -0.2074
  154MOL0     H20752   5.030  10.198  -1.633  2.4205 -0.9106  2.1586
  154MOL0     H20753   4.997  10.325  -1.532  1.8920 -1.8912  0.5553
  154MOL0     H20754   5.285  10.342  -2.095 -0.1502  0.4916 -1.3479
  154MOL0     H20755   5.313  10.295  -2.335  0.5280  2.2933  1.2898
  154MOL0     H20756   5.451  10.008  -2.619 -0.4372 -0.5861 -0.4498
  154MOL0     H20757   5.482   9.901  -2.486  2.8271  2.5186  0.9067
  154MOL0     H20758   5.272   9.822  -2.601 -1.5994  0.5046 -1.3085
  154MOL0     H20759   5.227   9.893  -2.436  1.4655  5.0760  2.2224
  154MOL0     H20760   5.200  10.047  -2.694  2.7459 -1.1457  1.3271
  154MOL0     H20761   5.139  10.089  -2.528 -1.4122  0.6407  0.5666
  154MOL0     H20762   5.059   9.856  -2.719 -0.4710 -2.6947  1.7591
  154MOL0     H20763   5.017   9.846  -2.555 -1.4074 -0.4744  0.4165
  154MOL0     H20764   4.875  10.050  -2.593  2.3845  1.5934 -0.1580
  154MOL0     H20765   4.839   9.902  -2.694 -2.3774  1.4320 -0.4336
  154MOL0     H20766   5.009  10.123  -2.819 -0.3221 -0.2382 -1.1519
  154MOL0     H20767   4.906   9.991  -2.878 -2.5899 -0.0799  0.1214
  154MOL0     H20768   4.720  10.140  -2.750 -0.8399  1.7462 -1.0305
  154MOL0     H20769   4.768  10.157  -2.931 -2.4733 -1.5711 -0.2913
  154MOL0     H20770   4.887  10.316  -2.708 -1.3069  1.5208  1.2917
  154MOL0     H20771   4.732  10.352  -2.779  0.8336  0.5523  1.6127
  154MOL0     H20772   5.480   9.917  -2.252  2.0515  0.1503  1.8101
  154MOL0     H20773   5.476   9.963  -2.018  1.4700 -0.8011 -2.3434
  154MOL0     H20774   5.502  10.204  -1.699 -0.1226 -0.5371  1.7296
  154MOL0     H20775   5.568  10.276  -1.465  1.4355  2.2712 -1.7149
  154MOL0     H20776   5.497   9.811   0.221  0.6411  1.7548 -0.2805
  154MOL0     H20777   5.735   9.809   0.257 -0.4991 -1.4682  0.2655
  154MOL0     H20778   6.143   9.450   0.200  0.5839 -0.3117  3.0038
  154MOL0     H20779   6.391   9.460   0.204  0.5136  0.3800 -0.7871
  154MOL0     H20780   6.622   9.807   0.050 -1.0281 -2.8796  0.0691
  154MOL0     H20781   6.576   9.887   0.197 -1.0997 -0.0219 -1.0495
  154MOL0     H20782   6.829   9.859   0.188 -2.7461  2.3142 -0.4293
  154MOL0     H20783   6.804   9.688   0.163  4.8143  2.5276  0.3774
  154MOL0     H20784   6.699   9.646   0.376 -0.8099 -0.5745 -1.9043
  154MOL0     H20785   6.719   9.823   0.409  0.0425  0.6546 -2.2915
  154MOL0     H20786   6.881   9.685   0.534 -0.2902  1.1437  1.2668
  154MOL0     H20787   6.960   9.794   0.419  0.3366 -0.3392  0.5944
  154MOL0     H20788   7.048   9.408   0.264  1.2423  1.3419 -1.0884
  154MOL0     H20789   6.376   9.876   0.094  2.6585 -1.4330  0.9043
  154MOL0     H20790   6.155   9.874   0.077  2.7352  1.0239 -1.8466
  155MOL0     O20791   4.006   8.055   6.561  0.1465  0.0566  0.8312
  155MOL0     C20792   4.067   8.009   6.467 -0.3954  0.1804  0.1284
  155MOL0     O20793   4.019   7.921   6.375  0.9671 -0.2669  0.1990
  155MOL0     C20794   3.893   7.868   6.377  0.3793  0.2454  0.1721
  155MOL0     C20795   3.864   7.784   6.273  0.4370 -0.8579 -0.2975
  155MOL0     C20796   3.731   7.726   6.236 -0.1919 -0.5738 -0.3639
  155MOL0     C20797   3.628   7.759   6.331  0.8837 -0.4214 -0.5043
  155MOL0     O20798   3.509   7.690   6.312  0.4812  1.2869 -0.3929
  155MOL0     C20799   3.429   7.662   6.427  0.9219 -0.1419 -0.3303
  155MOL0     C20800   3.324   7.558   6.387  0.4053  0.3944  0.3922
  155MOL0     C20801   3.185   7.607   6.335  0.0040  0.8466 -0.3574
  155MOL0     C20802   3.089   7.487   6.319 -0.3556 -0.0103  0.1466
  155MOL0     C20803   2.949   7.525   6.273 -0.1808 -0.3328  0.2529
  155MOL0     C20804   2.858   7.397   6.244 -0.1550 -0.6868 -1.0094
  155MOL0     C20805   2.714   7.421   6.200 -0.3550  0.3316  0.4439
  155MOL0     C20806   2.698   7.514   6.084  0.1605  0.1123 -0.7473
  155MOL0     N20807   2.553   7.510   6.047  0.0991  0.1044  0.1731
  155MOL0     C20808   2.506   7.629   5.993  0.3711 -0.1170 -0.0922
  155MOL0     C20809   2.376   7.601   5.953  0.1433  0.4767 -0.6815
  155MOL0     C20810   2.286   7.687   5.866 -0.4455 -0.3148  1.4663
  155MOL0     C20811   2.344   7.711   5.723 -0.0934 -0.6893  0.9927
  155MOL0     C20812   2.342   7.578   5.640 -0.1821  0.6084  0.1955
  155MOL0     C20813   2.218   7.482   5.635 -0.3709  0.2742  0.4053
  155MOL0     O20814   2.106   7.560   5.598  0.5045 -0.3486 -0.0574
  155MOL0     C20815   1.995   7.502   5.541  0.1302 -0.1858  0.6939
  155MOL0     C20816   1.944   7.374   5.564 -0.4077 -0.4269  0.4272
  155MOL0     C20817   1.810   7.338   5.519  0.0396  0.6806 -0.0423
  155MOL0     C20818   1.767   7.193   5.540 -0.3613  0.2860 -0.1953
  155MOL0     C20819   1.723   7.440   5.463  0.5067  0.3083 -0.1130
  155MOL0     C20820   1.576   7.425   5.425  0.6850  0.1199 -0.5120
  155MOL0     O20821   1.522   7.304   5.393  0.8283 -0.7008 -0.1629
  155MOL0     C20822   1.386   7.295   5.385  0.1596 -1.4065 -0.4367
  155MOL0     C20823   1.338   7.187   5.318 -0.0538  0.8004 -0.4521
  155MOL0     C20824   1.204   7.160   5.307  0.7129 -0.9125 -0.3144
  155MOL0     C20825   1.110   7.236   5.371 -0.2349 -0.0694  0.1498
  155MOL0     O20826   0.984   7.204   5.355 -1.0289  0.2639 -0.4090
  155MOL0     C20827   0.887   7.275   5.445 -1.0394  0.0999  0.3430
  155MOL0     C20828   0.761   7.198   5.424  0.2068  0.4557 -0.1116
  155MOL0     C20829   0.779   7.061   5.492 -0.3400 -0.7158  0.4295
  155MOL0     C20830   0.638   7.005   5.518 -0.3647  1.5401  1.4530
  155MOL0     C20831   0.642   6.852   5.557 -0.3403 -0.1980  0.0091
  155MOL0     C20832   0.516   6.773   5.532  0.7743  0.3790  0.7872
  155MOL0     C20833   0.389   6.833   5.596  0.1063  1.1235 -0.0822
  155MOL0     C20834   0.278   6.721   5.597 -0.0812 -0.1586  0.4823
  155MOL0    Cl20835   0.243   6.693   5.411 -0.1142 -0.1644  0.3061
  155MOL0     C20836   1.155   7.344   5.440  0.0021 -0.8314 -0.7405
  155MOL0     C20837   1.288   7.372   5.454  1.0544 -0.3875  0.6629
  155MOL0     O20838   1.517   7.534   5.406  0.3285  0.0240  0.1587
  155MOL0     C20839   1.784   7.566   5.449 -0.5497 -0.1233 -0.0298
  155MOL0     C20840   1.915   7.596   5.480 -0.2428  0.0790 -1.0269
  155MOL0     N20841   2.364   7.459   5.971  0.0980 -0.0528 -0.1482
  155MOL0     N20842   2.463   7.410   6.037  0.5525  0.5202 -0.0888
  155MOL0     C20843   3.655   7.836   6.447 -0.7962  0.8001 -0.5116
  155MOL0     C20844   3.781   7.903   6.463  0.2492  0.7217 -0.5050
  155MOL0     C20845   4.212   8.030   6.470 -0.5617 -0.9109 -0.3853
  155MOL0     C20846   4.296   7.956   6.386  0.6803 -0.3416 -0.3462
  155MOL0     C20847   4.433   7.972   6.388  0.3574 -0.1261  0.1358
  155MOL0     C20848   4.491   8.068   6.474 -0.5484  0.2559  0.5657
  155MOL0     O20849   4.630   8.090   6.469  0.9871  0.4340  0.1916
  155MOL0     C20850   4.693   8.200   6.541  0.1702 -0.1544 -0.0862
  155MOL0     C20851   4.843   8.167   6.546  0.4153 -0.1322  0.6363
  155MOL0     C20852   4.903   8.182   6.403  0.1029  0.2373  0.2647
  155MOL0     C20853   5.036   8.107   6.401  0.2032 -0.6325  0.6708
  155MOL0     C20854   5.130   8.161   6.493  0.6690  0.5833  0.1677
  155MOL0     C20855   5.213   8.218   6.556 -0.0686 -1.1518 -0.0315
  155MOL0     C20856   4.407   8.134   6.559 -0.3611  1.7376  0.1308
  155MOL0     C20857   4.270   8.125   6.557  0.8565  0.4490  0.4874
  155MOL0     H20858   3.947   7.755   6.209  1.1462  1.7170 -0.6441
  155MOL0     H20859   3.719   7.649   6.160 -1.0596  2.2930 -3.3706
  155MOL0     H20860   3.500   7.613   6.495 -0.1493 -1.1793  0.0836
  155MOL0     H20861   3.377   7.745   6.475 -3.0119 -2.6143  0.1471
  155MOL0     H20862   3.366   7.487   6.315  1.5461  0.2910  1.1342
  155MOL0     H20863   3.304   7.491   6.471  3.0867 -1.8336 -0.5952
  155MOL0     H20864   3.132   7.671   6.407  1.9184  2.3528 -0.2088
  155MOL0     H20865   3.194   7.669   6.245  0.6573  1.7372  0.2995
  155MOL0     H20866   3.132   7.420   6.245 -0.3526  2.1359 -1.9044
  155MOL0     H20867   3.085   7.419   6.405 -0.5778 -1.1485 -0.7510
  155MOL0     H20868   2.895   7.588   6.344 -3.3255 -1.4674 -0.9040
  155MOL0     H20869   2.962   7.587   6.183  0.0545 -0.8332 -0.0628
  155MOL0     H20870   2.910   7.345   6.163 -0.0747 -2.4676  0.1187
  155MOL0     H20871   2.862   7.335   6.335  0.3998 -0.3402 -0.7889
  155MOL0     H20872   2.675   7.322   6.177  2.9055 -0.9375 -0.2065
  155MOL0     H20873   2.660   7.473   6.280 -3.8170 -0.6813 -1.0608
  155MOL0     H20874   2.759   7.475   6.002 -0.1276  0.9693 -1.3829
  155MOL0     H20875   2.729   7.618   6.103 -2.3784  0.7102  0.5842
  155MOL0     H20876   2.575   7.711   5.976  1.0397 -0.7631 -0.5687
  155MOL0     H20877   2.182   7.651   5.870 -1.4263  1.4216 -2.9744
  155MOL0     H20878   2.284   7.786   5.913  0.0376 -0.1093  1.0644
  155MOL0     H20879   2.440   7.761   5.733 -0.3662  0.1249 -0.1587
  155MOL0     H20880   2.279   7.783   5.672  2.0238  0.8337  0.2999
  155MOL0     H20881   2.432   7.522   5.666 -0.2436  0.0585 -0.7583
  155MOL0     H20882   2.361   7.611   5.538  0.0126 -1.4639 -0.4689
  155MOL0     H20883   2.200   7.429   5.729  4.0672 -1.6353  0.4261
  155MOL0     H20884   2.247   7.416   5.554 -3.3878  1.7503 -2.0922
  155MOL0     H20885   1.993   7.294   5.619 -4.3879 -2.1597  1.8453
  155MOL0     H20886   1.694   7.201   5.621 -0.1151  4.1531 -0.1746
  155MOL0     H20887   1.710   7.159   5.453 -0.5449  3.0252 -1.2462
  155MOL0     H20888   1.846   7.124   5.568 -1.0332 -1.3226 -2.0275
  155MOL0     H20889   1.412   7.114   5.286  0.3910  1.1208 -0.1736
  155MOL0     H20890   1.182   7.074   5.243  0.5146 -0.5178 -0.7803
  155MOL0     H20891   0.907   7.260   5.552  2.2565 -0.1385 -0.1942
  155MOL0     H20892   0.882   7.380   5.418  0.1333  0.1256  0.1775
  155MOL0     H20893   0.681   7.255   5.472 -1.1786  0.7964 -2.6702
  155MOL0     H20894   0.741   7.193   5.317  2.9584  0.6142 -0.7246
  155MOL0     H20895   0.820   7.076   5.593 -1.3027  1.8293  0.5087
  155MOL0     H20896   0.844   6.987   5.444 -0.1266  0.1828 -0.7172
  155MOL0     H20897   0.579   7.057   5.595  0.6011  2.6981  1.4486
  155MOL0     H20898   0.583   7.013   5.424  1.2101  1.9453  0.5324
  155MOL0     H20899   0.667   6.845   5.663 -1.4648  3.4705  0.6475
  155MOL0     H20900   0.725   6.804   5.504 -1.6598 -1.4766 -0.9960
  155MOL0     H20901   0.495   6.749   5.428 -2.6666 -1.1802  1.6937
  155MOL0     H20902   0.535   6.671   5.566  2.4888  1.0753  2.0614
  155MOL0     H20903   0.353   6.925   5.548  0.1426  0.3024 -1.7592
  155MOL0     H20904   0.418   6.856   5.699  0.5070 -3.2650  0.9565
  155MOL0     H20905   0.186   6.746   5.651  0.5183  0.2571  1.3491
  155MOL0     H20906   0.320   6.628   5.637 -2.5447 -2.2293 -1.4332
  155MOL0     H20907   1.096   7.413   5.500  2.3905  1.1753 -0.5233
  155MOL0     H20908   1.315   7.452   5.523  0.3389  0.1866  0.2881
  155MOL0     H20909   1.725   7.646   5.405  0.1774  1.4918  1.7457
  155MOL0     H20910   1.961   7.694   5.470 -0.5591  0.1484 -1.9703
  155MOL0     H20911   3.576   7.844   6.522  0.3256  0.3137  0.7610
  155MOL0     H20912   3.784   7.967   6.550 -1.1119  1.7703 -1.1980
  155MOL0     H20913   4.245   7.873   6.338 -4.3571  0.9749  2.0472
  155MOL0     H20914   4.496   7.926   6.313  1.6623  0.9551  0.5260
  155MOL0     H20915   4.672   8.298   6.497 -2.1369 -0.1253  0.9630
  155MOL0     H20916   4.670   8.217   6.646  0.0302 -1.0024  0.0249
  155MOL0     H20917   4.851   8.063   6.579 -0.7782  0.0784  1.6427
  155MOL0     H20918   4.887   8.236   6.618 -1.6031  0.9526  0.8814
  155MOL0     H20919   4.921   8.284   6.368  1.8658 -0.3038 -0.4921
  155MOL0     H20920   4.841   8.120   6.338  2.1566 -3.0758  1.2576
  155MOL0     H20921   5.080   8.113   6.302 -0.7650 -0.3714  0.2428
  155MOL0     H20922   5.020   8.002   6.424 -2.4416 -0.4345  0.0578
  155MOL0     H20923   5.290   8.272   6.607 -0.5199  0.1010 -0.6531
  155MOL0     H20924   4.448   8.197   6.638 -0.5259  1.6402  0.2944
  155MOL0     H20925   4.205   8.196   6.608  0.3407 -0.8584  1.7137
  156MOL0     O20926   3.007   7.242   4.901 -0.8447 -0.1099  1.1053
  156MOL0     C20927   3.081   7.298   4.812 -0.3294  0.5150  0.2210
  156MOL0     O20928   3.062   7.296   4.671  0.0642 -0.0087 -0.5180
  156MOL0     C20929   2.975   7.210   4.613  0.8831  0.0995 -0.5376
  156MOL0     C20930   3.023   7.152   4.497  0.1727  0.5312  0.5376
  156MOL0     C20931   2.935   7.081   4.416  1.4377 -0.1777  0.5860
  156MOL0     C20932   2.802   7.077   4.434  0.1536  0.6250 -0.0222
  156MOL0     O20933   2.725   7.015   4.339 -0.0346  0.7201  0.1604
  156MOL0     C20934   2.707   7.089   4.214 -0.4340  0.1214  0.2588
  156MOL0     C20935   2.634   7.225   4.242 -0.8382 -0.5330 -0.3189
  156MOL0     C20936   2.596   7.299   4.114  0.0899  0.2031  0.5481
  156MOL0     C20937   2.722   7.350   4.038  0.3595 -0.4873  0.4728
  156MOL0     C20938   2.683   7.446   3.922 -0.5849 -0.5339  0.8527
  156MOL0     C20939   2.661   7.377   3.786 -0.4619 -0.7485  0.7526
  156MOL0     C20940   2.635   7.478   3.668 -0.2323 -0.0386  0.3436
  156MOL0     C20941   2.608   7.399   3.547  1.3187  0.1196 -0.0653
  156MOL0     N20942   2.463   7.361   3.542 -0.2602 -0.1238 -0.3181
  156MOL0     C20943   2.359   7.456   3.540  0.3953  0.2028  0.0787
  156MOL0     C20944   2.244   7.381   3.534 -0.4791  1.0732  0.4463
  156MOL0     C20945   2.107   7.433   3.522  0.3884 -0.4678 -0.3934
  156MOL0     C20946   2.038   7.423   3.379 -0.5249 -0.4268  0.2816
  156MOL0     C20947   2.004   7.282   3.340 -0.3219 -1.2247 -0.4719
  156MOL0     C20948   1.908   7.283   3.224 -0.3363  0.1368  0.4928
  156MOL0     O20949   1.797   7.372   3.253  0.1601 -0.4695  0.4666
  156MOL0     C20950   1.670   7.351   3.218  1.0327  0.0340  0.0796
  156MOL0     C20951   1.619   7.247   3.138  0.5609 -0.8838  0.8136
  156MOL0     C20952   1.474   7.226   3.128 -0.7949 -0.1842 -1.1311
  156MOL0     C20953   1.434   7.096   3.053 -0.0849  0.4132  1.1725
  156MOL0     C20954   1.383   7.310   3.198  0.3405 -0.1115  0.3461
  156MOL0     C20955   1.234   7.297   3.209 -1.5739 -0.0540 -1.0719
  156MOL0     O20956   1.173   7.203   3.138 -0.6663 -0.0483 -0.3188
  156MOL0     C20957   1.041   7.200   3.123  0.2513 -0.0740 -0.4500
  156MOL0     C20958   0.972   7.084   3.153 -0.3519  0.4919  0.4227
  156MOL0     C20959   0.828   7.084   3.144 -0.5011 -0.5918 -0.1991
  156MOL0     C20960   0.753   7.192   3.091 -0.3634 -0.1745  0.1856
  156MOL0     O20961   0.616   7.185   3.083  0.4688  0.5179 -0.5407
  156MOL0     C20962   0.548   7.296   3.044  0.1639 -0.4234 -0.1616
  156MOL0     C20963   0.551   7.330   2.886  0.4884 -0.6670 -0.8489
  156MOL0     C20964   0.482   7.223   2.804  0.1753  0.8222  0.4885
  156MOL0     C20965   0.444   7.276   2.662 -0.1091  0.0407 -0.3343
  156MOL0     C20966   0.404   7.156   2.562  0.5349  0.7684  0.9121
  156MOL0     C20967   0.281   7.066   2.613 -0.2786 -1.0388 -0.3381
  156MOL0     C20968   0.269   6.949   2.513 -0.0507  0.8605  0.4849
  156MOL0     C20969   0.138   6.872   2.521 -0.7058 -0.5115  0.3336
  156MOL0    Cl20970   0.138   6.739   2.400 -0.5010 -0.2915 -0.1579
  156MOL0     C20971   0.831   7.311   3.051 -0.9784 -0.0356  0.0994
  156MOL0     C20972   0.969   7.307   3.065  0.5575 -0.2172 -0.4516
  156MOL0     O20973   1.176   7.374   3.284 -0.5105 -0.4986  0.0098
  156MOL0     C20974   1.437   7.418   3.275  1.1125 -0.3035  1.8941
  156MOL0     C20975   1.577   7.427   3.292 -0.4906  0.0525 -0.3575
  156MOL0     N20976   2.277   7.246   3.531 -0.0765 -0.9489  0.2370
  156MOL0     N20977   2.405   7.240   3.535 -0.7582  0.4589  0.7619
  156MOL0     C20978   2.753   7.145   4.537 -0.1439 -0.3558  0.0240
  156MOL0     C20979   2.836   7.210   4.631  0.8239  0.3565  0.5847
  156MOL0     C20980   3.186   7.384   4.872 -0.4444  0.0985 -0.0207
  156MOL0     C20981   3.263   7.458   4.783  0.2995 -0.4703 -0.6652
  156MOL0     C20982   3.340   7.552   4.845 -0.1990 -0.8587 -0.5116
  156MOL0     C20983   3.350   7.566   4.982 -0.7898  0.1066 -0.1458
  156MOL0     O20984   3.432   7.659   5.040 -0.3465  0.5415  0.6501
  156MOL0     C20985   3.567   7.641   4.991  0.0982  0.4333 -0.1663
  156MOL0     C20986   3.658   7.734   5.071  0.9012  0.3278  0.4195
  156MOL0     C20987   3.809   7.745   5.036  0.2512  0.0866  1.2363
  156MOL0     C20988   3.886   7.847   5.119  0.2116 -0.6311  0.4999
  156MOL0     C20989   4.029   7.846   5.098  0.4548  0.4882 -0.1528
  156MOL0     C20990   4.147   7.841   5.072 -0.3724 -0.3720 -0.0368
  156MOL0     C20991   3.272   7.481   5.065  0.2952 -0.2828  0.0509
  156MOL0     C20992   3.194   7.391   5.004  1.0768  0.5525 -0.5939
  156MOL0     H20993   3.128   7.161   4.471  0.2114 -0.2360  0.4036
  156MOL0     H20994   2.991   7.031   4.338 -1.6632  0.3359 -2.2087
  156MOL0     H20995   2.802   7.103   4.161 -0.1581 -0.7037  0.5287
  156MOL0     H20996   2.649   7.025   4.147  4.2539 -1.5074 -2.8096
  156MOL0     H20997   2.545   7.219   4.304  0.3175 -0.2540  1.4474
  156MOL0     H20998   2.706   7.287   4.296  0.4682 -1.6560 -0.6918
  156MOL0     H20999   2.552   7.225   4.045  1.8822  1.4611 -2.1404
  156MOL0     H21000   2.526   7.381   4.130 -1.1911 -1.3935  3.9959
  156MOL0     H21001   2.790   7.396   4.111 -1.0132 -0.3463  1.7199
  156MOL0     H21002   2.783   7.271   3.994  1.4256 -0.2417  1.4603
  156MOL0     H21003   2.599   7.515   3.939 -0.4797 -0.5672  1.5192
  156MOL0     H21004   2.766   7.516   3.908 -0.4232 -1.0254 -0.8461
  156MOL0     H21005   2.751   7.319   3.761 -0.3321  0.6917 -2.7129
  156MOL0     H21006   2.572   7.313   3.792 -1.1762  0.0501 -0.8401
  156MOL0     H21007   2.558   7.553   3.690 -0.5781 -0.9676  2.6379
  156MOL0     H21008   2.727   7.534   3.651 -0.0206  0.6314  3.1812
  156MOL0     H21009   2.671   7.310   3.547 -0.3316 -1.1693 -2.7903
  156MOL0     H21010   2.620   7.463   3.459  1.3756  0.0781 -0.0879
  156MOL0     H21011   2.361   7.564   3.538  0.2360  0.1964 -0.7666
  156MOL0     H21012   2.040   7.391   3.597 -4.9705 -0.8502 -4.7290
  156MOL0     H21013   2.120   7.541   3.536  0.5220 -0.5133 -0.1817
  156MOL0     H21014   2.103   7.474   3.308  0.5000 -0.4799  1.1604
  156MOL0     H21015   1.950   7.488   3.387 -0.7137 -0.4350 -1.3850
  156MOL0     H21016   1.965   7.238   3.433 -2.3262  1.9533  0.3485
  156MOL0     H21017   2.098   7.232   3.319  1.1438 -0.1515  2.7918
  156MOL0     H21018   1.892   7.176   3.208 -2.2205  0.4200  0.1916
  156MOL0     H21019   1.949   7.321   3.130 -0.7318  1.7154  0.9304
  156MOL0     H21020   1.684   7.183   3.080  0.9350  0.6683 -0.5908
  156MOL0     H21021   1.523   7.035   3.034 -0.3454 -0.0933  1.5579
  156MOL0     H21022   1.364   7.024   3.096  0.9241 -2.0061 -0.9526
  156MOL0     H21023   1.391   7.114   2.954  4.4225 -1.1559 -1.3650
  156MOL0     H21024   1.019   6.994   3.191 -2.3894 -1.8839 -2.2337
  156MOL0     H21025   0.769   7.000   3.182 -2.4208  1.5366  1.9190
  156MOL0     H21026   0.448   7.279   3.084 -0.5990  2.9310 -0.3218
  156MOL0     H21027   0.590   7.383   3.095 -1.0688 -0.4046  0.8711
  156MOL0     H21028   0.494   7.422   2.874 -0.5052 -0.7558  2.3069
  156MOL0     H21029   0.655   7.341   2.852  1.0739 -0.2426  0.9727
  156MOL0     H21030   0.397   7.183   2.859  0.3256 -0.7305 -0.3652
  156MOL0     H21031   0.550   7.140   2.782 -2.0711 -0.4795 -2.1198
  156MOL0     H21032   0.352   7.335   2.671  0.1875  0.6209 -1.0282
  156MOL0     H21033   0.526   7.341   2.629 -0.2476  1.0089  1.0982
  156MOL0     H21034   0.493   7.095   2.545  0.9254  1.2853  1.0861
  156MOL0     H21035   0.380   7.206   2.468  2.0415  3.3965  1.8350
  156MOL0     H21036   0.312   7.028   2.711  2.9885  2.6070  0.2975
  156MOL0     H21037   0.184   7.115   2.624  0.9697  2.5949 -3.3054
  156MOL0     H21038   0.350   6.879   2.534 -1.4025 -0.3426  2.0169
  156MOL0     H21039   0.286   6.979   2.409  5.4280 -2.2341  0.0993
  156MOL0     H21040   0.064   6.942   2.482 -0.5261 -0.5678 -0.1151
  156MOL0     H21041   0.121   6.857   2.628  0.1406  0.8083  0.6855
  156MOL0     H21042   0.787   7.390   2.990  0.3298 -0.3369 -1.2993
  156MOL0     H21043   1.032   7.390   3.034  2.9856 -1.8127 -0.0841
  156MOL0     H21044   1.379   7.483   3.339 -1.2749  0.3998 -0.7817
  156MOL0     H21045   1.602   7.497   3.371 -2.6994 -0.4308  0.8679
  156MOL0     H21046   2.646   7.158   4.548  0.2299  3.9057  0.3120
  156MOL0     H21047   2.798   7.272   4.712 -0.2392  0.2068  0.2227
  156MOL0     H21048   3.248   7.446   4.676 -3.4724 -0.3208 -0.3063
  156MOL0     H21049   3.388   7.619   4.775  2.5862  1.0020  2.8148
  156MOL0     H21050   3.615   7.543   4.999  0.4230  0.6871  1.2481
  156MOL0     H21051   3.568   7.674   4.887 -1.4040 -0.3104 -0.4415
  156MOL0     H21052   3.652   7.707   5.177  2.9612  2.1038  1.0606
  156MOL0     H21053   3.618   7.836   5.066 -0.7746 -0.2213  1.8755
  156MOL0     H21054   3.803   7.770   4.930  0.6033 -2.0095  0.6812
  156MOL0     H21055   3.839   7.640   5.045 -3.1407 -1.0363  0.9318
  156MOL0     H21056   3.870   7.831   5.226 -0.2515  2.0805  0.8857
  156MOL0     H21057   3.843   7.947   5.107 -0.9688 -1.0666  0.9320
  156MOL0     H21058   4.249   7.817   5.050 -0.0409  1.1304 -0.2649
  156MOL0     H21059   3.282   7.475   5.173  0.3117 -1.1755  0.0029
  156MOL0     H21060   3.133   7.327   5.067  0.8563  1.6357  0.3448
  157MOL0     O21061   7.135   2.530   5.515  0.4471 -0.1037  0.2181
  157MOL0     C21062   7.232   2.569   5.452  0.3572 -0.0256  0.4247
  157MOL0     O21063   7.254   2.695   5.404 -0.4373  0.2236  0.9149
  157MOL0     C21064   7.194   2.794   5.471 -0.7066 -0.3739 -0.4752
  157MOL0     C21065   7.215   2.808   5.607 -0.5347 -0.4906 -0.1008
  157MOL0     C21066   7.169   2.912   5.685  0.9140 -0.4108 -0.5005
  157MOL0     C21067   7.107   3.021   5.620 -0.1571 -0.1911  0.0431
  157MOL0     O21068   7.075   3.140   5.677  0.8725  0.5556  0.3917
  157MOL0     C21069   7.065   3.147   5.818 -0.7220 -0.4461 -0.3770
  157MOL0     C21070   6.998   3.287   5.843  0.6111  0.3560 -0.7532
  157MOL0     C21071   6.959   3.287   5.989 -0.2600 -0.8513 -0.4274
  157MOL0     C21072   6.889   3.420   6.020  0.0481 -0.7310 -0.5767
  157MOL0     C21073   6.871   3.446   6.164 -0.2468 -0.1536  0.2906
  157MOL0     C21074   6.794   3.327   6.246  0.3140 -0.4933 -0.3076
  157MOL0     C21075   6.765   3.370   6.396  0.1517  1.0020  0.4336
  157MOL0     C21076   6.633   3.454   6.407 -0.7773 -0.3542 -0.1773
  157MOL0     N21077   6.611   3.478   6.550 -0.2070 -0.7404  0.8240
  157MOL0     C21078   6.547   3.391   6.631 -0.3525 -0.4246  0.5989
  157MOL0     C21079   6.552   3.442   6.754 -0.6822  0.8651 -0.9159
  157MOL0     C21080   6.471   3.377   6.866 -0.3688  0.7365 -0.9913
  157MOL0     C21081   6.373   3.472   6.935  0.2121  0.0919  0.7247
  157MOL0     C21082   6.343   3.414   7.065  0.4555  0.5354 -0.1396
  157MOL0     C21083   6.227   3.483   7.125 -0.1561 -0.2367 -0.1054
  157MOL0     O21084   6.195   3.410   7.243 -0.1308 -0.6109 -0.6830
  157MOL0     C21085   6.074   3.436   7.306  0.4243  0.0431  0.2368
  157MOL0     C21086   5.992   3.551   7.265 -0.6200 -0.6466 -0.0131
  157MOL0     C21087   5.871   3.569   7.336 -0.2019 -0.2955  0.0471
  157MOL0     C21088   5.780   3.678   7.285 -0.2019 -0.2677 -0.8638
  157MOL0     C21089   5.833   3.487   7.445  0.5775  0.1071 -0.0309
  157MOL0     C21090   5.717   3.525   7.535  0.2214 -0.0049 -0.8049
  157MOL0     O21091   5.625   3.422   7.566 -0.2933 -0.0646 -0.1564
  157MOL0     C21092   5.503   3.468   7.606 -0.3125 -0.6548  0.3735
  157MOL0     C21093   5.456   3.457   7.731  0.0845  0.0801  0.3932
  157MOL0     C21094   5.318   3.473   7.770 -0.0081 -0.2320 -0.8565
  157MOL0     C21095   5.228   3.530   7.676  1.0867 -0.3240 -0.1699
  157MOL0     O21096   5.105   3.585   7.706 -0.9331  0.6320  0.2668
  157MOL0     C21097   5.100   3.651   7.830 -0.5168  0.6099 -0.7164
  157MOL0     C21098   4.956   3.711   7.851  0.2449 -0.3022 -0.7784
  157MOL0     C21099   4.939   3.839   7.765  0.1936  0.2972  0.2812
  157MOL0     C21100   4.999   3.960   7.838  0.1206 -0.9363  0.1910
  157MOL0     C21101   4.978   4.102   7.777  0.1172 -0.6321 -0.3907
  157MOL0     C21102   5.011   4.213   7.878 -0.3603 -0.4969  0.1962
  157MOL0     C21103   5.015   4.351   7.811  0.1158  0.1054 -0.9263
  157MOL0     C21104   5.070   4.456   7.918  0.4669 -0.4911 -0.4104
  157MOL0    Cl21105   5.076   4.618   7.845 -0.1515 -0.1992 -0.0971
  157MOL0     C21106   5.271   3.549   7.550 -0.9328  0.3754  0.2864
  157MOL0     C21107   5.406   3.513   7.511  0.5900 -0.0750  0.1837
  157MOL0     O21108   5.704   3.643   7.570  0.7888  0.5803 -0.6915
  157MOL0     C21109   5.900   3.362   7.454  0.8301  0.9036 -0.2708
  157MOL0     C21110   6.017   3.341   7.394  0.8713 -0.0420  0.3854
  157MOL0     N21111   6.617   3.568   6.743 -0.6699  0.6967 -0.0777
  157MOL0     N21112   6.660   3.589   6.618 -0.1018 -0.5158  0.5771
  157MOL0     C21113   7.075   3.013   5.484 -0.2740 -0.2750 -0.1172
  157MOL0     C21114   7.133   2.904   5.407  0.6070  0.3689  0.0148
  157MOL0     C21115   7.324   2.466   5.398  0.2932 -0.6540  0.5085
  157MOL0     C21116   7.308   2.327   5.415  0.7645 -0.3562  0.4918
  157MOL0     C21117   7.390   2.228   5.355 -0.1492 -0.0302  0.2076
  157MOL0     C21118   7.494   2.271   5.268  0.7852  0.2943 -0.0714
  157MOL0     O21119   7.573   2.182   5.192 -0.3471 -0.2545 -0.4044
  157MOL0     C21120   7.578   2.043   5.219  0.2372 -0.8826  0.1646
  157MOL0     C21121   7.581   1.980   5.088 -0.1243  0.4223  0.2249
  157MOL0     C21122   7.494   1.857   5.083  0.4899  0.5478 -0.6783
  157MOL0     C21123   7.510   1.788   4.942  0.5442 -1.0435 -0.3055
  157MOL0     C21124   7.469   1.863   4.823  0.2052  0.1924  0.7144
  157MOL0     C21125   7.436   1.932   4.736 -0.0197 -0.4760  0.0735
  157MOL0     C21126   7.508   2.410   5.237  0.1949 -0.1805 -0.3667
  157MOL0     C21127   7.431   2.506   5.305  0.4945 -0.9099 -1.0109
  157MOL0     H21128   7.269   2.732   5.663 -1.1729  0.0474  1.2988
  157MOL0     H21129   7.193   2.918   5.791  0.2275 -1.3583 -0.2734
  157MOL0     H21130   6.997   3.067   5.850 -1.1645  0.9631  2.5259
  157MOL0     H21131   7.160   3.141   5.871 -1.8384  1.1487  1.9433
  157MOL0     H21132   7.070   3.367   5.822  0.0590  0.6431 -1.5630
  157MOL0     H21133   6.907   3.297   5.784 -0.8808  0.0330  1.3917
  157MOL0     H21134   6.886   3.210   6.014  0.3625 -1.0826  0.7526
  157MOL0     H21135   7.045   3.271   6.055  1.5094 -0.7307 -2.6081
  157MOL0     H21136   6.947   3.500   5.974 -1.1865  0.4199 -0.1830
  157MOL0     H21137   6.786   3.433   5.985 -0.3534  1.8114  1.3153
  157MOL0     H21138   6.965   3.485   6.203 -0.5912 -0.4628  1.4707
  157MOL0     H21139   6.809   3.535   6.178 -0.7034  0.0835 -2.5899
  157MOL0     H21140   6.696   3.315   6.199  0.4723  2.1754 -1.4980
  157MOL0     H21141   6.854   3.236   6.244 -1.3741 -1.7787  2.0259
  157MOL0     H21142   6.757   3.285   6.465 -1.7462 -1.4166 -2.4910
  157MOL0     H21143   6.854   3.426   6.426  0.9664  0.4220 -0.7951
  157MOL0     H21144   6.551   3.399   6.360  2.5449 -4.0576 -2.2752
  157MOL0     H21145   6.636   3.548   6.351 -1.1598 -0.5761 -0.5820
  157MOL0     H21146   6.481   3.313   6.593 -1.3657 -0.6028  2.5999
  157MOL0     H21147   6.423   3.284   6.837  0.0724  0.5300 -1.0718
  157MOL0     H21148   6.550   3.356   6.939 -0.8390  1.8934 -0.1166
  157MOL0     H21149   6.285   3.495   6.874  0.4282  3.8939  1.5910
  157MOL0     H21150   6.420   3.569   6.956 -0.7108  0.4076  1.3824
  157MOL0     H21151   6.427   3.434   7.132  2.0206 -1.0970 -1.5243
  157MOL0     H21152   6.316   3.308   7.073 -1.5435  0.9726 -0.4520
  157MOL0     H21153   6.145   3.490   7.053 -1.8858  1.1914  1.8775
  157MOL0     H21154   6.260   3.584   7.153  0.4683 -0.2424 -0.7913
  157MOL0     H21155   6.017   3.627   7.192 -0.3831 -1.0826 -0.3914
  157MOL0     H21156   5.747   3.745   7.366 -1.5860  0.6779 -2.1622
  157MOL0     H21157   5.818   3.738   7.202 -1.4698 -2.7449 -3.4250
  157MOL0     H21158   5.688   3.634   7.245 -0.7690 -2.7919  2.6580
  157MOL0     H21159   5.519   3.426   7.814 -0.8671  0.1708  1.1686
  157MOL0     H21160   5.280   3.452   7.869 -2.2314  0.4958 -1.5000
  157MOL0     H21161   5.109   3.571   7.904 -1.5435  2.1849  1.2239
  157MOL0     H21162   5.178   3.727   7.845 -1.0876  0.9638  0.6806
  157MOL0     H21163   4.884   3.639   7.811  3.2262 -1.6291 -4.3548
  157MOL0     H21164   4.940   3.723   7.958  1.7738  1.6241 -0.7040
  157MOL0     H21165   4.832   3.859   7.755 -0.0296  0.5563  2.5186
  157MOL0     H21166   4.977   3.832   7.663 -3.0498  4.3692 -1.5218
  157MOL0     H21167   4.946   3.957   7.933  3.2247  0.3668  2.1153
  157MOL0     H21168   5.105   3.935   7.855 -0.6115 -3.1008  2.1982
  157MOL0     H21169   4.875   4.132   7.758  0.7443  2.2222  0.2188
  157MOL0     H21170   5.033   4.109   7.683 -2.5175 -0.5143 -2.0292
  157MOL0     H21171   4.946   4.204   7.966  0.1168 -0.8908  0.5161
  157MOL0     H21172   5.113   4.197   7.916  0.9642  3.2222 -1.3045
  157MOL0     H21173   4.922   4.391   7.769 -0.6831  1.2396  1.7351
  157MOL0     H21174   5.088   4.341   7.730  1.3466 -1.7996  0.3248
  157MOL0     H21175   5.171   4.428   7.946  0.7857  0.9599 -0.0160
  157MOL0     H21176   5.016   4.460   8.013 -0.2771 -0.1387 -0.8362
  157MOL0     H21177   5.208   3.583   7.469 -0.4254  3.6624  1.1155
  157MOL0     H21178   5.452   3.513   7.413 -0.3992  0.9259 -0.3057
  157MOL0     H21179   5.867   3.294   7.532 -1.1128  0.4478 -1.4181
  157MOL0     H21180   6.072   3.248   7.406  2.4901  0.6929 -0.8441
  157MOL0     H21181   7.044   3.109   5.443  2.4706  0.4093 -0.7872
  157MOL0     H21182   7.123   2.916   5.300  2.9058  1.0467 -0.1835
  157MOL0     H21183   7.217   2.295   5.464 -0.9939  2.0188 -1.0218
  157MOL0     H21184   7.369   2.125   5.380  1.2173 -0.0746  1.3321
  157MOL0     H21185   7.671   2.010   5.266  1.0703 -2.8505 -2.5684
  157MOL0     H21186   7.483   2.005   5.260 -1.1511  0.7894 -1.3307
  157MOL0     H21187   7.684   1.951   5.068  0.4398 -0.5005  3.8527
  157MOL0     H21188   7.545   2.039   5.003 -0.3821 -0.7016 -0.4815
  157MOL0     H21189   7.391   1.891   5.093  1.1223  2.3402  0.2761
  157MOL0     H21190   7.517   1.784   5.161 -2.0060 -2.3931 -2.4871
  157MOL0     H21191   7.449   1.698   4.946  1.6498 -1.7685  0.6646
  157MOL0     H21192   7.612   1.751   4.930  1.0682  0.8938 -2.5446
  157MOL0     H21193   7.381   1.996   4.671  0.7231  0.2470  0.1335
  157MOL0     H21194   7.579   2.449   5.165  0.9281  0.1977  0.5478
  157MOL0     H21195   7.444   2.612   5.283  0.4344 -0.7960 -0.5073
  158MOL0     O21196   8.815  10.246   7.750  0.3497 -0.0340 -0.0081
  158MOL0     C21197   8.826  10.135   7.698  0.1494 -0.5957  0.0950
  158MOL0     O21198   8.749  10.089   7.600 -0.1795  0.8676 -0.0252
  158MOL0     C21199   8.618  10.122   7.594 -0.0455 -0.5999  0.4927
  158MOL0     C21200   8.556  10.115   7.470 -0.7960  0.5059 -0.7977
  158MOL0     C21201   8.418  10.146   7.460  0.7877  1.1835  0.3669
  158MOL0     C21202   8.350  10.201   7.569  0.2090  0.7663  0.0702
  158MOL0     O21203   8.219  10.237   7.560 -0.5630  0.2429 -0.0743
  158MOL0     C21204   8.199  10.375   7.529  0.4317  0.6966 -0.3090
  158MOL0     C21205   8.129  10.408   7.397  0.3983 -0.4256  0.0490
  158MOL0     C21206   7.991  10.353   7.409 -0.3652  0.2385  0.3906
  158MOL0     C21207   7.911  10.367   7.279 -0.1626 -0.4325 -0.4717
  158MOL0     C21208   7.784  10.280   7.275 -0.0316  0.1212  1.2727
  158MOL0     C21209   7.663  10.329   7.348 -0.4057  0.7808  1.1398
  158MOL0     C21210   7.594  10.451   7.280 -0.5318 -1.0592 -0.9126
  158MOL0     C21211   7.541  10.415   7.134 -0.7911  0.6826 -0.6306
  158MOL0     N21212   7.476  10.529   7.083  0.5650  0.0888  0.2575
  158MOL0     C21213   7.346  10.572   7.122 -0.8118 -0.4491  0.2257
  158MOL0     C21214   7.344  10.685   7.057 -0.2288  0.2834 -0.6212
  158MOL0     C21215   7.230  10.786   7.060 -0.8736  0.6781  0.7848
  158MOL0     C21216   7.097  10.741   7.007 -0.0360 -0.1317 -0.1159
  158MOL0     C21217   7.100  10.758   6.853  0.5921  0.4681  0.4669
  158MOL0     C21218   6.962  10.726   6.787 -0.6675  0.7380 -0.0848
  158MOL0     O21219   6.862  10.780   6.874 -0.1232 -0.0085  1.1053
  158MOL0     C21220   6.731  10.747   6.857 -0.1124  0.6031  0.7965
  158MOL0     C21221   6.653  10.801   6.957 -0.0887 -0.1134  0.4584
  158MOL0     C21222   6.515  10.757   6.971 -0.1403  0.5464 -0.2513
  158MOL0     C21223   6.431  10.809   7.088 -0.5297 -0.2786 -0.5920
  158MOL0     C21224   6.465  10.669   6.869  0.5274 -0.3744  0.0292
  158MOL0     C21225   6.328  10.621   6.880 -0.0851 -0.9794 -0.2443
  158MOL0     O21226   6.240  10.726   6.886  0.4171 -0.7905  0.4098
  158MOL0     C21227   6.112  10.700   6.919 -0.3448  0.0144  0.2889
  158MOL0     C21228   6.022  10.703   6.816  0.4225  0.7458 -0.5549
  158MOL0     C21229   5.885  10.677   6.855  0.7916 -0.2756  0.2622
  158MOL0     C21230   5.845  10.627   6.981  0.7276  0.6273 -0.3732
  158MOL0     O21231   5.722  10.566   6.993  0.4148 -0.1918 -0.3302
  158MOL0     C21232   5.611  10.658   6.998 -1.1941  0.0861 -0.9035
  158MOL0     C21233   5.488  10.574   6.985 -0.5699 -0.6140  0.5482
  158MOL0     C21234   5.369  10.652   7.054  0.0835  0.5530 -0.4733
  158MOL0     C21235   5.238  10.569   7.049  0.4197  0.5987  0.0299
  158MOL0     C21236   5.135  10.629   7.144  0.8979  0.5570 -0.0552
  158MOL0     C21237   5.002  10.554   7.121  0.1780 -0.3438  0.6093
  158MOL0     C21238   4.868  10.632   7.160 -0.3556 -0.0893  0.1907
  158MOL0     C21239   4.749  10.578   7.088 -0.3593 -0.1606 -0.1096
  158MOL0    Cl21240   4.597  10.644   7.132  0.3555  0.1298 -0.0529
  158MOL0     C21241   5.946  10.635   7.081 -0.3856  0.0091 -0.0054
  158MOL0     C21242   6.070  10.680   7.053  0.6322 -0.3952  0.3824
  158MOL0     O21243   6.305  10.502   6.895  0.2482  0.7374 -0.4144
  158MOL0     C21244   6.540  10.630   6.762 -1.6722 -0.2040 -0.2941
  158MOL0     C21245   6.679  10.660   6.760 -0.3635 -0.3046 -0.5224
  158MOL0     N21246   7.467  10.721   6.993  0.5611  0.5013 -0.9110
  158MOL0     N21247   7.546  10.625   7.017  0.2454 -0.0106  0.1387
  158MOL0     C21248   8.414  10.208   7.692 -0.2813  0.0270 -0.3000
  158MOL0     C21249   8.544  10.173   7.704 -0.2491 -0.7625 -0.0353
  158MOL0     C21250   8.920  10.039   7.760 -0.3852  0.4998 -0.2687
  158MOL0     C21251   8.989  10.062   7.878 -0.6634 -0.5125 -0.9589
  158MOL0     C21252   9.073   9.966   7.938  0.5855 -0.4145  0.0596
  158MOL0     C21253   9.080   9.840   7.878 -0.2918  0.6682 -1.0237
  158MOL0     O21254   9.143   9.738   7.945 -0.1714 -0.2585  0.2115
  158MOL0     C21255   9.286   9.717   7.921 -0.3023  0.2982  0.5194
  158MOL0     C21256   9.380   9.834   7.965  0.1218 -0.7887  1.6504
  158MOL0     C21257   9.378   9.857   8.118  0.4059 -0.7898  0.5724
  158MOL0     C21258   9.430   9.745   8.203  0.3254  1.0437 -0.6301
  158MOL0     C21259   9.565   9.758   8.254 -0.4848  0.3037 -0.2885
  158MOL0     C21260   9.684   9.768   8.290  0.2024  0.5135  0.3128
  158MOL0     C21261   9.022   9.821   7.751  0.3370 -0.7301 -0.3826
  158MOL0     C21262   8.937   9.914   7.695  0.1099 -0.5421 -1.2696
  158MOL0     H21263   8.611  10.090   7.379  1.6155  1.4218  0.3060
  158MOL0     H21264   8.368  10.155   7.364 -0.2612 -0.9156  0.6479
  158MOL0     H21265   8.148  10.435   7.605 -0.2748  2.0643 -1.7934
  158MOL0     H21266   8.294  10.424   7.506  0.0808  2.7515  2.1600
  158MOL0     H21267   8.122  10.514   7.374  2.1004 -0.3162 -0.1135
  158MOL0     H21268   8.181  10.351   7.320  1.1055 -0.6688  0.6906
  158MOL0     H21269   7.992  10.252   7.450  2.6611 -1.2178 -2.7136
  158MOL0     H21270   7.942  10.428   7.472  1.0144  0.8602  0.7648
  158MOL0     H21271   7.895  10.474   7.261  0.1700 -0.5013 -1.2438
  158MOL0     H21272   7.975  10.338   7.195  1.1616 -1.0007  0.7031
  158MOL0     H21273   7.752  10.252   7.175  0.6381 -0.4425  1.2137
  158MOL0     H21274   7.806  10.187   7.328  0.5286 -0.0690  0.7127
  158MOL0     H21275   7.577  10.261   7.356 -1.0198  0.9302 -2.5510
  158MOL0     H21276   7.703  10.363   7.444  1.0963  2.8516 -0.1310
  158MOL0     H21277   7.511  10.494   7.337  2.9634  2.9900  1.7455
  158MOL0     H21278   7.661  10.536   7.263  0.9899 -1.9149  0.5318
  158MOL0     H21279   7.480  10.324   7.137  0.4900 -0.1749  0.5334
  158MOL0     H21280   7.631  10.398   7.075  1.1453  1.7088  1.8308
  158MOL0     H21281   7.268  10.532   7.186  1.0260 -4.9574  0.0431
  158MOL0     H21282   7.215  10.813   7.165 -1.9423 -1.3995  1.2200
  158MOL0     H21283   7.270  10.874   7.010  0.7840 -1.2490 -1.5264
  158MOL0     H21284   7.031  10.819   7.048  2.0353  1.3286  0.6116
  158MOL0     H21285   7.061  10.641   7.033 -0.7723 -0.5721 -2.5902
  158MOL0     H21286   7.175  10.686   6.820 -0.9613 -1.1071  0.1882
  158MOL0     H21287   7.111  10.861   6.818 -0.3081 -0.0389 -1.4038
  158MOL0     H21288   6.954  10.617   6.782  1.0617  0.5464  0.5125
  158MOL0     H21289   6.954  10.772   6.689 -1.9476  0.8361  0.0517
  158MOL0     H21290   6.691  10.871   7.030 -1.6308  3.3682 -1.7670
  158MOL0     H21291   6.361  10.739   7.133 -2.5901  0.9517 -1.7290
  158MOL0     H21292   6.508  10.841   7.159 -1.1906  0.1231 -0.0516
  158MOL0     H21293   6.376  10.895   7.049 -2.9267 -1.0579  0.8799
  158MOL0     H21294   6.054  10.712   6.712  0.3573  0.3938 -0.6091
  158MOL0     H21295   5.812  10.668   6.775 -2.2891  0.6598  2.7518
  158MOL0     H21296   5.610  10.712   7.093 -1.3168 -0.3956 -0.6308
  158MOL0     H21297   5.611  10.733   6.918  0.5012 -0.3306 -1.3253
  158MOL0     H21298   5.477  10.559   6.877  1.9587 -2.6075  0.4595
  158MOL0     H21299   5.488  10.472   7.025  0.2182 -1.6971 -1.9811
  158MOL0     H21300   5.357  10.744   6.996 -1.7577  0.4730 -0.2920
  158MOL0     H21301   5.396  10.666   7.159  0.8815 -1.1607 -0.4136
  158MOL0     H21302   5.208  10.569   6.944  2.7119  1.0966 -0.7012
  158MOL0     H21303   5.244  10.467   7.087 -2.9135  0.8408  1.4975
  158MOL0     H21304   5.117  10.735   7.123  1.9160  0.9344  0.8653
  158MOL0     H21305   5.153  10.616   7.251  0.0906  0.9108  0.1263
  158MOL0     H21306   4.989  10.533   7.015 -0.7345 -1.6241  0.9649
  158MOL0     H21307   5.004  10.460   7.176  2.5391  0.1783  1.5388
  158MOL0     H21308   4.875  10.737   7.128 -1.0040 -0.0553  0.1567
  158MOL0     H21309   4.856  10.632   7.268 -0.4875 -2.5823  0.2240
  158MOL0     H21310   4.741  10.470   7.103 -1.2574 -0.1206 -0.2794
  158MOL0     H21311   4.768  10.606   6.984 -0.9135  0.9755  0.0815
  158MOL0     H21312   5.924  10.599   7.182  1.6536  2.4912  1.4362
  158MOL0     H21313   6.155  10.678   7.121  0.9560  0.0898 -0.0056
  158MOL0     H21314   6.488  10.581   6.681 -4.3887  1.1901  0.4837
  158MOL0     H21315   6.741  10.621   6.679 -0.0605 -1.5361  0.2740
  158MOL0     H21316   8.357  10.244   7.777  1.7693  0.1769  1.0728
  158MOL0     H21317   8.578  10.165   7.806 -1.4337 -4.0243  0.2154
  158MOL0     H21318   8.958  10.146   7.939 -1.1488 -1.3450 -0.0370
  158MOL0     H21319   9.122   9.979   8.034 -0.0102 -2.4810  0.6927
  158MOL0     H21320   9.309   9.621   7.968 -1.3808 -1.8877 -3.0328
  158MOL0     H21321   9.314   9.697   7.817  4.1985  0.9051  1.3829
  158MOL0     H21322   9.337   9.922   7.916  0.5472 -1.7175 -0.4781
  158MOL0     H21323   9.485   9.820   7.941  0.5403  2.5952  0.9862
  158MOL0     H21324   9.276   9.882   8.146 -1.5062  0.7427 -6.0752
  158MOL0     H21325   9.443   9.942   8.143  2.0929 -1.7010 -0.5207
  158MOL0     H21326   9.429   9.653   8.144  0.4487  0.4799  0.2413
  158MOL0     H21327   9.368   9.735   8.292  0.3356 -0.1596 -0.7389
  158MOL0     H21328   9.790   9.771   8.308 -0.2407 -0.1143  3.7360
  158MOL0     H21329   9.026   9.731   7.691 -0.9109 -0.5640 -0.7353
  158MOL0     H21330   8.885   9.884   7.605 -2.1540 -0.9677  0.0712
  159MOL0     O21331  10.232   5.455   7.277  0.2395 -0.3006 -0.3425
  159MOL0     C21332  10.319   5.492   7.197  0.7531 -0.2820 -0.6589
  159MOL0     O21333  10.297   5.579   7.094  0.1222  0.1759 -0.5286
  159MOL0     C21334  10.170   5.629   7.075  0.2275 -0.3217 -0.2263
  159MOL0     C21335  10.086   5.689   7.168  0.3675  0.0497  0.4698
  159MOL0     C21336   9.969   5.747   7.128  0.1098 -0.6732 -0.2799
  159MOL0     C21337   9.912   5.734   6.998 -0.0619 -0.2268 -0.5823
  159MOL0     O21338   9.788   5.771   6.953 -0.3210 -0.7240 -0.4216
  159MOL0     C21339   9.694   5.812   7.056  0.8415 -0.0300  0.3542
  159MOL0     C21340   9.614   5.691   7.098  0.7632 -0.1343 -1.0759
  159MOL0     C21341   9.478   5.714   7.173  0.9442 -0.3427  0.4361
  159MOL0     C21342   9.358   5.699   7.077  0.2877 -0.0511 -0.1997
  159MOL0     C21343   9.227   5.703   7.164  0.5667  0.7432  1.2260
  159MOL0     C21344   9.096   5.704   7.079 -1.0317 -0.6321 -0.1086
  159MOL0     C21345   8.976   5.695   7.170 -0.0812 -0.0918  0.5965
  159MOL0     C21346   8.950   5.559   7.227  0.5808 -0.8896 -0.0201
  159MOL0     N21347   8.831   5.559   7.310  0.8082 -0.6693  0.7601
  159MOL0     C21348   8.730   5.466   7.303 -0.0362  1.0756  0.1878
  159MOL0     C21349   8.655   5.490   7.417 -0.5340  0.3024  0.2850
  159MOL0     C21350   8.552   5.407   7.483 -0.3977 -0.0666  0.5536
  159MOL0     C21351   8.436   5.400   7.390 -0.1675  0.0739 -0.7344
  159MOL0     C21352   8.343   5.525   7.388  0.1169  0.4201  0.5657
  159MOL0     C21353   8.210   5.477   7.336  0.2572 -0.0296  1.4556
  159MOL0     O21354   8.221   5.421   7.198 -0.1150  0.1212  0.0433
  159MOL0     C21355   8.120   5.419   7.103 -0.5723 -0.5869  0.6285
  159MOL0     C21356   8.156   5.391   6.973 -0.3468  0.6695  0.4804
  159MOL0     C21357   8.068   5.374   6.866 -0.5749 -0.1778 -0.0184
  159MOL0     C21358   8.122   5.345   6.725  0.1437 -0.9615 -1.0024
  159MOL0     C21359   7.934   5.393   6.893 -0.0126 -0.5708 -0.7716
  159MOL0     C21360   7.822   5.379   6.801  0.3124  0.0284 -0.0396
  159MOL0     O21361   7.713   5.449   6.824 -0.1543  0.2499  0.2208
  159MOL0     C21362   7.609   5.447   6.729 -0.6181  0.8943 -0.1464
  159MOL0     C21363   7.481   5.447   6.783  0.1325 -0.4423  0.5603
  159MOL0     C21364   7.372   5.472   6.696  0.2849  0.0133 -1.1293
  159MOL0     C21365   7.393   5.522   6.560  0.4603  0.3245 -0.4916
  159MOL0     O21366   7.297   5.559   6.471  0.7989 -0.2400  0.6407
  159MOL0     C21367   7.158   5.576   6.499 -0.1465  0.8004  1.0025
  159MOL0     C21368   7.137   5.715   6.567 -0.8169  0.1757  0.6231
  159MOL0     C21369   6.990   5.745   6.592  0.4234  0.0439  0.3802
  159MOL0     C21370   6.970   5.885   6.652 -0.0782  0.5158 -0.2810
  159MOL0     C21371   6.819   5.916   6.666 -1.1247  0.0402 -0.3695
  159MOL0     C21372   6.792   6.056   6.712 -0.7877 -0.6874  0.3386
  159MOL0     C21373   6.643   6.095   6.746  0.6782 -0.8840 -0.0150
  159MOL0     C21374   6.635   6.232   6.820  0.4233  1.0286  0.0048
  159MOL0    Cl21375   6.469   6.269   6.853  0.3459 -0.0265  0.1816
  159MOL0     C21376   7.522   5.515   6.510  0.0389 -0.5909  0.7123
  159MOL0     C21377   7.632   5.476   6.590  1.6983  0.2074  0.1230
  159MOL0     O21378   7.836   5.292   6.711  0.2852  0.5885 -0.1245
  159MOL0     C21379   7.902   5.430   7.031 -0.5466 -0.6236 -0.1937
  159MOL0     C21380   7.998   5.442   7.140 -0.1788 -0.0796 -0.4130
  159MOL0     N21381   8.709   5.597   7.480  0.7327 -1.1297 -0.0372
  159MOL0     N21382   8.815   5.641   7.419  1.1495 -0.0648 -0.7756
  159MOL0     C21383   9.997   5.670   6.906 -1.2606  0.3646  0.0698
  159MOL0     C21384  10.122   5.621   6.946  0.6849  0.3399  0.3961
  159MOL0     C21385  10.457   5.458   7.228 -0.1315  0.8126  0.7533
  159MOL0     C21386  10.563   5.491   7.140  0.6573  0.3924  0.3361
  159MOL0     C21387  10.700   5.467   7.165  0.7911 -0.7574  0.2273
  159MOL0     C21388  10.733   5.393   7.281  0.9947  0.3967  0.1720
  159MOL0     O21389  10.866   5.386   7.324  0.0955  0.0733  0.0746
  159MOL0     C21390  10.971   5.418   7.234  0.2534  0.2577  0.2823
  159MOL0     C21391  11.095   5.344   7.277  0.2575 -0.4364  0.5973
  159MOL0     C21392  11.081   5.201   7.322  0.1207 -0.1236  0.5776
  159MOL0     C21393  11.202   5.137   7.392  0.1965 -0.7475  0.1195
  159MOL0     C21394  11.216   5.188   7.523  0.8523  0.4908 -1.8382
  159MOL0     C21395  11.238   5.241   7.635  0.0683 -0.9470 -0.0814
  159MOL0     C21396  10.632   5.351   7.370 -0.8520  0.3456  0.4219
  159MOL0     C21397  10.496   5.385   7.341 -0.2028 -0.4231 -0.6911
  159MOL0     H21398  10.116   5.682   7.272  0.1744 -1.4697  0.4386
  159MOL0     H21399   9.924   5.792   7.217  2.8744 -3.4642  2.8005
  159MOL0     H21400   9.743   5.853   7.145  2.0620  0.0387 -0.3349
  159MOL0     H21401   9.621   5.889   7.030  1.1986  0.3420  0.4465
  159MOL0     H21402   9.601   5.637   7.004  2.0334  1.5365 -2.2611
  159MOL0     H21403   9.681   5.631   7.160 -3.4440 -0.7648  3.5624
  159MOL0     H21404   9.471   5.644   7.257 -1.6745  1.9653  2.3194
  159MOL0     H21405   9.478   5.818   7.206  1.5284  1.3755 -4.2874
  159MOL0     H21406   9.346   5.785   7.010  1.1350 -0.5695 -1.0403
  159MOL0     H21407   9.353   5.605   7.022  0.2054 -2.2097  3.2009
  159MOL0     H21408   9.223   5.626   7.241 -2.9681  0.3874  0.8598
  159MOL0     H21409   9.236   5.797   7.218  1.1616  1.3627  0.0956
  159MOL0     H21410   9.104   5.795   7.019  1.1646 -0.5124  0.2997
  159MOL0     H21411   9.102   5.627   7.001  0.9431 -0.3981 -0.2246
  159MOL0     H21412   8.992   5.771   7.247 -0.4448  1.4439 -0.8017
  159MOL0     H21413   8.892   5.726   7.108 -0.5318 -1.4846  0.4690
  159MOL0     H21414   9.030   5.551   7.301 -0.0889  4.2219  1.7078
  159MOL0     H21415   8.936   5.480   7.153 -1.5020 -0.2740 -0.3559
  159MOL0     H21416   8.717   5.382   7.236  0.5189  1.5841 -0.5878
  159MOL0     H21417   8.596   5.310   7.505  0.5702  0.4824  1.1081
  159MOL0     H21418   8.512   5.449   7.576 -1.5612  2.2790 -0.8863
  159MOL0     H21419   8.374   5.321   7.433 -0.7234  0.8214 -0.1570
  159MOL0     H21420   8.459   5.357   7.291  1.5908 -2.2824  0.5812
  159MOL0     H21421   8.387   5.596   7.317 -2.1003 -0.1246 -1.5088
  159MOL0     H21422   8.333   5.575   7.485  0.7199  1.5672  0.0608
  159MOL0     H21423   8.150   5.569   7.325  2.5147  1.2722 -1.4626
  159MOL0     H21424   8.161   5.411   7.407  0.0732 -0.5851  0.8255
  159MOL0     H21425   8.263   5.377   6.961 -0.4682 -2.1019  1.8957
  159MOL0     H21426   8.134   5.237   6.710  0.4530 -0.6135 -3.7447
  159MOL0     H21427   8.059   5.386   6.646  3.2152  3.9165 -1.3582
  159MOL0     H21428   8.223   5.387   6.718  0.4079 -0.9235  1.8413
  159MOL0     H21429   7.474   5.431   6.890  1.7842  2.2631  1.1834
  159MOL0     H21430   7.268   5.473   6.725 -0.2335 -0.1972 -2.8960
  159MOL0     H21431   7.101   5.568   6.406  3.1843  1.0584 -1.2112
  159MOL0     H21432   7.127   5.490   6.560  1.8827 -0.8113 -0.1301
  159MOL0     H21433   7.198   5.723   6.658  1.9214  2.7945 -1.2865
  159MOL0     H21434   7.192   5.781   6.501  1.2359 -0.6383  1.4322
  159MOL0     H21435   6.947   5.682   6.671 -1.3420  1.7725  0.8987
  159MOL0     H21436   6.929   5.734   6.502  1.9690 -0.4798 -0.6413
  159MOL0     H21437   7.019   5.892   6.749 -0.8590  3.2350  0.0047
  159MOL0     H21438   7.019   5.969   6.601 -1.4156  1.5689  0.0968
  159MOL0     H21439   6.775   5.853   6.744 -1.5151  0.7295 -0.0293
  159MOL0     H21440   6.750   5.896   6.583 -3.5686 -0.2275  1.5950
  159MOL0     H21441   6.846   6.063   6.806 -1.0323  0.3310  0.4231
  159MOL0     H21442   6.839   6.122   6.638 -0.6095 -0.6871  0.4531
  159MOL0     H21443   6.592   6.011   6.793 -0.5451  0.1551  0.5861
  159MOL0     H21444   6.585   6.105   6.654 -1.4370 -4.0015  0.8373
  159MOL0     H21445   6.673   6.308   6.751 -0.7845  4.0447  2.4484
  159MOL0     H21446   6.694   6.230   6.912  0.2859  0.7753  0.0891
  159MOL0     H21447   7.537   5.532   6.404  0.1188  2.8144  1.1584
  159MOL0     H21448   7.728   5.459   6.542  1.1138  2.0232 -1.8115
  159MOL0     H21449   7.799   5.450   7.058 -0.6489 -0.9254 -0.3615
  159MOL0     H21450   7.966   5.463   7.241 -1.9689  1.5087 -1.2422
  159MOL0     H21451   9.962   5.656   6.805  1.2227  0.7326 -0.9185
  159MOL0     H21452  10.192   5.582   6.873 -1.0234 -3.6615  0.6640
  159MOL0     H21453  10.538   5.530   7.042  2.6839 -0.3738 -0.5383
  159MOL0     H21454  10.786   5.513   7.118  1.4157 -1.4262  0.7004
  159MOL0     H21455  10.945   5.379   7.135 -2.1473  0.8670  0.6001
  159MOL0     H21456  10.981   5.526   7.231  0.0154  0.3549  2.0924
  159MOL0     H21457  11.136   5.406   7.358  0.8672  0.0665 -0.0814
  159MOL0     H21458  11.170   5.344   7.198  2.8671 -3.5404  2.7956
  159MOL0     H21459  11.064   5.148   7.228 -0.0486 -0.2856  0.7010
  159MOL0     H21460  10.996   5.193   7.389 -0.5776 -1.5827 -0.4440
  159MOL0     H21461  11.290   5.175   7.339  1.6106  0.0603  2.8828
  159MOL0     H21462  11.190   5.028   7.390 -0.9140 -0.8958  4.6426
  159MOL0     H21463  11.245   5.308   7.719 -0.3241 -0.3023 -0.5508
  159MOL0     H21464  10.659   5.291   7.456 -0.5638 -1.6982 -1.0292
  159MOL0     H21465  10.412   5.348   7.399 -2.6798  2.5373 -2.0875
  160MOL0     O21466  10.189   6.966  10.028 -0.0566  0.6111 -0.4983
  160MOL0     C21467  10.199   6.993  10.145 -0.5988 -1.4485  0.3286
  160MOL0     O21468  10.084   7.020  10.224 -0.1818  0.2244 -0.1593
  160MOL0     C21469   9.963   7.008  10.151  0.1963 -0.1100 -1.2603
  160MOL0     C21470   9.883   7.117  10.122  0.2805  0.1330 -0.7401
  160MOL0     C21471   9.743   7.098  10.075 -0.9520  0.2235  0.0227
  160MOL0     C21472   9.702   6.975  10.057  0.7715 -0.4504  0.0499
  160MOL0     O21473   9.568   6.962  10.012  0.4001 -0.4032  0.2071
  160MOL0     C21474   9.488   6.856  10.047  0.3976  0.3497 -0.0675
  160MOL0     C21475   9.338   6.888  10.010 -0.2992 -0.4448 -0.6265
  160MOL0     C21476   9.322   6.934   9.863  0.4583 -0.1071 -0.3995
  160MOL0     C21477   9.352   6.803   9.775 -0.4542 -0.4067 -0.1581
  160MOL0     C21478   9.322   6.828   9.626 -0.6762  0.5093 -0.9260
  160MOL0     C21479   9.341   6.702   9.542 -0.4513 -0.4383 -0.0326
  160MOL0     C21480   9.410   6.728   9.412 -0.2737  1.1010 -0.8955
  160MOL0     C21481   9.362   6.633   9.316 -0.7264 -0.4487  0.0259
  160MOL0     N21482   9.368   6.487   9.346 -0.1268 -0.5041 -0.1824
  160MOL0     C21483   9.474   6.400   9.357 -0.5426 -0.2557 -0.0432
  160MOL0     C21484   9.427   6.275   9.386  0.3283 -0.1825  0.4235
  160MOL0     C21485   9.509   6.153   9.405  0.0324  0.1398  0.2557
  160MOL0     C21486   9.633   6.179   9.489 -1.5393 -0.4735 -0.5023
  160MOL0     C21487   9.698   6.054   9.546 -0.1309  0.3621 -0.6544
  160MOL0     C21488   9.815   6.097   9.637 -0.1400  0.5169 -0.4985
  160MOL0     O21489   9.762   6.147   9.762 -0.5231  0.1805 -0.4278
  160MOL0     C21490   9.851   6.211   9.853 -0.1094 -0.1220  0.2767
  160MOL0     C21491   9.793   6.280   9.965  0.1164 -1.6791  0.3154
  160MOL0     C21492   9.882   6.350  10.057  0.3185  0.2724 -0.2027
  160MOL0     C21493   9.812   6.392  10.182 -0.4960  0.5324 -0.4202
  160MOL0     C21494  10.018   6.367  10.019 -1.0643  0.4848  0.3486
  160MOL0     C21495  10.113   6.454  10.099 -0.7422 -0.7619  0.4627
  160MOL0     O21496  10.246   6.430  10.093  0.1731 -0.4925 -0.2927
  160MOL0     C21497  10.332   6.476  10.191  0.1641  0.0102 -0.1663
  160MOL0     C21498  10.388   6.604  10.191 -0.5846 -0.7865 -0.2457
  160MOL0     C21499  10.484   6.633  10.293 -0.0400  0.2475 -0.5221
  160MOL0     C21500  10.516   6.539  10.394 -0.9847 -0.0026  0.0893
  160MOL0     O21501  10.584   6.583  10.500 -0.1247 -0.1342  0.1105
  160MOL0     C21502  10.629   6.489  10.598  0.5238  0.2178 -0.5011
  160MOL0     C21503  10.688   6.580  10.704 -0.8514  0.4195  0.1898
  160MOL0     C21504  10.793   6.678  10.658  0.7774  0.3823  0.1006
  160MOL0     C21505  10.898   6.684  10.767  0.0010 -0.0096  0.3240
  160MOL0     C21506  11.003   6.781  10.717  0.6648 -0.1322 -0.7512
  160MOL0     C21507  11.148   6.773  10.775  0.5263  0.5930  0.0526
  160MOL0     C21508  11.232   6.901  10.744 -0.1394  0.1365 -0.2906
  160MOL0     C21509  11.240   6.936  10.599  0.0761 -0.2873 -0.6856
  160MOL0    Cl21510  11.335   6.814  10.509 -0.2410  0.1436  0.1056
  160MOL0     C21511  10.462   6.411  10.388 -0.0113  0.2382  0.0729
  160MOL0     C21512  10.367   6.380  10.283 -0.5236  1.0766 -0.7057
  160MOL0     O21513  10.062   6.548  10.160 -0.0523  0.7741  0.7592
  160MOL0     C21514  10.068   6.306   9.903  0.1264  0.3287  1.1298
  160MOL0     C21515   9.987   6.218   9.822 -0.7938 -0.1488 -0.2763
  160MOL0     N21516   9.293   6.284   9.388  0.5272 -0.2175 -0.8941
  160MOL0     N21517   9.256   6.407   9.361 -0.1112  0.0402 -1.0334
  160MOL0     C21518   9.782   6.863  10.087 -1.2127  0.8775 -0.1081
  160MOL0     C21519   9.913   6.877  10.139 -0.2782 -0.4873 -0.7049
  160MOL0     C21520  10.331   6.999  10.198  0.2154 -0.7760  1.2490
  160MOL0     C21521  10.441   6.987  10.115  0.5400  0.2056 -0.2389
  160MOL0     C21522  10.573   7.018  10.157  0.4915  0.2803 -0.8842
  160MOL0     C21523  10.596   7.042  10.300  0.0067 -0.4675 -0.5582
  160MOL0     O21524  10.732   7.040  10.329  0.2655  0.8219  0.2834
  160MOL0     C21525  10.780   7.011  10.459 -1.3543  0.7151 -0.3449
  160MOL0     C21526  10.819   7.135  10.543  0.2070  0.0658 -0.7819
  160MOL0     C21527  10.949   7.196  10.495 -1.3942 -0.1915 -1.2137
  160MOL0     C21528  10.997   7.303  10.593  0.2858 -0.0309 -1.6008
  160MOL0     C21529  11.073   7.247  10.711  1.5948 -1.2455 -0.4823
  160MOL0     C21530  11.137   7.219  10.814 -0.7626  1.2336  0.0586
  160MOL0     C21531  10.483   7.050  10.386  0.6366  0.6923 -0.2149
  160MOL0     C21532  10.352   7.029  10.338  0.1295 -0.4125 -0.1183
  160MOL0     H21533   9.918   7.218  10.142  0.4306 -0.3969  2.0195
  160MOL0     H21534   9.686   7.178  10.031 -1.8020 -0.1342  0.4552
  160MOL0     H21535   9.520   6.765   9.997  1.1574  1.3215 -1.4030
  160MOL0     H21536   9.505   6.834  10.153  3.4669  3.6083  0.3021
  160MOL0     H21537   9.278   6.801  10.038  0.7617 -1.1125 -0.3454
  160MOL0     H21538   9.303   6.976  10.064 -1.1487  1.5392 -4.0972
  160MOL0     H21539   9.229   6.989   9.847  0.3952 -0.1866 -0.3148
  160MOL0     H21540   9.406   7.003   9.850  2.8623 -1.3513  5.2873
  160MOL0     H21541   9.456   6.774   9.790 -0.8706 -1.1935  1.4083
  160MOL0     H21542   9.289   6.719   9.805  1.5120 -2.0369 -0.4174
  160MOL0     H21543   9.221   6.869   9.621 -0.0871  2.4706  1.2977
  160MOL0     H21544   9.395   6.905   9.596  2.3182 -0.9227  2.1110
  160MOL0     H21545   9.408   6.631   9.591  0.3043 -0.4209 -1.0004
  160MOL0     H21546   9.239   6.663   9.538 -1.4487  2.0116 -0.7582
  160MOL0     H21547   9.390   6.828   9.371 -1.3164  0.2298 -2.6205
  160MOL0     H21548   9.517   6.719   9.436 -0.6473  1.3217  1.0585
  160MOL0     H21549   9.427   6.650   9.229  1.2320 -0.0650  1.4909
  160MOL0     H21550   9.256   6.647   9.295 -0.6168 -2.3740 -2.2647
  160MOL0     H21551   9.580   6.423   9.349 -1.0359  2.3140  0.0794
  160MOL0     H21552   9.453   6.068   9.444  2.5740 -1.5627  0.4211
  160MOL0     H21553   9.546   6.130   9.304  1.2831 -0.0156  0.7288
  160MOL0     H21554   9.628   6.254   9.569  0.4574 -1.8741  1.0291
  160MOL0     H21555   9.704   6.218   9.415 -2.3585  4.4887  0.9806
  160MOL0     H21556   9.728   5.985   9.467 -0.2940 -0.1772 -0.2537
  160MOL0     H21557   9.626   6.010   9.616 -0.8277  0.7002 -1.1360
  160MOL0     H21558   9.878   6.171   9.586  0.1249  1.4387  1.1088
  160MOL0     H21559   9.879   6.014   9.670  0.1835  0.9528 -0.0193
  160MOL0     H21560   9.685   6.273   9.973  0.0377 -0.8126  0.0603
  160MOL0     H21561   9.713   6.349  10.196 -2.6918  5.3548  1.2773
  160MOL0     H21562   9.865   6.363  10.273  0.0151 -3.9181 -1.9295
  160MOL0     H21563   9.792   6.500  10.174  1.5785  1.3761  3.0892
  160MOL0     H21564  10.360   6.682  10.122  2.1903  1.9440  1.4476
  160MOL0     H21565  10.534   6.730  10.293 -0.4509  0.5723  2.4944
  160MOL0     H21566  10.549   6.430  10.643  0.4148  0.4812 -0.3465
  160MOL0     H21567  10.706   6.419  10.564  1.6309  0.2565  1.7356
  160MOL0     H21568  10.606   6.636  10.752 -0.5135  1.7133 -0.6766
  160MOL0     H21569  10.729   6.508  10.775 -1.0139 -0.8416 -0.9659
  160MOL0     H21570  10.767   6.780  10.629 -0.8927 -0.5865 -2.1785
  160MOL0     H21571  10.829   6.635  10.564  0.3922  3.3100 -1.5090
  160MOL0     H21572  10.853   6.730  10.855 -1.5066  0.5196 -0.6928
  160MOL0     H21573  10.938   6.584  10.787  2.0230 -0.2533 -3.7624
  160MOL0     H21574  10.966   6.883  10.729  2.0547  0.3233 -0.0109
  160MOL0     H21575  11.015   6.755  10.611  0.0820 -0.2560 -0.7882
  160MOL0     H21576  11.146   6.748  10.881  0.3006 -2.6129 -0.6099
  160MOL0     H21577  11.196   6.685  10.730  1.0546  2.4468 -3.3517
  160MOL0     H21578  11.329   6.894  10.794 -0.3874  2.8566  0.7016
  160MOL0     H21579  11.187   6.981  10.803  2.4464 -0.4793  2.7799
  160MOL0     H21580  11.291   7.032  10.589  1.7240 -0.4925  3.7161
  160MOL0     H21581  11.136   6.952  10.567  0.4748  4.0019 -0.4842
  160MOL0     H21582  10.501   6.334  10.454 -2.9604 -0.7571  0.8415
  160MOL0     H21583  10.332   6.278  10.278  1.1255  0.3483  1.0632
  160MOL0     H21584  10.171   6.323   9.873  0.4743 -1.7001  1.0872
  160MOL0     H21585  10.035   6.166   9.740 -1.5551 -2.7677  0.8399
  160MOL0     H21586   9.757   6.762  10.058  0.9828  0.3240 -0.2757
  160MOL0     H21587   9.991   6.804  10.160  0.6759  0.4829 -0.8265
  160MOL0     H21588  10.426   6.971  10.008  4.1995 -0.6089 -0.7670
  160MOL0     H21589  10.657   7.010  10.088  1.0279  1.3067 -0.3841
  160MOL0     H21590  10.703   6.944  10.499  0.2521 -1.2642 -0.4282
  160MOL0     H21591  10.865   6.943  10.458 -0.6972  1.5052  0.4941
  160MOL0     H21592  10.827   7.108  10.649 -0.8525 -1.1318 -0.9789
  160MOL0     H21593  10.742   7.212  10.531 -0.0378 -0.1176 -0.4324
  160MOL0     H21594  10.945   7.245  10.397  1.1216  1.4959 -0.5615
  160MOL0     H21595  11.018   7.111  10.489 -0.0077  0.3176  3.4042
  160MOL0     H21596  10.913   7.361  10.630  1.4026  1.3682 -1.1901
  160MOL0     H21597  11.073   7.359  10.538  1.7051  0.6653  0.9128
  160MOL0     H21598  11.183   7.176  10.900 -0.4060  0.5837 -0.4468
  160MOL0     H21599  10.499   7.077  10.490  2.0049  4.0852 -1.1772
  160MOL0     H21600  10.272   7.030  10.411 -0.8452  0.5268 -1.1527
  161MOL0     O21601   4.374   0.366  10.772  0.2023  0.5804  0.0169
  161MOL0     C21602   4.431   0.296  10.686 -0.1885  0.9128  0.4467
  161MOL0     O21603   4.366   0.220  10.592 -0.2629  0.6054 -0.3960
  161MOL0     C21604   4.233   0.216  10.607 -0.5279 -0.1886 -0.1656
  161MOL0     C21605   4.148   0.286  10.524 -0.3254  0.8919 -0.3857
  161MOL0     C21606   4.004   0.272  10.528  0.4381  0.4158 -0.4453
  161MOL0     C21607   3.950   0.174  10.611 -0.8537 -0.3701  0.4651
  161MOL0     O21608   3.818   0.152  10.589  0.0344  0.4787  0.2654
  161MOL0     C21609   3.748   0.063  10.679  0.4910 -0.7460 -0.2563
  161MOL0     C21610   3.607   0.128  10.684  0.2955 -0.1514 -0.0032
  161MOL0     C21611   3.532   0.152  10.556  0.6594  0.3356 -0.6813
  161MOL0     C21612   3.385   0.199  10.582  0.5394 -0.2656  0.0387
  161MOL0     C21613   3.307   0.236  10.453  0.9650  0.5140 -0.2324
  161MOL0     C21614   3.152   0.230  10.459 -0.1436  0.6878  0.1975
  161MOL0     C21615   3.092   0.243  10.321 -0.4639  0.6692 -0.0202
  161MOL0     C21616   2.945   0.220  10.325 -0.0863 -0.9288  0.6001
  161MOL0     N21617   2.881   0.268  10.197  0.0615  0.2609  0.2801
  161MOL0     C21618   2.819   0.175  10.116  0.2608 -0.7961  0.5091
  161MOL0     C21619   2.740   0.248  10.030  0.9698 -0.8919 -0.1048
  161MOL0     C21620   2.642   0.194   9.924  0.7338  0.0472  0.1807
  161MOL0     C21621   2.534   0.303   9.898 -0.3055  0.1348  0.1504
  161MOL0     C21622   2.576   0.442   9.832 -0.3048 -1.0326 -0.2478
  161MOL0     C21623   2.607   0.442   9.688  0.1848 -0.5006  0.4413
  161MOL0     O21624   2.484   0.475   9.620 -0.7242  0.5465 -0.1820
  161MOL0     C21625   2.492   0.506   9.490  0.3887  0.4394  1.0511
  161MOL0     C21626   2.607   0.541   9.422 -0.7280 -0.3677 -0.0274
  161MOL0     C21627   2.607   0.586   9.283  0.2963 -0.4246 -0.4780
  161MOL0     C21628   2.738   0.638   9.220 -0.0004 -0.2952 -0.4630
  161MOL0     C21629   2.478   0.606   9.215 -0.6464 -0.3711 -0.6513
  161MOL0     C21630   2.458   0.666   9.075  0.2390  0.1074  0.3213
  161MOL0     O21631   2.331   0.702   9.034  0.0149  0.4102 -0.4578
  161MOL0     C21632   2.309   0.724   8.898  0.2070 -0.3021  1.1752
  161MOL0     C21633   2.203   0.812   8.865 -0.9526  0.3754 -0.0648
  161MOL0     C21634   2.171   0.831   8.730  0.2584  0.9054 -0.1418
  161MOL0     C21635   2.247   0.757   8.631  0.0851  0.5158  0.2926
  161MOL0     O21636   2.207   0.769   8.507  0.6464 -0.4512 -0.2352
  161MOL0     C21637   2.304   0.800   8.417 -0.6877 -0.8356  0.3446
  161MOL0     C21638   2.245   0.860   8.287  0.6198  0.0714  0.0780
  161MOL0     C21639   2.186   0.991   8.307  0.2057  0.0040 -0.9247
  161MOL0     C21640   2.111   1.044   8.180  0.2776 -0.2163  0.4613
  161MOL0     C21641   2.119   1.199   8.147  0.3059  0.6478 -0.0100
  161MOL0     C21642   2.027   1.276   8.240 -0.6479 -1.1865  0.3612
  161MOL0     C21643   2.052   1.423   8.217  0.8835  0.0081 -0.3731
  161MOL0     C21644   1.965   1.477   8.104 -0.5622  0.2426 -0.0708
  161MOL0    Cl21645   2.030   1.426   7.938  0.4566  0.2730  0.6039
  161MOL0     C21646   2.345   0.670   8.666 -0.7639  0.0913 -0.3569
  161MOL0     C21647   2.371   0.649   8.801 -0.6593 -0.7664 -0.2919
  161MOL0     O21648   2.552   0.676   9.003 -0.3602  0.2345  0.4358
  161MOL0     C21649   2.361   0.575   9.298  0.3814  0.0802  0.5873
  161MOL0     C21650   2.370   0.533   9.427 -1.0603 -0.0579  0.0972
  161MOL0     N21651   2.768   0.382  10.070  0.1217 -0.2904  0.1934
  161MOL0     N21652   2.849   0.394  10.159  0.5959  0.0752  0.1051
  161MOL0     C21653   4.036   0.105  10.702  0.3006  0.2656  0.7645
  161MOL0     C21654   4.176   0.125  10.703  0.1538 -0.4525  1.2768
  161MOL0     C21655   4.575   0.326  10.659 -0.9580 -0.6626  0.6490
  161MOL0     C21656   4.662   0.351  10.763 -0.7456  0.3312 -0.7879
  161MOL0     C21657   4.798   0.385  10.733  0.2781 -0.2174  0.0638
  161MOL0     C21658   4.844   0.389  10.605  0.2526 -0.0628 -0.3455
  161MOL0     O21659   4.971   0.424  10.564 -0.0582  0.2277  0.5680
  161MOL0     C21660   5.059   0.495  10.651 -0.1939 -0.5856 -0.4510
  161MOL0     C21661   5.158   0.393  10.707 -1.0925  0.1691  0.0374
  161MOL0     C21662   5.284   0.456  10.773 -0.0569 -0.1635  0.4896
  161MOL0     C21663   5.414   0.363  10.753 -0.3580 -0.2291  0.6952
  161MOL0     C21664   5.544   0.422  10.793  0.0556 -0.0220 -0.1594
  161MOL0     C21665   5.649   0.483  10.805 -0.2453  0.4800 -0.0478
  161MOL0     C21666   4.756   0.353  10.496  0.0787 -0.0719  0.0776
  161MOL0     C21667   4.628   0.308  10.528 -0.4801  0.0041 -0.9072
  161MOL0     H21668   4.190   0.347  10.445  0.2091 -0.3584 -1.0914
  161MOL0     H21669   3.935   0.328  10.466 -0.0078  0.4728  0.0968
  161MOL0     H21670   3.741  -0.043  10.654 -0.5545 -1.3102  2.1728
  161MOL0     H21671   3.779   0.072  10.783 -1.4623  1.9812  0.1792
  161MOL0     H21672   3.544   0.085  10.762 -1.3288  1.5001 -0.3145
  161MOL0     H21673   3.628   0.229  10.722  0.0184 -0.0880 -0.0195
  161MOL0     H21674   3.584   0.223  10.491  3.3154 -0.3062  0.5823
  161MOL0     H21675   3.524   0.056  10.505  0.2266  0.2414 -0.4391
  161MOL0     H21676   3.330   0.113  10.622  1.6148 -1.2667 -0.5682
  161MOL0     H21677   3.395   0.279  10.656  1.9830 -3.5467  3.6989
  161MOL0     H21678   3.339   0.337  10.426  0.6374  0.4247 -0.9615
  161MOL0     H21679   3.334   0.165  10.375  1.0211 -1.5488  1.5658
  161MOL0     H21680   3.103   0.138  10.494  0.7264 -0.0569 -0.5035
  161MOL0     H21681   3.132   0.305  10.536  1.8981 -0.5206  2.0205
  161MOL0     H21682   3.109   0.345  10.288 -2.7895  1.5681  1.3377
  161MOL0     H21683   3.125   0.170  10.246  1.4455  1.5792 -0.1390
  161MOL0     H21684   2.901   0.275  10.408 -3.6468 -2.1642 -0.2931
  161MOL0     H21685   2.916   0.119  10.355  0.4114 -1.3915 -0.3976
  161MOL0     H21686   2.821   0.067  10.109  1.7867 -0.6909 -2.3143
  161MOL0     H21687   2.683   0.189   9.822  0.0326  0.8375 -0.1539
  161MOL0     H21688   2.601   0.096   9.949  2.5491 -0.5863  0.8488
  161MOL0     H21689   2.500   0.317  10.001 -4.4293 -0.0018 -1.0005
  161MOL0     H21690   2.455   0.252   9.842 -1.1779  0.3203  1.1613
  161MOL0     H21691   2.668   0.482   9.874  1.1680 -2.4754 -1.9310
  161MOL0     H21692   2.501   0.519   9.855  0.1889 -0.2816 -1.1095
  161MOL0     H21693   2.658   0.351   9.655 -0.3609 -0.3370 -0.9234
  161MOL0     H21694   2.680   0.523   9.676  1.7983 -1.8546  0.7811
  161MOL0     H21695   2.698   0.526   9.479 -0.7237  0.3712  0.1707
  161MOL0     H21696   2.763   0.576   9.133 -2.5819 -2.2203  0.0543
  161MOL0     H21697   2.714   0.736   9.177 -0.8986  0.3851  1.4834
  161MOL0     H21698   2.825   0.650   9.285  0.0667  0.0577 -0.6121
  161MOL0     H21699   2.151   0.872   8.938 -0.6775  0.6925 -0.1302
  161MOL0     H21700   2.091   0.894   8.692  0.8946  1.4727 -0.5688
  161MOL0     H21701   2.380   0.861   8.465 -1.8426 -1.1357  2.6974
  161MOL0     H21702   2.357   0.707   8.395  0.0361 -0.0603 -1.3677
  161MOL0     H21703   2.324   0.880   8.214  0.3982  0.6275 -0.0133
  161MOL0     H21704   2.174   0.790   8.241  1.7555  0.8634 -3.1590
  161MOL0     H21705   2.269   1.055   8.338  1.3917 -0.6707 -2.5578
  161MOL0     H21706   2.114   0.988   8.390 -0.8595 -1.1177 -1.8561
  161MOL0     H21707   2.156   0.995   8.094  1.8142  1.4406  0.2569
  161MOL0     H21708   2.008   1.009   8.188  0.0848 -0.9530 -3.3826
  161MOL0     H21709   2.086   1.213   8.044 -0.7198  0.7291  0.3233
  161MOL0     H21710   2.223   1.231   8.162  0.4304  0.2278  0.0260
  161MOL0     H21711   1.926   1.237   8.222 -1.4213  1.3366 -1.3402
  161MOL0     H21712   2.065   1.267   8.342  2.7411 -0.1679 -0.6684
  161MOL0     H21713   2.153   1.434   8.178  1.0751  1.2365  0.4338
  161MOL0     H21714   2.030   1.481   8.307  0.1815  0.1271 -0.6182
  161MOL0     H21715   1.960   1.586   8.111 -0.5171  0.4043 -1.9909
  161MOL0     H21716   1.863   1.438   8.099 -0.6989  0.7100 -1.4222
  161MOL0     H21717   2.388   0.604   8.591 -1.7909  0.4231 -1.2752
  161MOL0     H21718   2.443   0.570   8.821  0.6911  0.0008 -1.8267
  161MOL0     H21719   2.258   0.586   9.267  0.4736  4.8784  1.2993
  161MOL0     H21720   2.287   0.519   9.495 -0.1567  0.1552  1.2788
  161MOL0     H21721   3.997   0.028  10.768  0.1294  0.2611  0.6573
  161MOL0     H21722   4.246   0.075  10.769  0.6588 -1.5596 -0.0291
  161MOL0     H21723   4.626   0.344  10.865  2.1676  0.7816  0.3664
  161MOL0     H21724   4.870   0.400  10.812  1.1417  1.2951 -0.9588
  161MOL0     H21725   5.118   0.560  10.587 -0.5897  0.1316 -0.1051
  161MOL0     H21726   5.009   0.554  10.729 -1.0896  1.7347 -2.6536
  161MOL0     H21727   5.192   0.330  10.625 -0.6861  0.5186 -0.0677
  161MOL0     H21728   5.113   0.328  10.782  0.7546 -1.4447 -0.1661
  161MOL0     H21729   5.262   0.468  10.879 -1.3484 -0.0670  0.2243
  161MOL0     H21730   5.309   0.550  10.722  0.1367 -0.8306 -0.6741
  161MOL0     H21731   5.433   0.371  10.646  0.7540  4.6958  1.0377
  161MOL0     H21732   5.397   0.265  10.799 -2.6382  0.9599  2.5963
  161MOL0     H21733   5.748   0.518  10.826  1.1822 -2.9739 -0.3700
  161MOL0     H21734   4.799   0.341  10.397 -1.5007  2.7659 -1.0855
  161MOL0     H21735   4.566   0.282  10.442 -0.6859 -0.8799 -0.5098
  162MOL0     O21736   8.221   7.253   5.241 -0.2728  0.3913 -0.0458
  162MOL0     C21737   8.289   7.342   5.195  0.1024 -0.4239  0.1631
  162MOL0     O21738   8.242   7.464   5.160  0.0152 -0.2201 -0.3038
  162MOL0     C21739   8.111   7.501   5.202  0.4004  0.2271  0.3884
  162MOL0     C21740   8.086   7.615   5.281  0.8304 -0.3198 -0.5104
  162MOL0     C21741   7.958   7.662   5.292  0.4641  0.9798 -0.1051
  162MOL0     C21742   7.848   7.590   5.250  1.0748  0.1783  0.9147
  162MOL0     O21743   7.725   7.634   5.275 -0.3248 -0.5430  0.2157
  162MOL0     C21744   7.618   7.624   5.175 -0.2248  0.0211  0.3550
  162MOL0     C21745   7.517   7.738   5.192 -0.4435 -0.0370  0.3976
  162MOL0     C21746   7.404   7.704   5.090 -0.5684  0.9996 -0.4288
  162MOL0     C21747   7.270   7.771   5.119  0.1099 -0.2480  0.0617
  162MOL0     C21748   7.163   7.738   5.005 -0.7038 -0.5716  0.2883
  162MOL0     C21749   7.022   7.784   5.055 -0.0647 -0.1536 -0.1282
  162MOL0     C21750   6.908   7.745   4.957 -0.4378  0.5911  0.1865
  162MOL0     C21751   6.886   7.855   4.856  0.2486  0.1032  0.2222
  162MOL0     N21752   6.768   7.800   4.778  0.3622  0.2165 -0.0399
  162MOL0     C21753   6.753   7.693   4.693  0.6560 -0.2514 -0.9026
  162MOL0     C21754   6.617   7.673   4.687  0.6219  0.5300 -0.1104
  162MOL0     C21755   6.555   7.537   4.656  0.4984  0.0303  0.3575
  162MOL0     C21756   6.420   7.519   4.731 -0.1484 -0.6877  0.1861
  162MOL0     C21757   6.306   7.570   4.646 -0.2490  0.2347 -0.2837
  162MOL0     C21758   6.170   7.564   4.709  0.8907 -0.5619  0.3614
  162MOL0     O21759   6.128   7.421   4.708 -0.3186  0.3362  0.8766
  162MOL0     C21760   6.013   7.385   4.753  0.1462  0.5943 -0.1371
  162MOL0     C21761   5.967   7.260   4.718  0.7528  0.7811  1.4692
  162MOL0     C21762   5.853   7.205   4.765 -0.0765  0.2309 -0.3401
  162MOL0     C21763   5.800   7.076   4.723  0.0590 -0.3120 -0.3543
  162MOL0     C21764   5.769   7.290   4.849 -0.1323 -0.7569  0.1555
  162MOL0     C21765   5.641   7.250   4.929  0.4090  0.0258  1.0872
  162MOL0     O21766   5.599   7.126   4.930  0.3399  0.1997  0.1063
  162MOL0     C21767   5.484   7.107   5.000 -0.7390 -0.1658 -0.5964
  162MOL0     C21768   5.354   7.114   4.947  0.6995  0.5425  0.1312
  162MOL0     C21769   5.252   7.051   5.011  0.1088  1.0818  0.9893
  162MOL0     C21770   5.269   6.977   5.125 -0.2942  0.4870  0.5681
  162MOL0     O21771   5.174   6.914   5.198  0.0211  0.4808 -0.2447
  162MOL0     C21772   5.051   6.980   5.212 -0.6305 -0.0721  0.6081
  162MOL0     C21773   4.959   6.903   5.313 -0.2459  0.3672  0.2989
  162MOL0     C21774   4.823   6.950   5.348 -0.2977 -0.2777 -0.1770
  162MOL0     C21775   4.805   7.103   5.356  0.1118  0.3366 -0.2663
  162MOL0     C21776   4.670   7.157   5.411 -0.4145  0.1969  0.5535
  162MOL0     C21777   4.648   7.134   5.558 -0.2637 -0.8962  0.4547
  162MOL0     C21778   4.733   7.212   5.653  0.1755 -0.1113 -0.4123
  162MOL0     C21779   4.737   7.360   5.638  0.1875  0.6738 -0.1098
  162MOL0    Cl21780   4.574   7.446   5.635 -0.2723  0.3600 -0.1805
  162MOL0     C21781   5.398   6.966   5.176 -0.2486 -0.5331  0.1297
  162MOL0     C21782   5.506   7.025   5.111  0.9397  1.1339  0.1410
  162MOL0     O21783   5.587   7.344   4.988  0.1906  0.9102  0.4149
  162MOL0     C21784   5.818   7.413   4.886  0.4752 -0.6900  0.7577
  162MOL0     C21785   5.935   7.460   4.839  0.4957 -0.1018 -0.3647
  162MOL0     N21786   6.554   7.782   4.739  0.3376  1.0061 -0.7605
  162MOL0     N21787   6.643   7.855   4.797 -0.6854 -0.2966  0.0914
  162MOL0     C21788   7.872   7.480   5.163  1.7052 -0.4909  0.3798
  162MOL0     C21789   8.005   7.439   5.141  0.1212  0.2431  0.0389
  162MOL0     C21790   8.427   7.315   5.185 -0.2455  0.0327 -0.1700
  162MOL0     C21791   8.500   7.377   5.088 -0.9803  0.4143  0.0898
  162MOL0     C21792   8.637   7.344   5.066 -0.6892  0.2512 -0.7211
  162MOL0     C21793   8.703   7.259   5.153 -0.2144 -0.4657 -0.1257
  162MOL0     O21794   8.832   7.233   5.153 -0.5180  0.0171 -0.4565
  162MOL0     C21795   8.926   7.318   5.085  0.5574 -0.2267  0.6958
  162MOL0     C21796   8.932   7.462   5.130 -0.0029  0.1427  0.2742
  162MOL0     C21797   8.984   7.471   5.274 -0.3103 -0.3600 -0.5788
  162MOL0     C21798   8.956   7.614   5.334 -0.4595 -0.3456  0.1546
  162MOL0     C21799   9.068   7.703   5.296  0.7176 -0.3087  0.4496
  162MOL0     C21800   9.149   7.790   5.271  0.1029  0.1147 -0.3027
  162MOL0     C21801   8.634   7.199   5.264 -0.5905  0.6320  0.6217
  162MOL0     C21802   8.495   7.230   5.277  0.2159 -0.2408  0.3047
  162MOL0     H21803   8.160   7.684   5.321 -0.7905 -0.7176  3.6975
  162MOL0     H21804   7.940   7.761   5.331  0.4009  0.6679  0.6717
  162MOL0     H21805   7.664   7.619   5.076  0.0265  1.0319  0.4099
  162MOL0     H21806   7.567   7.532   5.206  3.5076 -2.4000 -0.0238
  162MOL0     H21807   7.472   7.748   5.291 -0.6631  3.3359  0.0475
  162MOL0     H21808   7.563   7.832   5.160  0.1114 -1.2915 -2.9655
  162MOL0     H21809   7.444   7.728   4.991  1.9820 -1.3509 -0.1059
  162MOL0     H21810   7.392   7.595   5.086  1.2794  0.4292  3.7887
  162MOL0     H21811   7.230   7.733   5.213  1.8581 -0.7548  0.6435
  162MOL0     H21812   7.283   7.880   5.124 -1.5051  0.3517 -4.3258
  162MOL0     H21813   7.193   7.791   4.914  1.7477 -1.6233  0.3984
  162MOL0     H21814   7.172   7.634   4.972 -4.2115 -0.2170 -2.3542
  162MOL0     H21815   6.997   7.734   5.149  1.1058 -0.2326  0.1549
  162MOL0     H21816   7.011   7.892   5.066 -1.3934 -0.0682 -1.8344
  162MOL0     H21817   6.932   7.653   4.903 -1.4825 -0.5972  1.6681
  162MOL0     H21818   6.823   7.720   5.021 -0.2433 -3.4477 -0.8422
  162MOL0     H21819   6.971   7.867   4.790 -1.5050  0.6066 -2.0605
  162MOL0     H21820   6.862   7.953   4.899 -1.1388  0.1645 -0.6332
  162MOL0     H21821   6.830   7.625   4.657 -0.0823 -1.4117 -0.3775
  162MOL0     H21822   6.537   7.515   4.551 -1.0991  2.3140  0.0725
  162MOL0     H21823   6.622   7.460   4.696  1.1838 -1.7428 -3.6865
  162MOL0     H21824   6.432   7.555   4.833  1.4030 -1.6010  0.3693
  162MOL0     H21825   6.418   7.411   4.747  2.9075 -0.7568  0.6865
  162MOL0     H21826   6.308   7.507   4.556 -0.7956 -0.9700  0.5273
  162MOL0     H21827   6.322   7.676   4.624  2.4527 -0.4403 -2.0738
  162MOL0     H21828   6.104   7.624   4.646  0.0914  0.6821  2.2683
  162MOL0     H21829   6.189   7.597   4.812  1.1857 -0.2800  0.2161
  162MOL0     H21830   6.015   7.194   4.647 -0.9969  0.8535  0.1401
  162MOL0     H21831   5.701   7.099   4.682  0.0998  1.8434  0.6371
  162MOL0     H21832   5.864   7.033   4.645  0.3593 -2.9580  1.2509
  162MOL0     H21833   5.800   6.995   4.797  0.2646  1.6429  1.8941
  162MOL0     H21834   5.332   7.169   4.856 -0.6048 -0.0228  0.0818
  162MOL0     H21835   5.152   7.051   4.969 -0.1398  1.7264  1.5548
  162MOL0     H21836   5.066   7.078   5.257  3.5466 -1.1767  2.0408
  162MOL0     H21837   5.003   6.979   5.113  2.1981 -2.8392 -0.9173
  162MOL0     H21838   4.948   6.806   5.264 -1.1129 -0.0338  1.2265
  162MOL0     H21839   5.013   6.888   5.407 -0.0411 -2.6233 -0.2094
  162MOL0     H21840   4.781   6.916   5.443 -0.7175  3.2500  1.0309
  162MOL0     H21841   4.766   6.906   5.265 -0.5186 -2.2808  0.9705
  162MOL0     H21842   4.885   7.152   5.412 -2.1216  1.7998  1.8495
  162MOL0     H21843   4.814   7.126   5.249  1.7436  2.3712  0.2353
  162MOL0     H21844   4.590   7.109   5.354 -0.8273  0.1062  1.2120
  162MOL0     H21845   4.675   7.263   5.384  2.7851 -0.3663 -1.8318
  162MOL0     H21846   4.544   7.157   5.580 -0.0473  1.3448 -0.6233
  162MOL0     H21847   4.672   7.028   5.576  0.5546 -0.8517 -0.2776
  162MOL0     H21848   4.834   7.169   5.647 -1.2031 -3.9966  0.9307
  162MOL0     H21849   4.706   7.186   5.756 -1.4685  3.3395  0.1561
  162MOL0     H21850   4.793   7.377   5.545  0.8259 -0.0944  0.1268
  162MOL0     H21851   4.786   7.403   5.726 -0.5062  1.6453 -0.1784
  162MOL0     H21852   5.411   6.927   5.277 -1.2376  4.4892  2.5140
  162MOL0     H21853   5.606   7.001   5.146 -0.4643 -0.1111  3.7407
  162MOL0     H21854   5.763   7.477   4.955 -1.0346 -1.0631 -0.0523
  162MOL0     H21855   5.973   7.550   4.886 -1.2252 -0.1709  1.3075
  162MOL0     H21856   7.795   7.436   5.101  1.1334  1.3046 -0.2457
  162MOL0     H21857   8.020   7.350   5.082 -1.7515  0.1546 -0.3505
  162MOL0     H21858   8.459   7.436   5.007 -0.1162  0.5483 -0.2685
  162MOL0     H21859   8.690   7.375   4.976  1.6156 -0.2527  0.3984
  162MOL0     H21860   9.023   7.270   5.073 -0.0842 -0.8101 -3.9370
  162MOL0     H21861   8.888   7.329   4.983 -1.2435  0.4046  1.3995
  162MOL0     H21862   8.836   7.512   5.117  0.4583  0.8958 -0.3761
  162MOL0     H21863   8.979   7.521   5.051 -1.5294  1.1548  0.0785
  162MOL0     H21864   9.088   7.437   5.273 -0.0807  0.3084 -0.2516
  162MOL0     H21865   8.938   7.393   5.336  2.5896 -2.5470 -0.9785
  162MOL0     H21866   8.953   7.590   5.441 -1.4626 -0.1505  0.1852
  162MOL0     H21867   8.859   7.658   5.309 -1.4423 -3.2205 -1.5430
  162MOL0     H21868   9.230   7.858   5.253 -0.1183  0.8576  1.3902
  162MOL0     H21869   8.678   7.135   5.340  0.2192  2.5854  1.8738
  162MOL0     H21870   8.437   7.183   5.356  2.1131 -1.2940  1.1351
  163MOL0     O21871  10.520  10.670   9.070  0.6981  0.2131 -0.6021
  163MOL0     C21872  10.529  10.576   8.990  0.7849  0.4930  0.8665
  163MOL0     O21873  10.424  10.528   8.910 -0.2844 -0.2953 -0.4597
  163MOL0     C21874  10.298  10.573   8.918 -1.0552 -0.2104 -0.4413
  163MOL0     C21875  10.197  10.482   8.944  0.1159  0.1426 -0.7875
  163MOL0     C21876  10.063  10.522   8.926  0.1051 -0.0825  0.0499
  163MOL0     C21877  10.032  10.649   8.879 -0.1319 -0.6694 -0.5564
  163MOL0     O21878   9.905  10.705   8.876 -0.0342  0.2354  0.0802
  163MOL0     C21879   9.862  10.760   9.007  0.3557 -0.0091  0.0039
  163MOL0     C21880   9.717  10.789   8.987  1.2984 -0.3619  0.1088
  163MOL0     C21881   9.662  10.860   9.119  0.5407  0.9572  0.4339
  163MOL0     C21882   9.512  10.834   9.162  0.1873  0.1633 -0.0195
  163MOL0     C21883   9.480  10.900   9.299  0.7088  0.3767 -0.3341
  163MOL0     C21884   9.324  10.879   9.330 -1.0390 -0.0677 -0.2569
  163MOL0     C21885   9.228  10.932   9.230  0.4996 -0.3893  0.6340
  163MOL0     C21886   9.136  11.045   9.289 -0.1872  0.5598 -0.2408
  163MOL0     N21887   9.219  11.167   9.295  0.1803  0.2922 -0.1931
  163MOL0     C21888   9.263  11.239   9.181  0.2642  0.2726 -0.8137
  163MOL0     C21889   9.325  11.352   9.237 -0.2020  0.5736  0.2130
  163MOL0     C21890   9.392  11.465   9.162 -0.0294  0.6767 -1.4739
  163MOL0     C21891   9.315  11.589   9.184 -0.3740 -0.6113  0.6379
  163MOL0     C21892   9.358  11.695   9.086 -0.1462  0.2926 -0.7396
  163MOL0     C21893   9.506  11.740   9.103  0.5180  0.2198 -0.6577
  163MOL0     O21894   9.533  11.849   9.023  0.1900 -0.6002 -0.0078
  163MOL0     C21895   9.674  11.872   9.001  0.3594  0.3356  0.1191
  163MOL0     C21896   9.717  11.893   8.872 -0.1756  0.2822  0.2427
  163MOL0     C21897   9.850  11.930   8.839 -0.0929 -0.2283  0.7241
  163MOL0     C21898   9.887  11.952   8.688 -0.5010  0.5999 -0.4287
  163MOL0     C21899   9.950  11.923   8.943 -0.6980  0.5012 -0.4920
  163MOL0     C21900  10.093  11.957   8.935  0.4213  0.4499 -0.1515
  163MOL0     O21901  10.172  11.908   9.032 -0.5682  0.7815  0.3681
  163MOL0     C21902  10.313  11.917   9.020  0.2404 -0.0957 -0.0904
  163MOL0     C21903  10.391  11.900   8.908 -0.5162 -0.1469  0.1246
  163MOL0     C21904  10.530  11.922   8.917  0.4807 -0.0596 -0.0887
  163MOL0     C21905  10.589  11.943   9.039 -0.8936  0.0777  0.3492
  163MOL0     O21906  10.724  11.963   9.053  0.9996  0.6441  0.1684
  163MOL0     C21907  10.806  11.922   8.948 -0.2864 -0.0131 -0.4003
  163MOL0     C21908  10.950  11.921   9.005  0.3882 -0.8454 -0.4896
  163MOL0     C21909  10.998  12.052   9.073 -0.7230  0.7337 -0.1774
  163MOL0     C21910  11.124  12.027   9.160 -0.8301  0.3082  0.0371
  163MOL0     C21911  11.218  12.153   9.158  0.5099  0.2344 -0.3437
  163MOL0     C21912  11.154  12.265   9.239 -0.6626  1.0796  0.5038
  163MOL0     C21913  11.238  12.389   9.230  0.0840 -0.1622 -0.3091
  163MOL0     C21914  11.291  12.438   9.367  0.2173  0.1555 -1.0701
  163MOL0    Cl21915  11.419  12.566   9.333 -0.3390 -0.0982 -0.2817
  163MOL0     C21916  10.510  11.965   9.154 -0.5839  0.3710  0.0833
  163MOL0     C21917  10.373  11.947   9.151 -0.2419 -0.4420  0.0897
  163MOL0     O21918  10.129  12.028   8.844  1.4055 -0.2759 -0.4951
  163MOL0     C21919   9.913  11.899   9.081  0.3298  0.5012  0.0362
  163MOL0     C21920   9.767  11.875   9.098 -0.6778 -1.0552  0.0622
  163MOL0     N21921   9.328  11.341   9.377  1.0692 -0.6415  0.1029
  163MOL0     N21922   9.262  11.234   9.409  0.1002  0.1043 -0.3777
  163MOL0     C21923  10.129  10.745   8.865 -0.0292 -0.3487 -0.1371
  163MOL0     C21924  10.271  10.706   8.877  0.3054 -0.1801 -0.0045
  163MOL0     C21925  10.660  10.509   8.973  0.8448 -0.2916 -0.6839
  163MOL0     C21926  10.780  10.536   9.046  0.4239 -0.7096  1.4239
  163MOL0     C21927  10.890  10.468   9.009  0.0590 -0.1780 -0.4983
  163MOL0     C21928  10.892  10.368   8.916 -0.3179  0.3639  0.0407
  163MOL0     O21929  11.024  10.327   8.886 -0.5673  1.1588  0.1448
  163MOL0     C21930  11.034  10.203   8.803 -0.1128 -0.3320  0.0274
  163MOL0     C21931  11.178  10.158   8.817 -0.5523 -0.9179 -0.8742
  163MOL0     C21932  11.202  10.017   8.790 -0.4007  0.4545 -0.8648
  163MOL0     C21933  11.350   9.979   8.763 -0.5684 -0.7492  0.5052
  163MOL0     C21934  11.375   9.838   8.781  0.3628  0.6127  0.1508
  163MOL0     C21935  11.377   9.718   8.803  0.5159  0.1274  0.4563
  163MOL0     C21936  10.774  10.332   8.852  0.0884  0.8613  0.8574
  163MOL0     C21937  10.659  10.413   8.877  0.2272 -0.1033 -0.0522
  163MOL0     H21938  10.204  10.377   8.973  0.7075 -0.0765 -1.6793
  163MOL0     H21939   9.989  10.444   8.944  0.0552 -0.1798 -0.5386
  163MOL0     H21940   9.886  10.679   9.076  0.2981 -0.5555 -0.6052
  163MOL0     H21941   9.917  10.854   9.018  0.0737  0.1547  0.0383
  163MOL0     H21942   9.715  10.853   8.898  0.5183  1.2142  1.2013
  163MOL0     H21943   9.653  10.701   8.971  1.0393 -0.2709  0.6091
  163MOL0     H21944   9.713  10.815   9.204 -1.3984 -3.2644 -0.3727
  163MOL0     H21945   9.656  10.969   9.125 -2.3987  0.9591 -0.8524
  163MOL0     H21946   9.449  10.873   9.081  1.4462  0.9190 -0.6650
  163MOL0     H21947   9.497  10.726   9.168  0.2928  0.2196  1.7342
  163MOL0     H21948   9.549  10.855   9.372 -0.1419  0.9559  0.8674
  163MOL0     H21949   9.492  11.008   9.297 -0.5237  0.5133 -1.1049
  163MOL0     H21950   9.303  10.773   9.345 -0.3590 -0.8510 -3.8122
  163MOL0     H21951   9.306  10.925   9.427 -0.3794 -0.3246 -0.0126
  163MOL0     H21952   9.267  10.968   9.134 -2.0793  1.0421  0.0200
  163MOL0     H21953   9.155  10.853   9.211  1.1840 -1.2511  1.5442
  163MOL0     H21954   9.107  11.023   9.392 -0.3432  2.9990  0.3061
  163MOL0     H21955   9.046  11.053   9.226 -1.6855 -0.5405  1.6595
  163MOL0     H21956   9.266  11.212   9.076  0.4458  0.0081 -0.7436
  163MOL0     H21957   9.498  11.478   9.187 -0.6965  1.0685  1.4627
  163MOL0     H21958   9.382  11.444   9.055  0.3957  2.8376 -1.9893
  163MOL0     H21959   9.319  11.624   9.287 -1.8144 -1.7732  1.1273
  163MOL0     H21960   9.207  11.576   9.168 -0.6692  0.4923  1.6505
  163MOL0     H21961   9.302  11.787   9.106  2.7159  1.7678  1.1939
  163MOL0     H21962   9.348  11.670   8.980 -0.1027 -0.8931 -0.4758
  163MOL0     H21963   9.570  11.660   9.064  2.6979  2.4921 -2.0564
  163MOL0     H21964   9.529  11.770   9.205  0.9859  0.6722 -0.8861
  163MOL0     H21965   9.652  11.904   8.785  0.2440 -1.1553 -0.2741
  163MOL0     H21966   9.795  11.957   8.630 -0.3836 -4.9934 -1.6765
  163MOL0     H21967   9.944  12.044   8.675 -0.9515  0.6944 -1.8267
  163MOL0     H21968   9.943  11.859   8.673 -2.5960 -0.9299  0.5943
  163MOL0     H21969  10.346  11.871   8.814  0.9987 -0.5375 -0.5108
  163MOL0     H21970  10.582  11.921   8.822  0.6098  2.3161 -0.0910
  163MOL0     H21971  10.770  11.826   8.911 -3.9127  1.9778 -2.6340
  163MOL0     H21972  10.802  11.996   8.868  4.0393  1.8910  0.8349
  163MOL0     H21973  10.953  11.852   9.090  0.6068 -1.2030 -0.7849
  163MOL0     H21974  11.027  11.902   8.930 -1.3715 -1.2826 -2.2739
  163MOL0     H21975  10.927  12.081   9.150 -0.8495 -1.3291  0.5608
  163MOL0     H21976  11.017  12.138   9.008 -0.8988 -1.0955 -2.8111
  163MOL0     H21977  11.103  12.000   9.264 -2.1058 -0.0394 -0.3007
  163MOL0     H21978  11.179  11.939   9.124 -2.9940 -1.6398  1.2703
  163MOL0     H21979  11.235  12.174   9.052  1.4127 -2.3154 -0.7919
  163MOL0     H21980  11.314  12.120   9.200 -0.1455 -2.1714 -0.5412
  163MOL0     H21981  11.061  12.289   9.187  0.3240 -0.5392 -2.2244
  163MOL0     H21982  11.139  12.220   9.337 -1.5856 -0.0949 -0.1356
  163MOL0     H21983  11.177  12.473   9.195  0.8246  1.1880  1.4530
  163MOL0     H21984  11.328  12.386   9.168  0.3898  3.3054 -0.2643
  163MOL0     H21985  11.341  12.356   9.418  1.5731  2.6120  1.8619
  163MOL0     H21986  11.213  12.488   9.425  0.4536  3.9877 -3.6611
  163MOL0     H21987  10.565  11.961   9.248  2.3764 -2.7814 -1.5112
  163MOL0     H21988  10.306  11.957   9.235  0.1164 -1.0963  0.4606
  163MOL0     H21989   9.966  11.899   9.176  1.0019  2.1425 -0.3112
  163MOL0     H21990   9.751  11.861   9.204  1.1930 -0.0626  0.5216
  163MOL0     H21991  10.111  10.842   8.819  1.3996 -0.4083 -0.8714
  163MOL0     H21992  10.356  10.768   8.852  1.8119 -1.8152  0.8861
  163MOL0     H21993  10.799  10.617   9.115  0.8899  0.2071  0.2483
  163MOL0     H21994  10.980  10.503   9.057 -0.8948  0.1632  1.1284
  163MOL0     H21995  10.967  10.120   8.827  1.5912 -1.3208  1.6217
  163MOL0     H21996  11.023  10.219   8.695  3.2586 -2.9158 -0.8599
  163MOL0     H21997  11.220  10.178   8.916 -0.7971 -0.9453 -0.7651
  163MOL0     H21998  11.244  10.214   8.750  0.2584  3.0786  2.7857
  163MOL0     H21999  11.144   9.991   8.701 -0.0605  1.3089 -1.3475
  163MOL0     H22000  11.160   9.957   8.872  1.2802  1.8878  1.1452
  163MOL0     H22001  11.419  10.041   8.821 -0.6645  1.4884 -1.6099
  163MOL0     H22002  11.362  10.009   8.659 -2.3509  0.2837  0.5388
  163MOL0     H22003  11.375   9.612   8.818 -1.1433  0.5313  4.2537
  163MOL0     H22004  10.765  10.262   8.770  0.9867  2.3619 -0.5976
  163MOL0     H22005  10.575  10.368   8.825 -0.1123  0.2539  0.1777
  164MOL0     O22006   9.975   6.958   8.952 -0.9023  0.0493 -0.6008
  164MOL0     C22007   9.862   6.973   9.006 -0.4389 -0.1338 -0.1788
  164MOL0     O22008   9.745   6.943   8.939 -0.3263  0.0920 -0.5252
  164MOL0     C22009   9.733   6.902   8.810 -1.1937  0.4459 -0.1399
  164MOL0     C22010   9.809   6.799   8.748 -0.0141 -0.2290  0.3957
  164MOL0     C22011   9.773   6.769   8.617  0.7480 -0.1689  0.2836
  164MOL0     C22012   9.674   6.837   8.542 -0.1939 -0.2202 -0.3353
  164MOL0     O22013   9.636   6.802   8.415 -0.1568  0.6598 -1.2294
  164MOL0     C22014   9.596   6.662   8.397 -0.1249 -0.8163  0.4155
  164MOL0     C22015   9.466   6.627   8.470 -0.7203  0.2053  0.2385
  164MOL0     C22016   9.334   6.685   8.421 -0.8299 -0.1464 -0.3416
  164MOL0     C22017   9.259   6.574   8.360  0.3434 -0.2583  0.0723
  164MOL0     C22018   9.159   6.632   8.257 -0.2443  0.4455 -0.4424
  164MOL0     C22019   9.060   6.730   8.327 -1.0373  0.2577 -0.3508
  164MOL0     C22020   8.928   6.736   8.249 -1.2125  0.3622 -1.0325
  164MOL0     C22021   8.828   6.804   8.344  0.0192 -0.4840 -0.4009
  164MOL0     N22022   8.693   6.824   8.293 -0.1001  0.8242  0.2879
  164MOL0     C22023   8.636   6.744   8.203 -0.0406 -0.1963  0.1813
  164MOL0     C22024   8.510   6.790   8.200 -0.1958  1.0975  0.4650
  164MOL0     C22025   8.402   6.759   8.098 -0.1165  0.0837  0.7718
  164MOL0     C22026   8.361   6.613   8.097  0.3187 -0.1771  0.7457
  164MOL0     C22027   8.227   6.603   8.029 -0.3637  0.4392  0.3426
  164MOL0     C22028   8.208   6.453   8.018 -0.8424  0.2164  0.3224
  164MOL0     O22029   8.078   6.403   7.973 -0.9079 -0.4383  0.6157
  164MOL0     C22030   7.977   6.390   8.062 -0.0075 -0.6437  0.3460
  164MOL0     C22031   7.846   6.344   8.024 -1.4933  1.4461 -0.0160
  164MOL0     C22032   7.739   6.340   8.114  0.2540 -1.0055 -0.0864
  164MOL0     C22033   7.604   6.292   8.069  0.3352  0.9554 -0.4037
  164MOL0     C22034   7.766   6.381   8.251 -1.2109  0.0971  0.0865
  164MOL0     C22035   7.663   6.355   8.352 -0.2838  0.2153 -0.4472
  164MOL0     O22036   7.548   6.418   8.358  0.1302 -0.0765 -0.6527
  164MOL0     C22037   7.449   6.354   8.425 -0.5717  0.4872 -0.1465
  164MOL0     C22038   7.418   6.384   8.554  0.0430  0.5240 -0.4539
  164MOL0     C22039   7.294   6.332   8.604  0.5345 -0.3131 -0.7757
  164MOL0     C22040   7.203   6.260   8.521  0.2190 -0.2184 -0.0517
  164MOL0     O22041   7.088   6.218   8.572  0.2690 -0.0239  0.8599
  164MOL0     C22042   7.037   6.280   8.691  0.4532  0.0029  0.6645
  164MOL0     C22043   6.889   6.266   8.697 -0.0161 -0.0376 -0.5759
  164MOL0     C22044   6.826   6.346   8.587  1.0792  0.5402  0.8277
  164MOL0     C22045   6.690   6.292   8.541 -0.2945  0.4129 -0.1473
  164MOL0     C22046   6.656   6.374   8.420 -0.9294 -0.4401  0.1394
  164MOL0     C22047   6.508   6.338   8.378  0.9176  0.4125  0.3504
  164MOL0     C22048   6.480   6.381   8.231  0.8899 -0.2841 -0.6819
  164MOL0     C22049   6.366   6.293   8.178  0.0634 -0.6218 -0.7226
  164MOL0    Cl22050   6.421   6.115   8.166  0.1592  0.3063  0.0507
  164MOL0     C22051   7.240   6.229   8.393 -0.3683  0.0325  0.1883
  164MOL0     C22052   7.363   6.275   8.345  0.0622 -0.2583 -0.0254
  164MOL0     O22053   7.712   6.291   8.448 -0.1854 -0.6374  0.3627
  164MOL0     C22054   7.892   6.426   8.285 -0.0311 -0.3399  0.2044
  164MOL0     C22055   7.989   6.432   8.193  0.5507 -1.0405 -0.3351
  164MOL0     N22056   8.499   6.889   8.290 -0.4942  0.4774  0.2721
  164MOL0     N22057   8.607   6.909   8.349 -0.3267  0.9055  0.8505
  164MOL0     C22058   9.609   6.939   8.604 -0.5111 -0.2279  0.0086
  164MOL0     C22059   9.636   6.972   8.731 -0.8446 -0.2473  0.3660
  164MOL0     C22060   9.843   7.005   9.148  0.0689  0.1925 -0.1367
  164MOL0     C22061   9.731   6.965   9.219 -0.0008 -0.4687 -0.4830
  164MOL0     C22062   9.721   6.994   9.355 -0.6152  0.8239 -0.7722
  164MOL0     C22063   9.821   7.072   9.420  0.2209  0.0690  0.3187
  164MOL0     O22064   9.799   7.093   9.543 -0.8475  0.0374  0.0281
  164MOL0     C22065   9.896   7.166   9.623  0.0307 -0.4345 -0.2579
  164MOL0     C22066  10.006   7.064   9.674 -0.5242  0.2021 -0.5306
  164MOL0     C22067  10.136   7.146   9.708 -0.5744 -0.2555  0.1130
  164MOL0     C22068  10.138   7.254   9.822 -0.1527 -0.2666 -0.1701
  164MOL0     C22069  10.070   7.381   9.776 -0.8490 -0.4057 -0.5429
  164MOL0     C22070  10.042   7.492   9.740  0.2278 -0.5987 -0.5066
  164MOL0     C22071   9.934   7.126   9.348  0.7282  0.7921 -0.3645
  164MOL0     C22072   9.935   7.095   9.212 -1.5498 -0.3242  0.1975
  164MOL0     H22073   9.884   6.749   8.808 -1.2792 -1.2240  1.2258
  164MOL0     H22074   9.839   6.691   8.579 -0.2074 -1.6135  1.4613
  164MOL0     H22075   9.582   6.636   8.292 -0.9757 -1.1605  0.6046
  164MOL0     H22076   9.678   6.597   8.431  2.6632  3.4776  2.7665
  164MOL0     H22077   9.464   6.518   8.463 -0.6763  0.2032  0.2600
  164MOL0     H22078   9.471   6.652   8.577  0.0676  1.1845 -0.0135
  164MOL0     H22079   9.277   6.730   8.502 -0.4331 -0.0993 -0.0852
  164MOL0     H22080   9.365   6.761   8.348 -0.6161  0.3620  0.2702
  164MOL0     H22081   9.329   6.509   8.307 -1.0183 -2.5372  0.9198
  164MOL0     H22082   9.205   6.514   8.433 -2.1385  2.1939  0.4449
  164MOL0     H22083   9.227   6.678   8.184 -2.0817  0.0443 -2.5398
  164MOL0     H22084   9.108   6.548   8.208  0.0076 -0.6200  1.0649
  164MOL0     H22085   9.037   6.683   8.423  1.8050 -3.6942 -1.3481
  164MOL0     H22086   9.107   6.828   8.339  1.5476 -0.9680  0.3533
  164MOL0     H22087   8.941   6.782   8.151 -0.5272  1.9529 -0.2217
  164MOL0     H22088   8.898   6.630   8.245 -0.6608  0.1943 -0.8681
  164MOL0     H22089   8.858   6.907   8.365 -1.1004 -0.2329  0.0148
  164MOL0     H22090   8.821   6.746   8.436  0.5145  0.7997  0.4667
  164MOL0     H22091   8.677   6.680   8.126 -1.5267  2.3075 -2.9194
  164MOL0     H22092   8.317   6.825   8.119  0.5192  1.4335 -0.6967
  164MOL0     H22093   8.433   6.788   7.997 -0.9979  0.6364  0.6456
  164MOL0     H22094   8.347   6.579   8.200 -4.4663 -0.9587  0.0480
  164MOL0     H22095   8.440   6.554   8.051 -1.2614 -0.2649 -2.0646
  164MOL0     H22096   8.218   6.647   7.929  3.9788 -1.1728 -1.0031
  164MOL0     H22097   8.155   6.642   8.101 -1.9938  1.1726 -1.5632
  164MOL0     H22098   8.241   6.398   8.106  1.8251  1.2965  0.0796
  164MOL0     H22099   8.283   6.427   7.943 -0.2961  0.6596  0.7137
  164MOL0     H22100   7.829   6.293   7.930 -0.5683  0.1755  0.4803
  164MOL0     H22101   7.523   6.353   8.108 -1.1997 -2.0417  1.5293
  164MOL0     H22102   7.586   6.274   7.963  1.7330  0.9618 -0.6704
  164MOL0     H22103   7.587   6.193   8.114 -2.2333  0.6385 -1.9003
  164MOL0     H22104   7.480   6.437   8.626 -3.5625  3.0815  1.0960
  164MOL0     H22105   7.278   6.338   8.711 -0.2067 -3.1599 -0.6537
  164MOL0     H22106   7.077   6.230   8.779  0.8522 -3.2364 -1.2112
  164MOL0     H22107   7.061   6.387   8.685  0.3438  0.0266  0.6557
  164MOL0     H22108   6.862   6.160   8.685 -2.6437  0.7249 -2.3889
  164MOL0     H22109   6.856   6.286   8.799 -1.5551  0.4382 -1.1403
  164MOL0     H22110   6.898   6.347   8.505 -1.0796 -1.9822 -1.2981
  164MOL0     H22111   6.814   6.448   8.626 -3.5438  1.0301 -1.1565
  164MOL0     H22112   6.692   6.184   8.519 -3.1628  0.6109 -1.9407
  164MOL0     H22113   6.626   6.309   8.629 -0.9452  2.0706 -0.9080
  164MOL0     H22114   6.730   6.356   8.342  1.4007 -2.7397  2.6743
  164MOL0     H22115   6.662   6.480   8.445 -2.1238 -0.5121  0.8251
  164MOL0     H22116   6.501   6.229   8.385  0.4348  0.4634  0.6520
  164MOL0     H22117   6.441   6.380   8.453  2.7461  1.1962  1.6108
  164MOL0     H22118   6.564   6.366   8.163  0.2948  1.5377 -1.9114
  164MOL0     H22119   6.454   6.486   8.248  1.4227 -0.4176  1.1362
  164MOL0     H22120   6.323   6.326   8.083  0.1220  1.8522  0.0525
  164MOL0     H22121   6.291   6.308   8.256 -1.6436  0.2855 -2.4519
  164MOL0     H22122   7.176   6.171   8.328 -0.8746  2.4745 -1.6574
  164MOL0     H22123   7.378   6.238   8.244 -5.7632  1.1516 -1.8200
  164MOL0     H22124   7.922   6.465   8.382 -2.7036  0.2458  0.8551
  164MOL0     H22125   8.076   6.475   8.242  1.0935 -4.3957  2.0080
  164MOL0     H22126   9.533   6.988   8.543  0.4593 -0.5996 -1.5591
  164MOL0     H22127   9.578   7.044   8.788  2.5314  1.7535  1.5863
  164MOL0     H22128   9.665   6.892   9.172 -0.6584 -1.3792  1.7125
  164MOL0     H22129   9.636   6.957   9.412 -0.2349 -2.1064 -1.9358
  164MOL0     H22130   9.943   7.251   9.572  0.0364 -0.0306  0.4146
  164MOL0     H22131   9.842   7.206   9.709  0.0438  1.0380 -0.9140
  164MOL0     H22132  10.032   6.993   9.594 -5.3248 -0.7292 -1.5288
  164MOL0     H22133   9.964   7.007   9.757  0.0855 -2.7165 -2.0850
  164MOL0     H22134  10.166   7.194   9.614  2.2270  3.2089  2.4721
  164MOL0     H22135  10.207   7.068   9.738 -1.6859 -1.6623 -0.8102
  164MOL0     H22136  10.243   7.272   9.848 -0.3117 -1.0935  1.1019
  164MOL0     H22137  10.106   7.214   9.918  1.7489 -0.9437  0.2350
  164MOL0     H22138  10.007   7.588   9.708 -0.0636 -0.1417  1.0783
  164MOL0     H22139  10.002   7.191   9.401 -1.2314  1.0829  1.9516
  164MOL0     H22140  10.012   7.147   9.156 -0.0067  0.0656  2.5154
  165MOL0     O22141  10.872   5.194   8.358  0.0660 -0.4277 -0.1136
  165MOL0     C22142  10.802   5.116   8.290 -1.0923 -0.0583  0.2606
  165MOL0     O22143  10.808   5.112   8.154 -0.1335  0.2305 -0.2114
  165MOL0     C22144  10.894   5.193   8.096 -0.2576  0.0692 -0.5517
  165MOL0     C22145  10.854   5.324   8.073 -0.2258 -0.5789 -1.0533
  165MOL0     C22146  10.941   5.415   8.011  0.0717 -0.7961  0.6974
  165MOL0     C22147  11.064   5.370   7.957  0.1694 -0.0047  0.6542
  165MOL0     O22148  11.150   5.456   7.899  0.4055 -0.7636 -0.0021
  165MOL0     C22149  11.124   5.590   7.833  0.1373 -0.8159 -0.4653
  165MOL0     C22150  11.080   5.580   7.694 -0.0063  0.2840  0.6736
  165MOL0     C22151  11.059   5.714   7.620  0.0286  0.1097 -0.1962
  165MOL0     C22152  11.056   5.696   7.464  0.5575 -0.3007  0.1395
  165MOL0     C22153  11.035   5.829   7.386 -0.8043  0.7727  0.5826
  165MOL0     C22154  11.020   5.811   7.228  0.1325 -0.4851 -0.4742
  165MOL0     C22155  10.987   5.937   7.159  0.3881  0.4326 -0.5354
  165MOL0     C22156  10.957   5.909   7.015 -0.3735  0.0786 -0.2302
  165MOL0     N22157  10.825   5.860   6.988  0.7969  0.2013  0.4758
  165MOL0     C22158  10.706   5.920   7.015 -0.8696  1.4493 -0.8783
  165MOL0     C22159  10.616   5.827   6.985  0.4152  0.4578 -0.3832
  165MOL0     C22160  10.465   5.839   6.994  0.0514 -0.2724  0.7744
  165MOL0     C22161  10.413   5.974   6.958 -0.2820  0.5641 -0.5447
  165MOL0     C22162  10.262   5.974   6.956 -0.3086 -0.0901  0.2682
  165MOL0     C22163  10.215   6.117   6.963  0.2777  0.8982  0.7761
  165MOL0     O22164  10.259   6.187   6.853  0.2096 -0.0262  0.2343
  165MOL0     C22165  10.192   6.297   6.819 -0.7212  0.9585  0.0843
  165MOL0     C22166  10.116   6.378   6.907 -0.1923 -0.3684 -1.1977
  165MOL0     C22167  10.055   6.496   6.863 -0.5214  0.6039  0.3177
  165MOL0     C22168   9.986   6.580   6.971  0.7624  0.9624  0.4794
  165MOL0     C22169  10.057   6.518   6.723 -0.0241 -0.1055  0.2425
  165MOL0     C22170   9.984   6.633   6.659 -0.4791  0.9600 -0.0754
  165MOL0     O22171   9.901   6.697   6.734  0.5841 -0.7464  0.1718
  165MOL0     C22172   9.807   6.791   6.685  0.4234  0.2990 -0.1745
  165MOL0     C22173   9.727   6.765   6.570 -1.0094 -0.1331 -0.0143
  165MOL0     C22174   9.622   6.849   6.540 -0.8480  0.3415 -0.4933
  165MOL0     C22175   9.604   6.976   6.596 -0.2507 -0.3131 -0.0112
  165MOL0     O22176   9.522   7.080   6.562 -0.0232  0.4611 -0.2516
  165MOL0     C22177   9.396   7.044   6.495  0.1159 -0.2457  0.7199
  165MOL0     C22178   9.315   7.170   6.455 -0.0961  0.1682  0.1449
  165MOL0     C22179   9.271   7.249   6.576  0.0721 -0.1196 -0.1050
  165MOL0     C22180   9.236   7.398   6.549  0.0256 -0.8962 -0.4623
  165MOL0     C22181   9.167   7.485   6.661  0.5920 -1.2016  0.2791
  165MOL0     C22182   9.258   7.499   6.786  0.6883  0.2772  0.2897
  165MOL0     C22183   9.175   7.555   6.905 -0.0699  0.8688  0.0374
  165MOL0     C22184   9.241   7.538   7.033  0.2483 -0.1945 -0.3257
  165MOL0    Cl22185   9.122   7.543   7.172  0.1759 -0.2935  0.1473
  165MOL0     C22186   9.681   7.000   6.717  0.3215 -0.4002 -0.6061
  165MOL0     C22187   9.787   6.909   6.747 -0.4301 -1.0086 -0.1975
  165MOL0     O22188  10.002   6.654   6.544  0.1956 -0.7458  0.2360
  165MOL0     C22189  10.120   6.424   6.633  0.5075  0.0743 -0.1451
  165MOL0     C22190  10.196   6.319   6.688  0.8080  0.6615  0.3812
  165MOL0     N22191  10.681   5.713   6.938  0.4326  0.5611  0.6253
  165MOL0     N22192  10.807   5.737   6.938 -0.0210  0.0955  0.0489
  165MOL0     C22193  11.098   5.237   7.977  0.9051  0.5488 -0.7774
  165MOL0     C22194  11.009   5.145   8.043 -0.4855 -0.3706  0.6655
  165MOL0     C22195  10.722   5.015   8.365  0.6544 -0.2702  0.3775
  165MOL0     C22196  10.649   4.920   8.290  0.2822  0.4472 -0.2048
  165MOL0     C22197  10.555   4.845   8.353  0.5476 -0.0347  0.4763
  165MOL0     C22198  10.522   4.867   8.486 -0.0664 -0.3366 -0.3207
  165MOL0     O22199  10.428   4.808   8.567 -0.2352 -0.0523 -0.4869
  165MOL0     C22200  10.365   4.692   8.528 -0.2695  0.0632  0.0493
  165MOL0     C22201  10.263   4.638   8.635 -0.5390  0.8657  0.0899
  165MOL0     C22202  10.189   4.732   8.727 -0.4201 -0.0133 -0.2297
  165MOL0     C22203  10.071   4.661   8.814 -0.0670 -0.2682  0.8970
  165MOL0     C22204   9.975   4.602   8.716 -0.7507  0.4812 -0.4249
  165MOL0     C22205   9.905   4.555   8.628 -0.4135  0.1566 -0.3484
  165MOL0     C22206  10.596   4.958   8.563 -0.4639  0.2069  0.0518
  165MOL0     C22207  10.695   5.033   8.501  0.4018  0.6233  0.4938
  165MOL0     H22208  10.760   5.356   8.117  0.9335  0.4102  0.8726
  165MOL0     H22209  10.925   5.523   8.012  1.8344 -0.5167  0.7658
  165MOL0     H22210  11.043   5.635   7.892  0.2499 -2.3606  0.9261
  165MOL0     H22211  11.208   5.660   7.838 -1.6247  1.5040 -0.9829
  165MOL0     H22212  11.157   5.522   7.641  0.0300 -1.2579  2.3120
  165MOL0     H22213  10.989   5.519   7.695 -0.3712  0.7248 -1.5785
  165MOL0     H22214  10.969   5.769   7.648 -0.9824 -0.5191 -2.0452
  165MOL0     H22215  11.134   5.790   7.643 -1.3891  1.6552 -0.5072
  165MOL0     H22216  11.155   5.653   7.442  2.1567  0.8954  4.1028
  165MOL0     H22217  10.979   5.623   7.436 -1.6829  3.4010 -4.8899
  165MOL0     H22218  10.940   5.868   7.425 -0.4045 -0.9707  3.6612
  165MOL0     H22219  11.113   5.903   7.407  1.1575 -0.5541 -1.5424
  165MOL0     H22220  11.112   5.770   7.186 -0.3815 -1.8886 -0.3031
  165MOL0     H22221  10.935   5.745   7.206 -0.5709  0.7446 -1.5462
  165MOL0     H22222  10.907   5.990   7.213 -1.1263 -2.8212  0.6545
  165MOL0     H22223  11.075   6.003   7.160  1.1797 -0.6054 -1.0381
  165MOL0     H22224  11.038   5.846   6.978  1.2848  2.2396 -0.5071
  165MOL0     H22225  10.970   6.004   6.961  0.8890 -0.4871 -0.9671
  165MOL0     H22226  10.691   6.024   7.043  1.9241  1.2662  1.8920
  165MOL0     H22227  10.418   5.764   6.929  0.7903 -0.3509  0.3289
  165MOL0     H22228  10.426   5.818   7.095 -0.5237  1.6725  0.9922
  165MOL0     H22229  10.455   5.993   6.858  0.6425 -4.6351 -1.4468
  165MOL0     H22230  10.454   6.050   7.025 -0.9618 -1.7472  2.7543
  165MOL0     H22231  10.212   5.915   7.033 -3.0329 -0.9838 -2.0244
  165MOL0     H22232  10.222   5.939   6.860 -3.2517  1.9569  0.6124
  165MOL0     H22233  10.253   6.165   7.054 -0.7861 -0.6087  2.0765
  165MOL0     H22234  10.106   6.121   6.968  0.0937 -1.1397 -0.5199
  165MOL0     H22235  10.124   6.355   7.012  1.1421  0.9797 -0.9615
  165MOL0     H22236  10.048   6.669   6.983  1.9118  0.3807 -0.8726
  165MOL0     H22237   9.882   6.594   6.939 -0.0429 -4.5813 -0.3860
  165MOL0     H22238   9.984   6.521   7.063  1.8435 -0.1830 -0.2026
  165MOL0     H22239   9.742   6.677   6.509 -0.6012  0.2313 -0.4390
  165MOL0     H22240   9.572   6.820   6.448 -3.5641  0.1023  0.9925
  165MOL0     H22241   9.414   6.991   6.401 -1.4762  1.3715 -0.5768
  165MOL0     H22242   9.332   6.985   6.561  1.4150  0.6804  2.9032
  165MOL0     H22243   9.379   7.228   6.388  0.8464  0.8086  1.5378
  165MOL0     H22244   9.228   7.121   6.410  1.1922 -2.0808 -0.0266
  165MOL0     H22245   9.341   7.239   6.659  2.8300 -0.8066 -2.3477
  165MOL0     H22246   9.178   7.200   6.606  1.3142 -1.6129  1.4656
  165MOL0     H22247   9.328   7.455   6.533 -0.3328  0.2855  1.3767
  165MOL0     H22248   9.161   7.401   6.469  0.1893 -1.3462 -0.6343
  165MOL0     H22249   9.072   7.439   6.689 -0.7850  1.7148  0.7545
  165MOL0     H22250   9.143   7.587   6.631  2.3219 -0.1891  2.0689
  165MOL0     H22251   9.301   7.401   6.807  0.2115  0.1904  0.8750
  165MOL0     H22252   9.341   7.560   6.749  0.0290  0.0631 -1.6774
  165MOL0     H22253   9.084   7.494   6.904  1.7878 -2.1753  0.9276
  165MOL0     H22254   9.163   7.663   6.902  1.3014  1.0310 -0.4349
  165MOL0     H22255   9.321   7.612   7.044  1.2856 -1.0418 -1.8348
  165MOL0     H22256   9.295   7.445   7.049  1.4504  0.8816  2.5677
  165MOL0     H22257   9.657   7.090   6.772 -3.5321 -1.4154 -0.3042
  165MOL0     H22258   9.854   6.930   6.830 -1.8357  0.3771  0.6461
  165MOL0     H22259  10.118   6.444   6.526  1.4365  1.3985  0.0587
  165MOL0     H22260  10.253   6.255   6.622  0.9261 -1.8221  2.7240
  165MOL0     H22261  11.194   5.192   7.955 -0.2752 -1.3575 -2.3378
  165MOL0     H22262  11.047   5.044   8.053  2.8983  0.5972 -1.0302
  165MOL0     H22263  10.661   4.907   8.183  0.0937  2.2866 -0.4846
  165MOL0     H22264  10.486   4.777   8.303 -0.5551 -0.1926  2.1433
  165MOL0     H22265  10.301   4.717   8.443 -2.7906 -0.8962  1.5416
  165MOL0     H22266  10.443   4.620   8.501  0.9486  0.8559  1.2991
  165MOL0     H22267  10.320   4.567   8.697 -0.7318 -1.7632 -2.5314
  165MOL0     H22268  10.191   4.579   8.577 -1.0141  0.3200  1.2008
  165MOL0     H22269  10.148   4.811   8.662  0.8104  3.5939  2.9901
  165MOL0     H22270  10.262   4.783   8.790 -0.3758 -1.2906  0.7804
  165MOL0     H22271  10.013   4.728   8.879  0.3923  3.2926 -2.0645
  165MOL0     H22272  10.127   4.592   8.878  0.4897 -1.6178 -0.9825
  165MOL0     H22273   9.855   4.520   8.540 -1.9295  3.9948 -1.1819
  165MOL0     H22274  10.574   4.988   8.665  0.7330 -0.7506  0.6120
  165MOL0     H22275  10.737   5.115   8.559 -0.3704  0.7584  0.8669
  166MOL0     O22276   5.711   6.470   4.703 -0.6713 -0.2941 -0.3588
  166MOL0     C22277   5.741   6.539   4.795  0.9285  0.5987  0.6967
  166MOL0     O22278   5.654   6.570   4.896 -0.1623  0.1711 -0.3518
  166MOL0     C22279   5.516   6.548   4.891  0.1023  0.2733  0.2265
  166MOL0     C22280   5.430   6.635   4.943  0.4321  0.2071 -0.2859
  166MOL0     C22281   5.289   6.623   4.947 -0.0142  0.6820  1.1281
  166MOL0     C22282   5.233   6.509   4.872  0.0655 -0.9478  0.1276
  166MOL0     O22283   5.095   6.492   4.862  0.2066 -0.4958  0.0372
  166MOL0     C22284   5.010   6.541   4.976  1.1648  0.3743  0.2590
  166MOL0     C22285   4.876   6.487   4.953  0.4699  0.9436 -0.3591
  166MOL0     C22286   4.774   6.551   5.053 -0.7224  0.6167  0.1408
  166MOL0     C22287   4.643   6.479   5.045 -0.2213 -0.6257 -0.2757
  166MOL0     C22288   4.550   6.536   5.152 -0.2902  0.7101 -0.5893
  166MOL0     C22289   4.585   6.472   5.290 -0.2300 -0.2400  0.6362
  166MOL0     C22290   4.453   6.435   5.357  0.6872 -0.1351 -0.6639
  166MOL0     C22291   4.492   6.376   5.489 -0.3892  0.2481 -0.2148
  166MOL0     N22292   4.381   6.339   5.578 -0.2909 -0.5040  0.0614
  166MOL0     C22293   4.263   6.276   5.544 -0.4677  0.3028 -0.0234
  166MOL0     C22294   4.198   6.258   5.655  0.3500 -0.8657 -0.9404
  166MOL0     C22295   4.077   6.176   5.680  0.5975  0.4076 -0.2413
  166MOL0     C22296   3.945   6.245   5.640 -0.4712 -0.7166  0.5603
  166MOL0     C22297   3.870   6.179   5.529  1.1571 -0.7777  0.0588
  166MOL0     C22298   3.722   6.230   5.526  0.0602  0.1530 -0.9497
  166MOL0     O22299   3.651   6.163   5.418  0.0107  0.2120  0.4196
  166MOL0     C22300   3.516   6.177   5.414  1.4176 -0.4519 -0.1444
  166MOL0     C22301   3.440   6.242   5.517  0.6572  0.3532  0.5309
  166MOL0     C22302   3.302   6.261   5.500 -0.0531  0.1845  1.1008
  166MOL0     C22303   3.227   6.332   5.606  0.2668  0.3405  0.5340
  166MOL0     C22304   3.235   6.196   5.399  0.4614 -0.4710 -0.0326
  166MOL0     C22305   3.093   6.163   5.395 -0.4848 -0.2215 -0.9239
  166MOL0     O22306   3.062   6.033   5.357 -0.0394 -0.9914  0.2169
  166MOL0     C22307   2.935   5.995   5.383  0.2179 -0.1348  0.5164
  166MOL0     C22308   2.811   6.066   5.347  0.4532 -0.0760 -0.0403
  166MOL0     C22309   2.687   6.013   5.353  0.4760  0.2544  0.1982
  166MOL0     C22310   2.672   5.888   5.416  0.4673 -0.3781 -0.4981
  166MOL0     O22311   2.555   5.817   5.430  0.5410 -0.6907  1.3184
  166MOL0     C22312   2.486   5.780   5.309  0.5847  0.1044 -0.3257
  166MOL0     C22313   2.393   5.660   5.332 -0.0572 -0.5132  0.9003
  166MOL0     C22314   2.475   5.542   5.367 -0.6992  0.0297  0.6237
  166MOL0     C22315   2.396   5.421   5.408  0.3376  0.1152 -0.1734
  166MOL0     C22316   2.293   5.365   5.303 -0.5214  0.2562  0.7500
  166MOL0     C22317   2.241   5.236   5.343  0.0810  0.1604 -0.4115
  166MOL0     C22318   2.125   5.197   5.251  0.6577 -0.0410 -0.0555
  166MOL0     C22319   2.065   5.071   5.302 -0.0132  0.1087  0.0891
  166MOL0    Cl22320   1.925   5.044   5.185 -0.0406 -0.4364  0.0991
  166MOL0     C22321   2.794   5.818   5.454  0.0381  0.2946 -0.3842
  166MOL0     C22322   2.922   5.866   5.436 -0.5264 -0.0779  0.3846
  166MOL0     O22323   3.010   6.249   5.421  0.0315  0.4242  0.6384
  166MOL0     C22324   3.313   6.140   5.294  0.6930  0.7053  0.0753
  166MOL0     C22325   3.452   6.128   5.307  0.0852 -0.3104 -0.5534
  166MOL0     N22326   4.268   6.318   5.758 -0.8029 -0.5963 -0.5675
  166MOL0     N22327   4.386   6.355   5.710  0.5372 -0.9540  0.2452
  166MOL0     C22328   5.326   6.411   4.827  0.2936 -0.1156 -0.8068
  166MOL0     C22329   5.464   6.429   4.843 -0.2398 -0.0143  0.3217
  166MOL0     C22330   5.875   6.592   4.801 -0.0322 -0.4970 -0.1986
  166MOL0     C22331   5.984   6.547   4.729 -0.1053 -0.7179 -0.3480
  166MOL0     C22332   6.105   6.610   4.746 -0.3897 -0.8164  0.0263
  166MOL0     C22333   6.123   6.725   4.823  0.5002  0.1697 -0.3970
  166MOL0     O22334   6.241   6.779   4.829 -0.6973  0.0137  1.0904
  166MOL0     C22335   6.243   6.892   4.729 -0.0148  0.9767 -0.3861
  166MOL0     C22336   6.293   7.025   4.794 -1.5170 -0.7977  1.0593
  166MOL0     C22337   6.214   7.060   4.915 -0.8780  0.4646  0.4928
  166MOL0     C22338   6.249   7.193   4.980 -0.0156 -0.1479  0.0113
  166MOL0     C22339   6.345   7.164   5.086  0.5171  0.1187 -0.8266
  166MOL0     C22340   6.430   7.161   5.177 -0.6616 -0.2764 -0.1133
  166MOL0     C22341   6.018   6.762   4.904 -0.7387 -0.3199 -0.4576
  166MOL0     C22342   5.895   6.698   4.884  0.0570  0.2798 -0.2251
  166MOL0     H22343   5.468   6.725   4.991 -0.3931 -0.9487  2.8181
  166MOL0     H22344   5.227   6.696   4.998 -0.0827  1.0153  0.5702
  166MOL0     H22345   5.053   6.504   5.069 -0.1660  2.3776  1.7518
  166MOL0     H22346   4.995   6.649   4.971 -4.1613 -0.1202 -2.5254
  166MOL0     H22347   4.843   6.499   4.850  1.3091 -2.2169 -1.0994
  166MOL0     H22348   4.881   6.378   4.965  0.6176  1.0367  0.4895
  166MOL0     H22349   4.820   6.556   5.153  0.9047  0.3443 -0.5635
  166MOL0     H22350   4.756   6.650   5.010 -0.5249  0.3998 -0.4472
  166MOL0     H22351   4.613   6.509   4.945 -1.4458  4.2238  1.2635
  166MOL0     H22352   4.653   6.370   5.053  1.8311 -0.4339  0.3851
  166MOL0     H22353   4.560   6.645   5.161  0.6364  0.5241  1.1624
  166MOL0     H22354   4.448   6.507   5.126 -0.6220 -0.3844  1.7026
  166MOL0     H22355   4.645   6.383   5.267 -2.0557 -0.9323 -1.9341
  166MOL0     H22356   4.644   6.547   5.342 -0.3893  0.4436 -0.1481
  166MOL0     H22357   4.376   6.513   5.353 -0.2701 -1.0799 -1.4586
  166MOL0     H22358   4.407   6.364   5.287 -3.5362  2.2676 -0.6927
  166MOL0     H22359   4.570   6.432   5.542  2.0367 -0.8086 -2.4786
  166MOL0     H22360   4.541   6.281   5.466  1.8687  0.6795  2.3552
  166MOL0     H22361   4.244   6.215   5.456 -0.4715  0.5726 -0.2096
  166MOL0     H22362   4.086   6.080   5.628  1.3373  0.6351 -0.5587
  166MOL0     H22363   4.060   6.151   5.785 -5.5231 -0.6168 -1.1265
  166MOL0     H22364   3.969   6.348   5.612  1.7766 -2.1020 -3.4604
  166MOL0     H22365   3.878   6.248   5.726 -0.7343 -2.0652  0.4222
  166MOL0     H22366   3.874   6.070   5.531 -1.0135 -0.8937  1.2466
  166MOL0     H22367   3.924   6.221   5.444  0.3694  0.4139  0.1247
  166MOL0     H22368   3.726   6.336   5.496  2.7070 -0.1398 -1.8752
  166MOL0     H22369   3.680   6.207   5.624 -0.1220 -0.6101 -1.2056
  166MOL0     H22370   3.487   6.280   5.607  1.1521  2.2186 -0.4811
  166MOL0     H22371   3.179   6.251   5.661  1.4415 -0.1037  0.9320
  166MOL0     H22372   3.285   6.390   5.678  1.9384  0.5686 -0.9003
  166MOL0     H22373   3.144   6.394   5.573  0.1291 -0.1746 -0.1082
  166MOL0     H22374   2.828   6.160   5.295 -2.5069 -1.0271 -3.1086
  166MOL0     H22375   2.599   6.068   5.323  1.6890  1.1370 -1.9413
  166MOL0     H22376   2.427   5.864   5.273  0.5000  0.3790  0.4357
  166MOL0     H22377   2.553   5.751   5.227  0.7202  0.4278 -0.3302
  166MOL0     H22378   2.316   5.670   5.408 -1.1548  1.8046 -0.4206
  166MOL0     H22379   2.348   5.633   5.236  2.4214 -3.4775  0.3987
  166MOL0     H22380   2.539   5.551   5.455 -0.7690 -2.3178  0.9799
  166MOL0     H22381   2.550   5.522   5.289  0.6906 -0.6015  2.0529
  166MOL0     H22382   2.466   5.355   5.459 -0.0489 -0.3289 -0.2029
  166MOL0     H22383   2.339   5.451   5.497 -0.9223  1.2678 -1.3081
  166MOL0     H22384   2.337   5.347   5.204 -0.6286 -1.2549  0.9602
  166MOL0     H22385   2.205   5.426   5.281 -0.6949 -1.2370 -3.7512
  166MOL0     H22386   2.323   5.164   5.338  0.4644  0.6313 -1.0241
  166MOL0     H22387   2.204   5.247   5.445 -1.0719 -1.5499 -0.5930
  166MOL0     H22388   2.174   5.182   5.154  3.5034 -0.7536  1.3638
  166MOL0     H22389   2.059   5.283   5.251  2.8996  1.7944  1.3256
  166MOL0     H22390   2.031   5.095   5.403  1.9945 -0.9006  1.0710
  166MOL0     H22391   2.133   4.985   5.302  0.4732  0.4798 -0.9207
  166MOL0     H22392   2.772   5.718   5.491 -1.2000  1.2115  1.5301
  166MOL0     H22393   3.004   5.807   5.476 -1.5354 -2.6721 -1.1018
  166MOL0     H22394   3.255   6.097   5.213 -0.6323 -2.5752  2.5235
  166MOL0     H22395   3.518   6.087   5.231 -1.2631 -4.3439  0.2345
  166MOL0     H22396   5.290   6.317   4.786 -2.4779  0.5855 -0.1792
  166MOL0     H22397   5.535   6.351   4.820 -1.6472 -1.3339  0.2793
  166MOL0     H22398   5.967   6.464   4.661 -0.1077 -3.5933  2.8960
  166MOL0     H22399   6.192   6.568   4.696 -0.8018  0.1224 -1.5760
  166MOL0     H22400   6.305   6.866   4.643 -1.1067 -3.8488 -0.0088
  166MOL0     H22401   6.142   6.910   4.692 -0.3775 -2.9123 -1.8172
  166MOL0     H22402   6.268   7.103   4.721  1.6041 -1.4829 -0.9824
  166MOL0     H22403   6.401   7.031   4.813 -1.4265  0.7924  0.2270
  166MOL0     H22404   6.215   6.977   4.987 -1.5041 -0.2435 -0.2979
  166MOL0     H22405   6.114   7.079   4.876 -0.0270  1.8037 -1.1819
  166MOL0     H22406   6.166   7.255   5.016  1.6239  0.5525  2.8559
  166MOL0     H22407   6.308   7.257   4.914  2.7878  0.2420  2.6469
  166MOL0     H22408   6.520   7.159   5.234 -1.0060 -0.1844  0.4486
  166MOL0     H22409   6.025   6.846   4.973 -1.0241 -1.2474  0.7316
  166MOL0     H22410   5.812   6.730   4.946  1.5697  1.2667  1.3625
  167MOL0     O22411   0.465  10.035  11.188  0.1832 -0.0432  0.3163
  167MOL0     C22412   0.461  10.054  11.068 -0.7342  0.3561 -0.2944
  167MOL0     O22413   0.398   9.974  10.980 -0.7314 -0.1972  0.5086
  167MOL0     C22414   0.272   9.943  11.012  0.5129  0.8018  0.0234
  167MOL0     C22415   0.177  10.044  11.007  0.2950  0.0868  0.4951
  167MOL0     C22416   0.042  10.022  11.051 -0.6004  0.0622 -1.0137
  167MOL0     C22417   0.001   9.885  11.085  0.9698 -0.3234  0.0568
  167MOL0     O22418  -0.131   9.863  11.097 -0.2502 -0.2123 -0.2253
  167MOL0     C22419  -0.169   9.893  11.225 -1.1573  0.3593  0.2318
  167MOL0     C22420  -0.308   9.953  11.224  0.6004  0.3940  0.7740
  167MOL0     C22421  -0.349  10.027  11.352 -0.9776  0.7980 -1.0669
  167MOL0     C22422  -0.499  10.081  11.361 -0.4949 -0.0972 -0.1124
  167MOL0     C22423  -0.500  10.221  11.429 -0.2397  0.6250 -0.2000
  167MOL0     C22424  -0.448  10.217  11.575 -0.6141  0.5051 -0.8467
  167MOL0     C22425  -0.561  10.181  11.676  0.9416  0.2903  0.2676
  167MOL0     C22426  -0.494  10.140  11.818 -0.3995 -0.7998 -0.0340
  167MOL0     N22427  -0.415  10.249  11.868 -0.4432  0.0968  0.2412
  167MOL0     C22428  -0.442  10.382  11.894  0.5934  0.1954  0.1611
  167MOL0     C22429  -0.323  10.433  11.916  0.6829 -0.2170  1.1270
  167MOL0     C22430  -0.331  10.582  11.954  0.0630 -0.4191 -0.0943
  167MOL0     C22431  -0.283  10.605  12.098  0.0077  0.3728  1.0029
  167MOL0     C22432  -0.133  10.626  12.102  0.4972 -0.3717 -0.1485
  167MOL0     C22433  -0.102  10.700  12.231  0.4869 -0.1904  0.3087
  167MOL0     O22434  -0.143  10.836  12.203 -0.4113 -0.7995  0.6306
  167MOL0     C22435  -0.153  10.922  12.310  1.0359  0.3700  0.4156
  167MOL0     C22436  -0.130  10.883  12.442  0.1998  0.4307  0.0211
  167MOL0     C22437  -0.148  10.975  12.546  0.1647 -0.7760 -1.5121
  167MOL0     C22438  -0.101  10.942  12.679 -0.4228  0.4804  0.4338
  167MOL0     C22439  -0.204  11.100  12.525  0.3409 -0.0459 -0.5731
  167MOL0     C22440  -0.247  11.194  12.630  0.7007 -0.1531 -1.0055
  167MOL0     O22441  -0.281  11.147  12.751 -0.0375  0.7252 -0.9195
  167MOL0     C22442  -0.258  11.238  12.849  0.0596 -0.1955 -0.5834
  167MOL0     C22443  -0.356  11.334  12.871 -0.1571  0.5732 -0.4399
  167MOL0     C22444  -0.356  11.403  12.990 -0.1736  1.0457  0.2718
  167MOL0     C22445  -0.260  11.386  13.088 -0.0257 -0.1284 -0.4399
  167MOL0     O22446  -0.286  11.446  13.208 -0.8419 -0.1261 -0.2347
  167MOL0     C22447  -0.295  11.353  13.317  0.2772  0.9685 -0.1775
  167MOL0     C22448  -0.375  11.427  13.429 -0.3776 -1.1438 -0.3191
  167MOL0     C22449  -0.423  11.337  13.539 -1.3286  0.5355  0.1051
  167MOL0     C22450  -0.531  11.243  13.484 -0.1236 -0.9334 -0.2958
  167MOL0     C22451  -0.601  11.161  13.596  0.1092 -1.0770 -0.3863
  167MOL0     C22452  -0.667  11.246  13.710  0.8021  0.0396  0.1751
  167MOL0     C22453  -0.748  11.169  13.818 -0.0562 -0.6784  0.5553
  167MOL0     C22454  -0.899  11.181  13.805 -0.3716 -0.2921 -0.0540
  167MOL0    Cl22455  -0.964  11.344  13.864 -0.3355  0.1678 -0.3819
  167MOL0     C22456  -0.157  11.295  13.066  0.1947  1.0604 -0.0359
  167MOL0     C22457  -0.164  11.216  12.951  0.5212  0.4807  0.5010
  167MOL0     O22458  -0.259  11.309  12.593  0.2509  1.1942 -0.3575
  167MOL0     C22459  -0.220  11.144  12.395 -0.9935 -0.3276 -0.0006
  167MOL0     C22460  -0.195  11.054  12.289 -0.0860 -0.4625 -1.2308
  167MOL0     N22461  -0.220  10.344  11.895 -0.0195  0.3699 -0.2040
  167MOL0     N22462  -0.281  10.238  11.861 -0.6309 -0.3462  0.1595
  167MOL0     C22463   0.094   9.782  11.093 -0.5675 -0.3972 -0.1343
  167MOL0     C22464   0.231   9.820  11.057  0.5630  0.6176 -0.0343
  167MOL0     C22465   0.559  10.144  11.026  0.3678  1.5086 -0.4329
  167MOL0     C22466   0.589  10.147  10.884 -0.0416 -0.6768 -0.5481
  167MOL0     C22467   0.694  10.215  10.847 -0.2316  0.0192 -0.0454
  167MOL0     C22468   0.771  10.293  10.931 -0.3364 -0.1605 -0.3074
  167MOL0     O22469   0.862  10.381  10.874  0.7652  0.3463 -1.1066
  167MOL0     C22470   0.934  10.482  10.949 -0.2521 -0.8844 -0.1577
  167MOL0     C22471   0.843  10.600  11.009 -0.6687  0.4729  0.6029
  167MOL0     C22472   0.774  10.683  10.899 -0.2869 -0.0273 -0.8980
  167MOL0     C22473   0.622  10.672  10.898 -0.0360  0.2939 -0.1661
  167MOL0     C22474   0.570  10.727  11.025  0.0159 -0.6671 -0.1792
  167MOL0     C22475   0.552  10.771  11.136  0.4901  0.2740 -0.5841
  167MOL0     C22476   0.747  10.284  11.068  0.6103  0.0066  0.3906
  167MOL0     C22477   0.641  10.211  11.121 -0.2336  0.8653  0.3491
  167MOL0     H22478   0.209  10.139  10.966 -1.2329 -0.5160 -2.4344
  167MOL0     H22479  -0.029  10.104  11.048  0.8947  1.3942 -1.0154
  167MOL0     H22480  -0.159   9.798  11.279  2.4624 -0.3321 -1.3421
  167MOL0     H22481  -0.111   9.973  11.272  1.4646 -1.9854  1.3410
  167MOL0     H22482  -0.314  10.016  11.135  2.0391 -0.7887 -0.2082
  167MOL0     H22483  -0.379   9.872  11.205  0.1112  1.1279 -0.7444
  167MOL0     H22484  -0.315   9.973  11.441  1.0358 -2.1283 -3.4497
  167MOL0     H22485  -0.291  10.119  11.345 -0.9100  0.8813  0.2638
  167MOL0     H22486  -0.533  10.091  11.257 -0.2957  1.6885 -0.0361
  167MOL0     H22487  -0.568  10.020  11.420  0.4408 -0.0577  1.0320
  167MOL0     H22488  -0.446  10.297  11.373  1.6555  0.0433  0.7533
  167MOL0     H22489  -0.600  10.265  11.438  0.6467  2.3442  2.0082
  167MOL0     H22490  -0.372  10.139  11.586 -1.9007 -0.7872 -0.7032
  167MOL0     H22491  -0.397  10.313  11.584  0.2780  0.0230 -0.7036
  167MOL0     H22492  -0.622  10.272  11.685  1.4957  0.4653  2.7771
  167MOL0     H22493  -0.625  10.096  11.650 -0.4363  0.9962  1.2857
  167MOL0     H22494  -0.446  10.042  11.808 -0.0725 -0.7423  0.8463
  167MOL0     H22495  -0.576  10.125  11.889 -0.1578 -0.2961  0.3610
  167MOL0     H22496  -0.540  10.429  11.894 -0.1460 -1.0881 -2.9171
  167MOL0     H22497  -0.288  10.650  11.880  0.8430 -0.6521  0.1338
  167MOL0     H22498  -0.436  10.612  11.955  0.1636 -0.0489 -0.3469
  167MOL0     H22499  -0.307  10.507  12.140 -1.6696 -0.6255 -1.9554
  167MOL0     H22500  -0.352  10.679  12.140 -1.0928  0.5974 -1.0562
  167MOL0     H22501  -0.098  10.688  12.019  0.3733  1.6960  1.2770
  167MOL0     H22502  -0.068  10.538  12.096  3.5701  1.8869 -3.3713
  167MOL0     H22503   0.004  10.698  12.259  0.4026 -0.0669  0.6336
  167MOL0     H22504  -0.159  10.661  12.315  1.2005  0.2501  1.0039
  167MOL0     H22505  -0.099  10.782  12.465  2.7799  1.5846  2.2317
  167MOL0     H22506  -0.175  10.926  12.758  0.1711 -1.7454  0.6016
  167MOL0     H22507  -0.041  10.851  12.675  0.1534  0.8738  0.0286
  167MOL0     H22508  -0.034  11.025  12.706 -0.1749  0.5351 -0.3097
  167MOL0     H22509  -0.441  11.350  12.806  0.3389  0.8722 -1.0204
  167MOL0     H22510  -0.437  11.474  13.002 -3.2137 -2.3212  1.5746
  167MOL0     H22511  -0.337  11.255  13.291 -0.2740  0.7754  1.3174
  167MOL0     H22512  -0.190  11.332  13.339  0.7629  1.5508 -1.8225
  167MOL0     H22513  -0.306  11.505  13.464  1.7064 -1.7963 -2.7019
  167MOL0     H22514  -0.459  11.481  13.385  1.3806  1.2500 -0.9503
  167MOL0     H22515  -0.459  11.408  13.614  2.5541  2.3250  0.5289
  167MOL0     H22516  -0.332  11.287  13.573  0.6134  3.4387 -0.4276
  167MOL0     H22517  -0.598  11.316  13.436  0.9712  1.7131  1.9079
  167MOL0     H22518  -0.492  11.180  13.404 -1.6602 -1.2261 -0.8580
  167MOL0     H22519  -0.529  11.084  13.628  0.2058 -1.3619 -1.2521
  167MOL0     H22520  -0.673  11.105  13.535 -2.3784 -1.5711  2.7449
  167MOL0     H22521  -0.591  11.304  13.763  0.8336  1.8556 -1.7702
  167MOL0     H22522  -0.725  11.323  13.658  3.8126  1.1182 -1.8259
  167MOL0     H22523  -0.721  11.213  13.914  1.2240 -1.4130  0.5572
  167MOL0     H22524  -0.728  11.061  13.820 -2.4049 -1.4742 -4.2278
  167MOL0     H22525  -0.959  11.101  13.850  0.5905 -0.2709  1.3041
  167MOL0     H22526  -0.931  11.173  13.700 -0.0870 -0.6559 -0.1150
  167MOL0     H22527  -0.093  11.273  13.151 -2.7159  0.1703  2.1034
  167MOL0     H22528  -0.104  11.125  12.943 -1.0670 -0.8180  2.4768
  167MOL0     H22529  -0.253  11.246  12.378 -3.0689 -0.3834  2.9369
  167MOL0     H22530  -0.217  11.099  12.192  0.0163  2.2832 -0.0863
  167MOL0     H22531   0.066   9.681  11.121 -2.0703  0.4970  1.8553
  167MOL0     H22532   0.302   9.739  11.069 -1.4904 -1.6066 -1.7195
  167MOL0     H22533   0.525  10.093  10.815  1.3977 -3.7944  0.3960
  167MOL0     H22534   0.722  10.221  10.742  0.4869 -0.0137  0.1389
  167MOL0     H22535   0.976  10.429  11.034 -1.8867  0.1149  1.3455
  167MOL0     H22536   1.009  10.524  10.881  1.3211 -0.4071  1.8027
  167MOL0     H22537   0.915  10.664  11.060  1.1136 -0.1687 -0.9831
  167MOL0     H22538   0.769  10.549  11.071  0.7090 -2.6925 -0.1648
  167MOL0     H22539   0.811  10.656  10.799  2.9953  1.5850 -0.2395
  167MOL0     H22540   0.796  10.790  10.905 -0.1134  0.2499 -4.4607
  167MOL0     H22541   0.591  10.567  10.895 -1.5572  0.6771  0.7801
  167MOL0     H22542   0.570  10.729  10.820  0.3822  4.8227  2.5535
  167MOL0     H22543   0.515  10.806  11.231 -0.3950  0.9896 -1.1740
  167MOL0     H22544   0.804  10.334  11.146 -0.5492 -0.6449  1.6933
  167MOL0     H22545   0.635  10.194  11.228  0.3108 -0.7079  0.1480
  168MOL0     O22546  10.437   4.707  11.118  0.1658 -0.2895 -0.0334
  168MOL0     C22547  10.522   4.625  11.093 -0.2062 -0.1171 -0.0983
  168MOL0     O22548  10.498   4.495  11.045 -0.8248 -0.0917 -0.3218
  168MOL0     C22549  10.370   4.455  11.026  0.2448  0.2162 -0.4734
  168MOL0     C22550  10.276   4.514  10.948 -0.4716 -0.1261  0.2365
  168MOL0     C22551  10.140   4.460  10.931  0.1119 -0.6548 -0.7162
  168MOL0     C22552  10.100   4.350  11.007 -0.3354 -0.8387 -0.7438
  168MOL0     O22553   9.973   4.311  10.998  0.1336  0.3599 -0.2101
  168MOL0     C22554   9.887   4.415  11.042 -0.1785 -0.5906  0.2323
  168MOL0     C22555   9.813   4.338  11.157  0.3197 -0.4723 -0.3716
  168MOL0     C22556   9.750   4.437  11.262 -0.2912  0.6597  0.0401
  168MOL0     C22557   9.654   4.544  11.205  0.2281 -0.5385  0.6762
  168MOL0     C22558   9.599   4.625  11.319 -0.8493 -0.6816 -0.0054
  168MOL0     C22559   9.493   4.723  11.268 -0.1995 -0.3630  0.3432
  168MOL0     C22560   9.456   4.812  11.381  0.1132  0.1754  0.3529
  168MOL0     C22561   9.383   4.939  11.339 -0.4927 -0.1008  0.2813
  168MOL0     N22562   9.374   5.034  11.450 -0.0754  0.3576  0.0596
  168MOL0     C22563   9.283   5.029  11.555 -0.8437 -0.1121  0.5808
  168MOL0     C22564   9.288   5.153  11.613 -0.4645  0.4516  0.9401
  168MOL0     C22565   9.221   5.193  11.733  0.0945 -0.1581 -0.3375
  168MOL0     C22566   9.074   5.211  11.718 -0.6591  0.2486  0.3246
  168MOL0     C22567   8.996   5.084  11.678 -0.0199 -0.4737 -0.4131
  168MOL0     C22568   8.846   5.066  11.710 -0.2698 -0.2213 -0.2911
  168MOL0     O22569   8.803   4.952  11.634  0.4196 -0.2096  0.2143
  168MOL0     C22570   8.668   4.916  11.638  0.0645 -1.3571 -0.3827
  168MOL0     C22571   8.561   4.994  11.676  0.5229  0.4386 -0.4532
  168MOL0     C22572   8.425   4.947  11.666 -0.2283  0.3990 -0.7658
  168MOL0     C22573   8.313   5.043  11.725 -1.5678 -1.2285 -0.0389
  168MOL0     C22574   8.401   4.831  11.591 -0.0828 -0.6255  0.1156
  168MOL0     C22575   8.269   4.788  11.547 -0.4959 -0.0114  0.0910
  168MOL0     O22576   8.257   4.657  11.495 -0.7615  1.1083 -0.2198
  168MOL0     C22577   8.129   4.602  11.518  0.5409  0.1048  0.3962
  168MOL0     C22578   8.104   4.522  11.634 -0.1699 -0.5419 -0.8983
  168MOL0     C22579   7.977   4.464  11.652 -0.2116 -0.3634  0.3724
  168MOL0     C22580   7.866   4.483  11.573 -0.8919  0.8117  0.0545
  168MOL0     O22581   7.751   4.409  11.589 -0.6977  0.8351 -0.5423
  168MOL0     C22582   7.632   4.469  11.547  0.0536  0.3548 -0.5079
  168MOL0     C22583   7.520   4.425  11.642 -0.4155 -0.0196 -0.2790
  168MOL0     C22584   7.454   4.291  11.598  0.9965  0.7208  0.3325
  168MOL0     C22585   7.372   4.230  11.717 -0.7739 -0.8064 -0.4829
  168MOL0     C22586   7.461   4.137  11.799  0.6221 -0.8400  0.0683
  168MOL0     C22587   7.409   4.112  11.946 -0.0437  0.1826 -0.5884
  168MOL0     C22588   7.275   4.037  11.961 -0.1457 -0.7779  0.5447
  168MOL0     C22589   7.295   3.893  11.921  0.3929  0.7737 -0.5493
  168MOL0    Cl22590   7.131   3.826  11.894 -0.0634 -0.2885  0.5173
  168MOL0     C22591   7.888   4.565  11.458  0.4257 -0.4198  0.9604
  168MOL0     C22592   8.018   4.623  11.432 -1.4229  0.2392  0.1174
  168MOL0     O22593   8.173   4.862  11.564  0.4037 -0.1159 -0.2685
  168MOL0     C22594   8.513   4.747  11.547 -0.2299 -0.3098  0.3088
  168MOL0     C22595   8.636   4.797  11.576 -0.9808 -0.5766 -0.4120
  168MOL0     N22596   9.372   5.235  11.536  0.4317 -0.1027 -1.1986
  168MOL0     N22597   9.430   5.162  11.444 -0.8795  0.8060  0.3653
  168MOL0     C22598  10.200   4.289  11.090  0.1199  0.0459 -0.2366
  168MOL0     C22599  10.333   4.341  11.097 -0.5544 -0.3454  0.5529
  168MOL0     C22600  10.664   4.664  11.111 -0.5028  0.0535  0.4900
  168MOL0     C22601  10.704   4.788  11.146  0.0911 -1.3943 -0.5640
  168MOL0     C22602  10.839   4.826  11.160  0.1308 -0.1358  0.4491
  168MOL0     C22603  10.941   4.732  11.125 -0.3962 -0.2405 -0.0177
  168MOL0     O22604  11.072   4.754  11.144 -0.8447 -0.2620  0.1360
  168MOL0     C22605  11.112   4.872  11.207 -0.2202 -1.2099 -0.5841
  168MOL0     C22606  11.274   4.889  11.198  0.0729  0.1958  0.2443
  168MOL0     C22607  11.341   4.915  11.063  0.4860  0.2946  0.4393
  168MOL0     C22608  11.285   5.038  10.984  0.1769  0.2902  0.0460
  168MOL0     C22609  11.339   5.051  10.852 -0.2471  0.7737 -0.5899
  168MOL0     C22610  11.390   5.055  10.740  0.7802  1.0146 -1.0674
  168MOL0     C22611  10.903   4.600  11.086  0.2336  0.1722 -0.0020
  168MOL0     C22612  10.765   4.565  11.077  0.1282 -0.9289 -0.5362
  168MOL0     H22613  10.311   4.592  10.881 -0.7302  0.2948  0.5848
  168MOL0     H22614  10.067   4.507  10.866 -0.9620 -0.3678  0.6613
  168MOL0     H22615   9.936   4.503  11.085 -1.4954  1.6031 -2.4084
  168MOL0     H22616   9.825   4.462  10.964  2.9029 -0.7365 -2.5167
  168MOL0     H22617   9.724   4.284  11.120 -1.5381  3.2713 -1.9280
  168MOL0     H22618   9.883   4.265  11.198  0.3585 -0.0972  0.2423
  168MOL0     H22619   9.694   4.380  11.336  0.3636  0.0618  0.0834
  168MOL0     H22620   9.832   4.488  11.311  0.2165  0.7453 -0.8724
  168MOL0     H22621   9.704   4.604  11.129  0.3822 -2.3613 -0.7320
  168MOL0     H22622   9.568   4.495  11.158  0.3048  1.3364 -1.6073
  168MOL0     H22623   9.561   4.561  11.399 -3.7579 -1.0134 -1.5207
  168MOL0     H22624   9.679   4.686  11.361 -3.4365  2.1042  1.2463
  168MOL0     H22625   9.535   4.767  11.177  1.9680 -0.2170  1.3423
  168MOL0     H22626   9.404   4.667  11.239  0.7198 -2.8418  2.0075
  168MOL0     H22627   9.395   4.751  11.448 -0.9039 -2.0279 -2.3951
  168MOL0     H22628   9.547   4.852  11.427  0.3658  0.3138 -0.2584
  168MOL0     H22629   9.286   4.907  11.302  0.5325 -4.1758  0.6256
  168MOL0     H22630   9.446   4.989  11.265 -3.0763  0.3243 -1.7815
  168MOL0     H22631   9.232   4.942  11.594 -1.2898  0.1835  0.6690
  168MOL0     H22632   9.265   5.139  11.818 -0.1332 -5.0396 -2.9819
  168MOL0     H22633   9.251   5.297  11.753 -1.8121  0.2231  0.8214
  168MOL0     H22634   9.066   5.294  11.647 -2.3376  1.1265  1.4553
  168MOL0     H22635   9.041   5.256  11.812  3.9242  1.4605  1.6089
  168MOL0     H22636   9.046   4.996  11.721  1.8467  1.3553  1.3973
  168MOL0     H22637   9.018   5.080  11.571  2.3014 -0.0288 -0.0133
  168MOL0     H22638   8.786   5.149  11.672 -2.4403 -2.3515 -1.8843
  168MOL0     H22639   8.832   5.058  11.818 -2.5273 -0.0126 -0.5103
  168MOL0     H22640   8.573   5.093  11.719  2.6444 -0.2403  0.6373
  168MOL0     H22641   8.344   5.100  11.813  2.6617  0.2454 -2.1907
  168MOL0     H22642   8.290   5.119  11.650  2.8276 -0.3166 -0.7220
  168MOL0     H22643   8.231   4.979  11.758 -3.1181 -1.7656 -4.2894
  168MOL0     H22644   8.189   4.507  11.699 -0.4235 -0.1720 -0.4823
  168MOL0     H22645   7.966   4.411  11.746  2.1256  0.1673  1.0249
  168MOL0     H22646   7.649   4.574  11.569  0.9092  0.3139 -0.9425
  168MOL0     H22647   7.617   4.463  11.439  3.3291 -0.3266 -1.0226
  168MOL0     H22648   7.555   4.415  11.745 -2.8949  0.7739  0.7043
  168MOL0     H22649   7.448   4.506  11.655 -0.9317 -0.4974 -0.1599
  168MOL0     H22650   7.528   4.218  11.566  1.3465  1.3119 -0.2117
  168MOL0     H22651   7.383   4.315  11.518  0.4911 -0.5125  0.3885
  168MOL0     H22652   7.312   4.305  11.770  1.8734 -0.5503  2.4433
  168MOL0     H22653   7.308   4.160  11.661  1.0855 -1.8348 -1.4347
  168MOL0     H22654   7.562   4.177  11.816  0.5758 -0.3272 -0.7979
  168MOL0     H22655   7.487   4.042  11.751 -3.2514 -2.1084  0.1485
  168MOL0     H22656   7.487   4.066  12.007  0.5192  0.2430 -1.2516
  168MOL0     H22657   7.398   4.215  11.980  1.3021 -0.4196  1.8672
  168MOL0     H22658   7.199   4.094  11.905  1.4559  2.0687  1.0400
  168MOL0     H22659   7.243   4.050  12.065 -3.4287  0.0025 -0.4392
  168MOL0     H22660   7.357   3.835  11.991 -1.1586 -1.8665 -1.2115
  168MOL0     H22661   7.345   3.888  11.824  0.1153  3.0182 -0.8696
  168MOL0     H22662   7.815   4.581  11.380  0.5377  1.9252  1.2668
  168MOL0     H22663   8.023   4.691  11.348 -1.0585  3.0262  2.2477
  168MOL0     H22664   8.507   4.657  11.487  0.0582 -0.1794  0.0783
  168MOL0     H22665   8.727   4.740  11.560  1.7914  2.6135  2.1910
  168MOL0     H22666  10.173   4.207  11.155  1.6967  0.2580  0.7382
  168MOL0     H22667  10.406   4.288  11.158 -1.9672 -1.9189  0.9428
  168MOL0     H22668  10.633   4.866  11.172  2.4210  0.8552 -0.5428
  168MOL0     H22669  10.862   4.930  11.181  2.8182 -0.4473 -0.5223
  168MOL0     H22670  11.084   4.966  11.160  0.0611 -1.3650 -1.0658
  168MOL0     H22671  11.076   4.878  11.310  2.4256 -2.2817  0.4855
  168MOL0     H22672  11.323   4.799  11.237 -0.7450 -0.3248  0.1045
  168MOL0     H22673  11.288   4.976  11.262  2.0846  0.6310 -0.7257
  168MOL0     H22674  11.336   4.830  10.993 -0.4267 -0.0235  0.8725
  168MOL0     H22675  11.448   4.934  11.074  0.6076 -0.1293  0.0504
  168MOL0     H22676  11.297   5.124  11.052 -2.1401  0.8534 -0.1732
  168MOL0     H22677  11.177   5.042  10.970  0.4263  0.5692 -2.1108
  168MOL0     H22678  11.431   5.059  10.641  0.5949 -1.2347 -1.2901
  168MOL0     H22679  10.973   4.520  11.065 -0.5877 -0.8644  1.1224
  168MOL0     H22680  10.744   4.462  11.051 -1.2485 -0.4903 -1.2920
  169MOL0     O22681   3.691  11.033   2.312 -0.3299  0.1388 -0.2255
  169MOL0     C22682   3.805  11.050   2.352  0.2115  0.8620  0.1790
  169MOL0     O22683   3.851  11.054   2.483  0.3531  0.4186  0.4025
  169MOL0     C22684   3.749  11.060   2.573  0.4492 -0.2100 -0.2723
  169MOL0     C22685   3.761  10.993   2.688 -0.9353  0.1556  0.3496
  169MOL0     C22686   3.666  11.000   2.788  0.6935  0.2902 -0.6574
  169MOL0     C22687   3.555  11.084   2.786 -0.6119 -0.1418 -0.5168
  169MOL0     O22688   3.444  11.090   2.864 -0.3742  0.5924  0.1032
  169MOL0     C22689   3.417  10.972   2.938  0.3075 -0.3078  0.0197
  169MOL0     C22690   3.358  10.853   2.862 -0.1049  0.1094 -0.3405
  169MOL0     C22691   3.349  10.722   2.946  0.1430  0.0701 -0.0804
  169MOL0     C22692   3.281  10.606   2.882 -0.2028 -0.3083 -0.5732
  169MOL0     C22693   3.137  10.574   2.925  0.0148  0.3252 -0.0404
  169MOL0     C22694   3.048  10.695   2.906 -0.3064 -0.2431 -0.8535
  169MOL0     C22695   2.905  10.671   2.946  0.1665 -0.5313  0.1757
  169MOL0     C22696   2.817  10.579   2.866 -0.3589  1.1549 -0.0789
  169MOL0     N22697   2.812  10.608   2.722  0.4538  0.4198  0.5464
  169MOL0     C22698   2.768  10.718   2.663 -0.0381 -0.2900 -0.2978
  169MOL0     C22699   2.779  10.707   2.527 -0.3529 -0.1938 -0.5194
  169MOL0     C22700   2.747  10.791   2.417 -0.4962  0.8931 -0.3521
  169MOL0     C22701   2.597  10.763   2.391 -0.0971  0.0976 -0.2682
  169MOL0     C22702   2.537  10.841   2.272 -0.6060 -0.1000  0.2848
  169MOL0     C22703   2.398  10.792   2.229  1.0259 -0.6147 -0.1077
  169MOL0     O22704   2.414  10.658   2.177  0.4149 -0.3517 -0.4762
  169MOL0     C22705   2.302  10.590   2.149  0.2651 -0.2121 -0.7097
  169MOL0     C22706   2.288  10.468   2.221 -0.3290 -0.0896  0.6273
  169MOL0     C22707   2.178  10.384   2.199  0.0292 -0.6755  0.1041
  169MOL0     C22708   2.188  10.257   2.279 -0.9095  0.1150  0.8033
  169MOL0     C22709   2.080  10.417   2.108  0.4545  0.3471 -0.6110
  169MOL0     C22710   1.959  10.337   2.078  0.0792 -0.9361  0.7468
  169MOL0     O22711   1.870  10.393   1.991  0.4853  0.4170 -0.1083
  169MOL0     C22712   1.760  10.315   1.962  0.0978 -1.1643 -0.2267
  169MOL0     C22713   1.772  10.215   1.862  0.9547 -0.2332 -0.2586
  169MOL0     C22714   1.657  10.146   1.818  0.5247  0.2608  0.1004
  169MOL0     C22715   1.533  10.175   1.862  0.8589 -0.4668  0.1848
  169MOL0     O22716   1.421  10.096   1.823 -0.2160 -0.3999  0.3488
  169MOL0     C22717   1.314  10.077   1.920  0.5553  0.6690  0.6723
  169MOL0     C22718   1.233   9.949   1.874 -0.0866  0.1133  0.6035
  169MOL0     C22719   1.105   9.944   1.956 -0.0492  0.2385 -0.9174
  169MOL0     C22720   1.031   9.807   1.959 -0.3319 -0.6930 -0.4743
  169MOL0     C22721   0.906   9.824   2.050  0.3769 -0.9310  0.0211
  169MOL0     C22722   0.891   9.710   2.140  0.3439 -0.0716 -0.3183
  169MOL0     C22723   0.740   9.704   2.191 -0.5711  0.3824 -0.9615
  169MOL0     C22724   0.709   9.613   2.303  0.4939  0.0587 -0.6960
  169MOL0    Cl22725   0.535   9.624   2.343  0.2575  0.2523  0.0320
  169MOL0     C22726   1.520  10.275   1.955  0.2130 -0.2100 -0.8049
  169MOL0     C22727   1.632  10.346   2.004 -0.1447  0.5544  0.7559
  169MOL0     O22728   1.939  10.226   2.124  0.7599  0.5040 -0.7188
  169MOL0     C22729   2.095  10.542   2.037 -0.6008 -0.1833  0.3623
  169MOL0     C22730   2.203  10.629   2.050  0.1161 -0.0473  0.8061
  169MOL0     N22731   2.843  10.590   2.501  0.1576  0.3495  0.1101
  169MOL0     N22732   2.862  10.531   2.613 -0.0235  0.2747 -0.1720
  169MOL0     C22733   3.552  11.163   2.668 -0.0504  1.1978 -0.2566
  169MOL0     C22734   3.653  11.159   2.574  1.1198  0.9600  0.3888
  169MOL0     C22735   3.903  11.058   2.241 -0.4284  0.8444 -0.4787
  169MOL0     C22736   3.865  11.052   2.107 -0.8315  0.4612  0.2149
  169MOL0     C22737   3.962  11.074   2.010 -0.7700 -0.6712  0.3983
  169MOL0     C22738   4.099  11.095   2.041  0.3035  0.4093 -0.1185
  169MOL0     O22739   4.194  11.098   1.935  0.2287  0.3879 -0.1404
  169MOL0     C22740   4.278  11.220   1.917  0.7096  0.8132  0.1145
  169MOL0     C22741   4.259  11.263   1.774 -0.0678 -0.5120  0.3998
  169MOL0     C22742   4.118  11.326   1.747  0.2835  0.7425  0.6272
  169MOL0     C22743   4.088  11.387   1.609 -0.1849 -0.8696  0.0065
  169MOL0     C22744   4.184  11.493   1.568  0.4090  0.3665 -0.6522
  169MOL0     C22745   4.251  11.593   1.539 -0.1912 -0.3306  0.4633
  169MOL0     C22746   4.140  11.087   2.171 -0.0134  0.0374 -0.0462
  169MOL0     C22747   4.040  11.079   2.274 -0.5384 -0.0147  0.2525
  169MOL0     H22748   3.842  10.921   2.691  0.7912  1.9628 -0.5529
  169MOL0     H22749   3.694  10.941   2.875 -2.1720  1.6207  1.3594
  169MOL0     H22750   3.511  10.947   2.988 -0.4994  1.1030  2.3681
  169MOL0     H22751   3.343  10.996   3.014 -0.8871 -1.7127 -0.6660
  169MOL0     H22752   3.259  10.894   2.840 -0.7567  1.2299  3.7493
  169MOL0     H22753   3.402  10.821   2.767 -0.4838 -4.0685  0.6737
  169MOL0     H22754   3.449  10.699   2.985 -1.4038 -4.5008  1.9093
  169MOL0     H22755   3.287  10.742   3.033 -0.2217 -0.9559 -0.0947
  169MOL0     H22756   3.277  10.623   2.775  0.9356 -1.0515 -0.7537
  169MOL0     H22757   3.346  10.520   2.902  0.2597 -0.6999 -3.3532
  169MOL0     H22758   3.095  10.493   2.866  1.7607 -0.7935  0.1870
  169MOL0     H22759   3.130  10.544   3.030  0.0247 -0.2733 -0.2096
  169MOL0     H22760   3.081  10.777   2.970  2.9279 -1.5571 -0.6406
  169MOL0     H22761   3.053  10.732   2.803 -1.0146  1.0192 -0.4478
  169MOL0     H22762   2.909  10.643   3.052 -0.0611 -2.9506 -0.4068
  169MOL0     H22763   2.858  10.770   2.944 -0.0231 -0.5766 -3.2814
  169MOL0     H22764   2.716  10.579   2.910  0.4080 -2.3904  2.0488
  169MOL0     H22765   2.848  10.475   2.877  0.2656  1.4173  0.7333
  169MOL0     H22766   2.717  10.796   2.719  1.8306  1.9192 -1.4939
  169MOL0     H22767   2.768  10.897   2.426 -0.0333  0.8423 -0.7882
  169MOL0     H22768   2.806  10.766   2.328  0.0055 -2.0253  0.6934
  169MOL0     H22769   2.550  10.794   2.485  3.0901  4.2197  0.2577
  169MOL0     H22770   2.569  10.658   2.382 -2.6959  0.4395  2.2016
  169MOL0     H22771   2.607  10.849   2.189 -0.0746  0.9210  0.8108
  169MOL0     H22772   2.531  10.941   2.316 -1.6907 -0.0590  0.0540
  169MOL0     H22773   2.351  10.860   2.157  3.6006  1.1682 -0.2623
  169MOL0     H22774   2.329  10.797   2.313 -0.2436 -1.3898 -1.0710
  169MOL0     H22775   2.373  10.432   2.278  1.5964  2.0921 -0.7034
  169MOL0     H22776   2.292  10.236   2.308 -0.4903 -0.4656 -0.9943
  169MOL0     H22777   2.130  10.273   2.371  0.1377  0.7751  1.3738
  169MOL0     H22778   2.165  10.174   2.213  0.6214  0.4960 -0.2656
  169MOL0     H22779   1.867  10.188   1.816 -0.1626 -3.0647 -1.0965
  169MOL0     H22780   1.675  10.073   1.740 -3.8649  0.7448 -1.6689
  169MOL0     H22781   1.373  10.049   2.008  0.0589 -0.3988  0.6924
  169MOL0     H22782   1.255  10.168   1.936  1.3942  1.7202 -1.7544
  169MOL0     H22783   1.213   9.940   1.767 -1.4995 -1.5481  0.9618
  169MOL0     H22784   1.289   9.859   1.900  2.0231  0.7115 -1.5196
  169MOL0     H22785   1.035  10.014   1.909 -1.0763 -0.8109 -1.0246
  169MOL0     H22786   1.131   9.980   2.056  4.1707 -1.3403 -1.2436
  169MOL0     H22787   1.005   9.770   1.859 -0.6575 -5.4589  1.1423
  169MOL0     H22788   1.107   9.741   2.000 -2.3791 -1.3895  2.5519
  169MOL0     H22789   0.818   9.836   1.986  0.3145 -2.1807 -0.1627
  169MOL0     H22790   0.906   9.920   2.103 -0.6100  1.7950 -4.3916
  169MOL0     H22791   0.917   9.616   2.092 -2.7164 -0.6139 -1.1281
  169MOL0     H22792   0.949   9.725   2.232 -0.8036  2.6549  0.0451
  169MOL0     H22793   0.673   9.680   2.108  1.3160  0.7178 -2.6694
  169MOL0     H22794   0.713   9.804   2.228  0.6652  0.2770  0.3122
  169MOL0     H22795   0.770   9.644   2.388  1.9742 -0.7796 -1.3985
  169MOL0     H22796   0.730   9.509   2.276 -1.3602  0.1617 -2.8252
  169MOL0     H22797   1.422  10.299   1.996  0.5014  4.3888 -2.2194
  169MOL0     H22798   1.616  10.434   2.065 -0.9507  1.1402 -0.2600
  169MOL0     H22799   2.023  10.571   1.961 -1.0302  2.6468  1.7083
  169MOL0     H22800   2.210  10.711   1.979  1.0937  0.0162  0.9636
  169MOL0     H22801   3.473  11.237   2.664 -2.1773 -0.3093  5.1055
  169MOL0     H22802   3.661  11.230   2.492 -2.0276 -0.4703 -1.3452
  169MOL0     H22803   3.764  11.032   2.072 -0.3967 -0.3768 -0.6203
  169MOL0     H22804   3.941  11.060   1.904  0.2859 -1.5841  0.2923
  169MOL0     H22805   4.258  11.298   1.991 -0.0954 -0.3215  1.1362
  169MOL0     H22806   4.382  11.188   1.928  0.8079  1.3130  0.7481
  169MOL0     H22807   4.275  11.180   1.704 -2.1855  0.9877 -2.0870
  169MOL0     H22808   4.333  11.343   1.761 -0.1918 -0.7884 -3.1750
  169MOL0     H22809   4.099  11.403   1.822 -0.1978 -1.5764  3.0402
  169MOL0     H22810   4.056  11.239   1.769  0.7249  0.2119 -0.1474
  169MOL0     H22811   3.989  11.432   1.622  0.2904  0.7677 -1.6293
  169MOL0     H22812   4.088  11.319   1.524 -3.2985 -0.6520 -0.2917
  169MOL0     H22813   4.293  11.686   1.507 -3.0720  0.5621 -1.0815
  169MOL0     H22814   4.244  11.091   2.201 -0.4629  0.4007  1.5710
  169MOL0     H22815   4.080  11.074   2.375 -2.2509 -0.3948  0.9376
  170MOL0     O22816   4.392   3.978   2.498  0.1143  0.1274  0.0801
  170MOL0     C22817   4.350   4.053   2.587 -0.0025  0.4414 -0.1515
  170MOL0     O22818   4.436   4.134   2.660  0.1435 -0.1487  1.0757
  170MOL0     C22819   4.567   4.144   2.622 -0.2246 -0.5274 -0.6559
  170MOL0     C22820   4.652   4.043   2.660  0.2903  0.5549  0.2043
  170MOL0     C22821   4.788   4.061   2.663  0.2625 -0.0336  0.3513
  170MOL0     C22822   4.842   4.183   2.621 -1.2156 -0.0200  0.8369
  170MOL0     O22823   4.978   4.172   2.628  0.8194 -0.9644  0.3542
  170MOL0     C22824   5.053   4.290   2.595 -0.5225 -0.1522  0.3889
  170MOL0     C22825   5.207   4.257   2.585  0.6743 -0.0824 -0.1639
  170MOL0     C22826   5.276   4.294   2.722 -0.0091  0.8222  0.7396
  170MOL0     C22827   5.381   4.179   2.747  0.0196  0.0984 -0.3302
  170MOL0     C22828   5.435   4.185   2.889 -0.3685  0.2801 -0.7445
  170MOL0     C22829   5.532   4.074   2.920  0.8743  0.0886  0.4096
  170MOL0     C22830   5.606   4.108   3.042 -0.0996  0.3638  0.1174
  170MOL0     C22831   5.709   4.006   3.088  0.7876 -0.0218 -0.7615
  170MOL0     N22832   5.648   3.872   3.083 -0.4692 -0.1862  0.3525
  170MOL0     C22833   5.671   3.789   2.976 -0.5847 -0.2560 -0.8396
  170MOL0     C22834   5.617   3.673   3.012  0.1512 -0.1301 -0.1654
  170MOL0     C22835   5.597   3.556   2.930  0.4074 -0.3038 -0.6949
  170MOL0     C22836   5.506   3.590   2.816 -0.2121 -0.8761  0.3826
  170MOL0     C22837   5.359   3.557   2.829 -0.7632  0.3609 -0.0476
  170MOL0     C22838   5.277   3.670   2.895 -0.1486  0.6792 -0.1784
  170MOL0     O22839   5.140   3.636   2.894 -0.3032  0.6411  0.4966
  170MOL0     C22840   5.048   3.722   2.934 -0.0064 -0.1806 -0.5387
  170MOL0     C22841   5.066   3.858   2.969 -0.2304  0.0118 -1.2469
  170MOL0     C22842   4.957   3.942   3.013 -0.7680  0.8917 -0.1082
  170MOL0     C22843   4.998   4.085   3.047  0.2439 -0.2891  0.2155
  170MOL0     C22844   4.828   3.892   3.012  0.6533  0.0456 -0.4793
  170MOL0     C22845   4.702   3.959   3.053  0.1795  0.3285 -0.0841
  170MOL0     O22846   4.585   3.915   3.001  0.4257  0.2710  0.9399
  170MOL0     C22847   4.479   3.993   3.040 -0.2344 -0.1944  0.2233
  170MOL0     C22848   4.458   4.119   2.988  0.5680 -0.2274  0.1624
  170MOL0     C22849   4.342   4.182   3.026  0.3689  0.1287  0.0661
  170MOL0     C22850   4.256   4.137   3.126 -0.4073  0.2375  0.3727
  170MOL0     O22851   4.145   4.213   3.142 -0.1835 -0.1266  0.1746
  170MOL0     C22852   4.141   4.288   3.265 -0.1483 -0.3166 -0.3481
  170MOL0     C22853   4.049   4.405   3.269  0.1227  0.0956 -0.3161
  170MOL0     C22854   3.895   4.387   3.222  0.2799  0.1501 -0.1365
  170MOL0     C22855   3.819   4.515   3.223 -1.1429 -0.3746 -0.1807
  170MOL0     C22856   3.680   4.503   3.164 -0.0893  0.0196 -0.5360
  170MOL0     C22857   3.583   4.437   3.265 -0.6455 -0.5831 -0.3137
  170MOL0     C22858   3.435   4.457   3.218  0.4357  0.2970 -0.8025
  170MOL0     C22859   3.356   4.359   3.306 -0.3583  0.2428 -1.1181
  170MOL0    Cl22860   3.185   4.378   3.248  0.4039 -0.5183 -0.0469
  170MOL0     C22861   4.276   4.019   3.190 -1.0070  0.5958 -0.0697
  170MOL0     C22862   4.389   3.944   3.142 -0.9940 -0.5729  0.0824
  170MOL0     O22863   4.715   4.055   3.130  0.0334 -0.1581 -0.0896
  170MOL0     C22864   4.810   3.758   2.973 -0.2135  0.2548  0.0321
  170MOL0     C22865   4.915   3.677   2.943 -0.8567  0.3171  0.0034
  170MOL0     N22866   5.564   3.687   3.136 -0.4279 -0.3105 -0.6738
  170MOL0     N22867   5.567   3.808   3.171  0.3078 -0.2566  0.2615
  170MOL0     C22868   4.760   4.286   2.574  0.2509  0.2670  0.2777
  170MOL0     C22869   4.622   4.268   2.584  0.1285  0.6135  0.5284
  170MOL0     C22870   4.211   4.057   2.619  0.0950 -0.2775 -0.2142
  170MOL0     C22871   4.119   3.952   2.581  0.4855  0.4565 -0.3625
  170MOL0     C22872   3.984   3.949   2.604 -0.2062 -0.7802  0.8963
  170MOL0     C22873   3.929   4.064   2.672 -0.6166 -0.2501  0.1955
  170MOL0     O22874   3.789   4.055   2.686 -0.0150  0.8953 -0.0885
  170MOL0     C22875   3.716   4.147   2.768 -0.6288 -0.2739 -0.4699
  170MOL0     C22876   3.572   4.094   2.782 -1.0224 -0.5457  0.7956
  170MOL0     C22877   3.473   4.208   2.806  0.7207 -0.1417 -0.6767
  170MOL0     C22878   3.370   4.168   2.915 -0.2830 -0.0274 -0.0715
  170MOL0     C22879   3.303   4.045   2.869  0.0046  0.2361  0.1832
  170MOL0     C22880   3.259   3.946   2.813 -0.3185  0.7046  0.0580
  170MOL0     C22881   4.013   4.170   2.713  1.0066 -0.6814  0.6535
  170MOL0     C22882   4.161   4.166   2.693  0.8674  0.1123 -0.7362
  170MOL0     H22883   4.613   3.949   2.699 -2.8518  2.4647  2.1767
  170MOL0     H22884   4.858   3.991   2.706 -1.1521 -3.4046 -2.3632
  170MOL0     H22885   5.017   4.327   2.499  0.5071  2.1740  0.8403
  170MOL0     H22886   5.052   4.375   2.664 -0.1713  0.6024 -0.5128
  170MOL0     H22887   5.216   4.155   2.547 -2.4808  0.3141 -2.3530
  170MOL0     H22888   5.252   4.322   2.511 -2.2011 -0.2744 -2.2408
  170MOL0     H22889   5.325   4.392   2.725 -0.1009  1.0164 -1.7853
  170MOL0     H22890   5.204   4.300   2.804 -0.8891 -2.0816  0.2852
  170MOL0     H22891   5.340   4.080   2.727  0.1769 -0.2077  0.7870
  170MOL0     H22892   5.457   4.207   2.673  0.8611 -0.1626  0.4128
  170MOL0     H22893   5.486   4.278   2.915  0.7434 -0.3743 -0.5137
  170MOL0     H22894   5.353   4.173   2.960  0.2341  1.1051  0.1316
  170MOL0     H22895   5.469   3.985   2.930 -0.5321  1.1361  1.3073
  170MOL0     H22896   5.604   4.074   2.838 -0.6045  0.5015 -0.9601
  170MOL0     H22897   5.654   4.206   3.032 -1.0905  0.7178 -1.5128
  170MOL0     H22898   5.532   4.107   3.122  0.9224 -1.6664  1.1304
  170MOL0     H22899   5.728   4.023   3.194 -1.0797 -4.4040  0.5302
  170MOL0     H22900   5.803   4.026   3.036  0.8631  0.0956 -0.5809
  170MOL0     H22901   5.721   3.806   2.882 -1.1753 -0.1917 -1.1449
  170MOL0     H22902   5.697   3.519   2.909 -0.0519 -1.1648 -1.4509
  170MOL0     H22903   5.542   3.482   2.989  1.1170 -1.2427 -1.1939
  170MOL0     H22904   5.539   3.537   2.726 -0.2583 -0.4093  0.0847
  170MOL0     H22905   5.524   3.690   2.774  2.2943 -1.5768 -0.3659
  170MOL0     H22906   5.346   3.473   2.898  2.4431 -0.0919  0.1550
  170MOL0     H22907   5.322   3.536   2.729 -2.1775  0.3573  0.4514
  170MOL0     H22908   5.300   3.767   2.850  0.5669  1.1588  1.1608
  170MOL0     H22909   5.303   3.673   3.001  2.7973 -0.9257 -0.7290
  170MOL0     H22910   5.166   3.899   2.967  0.0298  0.0837  3.0974
  170MOL0     H22911   4.963   4.152   2.968  0.3689 -1.2316 -0.6554
  170MOL0     H22912   4.961   4.118   3.145 -1.1010 -0.9364 -0.0600
  170MOL0     H22913   5.107   4.087   3.059  0.1873 -2.2581  1.5765
  170MOL0     H22914   4.518   4.137   2.900  0.4069 -3.9569 -0.8944
  170MOL0     H22915   4.321   4.274   2.972  0.7315 -0.3963 -1.0092
  170MOL0     H22916   4.130   4.227   3.354 -3.2214  1.0822  0.3860
  170MOL0     H22917   4.238   4.335   3.283 -0.8179  1.0718 -0.2470
  170MOL0     H22918   4.048   4.435   3.374 -2.1108  1.9799 -0.7866
  170MOL0     H22919   4.097   4.488   3.216 -0.2316  0.4782 -0.0477
  170MOL0     H22920   3.845   4.312   3.284 -0.4804  0.2809 -0.5729
  170MOL0     H22921   3.893   4.364   3.115  0.5557  1.2178 -0.3861
  170MOL0     H22922   3.819   4.567   3.320  1.3414  0.4471 -0.5565
  170MOL0     H22923   3.876   4.578   3.154  1.6581 -1.8176  0.6544
  170MOL0     H22924   3.672   4.447   3.070  1.4169  1.8660 -1.8190
  170MOL0     H22925   3.635   4.598   3.135 -2.6222 -1.5021 -2.0094
  170MOL0     H22926   3.604   4.333   3.293 -2.9432 -0.8934  0.4546
  170MOL0     H22927   3.596   4.479   3.365 -1.4044 -0.1950 -0.3691
  170MOL0     H22928   3.423   4.430   3.113 -6.0558  0.9414 -0.6000
  170MOL0     H22929   3.389   4.556   3.225 -1.0659 -0.3301 -1.5091
  170MOL0     H22930   3.378   4.399   3.405  2.7619 -0.7768 -1.2849
  170MOL0     H22931   3.381   4.252   3.308 -1.5589 -0.0406 -0.2300
  170MOL0     H22932   4.213   3.980   3.269  2.1674  0.7007  2.7066
  170MOL0     H22933   4.406   3.841   3.173 -3.5451 -0.9636  0.4421
  170MOL0     H22934   4.717   3.705   2.991  1.4484 -2.9956 -0.1730
  170MOL0     H22935   4.907   3.569   2.940  2.3094 -0.3122  4.2494
  170MOL0     H22936   4.800   4.383   2.547  0.6364  0.4046  1.3304
  170MOL0     H22937   4.550   4.336   2.541 -1.0979 -1.4467 -0.8332
  170MOL0     H22938   4.155   3.863   2.530 -2.1914  0.0060 -1.6332
  170MOL0     H22939   3.919   3.883   2.548 -1.3805  3.9974 -4.2447
  170MOL0     H22940   3.764   4.162   2.865  0.1631  0.9672 -1.0193
  170MOL0     H22941   3.716   4.245   2.720  1.4454  0.5768  1.0992
  170MOL0     H22942   3.565   4.027   2.868 -0.0004  1.8294  2.8439
  170MOL0     H22943   3.553   4.048   2.685 -1.1170 -0.4973  0.7913
  170MOL0     H22944   3.425   4.225   2.709  0.4574  4.1849 -0.0008
  170MOL0     H22945   3.529   4.296   2.838 -2.1708  2.3110 -1.8185
  170MOL0     H22946   3.299   4.250   2.931  1.4643  1.4756  0.3686
  170MOL0     H22947   3.431   4.142   3.002  0.1067 -0.5159 -0.4862
  170MOL0     H22948   3.216   3.867   2.754 -0.9692  1.1570 -0.0870
  170MOL0     H22949   3.972   4.251   2.773 -0.7096 -1.2589  0.3031
  170MOL0     H22950   4.226   4.249   2.720 -0.0241  0.5431  0.1279
  171MOL0     O22951   1.917  10.737  10.632 -0.0052  0.3769  0.1543
  171MOL0     C22952   2.009  10.660  10.637 -0.4478 -0.0432  0.7162
  171MOL0     O22953   2.009  10.523  10.609  0.2923 -0.2569  0.3972
  171MOL0     C22954   1.890  10.462  10.585 -0.4351  0.1352 -0.2503
  171MOL0     C22955   1.872  10.400  10.470 -0.7112 -0.7043  0.7723
  171MOL0     C22956   1.752  10.328  10.449 -0.9652 -0.0727 -0.4422
  171MOL0     C22957   1.660  10.314  10.548  0.4091  0.0746  0.1556
  171MOL0     O22958   1.551  10.236  10.540  0.1248  0.1383  0.5350
  171MOL0     C22959   1.491  10.195  10.410  0.3088  0.6422  0.5621
  171MOL0     C22960   1.438  10.320  10.339  0.2978  0.2118 -0.1003
  171MOL0     C22961   1.343  10.299  10.214 -0.3333 -0.2703 -0.3821
  171MOL0     C22962   1.397  10.199  10.113  0.6971 -0.2652 -0.5299
  171MOL0     C22963   1.334  10.204   9.975  0.7085  0.3848  0.0354
  171MOL0     C22964   1.185  10.185   9.980  0.5248 -0.2087 -0.6274
  171MOL0     C22965   1.142  10.179   9.837 -0.0803  0.3736 -0.0087
  171MOL0     C22966   0.987  10.190   9.819 -0.2585  0.2755  0.0725
  171MOL0     N22967   0.950  10.200   9.679  0.4742 -0.4037 -0.3782
  171MOL0     C22968   0.876  10.104   9.622 -0.7574 -0.4877  0.0866
  171MOL0     C22969   0.893  10.134   9.490 -0.4773  0.9193 -0.1870
  171MOL0     C22970   0.819  10.060   9.377 -0.9184  0.2523 -0.0708
  171MOL0     C22971   0.853   9.910   9.373 -1.3299 -0.4970  0.4786
  171MOL0     C22972   0.773   9.819   9.274  0.2481 -0.4898  0.0481
  171MOL0     C22973   0.814   9.837   9.138  0.6254 -0.7410 -0.8354
  171MOL0     O22974   0.748   9.741   9.061  1.0866  0.0541 -0.4998
  171MOL0     C22975   0.751   9.743   8.925 -0.1727 -0.0028  0.7037
  171MOL0     C22976   0.821   9.841   8.847  0.2602  0.2838  0.0302
  171MOL0     C22977   0.842   9.818   8.709  0.4790  0.5355 -0.4271
  171MOL0     C22978   0.962   9.889   8.651 -0.1809  0.1892  0.1468
  171MOL0     C22979   0.777   9.708   8.648  0.5948  0.3312  0.5924
  171MOL0     C22980   0.780   9.686   8.500 -0.2628  0.1918  0.7233
  171MOL0     O22981   0.708   9.584   8.449  0.4638  0.4327 -0.1525
  171MOL0     C22982   0.717   9.560   8.312 -0.3975  0.3173  0.7509
  171MOL0     C22983   0.605   9.501   8.250  0.0012  0.2317 -0.6135
  171MOL0     C22984   0.607   9.454   8.118 -0.6870  0.3365 -1.3762
  171MOL0     C22985   0.725   9.435   8.045  1.1680  0.2987  0.1072
  171MOL0     O22986   0.728   9.364   7.924  0.1831  0.1599 -0.4564
  171MOL0     C22987   0.607   9.318   7.857 -0.7743  0.2598  0.1668
  171MOL0     C22988   0.526   9.434   7.805 -0.2236  1.0640 -0.1900
  171MOL0     C22989   0.381   9.402   7.788  0.4669  0.1158 -0.1731
  171MOL0     C22990   0.307   9.511   7.714 -0.2782 -0.2992  0.7531
  171MOL0     C22991   0.156   9.487   7.708  0.0068 -1.1970  0.0971
  171MOL0     C22992   0.082   9.510   7.575  0.7788 -0.4668 -0.0902
  171MOL0     C22993   0.043   9.652   7.565 -0.1044  0.3445  0.7398
  171MOL0     C22994   0.157   9.746   7.528  0.3666  0.4005  0.3024
  171MOL0    Cl22995   0.069   9.896   7.466 -0.0293  0.3182  0.3377
  171MOL0     C22996   0.844   9.484   8.107  0.1587  0.1452 -0.2916
  171MOL0     C22997   0.836   9.537   8.239  0.4110 -0.4060 -0.0827
  171MOL0     O22998   0.862   9.749   8.433  0.8811  0.1550 -0.6178
  171MOL0     C22999   0.694   9.624   8.723  0.3672  0.6379  0.2287
  171MOL0     C23000   0.691   9.637   8.862  1.7581  1.1791  0.5329
  171MOL0     N23001   0.956  10.258   9.478 -0.9440 -0.0005  0.4201
  171MOL0     N23002   0.986  10.298   9.597  0.4726 -0.9236 -0.7937
  171MOL0     C23003   1.680  10.383  10.665 -0.0554 -0.4122 -0.1215
  171MOL0     C23004   1.796  10.461  10.687  0.2823 -0.4904  0.2847
  171MOL0     C23005   2.147  10.711  10.645 -0.1080 -0.0023 -0.8216
  171MOL0     C23006   2.167  10.845  10.676 -1.3895  0.0607 -0.8794
  171MOL0     C23007   2.296  10.899  10.671  0.3413  0.5850  0.1038
  171MOL0     C23008   2.405  10.827  10.628 -0.4079 -0.5904  0.2596
  171MOL0     O23009   2.520  10.892  10.605 -0.3542 -0.1210 -0.2267
  171MOL0     C23010   2.641  10.821  10.608 -0.1738 -0.1600 -0.7583
  171MOL0     C23011   2.687  10.774  10.748  0.1935 -0.2891  0.4128
  171MOL0     C23012   2.837  10.742  10.743 -0.2997  0.3348 -0.2352
  171MOL0     C23013   2.883  10.665  10.865  0.1230 -0.7230  0.7235
  171MOL0     C23014   3.020  10.626  10.840  0.8181 -0.1684  0.4370
  171MOL0     C23015   3.131  10.585  10.814 -0.0367 -0.1509 -1.1061
  171MOL0     C23016   2.392  10.692  10.606  0.3890 -0.2066 -0.4616
  171MOL0     C23017   2.259  10.634  10.618 -1.4038  0.1052  1.0071
  171MOL0     H23018   1.940  10.408  10.386  0.6443 -1.5081  1.7282
  171MOL0     H23019   1.734  10.295  10.347 -0.8891  0.1034 -0.5121
  171MOL0     H23020   1.568  10.145  10.352  0.3926 -1.2857  2.2274
  171MOL0     H23021   1.414  10.119  10.428  0.2285  0.0225 -2.0374
  171MOL0     H23022   1.385  10.382  10.413  0.6447  0.2005  0.1623
  171MOL0     H23023   1.513  10.392  10.305  1.8835 -0.4639  1.8129
  171MOL0     H23024   1.246  10.263  10.251 -0.5609  0.5901 -0.1226
  171MOL0     H23025   1.328  10.395  10.164 -1.7375  0.4146  1.2425
  171MOL0     H23026   1.499  10.239  10.115 -0.1640  2.6676  5.0287
  171MOL0     H23027   1.384  10.098  10.153 -2.7341 -0.0936 -0.8667
  171MOL0     H23028   1.362  10.298   9.927 -1.7061  0.1555 -1.9739
  171MOL0     H23029   1.389  10.133   9.913 -0.9910  0.1619 -1.2733
  171MOL0     H23030   1.162  10.093  10.036 -0.9505  0.2932 -0.3469
  171MOL0     H23031   1.135  10.267  10.032  1.4258  0.8034 -1.3214
  171MOL0     H23032   1.184  10.271   9.794 -3.0841  4.2653  4.4087
  171MOL0     H23033   1.175  10.086   9.788  0.7511 -0.1119  1.4094
  171MOL0     H23034   0.961  10.284   9.870  1.3037 -0.2137  1.8812
  171MOL0     H23035   0.941  10.104   9.867 -0.6117  0.7656  0.6266
  171MOL0     H23036   0.836  10.015   9.670 -0.8821 -0.9946 -0.9291
  171MOL0     H23037   0.711  10.070   9.395 -1.0424  2.8012 -1.7956
  171MOL0     H23038   0.838  10.115   9.285  1.2829  0.2529  0.3444
  171MOL0     H23039   0.843   9.867   9.473  0.3520 -0.9175  0.5019
  171MOL0     H23040   0.957   9.888   9.346 -2.0670 -3.2993 -0.4015
  171MOL0     H23041   0.667   9.839   9.295  0.1710 -2.8048  2.4621
  171MOL0     H23042   0.800   9.716   9.300  3.1455  0.2179  0.1942
  171MOL0     H23043   0.922   9.828   9.121  0.5178 -1.1726 -1.3097
  171MOL0     H23044   0.780   9.936   9.105  0.3243 -0.1566  1.0859
  171MOL0     H23045   0.874   9.925   8.891 -0.1678 -0.0760  1.2474
  171MOL0     H23046   1.031   9.818   8.604  0.7488  2.2449 -1.7521
  171MOL0     H23047   0.944   9.964   8.574  1.0984  0.2506 -0.1172
  171MOL0     H23048   1.014   9.944   8.730  2.3698  1.4458 -2.2334
  171MOL0     H23049   0.508   9.504   8.298 -1.4657 -0.0542 -3.3752
  171MOL0     H23050   0.515   9.417   8.072 -1.1137  1.6453 -1.6278
  171MOL0     H23051   0.643   9.264   7.769 -0.4698  1.6585 -0.5990
  171MOL0     H23052   0.547   9.249   7.917  0.9341 -0.0088  1.6457
  171MOL0     H23053   0.541   9.512   7.879  1.4165  0.1008  0.5513
  171MOL0     H23054   0.572   9.464   7.710  0.2193 -0.6265 -0.5494
  171MOL0     H23055   0.327   9.401   7.883  0.8194  2.2844  0.0823
  171MOL0     H23056   0.362   9.301   7.750  2.3963 -1.6885  3.2556
  171MOL0     H23057   0.331   9.601   7.772 -2.3530  1.4569 -0.9430
  171MOL0     H23058   0.340   9.525   7.611  1.1837 -0.2077  1.2045
  171MOL0     H23059   0.118   9.551   7.789  0.0588 -1.4911  0.3560
  171MOL0     H23060   0.140   9.383   7.740  1.5683 -1.3957  0.3124
  171MOL0     H23061   0.131   9.476   7.483 -2.3632 -0.7624 -1.7933
  171MOL0     H23062  -0.011   9.453   7.576 -0.1793  0.8447 -2.7609
  171MOL0     H23063   0.001   9.685   7.661 -1.5657  0.1902  0.1726
  171MOL0     H23064  -0.033   9.657   7.486  0.6010 -0.2528  0.0048
  171MOL0     H23065   0.213   9.711   7.441 -0.7776  1.1739 -0.7695
  171MOL0     H23066   0.226   9.757   7.612 -0.0868 -3.2120  1.3492
  171MOL0     H23067   0.936   9.478   8.050  1.1732  1.6746  1.0922
  171MOL0     H23068   0.929   9.573   8.281 -0.0006 -0.4851  0.9144
  171MOL0     H23069   0.636   9.548   8.671 -1.5621  0.2900  2.7179
  171MOL0     H23070   0.636   9.565   8.921 -2.8362  1.7224 -2.4886
  171MOL0     H23071   1.604  10.377  10.742 -0.6646  2.4019 -0.4228
  171MOL0     H23072   1.806  10.504  10.786 -1.0626 -3.0096  1.6293
  171MOL0     H23073   2.090  10.918  10.699 -0.1257  0.8266  1.2546
  171MOL0     H23074   2.298  11.007  10.679  0.3846  0.6853 -1.1282
  171MOL0     H23075   2.641  10.725  10.555 -1.2068 -1.5245  1.5353
  171MOL0     H23076   2.704  10.893  10.557 -0.2688  0.3736 -0.1343
  171MOL0     H23077   2.626  10.698  10.797  0.9762  0.6072  2.9808
  171MOL0     H23078   2.684  10.868  10.804  3.5092  0.2614 -0.1208
  171MOL0     H23079   2.879  10.842  10.728 -2.2795  1.3268  0.3634
  171MOL0     H23080   2.850  10.696  10.645 -0.9596  1.7665 -1.0264
  171MOL0     H23081   2.816  10.583  10.893 -2.0071  0.2510 -1.1920
  171MOL0     H23082   2.867  10.738  10.945 -0.8077  2.0074 -1.7620
  171MOL0     H23083   3.234  10.557  10.803  0.6520 -0.3327  3.8057
  171MOL0     H23084   2.470  10.621  10.581 -1.4912 -1.5716 -2.8282
  171MOL0     H23085   2.250  10.528  10.593 -1.1083  0.4839 -0.9278
  172MOL0     O23086   9.834   3.975   8.503 -0.7155 -0.0082  0.3427
  172MOL0     C23087   9.938   4.024   8.556  0.6385  0.2770 -0.3237
  172MOL0     O23088   9.942   4.100   8.660  0.2443 -0.3936 -0.1190
  172MOL0     C23089   9.834   4.172   8.721  0.5853  1.4075 -0.3521
  172MOL0     C23090   9.858   4.234   8.838 -0.7118 -0.8335 -0.1986
  172MOL0     C23091   9.765   4.311   8.918  0.0500  0.0698  1.2215
  172MOL0     C23092   9.629   4.295   8.892 -0.4996 -0.4724  0.4363
  172MOL0     O23093   9.531   4.336   8.983  0.1275  0.1237 -0.6101
  172MOL0     C23094   9.394   4.338   8.941 -0.0371 -0.6840 -0.4446
  172MOL0     C23095   9.321   4.425   9.050 -0.5768  0.5478 -0.1806
  172MOL0     C23096   9.167   4.411   9.044 -0.4510  0.2121  0.6194
  172MOL0     C23097   9.101   4.498   8.938  0.3878 -0.1901  0.0571
  172MOL0     C23098   9.077   4.646   8.986 -0.1188 -0.9343 -0.3265
  172MOL0     C23099   9.022   4.735   8.882  0.1511  0.1268 -0.7836
  172MOL0     C23100   8.959   4.867   8.931  0.4174  0.3869  0.2220
  172MOL0     C23101   8.925   4.960   8.814 -0.9244  0.6621  0.5428
  172MOL0     N23102   8.792   4.912   8.754 -0.0550 -0.6099 -0.0885
  172MOL0     C23103   8.667   4.935   8.801  0.8482 -0.3248 -0.0650
  172MOL0     C23104   8.588   4.853   8.730 -0.9085 -0.1677 -1.1139
  172MOL0     C23105   8.440   4.859   8.741  0.2898 -0.5808  0.2251
  172MOL0     C23106   8.390   4.829   8.879  0.7405  0.2280 -0.0934
  172MOL0     C23107   8.238   4.808   8.883  0.5776 -0.4461 -0.5268
  172MOL0     C23108   8.143   4.897   8.801 -0.8133 -0.4840  0.6642
  172MOL0     O23109   8.008   4.848   8.802  0.5889 -0.2932  0.1048
  172MOL0     C23110   7.931   4.855   8.911 -1.0240 -0.0490 -0.8752
  172MOL0     C23111   7.961   4.941   9.016  0.1300 -0.5679 -0.6428
  172MOL0     C23112   7.865   4.970   9.120  0.1169  0.3230 -0.6638
  172MOL0     C23113   7.913   5.068   9.226 -0.4306 -0.0259 -0.3369
  172MOL0     C23114   7.745   4.887   9.128 -0.2625 -0.2915 -1.0211
  172MOL0     C23115   7.634   4.914   9.225 -1.0277 -0.2159 -0.2648
  172MOL0     O23116   7.507   4.880   9.192 -0.2048  0.0106 -0.2923
  172MOL0     C23117   7.404   4.912   9.273 -0.3896 -0.2034  0.5994
  172MOL0     C23118   7.307   4.816   9.275  0.2210  0.9327  0.0979
  172MOL0     C23119   7.190   4.837   9.344  0.5946  0.1047  0.3607
  172MOL0     C23120   7.168   4.940   9.427  0.7179  1.1661  0.2540
  172MOL0     O23121   7.049   4.947   9.504  0.2435  0.0876  0.4504
  172MOL0     C23122   7.052   5.033   9.618  0.1605  0.7083 -0.6199
  172MOL0     C23123   6.921   5.027   9.700  0.1748 -0.3572  0.9095
  172MOL0     C23124   6.815   5.083   9.605 -0.2326 -0.3181 -0.3220
  172MOL0     C23125   6.699   5.147   9.695 -0.8733  0.3638 -0.1870
  172MOL0     C23126   6.589   5.221   9.605  0.3391  0.5788 -0.3246
  172MOL0     C23127   6.483   5.135   9.542 -0.4588  0.3327  0.9476
  172MOL0     C23128   6.364   5.217   9.489 -0.0248  0.6668  0.3091
  172MOL0     C23129   6.252   5.114   9.462  0.4572 -0.8097  0.2596
  172MOL0    Cl23130   6.117   5.203   9.395  0.0993 -0.3986 -0.0209
  172MOL0     C23131   7.276   5.036   9.435 -0.2714 -0.4612 -1.0494
  172MOL0     C23132   7.390   5.028   9.349 -0.1986  0.1520  0.0206
  172MOL0     O23133   7.667   4.955   9.334 -1.1755 -0.4723  0.4001
  172MOL0     C23134   7.726   4.790   9.032 -0.2990 -0.4437  0.0213
  172MOL0     C23135   7.815   4.787   8.918 -0.0524 -0.0368 -0.4570
  172MOL0     N23136   8.668   4.773   8.649 -0.6725 -0.0504  1.1261
  172MOL0     N23137   8.789   4.815   8.659  0.0659 -0.2064  0.7021
  172MOL0     C23138   9.598   4.214   8.772  0.4291  0.0603  0.2766
  172MOL0     C23139   9.695   4.161   8.690 -0.6857  0.6417 -1.4891
  172MOL0     C23140  10.067   3.997   8.490  0.1585 -0.8563  0.1187
  172MOL0     C23141  10.166   4.083   8.510 -0.3328 -0.0947  0.5077
  172MOL0     C23142  10.283   4.081   8.436  0.3043 -0.1386 -0.1133
  172MOL0     C23143  10.290   3.990   8.333  1.0572  0.0511 -0.3146
  172MOL0     O23144  10.400   3.999   8.255  0.5242  0.5492  0.1507
  172MOL0     C23145  10.375   4.064   8.132 -1.0707  0.1218 -0.6614
  172MOL0     C23146  10.501   4.126   8.077  0.4098 -0.1279 -0.1282
  172MOL0     C23147  10.477   4.172   7.936 -0.0982  0.1426 -0.1231
  172MOL0     C23148  10.607   4.185   7.855  0.9697 -0.0049  0.3409
  172MOL0     C23149  10.704   4.272   7.917  0.2524 -0.1287  0.1567
  172MOL0     C23150  10.797   4.339   7.958 -0.3337  0.3088  0.0873
  172MOL0     C23151  10.185   3.901   8.306  0.2213  0.7803 -0.4383
  172MOL0     C23152  10.072   3.914   8.380 -0.3976  0.5722 -1.2479
  172MOL0     H23153   9.964   4.243   8.859 -0.8150  1.9519 -0.5354
  172MOL0     H23154   9.816   4.357   9.002 -0.5846 -0.2847  1.8154
  172MOL0     H23155   9.374   4.381   8.842  0.9195  2.7983  0.7228
  172MOL0     H23156   9.348   4.239   8.946 -0.3649 -0.4949  0.3292
  172MOL0     H23157   9.360   4.391   9.146  1.5874 -1.4903 -1.6380
  172MOL0     H23158   9.356   4.528   9.038  0.4722  0.3640  1.0467
  172MOL0     H23159   9.137   4.308   9.022  2.1825 -0.1696 -1.8619
  172MOL0     H23160   9.126   4.437   9.142  1.1034  3.1156  0.6132
  172MOL0     H23161   9.150   4.480   8.842 -0.8883 -2.9621 -0.1643
  172MOL0     H23162   9.001   4.455   8.930  0.9373 -1.5573  0.1209
  172MOL0     H23163   9.005   4.657   9.068 -0.1793  1.0699 -0.6147
  172MOL0     H23164   9.179   4.678   9.007 -1.3636  0.3826  5.5206
  172MOL0     H23165   9.103   4.756   8.811  0.9913 -2.5761 -0.7300
  172MOL0     H23166   8.954   4.678   8.818 -0.0088 -2.6814  1.6952
  172MOL0     H23167   8.875   4.846   8.998  1.3598  1.5062  1.8107
  172MOL0     H23168   9.012   4.929   9.004  1.0791 -2.2543  2.1223
  172MOL0     H23169   9.009   4.946   8.745  0.5439  0.9444  2.1960
  172MOL0     H23170   8.913   5.064   8.846 -1.1876  1.0010 -0.5993
  172MOL0     H23171   8.643   5.003   8.882 -1.3849 -0.7020 -0.3267
  172MOL0     H23172   8.404   4.959   8.714  0.8179 -0.5441 -0.3593
  172MOL0     H23173   8.399   4.789   8.668  2.3237 -1.1636 -0.4123
  172MOL0     H23174   8.411   4.914   8.945 -0.2036  0.0776  0.4292
  172MOL0     H23175   8.439   4.742   8.925  0.3557 -0.5979 -1.1949
  172MOL0     H23176   8.204   4.814   8.987  0.7108 -2.9659 -0.2690
  172MOL0     H23177   8.220   4.704   8.853 -0.1697 -0.8355  1.1587
  172MOL0     H23178   8.174   4.899   8.697  0.8200  0.7331  1.1274
  172MOL0     H23179   8.159   5.002   8.827  1.4386  0.0972 -2.5194
  172MOL0     H23180   8.059   4.987   9.019  0.1868 -0.7252  0.5008
  172MOL0     H23181   7.939   5.004   9.311  1.2621 -3.9354 -3.5103
  172MOL0     H23182   8.006   5.118   9.197 -0.0435 -0.3325  0.3456
  172MOL0     H23183   7.832   5.138   9.248 -2.0621 -2.4269  1.8010
  172MOL0     H23184   7.313   4.715   9.234 -0.3378  1.9428 -2.7155
  172MOL0     H23185   7.123   4.752   9.349  5.7237 -4.6217 -1.9505
  172MOL0     H23186   7.125   4.980   9.680  1.0126 -1.1347 -3.0468
  172MOL0     H23187   7.077   5.138   9.601 -1.5356  1.1814 -0.3588
  172MOL0     H23188   6.890   4.924   9.719 -1.4800 -1.0732 -4.1295
  172MOL0     H23189   6.931   5.087   9.791  0.8636  0.7767  0.1259
  172MOL0     H23190   6.771   5.003   9.545 -0.6098 -2.2574  2.3084
  172MOL0     H23191   6.850   5.169   9.548 -1.5552  0.6715  0.3068
  172MOL0     H23192   6.650   5.072   9.758  0.5426 -0.1916  0.3065
  172MOL0     H23193   6.744   5.230   9.750  1.1546  0.2359 -1.5343
  172MOL0     H23194   6.633   5.284   9.527 -2.0307 -1.2773 -3.3951
  172MOL0     H23195   6.537   5.287   9.675  3.9354  3.6194 -0.2003
  172MOL0     H23196   6.536   5.085   9.461  0.5843 -0.3841  2.0406
  172MOL0     H23197   6.444   5.056   9.607 -2.1502  0.6292  0.3640
  172MOL0     H23198   6.391   5.273   9.399  2.6152  2.1031  1.8501
  172MOL0     H23199   6.332   5.293   9.561  1.3100 -0.6163  2.3629
  172MOL0     H23200   6.224   5.048   9.544  0.8902 -2.1765 -0.6616
  172MOL0     H23201   6.296   5.041   9.393  3.8489 -1.1178  2.5112
  172MOL0     H23202   7.263   5.117   9.505  0.2081 -1.3428  0.0970
  172MOL0     H23203   7.465   5.106   9.352 -0.3537  0.2906  0.3750
  172MOL0     H23204   7.636   4.731   9.037 -0.8478  0.2371 -1.3330
  172MOL0     H23205   7.781   4.731   8.832 -2.6854 -0.5017  0.7653
  172MOL0     H23206   9.491   4.195   8.763  0.5788 -0.6842 -0.0169
  172MOL0     H23207   9.654   4.108   8.604 -0.3181 -0.5118 -0.9698
  172MOL0     H23208  10.155   4.147   8.597  0.7504 -1.0143  1.3452
  172MOL0     H23209  10.371   4.140   8.461  0.3519  0.1146 -0.8668
  172MOL0     H23210  10.331   3.981   8.075 -1.5136 -0.5120  0.5750
  172MOL0     H23211  10.299   4.142   8.127  1.3290  2.5965 -4.7704
  172MOL0     H23212  10.575   4.045   8.074  2.2455  1.4722  0.2188
  172MOL0     H23213  10.544   4.205   8.140  3.4381  0.0049 -2.1337
  172MOL0     H23214  10.421   4.266   7.929  0.8443  0.5798 -2.9860
  172MOL0     H23215  10.414   4.102   7.880 -0.6346  1.9758 -1.9685
  172MOL0     H23216  10.598   4.222   7.752  0.8044 -0.8088  0.0595
  172MOL0     H23217  10.645   4.083   7.847  1.6111  0.2680 -0.1887
  172MOL0     H23218  10.875   4.392   8.009 -0.7042  1.6882 -0.7330
  172MOL0     H23219  10.195   3.827   8.227  2.8491 -0.4717  0.9622
  172MOL0     H23220   9.984   3.853   8.362 -0.2756 -0.1271  0.3105
  173MOL0     O23221   2.058   9.350   5.298  0.2259 -0.0148  0.0823
  173MOL0     C23222   2.092   9.454   5.357  0.1140  0.2705 -0.2752
  173MOL0     O23223   2.183   9.537   5.311 -0.1477  0.2862 -0.1168
  173MOL0     C23224   2.225   9.535   5.182  0.4966  0.2865  0.1586
  173MOL0     C23225   2.348   9.577   5.167  0.4134  0.6437  0.2657
  173MOL0     C23226   2.405   9.603   5.046 -0.3292 -0.0910  0.3123
  173MOL0     C23227   2.337   9.573   4.925 -0.1276 -0.6795 -1.0063
  173MOL0     O23228   2.401   9.563   4.810  0.2410 -0.5890 -0.2636
  173MOL0     C23229   2.543   9.598   4.794  0.3768 -0.1148 -0.5594
  173MOL0     C23230   2.585   9.640   4.655  0.2480 -0.1761  0.0838
  173MOL0     C23231   2.739   9.658   4.633 -1.1377 -0.7946 -0.1078
  173MOL0     C23232   2.766   9.720   4.496 -0.1758 -0.0884 -0.3839
  173MOL0     C23233   2.715   9.653   4.369 -0.7731  0.4271  1.1370
  173MOL0     C23234   2.760   9.742   4.251 -0.2316 -0.1064 -0.6253
  173MOL0     C23235   2.767   9.668   4.119  0.1600  0.9126  0.6098
  173MOL0     C23236   2.649   9.703   4.023 -0.5934  0.3938  0.0247
  173MOL0     N23237   2.518   9.657   4.065 -0.1182  0.2891  0.4955
  173MOL0     C23238   2.471   9.523   4.071  0.7721  1.0838 -0.0014
  173MOL0     C23239   2.340   9.534   4.114  0.8347 -0.9767 -0.7471
  173MOL0     C23240   2.251   9.406   4.141 -0.2403  0.8286  0.0699
  173MOL0     C23241   2.108   9.443   4.186  0.3029  0.0302 -0.0318
  173MOL0     C23242   2.089   9.440   4.333  0.1039  0.7227 -0.2021
  173MOL0     C23243   2.117   9.300   4.393 -0.0416 -0.0295  0.1781
  173MOL0     O23244   2.055   9.196   4.313  0.4620 -0.0859 -0.3582
  173MOL0     C23245   1.934   9.150   4.340 -0.3538  0.4863 -0.1001
  173MOL0     C23246   1.839   9.189   4.438 -0.1507 -0.1713 -0.0132
  173MOL0     C23247   1.725   9.114   4.460  0.3335 -1.2077  0.5189
  173MOL0     C23248   1.634   9.164   4.571  0.8444 -0.1834 -0.0741
  173MOL0     C23249   1.686   9.009   4.372  0.8241 -0.5974 -0.7232
  173MOL0     C23250   1.570   8.914   4.392  0.4731 -0.1556 -0.1226
  173MOL0     O23251   1.561   8.827   4.286 -0.1095 -0.5120  0.3024
  173MOL0     C23252   1.473   8.719   4.299 -0.1806  0.5760  0.0080
  173MOL0     C23253   1.474   8.640   4.412 -0.0988  0.0503 -0.4145
  173MOL0     C23254   1.377   8.544   4.445  0.0859  0.1467 -0.6233
  173MOL0     C23255   1.287   8.511   4.345  0.0738  0.9259  0.9397
  173MOL0     O23256   1.181   8.425   4.360  0.2978  0.3602 -0.2306
  173MOL0     C23257   1.130   8.418   4.502  0.1142  0.0744  0.4527
  173MOL0     C23258   1.185   8.298   4.572  0.4777 -0.0124  1.0895
  173MOL0     C23259   1.153   8.171   4.506 -0.0539  0.5775  0.1378
  173MOL0     C23260   1.197   8.045   4.586  0.1349  0.2303 -0.2609
  173MOL0     C23261   1.136   7.911   4.536  0.2056 -0.6015  0.3272
  173MOL0     C23262   1.202   7.803   4.607 -0.1228 -0.1256  1.0353
  173MOL0     C23263   1.142   7.669   4.566  0.6927  0.9418 -0.0887
  173MOL0     C23264   1.242   7.557   4.566  1.8403  1.0219  0.5549
  173MOL0    Cl23265   1.342   7.568   4.417 -0.1980  0.1562 -0.3406
  173MOL0     C23266   1.297   8.574   4.221  0.5115  0.7724  0.4054
  173MOL0     C23267   1.382   8.676   4.201 -0.0568  0.6963 -0.0945
  173MOL0     O23268   1.500   8.916   4.496  0.3004 -0.6811  0.6536
  173MOL0     C23269   1.770   8.990   4.264  0.7729  0.1297  0.6921
  173MOL0     C23270   1.891   9.053   4.244  0.0387 -0.4096  0.1858
  173MOL0     N23271   2.317   9.660   4.159 -0.9409  0.5150  0.2869
  173MOL0     N23272   2.421   9.729   4.129 -0.4077 -0.4690 -0.7004
  173MOL0     C23273   2.207   9.530   4.938 -0.8461  0.4193  0.2513
  173MOL0     C23274   2.150   9.510   5.063  0.0090 -0.5181 -0.2208
  173MOL0     C23275   2.039   9.473   5.489  0.3553 -0.2508 -0.5249
  173MOL0     C23276   2.058   9.600   5.547 -0.5442 -0.2627  0.0070
  173MOL0     C23277   2.006   9.618   5.683 -0.0011 -0.0337  0.0489
  173MOL0     C23278   1.950   9.517   5.753 -0.1017 -0.0794 -0.2224
  173MOL0     O23279   1.882   9.543   5.863 -0.5680 -0.3756 -0.8447
  173MOL0     C23280   1.887   9.667   5.929  0.4936 -0.3885 -0.3224
  173MOL0     C23281   1.776   9.671   6.042 -0.6697 -1.4442 -0.3837
  173MOL0     C23282   1.808   9.577   6.165  0.5648  0.3245 -0.1465
  173MOL0     C23283   1.928   9.620   6.245 -0.6214  0.1505  0.5563
  173MOL0     C23284   1.938   9.551   6.374 -0.6086 -0.9152  0.0594
  173MOL0     C23285   1.929   9.513   6.486  0.5161  0.4999  0.0374
  173MOL0     C23286   1.923   9.398   5.692 -0.2040  0.5583  0.7063
  173MOL0     C23287   1.979   9.372   5.564  0.6374  0.9960 -0.5237
  173MOL0     H23288   2.409   9.598   5.254 -0.2021 -0.5498  1.0125
  173MOL0     H23289   2.507   9.641   5.041  0.2108 -1.5028  0.2064
  173MOL0     H23290   2.578   9.690   4.842  3.0550 -1.5262  0.3952
  173MOL0     H23291   2.607   9.521   4.836  1.5785  1.2296  0.1713
  173MOL0     H23292   2.553   9.555   4.594 -1.6865 -1.0068  2.1099
  173MOL0     H23293   2.531   9.729   4.619  1.8587 -0.5292 -3.7092
  173MOL0     H23294   2.800   9.720   4.699  0.8510 -0.1656 -2.3977
  173MOL0     H23295   2.779   9.556   4.632  0.1274 -0.3161 -1.3974
  173MOL0     H23296   2.723   9.821   4.497  1.9400  0.9182  2.6547
  173MOL0     H23297   2.875   9.723   4.488 -0.2670 -0.1099 -2.2391
  173MOL0     H23298   2.775   9.562   4.354 -1.6778  0.1846 -1.4164
  173MOL0     H23299   2.608   9.632   4.359 -0.6277  0.6585 -1.9304
  173MOL0     H23300   2.697   9.830   4.232 -0.4260 -0.2447 -0.6187
  173MOL0     H23301   2.856   9.784   4.282 -0.7200  1.1105 -0.6952
  173MOL0     H23302   2.856   9.720   4.082  1.0001  1.6144  3.3142
  173MOL0     H23303   2.782   9.560   4.123 -0.0627  0.8579  0.0180
  173MOL0     H23304   2.671   9.658   3.926 -0.3639  1.3110 -0.3631
  173MOL0     H23305   2.643   9.810   4.001  0.9072  0.8777  1.6691
  173MOL0     H23306   2.525   9.432   4.048  0.1257  0.4614  0.8723
  173MOL0     H23307   2.239   9.354   4.045  1.2071 -0.5827  0.6067
  173MOL0     H23308   2.296   9.336   4.212 -1.0701  0.5844  0.3736
  173MOL0     H23309   2.050   9.368   4.130  0.9122 -0.3154 -0.2042
  173MOL0     H23310   2.082   9.544   4.153 -1.5084  0.2271  1.7234
  173MOL0     H23311   1.986   9.466   4.359 -0.2321 -1.0930  0.4213
  173MOL0     H23312   2.151   9.514   4.384  0.1092 -1.0078  2.5035
  173MOL0     H23313   2.089   9.298   4.499 -0.3405 -0.6005  0.0952
  173MOL0     H23314   2.226   9.291   4.392  0.3321  2.6075  2.8245
  173MOL0     H23315   1.865   9.260   4.515 -2.0158 -0.2106  0.6961
  173MOL0     H23316   1.659   9.262   4.612  1.5787 -0.1641 -0.5482
  173MOL0     H23317   1.539   9.178   4.518 -0.6355 -4.2716  1.1195
  173MOL0     H23318   1.630   9.087   4.649  2.1364  1.2361  1.4403
  173MOL0     H23319   1.535   8.671   4.497 -1.7527 -0.8530  1.1637
  173MOL0     H23320   1.384   8.493   4.541  3.5748 -0.1808 -0.9091
  173MOL0     H23321   1.150   8.511   4.555 -1.5077  1.7935 -1.7732
  173MOL0     H23322   1.021   8.420   4.499  0.1282  0.9626  0.3374
  173MOL0     H23323   1.294   8.305   4.580  0.5412 -0.2958  0.5137
  173MOL0     H23324   1.143   8.297   4.673 -0.9185  0.6431  0.5424
  173MOL0     H23325   1.196   8.172   4.405 -2.0492  1.4838 -0.7773
  173MOL0     H23326   1.046   8.156   4.487 -0.3112  1.1982  1.0131
  173MOL0     H23327   1.306   8.055   4.589  0.3301 -0.5264 -2.4658
  173MOL0     H23328   1.163   8.057   4.689 -1.9018 -3.7725 -0.2477
  173MOL0     H23329   1.152   7.906   4.428 -3.2212  1.2042 -0.3990
  173MOL0     H23330   1.028   7.896   4.547  0.1868  0.5359  2.2075
  173MOL0     H23331   1.306   7.804   4.574 -1.0907 -3.2554 -2.9780
  173MOL0     H23332   1.195   7.807   4.716  0.8771 -1.2957  1.1655
  173MOL0     H23333   1.100   7.678   4.465  1.0839  0.3738 -0.3119
  173MOL0     H23334   1.049   7.653   4.621 -0.6407  1.4813 -2.0906
  173MOL0     H23335   1.187   7.462   4.568  1.0806  1.3921 -1.1801
  173MOL0     H23336   1.305   7.544   4.654  1.5849  2.3591  0.9543
  173MOL0     H23337   1.228   8.549   4.140  3.1781 -1.1059 -1.4447
  173MOL0     H23338   1.396   8.724   4.104 -0.7018 -0.5156 -0.8142
  173MOL0     H23339   1.743   8.930   4.178  2.2660  0.4607 -0.0341
  173MOL0     H23340   1.944   9.021   4.155  1.9082 -0.9163  1.4276
  173MOL0     H23341   2.153   9.507   4.847 -0.2019 -0.0800 -0.0204
  173MOL0     H23342   2.045   9.482   5.072 -0.8752  2.5214  0.1838
  173MOL0     H23343   2.102   9.685   5.497 -3.9584  0.5043 -2.0209
  173MOL0     H23344   2.019   9.716   5.729 -2.2396  0.0108  0.7230
  173MOL0     H23345   1.981   9.682   5.983  1.6725  2.2353 -2.8360
  173MOL0     H23346   1.871   9.755   5.866 -1.5451  0.0711  0.7517
  173MOL0     H23347   1.683   9.642   5.992 -0.4818 -1.5533 -0.6719
  173MOL0     H23348   1.768   9.777   6.068 -0.9869 -1.7859  0.9848
  173MOL0     H23349   1.822   9.477   6.124  0.7151 -0.1315  0.9806
  173MOL0     H23350   1.726   9.581   6.237  0.0834  0.2214 -0.6849
  173MOL0     H23351   1.927   9.727   6.267  1.0047 -0.0726  1.9770
  173MOL0     H23352   2.020   9.615   6.186 -0.8740 -0.8144  0.2298
  173MOL0     H23353   1.926   9.472   6.585 -0.9391 -1.7495 -0.8713
  173MOL0     H23354   1.867   9.325   5.750 -0.5296  0.0625 -0.2217
  173MOL0     H23355   1.974   9.270   5.527  0.1122  1.2166 -1.0736
  174MOL0     O23356  10.924   7.320   0.782 -0.8320 -0.8761 -0.7138
  174MOL0     C23357  11.015   7.258   0.736 -0.0427  0.5945  0.4421
  174MOL0     O23358  10.999   7.133   0.673  0.0641 -0.4248  0.0935
  174MOL0     C23359  10.871   7.098   0.636 -0.1215  0.4427 -0.6303
  174MOL0     C23360  10.837   6.964   0.644  0.3917  0.0422  0.9981
  174MOL0     C23361  10.708   6.922   0.624  0.2319 -0.2230 -0.2693
  174MOL0     C23362  10.605   7.006   0.585  0.4277 -0.6298 -0.0471
  174MOL0     O23363  10.476   6.954   0.559  0.3136 -0.0245  0.0695
  174MOL0     C23364  10.359   7.024   0.510  0.1759 -0.1023 -1.2603
  174MOL0     C23365  10.243   6.928   0.506  0.0604 -0.0634 -1.3844
  174MOL0     C23366  10.113   7.004   0.453  0.8836  0.7903  0.2991
  174MOL0     C23367  10.044   6.947   0.327  0.5103  0.7250  0.0930
  174MOL0     C23368   9.913   7.025   0.293  0.3264 -1.5403 -0.1223
  174MOL0     C23369   9.831   6.947   0.190 -0.5070  0.7198 -0.3820
  174MOL0     C23370   9.694   6.998   0.169  0.3771  0.2712 -0.4012
  174MOL0     C23371   9.689   7.143   0.120  0.4164  0.1797  0.4855
  174MOL0     N23372   9.552   7.177   0.079 -0.1755 -0.2312 -1.0805
  174MOL0     C23373   9.532   7.195  -0.052  0.0104  1.1559 -0.0223
  174MOL0     C23374   9.397   7.212  -0.061 -0.4594  0.5379 -0.2100
  174MOL0     C23375   9.313   7.254  -0.177  0.4849 -0.4675  0.1768
  174MOL0     C23376   9.167   7.242  -0.145 -0.4055 -0.3038  0.0353
  174MOL0     C23377   9.090   7.245  -0.272  0.4738  0.0851  0.2455
  174MOL0     C23378   8.945   7.280  -0.251  0.3123 -1.0443 -0.6245
  174MOL0     O23379   8.885   7.209  -0.142  0.9783 -0.3317 -0.3421
  174MOL0     C23380   8.788   7.120  -0.182 -0.8671 -0.0268 -0.4719
  174MOL0     C23381   8.828   6.998  -0.232  0.2325 -0.2467 -0.3250
  174MOL0     C23382   8.731   6.907  -0.282 -0.5821  0.6344 -0.8641
  174MOL0     C23383   8.765   6.785  -0.360  0.1964 -0.4865 -0.1241
  174MOL0     C23384   8.600   6.927  -0.240  0.5455 -0.6615  0.4288
  174MOL0     C23385   8.482   6.830  -0.267 -1.0579  0.3294  0.0059
  174MOL0     O23386   8.349   6.880  -0.260 -0.5543  0.4272 -0.2666
  174MOL0     C23387   8.259   6.788  -0.209 -0.2084  0.6896 -0.2483
  174MOL0     C23388   8.268   6.743  -0.077  0.3978 -0.1398  0.3230
  174MOL0     C23389   8.182   6.636  -0.025 -0.3999 -0.5210 -0.5337
  174MOL0     C23390   8.089   6.574  -0.111  0.0485  0.9836 -1.1679
  174MOL0     O23391   8.024   6.458  -0.062  0.1450  0.4043 -0.1301
  174MOL0     C23392   8.057   6.385   0.062 -0.3923 -0.4136  0.3646
  174MOL0     C23393   7.946   6.295   0.114  0.5924  0.7290 -0.9066
  174MOL0     C23394   8.004   6.189   0.213 -1.0897  0.0636 -0.2070
  174MOL0     C23395   7.885   6.100   0.264 -1.4939 -0.1049 -0.1994
  174MOL0     C23396   7.941   5.998   0.366 -1.1245 -0.1339  0.0557
  174MOL0     C23397   7.969   6.062   0.504 -0.2883 -0.0085  0.0426
  174MOL0     C23398   7.977   5.954   0.622 -0.1184  0.3038  0.8972
  174MOL0     C23399   7.984   6.011   0.761  0.0598 -0.0851 -1.2597
  174MOL0    Cl23400   7.854   6.140   0.798 -0.1722 -0.3882  0.0024
  174MOL0     C23401   8.076   6.625  -0.240  0.3147 -0.2864  0.8088
  174MOL0     C23402   8.158   6.721  -0.287 -0.0103 -0.1545 -1.0959
  174MOL0     O23403   8.512   6.718  -0.301  0.1649 -0.3059  0.1450
  174MOL0     C23404   8.562   7.053  -0.186 -1.1095 -0.9703 -0.1171
  174MOL0     C23405   8.656   7.150  -0.159  0.7076  0.0226  1.0998
  174MOL0     N23406   9.343   7.203   0.065  0.4034 -0.0036 -0.6024
  174MOL0     N23407   9.439   7.185   0.158  0.2616  0.5300 -0.0368
  174MOL0     C23408  10.635   7.145   0.561 -0.0324  0.7521 -0.0026
  174MOL0     C23409  10.772   7.184   0.582  0.3625  0.1743 -0.5426
  174MOL0     C23410  11.154   7.289   0.773 -0.0907  0.7160  0.0331
  174MOL0     C23411  11.265   7.214   0.717  0.8579 -0.9012  0.4300
  174MOL0     C23412  11.394   7.252   0.752 -0.2649 -0.9140 -0.0822
  174MOL0     C23413  11.425   7.359   0.836  0.1088 -0.0691 -0.0959
  174MOL0     O23414  11.550   7.386   0.879 -0.4040 -0.1705 -0.2992
  174MOL0     C23415  11.665   7.301   0.852  0.5249  0.5896 -0.2558
  174MOL0     C23416  11.764   7.331   0.964  0.1242  0.2208  0.0374
  174MOL0     C23417  11.821   7.481   0.955  0.1422 -0.3685  0.8181
  174MOL0     C23418  11.953   7.507   1.046  0.3892 -0.1988  0.3133
  174MOL0     C23419  12.061   7.560   0.958  0.2935  0.0665  0.5937
  174MOL0     C23420  12.135   7.607   0.880 -0.5886 -1.1125 -0.5785
  174MOL0     C23421  11.325   7.437   0.882  0.0481 -0.5412 -0.0156
  174MOL0     C23422  11.190   7.406   0.845  0.7798 -0.2394 -0.6942
  174MOL0     H23423  10.909   6.888   0.671  1.0956  0.6685  0.9062
  174MOL0     H23424  10.676   6.819   0.635 -1.4180  0.2094 -0.7201
  174MOL0     H23425  10.348   7.114   0.571 -1.2888 -1.3471  0.4202
  174MOL0     H23426  10.379   7.056   0.407  0.5223 -2.0762 -1.8516
  174MOL0     H23427  10.266   6.844   0.440  0.2438 -0.7617 -0.4610
  174MOL0     H23428  10.235   6.889   0.608 -2.1589  0.3038 -1.3733
  174MOL0     H23429  10.039   7.008   0.534  0.3578  0.0413 -0.1351
  174MOL0     H23430  10.151   7.104   0.433 -0.3349  1.2519  0.1868
  174MOL0     H23431  10.108   6.957   0.240 -0.4664  1.0841 -0.6014
  174MOL0     H23432  10.024   6.840   0.336  0.5413  0.8517  2.1195
  174MOL0     H23433   9.846   7.048   0.377 -1.8121  1.3194 -2.3792
  174MOL0     H23434   9.935   7.121   0.246  0.2516 -1.5125 -0.1024
  174MOL0     H23435   9.884   6.940   0.095 -1.8544 -0.8581 -1.0717
  174MOL0     H23436   9.815   6.844   0.224 -0.8088 -0.0206 -2.5999
  174MOL0     H23437   9.644   6.937   0.093 -0.4442 -0.3157  0.5739
  174MOL0     H23438   9.625   6.993   0.254  2.1155  0.4214  1.0677
  174MOL0     H23439   9.775   7.158   0.055  0.7504 -1.7495  0.4200
  174MOL0     H23440   9.701   7.207   0.209 -0.1587  1.3646 -0.2661
  174MOL0     H23441   9.616   7.197  -0.121  1.8370 -3.2439  1.6361
  174MOL0     H23442   9.337   7.357  -0.203 -4.2660  1.2041  1.4492
  174MOL0     H23443   9.347   7.187  -0.257  0.6870 -1.9570  1.4491
  174MOL0     H23444   9.150   7.326  -0.077  0.2997  1.3574 -1.7259
  174MOL0     H23445   9.149   7.145  -0.099 -0.4276  0.1322  0.9595
  174MOL0     H23446   9.084   7.143  -0.312  1.1472  0.2433 -0.2745
  174MOL0     H23447   9.135   7.315  -0.342  1.0221 -0.5671 -0.0678
  174MOL0     H23448   8.889   7.273  -0.345  0.9506 -4.1098 -0.8684
  174MOL0     H23449   8.953   7.388  -0.234  2.5948 -0.9999 -1.5688
  174MOL0     H23450   8.932   6.978  -0.258 -0.3096 -2.0260 -1.3175
  174MOL0     H23451   8.698   6.778  -0.446  0.4277 -0.3004 -0.3225
  174MOL0     H23452   8.862   6.799  -0.408 -0.5527 -3.2987 -2.7954
  174MOL0     H23453   8.762   6.701  -0.290  1.1846 -0.7749 -0.4022
  174MOL0     H23454   8.336   6.795  -0.010 -0.2807  1.3205 -0.0744
  174MOL0     H23455   8.189   6.616   0.081 -1.5605  0.6515 -0.2233
  174MOL0     H23456   8.152   6.332   0.049 -0.0538  0.3718 -0.4377
  174MOL0     H23457   8.093   6.447   0.144  0.9451  0.6728 -0.9877
  174MOL0     H23458   7.875   6.357   0.170  1.1265 -0.6201  1.3931
  174MOL0     H23459   7.891   6.253   0.029  0.6129 -1.7984  0.2444
  174MOL0     H23460   8.052   6.253   0.288  0.1199  0.0454 -0.9484
  174MOL0     H23461   8.083   6.132   0.165 -0.6280  0.0940  0.5022
  174MOL0     H23462   7.811   6.165   0.311  0.1836  1.0518  0.9386
  174MOL0     H23463   7.839   6.040   0.185 -1.0495 -0.4235 -0.2203
  174MOL0     H23464   8.031   5.958   0.318 -0.3517  0.4910  0.9375
  174MOL0     H23465   7.873   5.914   0.376 -0.0772 -1.0151 -0.0266
  174MOL0     H23466   8.064   6.116   0.499 -1.0020  1.6277  2.3783
  174MOL0     H23467   7.895   6.132   0.542 -0.6238  0.3481 -1.2470
  174MOL0     H23468   8.067   5.897   0.597 -0.3660  0.6865 -1.0218
  174MOL0     H23469   7.892   5.886   0.613  0.0816 -0.1367  2.1626
  174MOL0     H23470   8.078   6.061   0.787 -0.3892  0.3118 -0.3221
  174MOL0     H23471   7.961   5.931   0.833  0.2965  1.9820  1.2969
  174MOL0     H23472   8.002   6.575  -0.301  0.8966 -2.6142  1.8868
  174MOL0     H23473   8.150   6.758  -0.389 -0.3617  1.6790 -0.4358
  174MOL0     H23474   8.457   7.064  -0.163 -1.6565  0.7713 -2.9833
  174MOL0     H23475   8.625   7.247  -0.119  0.9800 -0.2032  1.8801
  174MOL0     H23476  10.559   7.208   0.517  0.1699  2.2012  1.6389
  174MOL0     H23477  10.807   7.284   0.557  2.0569 -0.5833 -1.3826
  174MOL0     H23478  11.246   7.134   0.645  1.7759 -1.2847  0.6005
  174MOL0     H23479  11.475   7.203   0.700 -0.1322 -1.7629  0.8817
  174MOL0     H23480  11.623   7.201   0.862 -1.9772  1.8189  4.6167
  174MOL0     H23481  11.720   7.313   0.758  2.0969 -3.5397 -0.0727
  174MOL0     H23482  11.849   7.262   0.960  0.5855  0.8224 -0.8408
  174MOL0     H23483  11.724   7.323   1.066  1.4552 -1.7153  0.4636
  174MOL0     H23484  11.735   7.546   0.976  1.2342  1.1458  0.7088
  174MOL0     H23485  11.851   7.504   0.853 -1.4420  0.5283  0.5176
  174MOL0     H23486  11.988   7.422   1.106  1.3002  1.7280  2.6485
  174MOL0     H23487  11.926   7.584   1.118  2.8227 -2.1152  3.5598
  174MOL0     H23488  12.200   7.665   0.818 -0.9861 -1.5688 -1.4381
  174MOL0     H23489  11.357   7.518   0.947  4.6449 -2.2496  0.2156
  174MOL0     H23490  11.118   7.483   0.870 -1.9879 -2.4453 -1.2539
  175MOL0     O23491   7.465   8.627   2.898  0.3757 -0.6114  0.9129
  175MOL0     C23492   7.515   8.733   2.857 -0.5954 -0.0657 -0.5866
  175MOL0     O23493   7.463   8.816   2.767  0.4276 -0.1837 -0.2016
  175MOL0     C23494   7.335   8.799   2.706  0.2160 -0.4572 -0.3046
  175MOL0     C23495   7.317   8.839   2.571 -0.5206 -0.3807 -0.5255
  175MOL0     C23496   7.194   8.859   2.511 -0.4087  0.2754 -0.1512
  175MOL0     C23497   7.083   8.812   2.573  0.4091  0.1270 -0.3132
  175MOL0     O23498   6.959   8.812   2.525 -0.8389 -0.0085 -0.0011
  175MOL0     C23499   6.915   8.948   2.507  0.4270  0.6510 -0.8625
  175MOL0     C23500   6.767   8.951   2.552 -0.6088  0.1906 -0.4616
  175MOL0     C23501   6.700   9.083   2.494 -0.3618  0.3929  0.4952
  175MOL0     C23502   6.550   9.059   2.510  0.0202  0.4965 -0.1277
  175MOL0     C23503   6.467   9.165   2.437 -0.3894 -0.5440  0.1737
  175MOL0     C23504   6.319   9.143   2.469  0.4193 -0.2691 -0.3180
  175MOL0     C23505   6.236   9.246   2.389 -0.2525  0.7101  0.5525
  175MOL0     C23506   6.094   9.195   2.373  0.3974 -0.3471  0.1011
  175MOL0     N23507   6.016   9.190   2.498  0.0595  0.1273  0.0602
  175MOL0     C23508   6.007   9.296   2.592 -0.0015  0.6642 -0.0333
  175MOL0     C23509   5.969   9.237   2.705  0.4553  0.5843  0.0345
  175MOL0     C23510   5.936   9.295   2.845 -0.1068 -0.3984 -0.5002
  175MOL0     C23511   5.824   9.406   2.836  0.2784 -0.0304  2.2839
  175MOL0     C23512   5.815   9.462   2.978 -0.2686  0.0361  0.0326
  175MOL0     C23513   5.697   9.559   2.979 -0.1718  0.1690  0.3092
  175MOL0     O23514   5.658   9.583   3.118 -0.0352 -0.1526  0.0345
  175MOL0     C23515   5.543   9.667   3.121  0.0675  0.8116 -0.3886
  175MOL0     C23516   5.511   9.681   3.258 -0.0618 -0.0109 -0.4970
  175MOL0     C23517   5.406   9.770   3.288  0.6510  0.6695  0.1071
  175MOL0     C23518   5.384   9.791   3.439  0.2680  0.8527  0.0852
  175MOL0     C23519   5.324   9.843   3.190 -0.4668 -0.4284  1.0240
  175MOL0     C23520   5.212   9.933   3.219 -0.4648 -0.0169 -0.9073
  175MOL0     O23521   5.147   9.911   3.330  0.3081  0.2969  0.0509
  175MOL0     C23522   5.072  10.011   3.387 -0.4916 -0.8661 -0.0380
  175MOL0     C23523   4.928  10.010   3.379 -0.2777 -0.4251 -1.1632
  175MOL0     C23524   4.857  10.112   3.452 -0.4096  0.2001 -0.0073
  175MOL0     C23525   4.934  10.210   3.514 -0.7789 -0.9025  0.2135
  175MOL0     O23526   4.853  10.303   3.570  0.5733 -0.1970  0.1231
  175MOL0     C23527   4.918  10.396   3.667  1.1944 -0.4440  0.5533
  175MOL0     C23528   4.810  10.461   3.763  1.1684 -0.8398 -0.3079
  175MOL0     C23529   4.665  10.392   3.770 -1.5315  0.5326  0.7624
  175MOL0     C23530   4.578  10.471   3.862  0.2653 -0.1890 -0.8203
  175MOL0     C23531   4.445  10.390   3.865  0.6551  1.1153 -1.4536
  175MOL0     C23532   4.345  10.441   3.971  0.6609  0.7405  0.5233
  175MOL0     C23533   4.247  10.552   3.926  0.0490  0.2980 -0.4779
  175MOL0     C23534   4.140  10.509   3.828  0.1305  0.8607  0.0274
  175MOL0    Cl23535   4.014  10.629   3.832  0.2650 -0.0436  0.2281
  175MOL0     C23536   5.070  10.203   3.529 -0.3912 -0.9918  1.0367
  175MOL0     C23537   5.145  10.108   3.469 -0.3703  0.3628 -0.6008
  175MOL0     O23538   5.175  10.013   3.137 -0.4514 -0.4229 -0.1944
  175MOL0     C23539   5.368   9.822   3.056  0.7812  0.0180  0.0295
  175MOL0     C23540   5.474   9.737   3.016 -0.4099  0.1626 -0.3638
  175MOL0     N23541   5.956   9.098   2.677 -0.9803 -0.6414  0.4265
  175MOL0     N23542   5.980   9.077   2.554  0.4508  0.2070 -0.4255
  175MOL0     C23543   7.103   8.757   2.702  0.1163 -0.7725 -0.5633
  175MOL0     C23544   7.220   8.762   2.774 -0.6226  0.2993  0.9335
  175MOL0     C23545   7.642   8.775   2.919 -0.3596 -0.3983  0.3827
  175MOL0     C23546   7.721   8.672   2.980  0.0153 -0.3381  0.3408
  175MOL0     C23547   7.843   8.703   3.036  0.2639 -0.1128 -0.2756
  175MOL0     C23548   7.895   8.839   3.039 -0.1291 -0.1805 -1.0963
  175MOL0     O23549   8.007   8.870   3.111  0.4919 -1.0999 -0.3603
  175MOL0     C23550   8.106   8.775   3.134 -0.6922 -0.7605 -0.1927
  175MOL0     C23551   8.224   8.849   3.186 -0.3639 -0.0412  0.1881
  175MOL0     C23552   8.267   8.953   3.068 -0.2049  0.1747  0.0195
  175MOL0     C23553   8.366   9.057   3.128  0.8004  0.4157  0.4127
  175MOL0     C23554   8.305   9.161   3.215  1.1408 -0.8954 -0.3113
  175MOL0     C23555   8.276   9.252   3.289  0.1927  0.4173 -0.0387
  175MOL0     C23556   7.811   8.939   2.982 -0.2262  0.1504  0.4822
  175MOL0     C23557   7.694   8.908   2.920  0.1545 -0.4130  0.5008
  175MOL0     H23558   7.414   8.868   2.531 -0.9953  0.3996 -1.1336
  175MOL0     H23559   7.184   8.896   2.409 -0.2700  1.3271  0.2093
  175MOL0     H23560   6.977   9.025   2.555 -0.8903  0.8594  0.5752
  175MOL0     H23561   6.914   8.969   2.399 -1.4188  3.9950 -0.3242
  175MOL0     H23562   6.711   8.863   2.517 -2.4027  0.8761  0.5440
  175MOL0     H23563   6.762   8.952   2.662  1.3628 -0.2740 -0.3250
  175MOL0     H23564   6.723   9.164   2.564  2.6956 -1.4177  1.7720
  175MOL0     H23565   6.727   9.100   2.390  1.4198 -0.6086  0.7498
  175MOL0     H23566   6.519   8.962   2.470 -3.6724 -0.7029  4.6483
  175MOL0     H23567   6.534   9.066   2.618 -0.6975  1.5193 -0.2829
  175MOL0     H23568   6.498   9.263   2.473 -1.0361 -0.2041 -0.1816
  175MOL0     H23569   6.494   9.147   2.332  1.4340  0.1879  0.4705
  175MOL0     H23570   6.285   9.040   2.454 -2.6959  0.3514  1.3973
  175MOL0     H23571   6.307   9.155   2.577  0.1832 -1.7061 -0.1533
  175MOL0     H23572   6.239   9.349   2.425  2.0699  1.2043 -0.8391
  175MOL0     H23573   6.264   9.235   2.284 -1.4527 -1.6357  0.4109
  175MOL0     H23574   6.105   9.100   2.322  1.4822 -1.2421  1.8795
  175MOL0     H23575   6.032   9.263   2.315 -2.8179 -2.3647  0.9711
  175MOL0     H23576   6.029   9.402   2.581 -1.5833  0.8495 -2.1534
  175MOL0     H23577   5.889   9.221   2.910 -1.0598  1.3819  0.9295
  175MOL0     H23578   6.030   9.337   2.885  0.5634 -0.0426 -2.3521
  175MOL0     H23579   5.728   9.366   2.803 -0.7799  3.0467  1.3293
  175MOL0     H23580   5.851   9.483   2.764 -1.1835 -1.9323 -0.4957
  175MOL0     H23581   5.906   9.521   2.993 -1.2236  1.3325  0.9861
  175MOL0     H23582   5.803   9.384   3.053  1.7478 -0.3715 -0.0342
  175MOL0     H23583   5.613   9.513   2.926 -0.9452  0.2446  1.4349
  175MOL0     H23584   5.733   9.644   2.920  1.1274 -0.8868 -0.4870
  175MOL0     H23585   5.566   9.616   3.325 -1.1352 -1.5699 -1.0965
  175MOL0     H23586   5.303   9.724   3.471 -0.5636  2.0734  0.6237
  175MOL0     H23587   5.482   9.758   3.476  1.5381  1.9107 -2.1895
  175MOL0     H23588   5.361   9.898   3.441  4.1199  1.9301 -2.8200
  175MOL0     H23589   4.886   9.922   3.332  0.4660 -1.2984 -0.2365
  175MOL0     H23590   4.749  10.110   3.448 -0.4132  0.6904 -0.2928
  175MOL0     H23591   4.984  10.336   3.730  4.2664  1.8421 -0.2548
  175MOL0     H23592   4.969  10.471   3.606  0.0413  1.7543  2.1229
  175MOL0     H23593   4.831  10.454   3.871  0.8291 -0.5639 -0.2224
  175MOL0     H23594   4.795  10.564   3.733  0.1644 -1.5030 -2.2176
  175MOL0     H23595   4.667  10.290   3.810 -0.8824  0.7838  1.3991
  175MOL0     H23596   4.625  10.390   3.668  1.6726  2.6647 -0.7158
  175MOL0     H23597   4.611  10.474   3.966 -0.0663 -1.7473 -0.6407
  175MOL0     H23598   4.561  10.576   3.839  0.2539 -0.0600 -0.2389
  175MOL0     H23599   4.466  10.287   3.896  0.5720  1.7196  0.7749
  175MOL0     H23600   4.397  10.381   3.767  0.2368 -0.8982 -1.1201
  175MOL0     H23601   4.300  10.349   4.008  3.0501 -1.0486 -0.7544
  175MOL0     H23602   4.391  10.487   4.059  0.7460  0.9124  0.3890
  175MOL0     H23603   4.288  10.641   3.877 -1.6801  1.4138  0.0489
  175MOL0     H23604   4.218  10.587   4.025  2.8993 -0.7623  0.8529
  175MOL0     H23605   4.101  10.409   3.851  3.2933 -0.5563 -0.1768
  175MOL0     H23606   4.178  10.512   3.726  1.0611  0.0856  0.3361
  175MOL0     H23607   5.120  10.279   3.588 -1.1393  0.3094  0.0407
  175MOL0     H23608   5.251  10.088   3.484 -0.3469  1.1170  0.3691
  175MOL0     H23609   5.316   9.881   2.981  0.6047 -0.3284 -0.1211
  175MOL0     H23610   5.505   9.722   2.912  0.0744  0.0226 -0.2046
  175MOL0     H23611   7.015   8.736   2.761 -0.9030  2.2528 -0.8411
  175MOL0     H23612   7.223   8.733   2.879  0.7465  0.3674  0.9230
  175MOL0     H23613   7.696   8.566   2.976  0.9833 -0.6575 -4.9296
  175MOL0     H23614   7.900   8.631   3.093  0.9397  1.1123  0.6515
  175MOL0     H23615   8.074   8.708   3.214  1.8278  0.3661  1.9026
  175MOL0     H23616   8.135   8.727   3.040  1.5651 -0.9769  0.5610
  175MOL0     H23617   8.310   8.783   3.197  0.1851 -0.0261 -3.0493
  175MOL0     H23618   8.190   8.902   3.276 -3.9779 -0.8310 -0.5748
  175MOL0     H23619   8.186   9.011   3.023  0.6011  2.1241  0.9574
  175MOL0     H23620   8.317   8.892   2.992 -1.0355 -2.6266  1.5814
  175MOL0     H23621   8.414   9.112   3.047 -2.2191  0.1930 -1.7008
  175MOL0     H23622   8.448   9.004   3.177  2.9825  1.4151 -1.9001
  175MOL0     H23623   8.242   9.331   3.352  0.2451 -0.2181  0.8120
  175MOL0     H23624   7.836   9.044   2.998  0.4782  0.1067 -0.3089
  175MOL0     H23625   7.624   8.989   2.903 -1.5850 -1.6773  1.3844
  176MOL0     O23626   1.837  10.850   5.537  0.1079 -0.3879 -0.6097
  176MOL0     C23627   1.921  10.782   5.601  0.0548  0.4258 -0.4602
  176MOL0     O23628   1.936  10.648   5.589  0.1304  0.9661  0.2281
  176MOL0     C23629   1.849  10.567   5.528  0.3013  0.1493 -0.4166
  176MOL0     C23630   1.787  10.584   5.397 -1.1666  0.1015  0.0975
  176MOL0     C23631   1.702  10.491   5.342  0.0601 -0.4217  0.2652
  176MOL0     C23632   1.685  10.367   5.401  0.4550  0.0645  0.5021
  176MOL0     O23633   1.619  10.270   5.325  0.3239  0.2965  0.8782
  176MOL0     C23634   1.641  10.139   5.377  0.0340  0.0319 -0.1917
  176MOL0     C23635   1.579  10.035   5.283 -0.0062  0.1880  0.2460
  176MOL0     C23636   1.429  10.048   5.267 -0.3205  0.8959  0.3586
  176MOL0     C23637   1.368   9.906   5.240 -0.1881  0.1524  0.8748
  176MOL0     C23638   1.220   9.914   5.182 -0.3995  0.7799 -0.0500
  176MOL0     C23639   1.216   9.954   5.035  0.6985  0.4348  0.1526
  176MOL0     C23640   1.071   9.925   4.984  0.2218 -0.0929  0.0921
  176MOL0     C23641   1.058   9.962   4.835  0.7448  0.6098  0.2498
  176MOL0     N23642   0.928   9.912   4.781  0.2951 -0.2777  0.4541
  176MOL0     C23643   0.924   9.814   4.677 -0.3718  0.0607 -0.3894
  176MOL0     C23644   0.795   9.788   4.659 -0.5204  0.5204 -0.3122
  176MOL0     C23645   0.741   9.698   4.559  0.1130 -0.4810  1.1821
  176MOL0     C23646   0.663   9.783   4.452 -0.5270 -0.0372  0.5205
  176MOL0     C23647   0.602   9.673   4.353  0.3580 -0.9308 -0.4152
  176MOL0     C23648   0.508   9.736   4.256  0.0171 -0.1811 -0.3519
  176MOL0     O23649   0.588   9.802   4.155  0.7900 -0.2499 -0.3902
  176MOL0     C23650   0.520   9.853   4.048 -0.0577  0.3939 -0.8242
  176MOL0     C23651   0.381   9.856   4.036  0.4843  0.5288  0.9247
  176MOL0     C23652   0.320   9.902   3.912 -0.0092 -0.4141  0.8096
  176MOL0     C23653   0.161   9.900   3.903 -0.1990  0.0221 -0.8065
  176MOL0     C23654   0.408   9.950   3.806 -0.2288  0.1138 -0.3228
  176MOL0     C23655   0.365   9.995   3.667 -0.4483  0.3651  0.3571
  176MOL0     O23656   0.442  10.075   3.594 -0.9595  0.3835  0.6351
  176MOL0     C23657   0.417  10.116   3.461  0.0366 -0.3379 -0.4230
  176MOL0     C23658   0.300  10.106   3.393  0.1472  0.1931 -0.1154
  176MOL0     C23659   0.298  10.147   3.265 -0.0779 -0.3169 -0.2546
  176MOL0     C23660   0.411  10.197   3.196 -0.3928  0.8286 -0.3576
  176MOL0     O23661   0.410  10.228   3.062 -0.4646 -0.7046 -0.3593
  176MOL0     C23662   0.280  10.255   3.006 -0.2180 -0.4309 -0.0012
  176MOL0     C23663   0.321  10.325   2.869  0.5824 -0.4673 -1.0006
  176MOL0     C23664   0.210  10.322   2.775  0.3672 -0.1403 -0.3563
  176MOL0     C23665   0.238  10.411   2.655  0.9090 -0.2172 -1.4303
  176MOL0     C23666   0.123  10.414   2.544  0.3620  0.2562  0.5176
  176MOL0     C23667   0.135  10.533   2.443 -0.6291  0.2194  0.2364
  176MOL0     C23668   0.038  10.506   2.325 -0.1945 -0.1171 -0.0243
  176MOL0     C23669   0.065  10.606   2.207 -0.3271  0.3205  0.4266
  176MOL0    Cl23670  -0.080  10.586   2.096 -0.1544 -0.2732  0.0625
  176MOL0     C23671   0.520  10.222   3.271 -0.1160 -0.4237  0.2088
  176MOL0     C23672   0.526  10.182   3.403  0.7637 -0.2497  0.8479
  176MOL0     O23673   0.247   9.955   3.636  1.2070 -0.0084  0.9478
  176MOL0     C23674   0.552   9.963   3.834  0.0072 -0.5580 -0.5103
  176MOL0     C23675   0.602   9.921   3.957 -0.8930  1.2696  0.5383
  176MOL0     N23676   0.722   9.855   4.753  0.3354 -0.4876 -0.2782
  176MOL0     N23677   0.801   9.926   4.825 -0.6454 -0.6184  0.2432
  176MOL0     C23678   1.742  10.347   5.528 -0.3707 -0.8326  0.7685
  176MOL0     C23679   1.821  10.443   5.583  0.6381  0.7090 -0.4788
  176MOL0     C23680   1.989  10.853   5.720 -0.4434 -0.0573  0.0575
  176MOL0     C23681   1.969  10.988   5.739  0.0884 -0.8412  0.4123
  176MOL0     C23682   2.057  11.063   5.825  0.0998 -0.1729  0.0676
  176MOL0     C23683   2.174  11.006   5.882 -0.3299 -0.3697 -0.5087
  176MOL0     O23684   2.258  11.100   5.942  0.0414 -0.0078 -0.1598
  176MOL0     C23685   2.401  11.062   5.976 -0.0603  0.0832 -0.1644
  176MOL0     C23686   2.410  10.964   6.094  0.3727  0.1699  0.2996
  176MOL0     C23687   2.320  11.009   6.216 -0.4574 -0.9065  0.3317
  176MOL0     C23688   2.319  10.910   6.339  0.2339 -0.2747  0.6281
  176MOL0     C23689   2.246  10.795   6.288 -0.4772  0.2458  0.1736
  176MOL0     C23690   2.205  10.694   6.233 -0.3119 -0.8975 -0.2203
  176MOL0     C23691   2.180  10.868   5.877 -0.5606  0.0927 -0.6705
  176MOL0     C23692   2.092  10.787   5.801  0.6160 -0.1060  0.6672
  176MOL0     H23693   1.808  10.669   5.332 -1.5588 -1.9746 -2.9319
  176MOL0     H23694   1.648  10.521   5.252  0.0206 -1.7166 -0.1717
  176MOL0     H23695   1.748  10.120   5.392  0.5296  2.9168  0.4901
  176MOL0     H23696   1.586  10.138   5.471 -0.4029 -0.6027 -0.4472
  176MOL0     H23697   1.623  10.045   5.183 -0.6909 -1.4732 -0.2526
  176MOL0     H23698   1.606   9.935   5.319  1.1679 -0.7784 -2.9595
  176MOL0     H23699   1.381  10.088   5.358  0.4019 -0.5718  1.4223
  176MOL0     H23700   1.415  10.106   5.176 -0.2630 -0.6494 -0.6656
  176MOL0     H23701   1.434   9.856   5.168  1.1572  2.1759  0.6379
  176MOL0     H23702   1.355   9.852   5.334 -3.5776  0.3685  0.6560
  176MOL0     H23703   1.172   9.817   5.194  0.1924  0.2998 -1.3125
  176MOL0     H23704   1.156   9.982   5.239 -3.4740 -2.2094  0.3650
  176MOL0     H23705   1.241  10.060   5.022 -0.2476  0.7877  1.0745
  176MOL0     H23706   1.291   9.897   4.979  0.5832 -0.3234  0.7567
  176MOL0     H23707   1.065   9.816   4.980  4.2550 -0.5501  1.5646
  176MOL0     H23708   0.994   9.962   5.053  0.4568  2.0277 -0.7045
  176MOL0     H23709   1.144   9.931   4.777 -0.4589  0.3378 -1.4591
  176MOL0     H23710   1.061  10.072   4.832 -0.3399  0.9018  4.1377
  176MOL0     H23711   1.007   9.778   4.617  2.1032  1.4209  2.0104
  176MOL0     H23712   0.833   9.654   4.518 -0.8136  0.3308 -1.9864
  176MOL0     H23713   0.679   9.620   4.605 -0.3363 -0.6173  0.3453
  176MOL0     H23714   0.726   9.862   4.410 -2.4218  2.8304  2.6742
  176MOL0     H23715   0.591   9.840   4.512 -1.7100 -2.3937  1.4966
  176MOL0     H23716   0.549   9.595   4.410 -2.0521  2.0880  1.8365
  176MOL0     H23717   0.692   9.628   4.310  0.3560 -1.0788 -0.2666
  176MOL0     H23718   0.443   9.806   4.310  0.9794  1.0818 -0.7789
  176MOL0     H23719   0.442   9.662   4.210  0.8392 -2.3739  1.7784
  176MOL0     H23720   0.318   9.810   4.111  2.1613 -2.9624  0.3938
  176MOL0     H23721   0.131   9.830   3.824 -0.1826  0.4038 -1.1520
  176MOL0     H23722   0.119   9.856   3.994  0.3001  0.1076 -0.5309
  176MOL0     H23723   0.125  10.001   3.885 -0.3382 -0.2968 -2.4713
  176MOL0     H23724   0.208  10.060   3.428  0.8602 -1.2092  0.0085
  176MOL0     H23725   0.207  10.135   3.208  0.1156  2.7046 -1.3960
  176MOL0     H23726   0.238  10.157   2.980 -0.3524 -1.0259  2.2906
  176MOL0     H23727   0.218  10.318   3.070  2.7674  4.1016 -1.0538
  176MOL0     H23728   0.344  10.431   2.884  0.5702 -0.3016 -2.0621
  176MOL0     H23729   0.406  10.276   2.821  1.0978 -1.5587  0.9498
  176MOL0     H23730   0.119  10.358   2.824  1.6956  3.9833 -0.5311
  176MOL0     H23731   0.194  10.219   2.741 -2.6435  0.2027 -0.2413
  176MOL0     H23732   0.245  10.514   2.691  3.5637  0.7048 -4.1233
  176MOL0     H23733   0.329  10.382   2.601 -0.2454  0.5709 -3.9652
  176MOL0     H23734   0.028  10.430   2.595  0.3552 -0.3440  0.6999
  176MOL0     H23735   0.124  10.315   2.498 -3.7797 -0.0418  0.6760
  176MOL0     H23736   0.112  10.627   2.494 -0.8723  0.0218  0.4920
  176MOL0     H23737   0.234  10.534   2.398 -2.2885  3.5028 -4.0904
  176MOL0     H23738  -0.068  10.509   2.350 -0.6650 -0.6244 -1.7874
  176MOL0     H23739   0.048  10.406   2.282 -1.7341 -0.4692  0.3836
  176MOL0     H23740   0.158  10.583   2.155 -1.1972  0.5019 -1.2727
  176MOL0     H23741   0.063  10.709   2.247  0.5533  0.4698  0.1163
  176MOL0     H23742   0.606  10.259   3.216  0.6998 -1.5053  0.7099
  176MOL0     H23743   0.621  10.182   3.457  0.3959 -0.9347  1.5118
  176MOL0     H23744   0.622  10.011   3.765 -0.6216  1.0632 -0.0636
  176MOL0     H23745   0.706   9.932   3.986 -0.9951  2.9773  0.3895
  176MOL0     H23746   1.733  10.254   5.584 -2.1473 -2.3508 -1.8155
  176MOL0     H23747   1.870  10.418   5.677 -1.0146 -1.5871 -0.1222
  176MOL0     H23748   1.888  11.046   5.697 -2.2287 -3.1084  1.5384
  176MOL0     H23749   2.032  11.168   5.841 -1.4531 -0.6843  1.2725
  176MOL0     H23750   2.454  11.012   5.895  0.9492  0.4624  0.2498
  176MOL0     H23751   2.464  11.150   5.988  0.4132 -0.1253 -1.0202
  176MOL0     H23752   2.517  10.972   6.113  0.7319 -0.9470 -1.1062
  176MOL0     H23753   2.389  10.861   6.065 -1.0123  0.8478 -1.2908
  176MOL0     H23754   2.217  11.029   6.186 -0.7945 -2.8610  0.0460
  176MOL0     H23755   2.363  11.104   6.249  0.0956 -1.6539  1.8276
  176MOL0     H23756   2.285  10.948   6.436 -1.1655  1.3903 -0.4497
  176MOL0     H23757   2.418  10.867   6.358  1.0226  0.4972 -1.4342
  176MOL0     H23758   2.169  10.598   6.200  1.4491 -1.4842 -0.5276
  176MOL0     H23759   2.264  10.820   5.925 -1.5215 -1.4307 -0.4281
  176MOL0     H23760   2.108  10.682   5.778  1.4565  0.4126 -1.3593
  177MOL0     O23761  10.960   1.046   4.324 -0.6843 -0.2644  0.7897
  177MOL0     C23762  10.973   0.927   4.285 -0.9454 -0.4534  0.3048
  177MOL0     O23763  10.927   0.872   4.163 -0.3307  0.4920  0.1312
  177MOL0     C23764  10.848   0.950   4.089  1.7260  0.5279 -0.0681
  177MOL0     C23765  10.719   0.911   4.066  0.2103  1.5596 -0.7768
  177MOL0     C23766  10.630   0.984   3.996  0.5247 -0.3927 -0.5141
  177MOL0     C23767  10.660   1.099   3.935  0.0138 -0.7224 -0.1674
  177MOL0     O23768  10.562   1.161   3.862  0.1303 -0.3493  0.4783
  177MOL0     C23769  10.522   1.295   3.882  1.1138  0.1346 -0.0511
  177MOL0     C23770  10.371   1.325   3.887  0.1122  0.3977 -0.3777
  177MOL0     C23771  10.286   1.278   3.771  0.4343  0.0352 -0.5115
  177MOL0     C23772  10.136   1.296   3.796  0.1009  0.4089  0.5156
  177MOL0     C23773  10.050   1.239   3.675 -0.8036 -0.5614 -0.1869
  177MOL0     C23774  10.041   1.324   3.559  1.0009  0.2159  0.2235
  177MOL0     C23775   9.942   1.436   3.566  0.5458  0.0563 -0.6234
  177MOL0     C23776   9.972   1.562   3.490  0.3968  0.8638  0.9905
  177MOL0     N23777   9.855   1.645   3.475  0.2118 -0.9451 -0.5295
  177MOL0     C23778   9.816   1.739   3.572 -0.0388  0.0684 -0.6380
  177MOL0     C23779   9.704   1.800   3.524  0.1807 -0.6217  0.5866
  177MOL0     C23780   9.613   1.915   3.588 -0.1614  0.6789  0.0794
  177MOL0     C23781   9.461   1.892   3.566 -0.1900 -0.0244 -0.4831
  177MOL0     C23782   9.390   1.882   3.698 -0.6978 -0.5774  0.1228
  177MOL0     C23783   9.382   2.016   3.775 -0.2195  0.1144  0.1725
  177MOL0     O23784   9.510   2.047   3.835 -0.0808 -0.0768 -0.5687
  177MOL0     C23785   9.498   2.055   3.974 -0.3124 -0.2167  0.4299
  177MOL0     C23786   9.407   2.129   4.059  0.1466  0.7247  0.3960
  177MOL0     C23787   9.427   2.128   4.201  0.8609  0.6432 -0.2441
  177MOL0     C23788   9.319   2.192   4.277  0.1625  1.0708  0.1049
  177MOL0     C23789   9.523   2.041   4.261  0.2157  0.1919 -0.1676
  177MOL0     C23790   9.543   2.011   4.410 -0.7080 -0.0094  0.3315
  177MOL0     O23791   9.467   2.073   4.506  0.0064 -0.1478 -0.3131
  177MOL0     C23792   9.488   2.062   4.639 -0.3372  0.1228 -0.4928
  177MOL0     C23793   9.558   2.152   4.708 -0.0039  0.0009 -0.8158
  177MOL0     C23794   9.596   2.143   4.835 -0.2418 -0.4112  0.0270
  177MOL0     C23795   9.554   2.037   4.910 -0.6167 -0.4994 -0.7816
  177MOL0     O23796   9.613   2.024   5.033  0.9773 -0.6057 -1.2159
  177MOL0     C23797   9.642   1.893   5.084 -1.0340 -0.7287  0.2774
  177MOL0     C23798   9.769   1.894   5.185  1.4593 -0.1760 -0.6982
  177MOL0     C23799   9.890   1.989   5.153 -0.8694 -1.1251 -0.0509
  177MOL0     C23800  10.018   1.961   5.239 -0.8074 -0.7368  0.3674
  177MOL0     C23801  10.153   1.998   5.180 -0.2941  0.0953 -0.0146
  177MOL0     C23802  10.154   2.157   5.161  0.4943 -0.0159 -0.5767
  177MOL0     C23803  10.301   2.196   5.137  0.6705  0.9635  0.2833
  177MOL0     C23804  10.319   2.344   5.125 -0.0395  0.4742  0.0174
  177MOL0    Cl23805  10.250   2.408   4.967  0.0502  0.0519  0.1928
  177MOL0     C23806   9.470   1.940   4.852  0.9199  0.0244 -0.1629
  177MOL0     C23807   9.437   1.953   4.711 -1.0620  0.3489  0.0637
  177MOL0     O23808   9.644   1.939   4.436 -0.1017  0.3786  0.0891
  177MOL0     C23809   9.618   1.976   4.178 -0.9388 -0.4026  0.4989
  177MOL0     C23810   9.601   1.987   4.040  0.0584  0.5352  0.6378
  177MOL0     N23811   9.681   1.744   3.399 -0.6909 -0.6242 -1.0646
  177MOL0     N23812   9.766   1.648   3.371 -0.2149  0.4764 -0.6918
  177MOL0     C23813  10.793   1.148   3.957  0.0848 -0.1995 -1.2461
  177MOL0     C23814  10.881   1.068   4.033  0.6132 -0.5018  0.8340
  177MOL0     C23815  11.054   0.843   4.373 -1.0131  0.6768  0.1756
  177MOL0     C23816  11.103   0.889   4.496 -0.0060 -0.6088 -0.5236
  177MOL0     C23817  11.175   0.801   4.584 -0.4458 -0.1956 -0.2274
  177MOL0     C23818  11.213   0.672   4.545  0.0298 -0.5588 -0.5077
  177MOL0     O23819  11.305   0.607   4.628 -0.0903  0.3597  0.2475
  177MOL0     C23820  11.360   0.482   4.584  0.3241  0.2887 -0.2723
  177MOL0     C23821  11.480   0.437   4.676  0.3791  0.9307  0.1096
  177MOL0     C23822  11.513   0.284   4.637 -1.3944 -0.2160 -0.3420
  177MOL0     C23823  11.624   0.215   4.726 -0.3487  0.0598  0.6373
  177MOL0     C23824  11.756   0.278   4.721 -0.6192  0.2597  0.5677
  177MOL0     C23825  11.864   0.332   4.696  0.3180  0.1487  0.6232
  177MOL0     C23826  11.162   0.622   4.432 -0.8223 -0.0625  0.1890
  177MOL0     C23827  11.088   0.706   4.345  0.2813  0.1671  0.6563
  177MOL0     H23828  10.698   0.811   4.103  2.2691  1.2244 -0.4177
  177MOL0     H23829  10.541   0.929   3.967  1.2178 -1.4835 -0.6685
  177MOL0     H23830  10.564   1.330   3.977 -0.4599  1.9833  0.0475
  177MOL0     H23831  10.562   1.355   3.800 -1.3675  0.9934 -0.7249
  177MOL0     H23832  10.332   1.276   3.976 -2.5198 -1.6200 -2.4569
  177MOL0     H23833  10.356   1.433   3.894  1.7032  0.8305 -2.5837
  177MOL0     H23834  10.329   1.341   3.693  1.4051  0.0977  0.0633
  177MOL0     H23835  10.310   1.174   3.749 -2.5751 -0.4299 -2.0597
  177MOL0     H23836  10.128   1.227   3.880 -1.7759 -1.7758 -1.3213
  177MOL0     H23837  10.106   1.395   3.832 -0.6535 -0.3927  2.2152
  177MOL0     H23838  10.102   1.149   3.642  4.2225  2.5884 -1.8834
  177MOL0     H23839   9.949   1.223   3.715 -0.7846  4.0841  2.4405
  177MOL0     H23840  10.142   1.358   3.537  1.7075 -0.4776  2.1777
  177MOL0     H23841  10.007   1.261   3.476  1.0912 -0.7091  0.8784
  177MOL0     H23842   9.844   1.400   3.532  0.5396  1.3004 -2.0193
  177MOL0     H23843   9.939   1.471   3.669  0.2854  0.5887 -0.8079
  177MOL0     H23844  10.005   1.533   3.390 -0.5240  0.2584  0.8559
  177MOL0     H23845  10.057   1.616   3.534  1.1590 -0.5586  1.3360
  177MOL0     H23846   9.868   1.761   3.665  3.1454  0.5867 -2.4198
  177MOL0     H23847   9.645   1.912   3.692  3.0910  0.5592 -0.8130
  177MOL0     H23848   9.649   2.005   3.537  2.5072 -1.1486 -1.5572
  177MOL0     H23849   9.445   1.796   3.516 -1.2498  0.3690 -0.9438
  177MOL0     H23850   9.422   1.974   3.505 -3.4075  0.1214  1.5662
  177MOL0     H23851   9.438   1.808   3.763  1.1802  0.8776  0.4629
  177MOL0     H23852   9.287   1.853   3.672 -0.2641 -1.1765 -1.0348
  177MOL0     H23853   9.303   2.004   3.850 -2.2103 -0.5297 -1.9252
  177MOL0     H23854   9.332   2.094   3.716  0.7637 -0.7053 -1.8277
  177MOL0     H23855   9.319   2.177   4.017  1.9407  3.1334 -0.8631
  177MOL0     H23856   9.271   2.270   4.217 -0.9955 -1.0246 -1.8763
  177MOL0     H23857   9.232   2.126   4.281 -0.0411  1.2186 -1.3912
  177MOL0     H23858   9.354   2.234   4.371 -0.0690  2.3149 -0.3451
  177MOL0     H23859   9.579   2.246   4.658  0.4492  1.0867  1.2988
  177MOL0     H23860   9.665   2.219   4.871 -0.2377 -0.8155  0.8994
  177MOL0     H23861   9.562   1.831   5.125  1.2693 -1.8360  3.5000
  177MOL0     H23862   9.674   1.855   4.986 -1.2688  1.6474 -0.8081
  177MOL0     H23863   9.725   1.936   5.276 -0.8546 -1.5042 -1.1209
  177MOL0     H23864   9.789   1.788   5.200  2.1651 -0.4587 -3.1595
  177MOL0     H23865   9.872   2.097   5.163 -1.2428 -1.3886  3.7472
  177MOL0     H23866   9.914   1.958   5.051 -1.3085 -0.6056 -0.3233
  177MOL0     H23867   9.999   2.018   5.330 -4.5677 -1.0695 -0.0653
  177MOL0     H23868  10.023   1.853   5.256  1.4403 -1.1928 -2.4135
  177MOL0     H23869  10.172   1.940   5.089  4.2806  3.1406 -1.3590
  177MOL0     H23870  10.224   1.960   5.254 -1.3969  0.6742  1.3802
  177MOL0     H23871  10.092   2.189   5.077 -1.4665  2.0009  1.5045
  177MOL0     H23872  10.116   2.208   5.250  1.3074 -1.0939  0.4359
  177MOL0     H23873  10.348   2.148   5.051 -1.7783 -0.2892 -0.4470
  177MOL0     H23874  10.363   2.167   5.223  0.3020 -0.1988  0.1721
  177MOL0     H23875  10.425   2.368   5.137 -0.4196  1.6868  1.1791
  177MOL0     H23876  10.270   2.403   5.202 -3.0456 -0.4358 -1.0586
  177MOL0     H23877   9.450   1.853   4.914  1.7299  1.8172  2.8092
  177MOL0     H23878   9.378   1.872   4.669  0.5029 -0.3179 -0.9532
  177MOL0     H23879   9.699   1.913   4.212  0.0511 -0.6876 -2.0871
  177MOL0     H23880   9.673   1.931   3.981 -0.5716 -0.0417  0.4027
  177MOL0     H23881  10.827   1.245   3.921  0.0330 -0.4389 -1.9570
  177MOL0     H23882  10.986   1.093   4.033  0.6340 -0.3273 -1.9051
  177MOL0     H23883  11.068   0.982   4.540  0.7325 -0.8148  0.5335
  177MOL0     H23884  11.210   0.838   4.680 -0.4835  1.4816 -0.8242
  177MOL0     H23885  11.276   0.414   4.602  0.8815 -0.7589 -1.4608
  177MOL0     H23886  11.384   0.489   4.478 -0.1305  0.8192 -0.3440
  177MOL0     H23887  11.459   0.453   4.783  0.0869  1.5215 -0.0315
  177MOL0     H23888  11.565   0.501   4.650  0.3787  1.0127  0.3069
  177MOL0     H23889  11.538   0.280   4.531 -2.8039 -4.3053 -0.7124
  177MOL0     H23890  11.421   0.225   4.647 -1.6081  0.1470 -0.1180
  177MOL0     H23891  11.637   0.108   4.711  3.8796  0.8211 -3.9880
  177MOL0     H23892  11.589   0.231   4.828  0.6699 -0.4949  1.0856
  177MOL0     H23893  11.964   0.366   4.679  0.8212 -1.7762 -0.6489
  177MOL0     H23894  11.185   0.524   4.392  5.5019  1.2566 -0.5007
  177MOL0     H23895  11.061   0.671   4.246  0.6932  0.3520  0.4730
  178MOL0     O23896   0.408   3.090   2.236  0.3812 -0.2249 -0.1986
  178MOL0     C23897   0.522   3.132   2.218  0.3445  0.0973  0.2415
  178MOL0     O23898   0.558   3.266   2.197  0.1210  0.5908  0.0987
  178MOL0     C23899   0.461   3.360   2.187  0.1574 -0.0931  0.4909
  178MOL0     C23900   0.380   3.387   2.306  0.4668  0.7614 -0.8947
  178MOL0     C23901   0.305   3.504   2.315 -0.3999 -0.6076 -0.9418
  178MOL0     C23902   0.319   3.609   2.226  0.3607  0.1762 -0.0608
  178MOL0     O23903   0.253   3.728   2.238  0.0380  0.0867 -0.0596
  178MOL0     C23904   0.283   3.835   2.148 -0.2274 -0.2154 -0.5697
  178MOL0     C23905   0.182   3.943   2.198  0.8498  0.8022 -0.2233
  178MOL0     C23906   0.041   3.907   2.142 -0.4796 -0.2009  0.0176
  178MOL0     C23907  -0.068   4.008   2.190  0.1313 -0.1601 -0.0177
  178MOL0     C23908  -0.206   3.954   2.174 -0.0727 -0.0491  0.6865
  178MOL0     C23909  -0.311   4.051   2.228  0.5723  0.2686  0.3093
  178MOL0     C23910  -0.450   3.985   2.187  0.6811 -0.3265 -0.6978
  178MOL0     C23911  -0.488   3.888   2.302 -0.1194  0.0746  0.3602
  178MOL0     N23912  -0.626   3.850   2.274  0.8906 -0.2086  0.3046
  178MOL0     C23913  -0.732   3.929   2.316 -0.2729  0.5566 -0.3930
  178MOL0     C23914  -0.837   3.865   2.262  0.9256  0.0953 -0.1951
  178MOL0     C23915  -0.980   3.917   2.259 -0.4785  0.2632 -0.2185
  178MOL0     C23916  -0.976   4.069   2.213  0.1804 -0.7818  0.7685
  178MOL0     C23917  -0.899   4.088   2.085  0.4308  0.2538  0.3489
  178MOL0     C23918  -0.940   4.015   1.961 -0.4126  0.2505  0.1990
  178MOL0     O23919  -1.086   4.019   1.953  0.7669  0.8172 -0.4993
  178MOL0     C23920  -1.152   4.099   1.864  0.2493 -0.2655  0.0302
  178MOL0     C23921  -1.094   4.213   1.822 -1.4349 -0.6640  0.0677
  178MOL0     C23922  -1.164   4.307   1.739  0.2425 -0.4088  0.0397
  178MOL0     C23923  -1.092   4.429   1.681  0.6073 -0.1978  0.6953
  178MOL0     C23924  -1.303   4.285   1.708 -0.6871  0.7274 -0.2601
  178MOL0     C23925  -1.388   4.376   1.633 -0.7517 -0.6147 -1.0805
  178MOL0     O23926  -1.488   4.325   1.562  0.4664 -0.4405 -0.0907
  178MOL0     C23927  -1.611   4.385   1.563  0.2354  0.8563  0.2996
  178MOL0     C23928  -1.672   4.430   1.679  0.4112  0.6944 -0.2825
  178MOL0     C23929  -1.799   4.495   1.673 -0.2812 -0.1623 -0.4956
  178MOL0     C23930  -1.869   4.494   1.558  0.5298  0.1117  1.3175
  178MOL0     O23931  -1.983   4.554   1.537 -0.1531  0.2343  0.2966
  178MOL0     C23932  -2.051   4.631   1.642 -0.4100 -0.8864 -0.1945
  178MOL0     C23933  -2.131   4.534   1.736  0.2563 -0.1859  0.2943
  178MOL0     C23934  -2.236   4.584   1.834  0.8091  0.0072 -0.2737
  178MOL0     C23935  -2.196   4.698   1.927  0.1152 -0.4181  0.3458
  178MOL0     C23936  -2.289   4.726   2.045 -0.0510  0.3935  0.0706
  178MOL0     C23937  -2.430   4.745   1.993 -0.6282  0.1302  0.7775
  178MOL0     C23938  -2.529   4.760   2.105  0.6208 -0.8849  0.3808
  178MOL0     C23939  -2.675   4.798   2.070  0.8939  0.8051 -0.6029
  178MOL0    Cl23940  -2.750   4.667   1.984  0.2990 -0.5550  0.4851
  178MOL0     C23941  -1.815   4.449   1.440 -0.4852  0.3494 -0.1846
  178MOL0     C23942  -1.685   4.384   1.445  0.5615 -0.4254 -0.7791
  178MOL0     O23943  -1.358   4.490   1.657 -0.1305 -0.5164  0.9120
  178MOL0     C23944  -1.361   4.168   1.763 -0.0654  0.4595  0.2665
  178MOL0     C23945  -1.284   4.074   1.839 -0.1068 -1.2123 -0.9174
  178MOL0     N23946  -0.790   3.750   2.194  0.1413 -0.2351 -0.9313
  178MOL0     N23947  -0.661   3.738   2.209  0.2567  0.7147  0.3255
  178MOL0     C23948   0.388   3.573   2.106 -0.0279 -0.0596  0.5602
  178MOL0     C23949   0.458   3.454   2.089  0.3572  0.7110  0.6118
  178MOL0     C23950   0.639   3.040   2.207  0.1680 -0.5204 -0.2029
  178MOL0     C23951   0.627   2.921   2.131  0.3522 -0.4371  0.3667
  178MOL0     C23952   0.741   2.838   2.104 -0.1228  0.3745 -0.1274
  178MOL0     C23953   0.871   2.878   2.136  0.0098  0.5899  0.4274
  178MOL0     O23954   0.972   2.787   2.106 -0.6915  0.2923 -0.2220
  178MOL0     C23955   1.101   2.841   2.081  1.3185 -0.0845  0.0456
  178MOL0     C23956   1.089   2.931   1.954 -0.7768 -0.1432  0.5552
  178MOL0     C23957   1.229   2.967   1.898 -0.5733  0.3407  0.2228
  178MOL0     C23958   1.218   3.066   1.780  0.0010 -0.0183  0.3971
  178MOL0     C23959   1.351   3.086   1.728 -0.3789  0.0217 -0.9071
  178MOL0     C23960   1.463   3.083   1.682 -1.2265  0.8613  0.7255
  178MOL0     C23961   0.880   2.997   2.210 -0.4936 -0.0910 -0.0383
  178MOL0     C23962   0.769   3.082   2.236 -0.1233 -0.2205  0.2084
  178MOL0     H23963   0.376   3.308   2.381 -1.4074 -0.4415 -2.1507
  178MOL0     H23964   0.250   3.526   2.406 -0.1157 -0.5559 -0.7835
  178MOL0     H23965   0.387   3.867   2.156 -0.8159  1.3351  1.5604
  178MOL0     H23966   0.260   3.811   2.043 -0.1304 -1.2237 -0.3743
  178MOL0     H23967   0.194   3.962   2.305 -0.6843  1.7651 -0.1798
  178MOL0     H23968   0.215   4.039   2.157  0.0464  0.9075 -0.6420
  178MOL0     H23969   0.047   3.913   2.033  2.4481 -2.3222 -0.0503
  178MOL0     H23970   0.019   3.805   2.177  1.6875 -1.0120 -0.8291
  178MOL0     H23971  -0.060   4.039   2.295 -2.9736  0.1157  0.2499
  178MOL0     H23972  -0.072   4.101   2.132  1.2285 -0.7094 -1.0073
  178MOL0     H23973  -0.221   3.940   2.067 -3.2882  3.0393  0.5364
  178MOL0     H23974  -0.209   3.852   2.214 -0.1918 -0.4153 -0.2431
  178MOL0     H23975  -0.300   4.060   2.337  0.3885  0.7481  0.2877
  178MOL0     H23976  -0.294   4.153   2.192  0.5328  0.6982  1.4404
  178MOL0     H23977  -0.528   4.059   2.170 -0.1144 -0.7058  1.0766
  178MOL0     H23978  -0.436   3.934   2.091  0.4814  0.7448 -1.3089
  178MOL0     H23979  -0.472   3.934   2.400 -1.1022  0.7636  0.2115
  178MOL0     H23980  -0.423   3.800   2.295  2.6275  2.0900 -1.6216
  178MOL0     H23981  -0.728   4.022   2.373 -0.4112 -0.0672  0.6583
  178MOL0     H23982  -1.044   3.856   2.196 -1.8621  0.8349  0.5934
  178MOL0     H23983  -1.013   3.919   2.363  0.6371 -2.1042  0.2472
  178MOL0     H23984  -0.936   4.124   2.299  1.8379 -2.3817  1.0965
  178MOL0     H23985  -1.082   4.097   2.206  0.3521 -0.1237  0.7055
  178MOL0     H23986  -0.793   4.078   2.109  0.1975  1.1436  1.8537
  178MOL0     H23987  -0.912   4.194   2.058  0.3195 -0.0893 -1.0426
  178MOL0     H23988  -0.907   3.911   1.972  0.5953  0.7235  1.9752
  178MOL0     H23989  -0.894   4.058   1.871  1.0831  1.7834  1.6333
  178MOL0     H23990  -0.991   4.241   1.834 -0.9079 -1.8597 -1.3009
  178MOL0     H23991  -1.148   4.517   1.713 -1.5672 -1.2088 -0.0883
  178MOL0     H23992  -0.990   4.440   1.717  0.5853  0.8972  0.4645
  178MOL0     H23993  -1.095   4.417   1.572  2.0926 -0.8614  0.7121
  178MOL0     H23994  -1.617   4.431   1.773 -0.2704  0.8608  0.1182
  178MOL0     H23995  -1.831   4.544   1.764 -2.1719 -1.2084 -0.5409
  178MOL0     H23996  -1.980   4.694   1.697 -0.3430 -1.0233 -0.1247
  178MOL0     H23997  -2.129   4.692   1.596  1.9909  1.0663 -1.9568
  178MOL0     H23998  -2.189   4.472   1.667 -1.1756  1.7090 -0.2994
  178MOL0     H23999  -2.058   4.470   1.786  1.8961  0.2876 -1.3545
  178MOL0     H24000  -2.257   4.499   1.900  0.7808 -0.9018 -1.4226
  178MOL0     H24001  -2.336   4.592   1.790  0.9191 -2.0273 -1.0191
  178MOL0     H24002  -2.093   4.691   1.963  0.1885  0.8251  0.4130
  178MOL0     H24003  -2.199   4.783   1.858 -1.9073  0.4680  1.4407
  178MOL0     H24004  -2.250   4.822   2.080  2.5110  1.2087 -4.2573
  178MOL0     H24005  -2.289   4.645   2.119 -0.4795  0.1513 -0.1922
  178MOL0     H24006  -2.425   4.834   1.930  0.5936  0.0181  0.7027
  178MOL0     H24007  -2.471   4.659   1.939 -1.3935  0.5200  0.7221
  178MOL0     H24008  -2.501   4.833   2.182  0.2641  1.9120 -1.9592
  178MOL0     H24009  -2.533   4.663   2.157  0.3204 -1.6253 -1.0002
  178MOL0     H24010  -2.690   4.898   2.027 -0.2732  0.8251 -0.1930
  178MOL0     H24011  -2.736   4.792   2.161  0.5464  0.9695 -0.8238
  178MOL0     H24012  -1.872   4.468   1.349 -2.6310  0.7666  1.1839
  178MOL0     H24013  -1.635   4.348   1.356  4.1859 -1.5390  1.5078
  178MOL0     H24014  -1.469   4.159   1.765 -0.0356 -0.0399 -0.1451
  178MOL0     H24015  -1.324   3.978   1.872  0.7463 -2.3553 -3.0530
  178MOL0     H24016   0.399   3.645   2.025  0.6747 -0.4876  0.2592
  178MOL0     H24017   0.530   3.454   2.007 -0.7718  2.9341 -0.4738
  178MOL0     H24018   0.531   2.885   2.096  0.9015  0.3885 -2.2523
  178MOL0     H24019   0.719   2.753   2.040 -1.7528  0.7500 -0.1252
  178MOL0     H24020   1.139   2.894   2.169 -0.5241 -0.2825  1.0132
  178MOL0     H24021   1.170   2.758   2.062  0.0410 -0.8295 -1.5106
  178MOL0     H24022   1.026   3.018   1.974 -1.4530  0.2184 -2.5562
  178MOL0     H24023   1.050   2.866   1.876  3.2637 -2.5823  0.2888
  178MOL0     H24024   1.275   2.870   1.879 -3.4177 -1.4503  1.7622
  178MOL0     H24025   1.297   3.005   1.975  1.8006 -4.1294  0.6379
  178MOL0     H24026   1.193   3.162   1.828  1.7612  0.7277 -0.1134
  178MOL0     H24027   1.147   3.046   1.699 -0.1806  2.8934 -0.2964
  178MOL0     H24028   1.554   3.082   1.625 -1.3964 -3.5914  0.2290
  178MOL0     H24029   0.980   3.034   2.228 -0.9778  0.9750  0.5446
  178MOL0     H24030   0.776   3.171   2.299 -2.3615 -0.8313  1.4628
  179MOL0     O24031   8.977   7.128   6.949 -0.3750 -0.1978  0.3639
  179MOL0     C24032   8.919   7.019   6.951  0.3685  0.2649 -0.5075
  179MOL0     O24033   8.969   6.899   6.990 -0.1876  0.6471 -0.5071
  179MOL0     C24034   9.106   6.901   6.999  0.0130  0.1691  0.1803
  179MOL0     C24035   9.196   6.885   6.891  0.0204  0.0779  0.2503
  179MOL0     C24036   9.335   6.913   6.902 -0.7854 -0.3876 -0.0789
  179MOL0     C24037   9.390   6.926   7.034  0.5105 -0.4709  0.5585
  179MOL0     O24038   9.526   6.943   7.054  0.1891  0.5686  0.3914
  179MOL0     C24039   9.589   6.839   7.135 -0.5002  0.7925  0.0133
  179MOL0     C24040   9.744   6.836   7.153 -0.9948  0.1644 -0.8113
  179MOL0     C24041   9.793   6.977   7.185 -1.3278 -0.1676 -0.2638
  179MOL0     C24042   9.922   6.982   7.278 -0.8215  0.0400 -0.6263
  179MOL0     C24043   9.990   7.118   7.266 -0.0982  0.3644  0.7568
  179MOL0     C24044  10.139   7.101   7.291  0.1302 -0.6355 -0.1249
  179MOL0     C24045  10.195   7.235   7.339 -0.5233 -0.9634  0.4187
  179MOL0     C24046  10.344   7.225   7.353  0.6000  0.2851 -0.7499
  179MOL0     N24047  10.418   7.221   7.226  0.2905  0.2787  0.4716
  179MOL0     C24048  10.529   7.153   7.205 -0.1970  0.6839  0.3452
  179MOL0     C24049  10.549   7.144   7.071  0.1777 -0.5685  0.5344
  179MOL0     C24050  10.653   7.075   6.993 -0.3552 -0.3606 -0.3614
  179MOL0     C24051  10.786   7.145   6.956  0.0297 -0.5296 -0.8837
  179MOL0     C24052  10.777   7.273   6.884 -0.3935  0.4884 -0.1251
  179MOL0     C24053  10.900   7.309   6.809 -0.1204 -0.6906  0.1697
  179MOL0     O24054  10.882   7.449   6.742  0.0655  1.0439 -0.0398
  179MOL0     C24055  10.935   7.451   6.618 -0.2239 -0.1848  0.6514
  179MOL0     C24056  10.865   7.410   6.502 -0.4594  0.5305  0.1184
  179MOL0     C24057  10.934   7.388   6.382  0.3017 -0.6098 -0.2034
  179MOL0     C24058  10.844   7.321   6.280 -0.2827 -0.0657  0.1285
  179MOL0     C24059  11.064   7.419   6.368 -0.8651  0.5640  0.1458
  179MOL0     C24060  11.132   7.411   6.243 -0.2618  0.1491 -0.3293
  179MOL0     O24061  11.098   7.519   6.165  0.5023 -0.4840  0.2549
  179MOL0     C24062  11.143   7.519   6.031  0.2482 -0.3346  0.2839
  179MOL0     C24063  11.274   7.508   5.981  0.2471 -0.1463  0.3445
  179MOL0     C24064  11.300   7.502   5.841  0.0426  0.7035 -0.2436
  179MOL0     C24065  11.192   7.502   5.750  0.2361  0.5465 -0.4831
  179MOL0     O24066  11.233   7.475   5.624  0.6317 -0.6657 -0.7502
  179MOL0     C24067  11.141   7.407   5.530 -0.3374  0.1569 -0.4408
  179MOL0     C24068  11.225   7.379   5.409  0.2297  0.5348  0.0161
  179MOL0     C24069  11.342   7.270   5.433  0.5916  0.0062 -0.5875
  179MOL0     C24070  11.403   7.231   5.298  0.0814 -0.6709 -0.8278
  179MOL0     C24071  11.514   7.123   5.288 -0.2283 -0.4017  0.2760
  179MOL0     C24072  11.623   7.139   5.391 -0.7048  0.7437  0.0715
  179MOL0     C24073  11.733   7.247   5.346 -0.9468  1.0991  0.0038
  179MOL0     C24074  11.803   7.330   5.462  0.2341  0.3132 -0.0332
  179MOL0    Cl24075  11.677   7.429   5.546  0.1237 -0.0878  0.3672
  179MOL0     C24076  11.059   7.507   5.791 -0.7466  0.4904 -0.7574
  179MOL0     C24077  11.037   7.527   5.931  0.1194 -1.3384 -0.1955
  179MOL0     O24078  11.227   7.336   6.226  0.4300  0.7710 -0.6711
  179MOL0     C24079  11.129   7.467   6.479 -0.3329 -0.1064 -0.7499
  179MOL0     C24080  11.066   7.487   6.599 -0.4473 -0.1775  0.5146
  179MOL0     N24081  10.472   7.240   7.019  0.8008  0.7171  0.8940
  179MOL0     N24082  10.392   7.280   7.112 -0.5902 -0.2162  0.6017
  179MOL0     C24083   9.297   6.938   7.138  0.5772 -0.8901 -0.4052
  179MOL0     C24084   9.160   6.929   7.122 -0.7119 -0.1797  0.1096
  179MOL0     C24085   8.775   7.039   6.909  0.0152 -0.3596 -0.2513
  179MOL0     C24086   8.688   6.926   6.910 -0.0025  0.2739  0.7254
  179MOL0     C24087   8.553   6.937   6.874 -0.4680  0.5037 -0.0705
  179MOL0     C24088   8.500   7.056   6.822 -0.0002 -0.1647  0.1853
  179MOL0     O24089   8.368   7.045   6.776  0.0456  0.3376  0.4214
  179MOL0     C24090   8.300   7.126   6.682  0.3797  0.2652  0.3373
  179MOL0     C24091   8.149   7.082   6.664 -0.0463 -0.3000 -0.5720
  179MOL0     C24092   8.144   6.946   6.578  0.0050  0.4097  0.4353
  179MOL0     C24093   8.034   6.855   6.620  0.2052 -0.0637  0.4268
  179MOL0     C24094   7.901   6.913   6.577  0.2098 -0.5323 -0.3519
  179MOL0     C24095   7.791   6.946   6.535 -1.0207 -0.2369  0.0193
  179MOL0     C24096   8.584   7.167   6.814 -0.1869 -0.2493  0.8125
  179MOL0     C24097   8.716   7.163   6.870  0.0209  0.1001  1.0198
  179MOL0     H24098   9.151   6.858   6.796 -1.0360  1.4976  0.3216
  179MOL0     H24099   9.413   6.899   6.828 -0.6683 -1.9243  0.2839
  179MOL0     H24100   9.556   6.864   7.236  0.0714  0.9125  0.1699
  179MOL0     H24101   9.551   6.744   7.096  2.2716  0.4761 -2.2291
  179MOL0     H24102   9.763   6.765   7.235  1.2620  0.0904 -1.3218
  179MOL0     H24103   9.788   6.794   7.062 -2.8398  0.1832 -1.7593
  179MOL0     H24104   9.824   7.019   7.089  3.7328  3.0289  2.3460
  179MOL0     H24105   9.721   7.040   7.237  1.0571  2.2601  0.2727
  179MOL0     H24106   9.885   6.978   7.381  0.5399 -0.3032 -0.1272
  179MOL0     H24107   9.988   6.898   7.253 -2.2661 -2.0461  1.9944
  179MOL0     H24108   9.980   7.157   7.164  2.6642 -0.8616 -0.0863
  179MOL0     H24109   9.947   7.185   7.340 -1.8705  0.1556 -0.0269
  179MOL0     H24110  10.155   7.025   7.368 -0.9476  1.7590  2.6344
  179MOL0     H24111  10.173   7.055   7.198  1.8948 -3.5439  1.8005
  179MOL0     H24112  10.163   7.327   7.289  1.5514  0.5479  1.7046
  179MOL0     H24113  10.156   7.240   7.441  0.2780 -0.4063  0.7038
  179MOL0     H24114  10.363   7.136   7.412  1.9045  0.8181 -0.3189
  179MOL0     H24115  10.373   7.317   7.406 -1.0418  0.5612 -0.2826
  179MOL0     H24116  10.585   7.097   7.279 -1.6690  0.2574  1.1701
  179MOL0     H24117  10.668   6.985   7.055  0.6242  1.6936  2.6025
  179MOL0     H24118  10.608   7.032   6.903 -0.5218 -0.1586 -0.3726
  179MOL0     H24119  10.842   7.076   6.892  1.3012 -1.2140  0.8849
  179MOL0     H24120  10.848   7.146   7.046 -0.8672 -2.4910 -0.1702
  179MOL0     H24121  10.757   7.358   6.950 -1.3902  0.5663 -0.5081
  179MOL0     H24122  10.685   7.277   6.826 -0.0242  0.7588 -0.7061
  179MOL0     H24123  10.933   7.223   6.750 -0.5570 -0.8417  0.1364
  179MOL0     H24124  10.980   7.326   6.882 -0.4793  2.8935 -0.0801
  179MOL0     H24125  10.759   7.390   6.513 -0.1859 -1.1272  0.0028
  179MOL0     H24126  10.858   7.367   6.182 -1.3350  1.3408  0.6263
  179MOL0     H24127  10.865   7.214   6.268 -0.8062 -0.0362 -1.2239
  179MOL0     H24128  10.741   7.318   6.317  0.2627  1.9094  1.9950
  179MOL0     H24129  11.358   7.494   6.049 -0.6459 -1.2508  1.2722
  179MOL0     H24130  11.400   7.471   5.810 -0.8468 -1.7496 -0.8547
  179MOL0     H24131  11.106   7.311   5.569 -0.7043  1.4613  2.7750
  179MOL0     H24132  11.051   7.466   5.514  0.8421  1.6798 -1.8064
  179MOL0     H24133  11.149   7.350   5.336 -1.1119  0.0190  1.5612
  179MOL0     H24134  11.262   7.476   5.371  1.8690 -0.8958 -2.3440
  179MOL0     H24135  11.293   7.193   5.493 -2.2011 -0.0813 -2.7558
  179MOL0     H24136  11.415   7.309   5.503 -1.2260  0.0266  1.3981
  179MOL0     H24137  11.317   7.191   5.242 -0.7115 -0.7663  0.4120
  179MOL0     H24138  11.433   7.318   5.240 -0.6543  1.2900  1.5725
  179MOL0     H24139  11.552   7.118   5.186 -1.9316 -0.5811 -0.3708
  179MOL0     H24140  11.480   7.021   5.310  5.3004 -2.9462 -1.1574
  179MOL0     H24141  11.584   7.167   5.489 -0.3893  4.4612 -0.6941
  179MOL0     H24142  11.680   7.046   5.399 -0.0618  1.1808  0.7091
  179MOL0     H24143  11.686   7.318   5.278 -2.3019 -1.1331 -1.5561
  179MOL0     H24144  11.811   7.196   5.289 -0.8465  0.5148  0.6355
  179MOL0     H24145  11.883   7.394   5.425  0.6481 -0.7037 -0.9492
  179MOL0     H24146  11.848   7.263   5.536 -0.4620  0.6809  0.7363
  179MOL0     H24147  10.976   7.496   5.722 -0.4131  3.7679 -1.8816
  179MOL0     H24148  10.937   7.533   5.972 -0.2832 -0.4385 -1.2544
  179MOL0     H24149  11.235   7.492   6.485  0.1807 -2.4784  2.1115
  179MOL0     H24150  11.119   7.526   6.686  2.2353  2.9585 -2.2582
  179MOL0     H24151   9.339   6.958   7.236  1.3905 -1.2625 -0.6671
  179MOL0     H24152   9.096   6.947   7.208  0.5031 -2.9967  1.7358
  179MOL0     H24153   8.730   6.830   6.940  0.3051  0.3036  0.3759
  179MOL0     H24154   8.492   6.847   6.883  2.6733 -1.8672 -0.6815
  179MOL0     H24155   8.310   7.223   6.731 -0.5578 -0.3307  1.7610
  179MOL0     H24156   8.340   7.115   6.581 -3.0760 -0.8978 -1.0327
  179MOL0     H24157   8.091   7.163   6.618 -1.1543  1.0679  2.8808
  179MOL0     H24158   8.122   7.052   6.765  4.0585 -0.0322  0.7647
  179MOL0     H24159   8.226   6.873   6.585 -1.2856 -1.3252 -1.4259
  179MOL0     H24160   8.114   6.977   6.478 -0.2394  1.2162  0.7543
  179MOL0     H24161   8.034   6.856   6.729 -1.9814  0.8837  0.4763
  179MOL0     H24162   8.048   6.759   6.570  0.1887  1.0338 -1.8389
  179MOL0     H24163   7.702   6.978   6.484 -1.4629  0.0713  0.9419
  179MOL0     H24164   8.546   7.259   6.772  0.6582 -0.7584 -1.1706
  179MOL0     H24165   8.774   7.255   6.866 -2.3781  1.6491 -0.3906
  180MOL0     O24166   0.116   5.732   1.370 -0.1507 -0.1521 -0.1728
  180MOL0     C24167   0.231   5.697   1.408 -0.9021 -0.2400 -0.1158
  180MOL0     O24168   0.312   5.765   1.493  0.2941  0.1574  0.4698
  180MOL0     C24169   0.281   5.893   1.514 -0.4271  0.8034  0.0323
  180MOL0     C24170   0.161   5.943   1.555 -0.2052 -0.3810  0.3243
  180MOL0     C24171   0.134   6.080   1.556  0.1240  1.6794 -0.3788
  180MOL0     C24172   0.233   6.172   1.514  0.1012 -0.5571  0.3180
  180MOL0     O24173   0.220   6.302   1.488  0.1822 -1.1555 -0.4735
  180MOL0     C24174   0.110   6.368   1.568  0.0246 -0.7492  0.1489
  180MOL0     C24175   0.164   6.401   1.698  0.8090 -0.1517 -0.5079
  180MOL0     C24176   0.288   6.504   1.692  0.1659  0.3045 -0.6229
  180MOL0     C24177   0.297   6.557   1.839  0.3805  0.6725 -0.0362
  180MOL0     C24178   0.398   6.669   1.850  0.6216  0.5056  0.4095
  180MOL0     C24179   0.415   6.709   1.994 -0.7156 -0.2261 -0.0047
  180MOL0     C24180   0.507   6.828   2.012  0.5778  0.2014  0.4684
  180MOL0     C24181   0.545   6.840   2.164 -0.3014 -0.6809  0.0917
  180MOL0     N24182   0.568   6.988   2.188  0.5619 -0.1943 -0.0185
  180MOL0     C24183   0.636   7.037   2.296  0.2626  0.5004 -0.4533
  180MOL0     C24184   0.661   7.167   2.268  0.4092 -0.2326  0.0096
  180MOL0     C24185   0.735   7.252   2.364  0.5369  0.4053  0.5322
  180MOL0     C24186   0.769   7.387   2.311 -0.3842  0.1515 -0.2192
  180MOL0     C24187   0.643   7.475   2.291  0.6758 -0.8059  1.1285
  180MOL0     C24188   0.670   7.621   2.264  0.2174  0.1875 -0.1888
  180MOL0     O24189   0.649   7.691   2.389 -0.5686 -0.3492 -0.2732
  180MOL0     C24190   0.517   7.722   2.428  0.8033  0.3156  0.4635
  180MOL0     C24191   0.503   7.786   2.551  0.8194  0.0014 -0.6842
  180MOL0     C24192   0.388   7.832   2.607 -0.0378 -0.0442  0.8181
  180MOL0     C24193   0.408   7.908   2.736 -0.9459  0.0995  1.8043
  180MOL0     C24194   0.265   7.824   2.528 -0.9703  0.6535 -0.5387
  180MOL0     C24195   0.132   7.855   2.570  0.3161  0.6441  0.8274
  180MOL0     O24196   0.124   7.923   2.691 -0.1667 -0.3410  0.6835
  180MOL0     C24197  -0.003   7.975   2.704 -0.1819 -0.6168  0.1832
  180MOL0     C24198  -0.096   7.897   2.752  0.4434  0.2163 -0.3283
  180MOL0     C24199  -0.236   7.926   2.746 -0.1293 -0.7461 -1.0058
  180MOL0     C24200  -0.275   8.055   2.698 -0.4999  0.1822  0.1537
  180MOL0     O24201  -0.406   8.084   2.715  0.2345 -0.1646 -0.3067
  180MOL0     C24202  -0.452   8.213   2.708  0.9794 -0.5048  0.2600
  180MOL0     C24203  -0.591   8.220   2.756  1.7531  0.3153 -0.5854
  180MOL0     C24204  -0.659   8.344   2.693 -0.2982  0.4181  0.3853
  180MOL0     C24205  -0.754   8.396   2.793  0.8121 -0.5192  0.5840
  180MOL0     C24206  -0.895   8.365   2.743  0.4533  0.8196  0.3197
  180MOL0     C24207  -0.991   8.405   2.838 -0.6736  0.1480 -0.0542
  180MOL0     C24208  -1.134   8.367   2.809  0.9299 -0.4966  0.0631
  180MOL0     C24209  -1.202   8.477   2.725 -0.2447  0.1072 -0.3590
  180MOL0    Cl24210  -1.346   8.406   2.655  0.3467 -0.1001  0.0624
  180MOL0     C24211  -0.173   8.137   2.652 -0.7249 -0.1534  0.0360
  180MOL0     C24212  -0.042   8.101   2.646  0.2793  0.0806  0.5960
  180MOL0     O24213   0.036   7.839   2.489 -0.8826 -0.1319 -0.5661
  180MOL0     C24214   0.275   7.750   2.410  0.3203 -0.4711 -0.0918
  180MOL0     C24215   0.396   7.702   2.362  0.6191  0.7254  1.1763
  180MOL0     N24216   0.599   7.191   2.142 -0.0213 -0.1822  0.0641
  180MOL0     N24217   0.535   7.089   2.109  0.4695 -0.1677  0.7533
  180MOL0     C24218   0.361   6.118   1.476  0.3982  0.5740  0.5273
  180MOL0     C24219   0.388   5.981   1.489 -0.5820 -0.0722 -0.1286
  180MOL0     C24220   0.291   5.568   1.369  0.6056 -1.0494  0.6229
  180MOL0     C24221   0.426   5.539   1.393  0.5689  0.1003 -0.0885
  180MOL0     C24222   0.479   5.423   1.339  0.7566  0.9671  0.1865
  180MOL0     C24223   0.404   5.329   1.267  1.3976 -0.5243 -0.7338
  180MOL0     O24224   0.445   5.210   1.222 -0.6477  0.3666 -0.4556
  180MOL0     C24225   0.582   5.157   1.238 -1.0835 -0.2305  0.7635
  180MOL0     C24226   0.609   5.007   1.228 -0.3030 -1.0638 -0.0418
  180MOL0     C24227   0.517   4.925   1.317 -0.1727  0.2055  0.1316
  180MOL0     C24228   0.532   4.777   1.304 -0.4995  0.0799  0.4132
  180MOL0     C24229   0.677   4.737   1.313  1.1607 -0.3367 -0.2099
  180MOL0     C24230   0.796   4.713   1.325  0.4100  0.3768  0.1647
  180MOL0     C24231   0.262   5.355   1.250 -0.4824 -0.1451 -0.4253
  180MOL0     C24232   0.214   5.474   1.300  0.5708  1.0948 -0.8172
  180MOL0     H24233   0.085   5.874   1.587 -0.3399 -0.4095 -0.0514
  180MOL0     H24234   0.039   6.121   1.591  0.7474  4.7559 -1.9641
  180MOL0     H24235   0.078   6.461   1.518  0.1071  1.0719  3.2350
  180MOL0     H24236   0.017   6.316   1.591 -0.8308  0.9198  0.6501
  180MOL0     H24237   0.078   6.451   1.743  0.1386 -0.4810 -1.3960
  180MOL0     H24238   0.189   6.309   1.750  3.1543 -1.3692 -3.4947
  180MOL0     H24239   0.383   6.456   1.666  0.6149  1.2848 -0.8481
  180MOL0     H24240   0.266   6.588   1.624  0.2690  0.0227 -1.0071
  180MOL0     H24241   0.204   6.596   1.881  0.3766 -1.2639  1.9135
  180MOL0     H24242   0.315   6.470   1.903 -0.4498  0.3843 -0.1848
  180MOL0     H24243   0.494   6.639   1.808  0.6802  0.2935  0.6947
  180MOL0     H24244   0.360   6.757   1.796 -2.0126 -0.5935  0.3055
  180MOL0     H24245   0.318   6.730   2.040 -0.6112  0.2261  0.0165
  180MOL0     H24246   0.460   6.631   2.056 -1.1006  0.9844  1.8845
  180MOL0     H24247   0.593   6.818   1.945 -1.4190  0.4700 -2.2723
  180MOL0     H24248   0.447   6.913   1.978 -0.9115 -0.9962  0.0120
  180MOL0     H24249   0.632   6.779   2.190 -0.8563 -1.0153  1.2871
  180MOL0     H24250   0.461   6.805   2.226 -0.3023 -1.9012 -0.5762
  180MOL0     H24251   0.668   6.978   2.382 -0.7646 -0.5157 -0.7481
  180MOL0     H24252   0.679   7.256   2.458 -0.7427 -1.2227 -0.1141
  180MOL0     H24253   0.832   7.210   2.394  0.2070 -0.0144  1.0287
  180MOL0     H24254   0.818   7.379   2.213 -2.7368  2.3111 -1.7075
  180MOL0     H24255   0.837   7.432   2.384 -0.3238 -0.1217 -0.1062
  180MOL0     H24256   0.567   7.448   2.364 -0.7374 -2.3667 -0.8213
  180MOL0     H24257   0.613   7.455   2.188  1.1504  3.4473 -0.0377
  180MOL0     H24258   0.608   7.662   2.183  0.3833 -0.2374 -0.5393
  180MOL0     H24259   0.772   7.620   2.225  0.1341 -2.8024 -0.5455
  180MOL0     H24260   0.596   7.797   2.606  2.1719 -1.2485 -2.6178
  180MOL0     H24261   0.510   7.898   2.775 -0.1936  0.5375  0.0381
  180MOL0     H24262   0.382   8.012   2.716  2.0122  0.3882 -1.5289
  180MOL0     H24263   0.344   7.868   2.815 -1.4677 -1.1624  0.7799
  180MOL0     H24264  -0.084   7.809   2.814 -1.2741 -0.4496 -0.8694
  180MOL0     H24265  -0.306   7.850   2.779  2.1973 -1.3882  3.2305
  180MOL0     H24266  -0.392   8.283   2.767 -1.4570  1.5013  0.5189
  180MOL0     H24267  -0.446   8.251   2.605 -0.5269 -1.7855 -0.3340
  180MOL0     H24268  -0.642   8.126   2.733  0.8296 -0.4303  3.5838
  180MOL0     H24269  -0.596   8.212   2.865  2.9566 -2.8152 -0.6403
  180MOL0     H24270  -0.704   8.320   2.597  2.3177 -0.1712 -0.7801
  180MOL0     H24271  -0.584   8.417   2.661 -1.1098  0.8589 -0.5510
  180MOL0     H24272  -0.732   8.369   2.897  1.7177  2.1050  1.1587
  180MOL0     H24273  -0.734   8.503   2.793 -0.7284 -0.2045 -0.1950
  180MOL0     H24274  -0.893   8.256   2.730 -1.5960  0.7713  0.0841
  180MOL0     H24275  -0.903   8.423   2.651  1.5267  0.7679  0.1778
  180MOL0     H24276  -0.965   8.351   2.929 -1.6000 -0.9287 -0.4029
  180MOL0     H24277  -0.985   8.513   2.853 -4.7044  0.6646 -1.0145
  180MOL0     H24278  -1.187   8.365   2.905 -0.4661 -3.4568 -0.6693
  180MOL0     H24279  -1.135   8.281   2.742 -0.2577  2.2004 -3.7074
  180MOL0     H24280  -1.140   8.532   2.653  0.5562 -1.3082 -0.7723
  180MOL0     H24281  -1.243   8.549   2.797 -1.2917 -0.0321 -0.7998
  180MOL0     H24282  -0.192   8.240   2.624 -3.5273 -0.0828  1.8375
  180MOL0     H24283   0.033   8.166   2.603  2.4590 -1.5694  1.7109
  180MOL0     H24284   0.187   7.730   2.349  1.4180  3.0820 -3.2958
  180MOL0     H24285   0.402   7.653   2.266  2.2050 -0.9383  2.0609
  180MOL0     H24286   0.432   6.189   1.436  0.1781  0.8119  0.5501
  180MOL0     H24287   0.487   5.941   1.465 -0.5884 -1.5408  2.0478
  180MOL0     H24288   0.492   5.602   1.451  1.7552 -2.4496  1.5354
  180MOL0     H24289   0.583   5.404   1.366  0.4384 -2.3959 -0.5378
  180MOL0     H24290   0.642   5.210   1.164 -2.0981 -0.9585 -0.6187
  180MOL0     H24291   0.615   5.186   1.339 -1.8800 -0.4415  1.0945
  180MOL0     H24292   0.710   4.987   1.267 -0.7776 -3.6386  0.0594
  180MOL0     H24293   0.599   4.973   1.124  2.2950  0.6449 -0.9809
  180MOL0     H24294   0.415   4.949   1.285  1.0708  3.3230 -1.9845
  180MOL0     H24295   0.535   4.957   1.420 -0.2159  3.8091 -0.8416
  180MOL0     H24296   0.486   4.734   1.214 -1.4660 -0.6149  1.2146
  180MOL0     H24297   0.481   4.735   1.391 -1.0837  1.9184  0.9895
  180MOL0     H24298   0.895   4.673   1.336 -0.1348 -1.5471 -1.3472
  180MOL0     H24299   0.190   5.287   1.205 -0.6089 -0.5275  0.3523
  180MOL0     H24300   0.111   5.498   1.275  0.4391 -0.4299 -1.8666
  181MOL0     O24301   8.076  10.127   9.994  0.5008  0.1229 -0.7229
  181MOL0     C24302   8.105  10.245   9.973 -0.3005  0.3221  0.4736
  181MOL0     O24303   8.022  10.348   9.946 -0.3541 -0.1811 -0.0783
  181MOL0     C24304   7.881  10.338   9.952 -0.1866 -0.6978 -0.1522
  181MOL0     C24305   7.816  10.434   9.874  0.1991  0.3879 -0.9099
  181MOL0     C24306   7.675  10.428   9.861  0.1298 -0.1856 -0.9681
  181MOL0     C24307   7.599  10.333   9.935  0.2615  0.3007 -0.2006
  181MOL0     O24308   7.462  10.332   9.952  0.2580  0.0367  0.0738
  181MOL0     C24309   7.399  10.359   9.828 -0.5884  0.7248 -0.4950
  181MOL0     C24310   7.260  10.292   9.839  0.5209 -0.9482  0.5320
  181MOL0     C24311   7.177  10.322   9.716  0.3468 -1.2829 -0.0956
  181MOL0     C24312   7.207  10.259   9.584  0.8633  0.9894  0.1287
  181MOL0     C24313   7.114  10.311   9.469 -0.0346 -0.2800  0.2026
  181MOL0     C24314   7.160  10.256   9.333 -0.3674  0.0058  0.2512
  181MOL0     C24315   7.044  10.271   9.226 -0.1768 -0.5061 -0.3855
  181MOL0     C24316   7.070  10.169   9.122 -0.5487  0.0648 -1.1383
  181MOL0     N24317   7.043  10.037   9.187  0.3904 -0.6132  0.3559
  181MOL0     C24318   7.138   9.938   9.180  0.3299  0.5794  0.4488
  181MOL0     C24319   7.077   9.832   9.225  0.9781  0.3651  0.0125
  181MOL0     C24320   7.140   9.697   9.246  1.0957  0.5710  0.2588
  181MOL0     C24321   7.256   9.690   9.345 -0.0669  0.7855  0.0468
  181MOL0     C24322   7.267   9.562   9.434 -0.1897  0.3877  0.6955
  181MOL0     C24323   7.391   9.577   9.528 -0.6390  0.9788 -0.2303
  181MOL0     O24324   7.515   9.609   9.452  0.3445  0.3277  0.5441
  181MOL0     C24325   7.604   9.503   9.461 -0.4650  0.6918 -0.6281
  181MOL0     C24326   7.630   9.427   9.349 -0.0409 -0.0531  0.0849
  181MOL0     C24327   7.739   9.341   9.342  0.4951 -0.2072  1.2913
  181MOL0     C24328   7.772   9.293   9.201  0.6814 -0.0086  0.6886
  181MOL0     C24329   7.812   9.314   9.461  0.5538 -0.2020  0.0799
  181MOL0     C24330   7.933   9.229   9.462 -0.3386  0.6705  1.2786
  181MOL0     O24331   7.995   9.201   9.574 -0.0523 -0.3665 -0.8112
  181MOL0     C24332   8.112   9.136   9.576  0.4868  1.0441  0.2008
  181MOL0     C24333   8.125   9.020   9.656 -0.8311  1.1515 -0.2647
  181MOL0     C24334   8.230   8.928   9.652 -0.5016 -0.4804 -0.2828
  181MOL0     C24335   8.341   8.967   9.582 -0.3072  0.6852 -0.1298
  181MOL0     O24336   8.456   8.893   9.589 -0.0718 -0.4071  0.0209
  181MOL0     C24337   8.434   8.759   9.598  0.1976 -0.4648  0.2574
  181MOL0     C24338   8.540   8.676   9.523 -0.4105 -0.3580  0.7026
  181MOL0     C24339   8.658   8.629   9.612  0.1130 -0.3352 -0.3473
  181MOL0     C24340   8.754   8.546   9.530  0.0689  0.4206  0.0752
  181MOL0     C24341   8.869   8.514   9.624 -1.0863  0.2342  0.3019
  181MOL0     C24342   8.818   8.426   9.743 -0.5158  0.5525 -0.5239
  181MOL0     C24343   8.942   8.344   9.786  0.7018  0.5156  0.0582
  181MOL0     C24344   9.039   8.436   9.855 -0.4920 -0.6793 -0.0503
  181MOL0    Cl24345   9.196   8.364   9.871 -0.1812  0.1626  0.1600
  181MOL0     C24346   8.337   9.087   9.506 -0.6378 -0.3697 -0.0755
  181MOL0     C24347   8.224   9.167   9.500 -0.2546 -0.5875 -0.2860
  181MOL0     O24348   7.965   9.176   9.357  0.2479  0.1652 -0.0399
  181MOL0     C24349   7.765   9.370   9.579  0.0577 -0.1991  0.2965
  181MOL0     C24350   7.665   9.473   9.583 -0.5912  0.1502  0.2565
  181MOL0     N24351   6.948   9.861   9.267  0.2319  0.3446  1.1968
  181MOL0     N24352   6.924   9.982   9.233  0.3372  0.0545 -0.0412
  181MOL0     C24353   7.667  10.240  10.013 -0.3075 -0.0512 -0.8196
  181MOL0     C24354   7.808  10.241  10.018 -0.4514 -0.2774 -1.1273
  181MOL0     C24355   8.253  10.264   9.950 -0.6512 -0.1917  0.4527
  181MOL0     C24356   8.290  10.393   9.919 -0.7769 -0.4256  0.1916
  181MOL0     C24357   8.430  10.426   9.893  0.4866  0.6631 -0.2226
  181MOL0     C24358   8.527  10.325   9.889 -0.2652 -0.4028  0.2385
  181MOL0     O24359   8.655  10.352   9.865  0.5961 -0.9376  1.1709
  181MOL0     C24360   8.751  10.247   9.844  0.1127 -0.2437 -0.4849
  181MOL0     C24361   8.885  10.315   9.807 -0.5461  0.0909 -0.4222
  181MOL0     C24362   8.973  10.221   9.717 -0.4447  0.0840 -0.2130
  181MOL0     C24363   9.127  10.237   9.709 -0.0897 -0.1810  0.1546
  181MOL0     C24364   9.187  10.140   9.621  0.2322 -0.8883  0.5515
  181MOL0     C24365   9.251  10.067   9.546 -0.9823  0.4102 -1.1368
  181MOL0     C24366   8.482  10.196   9.912  0.1060  0.5447 -0.5879
  181MOL0     C24367   8.352  10.164   9.945 -0.9773 -0.1545 -0.3683
  181MOL0     H24368   7.868  10.514   9.823 -1.4006 -0.4488 -4.1068
  181MOL0     H24369   7.608  10.499   9.813  0.1177 -1.5973 -3.1882
  181MOL0     H24370   7.404  10.467   9.816 -0.5012  0.8102  0.3151
  181MOL0     H24371   7.451  10.313   9.743  1.9513 -0.1639  1.4435
  181MOL0     H24372   7.268  10.183   9.839  0.7273 -1.0401 -2.9041
  181MOL0     H24373   7.213  10.327   9.932  4.3829  2.5497  1.4909
  181MOL0     H24374   7.075  10.302   9.749 -0.2073 -0.2732 -1.1339
  181MOL0     H24375   7.185  10.431   9.709  1.9614 -1.1730  2.2753
  181MOL0     H24376   7.313  10.275   9.563  0.8846 -1.6748 -2.5419
  181MOL0     H24377   7.182  10.153   9.599  0.7218  0.9135 -0.6258
  181MOL0     H24378   7.023  10.253   9.486 -0.6621 -0.0029 -1.8708
  181MOL0     H24379   7.105  10.420   9.468  1.5212 -0.1378  0.0572
  181MOL0     H24380   7.255  10.304   9.306 -0.1870 -0.1550  0.5958
  181MOL0     H24381   7.175  10.153   9.365  1.1724  0.0252 -0.3305
  181MOL0     H24382   6.945  10.263   9.272  0.0383  3.2101  1.0706
  181MOL0     H24383   7.049  10.373   9.186  0.1573  0.7350  2.5491
  181MOL0     H24384   7.171  10.181   9.083 -0.1156 -1.8933 -0.7081
  181MOL0     H24385   7.004  10.186   9.036 -0.2180  0.0180 -1.4051
  181MOL0     H24386   7.241   9.965   9.157  1.5184 -0.2669  4.1043
  181MOL0     H24387   7.066   9.626   9.283  3.6789 -1.9064  1.1089
  181MOL0     H24388   7.169   9.658   9.147 -0.9177 -0.7628  0.1479
  181MOL0     H24389   7.239   9.773   9.415 -1.4188 -0.1423  0.8708
  181MOL0     H24390   7.354   9.702   9.299 -0.1306 -2.5577 -1.2414
  181MOL0     H24391   7.275   9.469   9.376 -0.8667  1.4529 -1.1732
  181MOL0     H24392   7.171   9.561   9.486 -0.5423  1.6750  0.1035
  181MOL0     H24393   7.409   9.489   9.589 -0.6631  1.4730  0.4965
  181MOL0     H24394   7.376   9.657   9.601 -0.5374  0.2826  0.5709
  181MOL0     H24395   7.596   9.458   9.251  1.5018 -0.7453 -0.7069
  181MOL0     H24396   7.688   9.301   9.132  2.1902 -1.1894 -1.3804
  181MOL0     H24397   7.850   9.356   9.157  0.7726 -1.6799 -1.7030
  181MOL0     H24398   7.793   9.186   9.196  0.6508  0.0188 -0.1833
  181MOL0     H24399   8.047   9.019   9.732  0.0623  2.4386  0.7188
  181MOL0     H24400   8.220   8.839   9.714 -0.8517 -1.5968 -1.8970
  181MOL0     H24401   8.448   8.734   9.704 -0.9434  0.0658  0.5461
  181MOL0     H24402   8.335   8.734   9.559  0.1289  0.6791 -0.3298
  181MOL0     H24403   8.483   8.585   9.503 -0.0984  0.1877 -3.5767
  181MOL0     H24404   8.575   8.730   9.435 -0.4728 -3.0138 -1.0742
  181MOL0     H24405   8.630   8.562   9.694  3.8002 -3.5002 -1.3640
  181MOL0     H24406   8.716   8.714   9.648  1.2656 -0.8012 -1.0692
  181MOL0     H24407   8.691   8.467   9.489  0.4121 -0.0537  0.4499
  181MOL0     H24408   8.806   8.606   9.454 -2.3888  1.7848 -0.6129
  181MOL0     H24409   8.935   8.598   9.649 -1.2446  1.0940 -1.9393
  181MOL0     H24410   8.932   8.448   9.564 -0.0663 -0.8298  2.4089
  181MOL0     H24411   8.772   8.478   9.827 -0.5287 -0.0558 -0.1502
  181MOL0     H24412   8.737   8.364   9.703  0.3037  0.5161 -2.2377
  181MOL0     H24413   8.993   8.286   9.707 -0.6134  0.7636 -1.0088
  181MOL0     H24414   8.912   8.269   9.860 -2.3699  1.1405 -0.4264
  181MOL0     H24415   9.005   8.472   9.953  3.5747  2.6813  0.3748
  181MOL0     H24416   9.053   8.529   9.799 -0.2877 -0.2582  0.6862
  181MOL0     H24417   8.435   9.113   9.466 -0.5383  1.2054  1.0993
  181MOL0     H24418   8.222   9.254   9.436 -0.0771 -2.2342 -2.6735
  181MOL0     H24419   7.806   9.349   9.677  0.8109 -1.1908 -0.2168
  181MOL0     H24420   7.640   9.539   9.665  1.0288  1.5964 -0.3564
  181MOL0     H24421   7.609  10.157  10.054  0.1120 -0.2035 -0.5307
  181MOL0     H24422   7.847  10.161  10.080 -1.2805  0.2739  0.1528
  181MOL0     H24423   8.219  10.474   9.931 -0.1564  0.0869  0.4995
  181MOL0     H24424   8.461  10.528   9.872 -0.7615  0.6387 -2.5600
  181MOL0     H24425   8.767  10.186   9.933 -0.3754  1.9874  1.2174
  181MOL0     H24426   8.719  10.176   9.767  0.2860 -1.8404  0.8633
  181MOL0     H24427   8.939  10.340   9.899  2.3749 -1.4561 -1.5775
  181MOL0     H24428   8.874  10.410   9.755 -1.3006 -0.3544 -1.1210
  181MOL0     H24429   8.936  10.247   9.617 -0.3922 -0.7233 -0.4457
  181MOL0     H24430   8.947  10.117   9.740 -1.4168 -0.1629 -2.1932
  181MOL0     H24431   9.168  10.221   9.809  0.6490  0.0425 -0.1123
  181MOL0     H24432   9.159  10.332   9.666  0.1723 -0.5888 -0.5772
  181MOL0     H24433   9.301  10.000   9.480 -0.2670  0.6854 -0.8815
  181MOL0     H24434   8.548  10.110   9.913  0.6857  0.9843  0.1737
  181MOL0     H24435   8.332  10.059   9.958 -3.4565  0.5241  2.4458
  182MOL0     O24436   5.540   7.019   0.209 -0.3973 -1.2822  0.0525
  182MOL0     C24437   5.493   6.908   0.192  0.0229 -0.2776 -1.1418
  182MOL0     O24438   5.559   6.791   0.209 -0.6343  0.3150  0.4362
  182MOL0     C24439   5.698   6.807   0.213 -0.8934  0.6782 -0.1687
  182MOL0     C24440   5.770   6.769   0.332  0.4888 -0.2955 -0.2264
  182MOL0     C24441   5.903   6.797   0.346  0.0431  0.1293  0.4123
  182MOL0     C24442   5.972   6.844   0.236 -0.7727  0.3243  0.5426
  182MOL0     O24443   6.106   6.856   0.256  0.0021  0.4635  0.3256
  182MOL0     C24444   6.193   6.893   0.145 -0.4651 -0.0774  0.2334
  182MOL0     C24445   6.334   6.868   0.204  0.8733 -0.7466 -0.8670
  182MOL0     C24446   6.437   6.870   0.100 -0.3099 -0.4870  0.7166
  182MOL0     C24447   6.471   7.025   0.069  0.5593  0.0728 -0.3553
  182MOL0     C24448   6.604   7.036   0.001 -0.2521 -0.2340  0.4893
  182MOL0     C24449   6.725   7.028   0.105  0.4260 -0.1830  0.5162
  182MOL0     C24450   6.867   7.035   0.035 -0.2299  0.0586 -0.4693
  182MOL0     C24451   6.925   6.904  -0.003 -0.0244  0.6155  0.0767
  182MOL0     N24452   6.839   6.822  -0.083  0.0843 -0.3070  0.5252
  182MOL0     C24453   6.796   6.696  -0.045  0.4934 -0.6220 -0.1618
  182MOL0     C24454   6.714   6.663  -0.151 -0.3676 -0.9319  0.2419
  182MOL0     C24455   6.630   6.536  -0.155  0.3367 -0.0931  0.1698
  182MOL0     C24456   6.500   6.554  -0.069  0.3061  0.1368 -0.3802
  182MOL0     C24457   6.419   6.424  -0.056 -0.1972 -0.6231 -0.3333
  182MOL0     C24458   6.291   6.426   0.024  0.9105 -0.3012 -0.3819
  182MOL0     O24459   6.204   6.531  -0.021 -0.1938 -1.2796  0.5026
  182MOL0     C24460   6.069   6.520   0.014 -0.1016  1.1157 -0.1962
  182MOL0     C24461   6.024   6.489   0.141  0.3664 -1.0285  0.3488
  182MOL0     C24462   5.889   6.464   0.170  1.3261 -0.9617  0.2635
  182MOL0     C24463   5.858   6.449   0.318 -0.5983  0.7413  0.2171
  182MOL0     C24464   5.789   6.463   0.068  0.2500 -0.0520  0.2572
  182MOL0     C24465   5.642   6.460   0.094  0.2722 -0.0937 -0.9785
  182MOL0     O24466   5.601   6.376   0.197  0.0755  0.1262  0.7058
  182MOL0     C24467   5.465   6.377   0.217  0.5292 -0.9888 -0.5146
  182MOL0     C24468   5.414   6.473   0.303  0.2482  0.0728  0.7544
  182MOL0     C24469   5.275   6.480   0.323  0.1121  0.1001  0.1912
  182MOL0     C24470   5.184   6.390   0.281 -0.7938 -0.1031 -0.6742
  182MOL0     O24471   5.056   6.376   0.323  0.4199  0.0612 -0.1946
  182MOL0     C24472   4.967   6.477   0.290  0.7550 -0.5852  0.6519
  182MOL0     C24473   4.855   6.473   0.393  0.1873  0.8700 -0.8502
  182MOL0     C24474   4.719   6.548   0.360  1.0778  0.5586 -0.3859
  182MOL0     C24475   4.619   6.530   0.469  0.1351  0.3642 -0.7075
  182MOL0     C24476   4.476   6.566   0.427 -0.3823 -0.4493 -0.1844
  182MOL0     C24477   4.396   6.596   0.562 -0.3472 -0.3535  0.6210
  182MOL0     C24478   4.245   6.567   0.559  1.2146  0.4180 -0.5654
  182MOL0     C24479   4.181   6.627   0.685 -1.0454  0.4860 -0.5984
  182MOL0    Cl24480   4.173   6.814   0.652 -0.0090  0.2213  0.1994
  182MOL0     C24481   5.237   6.289   0.193 -0.8372  0.5279 -0.3863
  182MOL0     C24482   5.374   6.284   0.163  0.3440 -0.4988  0.4451
  182MOL0     O24483   5.569   6.525   0.017  0.6888 -0.6524  0.1896
  182MOL0     C24484   5.836   6.485  -0.061  0.1242  0.8833  0.0993
  182MOL0     C24485   5.973   6.512  -0.084 -0.3270 -0.3116 -0.1385
  182MOL0     N24486   6.724   6.751  -0.254 -0.0648  0.8465 -0.4266
  182MOL0     N24487   6.798   6.841  -0.212 -0.0992 -0.0805  0.7303
  182MOL0     C24488   5.909   6.858   0.114 -0.1513 -0.5356  0.6820
  182MOL0     C24489   5.772   6.851   0.101  0.3527  0.2885 -0.3965
  182MOL0     C24490   5.347   6.918   0.158 -1.0172 -0.5364  0.1913
  182MOL0     C24491   5.275   7.039   0.151  0.8751 -0.1918  0.4714
  182MOL0     C24492   5.144   7.045   0.112  0.6513 -0.4365  0.2987
  182MOL0     C24493   5.068   6.925   0.088  0.8718  0.3851  0.4545
  182MOL0     O24494   4.942   6.915   0.030  0.5790  0.3676 -0.2255
  182MOL0     C24495   4.872   7.031  -0.036 -0.1911  0.0722 -0.6621
  182MOL0     C24496   4.768   7.105   0.052  0.6372 -0.8696  0.9158
  182MOL0     C24497   4.698   7.215  -0.037  0.4237  0.2889 -0.3021
  182MOL0     C24498   4.584   7.272   0.042 -0.9521  0.5723 -0.4281
  182MOL0     C24499   4.567   7.406  -0.008 -0.1988  0.8162 -0.3188
  182MOL0     C24500   4.563   7.517  -0.040 -1.2426 -0.9097 -0.1672
  182MOL0     C24501   5.135   6.801   0.107 -0.5170 -0.2884  0.7619
  182MOL0     C24502   5.272   6.805   0.136 -1.1768  1.1117  0.8578
  182MOL0     H24503   5.714   6.740   0.421 -1.1128  2.2130 -0.3048
  182MOL0     H24504   5.954   6.791   0.442  2.5076  0.8566 -0.7433
  182MOL0     H24505   6.171   6.823   0.063 -1.6430  2.2699 -1.5702
  182MOL0     H24506   6.175   6.994   0.109  0.9310 -0.2249 -1.0085
  182MOL0     H24507   6.364   6.942   0.278  1.4280  0.2335 -2.0258
  182MOL0     H24508   6.322   6.767   0.245 -5.3234 -0.4825 -1.2065
  182MOL0     H24509   6.517   6.805   0.135  0.8917  1.0558  0.9420
  182MOL0     H24510   6.396   6.825   0.009  0.6645 -0.6578  0.3600
  182MOL0     H24511   6.396   7.077   0.008 -0.3180  0.9596  1.4013
  182MOL0     H24512   6.488   7.074   0.165  0.6594 -2.4740  0.9959
  182MOL0     H24513   6.617   6.964  -0.080 -1.5406 -0.6457  0.6190
  182MOL0     H24514   6.601   7.134  -0.049  0.2541 -1.3271 -1.8422
  182MOL0     H24515   6.725   7.111   0.176 -1.2116 -1.8257  2.5257
  182MOL0     H24516   6.719   6.935   0.161  3.0553 -0.5348  0.3611
  182MOL0     H24517   6.871   7.108  -0.046 -1.4449  0.1924 -0.4312
  182MOL0     H24518   6.936   7.082   0.106  0.9152 -0.3271 -1.2989
  182MOL0     H24519   6.958   6.852   0.087  0.0189  2.7437  1.3657
  182MOL0     H24520   7.013   6.927  -0.063 -0.5044  2.6894  0.0961
  182MOL0     H24521   6.791   6.653   0.054 -1.8489 -0.0295  0.0417
  182MOL0     H24522   6.607   6.508  -0.258 -2.1786 -0.5130  0.7651
  182MOL0     H24523   6.683   6.456  -0.102  0.0453  0.7521  1.8385
  182MOL0     H24524   6.447   6.638  -0.115 -0.5009 -1.0297 -1.6369
  182MOL0     H24525   6.520   6.587   0.033 -2.0726  0.6745 -0.0284
  182MOL0     H24526   6.491   6.364   0.000  1.2538 -0.9668 -2.4306
  182MOL0     H24527   6.422   6.370  -0.151 -0.4861 -2.4918  0.6612
  182MOL0     H24528   6.321   6.458   0.124 -1.3022  0.8088 -0.0227
  182MOL0     H24529   6.251   6.325   0.029 -4.0282  1.4715  1.7126
  182MOL0     H24530   6.086   6.474   0.229 -2.7783 -3.8126  2.3465
  182MOL0     H24531   5.755   6.482   0.333 -1.5305 -2.7625  2.8549
  182MOL0     H24532   5.872   6.347   0.355  2.5114  0.7558 -0.5870
  182MOL0     H24533   5.930   6.506   0.378 -0.3541 -1.2832  1.9717
  182MOL0     H24534   5.484   6.540   0.352  1.2736 -2.3302  2.7727
  182MOL0     H24535   5.238   6.557   0.389  1.1380  0.5700  0.2307
  182MOL0     H24536   5.017   6.575   0.285  2.5247 -1.5027 -0.5603
  182MOL0     H24537   4.933   6.450   0.190 -1.8756 -0.8013  1.5510
  182MOL0     H24538   4.823   6.369   0.409  2.0749  0.7477  4.2787
  182MOL0     H24539   4.888   6.509   0.491 -0.2594  3.1959 -1.5012
  182MOL0     H24540   4.683   6.509   0.264  1.8949 -1.5178  0.0932
  182MOL0     H24541   4.730   6.656   0.349 -1.8909  0.9828  0.0162
  182MOL0     H24542   4.619   6.431   0.516 -0.1516  1.5047  1.8932
  182MOL0     H24543   4.647   6.594   0.553  0.1345 -0.7422  0.1678
  182MOL0     H24544   4.422   6.485   0.378 -0.1954 -1.2472  0.8806
  182MOL0     H24545   4.465   6.664   0.379 -1.4591  0.8255  2.4697
  182MOL0     H24546   4.438   6.546   0.649 -0.8704 -0.1297  1.0086
  182MOL0     H24547   4.405   6.703   0.582 -0.1019 -0.3694  0.5911
  182MOL0     H24548   4.227   6.460   0.544 -0.3385  0.0762  2.6982
  182MOL0     H24549   4.202   6.607   0.467 -0.2961 -1.2134 -0.6251
  182MOL0     H24550   4.252   6.602   0.765  0.2638  1.5242 -1.3881
  182MOL0     H24551   4.087   6.579   0.711 -0.1810 -0.3893  1.1386
  182MOL0     H24552   5.175   6.215   0.143  3.3089 -1.3286 -3.3506
  182MOL0     H24553   5.402   6.213   0.086 -2.8900 -0.2139 -1.1722
  182MOL0     H24554   5.762   6.476  -0.139  0.6108 -2.4302 -0.1079
  182MOL0     H24555   6.005   6.531  -0.185  0.0450  1.2864  0.2550
  182MOL0     H24556   5.966   6.887   0.026 -3.9119 -0.9356 -2.1498
  182MOL0     H24557   5.720   6.885   0.012 -0.8121  0.5193  0.3391
  182MOL0     H24558   5.319   7.135   0.173  1.0901 -0.6357  2.1525
  182MOL0     H24559   5.104   7.143   0.088  0.1345 -0.7631 -0.2061
  182MOL0     H24560   4.942   7.104  -0.077 -2.3858  0.7770 -3.4909
  182MOL0     H24561   4.812   6.992  -0.119 -0.2942  2.7287 -1.9414
  182MOL0     H24562   4.806   7.162   0.138  1.0957  3.8321 -2.0680
  182MOL0     H24563   4.695   7.037   0.097  0.4785 -0.2108  1.6863
  182MOL0     H24564   4.662   7.173  -0.131 -1.1649 -0.9937  0.8343
  182MOL0     H24565   4.776   7.289  -0.059  0.9390 -0.2420 -0.2644
  182MOL0     H24566   4.605   7.275   0.149 -0.5067  1.9737 -0.5262
  182MOL0     H24567   4.498   7.206   0.028 -1.4947  0.9226  1.0360
  182MOL0     H24568   4.579   7.611  -0.088 -0.4562 -0.7241  0.4393
  182MOL0     H24569   5.086   6.704   0.101  1.4368 -1.2639 -0.4059
  182MOL0     H24570   5.307   6.707   0.167 -3.8729 -0.6403 -1.1592
  183MOL0     O24571   9.047   1.806   6.568 -0.5582 -0.5984 -0.0556
  183MOL0     C24572   8.972   1.710   6.568 -0.4519  0.6009  0.1504
  183MOL0     O24573   8.991   1.594   6.496  0.8521  0.3240  0.3015
  183MOL0     C24574   9.107   1.579   6.426  0.0286 -0.5447  0.3205
  183MOL0     C24575   9.102   1.558   6.286  0.5390 -0.7679  0.3372
  183MOL0     C24576   9.221   1.548   6.214 -0.4859  1.6043  0.1562
  183MOL0     C24577   9.348   1.544   6.284 -0.0962 -0.4413 -1.3225
  183MOL0     O24578   9.476   1.531   6.229 -0.8233 -0.3637  0.3454
  183MOL0     C24579   9.487   1.459   6.102  0.0105 -0.3278 -0.2073
  183MOL0     C24580   9.633   1.434   6.055  0.5557 -0.2764  0.2704
  183MOL0     C24581   9.684   1.341   6.167  0.2335  0.3720  0.6763
  183MOL0     C24582   9.829   1.282   6.154  0.6878 -1.0160  1.2054
  183MOL0     C24583   9.865   1.210   6.279 -0.0959  0.4713  0.0485
  183MOL0     C24584  10.008   1.147   6.272  0.4971 -0.0041 -0.1969
  183MOL0     C24585  10.051   1.106   6.417  0.2760  0.0685  0.1194
  183MOL0     C24586  10.159   0.993   6.403  0.2056 -0.2864 -0.8022
  183MOL0     N24587  10.280   1.043   6.340  0.1590  0.5405  0.2442
  183MOL0     C24588  10.386   1.106   6.396  0.5401 -0.3734  0.4652
  183MOL0     C24589  10.472   1.131   6.307 -0.0576 -0.4626  0.3046
  183MOL0     C24590  10.608   1.186   6.343  0.1760  0.1230 -0.0995
  183MOL0     C24591  10.684   1.254   6.234  0.4424 -0.0282  0.4531
  183MOL0     C24592  10.623   1.394   6.183 -0.7313 -0.0707  0.6712
  183MOL0     C24593  10.565   1.484   6.301 -0.2909  0.4846 -0.1914
  183MOL0     O24594  10.645   1.598   6.320  0.2232  0.6367  0.1389
  183MOL0     C24595  10.627   1.704   6.237 -0.1370  0.6277  0.7977
  183MOL0     C24596  10.725   1.750   6.149 -0.4748 -0.3691 -0.2702
  183MOL0     C24597  10.703   1.861   6.073 -0.1447  0.2232  0.8191
  183MOL0     C24598  10.818   1.923   6.002 -0.1415 -0.1369  0.1655
  183MOL0     C24599  10.572   1.927   6.076 -0.4168  0.1635  0.4882
  183MOL0     C24600  10.550   2.058   6.025  0.3319 -0.6127  0.2420
  183MOL0     O24601  10.480   2.137   6.108  0.3658 -0.4833 -0.0518
  183MOL0     C24602  10.472   2.268   6.065  0.1877  0.1954  0.0272
  183MOL0     C24603  10.345   2.325   6.066 -0.4981 -0.0909  0.1927
  183MOL0     C24604  10.332   2.458   6.023 -0.2887 -0.2526  0.1639
  183MOL0     C24605  10.440   2.532   5.972 -0.2273 -0.4871  1.0152
  183MOL0     O24606  10.437   2.653   5.901 -0.1672  0.2777 -0.2610
  183MOL0     C24607  10.314   2.719   5.859  0.6218 -0.3299 -0.8301
  183MOL0     C24608  10.357   2.815   5.756 -0.6308  0.0929 -0.5010
  183MOL0     C24609  10.249   2.875   5.673 -0.1734 -0.1388 -0.0982
  183MOL0     C24610  10.191   2.804   5.541  0.6865  0.6064  0.7617
  183MOL0     C24611  10.049   2.751   5.557 -0.2070 -0.4907 -1.1098
  183MOL0     C24612  10.001   2.645   5.457 -0.2316 -0.0974 -0.2334
  183MOL0     C24613   9.874   2.568   5.514 -0.2080 -0.1486  0.3255
  183MOL0     C24614   9.791   2.468   5.430  0.6238 -0.4374  0.5922
  183MOL0    Cl24615   9.880   2.329   5.377  0.1709  0.1863  0.0620
  183MOL0     C24616  10.570   2.480   5.980 -0.4956  0.3780  0.0342
  183MOL0     C24617  10.584   2.351   6.038 -0.4655  0.1891 -0.0454
  183MOL0     O24618  10.577   2.077   5.907  0.1345 -0.2542  0.2158
  183MOL0     C24619  10.471   1.859   6.136 -0.0163  0.8417  0.0041
  183MOL0     C24620  10.497   1.758   6.220  0.1655  0.1417 -0.2689
  183MOL0     N24621  10.424   1.093   6.182  0.5664  0.6973  0.1358
  183MOL0     N24622  10.306   1.033   6.203 -0.3489  1.0089  0.8666
  183MOL0     C24623   9.349   1.577   6.421  0.3499 -0.9822  1.2933
  183MOL0     C24624   9.231   1.600   6.491 -0.1092 -1.2199 -0.1773
  183MOL0     C24625   8.851   1.698   6.647 -1.1942 -0.0601 -0.1258
  183MOL0     C24626   8.814   1.809   6.721 -0.0794  0.4650  1.2635
  183MOL0     C24627   8.693   1.815   6.785 -0.4269  0.0959 -0.3529
  183MOL0     C24628   8.606   1.704   6.779  1.0579 -0.3407 -0.5254
  183MOL0     O24629   8.485   1.697   6.838  0.4027 -0.6010  0.3746
  183MOL0     C24630   8.476   1.727   6.974  0.3591 -0.4952  0.5220
  183MOL0     C24631   8.336   1.705   7.030  0.3827 -0.7061  0.3609
  183MOL0     C24632   8.227   1.817   7.015 -0.2422 -0.3202 -0.4801
  183MOL0     C24633   8.091   1.755   7.043 -0.3835  0.9849  0.4347
  183MOL0     C24634   7.974   1.832   7.007 -0.5685 -0.4432 -0.7403
  183MOL0     C24635   7.863   1.879   7.001 -0.2159 -1.0290 -0.5491
  183MOL0     C24636   8.646   1.589   6.714 -0.4120 -1.2475 -0.0086
  183MOL0     C24637   8.769   1.585   6.648  0.6597  0.6259 -0.4405
  183MOL0     H24638   9.004   1.549   6.241  0.1765  1.0041  0.7020
  183MOL0     H24639   9.218   1.529   6.108 -1.6778  0.0506  0.4198
  183MOL0     H24640   9.425   1.370   6.110 -0.1471 -0.7330 -4.1789
  183MOL0     H24641   9.435   1.524   6.032  0.9517 -0.1711 -0.7775
  183MOL0     H24642   9.646   1.380   5.961 -0.3504 -1.2691  0.6938
  183MOL0     H24643   9.698   1.519   6.032 -1.8445  1.4507 -0.5126
  183MOL0     H24644   9.670   1.390   6.264 -2.2783 -0.2839  0.7159
  183MOL0     H24645   9.622   1.251   6.168 -0.6393  0.9364  2.8442
  183MOL0     H24646   9.842   1.213   6.069  3.0721 -0.3366  0.9255
  183MOL0     H24647   9.907   1.357   6.134 -0.2754  0.1416  1.6747
  183MOL0     H24648   9.859   1.276   6.366 -1.7839 -0.1962  0.5006
  183MOL0     H24649   9.799   1.124   6.299  0.1091  0.2331 -0.3017
  183MOL0     H24650  10.005   1.064   6.201  1.9443  0.5579 -0.9480
  183MOL0     H24651  10.076   1.225   6.237  2.5764 -2.3812 -1.7829
  183MOL0     H24652  10.097   1.195   6.462 -1.9770  1.0336  0.6384
  183MOL0     H24653   9.973   1.079   6.488 -0.2052  1.8077  0.3113
  183MOL0     H24654  10.120   0.914   6.339  2.8926 -1.4289 -1.1706
  183MOL0     H24655  10.191   0.954   6.500  0.2963  2.2815  0.2922
  183MOL0     H24656  10.413   1.117   6.501 -1.1704 -1.3646  1.0483
  183MOL0     H24657  10.604   1.244   6.435 -0.1433  3.3813 -1.9929
  183MOL0     H24658  10.668   1.098   6.366  2.3967  1.7265  0.5372
  183MOL0     H24659  10.689   1.180   6.154 -3.1069 -1.4702  1.3857
  183MOL0     H24660  10.783   1.276   6.277 -0.7182  3.5996  1.6473
  183MOL0     H24661  10.545   1.378   6.107  0.1070  3.8249 -1.2980
  183MOL0     H24662  10.705   1.443   6.129  0.2461 -2.5720 -0.2461
  183MOL0     H24663  10.567   1.431   6.397 -0.1708 -0.4860 -0.7179
  183MOL0     H24664  10.457   1.499   6.292 -0.1639  0.6244 -1.6946
  183MOL0     H24665  10.822   1.701   6.147  0.2954  1.1431 -0.9532
  183MOL0     H24666  10.803   1.914   5.894  0.2645 -0.6300  0.1437
  183MOL0     H24667  10.836   2.026   6.034  2.3051 -0.4316 -0.0762
  183MOL0     H24668  10.907   1.865   6.028  0.0820 -0.3997 -1.1157
  183MOL0     H24669  10.255   2.265   6.079 -0.6935  0.1876  0.1209
  183MOL0     H24670  10.231   2.493   6.005 -0.1104  1.0086  1.4121
  183MOL0     H24671  10.248   2.638   5.825  3.1079 -2.7079 -0.3947
  183MOL0     H24672  10.263   2.756   5.948 -0.4107 -2.6299 -0.4031
  183MOL0     H24673  10.404   2.898   5.810 -0.6603 -1.1347  1.5126
  183MOL0     H24674  10.430   2.776   5.685 -1.1750 -0.5326 -0.7244
  183MOL0     H24675  10.294   2.971   5.646 -1.5875  1.3024  2.2868
  183MOL0     H24676  10.169   2.891   5.746  1.2257 -0.5410  1.5814
  183MOL0     H24677  10.197   2.868   5.452 -0.2122  0.2697  0.4485
  183MOL0     H24678  10.259   2.720   5.528  1.4477  1.3822 -0.5263
  183MOL0     H24679   9.991   2.844   5.562  3.3282  1.8976 -0.1682
  183MOL0     H24680  10.048   2.705   5.656  2.4456  0.7416 -0.4108
  183MOL0     H24681   9.988   2.691   5.359  0.2950 -1.6685 -1.0708
  183MOL0     H24682  10.082   2.573   5.447  0.6602 -0.0931  4.6074
  183MOL0     H24683   9.805   2.642   5.557 -1.2235  0.1430 -1.6950
  183MOL0     H24684   9.908   2.517   5.604  0.5753 -0.0855  0.0727
  183MOL0     H24685   9.740   2.519   5.347 -0.5991  0.8034  2.0546
  183MOL0     H24686   9.707   2.430   5.489 -2.0347  0.0360 -2.5524
  183MOL0     H24687  10.656   2.533   5.940  1.1564 -1.2813  1.1769
  183MOL0     H24688  10.680   2.314   6.070 -0.1475  1.7036  0.8203
  183MOL0     H24689  10.367   1.890   6.127 -1.2687 -2.7354  0.5601
  183MOL0     H24690  10.412   1.722   6.277 -0.9840  2.9991 -0.0359
  183MOL0     H24691   9.438   1.607   6.474 -1.4950  2.9423  2.5499
  183MOL0     H24692   9.242   1.649   6.588 -1.2711  1.3875 -1.2836
  183MOL0     H24693   8.878   1.894   6.742 -2.9662  2.6228  1.8050
  183MOL0     H24694   8.667   1.902   6.845 -3.1947 -1.3674  0.7504
  183MOL0     H24695   8.554   1.677   7.033  2.2496  2.5290  0.8302
  183MOL0     H24696   8.494   1.833   6.998  3.7243 -0.7328 -0.3675
  183MOL0     H24697   8.344   1.700   7.139 -1.2512  1.3167  0.6516
  183MOL0     H24698   8.290   1.614   6.991  1.6975  0.3670 -4.3188
  183MOL0     H24699   8.235   1.877   6.923 -0.2606 -0.3944 -0.5310
  183MOL0     H24700   8.231   1.881   7.103 -4.1652 -0.5723  0.0647
  183MOL0     H24701   8.074   1.730   7.148 -2.0417 -0.2651 -0.0986
  183MOL0     H24702   8.090   1.662   6.986 -4.7046  1.7045 -1.0459
  183MOL0     H24703   7.770   1.932   6.997  1.0181  1.2702 -0.5571
  183MOL0     H24704   8.574   1.509   6.727  1.5185 -2.7813  2.0100
  183MOL0     H24705   8.795   1.491   6.601 -1.1085 -0.1460  0.0758
  184MOL0     O24706   1.880   0.054   9.046 -0.2875  0.5206 -0.6534
  184MOL0     C24707   1.782   0.004   8.984  0.4525 -0.5940  0.2779
  184MOL0     O24708   1.810  -0.085   8.877  0.8664 -0.1569  0.1283
  184MOL0     C24709   1.931  -0.088   8.814  0.5013  0.1136  0.3526
  184MOL0     C24710   1.977  -0.220   8.786 -0.5361 -0.0161  0.2772
  184MOL0     C24711   2.104  -0.243   8.723  0.4845  0.0050 -0.6423
  184MOL0     C24712   2.194  -0.135   8.694  0.0003  1.2081 -1.6071
  184MOL0     O24713   2.327  -0.151   8.661 -0.0466  0.2647  0.9077
  184MOL0     C24714   2.372  -0.284   8.626  0.1544 -0.0097 -0.9434
  184MOL0     C24715   2.325  -0.328   8.483 -0.5982  0.4964 -1.0352
  184MOL0     C24716   2.354  -0.225   8.368 -0.0359 -0.3011 -0.5946
  184MOL0     C24717   2.223  -0.163   8.324  0.0002  1.1118  0.3796
  184MOL0     C24718   2.235  -0.041   8.244 -0.2731  0.4718 -0.1703
  184MOL0     C24719   2.252   0.082   8.339 -0.4631 -1.0606  0.7356
  184MOL0     C24720   2.240   0.215   8.262 -0.5897  0.1715 -1.4255
  184MOL0     C24721   2.247   0.334   8.354  0.2003  0.7769  0.0225
  184MOL0     N24722   2.128   0.375   8.430  0.3802 -0.2008 -0.4486
  184MOL0     C24723   2.038   0.472   8.403  0.1494 -1.1721  1.0573
  184MOL0     C24724   1.953   0.466   8.501  0.2411 -0.5737 -0.2344
  184MOL0     C24725   1.821   0.541   8.513 -0.1361 -0.1749 -0.2544
  184MOL0     C24726   1.843   0.690   8.508  0.8752 -0.0747  0.4023
  184MOL0     C24727   1.715   0.765   8.512  0.9519 -0.1736 -1.4146
  184MOL0     C24728   1.731   0.909   8.495 -0.5566  0.0153 -0.9012
  184MOL0     O24729   1.838   0.958   8.582 -0.0129  0.1662 -0.4269
  184MOL0     C24730   1.796   0.986   8.711  0.3157 -0.1914  1.4383
  184MOL0     C24731   1.739   1.112   8.733  0.1919  0.3864  0.0626
  184MOL0     C24732   1.655   1.136   8.836  0.0825  0.9980 -0.4009
  184MOL0     C24733   1.590   1.275   8.852  0.6361  0.4103 -0.6312
  184MOL0     C24734   1.659   1.037   8.942  0.8135 -0.7264  0.2471
  184MOL0     C24735   1.570   1.052   9.061  0.6494  0.1488  0.6638
  184MOL0     O24736   1.625   1.100   9.178 -0.2469  0.0063  0.0642
  184MOL0     C24737   1.548   1.121   9.288 -0.5152  0.7726  0.0825
  184MOL0     C24738   1.546   1.025   9.389 -1.1793 -0.0696  0.7945
  184MOL0     C24739   1.463   1.042   9.495 -0.3252  0.7630 -0.0952
  184MOL0     C24740   1.370   1.152   9.506 -0.4096  0.0640  0.2246
  184MOL0     O24741   1.290   1.158   9.620 -0.3991 -0.3840 -0.1783
  184MOL0     C24742   1.222   1.279   9.661 -0.0166  0.8510  0.2398
  184MOL0     C24743   1.146   1.235   9.784  0.7824  0.0411  0.0371
  184MOL0     C24744   1.041   1.117   9.773 -0.2080 -0.7195 -0.0641
  184MOL0     C24745   0.956   1.096   9.908 -1.2053 -0.5930  1.2193
  184MOL0     C24746   0.847   0.990   9.886  0.3704 -0.5844  0.1447
  184MOL0     C24747   0.729   1.027   9.786 -0.3216  0.7259  0.1066
  184MOL0     C24748   0.638   0.904   9.778  1.2027  0.6562 -1.8921
  184MOL0     C24749   0.578   0.867   9.914 -0.4308  0.2450 -1.0474
  184MOL0    Cl24750   0.483   0.994   9.983  0.2238 -0.1279 -0.0241
  184MOL0     C24751   1.363   1.240   9.395  0.6981  0.7871  0.5589
  184MOL0     C24752   1.453   1.228   9.289  0.1222 -0.2449 -0.4802
  184MOL0     O24753   1.451   1.008   9.045  0.1190 -0.7387 -0.4119
  184MOL0     C24754   1.729   0.916   8.926 -0.2869 -0.8962 -0.6552
  184MOL0     C24755   1.789   0.883   8.800 -0.7694 -0.1944 -0.1472
  184MOL0     N24756   1.995   0.363   8.588  0.5672 -0.3938  0.5362
  184MOL0     N24757   2.102   0.319   8.549 -0.3203 -0.4225 -0.4931
  184MOL0     C24758   2.147  -0.010   8.717  0.9148 -0.6423 -0.4026
  184MOL0     C24759   2.014   0.014   8.768  0.1421 -0.0113 -0.2851
  184MOL0     C24760   1.644   0.035   9.033  0.1623  0.5602  0.2502
  184MOL0     C24761   1.527  -0.025   8.983  0.3207 -0.0416 -0.2758
  184MOL0     C24762   1.397   0.001   9.027  0.1373  0.3336  0.2619
  184MOL0     C24763   1.374   0.098   9.131 -0.7697  0.0825 -0.1186
  184MOL0     O24764   1.257   0.138   9.180 -0.6273  0.1268 -0.2141
  184MOL0     C24765   1.142   0.045   9.147 -0.7995 -0.1402 -0.0514
  184MOL0     C24766   1.018   0.092   9.231 -0.8382 -0.5608 -0.8929
  184MOL0     C24767   1.024   0.083   9.393 -1.0191  0.2282 -0.0066
  184MOL0     C24768   0.897   0.138   9.446  0.0310 -0.5586 -0.7050
  184MOL0     C24769   0.876   0.100   9.587 -0.4206  0.3644  1.1039
  184MOL0     C24770   0.864   0.073   9.708 -0.1877 -0.0235  0.2432
  184MOL0     C24771   1.490   0.155   9.182 -0.1415  0.2199 -0.2214
  184MOL0     C24772   1.621   0.133   9.132 -0.3056 -0.5602 -0.1819
  184MOL0     H24773   1.900  -0.294   8.808  1.7005 -2.2327  1.0439
  184MOL0     H24774   2.125  -0.347   8.698 -1.2453 -0.2620 -1.1154
  184MOL0     H24775   2.481  -0.280   8.631  0.0908  0.6873  0.5921
  184MOL0     H24776   2.344  -0.355   8.703  2.8151  1.3771  1.5129
  184MOL0     H24777   2.391  -0.415   8.472 -3.4565 -2.4141  2.3074
  184MOL0     H24778   2.224  -0.369   8.483 -0.9277  1.1710  1.6306
  184MOL0     H24779   2.420  -0.147   8.407 -0.7905 -0.5343  1.2931
  184MOL0     H24780   2.405  -0.275   8.285  2.7136  0.0746  0.7474
  184MOL0     H24781   2.170  -0.245   8.275 -1.5065  0.9035  2.2611
  184MOL0     H24782   2.162  -0.148   8.413 -1.7480 -0.5203 -0.4791
  184MOL0     H24783   2.324  -0.060   8.183  1.3172 -3.0313  2.8379
  184MOL0     H24784   2.144  -0.025   8.186 -3.3377 -0.7047  3.8344
  184MOL0     H24785   2.178   0.091   8.419 -0.4868  1.3139  0.5016
  184MOL0     H24786   2.349   0.081   8.390  0.4824  0.8374 -0.9095
  184MOL0     H24787   2.318   0.229   8.186 -0.5532 -2.0214 -1.8599
  184MOL0     H24788   2.138   0.221   8.222 -0.6495  1.9647 -1.0814
  184MOL0     H24789   2.259   0.425   8.295 -2.6866  1.4670  0.3584
  184MOL0     H24790   2.322   0.314   8.432  0.5393 -3.1587 -1.0645
  184MOL0     H24791   2.038   0.535   8.314 -0.9749 -0.2359  1.7013
  184MOL0     H24792   1.755   0.510   8.431  0.7430 -1.6651 -0.4413
  184MOL0     H24793   1.767   0.496   8.597 -0.2634 -1.0035 -0.7674
  184MOL0     H24794   1.883   0.722   8.411  1.6736  1.1426  1.1091
  184MOL0     H24795   1.918   0.726   8.579  0.0489  2.4715  0.0836
  184MOL0     H24796   1.657   0.753   8.604 -0.5476  0.5174 -2.2311
  184MOL0     H24797   1.650   0.732   8.430 -1.3286  1.2995 -0.3224
  184MOL0     H24798   1.635   0.961   8.499 -0.2146  0.5884  0.3682
  184MOL0     H24799   1.773   0.914   8.394  1.5428 -5.7414 -0.6924
  184MOL0     H24800   1.752   1.181   8.651  0.5422 -0.6151 -0.7438
  184MOL0     H24801   1.631   1.347   8.781 -1.2843  3.3964  1.0810
  184MOL0     H24802   1.481   1.268   8.848  0.7229 -0.6854 -3.5756
  184MOL0     H24803   1.602   1.316   8.953 -0.7094 -0.2961 -0.1479
  184MOL0     H24804   1.608   0.936   9.393 -0.3453  0.4920  0.4380
  184MOL0     H24805   1.492   0.970   9.571  0.6386  2.0757  0.8360
  184MOL0     H24806   1.291   1.362   9.680 -0.1474  0.9355  0.3436
  184MOL0     H24807   1.155   1.317   9.584  0.1549  1.0456  0.1847
  184MOL0     H24808   1.211   1.211   9.869  2.7914 -2.2599 -1.9960
  184MOL0     H24809   1.093   1.329   9.801  0.3560  0.4001 -2.7392
  184MOL0     H24810   1.107   1.032   9.755  0.6056 -0.0866 -0.1229
  184MOL0     H24811   0.977   1.126   9.685 -1.0822 -1.2417  0.5085
  184MOL0     H24812   1.019   1.064   9.991  1.4173 -1.3306 -0.8905
  184MOL0     H24813   0.910   1.194   9.920 -3.5329 -1.3068 -0.9533
  184MOL0     H24814   0.806   0.977   9.986 -1.4295  1.6421 -0.2201
  184MOL0     H24815   0.887   0.890   9.868  1.2829 -0.7423  2.7010
  184MOL0     H24816   0.675   1.118   9.815  1.0137  1.1154  1.5118
  184MOL0     H24817   0.766   1.041   9.685 -1.3271 -1.4104 -0.6210
  184MOL0     H24818   0.681   0.813   9.737 -1.1504 -2.7771  2.4719
  184MOL0     H24819   0.552   0.935   9.717 -3.4572  1.1198  3.9346
  184MOL0     H24820   0.656   0.829   9.980 -0.0151  0.5271 -1.3726
  184MOL0     H24821   0.511   0.781   9.904  0.1061 -0.2981 -0.0870
  184MOL0     H24822   1.290   1.320   9.389 -2.0685 -1.6631 -2.0151
  184MOL0     H24823   1.438   1.306   9.215  0.2757  2.0178  1.7133
  184MOL0     H24824   1.738   0.852   9.013  0.2482 -0.2382 -0.2170
  184MOL0     H24825   1.840   0.787   8.796  1.3027  0.5576  3.3807
  184MOL0     H24826   2.205   0.079   8.696 -0.0794 -0.3520 -2.0724
  184MOL0     H24827   1.990   0.118   8.790  1.4695  0.3961 -0.6518
  184MOL0     H24828   1.536  -0.094   8.900  0.5256  2.6127 -2.5835
  184MOL0     H24829   1.317  -0.051   8.974  0.7008 -1.7186  1.2957
  184MOL0     H24830   1.113   0.044   9.041 -0.0841 -1.9230 -0.2653
  184MOL0     H24831   1.162  -0.058   9.177  1.8753 -0.5542 -2.7775
  184MOL0     H24832   0.931   0.036   9.196  0.5534 -1.4597 -3.1294
  184MOL0     H24833   0.989   0.197   9.217  1.7967  0.6249  1.5691
  184MOL0     H24834   1.106   0.137   9.441 -0.8925  1.0819 -1.1173
  184MOL0     H24835   1.043  -0.022   9.415 -2.5035 -0.1286 -0.3241
  184MOL0     H24836   0.820   0.094   9.381  0.3639 -2.6140  0.2209
  184MOL0     H24837   0.905   0.247   9.449 -0.6225 -0.4956 -0.9453
  184MOL0     H24838   0.872   0.038   9.809  0.0321 -0.1947  0.1664
  184MOL0     H24839   1.484   0.240   9.250 -0.8908 -1.1338  1.4808
  184MOL0     H24840   1.705   0.184   9.178 -2.0492  1.0029  1.4086
  185MOL0     O24841   4.413   2.887   1.561  0.4347  0.3296 -0.7438
  185MOL0     C24842   4.504   2.810   1.588 -0.9497  0.1639  0.6352
  185MOL0     O24843   4.493   2.677   1.584  0.1873 -0.0868  0.3479
  185MOL0     C24844   4.370   2.609   1.586 -0.7019  0.0186  0.4019
  185MOL0     C24845   4.363   2.483   1.524 -0.4375 -1.0413  1.4865
  185MOL0     C24846   4.242   2.412   1.516 -0.0676 -0.4324 -0.5950
  185MOL0     C24847   4.126   2.465   1.567  0.1395 -0.6463  0.0055
  185MOL0     O24848   4.000   2.401   1.552 -0.5797  0.3120 -0.5190
  185MOL0     C24849   3.992   2.262   1.510  0.0521  0.9339  0.1420
  185MOL0     C24850   3.857   2.197   1.532 -0.0370  0.0321  0.9076
  185MOL0     C24851   3.745   2.259   1.432 -0.5381 -0.2636 -0.2991
  185MOL0     C24852   3.613   2.184   1.437 -0.3442  1.1207 -0.2908
  185MOL0     C24853   3.508   2.212   1.333  0.2766  0.0514  0.4122
  185MOL0     C24854   3.520   2.345   1.258  0.3923 -0.1745 -0.0127
  185MOL0     C24855   3.405   2.368   1.165  0.1488 -0.3834 -0.7210
  185MOL0     C24856   3.416   2.286   1.026 -0.0823 -0.4044 -0.5229
  185MOL0     N24857   3.290   2.209   1.010 -0.0948  0.6485  0.6790
  185MOL0     C24858   3.232   2.108   1.085  0.7247 -0.1334 -0.1456
  185MOL0     C24859   3.101   2.101   1.046  0.1024  0.1473  0.1635
  185MOL0     C24860   3.000   2.014   1.122 -0.7046  0.0150  0.3050
  185MOL0     C24861   2.855   2.068   1.091  0.2675 -0.7167  0.5658
  185MOL0     C24862   2.738   2.012   1.189 -0.3439  0.3034 -1.1211
  185MOL0     C24863   2.600   2.048   1.150 -0.2061 -0.2327  0.1305
  185MOL0     O24864   2.562   2.189   1.168  0.1260  0.8178 -0.5863
  185MOL0     C24865   2.427   2.218   1.150 -0.3370 -0.1050 -0.8835
  185MOL0     C24866   2.334   2.132   1.078 -0.1060 -0.8195 -0.4703
  185MOL0     C24867   2.195   2.137   1.102 -0.7597  0.2703 -0.5415
  185MOL0     C24868   2.112   2.033   1.040  1.4495  0.1162 -0.4022
  185MOL0     C24869   2.147   2.238   1.193 -0.5637  0.7129 -0.8444
  185MOL0     C24870   2.002   2.265   1.218  0.0286  0.3792 -0.0858
  185MOL0     O24871   1.918   2.247   1.108  0.0370 -0.1674  0.5694
  185MOL0     C24872   1.785   2.261   1.137 -0.6778 -0.2205 -0.4086
  185MOL0     C24873   1.725   2.400   1.144 -0.0981  0.4556  1.0765
  185MOL0     C24874   1.582   2.411   1.150 -0.3852  0.0328 -0.0995
  185MOL0     C24875   1.502   2.299   1.178 -0.1628 -0.1491  0.1739
  185MOL0     O24876   1.363   2.302   1.184  0.0693 -0.1456 -0.4969
  185MOL0     C24877   1.309   2.426   1.242  0.3610  0.1538  0.8780
  185MOL0     C24878   1.154   2.414   1.216 -0.9430 -0.4940  0.3528
  185MOL0     C24879   1.095   2.291   1.293  0.0039 -0.6698 -0.7161
  185MOL0     C24880   1.094   2.297   1.447  0.1828  0.8254 -0.1048
  185MOL0     C24881   0.975   2.227   1.513 -0.7142  0.4352 -0.5349
  185MOL0     C24882   0.985   2.249   1.666  0.4620  0.3935  0.8420
  185MOL0     C24883   0.879   2.154   1.730 -0.8050  0.2037  0.0135
  185MOL0     C24884   0.732   2.205   1.747  0.2669 -0.5143  0.0385
  185MOL0    Cl24885   0.656   2.215   1.592  0.5356 -0.1490 -0.5075
  185MOL0     C24886   1.568   2.171   1.159 -0.4551  0.1643  0.0115
  185MOL0     C24887   1.703   2.151   1.134 -0.1511 -0.7318 -0.7741
  185MOL0     O24888   1.973   2.308   1.330  0.2633 -0.1380 -0.0039
  185MOL0     C24889   2.239   2.330   1.246  0.0971 -0.6833 -0.8598
  185MOL0     C24890   2.377   2.322   1.222  0.2091  1.0016  1.0157
  185MOL0     N24891   3.084   2.200   0.937  0.2124 -1.2014 -1.2413
  185MOL0     N24892   3.194   2.260   0.920 -0.8612 -0.2293 -0.7895
  185MOL0     C24893   4.132   2.585   1.636 -0.3740 -0.0140 -0.3546
  185MOL0     C24894   4.249   2.658   1.643 -0.4597  0.0058 -0.6775
  185MOL0     C24895   4.627   2.866   1.640 -0.2769  0.7246 -0.2158
  185MOL0     C24896   4.740   2.779   1.652 -0.2559  0.2363 -0.0688
  185MOL0     C24897   4.858   2.818   1.718 -0.1763  0.5154  1.1693
  185MOL0     C24898   4.861   2.947   1.765 -0.3485  0.0847  0.3749
  185MOL0     O24899   4.980   2.986   1.820 -0.2440 -0.0663  0.2335
  185MOL0     C24900   4.997   2.920   1.952  0.8859 -0.2444  1.6245
  185MOL0     C24901   5.142   2.927   1.980 -1.1817 -0.1499  0.0840
  185MOL0     C24902   5.179   2.955   2.127 -1.1256 -1.2677 -1.2452
  185MOL0     C24903   5.136   2.831   2.214  0.1546  0.3357  0.4986
  185MOL0     C24904   5.188   2.841   2.350  0.2735 -0.1625  0.6076
  185MOL0     C24905   5.237   2.868   2.453 -0.3373  0.6908  0.1106
  185MOL0     C24906   4.755   3.035   1.753  0.5774 -0.5826 -0.2709
  185MOL0     C24907   4.637   2.992   1.695  0.0903 -0.1259  0.1958
  185MOL0     H24908   4.457   2.450   1.480  1.8416  4.9554  0.9753
  185MOL0     H24909   4.235   2.327   1.447 -0.1036  1.0956 -2.5644
  185MOL0     H24910   4.015   2.255   1.404  1.7230 -0.0233  0.5324
  185MOL0     H24911   4.068   2.208   1.567  2.4306  3.1916 -0.7163
  185MOL0     H24912   3.870   2.090   1.513 -3.2126 -0.2081 -0.4720
  185MOL0     H24913   3.831   2.210   1.637 -1.2802 -1.7785  0.8519
  185MOL0     H24914   3.737   2.364   1.462  1.5018 -0.8121  2.7207
  185MOL0     H24915   3.788   2.260   1.332  5.6636 -0.9412  1.8833
  185MOL0     H24916   3.632   2.077   1.427 -1.4568  0.6565  1.9564
  185MOL0     H24917   3.561   2.200   1.532  0.5358  1.3983  0.1604
  185MOL0     H24918   3.510   2.124   1.267  3.0333 -2.5089  3.5568
  185MOL0     H24919   3.409   2.212   1.379 -0.3483 -2.5147 -0.7269
  185MOL0     H24920   3.535   2.427   1.330  0.0607 -0.0834 -0.0459
  185MOL0     H24921   3.607   2.328   1.194 -1.2611 -0.7649 -2.1804
  185MOL0     H24922   3.314   2.352   1.222 -0.2822 -0.6136 -1.4535
  185MOL0     H24923   3.407   2.475   1.145  2.0218  0.0391  1.3808
  185MOL0     H24924   3.511   2.232   1.027  1.1404  1.6547  0.0412
  185MOL0     H24925   3.415   2.343   0.933 -1.7872 -0.6882 -0.7208
  185MOL0     H24926   3.266   2.054   1.172 -0.0445  0.2955  0.4369
  185MOL0     H24927   3.006   1.907   1.101 -0.1975  0.5764 -3.0909
  185MOL0     H24928   3.028   2.033   1.226  2.4850  0.6970 -0.5607
  185MOL0     H24929   2.823   2.043   0.990 -1.0038 -1.1989  1.0682
  185MOL0     H24930   2.857   2.176   1.110  1.4079 -0.7530  0.7449
  185MOL0     H24931   2.757   2.027   1.296  0.5551 -3.7052 -0.5545
  185MOL0     H24932   2.752   1.903   1.186 -2.6929 -0.3376  2.8614
  185MOL0     H24933   2.533   1.983   1.207  0.4792 -1.6367 -0.6316
  185MOL0     H24934   2.586   2.016   1.047  1.5085  0.6094 -0.3977
  185MOL0     H24935   2.370   2.051   1.016  1.3912  0.4756 -1.3819
  185MOL0     H24936   2.152   1.931   1.037 -2.6955 -1.6787 -3.2877
  185MOL0     H24937   2.015   2.025   1.090  1.0596 -2.1556 -1.4144
  185MOL0     H24938   2.103   2.054   0.933 -1.5652  0.3938 -0.1695
  185MOL0     H24939   1.775   2.493   1.119  0.1361 -0.2262 -1.2591
  185MOL0     H24940   1.550   2.513   1.130 -3.2998 -1.4459 -4.4287
  185MOL0     H24941   1.325   2.426   1.351 -0.5659  4.0221  1.1356
  185MOL0     H24942   1.353   2.518   1.202  0.7978 -0.2857  0.3285
  185MOL0     H24943   1.113   2.506   1.258 -1.0644 -0.3140 -0.1640
  185MOL0     H24944   1.123   2.402   1.112 -0.4161  0.5159  0.0693
  185MOL0     H24945   1.147   2.197   1.270  0.5060 -0.8571  1.0203
  185MOL0     H24946   0.987   2.294   1.276 -0.5538  0.1737  2.2860
  185MOL0     H24947   1.180   2.241   1.484 -0.2605  1.2389  1.5963
  185MOL0     H24948   1.091   2.399   1.485  0.0413  0.5765  0.5555
  185MOL0     H24949   0.993   2.122   1.486 -1.4702 -0.1230  1.0091
  185MOL0     H24950   0.882   2.271   1.477 -0.7382  0.6294 -0.2396
  185MOL0     H24951   1.088   2.226   1.696 -0.5218  0.1028  4.5207
  185MOL0     H24952   0.961   2.355   1.681  1.3921  1.0663 -1.8207
  185MOL0     H24953   0.910   2.126   1.831  1.1657  0.1542 -0.5662
  185MOL0     H24954   0.884   2.063   1.670  0.2110  1.8567 -2.6067
  185MOL0     H24955   0.732   2.305   1.792  1.3064  0.6686 -2.4041
  185MOL0     H24956   0.691   2.122   1.805  0.5968 -1.6449 -1.2778
  185MOL0     H24957   1.488   2.097   1.167 -2.3454  2.0162 -0.7531
  185MOL0     H24958   1.746   2.055   1.106  1.9549  0.2198 -0.9528
  185MOL0     H24959   2.209   2.416   1.306 -0.5947 -0.5880 -1.3344
  185MOL0     H24960   2.456   2.374   1.277  0.7914 -0.6838  1.8517
  185MOL0     H24961   4.045   2.628   1.687  0.7672 -0.0321  1.7377
  185MOL0     H24962   4.251   2.755   1.691 -0.4745 -0.2800 -0.0951
  185MOL0     H24963   4.726   2.676   1.620 -2.6241 -0.2156  2.1255
  185MOL0     H24964   4.953   2.765   1.713  0.3241  1.2925  2.1179
  185MOL0     H24965   4.940   2.967   2.032 -5.7158 -3.4975 -0.4819
  185MOL0     H24966   4.971   2.813   1.951  5.3518 -1.5438  1.8852
  185MOL0     H24967   5.194   3.000   1.917 -0.2595 -0.7878  0.0889
  185MOL0     H24968   5.192   2.834   1.953  1.5038  1.7793 -2.1818
  185MOL0     H24969   5.129   3.041   2.173 -1.3984 -2.2040  0.2877
  185MOL0     H24970   5.287   2.970   2.131 -0.9127 -2.8724  0.2486
  185MOL0     H24971   5.187   2.742   2.176  1.2909  0.9397  0.5535
  185MOL0     H24972   5.028   2.818   2.217  0.2655 -0.7982 -0.0023
  185MOL0     H24973   5.260   2.892   2.555  1.7513 -2.2016  0.4602
  185MOL0     H24974   4.753   3.133   1.800 -1.0067 -1.0660  0.7369
  185MOL0     H24975   4.546   3.051   1.694  0.9351  1.2252 -1.0077
  186MOL0     O24976   0.306   4.195  10.912 -0.0279  0.0155 -0.5173
  186MOL0     C24977   0.295   4.126  11.020 -0.4303 -0.3813 -0.6313
  186MOL0     O24978   0.400   4.071  11.092  0.7219 -0.2925  0.0517
  186MOL0     C24979   0.532   4.095  11.053  0.7962  0.0651 -0.2542
  186MOL0     C24980   0.625   4.129  11.152  0.0239 -0.9958 -0.0829
  186MOL0     C24981   0.760   4.161  11.128  0.7982 -0.7685 -0.0966
  186MOL0     C24982   0.810   4.142  10.997 -0.2040  0.2877 -0.7588
  186MOL0     O24983   0.940   4.168  10.957 -0.1029 -0.6444  0.2430
  186MOL0     C24984   1.051   4.179  11.044 -0.0469 -0.4269 -0.9732
  186MOL0     C24985   1.053   4.322  11.096 -0.5142  0.7403  0.1841
  186MOL0     C24986   1.191   4.391  11.080 -0.3340 -0.1258  0.1559
  186MOL0     C24987   1.186   4.524  11.153 -1.0583  0.0346  1.0392
  186MOL0     C24988   1.312   4.607  11.153 -0.5011  0.7421  0.4844
  186MOL0     C24989   1.297   4.737  11.239 -0.2411 -0.0044 -0.4129
  186MOL0     C24990   1.186   4.826  11.169  0.1264  1.0187  0.1361
  186MOL0     C24991   1.053   4.818  11.253 -0.9986  0.2685 -0.0193
  186MOL0     N24992   0.951   4.914  11.212  0.7336 -0.5051 -0.3528
  186MOL0     C24993   0.947   4.976  11.088  0.5275 -0.3003 -0.5949
  186MOL0     C24994   0.823   5.040  11.086 -0.6923  0.9542 -0.2788
  186MOL0     C24995   0.792   5.132  10.975  0.4788  0.9965 -0.5917
  186MOL0     C24996   0.882   5.135  10.859 -0.7657  0.9390  0.3842
  186MOL0     C24997   0.865   5.022  10.752 -0.0547  0.3220 -0.1103
  186MOL0     C24998   0.724   4.995  10.690 -0.5216 -0.4048  0.7644
  186MOL0     O24999   0.676   5.115  10.620  0.4234  0.4240 -0.6387
  186MOL0     C25000   0.546   5.100  10.571 -0.0706  0.6680 -0.1099
  186MOL0     C25001   0.479   4.970  10.558 -0.7020 -0.0107 -0.1923
  186MOL0     C25002   0.352   4.952  10.504 -0.4441  0.1397 -0.0897
  186MOL0     C25003   0.302   4.815  10.516  0.6125  0.2800  0.9582
  186MOL0     C25004   0.289   5.068  10.444 -0.0782 -0.8059 -0.3915
  186MOL0     C25005   0.161   5.062  10.368 -0.0911  0.3728  0.1543
  186MOL0     O25006   0.081   5.174  10.374 -0.5653  0.3355  0.2211
  186MOL0     C25007  -0.042   5.169  10.322  0.8212  0.1630  0.1557
  186MOL0     C25008  -0.150   5.224  10.400 -0.1291  0.1427 -0.4699
  186MOL0     C25009  -0.285   5.223  10.365  0.6719  0.2965  0.0924
  186MOL0     C25010  -0.319   5.141  10.251 -0.0290 -0.2657 -0.5272
  186MOL0     O25011  -0.450   5.122  10.204  0.0668  0.6881 -0.7610
  186MOL0     C25012  -0.553   5.127  10.308 -0.1274  0.0010  0.5131
  186MOL0     C25013  -0.647   5.243  10.295  0.3136 -0.8106  0.3539
  186MOL0     C25014  -0.696   5.249  10.150  0.0972  0.7034 -1.0346
  186MOL0     C25015  -0.774   5.377  10.130 -0.5236 -1.5572  0.2865
  186MOL0     C25016  -0.826   5.369   9.988  0.9890 -0.8768  0.4753
  186MOL0     C25017  -0.957   5.295   9.988  0.1685  1.1415  0.5910
  186MOL0     C25018  -1.072   5.370  10.053  0.1552  1.0766 -0.6216
  186MOL0     C25019  -1.110   5.487   9.979 -0.4979 -0.0996  0.2243
  186MOL0    Cl25020  -1.273   5.549   9.994  0.1857  0.1572 -0.0537
  186MOL0     C25021  -0.215   5.085  10.179  0.1242  0.1452  0.2025
  186MOL0     C25022  -0.077   5.099  10.210  0.2989 -0.3817 -0.1768
  186MOL0     O25023   0.130   4.954  10.315 -0.0514 -0.8463  0.3718
  186MOL0     C25024   0.354   5.191  10.451 -0.0218 -0.1893  0.3883
  186MOL0     C25025   0.480   5.206  10.516 -0.5163  0.1856 -0.1388
  186MOL0     N25026   0.757   5.012  11.205  0.2376  0.0065  0.4202
  186MOL0     N25027   0.832   4.938  11.283 -0.4293 -0.4124 -0.1558
  186MOL0     C25028   0.719   4.106  10.889  0.1530  0.0121 -0.2274
  186MOL0     C25029   0.583   4.076  10.919 -0.2059  0.1739 -0.0528
  186MOL0     C25030   0.163   4.085  11.057  0.1835 -0.1065  0.2004
  186MOL0     C25031   0.049   4.139  10.991 -0.5767 -0.4367 -0.2967
  186MOL0     C25032  -0.080   4.094  11.012  0.0522 -0.7503  0.2256
  186MOL0     C25033  -0.101   4.034  11.136  0.2317 -0.7179  0.0660
  186MOL0     O25034  -0.222   4.017  11.168  0.6691  0.7250 -0.6786
  186MOL0     C25035  -0.308   4.128  11.181 -0.1857 -0.3115  0.4219
  186MOL0     C25036  -0.350   4.143  11.323  0.3349 -0.6637  0.3011
  186MOL0     C25037  -0.469   4.250  11.320  0.2794 -0.5627 -0.1987
  186MOL0     C25038  -0.559   4.252  11.442  0.3523 -0.5186 -0.8171
  186MOL0     C25039  -0.671   4.346  11.420 -0.9903  0.0970 -0.0378
  186MOL0     C25040  -0.762   4.422  11.401 -0.2281 -0.1725  0.3150
  186MOL0     C25041   0.005   3.982  11.211 -0.6626  0.9697  0.3794
  186MOL0     C25042   0.131   4.006  11.174 -0.0070 -0.0924  0.7796
  186MOL0     H25043   0.579   4.147  11.249 -4.5648 -1.5325 -1.8712
  186MOL0     H25044   0.834   4.195  11.200 -0.1060 -0.3867  0.6742
  186MOL0     H25045   1.039   4.097  11.115 -2.8546 -0.6685 -1.6293
  186MOL0     H25046   1.140   4.154  10.986 -0.7979 -2.3939 -1.3319
  186MOL0     H25047   0.983   4.377  11.033  0.9803  3.3952  0.6764
  186MOL0     H25048   1.015   4.320  11.198 -2.4482  2.2432 -0.4470
  186MOL0     H25049   1.270   4.323  11.114 -1.2593  0.2230  3.2982
  186MOL0     H25050   1.217   4.406  10.975  1.2234 -0.2539  0.4926
  186MOL0     H25051   1.123   4.585  11.088  1.1144  1.3295  0.0259
  186MOL0     H25052   1.148   4.497  11.252  3.0072 -2.1351  2.2543
  186MOL0     H25053   1.393   4.547  11.196  0.1065  1.3350  0.1847
  186MOL0     H25054   1.342   4.624  11.049 -0.3130  1.7613  0.6956
  186MOL0     H25055   1.267   4.721  11.343  1.3019  0.6215  0.1534
  186MOL0     H25056   1.399   4.776  11.246 -0.1936 -0.1951 -0.0442
  186MOL0     H25057   1.219   4.930  11.179 -0.0171  1.1423 -0.6010
  186MOL0     H25058   1.174   4.797  11.064  0.0592 -0.1995  0.4738
  186MOL0     H25059   1.076   4.828  11.359 -3.4019 -0.6738  0.6616
  186MOL0     H25060   1.014   4.716  11.244 -0.3738 -0.0470  0.7620
  186MOL0     H25061   1.031   4.994  11.021 -0.2371  1.6790 -1.0846
  186MOL0     H25062   0.696   5.105  10.930  1.7597 -1.5306 -2.0314
  186MOL0     H25063   0.798   5.231  11.021  0.2265  1.1937 -0.9765
  186MOL0     H25064   0.989   5.128  10.879 -0.0500 -1.8589 -3.2762
  186MOL0     H25065   0.868   5.231  10.809  2.2866  1.6711  0.7325
  186MOL0     H25066   0.888   4.927  10.801 -3.2156  0.0244  1.0498
  186MOL0     H25067   0.937   5.052  10.675  1.3730  1.0492  1.4407
  186MOL0     H25068   0.653   4.963  10.766  0.4161 -0.0848  1.8092
  186MOL0     H25069   0.748   4.916  10.618  0.8564 -0.7924  1.6043
  186MOL0     H25070   0.525   4.878  10.595 -1.7524 -1.1191 -1.5368
  186MOL0     H25071   0.325   4.750  10.431 -0.1032 -1.7322  2.2271
  186MOL0     H25072   0.344   4.769  10.606  3.1625  3.0665  1.3513
  186MOL0     H25073   0.193   4.818  10.504  0.6582 -0.3865  0.3391
  186MOL0     H25074  -0.134   5.283  10.490  0.7357  0.3849 -0.7684
  186MOL0     H25075  -0.364   5.277  10.417 -1.9301 -3.7812  0.7527
  186MOL0     H25076  -0.617   5.039  10.290 -3.6255  2.4183  0.0324
  186MOL0     H25077  -0.525   5.128  10.414 -0.7079  0.4750  0.6668
  186MOL0     H25078  -0.734   5.230  10.360 -0.2544 -2.8510 -0.7224
  186MOL0     H25079  -0.604   5.342  10.316 -2.7163  0.9307 -0.9297
  186MOL0     H25080  -0.758   5.165  10.118 -1.5479  2.8123 -3.9083
  186MOL0     H25081  -0.612   5.247  10.081  0.4907 -2.5321 -0.5783
  186MOL0     H25082  -0.852   5.396  10.204  0.3151 -0.9276  1.0426
  186MOL0     H25083  -0.704   5.461  10.123 -2.0466 -0.1272  1.2967
  186MOL0     H25084  -0.756   5.320   9.920 -0.9365  1.3205 -3.4803
  186MOL0     H25085  -0.842   5.470   9.947  2.5398 -0.1736  1.4921
  186MOL0     H25086  -0.989   5.257   9.890 -3.1068 -1.0470  2.3278
  186MOL0     H25087  -0.944   5.200  10.040  2.1968  2.0922  1.9686
  186MOL0     H25088  -1.061   5.406  10.156 -3.3839  0.4365  0.1100
  186MOL0     H25089  -1.164   5.311  10.048 -1.6672  3.8690 -3.9507
  186MOL0     H25090  -1.098   5.474   9.871 -1.2050 -0.5916  0.1960
  186MOL0     H25091  -1.041   5.564  10.013 -0.7767  0.2370  0.0302
  186MOL0     H25092  -0.235   5.035  10.085 -1.3528 -0.0992  0.6220
  186MOL0     H25093  -0.010   5.049  10.142  1.5917  1.1797 -0.1162
  186MOL0     H25094   0.293   5.276  10.421 -1.4085 -2.1724 -3.1778
  186MOL0     H25095   0.527   5.304  10.519  0.5560 -0.3202  0.1327
  186MOL0     H25096   0.760   4.080  10.792 -1.9752  0.1988 -1.2183
  186MOL0     H25097   0.516   4.049  10.837 -1.9916  0.3478  1.2861
  186MOL0     H25098   0.073   4.201  10.906 -1.2940  1.7904  1.0533
  186MOL0     H25099  -0.156   4.122  10.940  1.0243  2.0408  0.1511
  186MOL0     H25100  -0.265   4.224  11.150 -0.6080 -0.0854  0.5301
  186MOL0     H25101  -0.399   4.117  11.122  0.5231 -1.2155 -0.5427
  186MOL0     H25102  -0.279   4.186  11.393 -0.0802  0.9370 -0.2108
  186MOL0     H25103  -0.391   4.047  11.356 -1.7200 -1.1601 -3.1535
  186MOL0     H25104  -0.531   4.232  11.231  1.4057  1.7409 -1.5301
  186MOL0     H25105  -0.427   4.349  11.305 -0.2520 -0.2078  0.6108
  186MOL0     H25106  -0.501   4.282  11.530  0.2073  2.8592 -1.7209
  186MOL0     H25107  -0.607   4.154  11.451  0.1098 -0.3718 -0.4576
  186MOL0     H25108  -0.847   4.486  11.406  0.5293  0.8060  1.0801
  186MOL0     H25109  -0.008   3.934  11.307  2.2379  1.8954  1.3420
  186MOL0     H25110   0.219   3.961  11.217  1.2631  0.2098 -1.3358
  187MOL0     O25111  10.346   2.152   0.962  0.4797  0.0890  0.0199
  187MOL0     C25112  10.375   2.156   1.076  0.2976 -0.5120 -0.5969
  187MOL0     O25113  10.286   2.190   1.170  0.1870 -0.2771  0.4471
  187MOL0     C25114  10.153   2.186   1.133 -0.0788  0.2203  0.3483
  187MOL0     C25115  10.085   2.302   1.094  0.0102  0.1581  0.0359
  187MOL0     C25116   9.947   2.294   1.055 -0.0450  0.8313 -0.3863
  187MOL0     C25117   9.887   2.175   1.047 -0.2692 -0.1518  0.9293
  187MOL0     O25118   9.759   2.150   0.996 -0.3202  0.7933 -0.1513
  187MOL0     C25119   9.662   2.247   0.972  0.9104  1.3062  0.1840
  187MOL0     C25120   9.544   2.166   0.913 -0.0409  0.3193  0.1834
  187MOL0     C25121   9.418   2.240   0.863 -0.8164 -0.5514 -0.3334
  187MOL0     C25122   9.326   2.145   0.796 -0.9511  0.3602  0.2250
  187MOL0     C25123   9.262   2.050   0.894 -0.4149 -0.0227  0.6291
  187MOL0     C25124   9.173   1.946   0.821  0.4052  0.6031 -0.2018
  187MOL0     C25125   9.111   1.839   0.917 -0.3772 -0.7857  0.5553
  187MOL0     C25126   9.013   1.890   1.025 -0.7936 -0.2967  0.0773
  187MOL0     N25127   8.884   1.939   0.974 -0.1857  0.6100 -0.8763
  187MOL0     C25128   8.800   2.014   1.043 -0.1013  0.1492 -0.2425
  187MOL0     C25129   8.689   2.016   0.972  0.1630 -0.2965 -0.8289
  187MOL0     C25130   8.564   2.100   1.007 -1.1265  0.2932 -0.1224
  187MOL0     C25131   8.570   2.258   0.989  0.7218 -0.3934  0.0587
  187MOL0     C25132   8.420   2.314   1.016 -0.7702 -0.2602  0.4301
  187MOL0     C25133   8.411   2.444   0.946  0.1356  0.3907  0.1733
  187MOL0     O25134   8.528   2.527   0.962 -0.3271 -0.1553  0.1090
  187MOL0     C25135   8.565   2.583   1.086 -0.4501  0.0272  0.5115
  187MOL0     C25136   8.672   2.671   1.074  0.2564 -0.4722 -0.5342
  187MOL0     C25137   8.710   2.742   1.189  0.2467  0.2663 -0.3288
  187MOL0     C25138   8.844   2.802   1.181 -1.0816 -0.3932 -0.0319
  187MOL0     C25139   8.644   2.731   1.313  0.5248 -1.0868  0.4731
  187MOL0     C25140   8.693   2.800   1.443  0.3020  0.5220  0.0739
  187MOL0     O25141   8.634   2.748   1.556  0.6141  0.2024  0.5660
  187MOL0     C25142   8.684   2.775   1.682 -0.7886 -0.3881 -0.3201
  187MOL0     C25143   8.661   2.908   1.727 -0.1425  0.3091 -0.7302
  187MOL0     C25144   8.680   2.932   1.862  1.0768 -0.1323 -0.0925
  187MOL0     C25145   8.689   2.830   1.957  0.1913  0.8086  1.1213
  187MOL0     O25146   8.700   2.847   2.092  0.1674  0.2195 -0.3568
  187MOL0     C25147   8.734   2.978   2.124  0.0754 -0.8431 -0.6626
  187MOL0     C25148   8.772   3.010   2.266  0.1386 -0.4363 -0.7368
  187MOL0     C25149   8.667   2.956   2.367 -0.0283 -1.1384 -0.2546
  187MOL0     C25150   8.515   2.994   2.328 -0.5927 -0.2520  0.2666
  187MOL0     C25151   8.421   2.952   2.443 -0.1210  0.4221  0.5685
  187MOL0     C25152   8.426   2.803   2.498 -0.1255 -0.1806  0.6675
  187MOL0     C25153   8.290   2.760   2.552 -0.0954  0.2765  0.5074
  187MOL0     C25154   8.275   2.811   2.698  1.0081  0.1023 -0.3767
  187MOL0    Cl25155   8.153   2.718   2.784 -0.4692  0.3843 -0.1981
  187MOL0     C25156   8.717   2.702   1.906  0.1437 -0.2720 -0.3876
  187MOL0     C25157   8.716   2.669   1.772  0.4714  0.0289 -0.0168
  187MOL0     O25158   8.765   2.898   1.442  0.4472  0.0788  0.9550
  187MOL0     C25159   8.523   2.652   1.315  0.2972  0.3488 -0.2518
  187MOL0     C25160   8.481   2.573   1.203  0.1443 -0.1030 -0.0975
  187MOL0     N25161   8.709   1.941   0.861  0.2230 -0.3978 -0.5404
  187MOL0     N25162   8.829   1.893   0.863  0.0714 -0.6073  0.5231
  187MOL0     C25163   9.949   2.059   1.077 -0.6669 -0.4157 -0.8951
  187MOL0     C25164  10.083   2.063   1.124  0.1414 -0.0193  0.8004
  187MOL0     C25165  10.519   2.123   1.127 -0.7666 -0.0414  0.1255
  187MOL0     C25166  10.590   2.193   1.234  0.6852 -0.1818  0.1469
  187MOL0     C25167  10.721   2.169   1.268 -0.3583  0.0296  0.1171
  187MOL0     C25168  10.788   2.066   1.196 -0.1249  0.3647 -0.4254
  187MOL0     O25169  10.921   2.048   1.244  0.5284 -0.1081 -0.8512
  187MOL0     C25170  11.000   1.946   1.183  0.8353  0.4762  0.2935
  187MOL0     C25171  11.070   1.997   1.056 -0.8209  0.0205 -0.1328
  187MOL0     C25172  11.181   2.102   1.100  0.0996  0.2133  0.2173
  187MOL0     C25173  11.325   2.061   1.059 -0.1746  0.0262  0.3164
  187MOL0     C25174  11.354   1.922   1.081 -0.6306 -0.2660 -0.4563
  187MOL0     C25175  11.368   1.801   1.104 -0.0958  0.1324  0.3159
  187MOL0     C25176  10.727   2.002   1.089  0.0415 -0.1490 -0.5815
  187MOL0     C25177  10.596   2.040   1.044  0.3177  0.2011  0.4217
  187MOL0     H25178  10.133   2.399   1.079  1.6355 -0.6758 -0.3810
  187MOL0     H25179   9.887   2.374   1.012  1.9274  4.0188  2.2425
  187MOL0     H25180   9.621   2.285   1.066 -2.9071  0.0569 -0.8226
  187MOL0     H25181   9.698   2.322   0.901 -0.7403  1.3895 -0.6103
  187MOL0     H25182   9.592   2.114   0.830  1.3659  1.2432  0.3910
  187MOL0     H25183   9.522   2.093   0.992  2.3730 -0.3176  0.3331
  187MOL0     H25184   9.369   2.288   0.948 -0.9199 -1.0173 -0.1240
  187MOL0     H25185   9.452   2.314   0.791 -0.2808  0.1059  0.5809
  187MOL0     H25186   9.254   2.198   0.733  0.1291  2.5171  0.7142
  187MOL0     H25187   9.397   2.090   0.734  0.7663  0.7224  1.7864
  187MOL0     H25188   9.331   1.994   0.957 -0.4918 -2.8403 -1.6070
  187MOL0     H25189   9.200   2.115   0.958  0.7692  2.8561 -0.9408
  187MOL0     H25190   9.089   1.991   0.768  0.1352  1.1151  0.6317
  187MOL0     H25191   9.243   1.902   0.749  1.1561  2.7682 -0.8869
  187MOL0     H25192   9.066   1.757   0.860  0.8963 -1.3564  0.3499
  187MOL0     H25193   9.190   1.790   0.974 -0.1957 -1.2496 -0.0876
  187MOL0     H25194   9.063   1.972   1.078 -0.1303 -0.0585 -0.8801
  187MOL0     H25195   8.985   1.806   1.089 -1.6091 -1.4777 -1.7531
  187MOL0     H25196   8.823   2.049   1.143  2.3888  0.8186 -0.9683
  187MOL0     H25197   8.473   2.060   0.961 -1.8485  0.6967  0.9071
  187MOL0     H25198   8.541   2.086   1.113 -0.5690 -0.3161 -0.0789
  187MOL0     H25199   8.610   2.280   0.890  2.8668 -1.9489  0.4958
  187MOL0     H25200   8.627   2.308   1.068 -2.5511  1.8909  1.1540
  187MOL0     H25201   8.395   2.336   1.120  2.8111  1.7826  1.0082
  187MOL0     H25202   8.341   2.251   0.975 -2.4422  1.9088  0.1276
  187MOL0     H25203   8.322   2.501   0.974  0.7936  1.7287 -0.3771
  187MOL0     H25204   8.403   2.432   0.838 -1.5125  0.4089  0.2610
  187MOL0     H25205   8.719   2.669   0.976 -2.6222 -0.4944 -2.0333
  187MOL0     H25206   8.840   2.909   1.202  0.7135 -0.6948  2.2692
  187MOL0     H25207   8.910   2.770   1.262  0.4562  3.7223  0.5627
  187MOL0     H25208   8.893   2.794   1.083 -0.8263 -0.1822  0.0770
  187MOL0     H25209   8.611   2.981   1.664 -3.4039 -0.3353  0.9166
  187MOL0     H25210   8.664   3.036   1.886  0.0182 -0.1086 -0.8414
  187MOL0     H25211   8.813   3.017   2.060 -0.3997  0.9378 -0.2027
  187MOL0     H25212   8.648   3.042   2.102  0.7488  0.4843  0.4031
  187MOL0     H25213   8.872   2.976   2.294 -1.1054 -2.7150  1.3536
  187MOL0     H25214   8.762   3.118   2.277 -0.6575 -0.4512 -1.2201
  187MOL0     H25215   8.690   2.997   2.465  0.5649  0.0402 -0.8663
  187MOL0     H25216   8.680   2.847   2.362 -0.7219 -1.2892  0.9236
  187MOL0     H25217   8.508   3.102   2.311 -3.1469 -0.6790 -2.0518
  187MOL0     H25218   8.488   2.944   2.235  0.0007  1.9528 -1.1840
  187MOL0     H25219   8.323   2.981   2.404 -0.0746 -2.1517 -1.6982
  187MOL0     H25220   8.454   3.020   2.523 -0.0985  1.4138 -0.2536
  187MOL0     H25221   8.450   2.733   2.418  1.8384  0.9636  0.1986
  187MOL0     H25222   8.515   2.784   2.559  0.6010 -2.2962 -0.9106
  187MOL0     H25223   8.288   2.651   2.546  0.1909  0.2955 -0.0973
  187MOL0     H25224   8.202   2.797   2.499 -0.9737  0.5044  2.0722
  187MOL0     H25225   8.235   2.911   2.676  3.3283  0.8599 -1.4288
  187MOL0     H25226   8.369   2.842   2.743  1.9375 -1.0458 -1.4580
  187MOL0     H25227   8.717   2.621   1.978  2.2444 -3.6833 -3.8341
  187MOL0     H25228   8.719   2.566   1.738 -0.6766 -0.4545  1.2245
  187MOL0     H25229   8.476   2.621   1.408  0.6388 -0.1494 -0.2440
  187MOL0     H25230   8.390   2.515   1.219  1.2100 -1.6049  0.7330
  187MOL0     H25231   9.889   1.968   1.068 -3.3704  1.1062  0.5522
  187MOL0     H25232  10.129   1.966   1.139  1.9021  0.8857  1.5811
  187MOL0     H25233  10.542   2.277   1.284  0.9255 -0.3204  0.6202
  187MOL0     H25234  10.762   2.224   1.352 -0.1932 -0.7345  0.5470
  187MOL0     H25235  11.076   1.921   1.258  2.7379  0.2289 -1.6349
  187MOL0     H25236  10.940   1.858   1.159 -1.1304  1.5182  1.1748
  187MOL0     H25237  11.000   2.052   0.992 -1.3826 -0.0887  0.3770
  187MOL0     H25238  11.099   1.904   1.007 -0.8506  1.4519 -3.1248
  187MOL0     H25239  11.186   2.113   1.209  3.9960 -0.2862  0.2182
  187MOL0     H25240  11.168   2.198   1.050  4.2236  1.6379  1.4654
  187MOL0     H25241  11.399   2.106   1.125  2.1205 -2.0786 -0.6582
  187MOL0     H25242  11.358   2.094   0.960  1.7373 -0.1249  0.8626
  187MOL0     H25243  11.411   1.703   1.112  1.1370  0.6407  0.1615
  187MOL0     H25244  10.769   1.918   1.034 -0.6428 -0.8353 -0.0887
  187MOL0     H25245  10.570   1.999   0.947 -2.6488 -1.8215  1.9316
  188MOL0     O25246   0.632   9.437   3.858 -0.1107 -0.4678  0.5929
  188MOL0     C25247   0.563   9.375   3.938 -0.5037  0.2000  0.4425
  188MOL0     O25248   0.440   9.326   3.917 -0.1060 -0.2311  0.1840
  188MOL0     C25249   0.360   9.381   3.816 -0.2043  0.6187  0.1279
  188MOL0     C25250   0.360   9.512   3.773 -0.4238  0.6422 -0.3047
  188MOL0     C25251   0.255   9.564   3.689 -0.3896  1.5495 -0.0852
  188MOL0     C25252   0.150   9.484   3.648 -0.2406  0.6425  1.0479
  188MOL0     O25253   0.062   9.524   3.545 -0.0995  0.3200  0.2198
  188MOL0     C25254  -0.019   9.630   3.595  0.4246 -0.7463  0.0216
  188MOL0     C25255  -0.119   9.686   3.488  0.8227 -0.5505  1.2195
  188MOL0     C25256  -0.219   9.791   3.550  0.0645  0.4701  0.6499
  188MOL0     C25257  -0.354   9.718   3.575  0.4393 -0.2542  0.0106
  188MOL0     C25258  -0.421   9.783   3.693 -0.1748 -0.6638 -1.4569
  188MOL0     C25259  -0.565   9.750   3.708 -0.4251 -1.2581 -0.0374
  188MOL0     C25260  -0.611   9.604   3.750 -0.4227 -0.7366  0.3424
  188MOL0     C25261  -0.625   9.587   3.907  0.6559 -0.4249 -0.0408
  188MOL0     N25262  -0.758   9.641   3.950 -0.3706 -0.4962  0.3568
  188MOL0     C25263  -0.864   9.560   3.974 -0.4139 -0.4541  0.0186
  188MOL0     C25264  -0.966   9.647   3.985 -0.0700 -0.3623 -0.8976
  188MOL0     C25265  -1.114   9.610   4.015 -0.3140  0.2386  0.7437
  188MOL0     C25266  -1.133   9.615   4.166  0.7819 -0.5311 -0.5981
  188MOL0     C25267  -1.140   9.760   4.227  0.8436  0.1496  0.1383
  188MOL0     C25268  -1.195   9.763   4.370 -0.3753  0.1183  0.5049
  188MOL0     O25269  -1.172   9.905   4.410  0.9512  0.1938 -0.0553
  188MOL0     C25270  -1.282   9.996   4.402 -0.7290  0.7968  0.6773
  188MOL0     C25271  -1.278  10.118   4.469 -0.2883 -0.0011 -0.5746
  188MOL0     C25272  -1.368  10.225   4.437  0.0742 -0.1763 -0.5085
  188MOL0     C25273  -1.362  10.346   4.528 -0.2528  0.4392  0.7216
  188MOL0     C25274  -1.478  10.198   4.345  0.2125  0.2046 -0.4767
  188MOL0     C25275  -1.583  10.293   4.303 -0.6366 -0.1881 -0.3310
  188MOL0     O25276  -1.648  10.262   4.185  0.1636 -0.5287 -0.8886
  188MOL0     C25277  -1.773  10.316   4.155  0.5518  0.0198  0.0133
  188MOL0     C25278  -1.779  10.418   4.064 -0.0090  0.0085  0.5044
  188MOL0     C25279  -1.900  10.472   4.023  1.2818 -0.0994  0.5702
  188MOL0     C25280  -2.021  10.442   4.098  0.7576 -0.3303  0.2913
  188MOL0     O25281  -2.150  10.476   4.065 -0.3299 -0.6321  0.3846
  188MOL0     C25282  -2.157  10.587   3.978  0.1107  1.0751 -0.3418
  188MOL0     C25283  -2.307  10.613   3.951  0.2614  0.1064 -0.3691
  188MOL0     C25284  -2.373  10.650   4.083  0.2665  0.2923 -0.2621
  188MOL0     C25285  -2.523  10.650   4.082 -0.4240 -0.3379 -0.8263
  188MOL0     C25286  -2.594  10.629   4.219 -0.3673 -0.9092 -0.8849
  188MOL0     C25287  -2.742  10.672   4.222 -0.4144  0.0790 -1.1398
  188MOL0     C25288  -2.750  10.818   4.237 -0.2343 -0.6043  0.6030
  188MOL0     C25289  -2.895  10.861   4.259  0.1461 -0.2735  0.0013
  188MOL0    Cl25290  -2.988  10.806   4.116  0.0471 -0.0733  0.1811
  188MOL0     C25291  -2.007  10.347   4.205 -1.1840  0.8608  0.5207
  188MOL0     C25292  -1.880  10.284   4.233  0.1837 -0.0228 -0.9452
  188MOL0     O25293  -1.616  10.379   4.381  0.2505 -0.3007  0.8419
  188MOL0     C25294  -1.476  10.072   4.278  0.1227 -0.4661 -0.4345
  188MOL0     C25295  -1.388   9.973   4.315  1.3594  0.6067 -0.3182
  188MOL0     N25296  -0.924   9.778   3.950  0.4946 -0.0812 -0.8004
  188MOL0     N25297  -0.796   9.766   3.919 -0.3818 -0.0602  0.4145
  188MOL0     C25298   0.150   9.349   3.680  0.3060  0.2297 -0.5453
  188MOL0     C25299   0.250   9.306   3.767 -0.3798  0.3796 -0.5087
  188MOL0     C25300   0.626   9.348   4.070  0.7370 -0.6332 -0.6669
  188MOL0     C25301   0.545   9.286   4.169 -0.1550  0.3260 -0.4464
  188MOL0     C25302   0.596   9.267   4.297  0.2014  1.2354  0.3177
  188MOL0     C25303   0.728   9.313   4.327  0.3723 -0.6219 -1.0244
  188MOL0     O25304   0.787   9.314   4.459 -0.3141 -0.1064 -0.8110
  188MOL0     C25305   0.717   9.253   4.572 -0.0809 -0.9293  0.2161
  188MOL0     C25306   0.816   9.241   4.683 -0.3131  0.1159 -0.3463
  188MOL0     C25307   0.822   9.368   4.761 -0.9383 -0.2566  0.6259
  188MOL0     C25308   0.872   9.333   4.904  0.0721  0.1414 -0.7014
  188MOL0     C25309   0.871   9.449   4.992  0.2863 -0.8690  0.3064
  188MOL0     C25310   0.885   9.538   5.076  0.6034  1.5157  0.1591
  188MOL0     C25311   0.804   9.383   4.230 -0.2523 -0.3684 -0.0046
  188MOL0     C25312   0.753   9.390   4.101 -0.1733 -0.7992  0.6090
  188MOL0     H25313   0.431   9.589   3.802  1.8855 -0.7779 -1.7944
  188MOL0     H25314   0.261   9.667   3.654  0.8723  2.4296  2.4450
  188MOL0     H25315  -0.083   9.588   3.673 -2.0974 -0.1855 -1.5987
  188MOL0     H25316   0.053   9.703   3.633  3.2376 -2.8445 -0.9934
  188MOL0     H25317  -0.073   9.754   3.415 -1.1363  0.1230  0.5460
  188MOL0     H25318  -0.172   9.611   3.429 -1.4090  0.7609  1.4162
  188MOL0     H25319  -0.198   9.850   3.639 -1.7672  0.6792  0.9762
  188MOL0     H25320  -0.231   9.871   3.477 -0.4577 -0.3566 -0.1888
  188MOL0     H25321  -0.414   9.726   3.484 -1.7228 -2.0506  1.1984
  188MOL0     H25322  -0.336   9.612   3.592  0.9649 -0.2995 -0.7787
  188MOL0     H25323  -0.376   9.743   3.784 -2.6004 -0.6308 -0.1492
  188MOL0     H25324  -0.405   9.891   3.693 -2.6441 -0.2185  0.2827
  188MOL0     H25325  -0.603   9.819   3.784  2.2172 -0.9248  1.0940
  188MOL0     H25326  -0.596   9.772   3.606  1.4709 -2.4588 -0.9265
  188MOL0     H25327  -0.703   9.586   3.693  0.0115  0.7810 -0.9060
  188MOL0     H25328  -0.533   9.539   3.708 -0.9477 -2.2829  1.6669
  188MOL0     H25329  -0.553   9.647   3.962 -2.7408  3.4849  0.6251
  188MOL0     H25330  -0.614   9.482   3.938 -0.3548 -1.2390 -2.2025
  188MOL0     H25331  -0.868   9.452   3.971 -5.1697 -0.6682 -6.0371
  188MOL0     H25332  -1.173   9.693   3.973 -1.0289 -1.4201 -1.7390
  188MOL0     H25333  -1.138   9.519   3.960  1.4465  0.0640  0.2184
  188MOL0     H25334  -1.057   9.559   4.221 -0.3294  0.0972  1.7039
  188MOL0     H25335  -1.231   9.569   4.183 -0.1771  1.7105  0.4020
  188MOL0     H25336  -1.194   9.823   4.156 -0.6589  0.6278  1.6553
  188MOL0     H25337  -1.037   9.796   4.220  0.7604  0.3471 -0.1238
  188MOL0     H25338  -1.142   9.688   4.429  0.7070 -1.4071 -2.1908
  188MOL0     H25339  -1.301   9.735   4.374  0.3172 -3.0326 -0.2127
  188MOL0     H25340  -1.198  10.127   4.542  1.4750  0.5576 -2.4961
  188MOL0     H25341  -1.389  10.437   4.473  0.7061 -0.1071 -0.6989
  188MOL0     H25342  -1.431  10.320   4.608 -1.3387  0.2621 -0.2438
  188MOL0     H25343  -1.262  10.348   4.571  0.8089 -3.1143 -1.1757
  188MOL0     H25344  -1.690  10.448   4.010 -0.6553 -2.4552 -2.1660
  188MOL0     H25345  -1.905  10.544   3.942 -1.7150 -0.4920  0.2801
  188MOL0     H25346  -2.102  10.674   4.016 -1.2647  1.8361  0.0025
  188MOL0     H25347  -2.108  10.548   3.889  1.2192 -0.9839  1.1051
  188MOL0     H25348  -2.316  10.688   3.873  0.8523  1.2459  0.6235
  188MOL0     H25349  -2.350  10.516   3.922 -0.3974 -0.1654  1.3984
  188MOL0     H25350  -2.346  10.747   4.125 -0.5501 -0.6811  2.8205
  188MOL0     H25351  -2.360  10.584   4.170  2.2867  1.7077  0.5927
  188MOL0     H25352  -2.551  10.750   4.045  1.6411 -0.0773 -1.8030
  188MOL0     H25353  -2.566  10.580   4.009 -1.7446 -0.9561  0.5037
  188MOL0     H25354  -2.546  10.687   4.298 -3.0449  0.8101 -0.4026
  188MOL0     H25355  -2.592  10.522   4.242  1.8544 -0.9447 -1.0362
  188MOL0     H25356  -2.787  10.639   4.128  0.2638  1.3205 -1.9325
  188MOL0     H25357  -2.783  10.615   4.306 -1.1487  0.2019 -1.4081
  188MOL0     H25358  -2.724  10.858   4.138 -3.9954  2.3565  0.5745
  188MOL0     H25359  -2.682  10.857   4.313  0.1713  1.8107 -0.8678
  188MOL0     H25360  -2.903  10.970   4.268  2.7300  0.1116 -1.4857
  188MOL0     H25361  -2.931  10.819   4.353 -0.9093  0.8041  0.1079
  188MOL0     H25362  -2.094  10.316   4.263 -0.6691 -0.3628  0.6687
  188MOL0     H25363  -1.874  10.199   4.300 -0.6425  0.2477 -0.5176
  188MOL0     H25364  -1.532  10.050   4.188  1.6775 -0.5254 -1.4207
  188MOL0     H25365  -1.383   9.888   4.246  0.2732 -0.0349  0.3593
  188MOL0     H25366   0.077   9.280   3.638  0.7684  1.0313 -2.7710
  188MOL0     H25367   0.242   9.201   3.795 -4.0590  0.0193 -2.3666
  188MOL0     H25368   0.438   9.271   4.153 -0.1837  1.2540 -1.2704
  188MOL0     H25369   0.537   9.228   4.379  0.2633 -1.7146 -0.9401
  188MOL0     H25370   0.634   9.319   4.598 -0.0613 -0.5148 -0.7309
  188MOL0     H25371   0.678   9.154   4.546  2.2195 -1.9771  0.4898
  188MOL0     H25372   0.916   9.217   4.647 -0.5023  0.2475 -0.9816
  188MOL0     H25373   0.779   9.162   4.749 -0.7639  0.7241  0.1405
  188MOL0     H25374   0.723   9.413   4.764 -0.5966  0.6291 -0.6258
  188MOL0     H25375   0.895   9.435   4.715 -0.9328 -0.0670  0.9062
  188MOL0     H25376   0.976   9.299   4.900 -0.0650 -0.1834 -2.4866
  188MOL0     H25377   0.820   9.251   4.955 -4.2876  3.6654  1.2184
  188MOL0     H25378   0.897   9.617   5.148 -1.4569  0.6858  1.5027
  188MOL0     H25379   0.902   9.429   4.242 -0.4849  0.0884  0.1953
  188MOL0     H25380   0.809   9.437   4.021  1.2257 -1.8832  0.9033
  189MOL0     O25381   6.813   2.907   1.818  0.1788  0.2040  0.0573
  189MOL0     C25382   6.906   2.968   1.764 -0.4920 -0.9561  0.6046
  189MOL0     O25383   6.918   3.102   1.755 -0.0342  0.2506 -0.2627
  189MOL0     C25384   6.798   3.163   1.784 -0.6779 -0.0326 -0.9805
  189MOL0     C25385   6.753   3.198   1.917  0.5261  0.3662  0.0313
  189MOL0     C25386   6.639   3.281   1.944 -0.0410  0.6065  0.4054
  189MOL0     C25387   6.568   3.322   1.830 -0.2788  0.0113  0.3806
  189MOL0     O25388   6.448   3.392   1.854  0.4194  0.7772 -0.3146
  189MOL0     C25389   6.366   3.347   1.960  0.4106  0.2034  0.2087
  189MOL0     C25390   6.220   3.363   1.921 -0.5723 -0.3126 -0.1216
  189MOL0     C25391   6.178   3.503   1.952  0.1862 -0.4628  0.0381
  189MOL0     C25392   6.024   3.518   1.945  0.6026  0.2864  0.5687
  189MOL0     C25393   5.964   3.492   1.797 -0.4143  0.0421 -0.8837
  189MOL0     C25394   5.809   3.502   1.820  0.3452  0.3221  0.3626
  189MOL0     C25395   5.740   3.457   1.696 -0.0568 -0.3586  1.7064
  189MOL0     C25396   5.756   3.543   1.563 -0.5629 -0.3288 -0.0878
  189MOL0     N25397   5.617   3.575   1.512 -0.3797 -1.1574 -0.1870
  189MOL0     C25398   5.513   3.486   1.488 -0.0780 -0.5858 -0.8360
  189MOL0     C25399   5.416   3.576   1.457  1.2769 -0.9681 -0.6424
  189MOL0     C25400   5.277   3.519   1.437 -0.3992 -0.4576  0.1867
  189MOL0     C25401   5.224   3.558   1.303 -0.0762  0.6579  0.5153
  189MOL0     C25402   5.126   3.457   1.237  0.2815  0.1573  0.6611
  189MOL0     C25403   5.016   3.531   1.164  0.3854 -0.2001  0.2965
  189MOL0     O25404   5.070   3.624   1.073 -0.1391 -0.1745  0.7738
  189MOL0     C25405   5.136   3.574   0.959  0.1424 -0.1020 -0.9994
  189MOL0     C25406   5.258   3.635   0.907  0.3626 -0.7043  0.4817
  189MOL0     C25407   5.330   3.581   0.803  0.1386  0.4168 -1.3335
  189MOL0     C25408   5.474   3.635   0.772 -0.3445 -0.9669  0.0418
  189MOL0     C25409   5.287   3.459   0.744  0.7836 -0.7416  0.2116
  189MOL0     C25410   5.343   3.410   0.619  0.6011  1.0131 -0.4425
  189MOL0     O25411   5.319   3.277   0.599 -0.7135 -0.3239 -0.9500
  189MOL0     C25412   5.410   3.215   0.516  0.3593  0.4459  0.3095
  189MOL0     C25413   5.361   3.171   0.388  0.0506 -0.4002  0.2148
  189MOL0     C25414   5.455   3.110   0.300 -0.1020 -0.0310 -0.1133
  189MOL0     C25415   5.589   3.082   0.335 -0.6916 -0.6454  0.7943
  189MOL0     O25416   5.679   3.016   0.257 -0.0099 -0.1872  0.2806
  189MOL0     C25417   5.628   2.929   0.146 -0.6696 -0.1100 -0.1946
  189MOL0     C25418   5.735   2.855   0.071  0.8590 -0.4213 -0.4168
  189MOL0     C25419   5.837   2.951   0.012 -0.5285  0.0397 -0.9768
  189MOL0     C25420   5.966   2.882  -0.029  0.0037 -0.0039 -0.1251
  189MOL0     C25421   6.070   2.965  -0.110 -0.4723 -1.3779  0.5662
  189MOL0     C25422   6.140   3.059  -0.016  0.3448 -0.4677 -0.0251
  189MOL0     C25423   6.243   3.153  -0.089 -0.4363 -0.7434 -0.1151
  189MOL0     C25424   6.290   3.260   0.011  0.0621  0.0860 -0.1307
  189MOL0    Cl25425   6.357   3.406  -0.066  0.4466 -0.4876  0.0009
  189MOL0     C25426   5.632   3.124   0.459  0.5904  0.2920  0.5784
  189MOL0     C25427   5.543   3.186   0.551  0.2777  0.0476  0.6300
  189MOL0     O25428   5.409   3.474   0.546 -0.0950  0.4401  0.1669
  189MOL0     C25429   5.184   3.396   0.809  0.5436 -0.7142 -0.7823
  189MOL0     C25430   5.113   3.446   0.910  0.3200 -0.0930 -0.9445
  189MOL0     N25431   5.458   3.708   1.453 -0.2737 -0.0685 -0.1514
  189MOL0     N25432   5.576   3.704   1.494 -0.0843 -0.2434 -0.5129
  189MOL0     C25433   6.617   3.303   1.702  0.5079  1.0155  0.7613
  189MOL0     C25434   6.731   3.223   1.673 -0.1312 -0.0756 -0.5088
  189MOL0     C25435   7.026   2.885   1.722 -0.3812  0.6035 -0.2030
  189MOL0     C25436   7.018   2.743   1.716  0.5124 -0.1453  1.1329
  189MOL0     C25437   7.132   2.662   1.700 -0.0758 -0.2655  1.0020
  189MOL0     C25438   7.258   2.717   1.678  0.3080 -0.6303 -0.8089
  189MOL0     O25439   7.381   2.655   1.662 -0.1641 -0.0336 -0.8639
  189MOL0     C25440   7.384   2.539   1.577  0.3725 -0.0205 -0.4265
  189MOL0     C25441   7.497   2.548   1.485 -0.4227 -0.2904  0.2849
  189MOL0     C25442   7.470   2.655   1.369 -0.0011 -0.5155 -0.7143
  189MOL0     C25443   7.591   2.649   1.278 -0.6236  0.0737  0.2178
  189MOL0     C25444   7.704   2.745   1.301  0.7589  0.1975 -0.7067
  189MOL0     C25445   7.805   2.807   1.313 -0.3014  0.4360 -0.9971
  189MOL0     C25446   7.261   2.854   1.694 -0.2426 -0.4851 -0.0367
  189MOL0     C25447   7.148   2.942   1.708  0.2892 -0.8944 -0.1764
  189MOL0     H25448   6.803   3.153   2.002 -1.1159  0.1128  0.8908
  189MOL0     H25449   6.594   3.313   2.037 -2.9253  2.2178 -1.3639
  189MOL0     H25450   6.378   3.238   1.971 -0.7250  0.1605  1.2305
  189MOL0     H25451   6.395   3.392   2.055  1.6651 -0.0368 -0.0416
  189MOL0     H25452   6.217   3.347   1.813 -2.1871 -1.6826  0.0980
  189MOL0     H25453   6.163   3.286   1.974 -1.6309  0.1560 -0.5497
  189MOL0     H25454   6.206   3.523   2.056 -1.6315 -1.5631  0.7763
  189MOL0     H25455   6.227   3.573   1.883 -2.6893  2.1384  0.4030
  189MOL0     H25456   5.986   3.444   2.016 -1.3440 -0.0275 -0.7472
  189MOL0     H25457   6.009   3.621   1.977 -1.4791  0.3666 -0.5436
  189MOL0     H25458   6.010   3.572   1.739  1.6570 -0.8393 -0.5501
  189MOL0     H25459   5.992   3.393   1.758  1.1355  0.1887 -0.2038
  189MOL0     H25460   5.768   3.443   1.902 -1.1518  0.2406 -0.4247
  189MOL0     H25461   5.783   3.607   1.836  0.1746  0.5048 -0.9535
  189MOL0     H25462   5.755   3.353   1.665 -0.9585 -0.2180  0.6985
  189MOL0     H25463   5.634   3.455   1.723 -0.5097  1.3117  0.3041
  189MOL0     H25464   5.811   3.494   1.482 -0.4749  0.5466 -0.5758
  189MOL0     H25465   5.815   3.633   1.583 -1.4616  0.5469 -1.2407
  189MOL0     H25466   5.511   3.380   1.510 -0.4457 -0.2954  0.6971
  189MOL0     H25467   5.285   3.410   1.443  0.5992 -0.6188 -2.4722
  189MOL0     H25468   5.205   3.545   1.515  0.9044 -0.4836  1.4404
  189MOL0     H25469   5.312   3.564   1.238  0.0665 -6.4173 -0.8189
  189MOL0     H25470   5.171   3.653   1.305  2.9314  2.4707 -0.4247
  189MOL0     H25471   5.083   3.388   1.309 -0.6240  3.4524  3.5397
  189MOL0     H25472   5.182   3.397   1.164  4.1274  1.4901  2.2262
  189MOL0     H25473   4.942   3.586   1.223  0.6610  0.6593 -0.1307
  189MOL0     H25474   4.956   3.452   1.118 -0.4450  0.6535 -0.1386
  189MOL0     H25475   5.295   3.727   0.951  0.8946  0.1579 -1.6377
  189MOL0     H25476   5.551   3.559   0.786  4.3893  3.5330  1.9982
  189MOL0     H25477   5.482   3.687   0.676 -0.1448  0.7863  0.9634
  189MOL0     H25478   5.505   3.703   0.851 -0.5805  1.0406 -1.5000
  189MOL0     H25479   5.258   3.178   0.354  0.1355  1.2206  0.2200
  189MOL0     H25480   5.419   3.079   0.202  0.1752  0.0935 -0.2550
  189MOL0     H25481   5.561   2.857   0.193 -0.2638 -0.7244 -0.5476
  189MOL0     H25482   5.573   2.992   0.075 -0.2337  1.0606  0.4803
  189MOL0     H25483   5.792   2.784   0.133  2.0975 -0.0853 -1.1309
  189MOL0     H25484   5.673   2.800  -0.001 -1.9803  1.0237  0.7727
  189MOL0     H25485   5.867   3.016   0.095  0.4956 -0.8354 -0.6471
  189MOL0     H25486   5.802   3.021  -0.065  1.0984  0.4847 -1.3435
  189MOL0     H25487   6.005   2.841   0.065 -0.2497 -0.2507 -0.1252
  189MOL0     H25488   5.938   2.800  -0.096  0.1032 -1.8595  1.9740
  189MOL0     H25489   6.034   3.022  -0.196  1.1164 -1.2636 -0.0469
  189MOL0     H25490   6.130   2.883  -0.150 -0.9384 -1.8154  0.7406
  189MOL0     H25491   6.067   3.110   0.048 -1.2239 -1.6797 -0.7788
  189MOL0     H25492   6.198   2.994   0.050  3.6110  0.9950 -1.2606
  189MOL0     H25493   6.190   3.204  -0.170  1.3312  0.2942 -0.6959
  189MOL0     H25494   6.333   3.103  -0.127  0.7648 -0.9329  2.6995
  189MOL0     H25495   6.351   3.210   0.087 -0.3161 -2.2187 -1.2669
  189MOL0     H25496   6.200   3.302   0.056  0.5718  2.1640 -0.9409
  189MOL0     H25497   5.738   3.107   0.478  1.3467 -0.2118 -3.2437
  189MOL0     H25498   5.551   3.224   0.652 -1.2162  0.1100  0.7439
  189MOL0     H25499   5.150   3.300   0.770 -0.1182 -1.6994  1.9726
  189MOL0     H25500   5.033   3.383   0.949 -0.0662  1.8449  1.6145
  189MOL0     H25501   6.563   3.334   1.613  1.7551 -2.5061 -1.4334
  189MOL0     H25502   6.769   3.204   1.573 -0.1557 -3.2480  0.0063
  189MOL0     H25503   6.930   2.680   1.723  0.3870 -0.3044 -1.0898
  189MOL0     H25504   7.113   2.555   1.706  0.1665 -0.4122 -0.4844
  189MOL0     H25505   7.388   2.448   1.638 -2.1056  0.7478  1.0370
  189MOL0     H25506   7.291   2.533   1.520  1.1880 -1.0659 -1.7057
  189MOL0     H25507   7.505   2.454   1.431  1.2434  0.0356 -0.0834
  189MOL0     H25508   7.596   2.564   1.528 -0.1081 -0.7707 -0.2555
  189MOL0     H25509   7.453   2.758   1.402  1.2244 -0.9551  1.4613
  189MOL0     H25510   7.382   2.625   1.312 -1.3970 -0.6538  1.3843
  189MOL0     H25511   7.562   2.664   1.173 -1.6143 -2.0658  0.1440
  189MOL0     H25512   7.628   2.546   1.281 -0.9940 -0.0755 -0.2158
  189MOL0     H25513   7.906   2.842   1.323  0.6099 -2.3897  0.8102
  189MOL0     H25514   7.357   2.903   1.686  1.0021 -2.7774 -0.1055
  189MOL0     H25515   7.161   3.050   1.714  1.7810 -0.8463 -2.8190
  190MOL0     O25516  10.230   4.152   4.566 -0.2296  0.6453 -0.1172
  190MOL0     C25517  10.204   4.030   4.540  0.1560 -0.1744  0.4441
  190MOL0     O25518  10.091   3.962   4.577 -0.0666 -0.0458  0.2624
  190MOL0     C25519   9.989   4.028   4.647 -0.2079  0.1478 -0.2019
  190MOL0     C25520   9.862   4.036   4.596 -0.0207 -0.4096 -0.6819
  190MOL0     C25521   9.758   4.097   4.658 -0.3435 -0.1501  0.0298
  190MOL0     C25522   9.781   4.155   4.784 -0.6379 -0.2047  0.7485
  190MOL0     O25523   9.695   4.240   4.849  0.9519  0.1355  0.0433
  190MOL0     C25524   9.560   4.273   4.802  0.6358 -0.2098 -0.8325
  190MOL0     C25525   9.491   4.369   4.905  0.5395 -0.4600 -0.2428
  190MOL0     C25526   9.360   4.426   4.856 -0.5015 -0.2679 -0.3875
  190MOL0     C25527   9.275   4.494   4.964  0.3828  0.0145 -0.2791
  190MOL0     C25528   9.148   4.554   4.919 -0.5385 -0.2187  0.1106
  190MOL0     C25529   9.094   4.649   5.027  0.2950  0.5166 -0.6551
  190MOL0     C25530   8.955   4.715   5.006  0.4402 -0.2541 -0.3256
  190MOL0     C25531   8.921   4.823   5.116 -0.7999  0.2157  0.0149
  190MOL0     N25532   8.776   4.837   5.138  0.1359 -0.8659 -0.0676
  190MOL0     C25533   8.687   4.906   5.064  0.4392 -0.5301 -0.5918
  190MOL0     C25534   8.566   4.880   5.123 -0.3382 -0.0349  0.7005
  190MOL0     C25535   8.439   4.949   5.080 -0.1620  0.6013 -0.2591
  190MOL0     C25536   8.343   4.855   5.008  0.0243  0.2945 -0.7831
  190MOL0     C25537   8.204   4.918   4.987  0.7300  0.3056  0.0054
  190MOL0     C25538   8.114   4.807   4.927 -0.4497  0.2452 -0.4102
  190MOL0     O25539   8.064   4.723   5.027 -0.0229 -0.0821 -0.7018
  190MOL0     C25540   8.103   4.590   5.028 -0.2790 -0.8242 -0.2096
  190MOL0     C25541   8.117   4.536   5.157 -0.1787 -0.3416  0.8288
  190MOL0     C25542   8.161   4.404   5.187  1.0854 -0.2155  0.5620
  190MOL0     C25543   8.182   4.371   5.336 -0.3275 -0.2276  0.1575
  190MOL0     C25544   8.194   4.323   5.070  0.5606 -0.3670  0.1016
  190MOL0     C25545   8.258   4.188   5.067  0.0687  0.3857  0.4437
  190MOL0     O25546   8.298   4.142   4.943 -0.2135 -0.2032 -0.0034
  190MOL0     C25547   8.374   4.025   4.926  1.6471  0.8764 -1.3367
  190MOL0     C25548   8.512   4.031   4.939  0.6704 -0.2233  0.0431
  190MOL0     C25549   8.587   3.917   4.905 -0.7003 -0.1495 -0.0095
  190MOL0     C25550   8.529   3.805   4.845 -1.1820  0.2207 -0.4520
  190MOL0     O25551   8.619   3.713   4.809 -0.4717  0.0324  0.9370
  190MOL0     C25552   8.573   3.611   4.719 -1.0009  0.8910  0.9041
  190MOL0     C25553   8.705   3.529   4.679 -0.5714  0.8613 -0.1230
  190MOL0     C25554   8.789   3.622   4.580  0.4696 -0.3416  0.3822
  190MOL0     C25555   8.925   3.567   4.552  0.3467 -0.6632  0.1685
  190MOL0     C25556   8.984   3.632   4.424 -0.1421  0.5078 -0.0568
  190MOL0     C25557   9.117   3.571   4.401 -0.0796 -0.2819  0.3147
  190MOL0     C25558   9.186   3.608   4.270 -0.3996 -1.3197 -0.3824
  190MOL0     C25559   9.319   3.545   4.247  0.1109 -0.7771  0.0449
  190MOL0    Cl25560   9.282   3.369   4.238 -0.0788  0.2622  0.0718
  190MOL0     C25561   8.393   3.798   4.844  0.3533  0.6690 -0.1938
  190MOL0     C25562   8.317   3.903   4.884  0.8741  0.4971 -0.2309
  190MOL0     O25563   8.258   4.126   5.170 -0.1405 -0.0345 -0.6500
  190MOL0     C25564   8.163   4.377   4.938 -0.5277  0.4691 -0.3744
  190MOL0     C25565   8.135   4.511   4.918 -0.9012  0.0618  0.5507
  190MOL0     N25566   8.586   4.792   5.230 -0.0124  0.1240  0.4279
  190MOL0     N25567   8.713   4.768   5.236  0.1861 -0.5945 -0.9172
  190MOL0     C25568   9.909   4.141   4.845  0.1549 -0.1178 -0.7177
  190MOL0     C25569  10.006   4.076   4.775 -0.3974  0.4152 -0.6895
  190MOL0     C25570  10.305   3.962   4.459 -0.5196  0.9260 -0.2146
  190MOL0     C25571  10.289   3.826   4.427 -0.1694  0.3299  1.0048
  190MOL0     C25572  10.387   3.760   4.349  0.9446  0.6426  0.2004
  190MOL0     C25573  10.505   3.816   4.318  0.5443 -0.4029 -0.4038
  190MOL0     O25574  10.593   3.740   4.240 -0.4204 -0.4955  0.7746
  190MOL0     C25575  10.727   3.764   4.261 -0.9196 -0.1160  0.1539
  190MOL0     C25576  10.799   3.625   4.266  0.7409 -0.0203  0.8856
  190MOL0     C25577  10.953   3.638   4.245 -0.4516 -0.7839 -0.2217
  190MOL0     C25578  11.008   3.496   4.249  0.4504  0.3349  0.4501
  190MOL0     C25579  11.144   3.484   4.191 -0.0286 -0.6260 -0.5902
  190MOL0     C25580  11.266   3.498   4.166  0.9768  0.0712  0.3282
  190MOL0     C25581  10.527   3.949   4.358  1.3511 -0.6426  0.9365
  190MOL0     C25582  10.422   4.017   4.408  0.8142  0.2845 -0.5370
  190MOL0     H25583   9.846   3.993   4.498 -1.9978  1.0070 -1.0390
  190MOL0     H25584   9.661   4.086   4.611  0.1732 -1.1334 -0.8387
  190MOL0     H25585   9.570   4.331   4.710  0.9658 -0.4195 -0.9313
  190MOL0     H25586   9.491   4.190   4.784 -1.0153 -0.7137  5.5475
  190MOL0     H25587   9.459   4.308   4.990 -0.4670  1.0178  0.4788
  190MOL0     H25588   9.571   4.440   4.925 -0.1574  0.1681  0.4116
  190MOL0     H25589   9.375   4.499   4.776 -5.6946  1.4319 -0.2149
  190MOL0     H25590   9.310   4.335   4.823  2.4679 -1.7469 -1.1283
  190MOL0     H25591   9.256   4.425   5.047  1.4519  0.7646  0.6182
  190MOL0     H25592   9.341   4.574   4.999  1.2979 -0.8131 -0.0764
  190MOL0     H25593   9.161   4.621   4.833 -2.3527 -2.3100 -1.9258
  190MOL0     H25594   9.071   4.479   4.899  1.4461 -2.1356 -0.6918
  190MOL0     H25595   9.090   4.605   5.127  2.8965  1.1831 -0.1670
  190MOL0     H25596   9.155   4.738   5.041  1.9023 -0.5598 -0.4753
  190MOL0     H25597   8.949   4.766   4.909  0.6849  3.2394  1.3334
  190MOL0     H25598   8.877   4.639   4.999 -1.1395  1.2651 -0.0011
  190MOL0     H25599   8.965   4.917   5.083 -1.9514  0.2921 -1.3723
  190MOL0     H25600   8.966   4.793   5.211  0.4632 -0.7909 -0.8689
  190MOL0     H25601   8.704   4.979   4.986  0.1577  2.4355  1.8982
  190MOL0     H25602   8.391   4.988   5.170  0.5411 -1.9084  1.3132
  190MOL0     H25603   8.466   5.030   5.013 -0.3883 -0.1960 -1.3437
  190MOL0     H25604   8.322   4.788   5.091  1.6378  3.9249  2.9156
  190MOL0     H25605   8.388   4.808   4.920 -0.2914 -0.8318 -0.3619
  190MOL0     H25606   8.217   5.003   4.920  1.9748  0.6862  0.7102
  190MOL0     H25607   8.153   4.935   5.083  1.8180 -0.8230  0.8130
  190MOL0     H25608   8.169   4.763   4.843 -0.4849  1.4768 -1.1057
  190MOL0     H25609   8.027   4.850   4.877 -0.6103  0.7496  0.2873
  190MOL0     H25610   8.074   4.599   5.234 -1.8797 -1.5390  0.9367
  190MOL0     H25611   8.286   4.394   5.363  0.1816 -0.3019 -1.6355
  190MOL0     H25612   8.118   4.430   5.403 -3.0987 -1.4292 -1.2666
  190MOL0     H25613   8.164   4.265   5.354  0.7602 -0.1447  1.9756
  190MOL0     H25614   8.558   4.123   4.974  1.3774  0.0423 -1.4896
  190MOL0     H25615   8.695   3.918   4.918 -0.4577  0.7939 -1.7952
  190MOL0     H25616   8.516   3.539   4.779  0.4823  2.2351  4.1919
  190MOL0     H25617   8.511   3.648   4.638 -0.7036 -0.8974 -0.1864
  190MOL0     H25618   8.752   3.483   4.766 -1.0046 -2.2802 -1.4456
  190MOL0     H25619   8.673   3.443   4.619 -3.2686  2.5428 -1.3311
  190MOL0     H25620   8.784   3.730   4.598 -0.2739  0.3573 -3.2330
  190MOL0     H25621   8.746   3.613   4.479  1.5628  1.3394 -0.2859
  190MOL0     H25622   8.992   3.576   4.638 -2.3215 -1.4557  2.4954
  190MOL0     H25623   8.919   3.459   4.536  1.8920 -0.6696 -0.4530
  190MOL0     H25624   9.009   3.738   4.437  3.5035 -0.1246 -0.7934
  190MOL0     H25625   8.915   3.616   4.341 -2.4449  0.9318  1.6774
  190MOL0     H25626   9.176   3.597   4.489 -1.0608  1.2244  0.5608
  190MOL0     H25627   9.100   3.464   4.415  0.4398 -0.0029  4.4832
  190MOL0     H25628   9.197   3.717   4.264 -1.8902 -1.1894 -1.3312
  190MOL0     H25629   9.123   3.588   4.184 -1.0664 -0.0393 -0.2169
  190MOL0     H25630   9.388   3.574   4.327 -0.3473  2.0922 -0.4983
  190MOL0     H25631   9.368   3.589   4.159  1.8450 -0.0651  1.3099
  190MOL0     H25632   8.347   3.706   4.808 -1.1818  1.0921  0.6285
  190MOL0     H25633   8.209   3.905   4.878  0.8896 -0.4931 -1.1114
  190MOL0     H25634   8.177   4.312   4.852 -0.3683  0.6393 -0.4789
  190MOL0     H25635   8.115   4.549   4.819 -0.3212 -1.9940 -0.3954
  190MOL0     H25636   9.917   4.204   4.933 -0.5284 -1.8666  0.6411
  190MOL0     H25637  10.104   4.066   4.820 -0.7603  1.5945  0.4083
  190MOL0     H25638  10.203   3.770   4.463  0.1703 -1.1751 -0.3774
  190MOL0     H25639  10.380   3.659   4.310 -0.3987  0.6667  0.3268
  190MOL0     H25640  10.769   3.835   4.189  1.8818 -0.7295  1.0766
  190MOL0     H25641  10.751   3.818   4.353 -0.2376  3.0993 -1.7185
  190MOL0     H25642  10.750   3.569   4.186  0.4401  1.2686  0.1366
  190MOL0     H25643  10.769   3.574   4.358  0.2815 -2.9887 -0.7775
  190MOL0     H25644  11.007   3.686   4.327 -1.5857 -1.8638  1.2105
  190MOL0     H25645  10.971   3.690   4.150 -1.9461 -0.9668 -0.6288
  190MOL0     H25646  10.956   3.430   4.179 -0.0558  1.3407 -0.1336
  190MOL0     H25647  11.006   3.456   4.351  0.2315 -2.9130 -0.7217
  190MOL0     H25648  11.369   3.508   4.138  1.4736  0.8399  2.2404
  190MOL0     H25649  10.617   4.005   4.337  0.6834 -0.2182 -1.0380
  190MOL0     H25650  10.430   4.124   4.423 -1.8571  0.6638 -1.2899
  191MOL0     O25651   7.884   7.354   9.180 -0.5318  0.2706  0.1614
  191MOL0     C25652   7.886   7.231   9.201 -0.9045 -0.0710  0.4579
  191MOL0     O25653   7.995   7.152   9.217  0.1604 -0.3552 -0.6422
  191MOL0     C25654   8.121   7.177   9.173  0.4040 -0.1503 -0.2134
  191MOL0     C25655   8.166   7.282   9.102  0.1957 -0.5408  1.1057
  191MOL0     C25656   8.294   7.290   9.048 -0.0218  0.4899  0.3578
  191MOL0     C25657   8.391   7.204   9.094 -0.4900  0.5987 -0.0610
  191MOL0     O25658   8.525   7.219   9.059  0.0152 -0.8496  0.2567
  191MOL0     C25659   8.564   7.348   9.012  0.8227 -0.3408  0.1994
  191MOL0     C25660   8.714   7.352   9.015  0.5771  0.8548 -0.1097
  191MOL0     C25661   8.782   7.469   8.942  0.3769  0.0118 -0.0202
  191MOL0     C25662   8.931   7.456   8.971 -0.0910 -0.2970 -0.2938
  191MOL0     C25663   9.006   7.532   8.874 -0.5417 -0.8428 -0.1584
  191MOL0     C25664   9.153   7.506   8.867 -0.0879 -0.1499 -0.4563
  191MOL0     C25665   9.200   7.390   8.768 -0.2046  0.2224 -0.7192
  191MOL0     C25666   9.229   7.448   8.630  0.7215 -0.5131 -0.8330
  191MOL0     N25667   9.284   7.352   8.535  0.6483 -0.0453  0.3598
  191MOL0     C25668   9.418   7.344   8.491 -0.0910 -0.6631  0.5169
  191MOL0     C25669   9.424   7.237   8.418  0.0621 -0.4079  0.5763
  191MOL0     C25670   9.539   7.205   8.324  0.9840  0.0992 -0.9562
  191MOL0     C25671   9.678   7.243   8.388 -0.0300 -0.8498  0.1688
  191MOL0     C25672   9.799   7.193   8.314 -0.0986  0.1508  0.6768
  191MOL0     C25673   9.928   7.251   8.385  1.0738 -0.2120 -0.2795
  191MOL0     O25674   9.946   7.154   8.493 -0.6861 -0.0184 -0.3474
  191MOL0     C25675  10.061   7.164   8.568  0.3355  1.0746 -0.1983
  191MOL0     C25676  10.154   7.270   8.552  0.0247  0.0982  0.3456
  191MOL0     C25677  10.268   7.278   8.635 -0.0034  0.1342 -0.1310
  191MOL0     C25678  10.356   7.398   8.626  1.0160 -0.5178 -0.9392
  191MOL0     C25679  10.287   7.188   8.736  0.3662  0.2816 -0.2350
  191MOL0     C25680  10.398   7.179   8.832 -0.4060 -0.5526  1.1079
  191MOL0     O25681  10.379   7.087   8.932 -0.2661 -0.6235 -0.7070
  191MOL0     C25682  10.453   7.101   9.045 -1.2089 -0.2770  0.2249
  191MOL0     C25683  10.382   7.112   9.171  0.9238 -0.5828 -0.3861
  191MOL0     C25684  10.457   7.132   9.286 -0.4443  0.1289 -0.4464
  191MOL0     C25685  10.600   7.142   9.287  0.3512  0.1529  0.2046
  191MOL0     O25686  10.683   7.177   9.388 -0.1358 -0.0652 -0.1465
  191MOL0     C25687  10.624   7.182   9.521  0.2867  0.7470 -0.1812
  191MOL0     C25688  10.724   7.167   9.635 -0.1558 -1.3789 -1.2681
  191MOL0     C25689  10.659   7.170   9.776 -0.1335  0.1780 -0.0770
  191MOL0     C25690  10.616   7.299   9.823  0.8545 -0.5676 -0.7811
  191MOL0     C25691  10.555   7.298   9.970  0.4947  0.0091  0.0245
  191MOL0     C25692  10.548   7.451  10.018 -1.0775  0.3556  0.1606
  191MOL0     C25693  10.488   7.467  10.156 -0.0391 -1.0324  0.1259
  191MOL0     C25694  10.354   7.388  10.191 -0.3078  0.0656  0.1617
  191MOL0    Cl25695  10.200   7.442  10.118 -0.2893  0.3508  0.2986
  191MOL0     C25696  10.671   7.120   9.160  1.0448  0.0082 -0.8125
  191MOL0     C25697  10.596   7.104   9.040 -0.7972 -0.0653 -0.3587
  191MOL0     O25698  10.503   7.243   8.811 -0.4964 -0.1725 -0.1306
  191MOL0     C25699  10.189   7.081   8.749  0.1014 -0.3210  0.6871
  191MOL0     C25700  10.078   7.077   8.669  0.6742 -0.7707 -0.0198
  191MOL0     N25701   9.311   7.156   8.431 -0.0244  0.0336 -0.0046
  191MOL0     N25702   9.230   7.233   8.504  1.1524  0.3086  0.1567
  191MOL0     C25703   8.353   7.099   9.182  0.4786 -0.3975 -0.0431
  191MOL0     C25704   8.221   7.086   9.218  1.3812 -0.5492 -1.0587
  191MOL0     C25705   7.760   7.159   9.196 -0.2160 -0.3075  0.0636
  191MOL0     C25706   7.742   7.025   9.167 -1.1083  0.2810  0.6374
  191MOL0     C25707   7.613   6.966   9.173  0.0754  0.3585 -0.2077
  191MOL0     C25708   7.497   7.045   9.205 -0.2926 -0.7612 -0.0332
  191MOL0     O25709   7.371   6.987   9.211 -0.7749 -0.6357 -0.6705
  191MOL0     C25710   7.244   7.052   9.222  0.9458 -0.2863  0.1533
  191MOL0     C25711   7.136   6.937   9.241 -0.5905  0.3545 -0.0583
  191MOL0     C25712   6.997   6.993   9.280 -0.5260 -0.3955  0.2920
  191MOL0     C25713   6.880   6.903   9.232 -0.5106 -0.6967 -0.5063
  191MOL0     C25714   6.851   6.796   9.330  0.4176  0.1031 -1.5224
  191MOL0     C25715   6.841   6.708   9.418  0.0590 -0.9831 -0.7001
  191MOL0     C25716   7.518   7.184   9.230 -0.5487  0.3451  0.0146
  191MOL0     C25717   7.650   7.229   9.222  1.0674 -0.5549 -0.8518
  191MOL0     H25718   8.094   7.358   9.077  2.5172  2.3593  2.5769
  191MOL0     H25719   8.309   7.367   8.974 -3.3218  2.0368  1.1134
  191MOL0     H25720   8.528   7.350   8.909 -0.6020 -3.6720  0.4873
  191MOL0     H25721   8.514   7.428   9.068 -2.3098 -0.4773 -2.1222
  191MOL0     H25722   8.740   7.363   9.121 -1.0192  0.9170  0.2975
  191MOL0     H25723   8.750   7.253   8.982  0.8060  1.7599 -2.8313
  191MOL0     H25724   8.767   7.464   8.833  3.1581 -1.9199 -0.4175
  191MOL0     H25725   8.741   7.558   8.990  0.0642 -1.9610  3.6901
  191MOL0     H25726   8.950   7.471   9.078  0.8610 -1.4477 -0.2782
  191MOL0     H25727   8.951   7.350   8.951 -1.1324 -0.8258  1.2593
  191MOL0     H25728   8.959   7.524   8.775 -2.3346 -0.1428  0.5883
  191MOL0     H25729   8.996   7.637   8.902 -0.4434  0.2876 -3.7858
  191MOL0     H25730   9.211   7.595   8.840  0.8313 -0.6771 -0.2868
  191MOL0     H25731   9.178   7.486   8.971 -2.4568  1.3283  0.4605
  191MOL0     H25732   9.294   7.343   8.801  0.5695  1.3586 -1.2709
  191MOL0     H25733   9.125   7.311   8.755 -1.5488  1.2236  0.6380
  191MOL0     H25734   9.294   7.536   8.637  2.1052 -1.5956  0.3063
  191MOL0     H25735   9.133   7.481   8.588  0.3550 -2.3169 -1.4783
  191MOL0     H25736   9.493   7.420   8.509 -0.8774  0.4196 -0.6210
  191MOL0     H25737   9.556   7.100   8.297  2.6929 -0.4450  1.8289
  191MOL0     H25738   9.522   7.272   8.240 -0.2739  1.6096  0.4374
  191MOL0     H25739   9.676   7.203   8.490 -4.6944  0.4624  0.8118
  191MOL0     H25740   9.667   7.352   8.392 -1.1870 -0.9752  1.2361
  191MOL0     H25741   9.786   7.228   8.211  3.2336 -0.7558 -0.1890
  191MOL0     H25742   9.803   7.084   8.316 -0.3899  0.1388  0.5947
  191MOL0     H25743   9.904   7.347   8.431 -3.2516 -2.9060  3.9163
  191MOL0     H25744  10.014   7.265   8.318  2.7398  0.8630  1.9461
  191MOL0     H25745  10.154   7.335   8.465 -0.6358 -0.4620 -0.0839
  191MOL0     H25746  10.445   7.371   8.568  0.8488  0.3106 -1.5930
  191MOL0     H25747  10.299   7.470   8.566  2.6507 -1.6001 -4.0138
  191MOL0     H25748  10.385   7.440   8.722 -2.2031  1.0416 -0.4953
  191MOL0     H25749  10.276   7.130   9.158  0.6184 -1.2174  1.0527
  191MOL0     H25750  10.404   7.152   9.379 -0.7470  0.0924 -0.6100
  191MOL0     H25751  10.560   7.270   9.531  2.1473  2.3070 -1.2102
  191MOL0     H25752  10.562   7.092   9.518  1.8868 -0.3840 -3.3139
  191MOL0     H25753  10.779   7.073   9.621 -1.6555 -2.9400  2.1515
  191MOL0     H25754  10.795   7.250   9.626 -3.1102  1.7593  1.6025
  191MOL0     H25755  10.732   7.125   9.844  0.3408 -2.0040 -1.9268
  191MOL0     H25756  10.582   7.092   9.782  0.7502 -0.6853  0.3134
  191MOL0     H25757  10.695   7.375   9.819  0.5353 -0.2634 -1.4770
  191MOL0     H25758  10.537   7.335   9.757 -0.3366  0.5490  1.1372
  191MOL0     H25759  10.619   7.240  10.038 -1.7262 -0.9006  1.4787
  191MOL0     H25760  10.455   7.253   9.979  0.7148 -0.6836 -0.8848
  191MOL0     H25761  10.653   7.483  10.021 -0.3552 -1.8588  0.9316
  191MOL0     H25762  10.500   7.521   9.950 -1.1083 -0.1448 -0.3402
  191MOL0     H25763  10.470   7.573  10.176  3.7466  0.1219 -1.7073
  191MOL0     H25764  10.563   7.439  10.230 -0.9395  2.4482  2.6189
  191MOL0     H25765  10.334   7.385  10.299 -4.3306  1.3844 -0.4068
  191MOL0     H25766  10.371   7.281  10.176  1.3436 -0.0045  2.0501
  191MOL0     H25767  10.779   7.132   9.163  0.8412  2.0583  0.4082
  191MOL0     H25768  10.656   7.089   8.950  0.9083  0.9156  0.5766
  191MOL0     H25769  10.203   6.994   8.812 -0.0821 -2.2891 -1.8291
  191MOL0     H25770  10.007   6.995   8.675  0.1760 -0.5733 -2.3890
  191MOL0     H25771   8.423   7.020   9.208 -0.1282 -0.3721  1.8034
  191MOL0     H25772   8.182   7.002   9.274 -0.5107  1.9867  1.8108
  191MOL0     H25773   7.818   6.957   9.129 -1.3859 -0.2110  0.9447
  191MOL0     H25774   7.621   6.859   9.159  1.0910  0.4230 -0.1795
  191MOL0     H25775   7.241   7.121   9.307 -0.0927 -0.7478  0.5155
  191MOL0     H25776   7.230   7.108   9.129 -1.7846  0.1010  0.7028
  191MOL0     H25777   7.170   6.858   9.308  2.7156 -0.8539 -2.8626
  191MOL0     H25778   7.129   6.889   9.143  2.4386  2.4887 -1.4851
  191MOL0     H25779   6.989   7.086   9.224 -1.8689 -0.8742 -0.3630
  191MOL0     H25780   6.981   7.007   9.388  2.4233 -1.6051  0.9914
  191MOL0     H25781   6.910   6.869   9.132  2.4885 -3.9079  1.2445
  191MOL0     H25782   6.791   6.965   9.222 -0.1888 -0.1044  0.1712
  191MOL0     H25783   6.849   6.659   9.513  1.7463  1.5774  0.6077
  191MOL0     H25784   7.435   7.249   9.257 -1.1941 -0.0042 -1.0650
  191MOL0     H25785   7.659   7.332   9.253  2.2069 -0.8192 -0.2863
  192MOL0     O25786   4.106   4.489   2.145  0.6242  0.0915 -1.0419
  192MOL0     C25787   4.183   4.391   2.156 -0.5322 -0.1345 -0.0046
  192MOL0     O25788   4.139   4.265   2.191  0.4587  0.6191 -0.4715
  192MOL0     C25789   4.005   4.252   2.206 -0.2234 -0.2569  0.3093
  192MOL0     C25790   3.917   4.260   2.093  0.0897 -0.3496 -0.5293
  192MOL0     C25791   3.786   4.219   2.106 -0.2359  0.6584 -0.1122
  192MOL0     C25792   3.729   4.179   2.230 -0.6100 -0.1080 -0.5202
  192MOL0     O25793   3.598   4.146   2.230  0.5231 -0.3548 -0.1661
  192MOL0     C25794   3.531   4.129   2.355 -0.4206  0.2316  0.0801
  192MOL0     C25795   3.384   4.129   2.333  0.2495 -0.5052  0.0518
  192MOL0     C25796   3.343   3.999   2.253  0.2955 -0.1262 -0.5058
  192MOL0     C25797   3.319   3.873   2.346  0.6817 -0.2804  1.1084
  192MOL0     C25798   3.206   3.891   2.454 -0.0955 -1.1951  0.6909
  192MOL0     C25799   3.074   3.901   2.392 -0.4156 -0.1119 -0.5164
  192MOL0     C25800   2.962   3.916   2.494 -0.0581 -0.8828 -0.5197
  192MOL0     C25801   2.833   3.943   2.419 -0.1080  0.8990  0.2785
  192MOL0     N25802   2.726   3.957   2.523  0.3487 -0.5735 -0.0552
  192MOL0     C25803   2.655   3.855   2.591  0.0764 -0.9336 -0.7906
  192MOL0     C25804   2.568   3.926   2.664 -0.1355 -0.7791  0.3352
  192MOL0     C25805   2.469   3.873   2.762 -0.3019  1.0304  0.2398
  192MOL0     C25806   2.355   3.794   2.708 -0.0813  1.1343  0.5166
  192MOL0     C25807   2.278   3.737   2.824 -0.0698  0.5795  0.0840
  192MOL0     C25808   2.136   3.693   2.779 -0.0529 -0.3045  0.0773
  192MOL0     O25809   2.049   3.647   2.885  0.2253  1.6171 -0.6428
  192MOL0     C25810   1.980   3.727   2.959  0.1143 -0.6079 -0.1448
  192MOL0     C25811   1.975   3.870   2.938  0.0204  0.6098 -0.6615
  192MOL0     C25812   1.876   3.952   3.013 -0.3400  1.1790 -0.1390
  192MOL0     C25813   1.878   4.094   2.981 -0.4091  0.4768  0.3749
  192MOL0     C25814   1.803   3.889   3.120 -0.0783  0.2407 -0.2129
  192MOL0     C25815   1.707   3.964   3.218 -0.9408 -0.7058  0.0106
  192MOL0     O25816   1.634   4.073   3.175 -0.1518  0.4984  0.6186
  192MOL0     C25817   1.574   4.146   3.272  0.2917  0.5155  0.3466
  192MOL0     C25818   1.439   4.145   3.264  0.1972 -0.3655 -0.5166
  192MOL0     C25819   1.374   4.226   3.362  0.3417 -0.2932  0.5796
  192MOL0     C25820   1.439   4.309   3.451  0.1211  0.1273  0.1750
  192MOL0     O25821   1.373   4.376   3.558 -0.0525 -0.3789  0.4101
  192MOL0     C25822   1.440   4.478   3.634  0.7433  0.1732  0.4570
  192MOL0     C25823   1.334   4.571   3.690 -0.9995 -0.2287  0.4200
  192MOL0     C25824   1.247   4.636   3.580 -0.4596 -0.0962 -0.2614
  192MOL0     C25825   1.119   4.711   3.620  0.6001  0.4895  0.8712
  192MOL0     C25826   1.141   4.827   3.717  0.5681 -0.3358 -0.4396
  192MOL0     C25827   1.022   4.919   3.766 -1.3058 -0.0875  0.5325
  192MOL0     C25828   0.915   4.837   3.823  0.4600  0.0106 -0.4576
  192MOL0     C25829   0.816   4.901   3.912  0.3932  0.5196 -0.3287
  192MOL0    Cl25830   0.706   4.789   4.006 -0.6206 -0.5563 -0.1206
  192MOL0     C25831   1.577   4.302   3.449  0.1834 -0.8249 -0.7560
  192MOL0     C25832   1.644   4.226   3.355  0.1324  0.0052 -0.9880
  192MOL0     O25833   1.693   3.897   3.322  0.3942 -1.6318 -0.0579
  192MOL0     C25834   1.831   3.752   3.142 -0.1128 -0.1425  0.5926
  192MOL0     C25835   1.906   3.669   3.060 -1.1950  0.2115 -0.5995
  192MOL0     N25836   2.578   4.065   2.632  0.1342  0.6951 -0.1967
  192MOL0     N25837   2.673   4.080   2.541 -0.1900 -0.6869 -0.5825
  192MOL0     C25838   3.823   4.180   2.344  1.2931 -0.2144  0.0996
  192MOL0     C25839   3.954   4.209   2.323 -1.2307  0.1218  0.5658
  192MOL0     C25840   4.328   4.409   2.156 -0.5013 -0.2303  1.1257
  192MOL0     C25841   4.420   4.308   2.189 -0.3370 -0.3534 -0.3682
  192MOL0     C25842   4.553   4.337   2.197 -0.6027 -0.2835  0.0953
  192MOL0     C25843   4.602   4.465   2.166  0.0572  0.8441 -0.6888
  192MOL0     O25844   4.735   4.503   2.163 -0.2645 -0.5243 -0.1839
  192MOL0     C25845   4.825   4.397   2.190 -0.2984  0.3336 -0.0521
  192MOL0     C25846   4.972   4.431   2.166  0.5696 -0.2810 -0.3411
  192MOL0     C25847   5.003   4.585   2.172  0.4860 -0.3509 -0.6651
  192MOL0     C25848   5.152   4.618   2.198  0.5266 -0.2275 -0.1587
  192MOL0     C25849   5.228   4.566   2.084  0.5003 -0.0596  0.5144
  192MOL0     C25850   5.297   4.527   1.999 -0.2162  0.5056  1.4170
  192MOL0     C25851   4.525   4.564   2.119 -0.0437  0.2305 -0.1069
  192MOL0     C25852   4.387   4.537   2.125 -0.2903 -0.4607 -0.8116
  192MOL0     H25853   3.957   4.282   1.995 -1.2632 -2.8745 -1.7590
  192MOL0     H25854   3.726   4.235   2.017  0.6455 -0.3094 -0.8907
  192MOL0     H25855   3.547   4.030   2.398 -3.4023  0.6587  2.4966
  192MOL0     H25856   3.568   4.211   2.417  1.6708 -0.2046 -0.5179
  192MOL0     H25857   3.328   4.140   2.427 -2.7300 -0.7168 -1.5951
  192MOL0     H25858   3.369   4.222   2.277 -0.4220 -1.5957 -1.6268
  192MOL0     H25859   3.254   4.023   2.194  1.2984  0.3418 -1.9018
  192MOL0     H25860   3.423   3.986   2.179  0.7149 -1.0318  0.0817
  192MOL0     H25861   3.291   3.795   2.274  1.5650 -1.2614  1.8071
  192MOL0     H25862   3.413   3.850   2.396  1.5021  0.5050 -0.0326
  192MOL0     H25863   3.216   3.804   2.520  0.3781  1.0947  3.8738
  192MOL0     H25864   3.234   3.972   2.522  2.8807  1.4598 -3.2469
  192MOL0     H25865   3.064   3.995   2.337  0.2128  1.6104  2.1455
  192MOL0     H25866   3.051   3.808   2.339 -2.8578  1.7223 -3.0295
  192MOL0     H25867   2.962   3.845   2.578  2.2337  0.3954  0.6573
  192MOL0     H25868   2.983   4.007   2.550  2.3063 -0.3451 -2.1530
  192MOL0     H25869   2.823   3.854   2.356  4.5158  0.0832  0.3613
  192MOL0     H25870   2.834   4.035   2.361  0.6817  2.2288  2.2758
  192MOL0     H25871   2.661   3.747   2.599  0.8957 -0.8189  0.2811
  192MOL0     H25872   2.525   3.811   2.833  1.6222  1.9857 -0.3805
  192MOL0     H25873   2.424   3.959   2.812  3.9556  2.9657  1.2444
  192MOL0     H25874   2.388   3.704   2.656  0.5796  0.7570  1.5724
  192MOL0     H25875   2.282   3.843   2.642 -2.6433 -3.2118 -0.2532
  192MOL0     H25876   2.283   3.803   2.911 -0.2049 -0.8220  1.1867
  192MOL0     H25877   2.316   3.638   2.851 -1.4688  0.0746  0.2734
  192MOL0     H25878   2.135   3.614   2.704 -0.8383 -0.5133  0.3021
  192MOL0     H25879   2.084   3.774   2.727 -0.2026 -2.6746 -3.7702
  192MOL0     H25880   2.032   3.914   2.857  0.0061  2.0466  0.0748
  192MOL0     H25881   1.978   4.126   3.009  2.7636 -4.1746 -3.6924
  192MOL0     H25882   1.869   4.108   2.872  0.9041 -0.1862  0.1585
  192MOL0     H25883   1.789   4.143   3.020 -2.7277 -1.1333 -2.4078
  192MOL0     H25884   1.392   4.098   3.178 -2.5408  1.7688 -0.3337
  192MOL0     H25885   1.266   4.229   3.371  0.3628 -2.0238  2.0763
  192MOL0     H25886   1.497   4.415   3.702 -2.2757 -1.8676  1.3255
  192MOL0     H25887   1.499   4.548   3.574  2.7876 -0.1135  2.0310
  192MOL0     H25888   1.284   4.528   3.778  2.3049 -3.9113  0.7650
  192MOL0     H25889   1.397   4.645   3.741  0.2671 -0.4826 -0.7409
  192MOL0     H25890   1.210   4.574   3.498 -0.6218 -2.1680  1.3088
  192MOL0     H25891   1.310   4.717   3.542 -0.0147 -0.0850  0.4888
  192MOL0     H25892   1.074   4.757   3.532  1.7789  0.6118  0.3058
  192MOL0     H25893   1.052   4.634   3.659  1.0984  0.1793  1.1277
  192MOL0     H25894   1.210   4.896   3.665  1.2127  0.4166  1.3400
  192MOL0     H25895   1.187   4.787   3.807 -0.4722 -2.2079 -0.7052
  192MOL0     H25896   1.057   5.001   3.830  0.2718 -0.7731  0.6016
  192MOL0     H25897   1.000   4.977   3.676  0.7672  0.8842  0.5994
  192MOL0     H25898   0.972   4.763   3.881  0.3763 -0.0608 -0.4666
  192MOL0     H25899   0.865   4.792   3.737  0.1873  0.6715 -0.6471
  192MOL0     H25900   0.757   4.956   3.838  0.5074  0.3762 -0.5253
  192MOL0     H25901   0.871   4.966   3.980  2.6203 -2.0852  0.5277
  192MOL0     H25902   1.641   4.338   3.529 -1.7611 -1.0862  1.0037
  192MOL0     H25903   1.752   4.229   3.341  0.0565  1.2835 -1.3905
  192MOL0     H25904   1.770   3.706   3.220  0.5364  0.5086  1.5091
  192MOL0     H25905   1.927   3.567   3.090  0.9744  1.7347  4.1103
  192MOL0     H25906   3.795   4.144   2.442  1.4222  0.0052  0.2180
  192MOL0     H25907   4.016   4.199   2.411  0.2151 -1.2895 -0.5359
  192MOL0     H25908   4.384   4.211   2.222 -2.0372 -0.0901 -1.3694
  192MOL0     H25909   4.626   4.258   2.212 -0.9811 -0.7414 -0.4745
  192MOL0     H25910   4.804   4.367   2.293  1.9780  2.7183  1.2185
  192MOL0     H25911   4.799   4.311   2.128 -3.1933  1.4967 -0.6356
  192MOL0     H25912   5.020   4.385   2.079  1.7716  0.6395 -0.1845
  192MOL0     H25913   5.018   4.379   2.251  1.4375  0.5634 -0.2898
  192MOL0     H25914   4.936   4.618   2.252  0.3854  0.7019 -1.1620
  192MOL0     H25915   4.977   4.634   2.078  0.3969  3.3320  1.1030
  192MOL0     H25916   5.175   4.565   2.291  0.4608  1.6752  0.9854
  192MOL0     H25917   5.171   4.722   2.226 -0.7523  0.1602 -0.6525
  192MOL0     H25918   5.351   4.484   1.917  0.7407 -0.5711  2.5637
  192MOL0     H25919   4.565   4.660   2.087  1.2710 -0.2468  0.0549
  192MOL0     H25920   4.327   4.620   2.089 -1.0966 -1.0385 -0.8463
  193MOL0     O25921  10.273   4.845   5.721  0.4612 -0.4290  0.2920
  193MOL0     C25922  10.356   4.923   5.758  0.7765 -0.2646  0.0829
  193MOL0     O25923  10.334   5.041   5.834  0.2218 -0.0444  0.1882
  193MOL0     C25924  10.213   5.066   5.899 -0.2530 -0.0995  0.3647
  193MOL0     C25925  10.183   5.203   5.925  0.5022  0.1356  0.2494
  193MOL0     C25926  10.070   5.237   6.010 -0.1893 -0.0758  0.9615
  193MOL0     C25927   9.980   5.147   6.061  0.4780 -0.8929  0.3330
  193MOL0     O25928   9.884   5.181   6.161  0.6506  0.2073  0.2751
  193MOL0     C25929   9.764   5.247   6.120  0.3524 -0.3764 -0.1712
  193MOL0     C25930   9.755   5.371   6.213  0.6846  0.3296  0.8142
  193MOL0     C25931   9.610   5.430   6.219 -0.0251  1.2311 -0.6422
  193MOL0     C25932   9.624   5.571   6.285 -0.4067 -0.0681  1.1993
  193MOL0     C25933   9.496   5.650   6.256  0.1519  0.3121  0.0022
  193MOL0     C25934   9.374   5.588   6.313  0.6268 -0.1738  0.0134
  193MOL0     C25935   9.259   5.686   6.345  0.9043 -0.1685 -0.3267
  193MOL0     C25936   9.148   5.619   6.426  0.2600 -0.3427 -0.8060
  193MOL0     N25937   9.049   5.552   6.338 -0.1899  0.8665  0.0986
  193MOL0     C25938   9.054   5.425   6.270  0.1093 -0.8897  0.0932
  193MOL0     C25939   8.932   5.416   6.211 -0.6390 -0.7936  0.1153
  193MOL0     C25940   8.887   5.301   6.133  0.2185  0.2045  0.1742
  193MOL0     C25941   8.928   5.159   6.185 -0.1859  0.7650  0.6247
  193MOL0     C25942   8.890   5.131   6.328 -1.0318  0.1279  0.5912
  193MOL0     C25943   8.736   5.117   6.348 -0.8944 -0.1782 -0.1012
  193MOL0     O25944   8.676   5.052   6.232  0.4149 -0.5719  0.0543
  193MOL0     C25945   8.540   5.067   6.228  1.1128  0.7484 -0.4380
  193MOL0     C25946   8.473   4.950   6.209 -0.0400 -0.6571  0.1692
  193MOL0     C25947   8.336   4.954   6.205  1.1298 -0.7647  0.5779
  193MOL0     C25948   8.261   4.826   6.181 -0.9678 -0.3059  0.6673
  193MOL0     C25949   8.263   5.081   6.228  0.2687 -1.2121 -0.5948
  193MOL0     C25950   8.110   5.099   6.222  0.5272 -0.6865  0.1577
  193MOL0     O25951   8.061   5.221   6.249 -0.0284  0.3180  0.1666
  193MOL0     C25952   7.931   5.246   6.216  0.5050 -0.0557 -0.0912
  193MOL0     C25953   7.896   5.318   6.095 -0.6524  0.0318  0.2433
  193MOL0     C25954   7.762   5.327   6.056 -0.5963  0.2318  0.8354
  193MOL0     C25955   7.663   5.279   6.137  0.0133  0.5625 -0.4476
  193MOL0     O25956   7.539   5.310   6.096  0.2899 -0.3767 -0.1361
  193MOL0     C25957   7.432   5.274   6.188  0.3384 -0.0415 -0.1559
  193MOL0     C25958   7.299   5.338   6.132  0.0293  0.3204 -0.9973
  193MOL0     C25959   7.172   5.259   6.185  0.5263 -0.5056  0.0525
  193MOL0     C25960   7.043   5.328   6.118 -0.3188  0.7022 -0.3283
  193MOL0     C25961   6.916   5.247   6.142 -0.8865  0.5166  0.1108
  193MOL0     C25962   6.786   5.326   6.099 -0.6331  0.7150  0.1572
  193MOL0     C25963   6.756   5.445   6.199  0.0889  0.7848  0.1085
  193MOL0     C25964   6.609   5.485   6.194  0.3227 -0.1571  0.9494
  193MOL0    Cl25965   6.510   5.366   6.277  0.3287 -0.0381 -0.6187
  193MOL0     C25966   7.692   5.204   6.261  0.3497 -0.3406 -0.3296
  193MOL0     C25967   7.829   5.190   6.297  0.1187  1.7760  0.4055
  193MOL0     O25968   8.043   5.000   6.187  0.0768  0.4097 -0.5248
  193MOL0     C25969   8.337   5.197   6.251  0.0059 -0.5240 -0.1262
  193MOL0     C25970   8.475   5.184   6.247 -0.0088 -0.3928  1.6523
  193MOL0     N25971   8.850   5.526   6.249  0.0769 -0.3294  0.3600
  193MOL0     N25972   8.918   5.602   6.331  0.1579 -0.1727  0.3193
  193MOL0     C25973  10.006   5.019   6.032  0.3294  0.6413  0.1735
  193MOL0     C25974  10.120   4.978   5.946 -0.3787 -0.1592 -0.6840
  193MOL0     C25975  10.485   4.890   5.702 -0.1270 -0.1098 -0.7695
  193MOL0     C25976  10.504   4.777   5.617  0.3350 -0.8035  0.0077
  193MOL0     C25977  10.639   4.745   5.570 -0.2139  0.7747 -0.8568
  193MOL0     C25978  10.747   4.822   5.600 -0.7760  0.8658 -0.1652
  193MOL0     O25979  10.870   4.776   5.555  0.1844  0.1601  0.4477
  193MOL0     C25980  10.992   4.825   5.617 -0.4551  0.1535  0.8983
  193MOL0     C25981  11.106   4.742   5.566 -0.5483 -0.2162 -0.5879
  193MOL0     C25982  11.085   4.593   5.581  0.0468  0.3787  0.0276
  193MOL0     C25983  11.177   4.502   5.495 -0.2293  0.1177 -0.1539
  193MOL0     C25984  11.129   4.364   5.481 -0.7562 -0.5219  0.3086
  193MOL0     C25985  11.085   4.251   5.450  0.0302  0.7799  0.0230
  193MOL0     C25986  10.730   4.926   5.695  0.6170  0.6070 -0.4606
  193MOL0     C25987  10.604   4.960   5.740  0.3564 -0.5561  0.0839
  193MOL0     H25988  10.252   5.285   5.906 -1.1177  1.7491  1.0409
  193MOL0     H25989  10.052   5.334   6.057 -2.5209 -0.0922  0.2274
  193MOL0     H25990   9.776   5.261   6.012  0.4609 -0.2941 -0.1490
  193MOL0     H25991   9.678   5.182   6.140  0.4717 -0.2748  0.6900
  193MOL0     H25992   9.772   5.339   6.316  3.4968 -2.2561 -0.3150
  193MOL0     H25993   9.828   5.447   6.186  0.5892  0.1142 -0.0767
  193MOL0     H25994   9.558   5.443   6.124 -1.4069  2.0019  0.1847
  193MOL0     H25995   9.550   5.369   6.288 -0.9352  2.0567 -0.6855
  193MOL0     H25996   9.642   5.565   6.393  2.4215 -1.2958  0.7488
  193MOL0     H25997   9.715   5.630   6.268 -0.0809 -0.7571  0.5014
  193MOL0     H25998   9.522   5.737   6.317  1.4351 -1.1671  1.7059
  193MOL0     H25999   9.481   5.672   6.150 -1.8340  0.2031  0.2207
  193MOL0     H26000   9.343   5.510   6.242  1.5412 -1.6037  1.1247
  193MOL0     H26001   9.395   5.522   6.398 -0.6858 -0.2374  0.3119
  193MOL0     H26002   9.294   5.779   6.392 -2.3530  1.6903 -1.2685
  193MOL0     H26003   9.212   5.715   6.251 -0.1525 -1.4923 -0.2359
  193MOL0     H26004   9.090   5.695   6.479  1.3365  0.3373 -0.5699
  193MOL0     H26005   9.185   5.548   6.500 -0.8673 -3.2751 -2.8636
  193MOL0     H26006   9.123   5.341   6.276 -0.2561 -1.1150  3.1060
  193MOL0     H26007   8.778   5.312   6.122  0.4993  1.3810 -1.8411
  193MOL0     H26008   8.933   5.325   6.037 -0.2656  0.0219 -0.1096
  193MOL0     H26009   9.036   5.139   6.185 -0.7436 -2.7887  1.8893
  193MOL0     H26010   8.897   5.080   6.116  1.1914  0.3914  0.3998
  193MOL0     H26011   8.932   5.204   6.398 -2.7781  0.7578  1.0212
  193MOL0     H26012   8.943   5.042   6.364  2.4093  1.2962 -1.1511
  193MOL0     H26013   8.691   5.210   6.384  1.7107  1.2254 -0.1782
  193MOL0     H26014   8.728   5.050   6.434 -1.9232 -0.3534 -0.3208
  193MOL0     H26015   8.526   4.857   6.194  1.9895  0.7050 -1.6111
  193MOL0     H26016   8.340   4.750   6.175 -2.8458 -2.5267  2.7595
  193MOL0     H26017   8.186   4.811   6.258 -1.1552 -0.6596  0.4164
  193MOL0     H26018   8.209   4.837   6.085  2.0077  2.4756 -0.8469
  193MOL0     H26019   7.980   5.343   6.031  0.2013  0.0254  1.3376
  193MOL0     H26020   7.728   5.380   5.967  0.4893 -0.9236 -0.2903
  193MOL0     H26021   7.421   5.165   6.192 -0.4548  0.0095 -0.8457
  193MOL0     H26022   7.448   5.306   6.292  2.2047  0.3021 -0.5070
  193MOL0     H26023   7.304   5.439   6.173 -0.9685 -0.2024  0.4809
  193MOL0     H26024   7.297   5.350   6.023 -0.8823 -1.1664 -1.1704
  193MOL0     H26025   7.167   5.266   6.294 -2.0345  4.2333 -0.1031
  193MOL0     H26026   7.181   5.157   6.147  1.6981 -0.5037  0.2725
  193MOL0     H26027   7.030   5.431   6.152 -4.5645  0.2106  0.0206
  193MOL0     H26028   7.065   5.334   6.011  1.4740  0.1592 -0.0227
  193MOL0     H26029   6.912   5.232   6.250  2.4728  0.4950  0.3254
  193MOL0     H26030   6.928   5.152   6.088  0.0474  0.6810  0.0106
  193MOL0     H26031   6.806   5.355   5.995  3.0253 -0.5905  0.3552
  193MOL0     H26032   6.703   5.258   6.121  1.5325 -1.4840  2.1206
  193MOL0     H26033   6.807   5.532   6.155  1.0179  0.7161  1.0267
  193MOL0     H26034   6.787   5.416   6.299 -2.9980 -0.0395  0.9343
  193MOL0     H26035   6.572   5.499   6.092  3.3788  0.0509 -0.2268
  193MOL0     H26036   6.597   5.585   6.237 -2.5632 -0.9838  2.3327
  193MOL0     H26037   7.622   5.156   6.329  0.9683  0.1270  0.6673
  193MOL0     H26038   7.853   5.124   6.381 -2.1403 -1.7628 -1.4659
  193MOL0     H26039   8.301   5.298   6.266  1.3706  0.4233 -2.5796
  193MOL0     H26040   8.516   5.284   6.255 -1.5947  0.7537 -2.1265
  193MOL0     H26041   9.937   4.941   6.061  0.9006  0.5914  1.4977
  193MOL0     H26042  10.128   4.877   5.909  0.8551 -0.3379  0.0479
  193MOL0     H26043  10.421   4.723   5.574  0.0707  0.8757 -1.6885
  193MOL0     H26044  10.641   4.656   5.509 -1.2743 -0.0379  0.2621
  193MOL0     H26045  11.005   4.932   5.598  3.5182  0.1645  2.6728
  193MOL0     H26046  10.992   4.824   5.726  1.3174  2.3945  0.9862
  193MOL0     H26047  11.187   4.767   5.636 -1.0170 -2.0871  0.7081
  193MOL0     H26048  11.131   4.772   5.464  2.6361 -1.1564 -0.2045
  193MOL0     H26049  10.979   4.572   5.562 -0.2521  1.5244  0.3486
  193MOL0     H26050  11.110   4.568   5.685 -0.6427  2.3739  0.7158
  193MOL0     H26051  11.276   4.498   5.541  0.6580  0.6163 -1.9169
  193MOL0     H26052  11.207   4.537   5.395  3.6305 -2.8936 -0.2697
  193MOL0     H26053  11.039   4.156   5.432  1.1937  0.1034  0.5283
  193MOL0     H26054  10.814   4.982   5.735  1.2835 -1.4150  1.1650
  193MOL0     H26055  10.596   5.047   5.805  1.1612 -2.4051  2.8608
  194MOL0     O26056   7.295   4.614   1.196  0.0040 -0.2669  0.2819
  194MOL0     C26057   7.389   4.570   1.259 -0.6831 -0.5646 -0.2857
  194MOL0     O26058   7.380   4.536   1.397 -0.3289  0.5481  0.3633
  194MOL0     C26059   7.266   4.541   1.466 -0.9564 -0.0108  0.2248
  194MOL0     C26060   7.286   4.592   1.595  0.2467  0.4375 -0.2445
  194MOL0     C26061   7.173   4.622   1.676 -0.8018  0.7415 -0.7161
  194MOL0     C26062   7.048   4.571   1.625 -0.9418  0.4083 -0.4496
  194MOL0     O26063   6.928   4.572   1.692 -0.3941  0.6963 -0.7660
  194MOL0     C26064   6.919   4.671   1.798 -0.0472 -0.2030 -0.7439
  194MOL0     C26065   6.759   4.689   1.835  0.2417  0.4216 -0.3879
  194MOL0     C26066   6.730   4.790   1.950 -0.0359  0.4940  0.1725
  194MOL0     C26067   6.576   4.811   1.977 -0.2044  0.3727 -0.0332
  194MOL0     C26068   6.517   4.903   1.862  0.5962 -1.6207  0.8433
  194MOL0     C26069   6.400   4.984   1.928 -0.5829  0.6401 -0.2849
  194MOL0     C26070   6.308   5.063   1.817 -0.5081  0.4912 -1.0931
  194MOL0     C26071   6.210   5.154   1.887 -0.3446  0.5258  0.0022
  194MOL0     N26072   6.129   5.230   1.800 -0.3190 -0.2977  0.5902
  194MOL0     C26073   5.991   5.231   1.792 -0.2796  0.1016 -0.3147
  194MOL0     C26074   5.956   5.309   1.685 -0.1747  0.0090 -0.7239
  194MOL0     C26075   5.814   5.337   1.631 -0.6862  0.1173 -0.3435
  194MOL0     C26076   5.793   5.489   1.599  0.3536  0.4795 -0.8090
  194MOL0     C26077   5.651   5.525   1.558  0.2249 -0.3274  0.4013
  194MOL0     C26078   5.619   5.669   1.513  1.0877 -0.1277 -0.2032
  194MOL0     O26079   5.627   5.748   1.636 -0.3939  0.4828 -0.3864
  194MOL0     C26080   5.511   5.773   1.697  0.2080  0.4352 -0.5401
  194MOL0     C26081   5.520   5.769   1.837  0.2457  0.5276  0.3137
  194MOL0     C26082   5.426   5.822   1.914 -0.6932  0.8598 -0.3737
  194MOL0     C26083   5.447   5.805   2.060 -0.2811  0.1916  0.4674
  194MOL0     C26084   5.298   5.860   1.862 -0.2788 -0.2467  0.3934
  194MOL0     C26085   5.190   5.917   1.934  0.4465  0.0686  0.0233
  194MOL0     O26086   5.064   5.887   1.881  0.4844  0.0549 -0.0469
  194MOL0     C26087   4.967   5.931   1.965  0.0148 -0.9036  0.3019
  194MOL0     C26088   4.904   6.051   1.928  0.2044 -0.2706 -0.8530
  194MOL0     C26089   4.794   6.102   2.011  0.1340  0.2562  0.2922
  194MOL0     C26090   4.762   6.038   2.134  0.3762 -0.6257 -0.6394
  194MOL0     O26091   4.667   6.081   2.229 -0.1554  0.3521  0.5494
  194MOL0     C26092   4.667   6.217   2.257 -0.2384  0.6296  0.3710
  194MOL0     C26093   4.608   6.257   2.402  0.5477 -0.2709  0.0833
  194MOL0     C26094   4.670   6.159   2.499 -0.5933 -0.6240 -0.4392
  194MOL0     C26095   4.646   6.200   2.643  0.0147  0.4789 -0.0265
  194MOL0     C26096   4.495   6.177   2.692  0.1286 -0.9064 -0.5151
  194MOL0     C26097   4.476   6.168   2.847 -0.3510 -0.7678 -0.2914
  194MOL0     C26098   4.349   6.093   2.877  0.7325  0.4704 -0.1257
  194MOL0     C26099   4.324   6.071   3.027  0.1370  0.1171  0.0609
  194MOL0    Cl26100   4.284   6.229   3.102  0.2430  0.0551  0.1784
  194MOL0     C26101   4.817   5.911   2.156 -0.4374 -0.1330 -0.4129
  194MOL0     C26102   4.918   5.856   2.072  0.1489  0.2445  0.4955
  194MOL0     O26103   5.201   5.995   2.034  0.0990  0.9095 -0.1420
  194MOL0     C26104   5.285   5.857   1.717  0.3112  0.0721 -0.0933
  194MOL0     C26105   5.397   5.823   1.640 -0.6514  0.0880  0.2574
  194MOL0     N26106   6.074   5.351   1.628  0.0149 -1.0886 -0.3342
  194MOL0     N26107   6.170   5.314   1.701 -0.0755 -0.4992 -0.1480
  194MOL0     C26108   7.038   4.516   1.502 -1.4347  0.4372 -0.0293
  194MOL0     C26109   7.146   4.509   1.416  0.7691  0.3621  0.1421
  194MOL0     C26110   7.529   4.557   1.196  0.8961 -0.0226 -0.4132
  194MOL0     C26111   7.648   4.527   1.266  0.6969 -0.1478 -0.9315
  194MOL0     C26112   7.766   4.521   1.199  0.7293  0.1380 -0.6578
  194MOL0     C26113   7.780   4.559   1.071  0.2225 -0.2121  1.3071
  194MOL0     O26114   7.898   4.548   1.009 -0.6642  0.4251 -0.0232
  194MOL0     C26115   8.030   4.537   1.086 -0.2289 -0.0313  0.7946
  194MOL0     C26116   8.132   4.500   0.973  0.4613  0.2232  0.2001
  194MOL0     C26117   8.244   4.419   1.036  0.3095  0.5805  0.2680
  194MOL0     C26118   8.381   4.391   0.957 -0.1487  0.0507 -0.3775
  194MOL0     C26119   8.436   4.267   1.022  0.1234 -0.1119  0.1480
  194MOL0     C26120   8.463   4.159   1.080 -0.5829 -0.5140  0.2915
  194MOL0     C26121   7.662   4.591   0.998 -0.2191  0.4411 -0.7626
  194MOL0     C26122   7.541   4.598   1.064 -0.2369  0.1856 -0.0964
  194MOL0     H26123   7.386   4.611   1.632  0.1363  2.1478 -0.7286
  194MOL0     H26124   7.186   4.673   1.771  1.2599  0.6396 -0.9000
  194MOL0     H26125   6.981   4.645   1.884 -0.4823 -1.8382 -0.9032
  194MOL0     H26126   6.967   4.766   1.770 -0.1506 -0.1685 -0.8058
  194MOL0     H26127   6.702   4.728   1.750  0.6890 -0.3168 -1.0379
  194MOL0     H26128   6.724   4.591   1.867  3.2476 -0.0412  1.9701
  194MOL0     H26129   6.776   4.754   2.042  0.7959 -0.9828 -0.7761
  194MOL0     H26130   6.778   4.886   1.930  2.0535 -0.4503  0.4043
  194MOL0     H26131   6.522   4.717   1.978 -0.3550  0.4456  1.1828
  194MOL0     H26132   6.556   4.864   2.071  0.0349  2.0491 -0.8821
  194MOL0     H26133   6.594   4.971   1.823  0.9002 -1.9525  0.8634
  194MOL0     H26134   6.484   4.839   1.780 -1.3030 -2.2846  2.0625
  194MOL0     H26135   6.331   4.933   1.995 -1.6294  0.9883 -1.0741
  194MOL0     H26136   6.460   5.056   1.985 -0.9211  2.0963 -1.6962
  194MOL0     H26137   6.373   5.129   1.759 -0.0751 -0.6814 -1.9921
  194MOL0     H26138   6.254   4.990   1.756 -0.2629  0.3599 -1.1556
  194MOL0     H26139   6.273   5.221   1.946  1.2501 -0.3146 -0.6891
  194MOL0     H26140   6.151   5.089   1.953 -0.4616  1.9681  1.3674
  194MOL0     H26141   5.923   5.163   1.843  0.1928  0.3596  0.6879
  194MOL0     H26142   5.786   5.279   1.543  1.9669 -0.7999 -0.6763
  194MOL0     H26143   5.744   5.313   1.712  1.0419 -0.2861  1.0936
  194MOL0     H26144   5.867   5.507   1.520 -0.9106  5.4155 -1.1861
  194MOL0     H26145   5.822   5.554   1.682  3.6350  3.4872 -3.9223
  194MOL0     H26146   5.580   5.497   1.637 -0.5655 -0.4673 -0.3408
  194MOL0     H26147   5.625   5.459   1.475 -2.9735  1.2177  0.0273
  194MOL0     H26148   5.518   5.677   1.470  0.9973 -0.8626 -0.1352
  194MOL0     H26149   5.687   5.704   1.434  3.3548 -1.4310  1.0843
  194MOL0     H26150   5.615   5.736   1.879  0.3807 -0.6503 -0.8520
  194MOL0     H26151   5.375   5.739   2.110 -1.8645  3.0046  2.1388
  194MOL0     H26152   5.549   5.770   2.073  1.3626  4.2953  0.0058
  194MOL0     H26153   5.427   5.900   2.111 -0.2425 -1.0904  3.0322
  194MOL0     H26154   4.925   6.090   1.829 -3.2543  2.7297 -0.6179
  194MOL0     H26155   4.744   6.189   1.970  0.8015  0.5790  0.1558
  194MOL0     H26156   4.768   6.258   2.247  0.2451 -0.8401 -1.2330
  194MOL0     H26157   4.613   6.267   2.176 -1.5720 -1.9884 -0.4760
  194MOL0     H26158   4.618   6.365   2.416  1.0355  0.1093 -2.5836
  194MOL0     H26159   4.500   6.242   2.401  0.2000  1.8404  1.1087
  194MOL0     H26160   4.776   6.153   2.472  0.6348  1.8874  3.1138
  194MOL0     H26161   4.632   6.057   2.490 -1.0204 -0.4697 -0.3594
  194MOL0     H26162   4.715   6.131   2.693 -0.5033  0.3357  0.5010
  194MOL0     H26163   4.665   6.305   2.664 -0.1194  0.7498 -1.1891
  194MOL0     H26164   4.474   6.075   2.658  1.4200 -1.6059  0.6624
  194MOL0     H26165   4.430   6.249   2.642 -0.6003 -0.8421  0.5067
  194MOL0     H26166   4.560   6.125   2.902  0.1367  0.7821  0.2321
  194MOL0     H26167   4.464   6.269   2.887 -0.5866 -0.9305  0.0525
  194MOL0     H26168   4.351   5.996   2.826 -2.0706  0.4063 -0.2378
  194MOL0     H26169   4.264   6.149   2.837 -0.6805 -1.8015 -0.4574
  194MOL0     H26170   4.418   6.027   3.062  0.4948  0.1152 -0.8751
  194MOL0     H26171   4.240   6.008   3.057 -0.8747  3.1038  4.4246
  194MOL0     H26172   4.770   5.872   2.246  0.5968 -0.6119 -0.0517
  194MOL0     H26173   4.961   5.759   2.096 -3.0390 -1.5539 -0.4050
  194MOL0     H26174   5.190   5.872   1.667 -0.3121  0.8034  1.2466
  194MOL0     H26175   5.395   5.845   1.534  2.0005 -2.6153 -0.4878
  194MOL0     H26176   6.942   4.470   1.478 -0.3404 -1.7136 -0.4803
  194MOL0     H26177   7.131   4.461   1.319 -0.1336  0.5085  0.2063
  194MOL0     H26178   7.627   4.498   1.369  0.8100 -2.6955 -1.5431
  194MOL0     H26179   7.841   4.487   1.270 -0.1313 -0.6628 -0.1123
  194MOL0     H26180   8.053   4.635   1.129  0.3924  0.4930 -0.6630
  194MOL0     H26181   8.025   4.471   1.172 -4.5992  1.1307  1.7091
  194MOL0     H26182   8.174   4.596   0.940 -0.5154  0.9355  0.9874
  194MOL0     H26183   8.083   4.457   0.885  1.1217  1.6486 -0.9207
  194MOL0     H26184   8.212   4.316   1.055  1.5427 -0.3633 -2.3578
  194MOL0     H26185   8.274   4.469   1.128 -1.2538  2.2259 -0.0559
  194MOL0     H26186   8.447   4.478   0.959 -1.3424  0.9654  0.4759
  194MOL0     H26187   8.371   4.373   0.849 -1.9941  0.6526 -0.3486
  194MOL0     H26188   8.475   4.070   1.139  0.3034 -0.2488  0.5345
  194MOL0     H26189   7.661   4.615   0.892  1.1585  0.8473 -0.7042
  194MOL0     H26190   7.458   4.621   0.998 -0.4595 -0.4581 -0.0493
  195MOL0     O26191  10.556   1.504   3.026  0.9030  0.7680  0.1483
  195MOL0     C26192  10.587   1.386   2.996 -0.2157 -0.3359  0.1886
  195MOL0     O26193  10.506   1.285   2.958  0.2798 -0.7274  0.3416
  195MOL0     C26194  10.368   1.299   2.957 -0.8344 -0.0603  0.3812
  195MOL0     C26195  10.317   1.176   2.909  0.6101  0.9988 -0.0560
  195MOL0     C26196  10.177   1.155   2.910  0.5503 -0.2810 -0.1538
  195MOL0     C26197  10.097   1.261   2.939  0.2126  0.7168 -0.0993
  195MOL0     O26198   9.959   1.235   2.945 -0.4118  0.0257 -0.1333
  195MOL0     C26199   9.876   1.278   3.058 -1.2909  0.5987 -0.1547
  195MOL0     C26200   9.730   1.303   3.030 -0.4113 -0.5408 -0.1075
  195MOL0     C26201   9.661   1.185   2.960 -0.0056 -0.7184  0.2953
  195MOL0     C26202   9.509   1.200   2.919 -0.1144 -0.2963 -0.0535
  195MOL0     C26203   9.409   1.181   3.040  0.6975  0.1562  0.4985
  195MOL0     C26204   9.265   1.206   2.991 -0.0723 -0.4067 -0.0583
  195MOL0     C26205   9.167   1.190   3.108  0.3353  0.5954 -0.6484
  195MOL0     C26206   9.038   1.261   3.077  0.3226 -0.0849 -0.0090
  195MOL0     N26207   8.968   1.198   2.963 -0.9867 -0.5737 -0.2557
  195MOL0     C26208   8.849   1.141   2.982 -0.1398 -0.5387  0.1017
  195MOL0     C26209   8.810   1.112   2.856  0.4456  0.9915 -0.8697
  195MOL0     C26210   8.690   1.031   2.820 -0.0825  0.0290  0.7221
  195MOL0     C26211   8.680   0.891   2.884 -0.9129 -0.5359  0.9707
  195MOL0     C26212   8.564   0.816   2.810  0.2488 -1.2681 -0.9543
  195MOL0     C26213   8.548   0.676   2.880  0.3008 -0.1121  0.4994
  195MOL0     O26214   8.405   0.651   2.871 -0.1257 -0.6805  0.7096
  195MOL0     C26215   8.358   0.539   2.931 -0.0866  0.9711 -0.2685
  195MOL0     C26216   8.440   0.441   2.988 -1.1742  0.1632  0.9114
  195MOL0     C26217   8.381   0.325   3.045 -0.0405 -0.7864 -0.3943
  195MOL0     C26218   8.480   0.213   3.079 -0.1311 -0.8481  0.7513
  195MOL0     C26219   8.239   0.313   3.048 -0.0044  1.0014 -0.1550
  195MOL0     C26220   8.162   0.190   3.099 -0.1889  0.7262 -0.8018
  195MOL0     O26221   8.027   0.200   3.107  0.6054 -0.6245  0.2535
  195MOL0     C26222   7.950   0.103   3.165  0.8976  0.3584  0.1093
  195MOL0     C26223   7.973  -0.040   3.167 -0.4259 -0.3135 -0.4727
  195MOL0     C26224   7.886  -0.127   3.229  0.1479  0.4115  0.8066
  195MOL0     C26225   7.766  -0.068   3.280  0.1110  0.9195  0.1308
  195MOL0     O26226   7.672  -0.128   3.355  0.2833  0.3086  0.1619
  195MOL0     C26227   7.704  -0.154   3.490  0.2075 -0.0610  0.5928
  195MOL0     C26228   7.623  -0.065   3.571  0.3868 -0.3887  0.7157
  195MOL0     C26229   7.472  -0.078   3.539 -0.0795  0.5942  0.9976
  195MOL0     C26230   7.402   0.003   3.648 -0.1438  0.1296  0.7702
  195MOL0     C26231   7.257  -0.022   3.653 -0.3643 -0.5267  0.5651
  195MOL0     C26232   7.214  -0.130   3.756 -0.7167 -0.4241 -0.1260
  195MOL0     C26233   7.070  -0.145   3.750  0.3225  0.2877 -0.3007
  195MOL0     C26234   6.996  -0.199   3.873 -0.0692  0.2388  0.7382
  195MOL0    Cl26235   6.833  -0.247   3.840 -0.0389  0.0950  0.0455
  195MOL0     C26236   7.740   0.070   3.266 -0.1688 -0.2570  0.5157
  195MOL0     C26237   7.831   0.158   3.211 -0.5164  0.1021  0.5060
  195MOL0     O26238   8.221   0.088   3.136 -0.6108 -0.0235  0.7785
  195MOL0     C26239   8.161   0.413   2.996 -0.2494 -0.5696  0.0700
  195MOL0     C26240   8.224   0.526   2.941 -0.1895  0.8881  0.3412
  195MOL0     N26241   8.903   1.156   2.766  0.0641 -0.4734  0.5711
  195MOL0     N26242   8.997   1.206   2.831  0.6795 -0.3927 -0.2274
  195MOL0     C26243  10.149   1.383   2.983 -0.3677 -0.2474  0.0089
  195MOL0     C26244  10.281   1.410   2.991 -0.5507 -0.2908 -0.5171
  195MOL0     C26245  10.733   1.349   3.006  0.0165 -0.4089 -0.8724
  195MOL0     C26246  10.778   1.218   3.035  0.1362 -0.7767  0.2114
  195MOL0     C26247  10.919   1.194   3.029 -0.3516 -0.2431  0.5360
  195MOL0     C26248  11.011   1.291   2.977  0.5534  0.2830 -0.3128
  195MOL0     O26249  11.146   1.275   2.959  0.1997  0.7580  0.3011
  195MOL0     C26250  11.217   1.153   2.987  0.3800 -0.7379  0.3019
  195MOL0     C26251  11.250   1.144   3.135  0.3230 -0.1868  0.4401
  195MOL0     C26252  11.305   1.001   3.143 -0.4832  0.2163 -0.4543
  195MOL0     C26253  11.344   0.957   3.278 -0.2737 -1.1981 -0.8018
  195MOL0     C26254  11.437   0.852   3.271  0.1930 -0.5614 -0.4127
  195MOL0     C26255  11.502   0.754   3.230 -0.1559 -1.1861  0.8377
  195MOL0     C26256  10.958   1.420   2.955  0.5631 -0.2223 -0.4379
  195MOL0     C26257  10.829   1.453   2.979 -0.4162  0.5970 -0.0277
  195MOL0     H26258  10.390   1.099   2.884  0.0538 -0.2344  1.9629
  195MOL0     H26259  10.135   1.061   2.875  1.0400 -0.4232 -0.3757
  195MOL0     H26260   9.876   1.197   3.132  0.3377  2.1414  1.6400
  195MOL0     H26261   9.910   1.364   3.116  1.4023 -0.4252 -0.0708
  195MOL0     H26262   9.679   1.327   3.124 -3.5884  2.7286 -2.3699
  195MOL0     H26263   9.714   1.402   2.986 -1.4850  0.2664  1.9509
  195MOL0     H26264   9.719   1.165   2.869  0.8452 -0.2354  0.7225
  195MOL0     H26265   9.674   1.094   3.020  3.8510 -1.1319 -0.9479
  195MOL0     H26266   9.484   1.299   2.880 -1.6267 -0.1585  1.1565
  195MOL0     H26267   9.495   1.139   2.829  0.8781 -0.6591  0.0286
  195MOL0     H26268   9.411   1.079   3.079 -3.1454 -1.0965 -1.9751
  195MOL0     H26269   9.440   1.248   3.121 -0.6002 -1.0789  2.0900
  195MOL0     H26270   9.246   1.302   2.943 -1.6963 -0.6196  0.1252
  195MOL0     H26271   9.233   1.129   2.920  1.0032 -0.3659 -0.6125
  195MOL0     H26272   9.151   1.082   3.117  2.0236  0.0318 -3.2691
  195MOL0     H26273   9.206   1.219   3.206  0.7884  1.2324 -1.0091
  195MOL0     H26274   9.055   1.366   3.055  4.7388 -0.6811 -0.2263
  195MOL0     H26275   8.973   1.265   3.165  0.2732  1.0002 -0.0852
  195MOL0     H26276   8.803   1.117   3.077  1.1580 -0.4123  0.7790
  195MOL0     H26277   8.599   1.086   2.841 -1.0163 -0.7402 -1.0305
  195MOL0     H26278   8.678   1.023   2.711  0.1909 -0.7679  0.7390
  195MOL0     H26279   8.667   0.919   2.989 -2.4185  0.2135  0.6156
  195MOL0     H26280   8.775   0.837   2.880  0.1612  0.9266  3.5022
  195MOL0     H26281   8.586   0.804   2.704  2.0107 -0.1435 -0.7513
  195MOL0     H26282   8.469   0.871   2.818  0.8318  0.0399 -2.5280
  195MOL0     H26283   8.586   0.681   2.983 -1.1148 -1.1511  1.0945
  195MOL0     H26284   8.596   0.599   2.818  1.5094 -0.3764  1.7236
  195MOL0     H26285   8.548   0.445   2.977 -1.2957  3.6222 -0.2763
  195MOL0     H26286   8.443   0.162   3.169 -0.3098  0.1448  1.2621
  195MOL0     H26287   8.483   0.138   3.000  0.5656 -0.2392  0.1808
  195MOL0     H26288   8.577   0.260   3.096  0.4630 -1.5778 -0.5748
  195MOL0     H26289   8.069  -0.074   3.130 -0.4311 -0.9351  0.0793
  195MOL0     H26290   7.915  -0.230   3.247  2.2068  0.6534 -0.7435
  195MOL0     H26291   7.685  -0.260   3.511  1.8104 -1.4184 -3.7711
  195MOL0     H26292   7.810  -0.132   3.510 -0.0329  1.0766  0.6952
  195MOL0     H26293   7.643  -0.083   3.677  1.5758  0.5124  0.6614
  195MOL0     H26294   7.651   0.039   3.553  0.3168 -0.5740 -0.5066
  195MOL0     H26295   7.441  -0.182   3.531 -2.4335  1.1036  2.5755
  195MOL0     H26296   7.456  -0.035   3.439  0.0113  0.7791  1.0616
  195MOL0     H26297   7.449  -0.004   3.747 -1.3032 -0.6076  1.2884
  195MOL0     H26298   7.413   0.108   3.620 -1.2642  0.4102  1.3295
  195MOL0     H26299   7.227  -0.031   3.549 -0.2211  1.0292  0.3693
  195MOL0     H26300   7.206   0.068   3.690 -1.1576 -0.6424 -0.2124
  195MOL0     H26301   7.262  -0.225   3.733  2.2885  1.1860 -1.0650
  195MOL0     H26302   7.246  -0.112   3.860 -1.7123  3.3882 -0.3361
  195MOL0     H26303   7.054  -0.210   3.664  1.0966 -0.1283 -0.1428
  195MOL0     H26304   7.019  -0.049   3.736 -1.1794 -0.1798  1.4770
  195MOL0     H26305   6.989  -0.122   3.950  0.1086  1.0155 -0.0056
  195MOL0     H26306   7.060  -0.277   3.915 -0.0977 -0.4727 -0.5105
  195MOL0     H26307   7.645   0.119   3.287 -0.0389  0.7401 -1.1010
  195MOL0     H26308   7.792   0.256   3.184 -1.4642 -0.6639 -1.0230
  195MOL0     H26309   8.054   0.396   2.998  0.1195 -3.2921  2.4909
  195MOL0     H26310   8.164   0.610   2.906  4.5670  4.4988 -0.2762
  195MOL0     H26311  10.084   1.462   3.018  0.1804  0.4955 -0.6202
  195MOL0     H26312  10.302   1.514   3.013  0.2317 -0.6664  0.6451
  195MOL0     H26313  10.709   1.140   3.066 -1.0579  0.7330  1.5044
  195MOL0     H26314  10.956   1.095   3.055 -0.7887 -0.9974 -1.4699
  195MOL0     H26315  11.162   1.065   2.953  0.9885 -0.6315 -1.0323
  195MOL0     H26316  11.309   1.148   2.928  1.5634  2.2500  1.6672
  195MOL0     H26317  11.168   1.157   3.205 -0.9590  3.3181 -1.4700
  195MOL0     H26318  11.326   1.215   3.169  0.0794  2.4271 -3.7771
  195MOL0     H26319  11.384   0.983   3.070 -0.1401 -2.4789  0.4685
  195MOL0     H26320  11.218   0.945   3.110 -2.2745  2.0619  0.8711
  195MOL0     H26321  11.256   0.918   3.329  0.0448 -2.2902 -1.0558
  195MOL0     H26322  11.389   1.031   3.344 -0.2691 -0.0408 -2.0509
  195MOL0     H26323  11.558   0.673   3.189  0.4563  0.1771 -1.2112
  195MOL0     H26324  11.036   1.487   2.921  0.6460 -0.1075 -0.0313
  195MOL0     H26325  10.791   1.553   2.960 -1.8752  0.3299  1.2960
  196MOL0     O26326   8.358   1.944   2.368  0.4898 -0.2437  0.5379
  196MOL0     C26327   8.335   1.828   2.403  0.3628 -0.7791  1.0641
  196MOL0     O26328   8.426   1.732   2.442  0.0986  0.5720  0.1508
  196MOL0     C26329   8.546   1.780   2.479  0.1990 -0.2681 -0.0805
  196MOL0     C26330   8.574   1.805   2.612 -0.4629  0.4489 -0.5613
  196MOL0     C26331   8.699   1.852   2.661  0.7459  0.6089 -0.7579
  196MOL0     C26332   8.799   1.866   2.563 -0.6009  0.3167 -0.4316
  196MOL0     O26333   8.920   1.912   2.607 -0.3081  0.5333  0.0680
  196MOL0     C26334   9.036   1.851   2.551  0.0938 -0.3292  0.0858
  196MOL0     C26335   9.164   1.861   2.635 -0.0953 -0.5718 -0.0521
  196MOL0     C26336   9.142   1.798   2.769  0.5819 -0.1979 -0.4619
  196MOL0     C26337   9.265   1.733   2.835 -0.2753  0.0541  0.4323
  196MOL0     C26338   9.238   1.685   2.979 -0.3863  0.3005 -0.9436
  196MOL0     C26339   9.348   1.587   3.028  0.2433 -1.0651 -0.7573
  196MOL0     C26340   9.310   1.537   3.169 -0.3040 -0.3371 -0.1402
  196MOL0     C26341   9.336   1.622   3.297 -0.4483 -0.1587 -0.1552
  196MOL0     N26342   9.224   1.719   3.317  0.4356  0.2705  0.1871
  196MOL0     C26343   9.240   1.857   3.295 -0.7584  0.6088  0.2091
  196MOL0     C26344   9.133   1.912   3.346  0.1448 -0.8468 -0.5443
  196MOL0     C26345   9.099   2.062   3.345 -0.1709 -0.5215 -0.5384
  196MOL0     C26346   8.946   2.093   3.328  1.0613 -0.2578 -0.0669
  196MOL0     C26347   8.926   2.246   3.349 -0.1755 -0.4054  0.9038
  196MOL0     C26348   8.886   2.274   3.496  0.3342 -0.1546 -0.3907
  196MOL0     O26349   8.945   2.193   3.598  0.1839 -0.8526  0.5301
  196MOL0     C26350   8.942   2.229   3.733  0.2534 -0.7644 -0.5562
  196MOL0     C26351   9.004   2.144   3.818  0.0048 -0.3268 -0.3601
  196MOL0     C26352   8.992   2.147   3.956  0.1152 -0.2460 -0.1433
  196MOL0     C26353   9.054   2.035   4.036 -0.0555 -0.6129  0.4004
  196MOL0     C26354   8.912   2.244   4.015  0.6845  0.3661  0.1293
  196MOL0     C26355   8.903   2.276   4.163  0.6378 -0.1221 -0.3524
  196MOL0     O26356   8.813   2.371   4.193  0.1670 -0.0172 -0.0313
  196MOL0     C26357   8.795   2.396   4.325 -0.0374  0.0358 -0.5502
  196MOL0     C26358   8.740   2.306   4.419  0.3263  0.5037  0.3140
  196MOL0     C26359   8.707   2.349   4.541 -0.0937  0.0741 -0.4536
  196MOL0     C26360   8.714   2.481   4.573 -0.5760  0.2438 -0.3521
  196MOL0     O26361   8.675   2.515   4.699  0.2123 -0.6373 -0.3856
  196MOL0     C26362   8.697   2.648   4.751 -0.0190  0.1433  1.0917
  196MOL0     C26363   8.675   2.649   4.892 -0.0695 -0.0306 -0.4540
  196MOL0     C26364   8.770   2.563   4.976 -0.4244  0.1963  0.9075
  196MOL0     C26365   8.756   2.569   5.126  0.8602 -1.2928  0.1824
  196MOL0     C26366   8.892   2.549   5.189  0.5128  1.4999 -0.2586
  196MOL0     C26367   8.882   2.525   5.339 -0.1815 -0.0327  0.1234
  196MOL0     C26368   9.021   2.501   5.395  0.3062  0.0470 -0.3217
  196MOL0     C26369   9.026   2.437   5.535  0.1340  0.1523  0.8202
  196MOL0    Cl26370   8.927   2.301   5.546  0.3291 -0.1553 -0.4338
  196MOL0     C26371   8.764   2.573   4.481  0.9847 -0.8912 -0.0449
  196MOL0     C26372   8.805   2.529   4.359 -0.2969 -0.1818 -0.2283
  196MOL0     O26373   8.973   2.221   4.249 -0.7332  0.1346  0.9797
  196MOL0     C26374   8.842   2.334   3.923  0.0209  0.0247  0.2356
  196MOL0     C26375   8.858   2.328   3.786 -0.0000  0.8608 -0.3467
  196MOL0     N26376   9.060   1.808   3.405  0.5355 -0.9319  0.5443
  196MOL0     N26377   9.108   1.696   3.385 -0.4472 -0.4003  0.8902
  196MOL0     C26378   8.780   1.823   2.427  0.1776 -0.9036 -0.5999
  196MOL0     C26379   8.654   1.779   2.391 -1.0745 -0.0640  0.3038
  196MOL0     C26380   8.194   1.792   2.397 -0.0213 -0.5986  0.8675
  196MOL0     C26381   8.156   1.656   2.440 -0.2128 -0.3777  0.6149
  196MOL0     C26382   8.029   1.623   2.464  0.0206 -0.7883 -0.5964
  196MOL0     C26383   7.927   1.721   2.456 -0.0834 -0.3087  0.1314
  196MOL0     O26384   7.798   1.692   2.481  0.3702  0.3057  0.8027
  196MOL0     C26385   7.760   1.562   2.531  0.6125 -0.4206 -0.7307
  196MOL0     C26386   7.610   1.568   2.558  0.3184 -1.3197  0.5547
  196MOL0     C26387   7.534   1.429   2.570 -0.1688 -0.4637  0.5399
  196MOL0     C26388   7.551   1.352   2.702 -0.0504 -0.4861  0.0866
  196MOL0     C26389   7.682   1.294   2.731  0.2649 -0.2981  0.6174
  196MOL0     C26390   7.783   1.242   2.763  0.6953  0.0550 -0.7119
  196MOL0     C26391   7.962   1.850   2.395 -0.3114  0.6238  1.0117
  196MOL0     C26392   8.094   1.887   2.370  0.0249  0.9048 -0.3046
  196MOL0     H26393   8.493   1.776   2.678  0.6044 -3.4926 -0.7407
  196MOL0     H26394   8.721   1.876   2.764 -0.2328  0.0114 -0.3939
  196MOL0     H26395   9.011   1.745   2.536  1.2156 -0.5463 -0.3257
  196MOL0     H26396   9.038   1.901   2.454  2.4654  0.8218  0.6715
  196MOL0     H26397   9.254   1.819   2.588 -0.4121 -1.3190 -0.0103
  196MOL0     H26398   9.189   1.967   2.647  3.3600 -1.3354  0.4099
  196MOL0     H26399   9.104   1.875   2.837 -2.5772 -0.4551 -1.7720
  196MOL0     H26400   9.056   1.731   2.761  0.0331  0.2395  1.3212
  196MOL0     H26401   9.308   1.654   2.772 -0.5870  0.6659 -0.5678
  196MOL0     H26402   9.351   1.802   2.831 -0.8094  0.8282  1.5746
  196MOL0     H26403   9.243   1.781   3.031 -1.2220 -1.7895  3.4348
  196MOL0     H26404   9.140   1.641   2.998  0.0453 -0.6090 -0.7725
  196MOL0     H26405   9.355   1.510   2.950  1.2963  0.1790 -1.9444
  196MOL0     H26406   9.445   1.638   3.031 -1.3539  2.3437 -1.7628
  196MOL0     H26407   9.204   1.516   3.157 -0.2576 -0.1519 -0.8966
  196MOL0     H26408   9.357   1.438   3.175 -2.7761 -1.5729  0.1332
  196MOL0     H26409   9.433   1.673   3.292 -0.7054  0.3334 -0.2628
  196MOL0     H26410   9.336   1.553   3.382 -3.1371  0.1339  0.1699
  196MOL0     H26411   9.322   1.908   3.246 -0.6158  0.3111  0.1328
  196MOL0     H26412   9.134   2.107   3.438  0.1431  1.6583 -1.6387
  196MOL0     H26413   9.156   2.107   3.262  3.1675  1.2499  2.4348
  196MOL0     H26414   8.894   2.039   3.408  1.1244 -0.5969 -0.2533
  196MOL0     H26415   8.921   2.044   3.233 -0.4985 -0.6647  0.5143
  196MOL0     H26416   8.839   2.274   3.289 -0.6003 -1.2908  1.0909
  196MOL0     H26417   9.009   2.307   3.311 -1.4132  1.1353  0.5595
  196MOL0     H26418   8.778   2.261   3.508  0.8732 -4.1882  1.8026
  196MOL0     H26419   8.908   2.381   3.505 -1.0514  0.0661  0.6750
  196MOL0     H26420   9.053   2.060   3.769  1.2402  1.6745 -2.8277
  196MOL0     H26421   8.978   2.017   4.112 -0.7549  1.2862  0.2056
  196MOL0     H26422   9.067   1.948   3.971 -1.2113 -0.6274  0.1593
  196MOL0     H26423   9.155   2.061   4.069  1.6874 -3.6612 -1.9890
  196MOL0     H26424   8.718   2.202   4.399  3.6368  0.0477 -1.6429
  196MOL0     H26425   8.667   2.277   4.612 -1.4154  0.1916 -1.0485
  196MOL0     H26426   8.798   2.688   4.739 -0.5299  1.2161  0.3325
  196MOL0     H26427   8.617   2.710   4.710 -0.7338 -2.0475 -1.0748
  196MOL0     H26428   8.688   2.754   4.920 -0.0725  0.7337 -3.0380
  196MOL0     H26429   8.577   2.617   4.927  0.7344 -0.1342  1.8991
  196MOL0     H26430   8.870   2.605   4.960 -0.1777 -0.6606  0.1179
  196MOL0     H26431   8.777   2.459   4.944  4.6065  0.9422 -1.3229
  196MOL0     H26432   8.715   2.665   5.157  1.2074 -1.7531  2.2155
  196MOL0     H26433   8.688   2.491   5.159 -0.7231 -0.1602 -0.2860
  196MOL0     H26434   8.964   2.630   5.168  2.5634 -0.3888 -0.8975
  196MOL0     H26435   8.925   2.452   5.151 -1.1013  1.8715 -2.8464
  196MOL0     H26436   8.843   2.616   5.386  2.5231 -0.0359  2.6798
  196MOL0     H26437   8.818   2.439   5.360 -0.3723 -0.1982 -1.0684
  196MOL0     H26438   9.081   2.592   5.404  0.4299 -0.0617 -0.0081
  196MOL0     H26439   9.074   2.432   5.328 -0.5971  0.5119 -1.5522
  196MOL0     H26440   8.992   2.515   5.604  0.4636  0.4776  0.6212
  196MOL0     H26441   9.127   2.416   5.571  0.8242  3.0944  0.9064
  196MOL0     H26442   8.779   2.680   4.493 -1.1067 -0.5762 -0.0062
  196MOL0     H26443   8.840   2.609   4.294 -1.8020 -0.8987 -2.0337
  196MOL0     H26444   8.770   2.403   3.965 -0.0339  0.4297 -0.4982
  196MOL0     H26445   8.796   2.398   3.729  1.4739  2.9339  0.4956
  196MOL0     H26446   8.863   1.842   2.359  0.9249 -1.2807  0.1846
  196MOL0     H26447   8.639   1.744   2.289  1.6034 -2.4170  0.6160
  196MOL0     H26448   8.226   1.574   2.445 -1.5208 -1.5336  0.7838
  196MOL0     H26449   8.008   1.522   2.497  0.0567 -0.7141 -0.3502
  196MOL0     H26450   7.784   1.489   2.454 -0.4702  0.4407 -1.9252
  196MOL0     H26451   7.821   1.544   2.620 -0.6766  0.5728  0.4078
  196MOL0     H26452   7.563   1.616   2.471  3.2075  2.1713  0.7143
  196MOL0     H26453   7.596   1.627   2.649  1.6763 -0.4996  0.2569
  196MOL0     H26454   7.572   1.362   2.492 -2.7739 -0.7305 -0.5984
  196MOL0     H26455   7.431   1.458   2.552 -0.1031  1.1027  2.3552
  196MOL0     H26456   7.487   1.263   2.705  1.5303 -1.6386  2.1240
  196MOL0     H26457   7.524   1.414   2.788  1.4730  0.8998 -0.3765
  196MOL0     H26458   7.872   1.188   2.788  0.3158 -0.2586 -0.0224
  196MOL0     H26459   7.887   1.926   2.378 -2.9099 -1.6467  1.6655
  196MOL0     H26460   8.116   1.980   2.319 -1.5647  2.2347  1.2892
  197MOL0     O26461   0.525   3.771   6.572  0.1411  0.4320 -0.1402
  197MOL0     C26462   0.512   3.776   6.448 -0.0165 -0.2136 -0.3384
  197MOL0     O26463   0.611   3.782   6.358 -0.4182  0.6516 -0.3442
  197MOL0     C26464   0.733   3.749   6.410  0.2117  0.5201  0.8897
  197MOL0     C26465   0.757   3.626   6.467 -0.1555 -0.3163 -0.1090
  197MOL0     C26466   0.884   3.598   6.521 -0.7161  0.1730  0.2922
  197MOL0     C26467   0.983   3.693   6.510 -0.3444  0.6116 -0.2480
  197MOL0     O26468   1.109   3.658   6.556 -0.4577 -0.5213 -0.4972
  197MOL0     C26469   1.140   3.528   6.613  0.2722  0.6954  0.5822
  197MOL0     C26470   1.292   3.530   6.652  0.6842  0.4928 -0.0153
  197MOL0     C26471   1.381   3.560   6.524 -0.7366  0.4011  0.0952
  197MOL0     C26472   1.531   3.586   6.548 -0.6013 -0.8655  0.5064
  197MOL0     C26473   1.585   3.508   6.662 -0.0829 -0.9154 -0.0882
  197MOL0     C26474   1.743   3.509   6.657 -0.7784 -0.0074 -0.1733
  197MOL0     C26475   1.798   3.445   6.790 -0.1444 -0.2695  0.1288
  197MOL0     C26476   1.772   3.533   6.919 -0.1229 -1.1502 -0.3018
  197MOL0     N26477   1.844   3.473   7.033  0.1261  0.3180 -0.6218
  197MOL0     C26478   1.970   3.511   7.075 -0.3608  1.1976  0.1387
  197MOL0     C26479   2.006   3.423   7.164 -0.3857  0.5912 -1.3009
  197MOL0     C26480   2.146   3.428   7.225  0.3432  0.8073  0.2396
  197MOL0     C26481   2.219   3.297   7.205 -0.2131  0.3507  0.1656
  197MOL0     C26482   2.354   3.275   7.286  0.1911  0.5834  0.0018
  197MOL0     C26483   2.407   3.135   7.264 -0.6583 -0.1557 -0.0967
  197MOL0     O26484   2.542   3.159   7.236 -0.6687  0.2085  0.5012
  197MOL0     C26485   2.616   3.052   7.191  0.0273 -1.1494 -0.2982
  197MOL0     C26486   2.556   2.932   7.152  0.7358 -0.3741  0.6514
  197MOL0     C26487   2.635   2.821   7.121 -0.6975 -0.5610 -0.5086
  197MOL0     C26488   2.567   2.683   7.088 -0.7119 -0.3225  0.2525
  197MOL0     C26489   2.782   2.836   7.115 -0.0729  0.0510  0.5766
  197MOL0     C26490   2.882   2.731   7.065  0.3923 -0.3098 -1.5421
  197MOL0     O26491   3.020   2.740   7.094  0.5751  0.0090 -0.0244
  197MOL0     C26492   3.101   2.628   7.120  0.0801 -0.2122  0.0047
  197MOL0     C26493   3.054   2.505   7.151 -0.2393 -1.2345 -0.1066
  197MOL0     C26494   3.134   2.397   7.171 -0.0168  0.0036 -0.0524
  197MOL0     C26495   3.271   2.405   7.167  0.2647 -0.3151 -0.2949
  197MOL0     O26496   3.344   2.292   7.186  1.0923 -0.0016  0.7303
  197MOL0     C26497   3.483   2.299   7.206  0.1258 -0.0736 -0.8896
  197MOL0     C26498   3.514   2.152   7.225  0.0561  0.5378  0.2144
  197MOL0     C26499   3.643   2.148   7.302  1.1194  0.2711  0.4579
  197MOL0     C26500   3.669   1.995   7.311  0.7572  0.1221 -0.4792
  197MOL0     C26501   3.797   1.952   7.397 -0.0944 -0.4302  0.3264
  197MOL0     C26502   3.921   1.987   7.312  0.0868  1.3682 -0.4956
  197MOL0     C26503   4.051   1.926   7.368  0.4336  0.6117  0.3515
  197MOL0     C26504   4.174   1.967   7.286  0.8048 -0.0539 -0.6589
  197MOL0    Cl26505   4.208   2.138   7.312 -0.0637 -0.4295  0.2912
  197MOL0     C26506   3.323   2.533   7.142 -1.1800 -0.9010  0.2299
  197MOL0     C26507   3.237   2.648   7.120 -0.2014  0.9515 -0.4740
  197MOL0     O26508   2.830   2.628   7.024 -0.3028  0.0976  0.3569
  197MOL0     C26509   2.833   2.964   7.148  0.6104 -0.4975 -0.6941
  197MOL0     C26510   2.749   3.071   7.184 -0.0318  0.6343 -0.0478
  197MOL0     N26511   1.902   3.340   7.186 -0.1920  0.0905 -0.3651
  197MOL0     N26512   1.794   3.379   7.116  0.6220  0.8711  0.4159
  197MOL0     C26513   0.955   3.820   6.460 -0.8396  0.4103 -0.4886
  197MOL0     C26514   0.834   3.842   6.401  0.1863  0.1623  0.5905
  197MOL0     C26515   0.376   3.778   6.392 -1.2775 -0.1158  0.7592
  197MOL0     C26516   0.259   3.782   6.468  0.5573  0.4465  0.4176
  197MOL0     C26517   0.139   3.787   6.399 -0.8282 -0.0045 -0.1773
  197MOL0     C26518   0.128   3.791   6.260 -0.6042  0.4186  0.0441
  197MOL0     O26519   0.014   3.806   6.193  0.6395  0.5422 -1.6631
  197MOL0     C26520  -0.107   3.800   6.267 -0.5109 -0.8448  0.1935
  197MOL0     C26521  -0.240   3.808   6.191 -0.7784  0.4544 -0.0922
  197MOL0     C26522  -0.239   3.901   6.067 -0.7473  0.0958  0.3991
  197MOL0     C26523  -0.379   3.904   5.996 -0.0948  0.6056 -0.4977
  197MOL0     C26524  -0.374   4.003   5.889 -0.6664  0.2222 -0.4358
  197MOL0     C26525  -0.362   4.076   5.790  0.3621 -0.7887  0.2815
  197MOL0     C26526   0.244   3.764   6.183  0.0810 -0.4304  0.1583
  197MOL0     C26527   0.364   3.745   6.251 -0.3112 -0.3393 -0.3999
  197MOL0     H26528   0.679   3.551   6.464  0.3399 -0.8291 -2.6188
  197MOL0     H26529   0.897   3.503   6.571 -2.8474 -0.2490  0.1296
  197MOL0     H26530   1.109   3.500   6.714  0.0043  1.3601  0.6862
  197MOL0     H26531   1.127   3.448   6.539  0.1257  1.2801 -0.0294
  197MOL0     H26532   1.299   3.610   6.726  0.4219 -0.4624  1.0644
  197MOL0     H26533   1.309   3.436   6.705 -3.1757  1.8442  4.2469
  197MOL0     H26534   1.363   3.478   6.453 -0.4729  0.3840  0.0458
  197MOL0     H26535   1.351   3.650   6.470 -1.6930 -0.8273 -1.5215
  197MOL0     H26536   1.575   3.564   6.450 -3.8333  1.0230 -1.5988
  197MOL0     H26537   1.542   3.694   6.563  1.4035 -0.8283 -0.8806
  197MOL0     H26538   1.542   3.543   6.757 -2.7869 -0.6302 -1.3130
  197MOL0     H26539   1.546   3.406   6.666  0.0909 -0.9447  2.3623
  197MOL0     H26540   1.762   3.448   6.568 -0.2493 -0.9659  0.5686
  197MOL0     H26541   1.783   3.610   6.657  0.8240 -0.6109  0.4509
  197MOL0     H26542   1.760   3.342   6.799 -1.8391  0.1289 -1.8195
  197MOL0     H26543   1.905   3.429   6.778 -0.6067 -2.8261 -1.4600
  197MOL0     H26544   1.666   3.555   6.935 -0.3650  0.9570 -3.7641
  197MOL0     H26545   1.813   3.634   6.907 -0.2423 -1.0277  0.2657
  197MOL0     H26546   2.035   3.586   7.030  0.0962 -0.6793 -2.5859
  197MOL0     H26547   2.199   3.508   7.172 -0.9327  0.1869 -2.1228
  197MOL0     H26548   2.143   3.452   7.332  1.2600 -0.0472  0.4650
  197MOL0     H26549   2.235   3.265   7.102 -0.1477  1.5239 -0.1982
  197MOL0     H26550   2.149   3.222   7.243  2.6652 -1.8745  1.4815
  197MOL0     H26551   2.342   3.285   7.394  1.3881  1.1343  0.1033
  197MOL0     H26552   2.421   3.355   7.252  0.2689  0.8020  0.6556
  197MOL0     H26553   2.354   3.089   7.181 -0.8080 -1.4913  0.7126
  197MOL0     H26554   2.399   3.076   7.355  1.2324  0.7389  0.7187
  197MOL0     H26555   2.448   2.922   7.144  0.8522 -0.7296 -0.8315
  197MOL0     H26556   2.622   2.596   7.125 -1.3203 -0.2298  1.4193
  197MOL0     H26557   2.466   2.667   7.127  0.3750 -1.4564  2.8568
  197MOL0     H26558   2.578   2.666   6.981 -1.7570 -1.7693  0.3401
  197MOL0     H26559   2.948   2.481   7.154 -0.3754 -0.6568 -0.1854
  197MOL0     H26560   3.085   2.300   7.168  0.4045 -0.1811 -1.2468
  197MOL0     H26561   3.541   2.343   7.124 -0.6245  4.3232  0.6575
  197MOL0     H26562   3.509   2.368   7.287 -2.0640 -1.0242  0.7334
  197MOL0     H26563   3.442   2.102   7.290  2.4645 -0.0294  2.6163
  197MOL0     H26564   3.516   2.091   7.135  1.6816  0.5757  0.1810
  197MOL0     H26565   3.629   2.196   7.399 -0.6683  3.9352 -1.3832
  197MOL0     H26566   3.731   2.190   7.253  0.8792 -1.1218 -1.2741
  197MOL0     H26567   3.586   1.951   7.368 -1.0002  1.1370 -2.1542
  197MOL0     H26568   3.684   1.940   7.218 -2.3728 -1.9755  0.1127
  197MOL0     H26569   3.806   1.845   7.419  0.2882 -0.7706 -1.3009
  197MOL0     H26570   3.810   2.006   7.491  0.2526 -1.7317  1.0454
  197MOL0     H26571   3.893   1.940   7.217 -2.9435  0.6709  0.6108
  197MOL0     H26572   3.929   2.092   7.283  1.3536  0.8119 -2.3500
  197MOL0     H26573   4.048   1.817   7.362 -1.8428  0.6206  0.3780
  197MOL0     H26574   4.075   1.945   7.473  1.3165 -1.7498  0.6331
  197MOL0     H26575   4.161   1.940   7.181 -1.1523  1.8508 -0.9871
  197MOL0     H26576   4.263   1.911   7.316 -0.7471 -2.7345 -0.7709
  197MOL0     H26577   3.428   2.560   7.136 -1.2645 -0.7994 -0.9458
  197MOL0     H26578   3.283   2.745   7.102 -0.3203  0.4647 -4.0461
  197MOL0     H26579   2.937   2.982   7.120  0.4907  0.2278 -0.7118
  197MOL0     H26580   2.790   3.171   7.177  0.6506  0.3548 -0.1139
  197MOL0     H26581   1.037   3.891   6.463  0.1462 -0.6154 -1.6965
  197MOL0     H26582   0.813   3.932   6.344 -0.3938 -0.0058  0.5353
  197MOL0     H26583   0.253   3.799   6.575 -1.1930 -1.6779  0.7313
  197MOL0     H26584   0.056   3.825   6.457  1.7470  3.9994  1.2818
  197MOL0     H26585  -0.116   3.706   6.322  1.3189 -1.8728 -1.1467
  197MOL0     H26586  -0.119   3.884   6.335 -1.3882 -0.0933 -0.8475
  197MOL0     H26587  -0.316   3.831   6.266 -1.8072 -0.9473 -0.6790
  197MOL0     H26588  -0.257   3.707   6.155  0.1084 -0.1038  0.9677
  197MOL0     H26589  -0.168   3.861   5.994 -0.2287  0.5577  0.6456
  197MOL0     H26590  -0.203   4.000   6.095 -0.0585  0.1442 -0.6074
  197MOL0     H26591  -0.454   3.921   6.074  0.6560 -1.1446  0.6646
  197MOL0     H26592  -0.404   3.807   5.952  3.4785 -0.6159 -0.1615
  197MOL0     H26593  -0.357   4.132   5.699  2.2922  0.0396  0.8422
  197MOL0     H26594   0.257   3.761   6.075 -1.7944 -1.4916 -0.0942
  197MOL0     H26595   0.454   3.717   6.197  1.6628  3.2812  0.6914
  198MOL0     O26596  10.689   2.133   7.822 -0.5670 -0.6516  0.4476
  198MOL0     C26597  10.632   2.199   7.908 -0.5627 -0.3222  0.0964
  198MOL0     O26598  10.515   2.254   7.897  0.0798 -0.3553  0.8822
  198MOL0     C26599  10.428   2.258   7.786  0.2879  0.1298 -1.1777
  198MOL0     C26600  10.352   2.376   7.775  0.5007  0.1528 -0.2669
  198MOL0     C26601  10.280   2.409   7.659 -0.3225 -0.0362  0.5012
  198MOL0     C26602  10.273   2.315   7.556  0.3229  0.3824 -0.0189
  198MOL0     O26603  10.196   2.360   7.447  0.1424 -0.1164  0.2104
  198MOL0     C26604  10.204   2.291   7.320  0.2616 -0.1624 -0.9200
  198MOL0     C26605  10.069   2.226   7.277 -0.1403  0.0754 -0.0577
  198MOL0     C26606  10.038   2.099   7.360  0.8780 -0.3869 -0.4237
  198MOL0     C26607  10.054   1.977   7.273  0.0219  1.1085  0.7063
  198MOL0     C26608  10.001   1.851   7.327  0.4439 -0.4289  0.1614
  198MOL0     C26609  10.057   1.795   7.460 -0.3841 -0.2099  0.9807
  198MOL0     C26610   9.971   1.680   7.522 -0.3337 -0.3525  1.3239
  198MOL0     C26611   9.921   1.576   7.407  0.2286  0.7223  0.5242
  198MOL0     N26612   9.781   1.588   7.373  0.0516 -0.1776  0.5211
  198MOL0     C26613   9.661   1.534   7.431 -0.9040 -0.1325 -0.2617
  198MOL0     C26614   9.564   1.573   7.349  0.0994 -0.2419  0.0337
  198MOL0     C26615   9.423   1.519   7.370 -0.4931  0.3798  0.4113
  198MOL0     C26616   9.366   1.575   7.505  1.3020  0.5365 -0.8548
  198MOL0     C26617   9.213   1.545   7.513  0.4542 -0.6889 -0.4752
  198MOL0     C26618   9.157   1.621   7.639 -1.2767  0.2277 -0.2989
  198MOL0     O26619   9.087   1.737   7.613 -0.2763 -0.3983  0.1184
  198MOL0     C26620   8.980   1.779   7.701  0.7236  0.1775  0.6241
  198MOL0     C26621   8.990   1.903   7.757 -0.0499 -0.5948 -0.3919
  198MOL0     C26622   8.906   1.947   7.863 -0.5419  0.1655  0.6149
  198MOL0     C26623   8.919   2.089   7.914 -0.2732 -0.0661 -1.0829
  198MOL0     C26624   8.795   1.856   7.896  0.4338  0.4970 -0.3663
  198MOL0     C26625   8.677   1.892   7.986 -0.0912 -0.2037 -0.5037
  198MOL0     O26626   8.593   1.790   8.011  0.6307  0.5023 -0.4329
  198MOL0     C26627   8.462   1.814   8.045  0.5877 -0.3527 -0.1909
  198MOL0     C26628   8.383   1.876   7.949  0.2014 -1.2124  0.1656
  198MOL0     C26629   8.249   1.903   7.968 -0.0430  0.0853  0.4684
  198MOL0     C26630   8.182   1.875   8.088 -0.3582 -0.2884 -0.0316
  198MOL0     O26631   8.059   1.933   8.105 -0.8477 -0.1422  0.7391
  198MOL0     C26632   7.982   1.891   8.214 -0.1177 -0.1326  0.3297
  198MOL0     C26633   7.840   1.960   8.204 -1.0331 -0.8848  0.7196
  198MOL0     C26634   7.733   1.875   8.267  0.1789 -0.9123 -0.2703
  198MOL0     C26635   7.612   1.968   8.305  0.1973 -0.6870 -0.1948
  198MOL0     C26636   7.493   1.878   8.330 -0.4983  0.5968  0.1587
  198MOL0     C26637   7.406   1.861   8.200 -0.2105  0.4036  0.0419
  198MOL0     C26638   7.304   1.757   8.204  0.3947 -0.5768  0.3828
  198MOL0     C26639   7.232   1.745   8.073  0.4626  0.0229 -0.1688
  198MOL0    Cl26640   7.081   1.845   8.106  0.2805  0.7937  0.3689
  198MOL0     C26641   8.256   1.814   8.192  0.7025  0.3242 -1.0729
  198MOL0     C26642   8.395   1.785   8.170 -0.8843 -0.0789  1.0508
  198MOL0     O26643   8.659   2.014   8.019 -0.4829 -0.2346 -0.1828
  198MOL0     C26644   8.781   1.732   7.831  0.2366 -0.1423  0.1639
  198MOL0     C26645   8.872   1.692   7.736  0.1802  0.3856  0.1844
  198MOL0     N26646   9.619   1.642   7.241  0.6126 -1.1452 -0.1631
  198MOL0     N26647   9.741   1.651   7.255 -1.3807 -0.0688 -0.0577
  198MOL0     C26648  10.345   2.190   7.575  0.1516 -0.2623 -0.1927
  198MOL0     C26649  10.427   2.169   7.684 -0.8113 -0.3705 -0.3005
  198MOL0     C26650  10.709   2.222   8.037  0.2400  0.4038  0.4623
  198MOL0     C26651  10.847   2.195   8.058 -0.4395  0.2866  1.1449
  198MOL0     C26652  10.915   2.237   8.170  0.4423 -0.0254 -1.1659
  198MOL0     C26653  10.845   2.307   8.277  0.3477  0.3156 -0.6063
  198MOL0     O26654  10.918   2.341   8.392  0.5778  0.5691  0.2326
  198MOL0     C26655  10.844   2.326   8.522  0.5519 -0.1046 -0.1152
  198MOL0     C26656  10.837   2.184   8.573 -0.0983 -0.0407  0.0392
  198MOL0     C26657  10.976   2.117   8.609  0.0188 -0.0968  0.0689
  198MOL0     C26658  11.006   2.013   8.506  0.3609 -0.5254  0.7372
  198MOL0     C26659  11.137   1.957   8.541 -0.5767 -0.1150  0.2440
  198MOL0     C26660  11.253   1.910   8.575 -0.2770 -0.1724 -0.3980
  198MOL0     C26661  10.706   2.338   8.252 -0.1625 -0.6403  0.8477
  198MOL0     C26662  10.639   2.300   8.136  0.1051  0.3962  0.1647
  198MOL0     H26663  10.361   2.444   7.859 -1.6716  0.4514 -0.2037
  198MOL0     H26664  10.227   2.503   7.657 -0.5443 -0.0980  2.1333
  198MOL0     H26665  10.223   2.374   7.252  0.7941  2.2577  1.9813
  198MOL0     H26666  10.286   2.221   7.303 -2.0928 -2.5649 -3.4759
  198MOL0     H26667   9.980   2.287   7.293 -2.4648 -3.4330  1.6545
  198MOL0     H26668  10.088   2.197   7.174  1.3553  1.4305 -0.1998
  198MOL0     H26669  10.103   2.092   7.448  0.0615 -3.3604  0.0481
  198MOL0     H26670   9.935   2.097   7.398  0.4514  1.1764 -1.4013
  198MOL0     H26671  10.001   1.991   7.179 -3.4718 -0.8661  2.2082
  198MOL0     H26672  10.161   1.956   7.259 -0.1807 -0.5020  1.4145
  198MOL0     H26673   9.893   1.861   7.342  0.3590  0.3736 -0.9028
  198MOL0     H26674  10.014   1.770   7.254 -3.2464 -2.5482  1.5787
  198MOL0     H26675  10.161   1.762   7.448  0.0297  0.0261  3.3489
  198MOL0     H26676  10.060   1.875   7.536  1.4659  0.7298 -0.0093
  198MOL0     H26677  10.044   1.626   7.582 -2.3004 -2.8556  1.6271
  198MOL0     H26678   9.882   1.721   7.570 -1.3462 -0.3241 -0.4787
  198MOL0     H26679   9.950   1.478   7.447 -0.0307  0.2432 -0.4329
  198MOL0     H26680   9.979   1.579   7.314  2.1685  1.1384  1.6871
  198MOL0     H26681   9.649   1.476   7.522  2.7100 -1.7915 -0.6562
  198MOL0     H26682   9.363   1.555   7.286 -2.7443 -0.1938  1.6680
  198MOL0     H26683   9.415   1.410   7.361 -2.1829  0.6334 -2.3445
  198MOL0     H26684   9.374   1.684   7.510  2.9986  0.4012  0.6579
  198MOL0     H26685   9.415   1.527   7.590 -1.6449 -0.9095  0.1549
  198MOL0     H26686   9.197   1.437   7.516 -1.7732 -0.4260 -1.1613
  198MOL0     H26687   9.169   1.583   7.420  2.4773  0.1515 -1.1632
  198MOL0     H26688   9.242   1.639   7.706 -1.4108  1.7564 -0.5062
  198MOL0     H26689   9.100   1.549   7.699 -0.3152 -1.8126 -1.6803
  198MOL0     H26690   9.068   1.977   7.740 -0.0716 -0.6339 -0.6693
  198MOL0     H26691   8.861   2.148   7.843  0.1412  0.3408 -1.0822
  198MOL0     H26692   8.884   2.104   8.016  2.6877 -0.5888  0.0956
  198MOL0     H26693   9.022   2.124   7.917  0.3772 -1.8935  1.1547
  198MOL0     H26694   8.433   1.915   7.861  0.3708  0.9728  1.1336
  198MOL0     H26695   8.192   1.959   7.894 -0.2619 -1.9138 -0.9942
  198MOL0     H26696   7.973   1.782   8.215 -1.7983 -0.0618 -1.2363
  198MOL0     H26697   8.026   1.932   8.306  1.9460  1.7584 -1.3955
  198MOL0     H26698   7.854   2.048   8.268  0.3619 -0.4451 -0.1417
  198MOL0     H26699   7.809   1.981   8.101  0.5213 -3.3661 -0.3585
  198MOL0     H26700   7.777   1.839   8.361 -0.2166  3.2095  1.7146
  198MOL0     H26701   7.709   1.794   8.197 -1.2314 -1.8514  1.2082
  198MOL0     H26702   7.643   2.032   8.389 -0.3966  0.6254 -0.9579
  198MOL0     H26703   7.595   2.040   8.225  1.1153 -0.9020 -0.6052
  198MOL0     H26704   7.422   1.921   8.402  0.7164  1.1235  1.0744
  198MOL0     H26705   7.527   1.777   8.355  1.0212  1.3323  1.1915
  198MOL0     H26706   7.379   1.963   8.172  2.6168  0.2553 -4.1991
  198MOL0     H26707   7.483   1.836   8.125  0.1150 -1.4596  0.9384
  198MOL0     H26708   7.236   1.778   8.287  2.2523  0.7704  1.6375
  198MOL0     H26709   7.347   1.660   8.231 -3.7171 -2.6126  0.5476
  198MOL0     H26710   7.207   1.639   8.064 -2.5229  0.5598  0.7178
  198MOL0     H26711   7.282   1.786   7.984  0.1360  1.7678  0.4173
  198MOL0     H26712   8.202   1.798   8.285  0.5961  2.7165 -0.6436
  198MOL0     H26713   8.456   1.734   8.244 -1.1756  1.3424  2.3183
  198MOL0     H26714   8.698   1.663   7.845  0.4437 -0.2391  0.9599
  198MOL0     H26715   8.865   1.596   7.686  0.7073  1.2952 -1.7378
  198MOL0     H26716  10.343   2.113   7.498  0.7572 -1.3261  0.8124
  198MOL0     H26717  10.501   2.090   7.680  1.6855  1.8519 -0.8086
  198MOL0     H26718  10.906   2.164   7.973  3.2062  2.1683  2.7632
  198MOL0     H26719  11.018   2.205   8.181  0.2914  0.1536  1.6377
  198MOL0     H26720  10.896   2.392   8.592  0.3094 -0.2862  0.2368
  198MOL0     H26721  10.742   2.361   8.506  0.1680 -1.3087 -0.4250
  198MOL0     H26722  10.798   2.116   8.497  2.8057  0.1452 -1.7955
  198MOL0     H26723  10.772   2.183   8.661 -0.1998 -1.0782 -0.0263
  198MOL0     H26724  10.959   2.062   8.702  2.6074 -4.2008 -1.6333
  198MOL0     H26725  11.059   2.182   8.639 -1.4003  0.5742  2.8560
  198MOL0     H26726  11.018   2.045   8.402 -0.1509 -1.3129  0.4248
  198MOL0     H26727  10.935   1.933   8.528 -0.9179  1.4790  5.0100
  198MOL0     H26728  11.337   1.866   8.624  0.0428 -0.6686 -1.3615
  198MOL0     H26729  10.644   2.389   8.326 -1.3394 -2.7555  1.4222
  198MOL0     H26730  10.543   2.349   8.130  0.7804  1.9706  1.3237
  199MOL0     O26731   1.962   9.472   3.517 -1.3051  0.4467  0.4655
  199MOL0     C26732   1.994   9.433   3.630  1.0821  0.1242  0.7881
  199MOL0     O26733   2.101   9.479   3.696  0.6682 -0.0459  0.1223
  199MOL0     C26734   2.179   9.584   3.662  0.2351 -0.2964 -0.1354
  199MOL0     C26735   2.150   9.676   3.569  0.1101  0.3363 -1.1121
  199MOL0     C26736   2.231   9.793   3.570  0.1735 -0.9320 -0.4574
  199MOL0     C26737   2.345   9.808   3.655  0.6615 -0.1399  0.2012
  199MOL0     O26738   2.410   9.926   3.646  0.5302  0.6049 -0.1167
  199MOL0     C26739   2.501   9.980   3.745 -0.5561 -1.0037 -1.2798
  199MOL0     C26740   2.410  10.013   3.867  0.2658  0.0423 -1.0250
  199MOL0     C26741   2.487  10.106   3.962  0.2688 -0.6743 -0.3215
  199MOL0     C26742   2.436  10.100   4.106  0.0018 -0.8275  0.4270
  199MOL0     C26743   2.522  10.184   4.194  0.5423 -0.4407 -0.3289
  199MOL0     C26744   2.503  10.334   4.173 -0.2468  1.3310 -0.6935
  199MOL0     C26745   2.585  10.415   4.279 -0.3939 -0.5681 -0.3553
  199MOL0     C26746   2.722  10.474   4.222  0.4490 -0.5027  0.4118
  199MOL0     N26747   2.707  10.579   4.123  0.8284  0.0321 -0.1769
  199MOL0     C26748   2.634  10.694   4.146 -0.3540 -0.7345 -0.0008
  199MOL0     C26749   2.640  10.759   4.024  0.0811  0.2443  0.1526
  199MOL0     C26750   2.582  10.893   3.997 -0.3275 -0.3127 -0.0542
  199MOL0     C26751   2.429  10.889   3.979 -0.5017 -0.3286  0.3539
  199MOL0     C26752   2.381  10.921   3.837 -0.6530 -0.3401 -1.1260
  199MOL0     C26753   2.436  10.817   3.739  0.5408 -0.3476 -0.5183
  199MOL0     O26754   2.390  10.854   3.611  0.8353 -0.0981 -1.3622
  199MOL0     C26755   2.425  10.781   3.499 -0.1583  0.7011  0.2141
  199MOL0     C26756   2.324  10.767   3.404  0.2520 -0.8233  0.1200
  199MOL0     C26757   2.344  10.694   3.288 -0.1808  0.2714  0.3850
  199MOL0     C26758   2.223  10.671   3.207 -0.3638 -0.2303 -0.3190
  199MOL0     C26759   2.469  10.631   3.260  0.4642  0.0019 -1.0883
  199MOL0     C26760   2.485  10.527   3.158  0.2106 -1.1034  0.0263
  199MOL0     O26761   2.601  10.453   3.176 -0.0831 -0.6307  0.3062
  199MOL0     C26762   2.639  10.344   3.103 -0.3432  1.1875  0.2526
  199MOL0     C26763   2.543  10.257   3.031 -0.1139 -0.4064 -0.0607
  199MOL0     C26764   2.586  10.130   2.979  0.1858  0.2024 -0.0773
  199MOL0     C26765   2.712  10.087   2.984 -0.0928 -0.2925 -0.0430
  199MOL0     O26766   2.760   9.981   2.905 -0.2960  0.2453  0.0469
  199MOL0     C26767   2.705   9.967   2.775 -0.4783  0.4474  0.2288
  199MOL0     C26768   2.769   9.848   2.693  1.0822  0.4796 -0.0319
  199MOL0     C26769   2.693   9.848   2.551  0.3591  0.3724  0.8227
  199MOL0     C26770   2.769   9.757   2.461  0.1259 -1.1504 -0.1029
  199MOL0     C26771   2.691   9.625   2.443 -0.0781 -0.5226 -0.3030
  199MOL0     C26772   2.781   9.525   2.360  0.3231 -0.4821  0.2562
  199MOL0     C26773   2.864   9.442   2.461 -0.5683  0.5882 -0.4072
  199MOL0     C26774   2.874   9.301   2.409  0.3703  0.2181  0.4510
  199MOL0    Cl26775   2.725   9.215   2.416  0.6255  0.0106 -0.0412
  199MOL0     C26776   2.802  10.161   3.066 -0.5250  0.0717  0.7621
  199MOL0     C26777   2.768  10.286   3.123  0.0661 -0.2443 -0.1436
  199MOL0     O26778   2.404  10.511   3.065 -0.1937  0.9113  0.3447
  199MOL0     C26779   2.567  10.650   3.360  0.2765 -0.0152  0.3487
  199MOL0     C26780   2.551  10.718   3.483  0.3931 -0.6862 -0.2911
  199MOL0     N26781   2.701  10.681   3.927  0.5929 -0.6761 -0.5972
  199MOL0     N26782   2.740  10.572   3.989  1.1812 -0.9397  0.4558
  199MOL0     C26783   2.377   9.711   3.743 -0.7071  0.9299 -0.7870
  199MOL0     C26784   2.296   9.600   3.750  0.0884  0.8036  0.0805
  199MOL0     C26785   1.907   9.323   3.698  0.0922 -0.2529 -0.1735
  199MOL0     C26786   1.798   9.270   3.626  0.1619  0.4911 -0.4847
  199MOL0     C26787   1.723   9.168   3.685  0.0378  0.7581 -0.0767
  199MOL0     C26788   1.746   9.116   3.812 -0.7056 -0.4841  0.5276
  199MOL0     O26789   1.682   9.013   3.870  1.0198 -0.2120  0.3057
  199MOL0     C26790   1.548   8.983   3.831  0.2134  0.1929 -0.2480
  199MOL0     C26791   1.551   8.852   3.759 -0.4018  0.1579  0.5413
  199MOL0     C26792   1.416   8.785   3.731 -0.4172 -0.0587  0.3620
  199MOL0     C26793   1.438   8.632   3.703  0.4219 -0.8128 -0.4941
  199MOL0     C26794   1.483   8.566   3.826  0.1612 -0.3463 -0.0630
  199MOL0     C26795   1.507   8.525   3.935  0.1023  0.6530  0.2352
  199MOL0     C26796   1.854   9.175   3.882  0.9301 -0.7341 -1.0660
  199MOL0     C26797   1.929   9.278   3.826  0.3349 -0.1045  0.3371
  199MOL0     H26798   2.056   9.683   3.514 -2.4236 -0.9603  2.6075
  199MOL0     H26799   2.218   9.869   3.493  0.5237 -1.1730 -0.7573
  199MOL0     H26800   2.582   9.914   3.778  1.0241  0.3738 -2.2955
  199MOL0     H26801   2.550  10.072   3.713 -0.3493 -0.0776  1.4550
  199MOL0     H26802   2.326  10.073   3.832 -0.2346  0.3660  0.6568
  199MOL0     H26803   2.377   9.923   3.920 -2.7600  2.8526  2.4477
  199MOL0     H26804   2.589  10.066   3.972  1.2248  2.0909  3.0135
  199MOL0     H26805   2.504  10.205   3.919 -1.4067 -0.3458 -0.2900
  199MOL0     H26806   2.335  10.141   4.117 -0.1231 -0.1374 -2.5763
  199MOL0     H26807   2.422   9.997   4.138 -1.9620  0.1762  3.2255
  199MOL0     H26808   2.483  10.168   4.296 -4.1541  4.9454 -0.7558
  199MOL0     H26809   2.627  10.159   4.180  0.6743 -0.1090  0.0603
  199MOL0     H26810   2.539  10.368   4.075 -2.2249 -0.6266 -2.1978
  199MOL0     H26811   2.397  10.357   4.184 -1.0312 -1.4768 -1.6094
  199MOL0     H26812   2.521  10.492   4.323  0.8007  0.4099 -0.2718
  199MOL0     H26813   2.616  10.343   4.355 -1.6350  1.0774  1.8240
  199MOL0     H26814   2.766  10.382   4.183  0.1049 -0.5255  0.0721
  199MOL0     H26815   2.789  10.512   4.300  2.7025 -2.2025 -0.5893
  199MOL0     H26816   2.582  10.736   4.232 -2.0197  1.3600 -1.8978
  199MOL0     H26817   2.588  10.943   4.094 -4.1369 -0.1604  0.2433
  199MOL0     H26818   2.620  10.950   3.912 -3.1059  1.9912  0.0795
  199MOL0     H26819   2.393  10.970   4.043  0.3966 -0.8644  1.5805
  199MOL0     H26820   2.380  10.797   4.010  0.0518  0.2204  3.1885
  199MOL0     H26821   2.415  11.022   3.811 -0.1541  0.1070  1.0513
  199MOL0     H26822   2.272  10.924   3.839 -0.6769 -1.2857 -0.0049
  199MOL0     H26823   2.407  10.715   3.768  4.4888 -3.1609 -4.9676
  199MOL0     H26824   2.546  10.813   3.733  0.4347 -1.7092 -2.7319
  199MOL0     H26825   2.227  10.808   3.429  0.5462  0.2178 -0.3922
  199MOL0     H26826   2.206  10.563   3.193  1.0867 -0.4960 -0.1432
  199MOL0     H26827   2.134  10.705   3.261  1.9246 -0.5770  4.1436
  199MOL0     H26828   2.232  10.720   3.110  0.2938 -1.7663 -1.0653
  199MOL0     H26829   2.437  10.278   3.024  0.5286  3.6469 -0.2210
  199MOL0     H26830   2.509  10.082   2.920 -0.0081 -1.0833  1.1677
  199MOL0     H26831   2.597   9.960   2.785 -0.2133 -3.1574  2.2271
  199MOL0     H26832   2.738  10.056   2.719  2.6175  0.8762  2.4598
  199MOL0     H26833   2.875   9.870   2.708  0.4404  3.1497  1.0550
  199MOL0     H26834   2.756   9.756   2.752  0.1905 -0.0319 -0.9857
  199MOL0     H26835   2.683   9.952   2.518 -4.8447 -0.4842 -1.3053
  199MOL0     H26836   2.588   9.822   2.569 -1.3210  2.6787 -3.8870
  199MOL0     H26837   2.788   9.811   2.368 -1.4913  0.2891  0.3484
  199MOL0     H26838   2.869   9.751   2.505  0.0554 -0.6761  0.1289
  199MOL0     H26839   2.604   9.656   2.385 -2.0048 -0.3252  2.4758
  199MOL0     H26840   2.660   9.577   2.537  2.2499 -0.4345  0.5759
  199MOL0     H26841   2.720   9.460   2.297  0.2849  0.7806 -1.0675
  199MOL0     H26842   2.842   9.581   2.289 -0.0584  1.3509  1.2992
  199MOL0     H26843   2.820   9.438   2.561 -0.5246  1.4820 -0.3474
  199MOL0     H26844   2.959   9.495   2.469 -1.9829  2.9319  3.4885
  199MOL0     H26845   2.941   9.252   2.479 -1.1136  1.0324  2.5478
  199MOL0     H26846   2.905   9.301   2.304 -1.8901  3.1624 -0.3521
  199MOL0     H26847   2.898  10.118   3.094 -0.7802 -0.4953  0.7790
  199MOL0     H26848   2.843  10.331   3.187  0.3420 -0.6615 -0.1720
  199MOL0     H26849   2.661  10.596   3.353  0.8060  1.0746 -2.0868
  199MOL0     H26850   2.631  10.724   3.556  2.0843  2.6444 -2.1595
  199MOL0     H26851   2.466   9.703   3.803 -0.7488 -0.2825 -0.8562
  199MOL0     H26852   2.319   9.521   3.822  0.7122 -0.3627 -1.3552
  199MOL0     H26853   1.764   9.305   3.530  1.0697  0.4206 -0.8440
  199MOL0     H26854   1.650   9.112   3.627  0.3287 -0.4365  0.6929
  199MOL0     H26855   1.497   8.955   3.924 -2.2584 -0.8549 -1.7967
  199MOL0     H26856   1.493   9.065   3.783  1.8613  2.0328  0.8603
  199MOL0     H26857   1.601   8.796   3.839  0.4978  2.0559  1.3713
  199MOL0     H26858   1.611   8.862   3.667  3.0884  0.1268  2.6246
  199MOL0     H26859   1.375   8.826   3.639  2.0706 -1.4445 -1.4932
  199MOL0     H26860   1.350   8.812   3.814 -1.0471  3.1115 -1.0246
  199MOL0     H26861   1.517   8.611   3.630  2.1539 -1.2123  1.4059
  199MOL0     H26862   1.341   8.588   3.677 -0.1673 -0.0770  0.3682
  199MOL0     H26863   1.525   8.489   4.034  0.5473  0.7912  0.2075
  199MOL0     H26864   1.884   9.136   3.978  0.4909  2.7808  0.6640
  199MOL0     H26865   1.991   9.324   3.903  0.3385 -0.1124  0.3391
  200MOL0     O26866   6.122   1.274   5.520  0.5845  0.6763 -0.4990
  200MOL0     C26867   6.166   1.207   5.427  0.6285 -0.2770 -0.4377
  200MOL0     O26868   6.165   1.066   5.415  0.6171 -0.4283  0.2558
  200MOL0     C26869   6.103   0.990   5.518 -1.1375  0.2075  0.3069
  200MOL0     C26870   5.980   1.015   5.585  0.6183  0.2843 -0.6411
  200MOL0     C26871   5.929   0.909   5.669 -1.0332 -0.0942  1.1579
  200MOL0     C26872   6.012   0.800   5.709  0.0425  0.8847  0.1490
  200MOL0     O26873   5.975   0.712   5.811  0.1514 -0.5567  0.2993
  200MOL0     C26874   5.952   0.574   5.783  0.7205  1.1146 -0.6113
  200MOL0     C26875   5.868   0.543   5.656 -0.0277 -0.3789  0.0633
  200MOL0     C26876   5.729   0.601   5.667 -0.7994 -0.4510 -0.2344
  200MOL0     C26877   5.645   0.517   5.770 -0.5282  0.4658 -0.0252
  200MOL0     C26878   5.490   0.534   5.727 -1.2008 -0.1407 -0.9927
  200MOL0     C26879   5.392   0.557   5.848  0.1300  0.2536 -0.9355
  200MOL0     C26880   5.254   0.590   5.818  0.9220 -0.2069  0.3730
  200MOL0     C26881   5.168   0.599   5.942 -0.1752  0.7637 -0.0560
  200MOL0     N26882   5.070   0.705   5.910  0.1601  1.0629 -0.3867
  200MOL0     C26883   4.976   0.689   5.818  0.2649 -0.0650  0.0902
  200MOL0     C26884   4.921   0.816   5.802 -0.5887 -0.1323 -0.6685
  200MOL0     C26885   4.810   0.842   5.708 -0.0626 -0.3850 -0.4627
  200MOL0     C26886   4.676   0.769   5.737 -0.5646 -0.3505  1.0543
  200MOL0     C26887   4.614   0.814   5.875 -0.1626 -0.4445 -0.0792
  200MOL0     C26888   4.481   0.768   5.930 -0.5301  0.7624  0.1894
  200MOL0     O26889   4.481   0.627   5.966  0.2241 -0.4658 -0.4737
  200MOL0     C26890   4.372   0.568   6.015  0.3050  0.1564  0.2386
  200MOL0     C26891   4.390   0.470   6.102  0.2074  0.6414 -0.1112
  200MOL0     C26892   4.284   0.404   6.169  0.5597 -0.1582  0.3238
  200MOL0     C26893   4.329   0.291   6.266  0.4793 -0.1646 -0.3030
  200MOL0     C26894   4.149   0.434   6.120  1.4579  0.3232  0.1331
  200MOL0     C26895   4.022   0.363   6.145 -0.3339  0.7876 -0.2774
  200MOL0     O26896   3.902   0.426   6.163 -0.7106  0.0416 -0.1792
  200MOL0     C26897   3.786   0.355   6.184  0.7841 -0.6337 -0.5508
  200MOL0     C26898   3.729   0.257   6.101 -0.1756  0.7911 -0.0062
  200MOL0     C26899   3.618   0.187   6.141 -0.0291 -0.0376 -0.8613
  200MOL0     C26900   3.543   0.226   6.263  0.5775  0.3914  0.6638
  200MOL0     O26901   3.433   0.150   6.297 -0.0950  0.5120 -1.2199
  200MOL0     C26902   3.408   0.141   6.436 -0.2394 -0.1381 -0.3543
  200MOL0     C26903   3.324   0.019   6.468  0.2996  0.0319 -0.5878
  200MOL0     C26904   3.176   0.023   6.432 -0.1666  0.2549  0.4129
  200MOL0     C26905   3.075   0.036   6.541  0.7266 -0.0016  0.0278
  200MOL0     C26906   2.927   0.022   6.491 -0.0161  0.3607 -0.2149
  200MOL0     C26907   2.885  -0.131   6.482 -0.3996  0.3603  0.5407
  200MOL0     C26908   2.890  -0.202   6.617 -0.2681 -0.3780 -0.4154
  200MOL0     C26909   2.766  -0.282   6.646  0.3537  0.7954 -0.6467
  200MOL0    Cl26910   2.726  -0.399   6.512 -0.3443  0.2957 -0.1454
  200MOL0     C26911   3.601   0.332   6.342 -0.0890  0.3323 -0.6369
  200MOL0     C26912   3.710   0.399   6.301 -0.4310  0.1807  0.2601
  200MOL0     O26913   4.042   0.241   6.164  0.0244  0.2689  0.1291
  200MOL0     C26914   4.138   0.530   6.012  0.2716 -1.6326  0.8220
  200MOL0     C26915   4.246   0.590   5.954 -0.2546 -0.2718  0.2533
  200MOL0     N26916   4.987   0.904   5.882 -0.7924  0.0041  0.6045
  200MOL0     N26917   5.078   0.829   5.950 -0.6602  0.1994  0.5282
  200MOL0     C26918   6.135   0.784   5.652  0.5716  0.3350  0.0281
  200MOL0     C26919   6.173   0.878   5.551 -0.8567 -0.2842  0.4498
  200MOL0     C26920   6.211   1.290   5.315  0.2717  1.1872  0.9661
  200MOL0     C26921   6.240   1.229   5.181 -0.1679  0.3298 -0.0361
  200MOL0     C26922   6.297   1.301   5.081 -0.3669 -0.1850  0.7189
  200MOL0     C26923   6.329   1.442   5.083  0.5978  0.4750 -0.0229
  200MOL0     O26924   6.389   1.501   4.974 -0.1941  0.0619  0.5575
  200MOL0     C26925   6.406   1.643   4.974  0.2457  0.6044 -0.3111
  200MOL0     C26926   6.269   1.716   4.949 -0.5529 -0.1598 -0.5500
  200MOL0     C26927   6.260   1.862   4.967 -0.3786  0.1059  0.7871
  200MOL0     C26928   6.120   1.913   5.007  0.6025 -0.2743  0.2924
  200MOL0     C26929   6.001   1.892   4.925  0.0893 -0.0531  0.1809
  200MOL0     C26930   5.905   1.863   4.855  0.2584 -0.4267 -0.1219
  200MOL0     C26931   6.300   1.495   5.212  0.2134  0.6527 -0.1825
  200MOL0     C26932   6.253   1.420   5.322  0.2588  0.4037 -0.3485
  200MOL0     H26933   5.918   1.104   5.579  0.1532 -0.1066 -2.7562
  200MOL0     H26934   5.835   0.934   5.718 -1.7941  0.5680 -0.5370
  200MOL0     H26935   6.050   0.528   5.767 -0.2866 -0.9102 -1.1797
  200MOL0     H26936   5.903   0.523   5.867 -0.6069 -0.7720 -2.4464
  200MOL0     H26937   5.906   0.587   5.564  0.3956  2.6532  1.5494
  200MOL0     H26938   5.869   0.436   5.634  0.9939 -0.0519 -1.6913
  200MOL0     H26939   5.740   0.701   5.710 -2.4919 -0.7693  1.0553
  200MOL0     H26940   5.679   0.611   5.570 -0.1828  1.4627 -0.4027
  200MOL0     H26941   5.671   0.412   5.754 -2.1739  0.2779 -2.0196
  200MOL0     H26942   5.665   0.540   5.875  0.0719  3.8758 -0.7622
  200MOL0     H26943   5.494   0.620   5.659  1.7294 -0.4813 -1.3672
  200MOL0     H26944   5.458   0.446   5.671 -0.1200 -0.8101 -0.5782
  200MOL0     H26945   5.403   0.463   5.903  1.5155  0.4132 -0.8988
  200MOL0     H26946   5.425   0.629   5.924  1.1502  1.4118 -2.4031
  200MOL0     H26947   5.253   0.689   5.771 -2.8695 -0.4078 -0.3153
  200MOL0     H26948   5.215   0.520   5.744  0.6025 -0.1725  0.5085
  200MOL0     H26949   5.226   0.637   6.027  0.0956  2.6122 -1.0021
  200MOL0     H26950   5.122   0.503   5.965 -0.1507  0.7965  0.1318
  200MOL0     H26951   4.954   0.591   5.777 -2.4692  1.0991 -1.4484
  200MOL0     H26952   4.793   0.949   5.692  5.1309  0.5031 -2.0876
  200MOL0     H26953   4.847   0.794   5.617 -1.1429 -2.1821  0.0148
  200MOL0     H26954   4.703   0.663   5.734  1.0106  0.0441 -1.1911
  200MOL0     H26955   4.608   0.797   5.656  2.3359 -0.3912 -1.5604
  200MOL0     H26956   4.617   0.923   5.884  0.3077 -0.3531 -1.1798
  200MOL0     H26957   4.684   0.771   5.948 -0.1821 -1.5808 -0.7148
  200MOL0     H26958   4.398   0.773   5.859 -0.6293 -1.5108  0.0684
  200MOL0     H26959   4.458   0.824   6.020 -1.7747  1.4179 -0.5099
  200MOL0     H26960   4.491   0.435   6.118  0.8021  2.7548  1.1026
  200MOL0     H26961   4.307   0.327   6.367  3.1955  0.4329  0.1595
  200MOL0     H26962   4.280   0.194   6.252  1.8337 -0.7308 -1.2257
  200MOL0     H26963   4.437   0.278   6.259  0.4115 -0.8181 -0.1968
  200MOL0     H26964   3.792   0.227   6.017  1.0275 -1.6381  1.6596
  200MOL0     H26965   3.582   0.112   6.072 -2.8772 -1.0055  1.4946
  200MOL0     H26966   3.501   0.128   6.493 -0.2836 -1.9447 -0.6298
  200MOL0     H26967   3.360   0.233   6.471 -1.4803 -0.0174 -2.2672
  200MOL0     H26968   3.366  -0.075   6.432 -2.6112 -1.4435 -0.4285
  200MOL0     H26969   3.332   0.009   6.577  0.4897  0.3000 -0.5766
  200MOL0     H26970   3.155  -0.072   6.382  0.9213  1.0032 -1.5685
  200MOL0     H26971   3.154   0.106   6.364 -1.2605  0.3745  0.8921
  200MOL0     H26972   3.079  -0.046   6.614 -3.7743 -0.6258 -0.1624
  200MOL0     H26973   3.093   0.132   6.589  1.1410 -0.2424  0.3660
  200MOL0     H26974   2.921   0.071   6.394  1.4495 -3.3622 -2.3833
  200MOL0     H26975   2.853   0.073   6.554  1.2940  2.5201 -0.3029
  200MOL0     H26976   2.780  -0.144   6.455 -0.0257 -2.1703  0.0468
  200MOL0     H26977   2.946  -0.183   6.408 -0.5506 -1.4170  1.5901
  200MOL0     H26978   2.918  -0.130   6.694  3.2370 -1.1006 -0.8513
  200MOL0     H26979   2.978  -0.266   6.618 -0.2442 -0.3653 -1.1489
  200MOL0     H26980   2.690  -0.204   6.661  1.8815  2.3138 -0.5432
  200MOL0     H26981   2.785  -0.335   6.739  0.7880  1.0616 -0.5810
  200MOL0     H26982   3.544   0.360   6.430 -0.5754 -0.9166 -0.5296
  200MOL0     H26983   3.747   0.473   6.371 -1.1430  0.7853  0.0116
  200MOL0     H26984   4.048   0.573   5.971  2.3788  2.9590  0.2902
  200MOL0     H26985   4.232   0.662   5.874  1.7482  0.9987  0.9774
  200MOL0     H26986   6.206   0.708   5.683 -2.3524 -1.1559  3.8991
  200MOL0     H26987   6.264   0.859   5.496  0.9499  1.0335  2.8254
  200MOL0     H26988   6.223   1.124   5.159 -2.3401  0.5296  0.4217
  200MOL0     H26989   6.311   1.258   4.983  2.0339  1.5579  0.1857
  200MOL0     H26990   6.438   1.671   5.074 -1.5062  0.3453  0.3660
  200MOL0     H26991   6.486   1.649   4.899  1.4305 -1.9746  0.6291
  200MOL0     H26992   6.199   1.674   5.022  0.9502 -1.2608  0.3259
  200MOL0     H26993   6.230   1.678   4.853 -1.8458 -0.3960  0.0516
  200MOL0     H26994   6.296   1.911   4.876  0.6037 -1.7883  0.1081
  200MOL0     H26995   6.326   1.894   5.048 -0.3965 -0.4307  1.0165
  200MOL0     H26996   6.147   2.019   5.019  4.3685 -1.2919  2.8612
  200MOL0     H26997   6.099   1.875   5.107  2.0133  1.1059  1.1712
  200MOL0     H26998   5.817   1.831   4.803 -1.0711  2.7925 -0.0887
  200MOL0     H26999   6.328   1.600   5.225 -0.2884  0.5559  2.0963
  200MOL0     H27000   6.261   1.464   5.421  1.7592 -0.6116  0.0206
  201MOL0     O27001  11.278   0.256  10.186 -0.1636  0.8282 -0.7535
  201MOL0     C27002  11.336   0.249  10.078  0.6877  0.8861 -0.0764
  201MOL0     O27003  11.272   0.252   9.960 -0.2376  0.5113  0.1035
  201MOL0     C27004  11.139   0.267   9.953  0.3453 -0.3794  0.4002
  201MOL0     C27005  11.103   0.398   9.931 -0.0807 -0.0854  0.0505
  201MOL0     C27006  10.969   0.431   9.937 -0.7776 -0.8960  0.5055
  201MOL0     C27007  10.871   0.336   9.962  0.1635  0.5849  0.0818
  201MOL0     O27008  10.734   0.373   9.960  0.3295 -0.5932  0.0502
  201MOL0     C27009  10.693   0.509   9.952  0.2631 -0.0363 -0.3846
  201MOL0     C27010  10.545   0.516   9.939  0.0446 -0.1765  0.0708
  201MOL0     C27011  10.463   0.433  10.029  0.4469  0.0214 -0.1174
  201MOL0     C27012  10.310   0.444  10.006  0.3882  0.5515 -0.2081
  201MOL0     C27013  10.252   0.399   9.865 -0.1097  0.7084 -0.8004
  201MOL0     C27014  10.103   0.357   9.866 -0.3448 -0.1439  0.0439
  201MOL0     C27015   9.999   0.457   9.908  0.2256 -0.3432 -0.2765
  201MOL0     C27016   9.862   0.407   9.878 -0.2233  0.3039 -0.5570
  201MOL0     N27017   9.753   0.495   9.935 -0.2188 -0.5155  0.3901
  201MOL0     C27018   9.764   0.637   9.962 -0.3472  0.7290  0.4372
  201MOL0     C27019   9.636   0.657  10.023  0.6328  0.2554 -0.2015
  201MOL0     C27020   9.588   0.773  10.088  0.0258  0.2247  0.2023
  201MOL0     C27021   9.478   0.835   9.998  0.1783  0.1592 -0.3605
  201MOL0     C27022   9.545   0.890   9.870 -0.2813  0.9198  0.2117
  201MOL0     C27023   9.599   1.029   9.887  0.8196  0.3997 -0.2734
  201MOL0     O27024   9.698   1.053   9.989 -0.0983 -0.0980 -0.0940
  201MOL0     C27025   9.822   1.001   9.973  0.9132  0.3966 -1.1693
  201MOL0     C27026   9.901   0.998   9.850  0.4283  0.5079 -0.1110
  201MOL0     C27027  10.032   0.944   9.843 -0.7744  0.3120 -0.6264
  201MOL0     C27028  10.094   0.944   9.706 -0.0542 -0.3012 -0.6250
  201MOL0     C27029  10.092   0.898   9.965 -0.5473  1.3494  0.5540
  201MOL0     C27030  10.231   0.843   9.978  0.9299  0.5885 -0.4082
  201MOL0     O27031  10.281   0.844  10.105 -1.0569  0.7592  0.9100
  201MOL0     C27032  10.410   0.814  10.142 -0.3343 -0.7312 -0.3177
  201MOL0     C27033  10.523   0.848  10.070  0.0348  1.0503  0.5064
  201MOL0     C27034  10.651   0.819  10.123  0.2878 -0.1668 -0.9044
  201MOL0     C27035  10.662   0.760  10.250 -0.5025  1.4694 -0.5988
  201MOL0     O27036  10.774   0.712  10.308  0.0090 -0.3353 -0.1630
  201MOL0     C27037  10.897   0.717  10.241 -0.9717 -0.4091  0.7930
  201MOL0     C27038  11.000   0.705  10.352  0.5999  0.5006 -0.8416
  201MOL0     C27039  11.140   0.719  10.299 -0.0866  0.1504  0.3733
  201MOL0     C27040  11.195   0.618  10.195 -0.1946  0.0781 -0.3332
  201MOL0     C27041  11.334   0.659  10.129  0.0490  0.0250  0.0869
  201MOL0     C27042  11.432   0.689  10.238  0.1413  0.1980 -0.9622
  201MOL0     C27043  11.572   0.728  10.190  0.8491  0.4199 -0.2805
  201MOL0     C27044  11.663   0.762  10.302 -0.3849  0.3414  0.2502
  201MOL0    Cl27045  11.824   0.785  10.232  0.3395 -0.0109 -0.3576
  201MOL0     C27046  10.546   0.733  10.321 -0.6437  0.6556 -0.3669
  201MOL0     C27047  10.416   0.763  10.271 -0.4949  0.7409  0.9748
  201MOL0     O27048  10.283   0.792   9.881 -0.2897 -0.2817 -0.7736
  201MOL0     C27049  10.017   0.896  10.084 -0.2680 -0.1947  0.5246
  201MOL0     C27050   9.883   0.960  10.089  0.3517 -0.0168 -0.5129
  201MOL0     N27051   9.565   0.539  10.033  0.0797 -0.0292  0.7028
  201MOL0     N27052   9.634   0.445   9.976  1.1225  0.4688  0.3576
  201MOL0     C27053  10.912   0.204   9.979 -0.0275 -0.6745 -0.7756
  201MOL0     C27054  11.048   0.167   9.985 -0.0053  0.0353  0.3695
  201MOL0     C27055  11.481   0.240  10.088  0.3490  0.4131 -0.3092
  201MOL0     C27056  11.541   0.316  10.190  0.6015  0.6287 -0.3514
  201MOL0     C27057  11.680   0.319  10.202 -0.3029  0.2567 -1.0194
  201MOL0     C27058  11.767   0.253  10.109  0.3253  0.3363 -0.5329
  201MOL0     O27059  11.903   0.262  10.114  0.3274 -0.0223  1.0762
  201MOL0     C27060  11.957   0.391  10.081 -0.5359  0.4996  1.1658
  201MOL0     C27061  11.945   0.410   9.929 -0.0025  0.0108  0.2472
  201MOL0     C27062  12.027   0.324   9.850  0.1055  0.8823 -0.3493
  201MOL0     C27063  11.985   0.322   9.702 -0.0693 -0.2719 -0.4890
  201MOL0     C27064  11.880   0.230   9.677  0.3066 -0.2362 -0.3503
  201MOL0     C27065  11.790   0.144   9.663 -0.0931 -0.0668 -0.2383
  201MOL0     C27066  11.707   0.181  10.010 -0.0778  0.7928  0.0177
  201MOL0     C27067  11.567   0.179   9.990 -0.1159  0.6780 -0.6685
  201MOL0     H27068  11.167   0.480   9.901  1.7380 -2.2563 -2.4867
  201MOL0     H27069  10.947   0.537   9.936  0.2618 -0.3700  5.6501
  201MOL0     H27070  10.723   0.559  10.045 -1.0333 -0.0705  0.0706
  201MOL0     H27071  10.737   0.565   9.869  0.8765 -1.4356 -1.0330
  201MOL0     H27072  10.510   0.619   9.936 -5.2720 -1.5577  2.8481
  201MOL0     H27073  10.521   0.469   9.843 -0.8142 -1.1523  0.7463
  201MOL0     H27074  10.493   0.331  10.004  0.6641  0.2439 -0.7872
  201MOL0     H27075  10.490   0.449  10.134  0.4509 -1.7663  0.1832
  201MOL0     H27076  10.263   0.368  10.070  1.7399  0.0430  0.2275
  201MOL0     H27077  10.282   0.549  10.017 -1.1950  0.1299 -0.0068
  201MOL0     H27078  10.277   0.476   9.791 -3.3448  2.3023 -0.4080
  201MOL0     H27079  10.300   0.304   9.840 -0.0180  0.5086  0.1077
  201MOL0     H27080  10.079   0.318   9.767 -1.6508  0.6429  0.0220
  201MOL0     H27081  10.093   0.270   9.932 -3.3812 -0.1889 -0.3132
  201MOL0     H27082  10.007   0.468  10.017  0.5253 -1.5418 -0.1699
  201MOL0     H27083  10.015   0.555   9.862  1.3813  0.0756  0.9322
  201MOL0     H27084   9.861   0.306   9.919  3.0916  0.4274  0.1111
  201MOL0     H27085   9.841   0.393   9.772 -1.4865  0.9263 -0.4138
  201MOL0     H27086   9.848   0.703   9.945  2.2703 -1.9901  1.7111
  201MOL0     H27087   9.543   0.738  10.182 -0.6712  0.4632 -0.0385
  201MOL0     H27088   9.667   0.845  10.111 -1.0282  1.7714 -0.8130
  201MOL0     H27089   9.417   0.912  10.045 -3.0152 -2.1120 -0.4223
  201MOL0     H27090   9.411   0.753   9.970  1.0417 -0.7199  0.1138
  201MOL0     H27091   9.469   0.890   9.791  0.2865  0.1988 -0.3567
  201MOL0     H27092   9.633   0.837   9.833 -0.6612  0.1173  0.4446
  201MOL0     H27093   9.508   1.078   9.923  0.4312 -1.5459  1.5274
  201MOL0     H27094   9.641   1.074   9.796 -0.8991 -0.0075 -1.2992
  201MOL0     H27095   9.862   1.037   9.757 -0.8252 -0.0477  0.1635
  201MOL0     H27096  10.066   1.035   9.651  0.6036 -0.4886 -1.2991
  201MOL0     H27097  10.203   0.956   9.708  0.0086 -0.1615 -2.6411
  201MOL0     H27098  10.051   0.861   9.649  0.8388 -0.8081 -0.5786
  201MOL0     H27099  10.511   0.896   9.974  3.2066  1.6822  0.3181
  201MOL0     H27100  10.743   0.836  10.069  1.3871 -1.0449  0.6274
  201MOL0     H27101  10.894   0.630  10.176 -0.8260 -0.7518  1.2364
  201MOL0     H27102  10.916   0.804  10.178  1.5114 -1.8750 -0.6297
  201MOL0     H27103  10.982   0.784  10.426 -0.1940 -2.0780  1.9095
  201MOL0     H27104  10.977   0.602  10.383 -1.6038  1.5036  1.1858
  201MOL0     H27105  11.202   0.704  10.388 -0.4452 -0.1399  0.5769
  201MOL0     H27106  11.145   0.817  10.252  0.3980 -0.0291  0.0420
  201MOL0     H27107  11.199   0.524  10.250 -0.6492  0.1331 -0.2012
  201MOL0     H27108  11.129   0.606  10.109  0.4463  1.0370 -0.9812
  201MOL0     H27109  11.321   0.754  10.077  1.6143  2.0534  3.0961
  201MOL0     H27110  11.380   0.579  10.070  0.1811  0.7035 -0.7423
  201MOL0     H27111  11.397   0.780  10.288 -1.3794 -0.9465  0.1556
  201MOL0     H27112  11.436   0.609  10.312 -0.5158  0.8442 -0.2099
  201MOL0     H27113  11.556   0.813  10.124 -1.3472 -0.2411 -0.6968
  201MOL0     H27114  11.615   0.646  10.131 -1.1807 -1.2645  0.4254
  201MOL0     H27115  11.667   0.666  10.355  0.4009 -0.5025 -1.2932
  201MOL0     H27116  11.629   0.847  10.362  2.2711  0.7200  1.3661
  201MOL0     H27117  10.556   0.688  10.419  0.1285 -1.9759 -1.5885
  201MOL0     H27118  10.325   0.725  10.317  1.0278 -1.0724  2.6497
  201MOL0     H27119  10.060   0.865  10.179  1.2634  0.7408  0.1737
  201MOL0     H27120   9.834   0.961  10.186 -2.3647 -1.4015 -1.7561
  201MOL0     H27121  10.832   0.133   9.997 -0.5631  0.8265  4.2695
  201MOL0     H27122  11.079   0.066  10.012  0.4747  0.4306  1.3736
  201MOL0     H27123  11.477   0.368  10.261 -1.6780 -1.8021 -0.4462
  201MOL0     H27124  11.734   0.374  10.279 -0.5772 -3.0820  1.8203
  201MOL0     H27125  11.897   0.472  10.122 -1.2414  0.2780  0.5886
  201MOL0     H27126  12.060   0.395  10.119 -0.4108  0.4592  0.8327
  201MOL0     H27127  11.977   0.510   9.898 -2.6890  1.2085  1.0561
  201MOL0     H27128  11.843   0.392   9.896  0.1111 -1.6364  0.6969
  201MOL0     H27129  12.034   0.221   9.885  0.2768  0.0841 -2.6020
  201MOL0     H27130  12.127   0.368   9.850 -1.2058  4.1120 -0.3919
  201MOL0     H27131  12.067   0.278   9.645 -1.0879 -2.5494 -0.3028
  201MOL0     H27132  11.958   0.421   9.664 -0.6132 -0.5346 -0.8011
  201MOL0     H27133  11.715   0.068   9.655 -0.2706  0.1536 -0.7298
  201MOL0     H27134  11.777   0.119   9.956 -0.2262  0.1388  0.5550
  201MOL0     H27135  11.522   0.129   9.905  1.8894  0.9546 -1.9683
  202MOL0     O27136  10.903   9.264   2.446  0.1738  0.4170 -0.0186
  202MOL0     C27137  10.880   9.162   2.375  0.6388 -0.4221 -0.9243
  202MOL0     O27138  10.966   9.056   2.356  0.6082  0.1112 -0.4458
  202MOL0     C27139  11.075   9.051   2.437 -0.2285  0.5144 -0.1928
  202MOL0     C27140  11.074   9.065   2.573  0.6211  0.6222 -0.2565
  202MOL0     C27141  11.190   9.078   2.649  0.1456 -0.9910  0.2788
  202MOL0     C27142  11.314   9.076   2.584 -0.6314  0.3591 -0.3987
  202MOL0     O27143  11.439   9.090   2.643 -0.3071  0.1374 -0.9412
  202MOL0     C27144  11.455   9.033   2.776  0.0829 -0.4091 -0.9485
  202MOL0     C27145  11.600   8.989   2.804  0.2224  0.2984  0.7931
  202MOL0     C27146  11.623   8.900   2.926 -0.4549  0.1962  1.1630
  202MOL0     C27147  11.765   8.837   2.909  0.8785  0.1230 -0.7611
  202MOL0     C27148  11.779   8.720   2.815 -0.4417  0.4232 -0.4470
  202MOL0     C27149  11.923   8.678   2.803  0.4749  0.1429  0.3435
  202MOL0     C27150  11.953   8.557   2.717 -0.4365  0.1962  0.0444
  202MOL0     C27151  12.107   8.554   2.686 -0.2055  0.3678 -1.1846
  202MOL0     N27152  12.179   8.530   2.811  0.1956 -0.0955 -0.0071
  202MOL0     C27153  12.236   8.411   2.840 -0.1300 -0.0604 -0.2935
  202MOL0     C27154  12.317   8.438   2.957  0.7370  0.8671  0.2604
  202MOL0     C27155  12.410   8.342   3.031  0.3191 -0.3211  1.3397
  202MOL0     C27156  12.358   8.198   3.016  0.2895  0.0710  0.4019
  202MOL0     C27157  12.439   8.096   3.091 -0.5594  0.0092  0.1148
  202MOL0     C27158  12.586   8.103   3.046 -0.1008  0.5253  0.0809
  202MOL0     O27159  12.596   8.065   2.915 -0.8199  0.0622  0.1408
  202MOL0     C27160  12.720   8.071   2.850 -0.0258  0.5481  1.1510
  202MOL0     C27161  12.712   8.059   2.710  0.3882 -0.0123 -0.2077
  202MOL0     C27162  12.830   8.067   2.629  0.8129  0.7431 -0.4407
  202MOL0     C27163  12.809   8.030   2.480 -0.7227  0.3021  0.3424
  202MOL0     C27164  12.957   8.095   2.692 -0.0515  0.2181 -1.0396
  202MOL0     C27165  13.080   8.112   2.612  0.6791 -0.0942 -0.6088
  202MOL0     O27166  13.099   8.035   2.496 -0.1297 -1.0940 -0.2563
  202MOL0     C27167  13.195   8.085   2.411 -0.7883  0.5209 -0.4616
  202MOL0     C27168  13.207   8.225   2.371 -0.1512 -0.3948 -0.3526
  202MOL0     C27169  13.308   8.281   2.283  0.3868  0.6449 -0.7915
  202MOL0     C27170  13.398   8.186   2.229  0.1618  0.1094 -0.2095
  202MOL0     O27171  13.506   8.213   2.150  0.1180  0.5624  0.3403
  202MOL0     C27172  13.548   8.346   2.113 -0.6886  0.1730 -0.2762
  202MOL0     C27173  13.681   8.338   2.036  0.2739  0.3563 -0.2261
  202MOL0     C27174  13.747   8.468   1.989 -0.5212 -0.4400  0.4990
  202MOL0     C27175  13.659   8.540   1.877  0.9302 -0.6731  0.0844
  202MOL0     C27176  13.725   8.651   1.796  0.1651 -0.0217 -0.4605
  202MOL0     C27177  13.791   8.764   1.864 -0.3420  0.5436 -0.7986
  202MOL0     C27178  13.901   8.832   1.783  0.0956  1.0489  0.1364
  202MOL0     C27179  14.033   8.754   1.753 -0.5329  0.2418 -0.8966
  202MOL0    Cl27180  14.170   8.858   1.697  0.0769  0.3649  0.1356
  202MOL0     C27181  13.390   8.057   2.282 -0.5263 -0.1499  0.6635
  202MOL0     C27182  13.296   8.003   2.368  0.1765 -0.6646  0.7413
  202MOL0     O27183  13.158   8.187   2.667 -0.3906 -0.7324  0.5233
  202MOL0     C27184  12.954   8.110   2.833 -0.5215  0.1288  0.5709
  202MOL0     C27185  12.840   8.091   2.914 -0.1608 -0.9269 -0.1523
  202MOL0     N27186  12.309   8.574   2.984 -0.5569  0.2972 -0.1511
  202MOL0     N27187  12.230   8.622   2.895 -0.0547  0.1223 -0.3037
  202MOL0     C27188  11.314   9.078   2.447 -0.3952 -0.3769  0.2936
  202MOL0     C27189  11.196   9.046   2.374 -0.3045  0.3489  0.8609
  202MOL0     C27190  10.745   9.146   2.317  0.5090  0.5496 -0.7455
  202MOL0     C27191  10.641   9.237   2.335 -1.4555 -0.5267  0.4665
  202MOL0     C27192  10.516   9.235   2.279  0.1220 -0.1441  0.2736
  202MOL0     C27193  10.495   9.127   2.189  0.9239 -0.1504 -0.0646
  202MOL0     O27194  10.374   9.128   2.120  0.3758  0.3657 -0.6982
  202MOL0     C27195  10.358   9.056   1.997  0.6960  0.0636  0.9434
  202MOL0     C27196  10.238   9.095   1.908 -0.8925 -0.4282 -0.3864
  202MOL0     C27197  10.103   9.081   1.983  0.1181  0.0011  0.2331
  202MOL0     C27198   9.991   9.072   1.881 -0.1926  0.3861 -0.1928
  202MOL0     C27199   9.929   9.202   1.871  0.8481 -0.5665  0.1137
  202MOL0     C27200   9.884   9.311   1.833  0.2050  0.1229 -0.6088
  202MOL0     C27201  10.591   9.026   2.169  0.1166 -0.6457 -1.0759
  202MOL0     C27202  10.709   9.037   2.235 -0.0375 -0.0270 -0.6269
  202MOL0     H27203  10.976   9.077   2.617  1.6624  1.9669  1.8927
  202MOL0     H27204  11.192   9.089   2.757 -0.2687  0.6951  0.1391
  202MOL0     H27205  11.418   9.107   2.848 -2.4646 -1.2040 -1.3348
  202MOL0     H27206  11.391   8.945   2.779  1.5544 -1.5746 -2.3029
  202MOL0     H27207  11.629   8.940   2.711 -1.5022  0.5477  0.0862
  202MOL0     H27208  11.656   9.081   2.824 -1.0065  0.4180  4.7370
  202MOL0     H27209  11.621   8.963   3.015  0.8411  1.0138  0.6538
  202MOL0     H27210  11.547   8.824   2.942  0.0752 -0.4807  0.5377
  202MOL0     H27211  11.825   8.920   2.872  0.6780  0.6211  0.0146
  202MOL0     H27212  11.813   8.822   3.006  1.7871  1.3934 -0.9947
  202MOL0     H27213  11.709   8.653   2.865 -0.0833  1.8238  2.1423
  202MOL0     H27214  11.740   8.742   2.715  0.4738  1.5785 -0.5807
  202MOL0     H27215  11.984   8.763   2.770  1.0886 -0.9855 -1.6156
  202MOL0     H27216  11.954   8.648   2.904  0.3914  1.6557  0.8440
  202MOL0     H27217  11.924   8.462   2.763 -1.6708  0.9982  1.0115
  202MOL0     H27218  11.905   8.564   2.619 -0.1172 -1.6378 -0.2897
  202MOL0     H27219  12.145   8.642   2.634  3.1706 -0.5347 -0.5359
  202MOL0     H27220  12.140   8.472   2.621  2.2914 -1.0521  1.6416
  202MOL0     H27221  12.237   8.316   2.787  1.7766  0.6838 -1.6955
  202MOL0     H27222  12.511   8.341   2.988  0.1974 -1.2265  1.0565
  202MOL0     H27223  12.426   8.365   3.136  0.2713 -0.5270  1.3922
  202MOL0     H27224  12.361   8.179   2.908 -1.1454  3.0402 -0.2862
  202MOL0     H27225  12.253   8.199   3.047  0.0259 -0.3422 -0.4445
  202MOL0     H27226  12.407   7.994   3.067 -0.4598  0.2116 -0.9394
  202MOL0     H27227  12.421   8.113   3.198  2.5811 -1.6717  1.0280
  202MOL0     H27228  12.649   8.044   3.114  1.1133  0.4272 -1.0951
  202MOL0     H27229  12.640   8.198   3.058  3.4189 -1.4296  1.2734
  202MOL0     H27230  12.615   8.040   2.664 -0.4319 -0.3032  1.5803
  202MOL0     H27231  12.823   8.125   2.427 -0.6819  0.0648 -0.0693
  202MOL0     H27232  12.885   7.957   2.450  0.1302  0.5742  1.7254
  202MOL0     H27233  12.707   8.005   2.449 -0.4305  0.0813 -0.4628
  202MOL0     H27234  13.129   8.296   2.396  2.4739  1.9598  1.8057
  202MOL0     H27235  13.306   8.389   2.272  0.7866  0.6503 -0.8347
  202MOL0     H27236  13.469   8.396   2.056 -1.2435 -0.2946  0.0787
  202MOL0     H27237  13.571   8.403   2.204 -1.7688  0.9712 -0.4855
  202MOL0     H27238  13.760   8.277   2.081 -1.8210 -1.3006  1.3621
  202MOL0     H27239  13.665   8.284   1.942 -1.1123  0.7322 -0.2250
  202MOL0     H27240  13.846   8.451   1.944 -1.2521 -1.9239 -0.6263
  202MOL0     H27241  13.768   8.535   2.072 -0.3679  1.7744 -1.2278
  202MOL0     H27242  13.629   8.465   1.803 -0.2782  1.3909 -1.6350
  202MOL0     H27243  13.565   8.578   1.916  0.5106 -1.2417 -0.3536
  202MOL0     H27244  13.652   8.706   1.736  1.3800  2.0816 -0.1259
  202MOL0     H27245  13.782   8.598   1.719 -1.1321 -0.3595 -1.2293
  202MOL0     H27246  13.717   8.836   1.901 -2.3680 -1.5122 -0.6614
  202MOL0     H27247  13.839   8.723   1.954 -0.5553 -0.3118 -1.0729
  202MOL0     H27248  13.929   8.928   1.828 -1.0618  2.2476 -1.5798
  202MOL0     H27249  13.844   8.851   1.692 -1.8393  2.1590  1.5054
  202MOL0     H27250  14.029   8.667   1.687 -0.7700  1.3531 -2.3973
  202MOL0     H27251  14.064   8.716   1.851  0.7194  0.1455 -1.3049
  202MOL0     H27252  13.465   7.995   2.233 -0.3563  1.7363 -1.6639
  202MOL0     H27253  13.305   7.902   2.407 -1.4326 -1.2179 -0.2187
  202MOL0     H27254  13.050   8.134   2.878 -0.3918  1.7741 -0.5448
  202MOL0     H27255  12.855   8.095   3.021 -3.6328 -0.4561  0.4217
  202MOL0     H27256  11.408   9.091   2.395 -0.4437  0.8305  0.4868
  202MOL0     H27257  11.201   9.026   2.268 -1.1668 -2.9270  1.3148
  202MOL0     H27258  10.672   9.326   2.388  1.9572 -0.0627 -2.0011
  202MOL0     H27259  10.440   9.309   2.301  0.2540 -0.3976  1.6924
  202MOL0     H27260  10.450   9.062   1.938  0.0378 -3.6465 -0.7562
  202MOL0     H27261  10.338   8.951   2.020 -0.8603  0.6484  2.4030
  202MOL0     H27262  10.249   9.022   1.828  0.9032  1.2176 -1.7404
  202MOL0     H27263  10.266   9.186   1.854 -0.0118 -1.0038 -0.9173
  202MOL0     H27264  10.082   9.174   2.037 -1.6521 -0.4892  0.4602
  202MOL0     H27265  10.095   8.990   2.043 -1.5745 -0.4789 -0.6678
  202MOL0     H27266   9.924   8.993   1.917 -0.0398  1.1674  2.0130
  202MOL0     H27267  10.017   9.038   1.781  1.1134 -1.2429  0.6621
  202MOL0     H27268   9.856   9.414   1.825  2.4369  1.1369  2.6703
  202MOL0     H27269  10.581   8.949   2.094 -0.0713 -2.5164  0.7668
  202MOL0     H27270  10.772   8.954   2.205 -1.5835 -1.1497 -0.9145
  203MOL0     O27271  10.550   0.468   0.089  0.0267 -0.0035 -0.7437
  203MOL0     C27272  10.541   0.490  -0.033 -0.0472 -0.1753  0.1250
  203MOL0     O27273  10.652   0.499  -0.112 -0.2960 -0.5841  0.5582
  203MOL0     C27274  10.776   0.510  -0.061 -0.9345 -0.1732  0.5576
  203MOL0     C27275  10.875   0.440  -0.133 -0.8383  0.5533 -1.7668
  203MOL0     C27276  11.005   0.433  -0.083 -0.1255  0.3496 -0.4749
  203MOL0     C27277  11.029   0.495   0.042  0.3223 -0.4524 -1.0415
  203MOL0     O27278  11.148   0.465   0.102  0.4003  0.0246  0.9264
  203MOL0     C27279  11.157   0.326   0.139  0.1054  0.4427  0.5614
  203MOL0     C27280  11.246   0.331   0.261 -0.7219  0.5912 -0.3246
  203MOL0     C27281  11.392   0.369   0.232 -0.9416 -0.3496 -0.4504
  203MOL0     C27282  11.469   0.316   0.353  0.3766  0.4758  0.4246
  203MOL0     C27283  11.613   0.361   0.355 -0.2510  0.2713  0.8039
  203MOL0     C27284  11.697   0.311   0.472  0.4632 -0.1778 -0.4298
  203MOL0     C27285  11.842   0.367   0.478  0.4819  1.5959 -0.3338
  203MOL0     C27286  11.941   0.260   0.543  0.7307 -0.2549 -0.8302
  203MOL0     N27287  11.907   0.229   0.689  0.2308  0.1221 -0.0455
  203MOL0     C27288  11.868   0.331   0.778  0.3973  0.3539  0.8959
  203MOL0     C27289  11.793   0.270   0.876 -0.5027  0.0369  0.3343
  203MOL0     C27290  11.742   0.350   0.993 -0.5804 -0.2049  0.8270
  203MOL0     C27291  11.587   0.326   1.003 -0.1752 -0.3976  1.1498
  203MOL0     C27292  11.526   0.347   0.858  0.1485  0.3099 -0.0089
  203MOL0     C27293  11.379   0.404   0.860 -0.4409 -0.7959 -0.0279
  203MOL0     O27294  11.308   0.331   0.969  0.0089  0.1956 -0.1255
  203MOL0     C27295  11.169   0.340   0.972 -0.3991  0.0252  0.2147
  203MOL0     C27296  11.096   0.237   1.037 -0.2016  0.1763  0.2302
  203MOL0     C27297  10.954   0.234   1.039 -0.2257 -0.0824 -0.6737
  203MOL0     C27298  10.884   0.129   1.118 -0.4236 -0.1641  0.3002
  203MOL0     C27299  10.883   0.347   0.989  0.8280  0.3119 -0.6089
  203MOL0     C27300  10.737   0.365   0.987  0.3567  0.1151  0.8888
  203MOL0     O27301  10.683   0.418   0.874 -0.2694  0.4233  0.2580
  203MOL0     C27302  10.549   0.400   0.847 -0.2809  0.0422  0.3440
  203MOL0     C27303  10.448   0.424   0.940  0.5830 -0.2971  1.1589
  203MOL0     C27304  10.312   0.424   0.894  0.2203 -0.0387  0.1766
  203MOL0     C27305  10.285   0.386   0.761  0.4769  1.1368  0.3695
  203MOL0     O27306  10.166   0.364   0.696 -0.1719 -0.4416 -0.4265
  203MOL0     C27307  10.053   0.375   0.783  0.7976  0.0688  0.5930
  203MOL0     C27308   9.922   0.332   0.698 -0.0264 -0.0022  1.0725
  203MOL0     C27309   9.948   0.209   0.605  0.5386  0.1963 -0.1426
  203MOL0     C27310   9.806   0.190   0.530  0.5126 -0.0923  0.4013
  203MOL0     C27311   9.782   0.054   0.469  0.2231 -0.8193  0.0130
  203MOL0     C27312   9.640   0.045   0.415  0.2862  0.1884 -0.1146
  203MOL0     C27313   9.645  -0.065   0.312  0.6404  0.6181 -0.3289
  203MOL0     C27314   9.507  -0.093   0.265  0.5421 -0.1487 -0.3985
  203MOL0    Cl27315   9.503  -0.257   0.187 -0.2285  0.1260  0.2363
  203MOL0     C27316  10.391   0.375   0.674  0.0010 -0.1907  0.6028
  203MOL0     C27317  10.522   0.372   0.714  0.0615  0.0417 -0.3205
  203MOL0     O27318  10.675   0.332   1.088  0.2961 -0.2696  0.3512
  203MOL0     C27319  10.958   0.458   0.935  0.1933  0.2004  0.3113
  203MOL0     C27320  11.095   0.447   0.919  0.4451 -0.3144 -0.5832
  203MOL0     N27321  11.788   0.134   0.838  0.3180  0.9118  0.3007
  203MOL0     N27322  11.857   0.114   0.732 -0.0656  0.2632  0.1153
  203MOL0     C27323  10.935   0.576   0.108 -0.7553 -0.0699 -0.9899
  203MOL0     C27324  10.809   0.578   0.057  0.2947  0.0937 -0.4564
  203MOL0     C27325  10.413   0.514  -0.098 -0.1946 -0.4359 -1.1616
  203MOL0     C27326  10.390   0.579  -0.222 -0.3736 -0.1148  1.1917
  203MOL0     C27327  10.264   0.606  -0.262  0.2043  0.0988  0.3946
  203MOL0     C27328  10.147   0.562  -0.198 -0.4630 -0.0729  0.2867
  203MOL0     O27329  10.017   0.595  -0.235 -0.0598 -0.0325 -0.4771
  203MOL0     C27330  10.002   0.653  -0.363  0.1948 -0.9703  0.2398
  203MOL0     C27331   9.857   0.718  -0.390 -0.3714 -0.3708 -0.3410
  203MOL0     C27332   9.745   0.603  -0.389 -0.0349  0.2615  0.1466
  203MOL0     C27333   9.605   0.669  -0.402  0.8149  0.0181  0.1563
  203MOL0     C27334   9.504   0.572  -0.403 -0.1927  0.3884  1.1280
  203MOL0     C27335   9.417   0.495  -0.421  0.4829 -0.3137  0.0252
  203MOL0     C27336  10.165   0.506  -0.076 -0.1323  0.4864 -0.7300
  203MOL0     C27337  10.294   0.476  -0.028  0.6275  0.0189 -0.1398
  203MOL0     H27338  10.852   0.380  -0.220  1.5305 -1.4598 -1.1064
  203MOL0     H27339  11.060   0.368  -0.151 -0.8862  1.0534 -1.8133
  203MOL0     H27340  11.062   0.279   0.167  1.1529 -2.0091  0.2568
  203MOL0     H27341  11.209   0.260   0.068 -1.1847 -0.8228  0.7578
  203MOL0     H27342  11.203   0.406   0.328 -2.4123 -0.4559 -0.1841
  203MOL0     H27343  11.242   0.235   0.313  1.5066  1.6373  2.0386
  203MOL0     H27344  11.437   0.334   0.139  3.8698  1.7188  0.7928
  203MOL0     H27345  11.391   0.478   0.224 -1.3856 -0.4315 -1.8012
  203MOL0     H27346  11.414   0.364   0.436  1.7134  1.8562  0.5565
  203MOL0     H27347  11.469   0.208   0.371 -1.5958  0.5158  0.9905
  203MOL0     H27348  11.659   0.338   0.259 -0.4080 -3.6295  1.5275
  203MOL0     H27349  11.601   0.470   0.363 -1.7296  0.1285  0.7325
  203MOL0     H27350  11.636   0.333   0.560  1.4457 -0.3883  0.3186
  203MOL0     H27351  11.692   0.207   0.439 -0.5522 -0.6769  1.1731
  203MOL0     H27352  11.884   0.391   0.379  0.6691  1.1054 -0.3766
  203MOL0     H27353  11.841   0.455   0.542  0.0963  0.3262  1.4975
  203MOL0     H27354  12.041   0.303   0.551  0.8380 -0.8371  2.1232
  203MOL0     H27355  11.958   0.171   0.483  0.7809  0.2738 -1.6114
  203MOL0     H27356  11.890   0.437   0.774 -0.0990  0.4205 -0.2633
  203MOL0     H27357  11.786   0.313   1.086 -1.8289 -1.5727  0.9217
  203MOL0     H27358  11.764   0.455   0.975  0.2204 -0.6636 -1.1266
  203MOL0     H27359  11.542   0.400   1.070 -3.2444 -2.1246  1.1810
  203MOL0     H27360  11.567   0.227   1.044 -2.7181  0.6820  2.7752
  203MOL0     H27361  11.523   0.244   0.823 -1.8472 -0.7964  3.0533
  203MOL0     H27362  11.590   0.411   0.796  1.2417  0.5212  1.2780
  203MOL0     H27363  11.337   0.401   0.760  0.8616  0.5216 -0.6548
  203MOL0     H27364  11.389   0.510   0.883 -1.0031 -1.1132  1.8654
  203MOL0     H27365  11.136   0.156   1.097 -1.0277 -0.0953  0.4242
  203MOL0     H27366  10.946   0.040   1.132 -1.9674 -2.0466 -3.2894
  203MOL0     H27367  10.856   0.157   1.219 -1.3948 -1.6276  0.4744
  203MOL0     H27368  10.793   0.102   1.064 -0.6264  2.2251 -0.6543
  203MOL0     H27369  10.465   0.464   1.039  3.0340 -0.0402  0.7033
  203MOL0     H27370  10.234   0.428   0.970 -2.6665 -2.8617 -2.3391
  203MOL0     H27371  10.074   0.307   0.866 -0.1702  0.4769  1.1753
  203MOL0     H27372  10.038   0.476   0.820 -0.3034 -0.6113  2.0932
  203MOL0     H27373   9.840   0.301   0.763  0.6242 -2.0662  0.9825
  203MOL0     H27374   9.889   0.414   0.633 -1.0814 -0.5514  0.8941
  203MOL0     H27375   9.977   0.114   0.652 -0.2091 -0.0494 -0.1633
  203MOL0     H27376  10.024   0.228   0.529  0.3120  1.2191 -0.1295
  203MOL0     H27377   9.719   0.192   0.597 -0.0776 -1.2653 -0.3084
  203MOL0     H27378   9.796   0.273   0.460 -2.2160 -1.1020 -0.5504
  203MOL0     H27379   9.801  -0.017   0.550  3.2345  1.3696  1.4486
  203MOL0     H27380   9.860   0.056   0.392 -0.0927  0.7912 -0.3138
  203MOL0     H27381   9.570   0.024   0.496 -2.5770  1.3440 -2.1288
  203MOL0     H27382   9.610   0.139   0.367  1.5205  1.0221  0.6639
  203MOL0     H27383   9.681  -0.152   0.368  0.6100  0.3432 -0.7251
  203MOL0     H27384   9.709  -0.042   0.226  0.7182  1.2646 -0.1026
  203MOL0     H27385   9.474  -0.015   0.195 -4.4755 -0.0348  1.6968
  203MOL0     H27386   9.425  -0.092   0.337 -1.6762 -0.5103 -2.7638
  203MOL0     H27387  10.358   0.371   0.570  1.8228  2.1302 -0.1413
  203MOL0     H27388  10.602   0.357   0.642  0.2435 -3.4986  0.4424
  203MOL0     H27389  10.903   0.544   0.899  3.4854  2.1668 -0.4842
  203MOL0     H27390  11.144   0.535   0.881 -2.4064  0.5510 -2.6283
  203MOL0     H27391  10.971   0.638   0.190  1.3525  0.8241 -2.4934
  203MOL0     H27392  10.734   0.641   0.105 -0.9978  0.2636 -2.5624
  203MOL0     H27393  10.474   0.611  -0.282  1.3082 -3.2953  1.6026
  203MOL0     H27394  10.267   0.656  -0.359  0.5547 -0.7909 -0.0667
  203MOL0     H27395  10.065   0.741  -0.379  0.1645 -0.6196  1.8158
  203MOL0     H27396  10.012   0.582  -0.445  1.4390 -2.9198  1.9890
  203MOL0     H27397   9.858   0.764  -0.490 -2.8068 -0.6373 -0.5409
  203MOL0     H27398   9.832   0.802  -0.324  1.2662  0.1415 -0.3301
  203MOL0     H27399   9.756   0.552  -0.293 -0.2909  0.8302  0.4835
  203MOL0     H27400   9.768   0.530  -0.467  0.8004  0.0212  0.6037
  203MOL0     H27401   9.594   0.731  -0.491 -1.8197 -1.0027 -0.3166
  203MOL0     H27402   9.588   0.738  -0.318  0.8496 -1.2449  1.2324
  203MOL0     H27403   9.335   0.428  -0.442 -0.6881  1.4972 -1.5122
  203MOL0     H27404  10.076   0.474  -0.023  1.0015 -0.8469  0.4627
  203MOL0     H27405  10.309   0.421   0.064  0.7748 -2.8757 -1.7932
  204MOL0     O27406   5.817  11.295   2.722 -0.3465  0.8696 -0.5087
  204MOL0     C27407   5.808  11.332   2.842  0.1760  0.3791  0.1928
  204MOL0     O27408   5.913  11.334   2.929  0.0027  0.1514 -0.5895
  204MOL0     C27409   6.032  11.300   2.877 -0.2197  0.0045  0.1928
  204MOL0     C27410   6.063  11.175   2.832 -0.4132  0.4306  0.2793
  204MOL0     C27411   6.189  11.138   2.780 -1.1783 -0.2229 -0.1471
  204MOL0     C27412   6.299  11.231   2.768  0.2794  0.7850  0.0874
  204MOL0     O27413   6.420  11.192   2.722 -0.1702  0.4030  0.6252
  204MOL0     C27414   6.510  11.118   2.803  0.5614  0.5674  0.1420
  204MOL0     C27415   6.565  11.203   2.916 -0.3775 -0.3199 -0.2533
  204MOL0     C27416   6.668  11.307   2.878 -0.4874  0.1684 -0.0929
  204MOL0     C27417   6.801  11.252   2.835  0.1373 -0.7932  0.3194
  204MOL0     C27418   6.919  11.340   2.877 -0.4866 -0.2970  0.3172
  204MOL0     C27419   7.047  11.298   2.804  0.2462 -0.3576 -0.6712
  204MOL0     C27420   7.158  11.255   2.903 -0.1765  0.9648  0.0118
  204MOL0     C27421   7.145  11.118   2.968  0.1273  0.9671  0.0149
  204MOL0     N27422   7.145  11.014   2.862  0.6235  0.8011  0.1025
  204MOL0     C27423   7.242  10.995   2.772  0.0198 -0.6095 -0.7592
  204MOL0     C27424   7.198  10.908   2.685 -0.5088 -0.5243 -0.2514
  204MOL0     C27425   7.268  10.880   2.562 -0.2809 -0.1973  1.2119
  204MOL0     C27426   7.358  10.760   2.600  0.6628  0.1887  0.3920
  204MOL0     C27427   7.279  10.636   2.642  0.5100  0.7706 -0.0331
  204MOL0     C27428   7.374  10.528   2.691 -0.4470 -0.2603  0.0421
  204MOL0     O27429   7.302  10.401   2.718  0.7579 -0.0083  0.0030
  204MOL0     C27430   7.360  10.298   2.785 -0.0726 -0.1140  0.2311
  204MOL0     C27431   7.495  10.294   2.832  0.0069  0.3960 -0.0057
  204MOL0     C27432   7.552  10.193   2.898 -0.1466  0.2323 -0.4734
  204MOL0     C27433   7.689  10.200   2.956 -0.1837  0.6074  0.6289
  204MOL0     C27434   7.475  10.074   2.916  0.3176 -0.8359 -0.1145
  204MOL0     C27435   7.532   9.948   2.971  0.1216  0.8123  0.1921
  204MOL0     O27436   7.664   9.923   2.949 -0.2850 -0.1781 -0.5623
  204MOL0     C27437   7.715   9.810   3.012  0.1470  0.4920  1.3955
  204MOL0     C27438   7.767   9.717   2.918 -0.0353  0.9404 -0.5860
  204MOL0     C27439   7.837   9.593   2.963  0.2438 -0.4006 -0.2930
  204MOL0     C27440   7.834   9.565   3.096 -0.3069  0.0953 -0.2593
  204MOL0     O27441   7.889   9.443   3.133  0.2448 -0.8225  0.0003
  204MOL0     C27442   7.823   9.370   3.242  0.1883 -0.5122 -0.2681
  204MOL0     C27443   7.855   9.223   3.252 -0.3952  0.9691  0.1247
  204MOL0     C27444   7.783   9.157   3.369  0.5230 -0.4607  0.0410
  204MOL0     C27445   7.842   9.208   3.493  0.6595 -0.0595  0.3559
  204MOL0     C27446   7.840   9.091   3.600  0.0318 -0.3537  0.0478
  204MOL0     C27447   7.916   8.965   3.570 -0.7814 -0.2988 -0.1181
  204MOL0     C27448   8.068   8.992   3.580 -0.2389  0.9834 -0.8754
  204MOL0     C27449   8.142   8.859   3.572  0.0200  0.0962  0.6780
  204MOL0    Cl27450   8.308   8.887   3.548 -0.0394  0.0495  0.0311
  204MOL0     C27451   7.766   9.649   3.185 -0.4947  0.0244 -0.3721
  204MOL0     C27452   7.716   9.772   3.148 -0.3158  0.2305  0.8158
  204MOL0     O27453   7.447   9.860   3.006  0.8345  0.0355  0.6111
  204MOL0     C27454   7.337  10.079   2.882 -0.6656  0.2514  0.1749
  204MOL0     C27455   7.284  10.184   2.817 -1.0778 -0.5903  0.2055
  204MOL0     N27456   7.073  10.862   2.732  0.1558 -0.1646 -0.5197
  204MOL0     N27457   7.053  10.914   2.854  0.2523 -0.7529  0.2017
  204MOL0     C27458   6.272  11.347   2.835  0.3940 -0.5142 -0.7020
  204MOL0     C27459   6.143  11.380   2.898 -1.0476 -0.3479  0.5990
  204MOL0     C27460   5.672  11.364   2.880  0.1219 -0.4530 -0.3398
  204MOL0     C27461   5.644  11.411   3.008 -0.3732 -0.6142 -0.3102
  204MOL0     C27462   5.515  11.437   3.044  0.3391 -0.4746  0.7457
  204MOL0     C27463   5.397  11.406   2.965  0.0064  0.2911  0.4589
  204MOL0     O27464   5.269  11.423   3.020  0.4809  0.3879 -0.6281
  204MOL0     C27465   5.158  11.404   2.937  0.4929 -0.2916  0.2666
  204MOL0     C27466   5.052  11.370   3.035 -0.8122  0.5753 -0.2457
  204MOL0     C27467   4.923  11.328   2.966  0.5023  0.0124 -0.3398
  204MOL0     C27468   4.807  11.334   3.063  0.3376 -0.4357  0.5124
  204MOL0     C27469   4.685  11.329   2.984  0.1354 -0.8099  0.3429
  204MOL0     C27470   4.577  11.298   2.941  0.3104 -0.2481 -1.0037
  204MOL0     C27471   5.428  11.373   2.830 -0.2162  0.2048  0.0317
  204MOL0     C27472   5.564  11.368   2.789  0.3545 -0.0415  1.0598
  204MOL0     H27473   5.997  11.094   2.862  2.1880 -1.4019  1.5049
  204MOL0     H27474   6.199  11.042   2.731 -1.7172  0.7259 -2.2295
  204MOL0     H27475   6.470  11.026   2.845  3.1057 -0.7302 -0.0725
  204MOL0     H27476   6.595  11.087   2.741 -0.3830 -2.9292  0.4016
  204MOL0     H27477   6.476  11.256   2.952 -0.3505 -0.7439  0.4597
  204MOL0     H27478   6.614  11.141   2.991  0.3557  1.1352  0.5100
  204MOL0     H27479   6.625  11.363   2.794  1.7384 -1.3542 -2.4162
  204MOL0     H27480   6.677  11.368   2.968  0.1285 -0.4438  0.2733
  204MOL0     H27481   6.815  11.152   2.878  0.9870 -0.2451  1.3807
  204MOL0     H27482   6.809  11.251   2.726 -2.8995  1.0745 -0.0444
  204MOL0     H27483   6.898  11.444   2.853  2.0369  0.4912  1.1889
  204MOL0     H27484   6.925  11.335   2.986  1.8676 -1.4914  0.2182
  204MOL0     H27485   7.034  11.229   2.720  0.9889 -1.8586  0.3962
  204MOL0     H27486   7.089  11.395   2.776 -2.0729  0.9233  0.0174
  204MOL0     H27487   7.250  11.246   2.845  0.5435 -0.1447  1.2653
  204MOL0     H27488   7.178  11.327   2.983 -4.0550  1.8212  0.4009
  204MOL0     H27489   7.060  11.110   3.036  0.8243 -0.3350  0.7612
  204MOL0     H27490   7.233  11.099   3.030 -0.1834  0.8818  0.4313
  204MOL0     H27491   7.338  11.046   2.765  1.0082 -2.3314 -0.2731
  204MOL0     H27492   7.192  10.851   2.488  0.7402 -2.7060  1.0335
  204MOL0     H27493   7.324  10.969   2.531 -0.4211 -0.5767 -0.1998
  204MOL0     H27494   7.422  10.803   2.676  2.6844 -0.0201 -1.1241
  204MOL0     H27495   7.416  10.731   2.512 -0.2013  0.3439 -0.2397
  204MOL0     H27496   7.228  10.588   2.559 -1.5932  2.4914  0.1541
  204MOL0     H27497   7.209  10.654   2.725  1.5170 -0.8056  1.2245
  204MOL0     H27498   7.413  10.556   2.790 -3.5315  1.2201  0.9386
  204MOL0     H27499   7.446  10.508   2.610 -1.7625  0.7302 -1.4212
  204MOL0     H27500   7.555  10.378   2.798 -0.3638  0.4743 -0.4883
  204MOL0     H27501   7.764  10.175   2.880  1.3526  3.5399  1.0049
  204MOL0     H27502   7.701  10.306   2.982 -2.6394  0.6833  1.6702
  204MOL0     H27503   7.709  10.134   3.041  0.6678 -1.8529 -1.3730
  204MOL0     H27504   7.755   9.745   2.814 -2.3208 -0.9767 -0.9290
  204MOL0     H27505   7.884   9.530   2.888 -0.9431  2.1615 -3.4712
  204MOL0     H27506   7.853   9.421   3.334 -2.2012 -0.1800  0.3887
  204MOL0     H27507   7.715   9.382   3.233  0.4169  0.6175 -2.0074
  204MOL0     H27508   7.823   9.178   3.158 -1.0928  1.1316  0.2756
  204MOL0     H27509   7.959   9.193   3.265 -0.2456  1.1789 -0.5655
  204MOL0     H27510   7.790   9.049   3.355  0.2135 -0.5350  0.4312
  204MOL0     H27511   7.677   9.181   3.360  0.4410 -1.4294 -2.5626
  204MOL0     H27512   7.948   9.233   3.486  1.0527 -1.5854  0.5303
  204MOL0     H27513   7.785   9.299   3.515 -0.0552 -0.5386  0.5269
  204MOL0     H27514   7.735   9.070   3.623  0.6486 -2.4613  1.1966
  204MOL0     H27515   7.887   9.139   3.686  2.7602  2.7277 -2.8410
  204MOL0     H27516   7.887   8.897   3.651 -0.5572  0.1593  0.3538
  204MOL0     H27517   7.880   8.908   3.485  2.2479 -1.9681 -0.4388
  204MOL0     H27518   8.107   9.032   3.674  1.7011  0.7284 -1.5236
  204MOL0     H27519   8.104   9.045   3.491  0.6794 -1.0638 -1.7762
  204MOL0     H27520   8.098   8.806   3.486  1.2574  0.2305 -0.0758
  204MOL0     H27521   8.139   8.802   3.665  3.6778  0.4114  1.1494
  204MOL0     H27522   7.766   9.612   3.286  0.6981 -0.3824 -0.5095
  204MOL0     H27523   7.653   9.824   3.220  0.2722  0.8469  0.8972
  204MOL0     H27524   7.281   9.994   2.920  1.1387 -0.8451  0.5156
  204MOL0     H27525   7.179  10.191   2.793 -1.1080  1.9486  0.7837
  204MOL0     H27526   6.359  11.412   2.840  0.3600 -0.4516 -0.9164
  204MOL0     H27527   6.120  11.479   2.937 -0.3426  0.9730 -2.1206
  204MOL0     H27528   5.720  11.440   3.079 -0.7268  0.2029 -0.2590
  204MOL0     H27529   5.498  11.476   3.144  1.3308  0.8782  0.4174
  204MOL0     H27530   5.136  11.500   2.889  0.1347 -0.3635  0.2785
  204MOL0     H27531   5.166  11.316   2.873  0.6820  1.2175 -1.8900
  204MOL0     H27532   5.030  11.450   3.107 -3.2942 -0.0523 -0.1957
  204MOL0     H27533   5.079  11.281   3.092  1.1184  1.4260  0.2507
  204MOL0     H27534   4.920  11.221   2.942 -2.5473  0.2040 -1.2066
  204MOL0     H27535   4.915  11.384   2.873 -1.3921  0.2853 -0.0463
  204MOL0     H27536   4.810  11.424   3.124  1.9164 -0.4203  0.4405
  204MOL0     H27537   4.816  11.245   3.126  1.6365 -0.0613  0.8691
  204MOL0     H27538   4.477  11.259   2.938  0.2726 -0.0988 -2.6716
  204MOL0     H27539   5.345  11.378   2.761 -0.0131  2.1761 -0.1248
  204MOL0     H27540   5.567  11.335   2.686 -3.4578 -2.7817  1.5683
  205MOL0     O27541   5.399  10.975   2.634  0.2909  0.7647  0.9478
  205MOL0     C27542   5.405  11.044   2.526 -0.0076  0.3521 -0.1271
  205MOL0     O27543   5.298  11.116   2.469 -0.0119  0.2124 -0.5238
  205MOL0     C27544   5.178  11.076   2.513 -0.1909 -0.2698 -0.3176
  205MOL0     C27545   5.108  11.139   2.621  0.1712 -0.8482 -0.3197
  205MOL0     C27546   4.973  11.108   2.654 -0.1177 -0.3593 -0.2214
  205MOL0     C27547   4.911  11.002   2.585  0.0123 -0.1672 -0.5354
  205MOL0     O27548   4.782  10.963   2.601  0.3177  0.2112  0.3479
  205MOL0     C27549   4.681  11.042   2.661 -0.2343  0.0993  0.1955
  205MOL0     C27550   4.544  11.017   2.605 -0.6940 -0.1039  0.3243
  205MOL0     C27551   4.433  11.079   2.685  0.2821 -0.6022  0.5883
  205MOL0     C27552   4.300  11.048   2.636  1.0115 -0.3699  0.1287
  205MOL0     C27553   4.187  11.139   2.682  0.1428 -0.3518 -0.7145
  205MOL0     C27554   4.147  11.124   2.829 -0.8242  0.5244  0.0839
  205MOL0     C27555   4.077  11.254   2.889  0.3234  0.2963  0.9487
  205MOL0     C27556   3.934  11.266   2.831 -0.4252  0.2605 -0.0748
  205MOL0     N27557   3.857  11.357   2.927  0.7451 -0.2292 -0.6615
  205MOL0     C27558   3.714  11.373   2.913 -0.7292  0.3913 -0.5586
  205MOL0     C27559   3.683  11.454   3.016  0.0327  0.4291  0.7910
  205MOL0     C27560   3.546  11.488   3.051  0.5141 -0.6006  0.1541
  205MOL0     C27561   3.522  11.639   3.060 -0.2881  0.4591  0.4495
  205MOL0     C27562   3.573  11.687   3.201  0.3572 -0.1301  0.6700
  205MOL0     C27563   3.557  11.833   3.222 -0.1946  0.6228 -0.7668
  205MOL0     O27564   3.428  11.857   3.157  0.0176  0.7141  0.0501
  205MOL0     C27565   3.360  11.976   3.180  0.6223 -0.4126 -0.5602
  205MOL0     C27566   3.215  11.978   3.180 -0.6198  0.6388 -0.2365
  205MOL0     C27567   3.152  12.093   3.219  0.4066  0.2091  0.0523
  205MOL0     C27568   3.003  12.094   3.239 -0.1689  0.2872 -0.0527
  205MOL0     C27569   3.229  12.206   3.256  0.5184 -0.9345 -0.5786
  205MOL0     C27570   3.178  12.336   3.309  0.4905 -0.5362 -0.4698
  205MOL0     O27571   3.065  12.380   3.257 -0.1537  0.5864  0.0123
  205MOL0     C27572   2.999  12.502   3.272  0.2952 -0.5414  0.0982
  205MOL0     C27573   2.893  12.536   3.181  0.0657 -0.9040  0.6228
  205MOL0     C27574   2.834  12.670   3.184 -0.2437 -0.9164  0.1917
  205MOL0     C27575   2.876  12.765   3.277 -0.6833  0.6411  0.3531
  205MOL0     O27576   2.818  12.892   3.284  0.4951  0.3964 -0.4956
  205MOL0     C27577   2.803  12.956   3.416  0.1683 -0.4704 -0.3291
  205MOL0     C27578   2.702  13.065   3.403  1.0341 -0.6079  0.4536
  205MOL0     C27579   2.681  13.146   3.537  0.1181  0.0401 -0.1831
  205MOL0     C27580   2.574  13.251   3.543  0.1511 -0.0443  0.5608
  205MOL0     C27581   2.442  13.182   3.577 -0.1943  0.3008 -0.6215
  205MOL0     C27582   2.437  13.176   3.732 -0.8249 -1.0566  0.4282
  205MOL0     C27583   2.301  13.132   3.784  0.1086 -0.0246  0.4582
  205MOL0     C27584   2.279  13.144   3.940 -0.0839 -1.0965  0.2771
  205MOL0    Cl27585   2.389  13.037   4.028 -0.0971  0.1414  0.3621
  205MOL0     C27586   2.982  12.737   3.353  0.4725 -0.0627 -0.0285
  205MOL0     C27587   3.037  12.609   3.357 -0.0694 -0.3098 -0.3765
  205MOL0     O27588   3.238  12.408   3.391  0.1687  0.0983 -0.0550
  205MOL0     C27589   3.368  12.204   3.247 -0.1867  0.0938 -0.3558
  205MOL0     C27590   3.431  12.089   3.209  0.0958 -0.3810 -0.5472
  205MOL0     N27591   3.800  11.502   3.071 -0.6637  0.5184 -0.6028
  205MOL0     N27592   3.900  11.444   3.014 -0.0556  0.4312 -0.3005
  205MOL0     C27593   4.985  10.945   2.476  0.5600  0.4538  0.0557
  205MOL0     C27594   5.109  10.989   2.431 -0.0309 -0.0097 -0.4217
  205MOL0     C27595   5.538  11.053   2.462  0.3704  0.3698  0.8370
  205MOL0     C27596   5.540  11.089   2.323 -0.4435  0.2695 -0.8749
  205MOL0     C27597   5.667  11.111   2.269 -0.4162 -0.9989  0.4468
  205MOL0     C27598   5.793  11.064   2.324  0.3076 -1.2883 -0.0227
  205MOL0     O27599   5.911  11.078   2.264  0.0567 -0.2084  0.1943
  205MOL0     C27600   6.027  11.019   2.335  0.4084  0.1478 -0.8492
  205MOL0     C27601   6.153  11.027   2.257 -0.4366  0.3968  1.1169
  205MOL0     C27602   6.131  10.989   2.107 -0.4437  0.1676 -0.1327
  205MOL0     C27603   6.264  10.981   2.032  0.3801 -0.4095  0.1870
  205MOL0     C27604   6.327  10.850   2.052  0.1779  1.0529 -0.5484
  205MOL0     C27605   6.383  10.745   2.040 -0.3334  0.0797  0.8798
  205MOL0     C27606   5.777  11.023   2.460 -0.0925 -0.1362 -0.4613
  205MOL0     C27607   5.660  11.031   2.527  0.2474  0.2127  0.0155
  205MOL0     H27608   5.154  11.215   2.683 -0.7618 -2.0219  1.9244
  205MOL0     H27609   4.938  11.158   2.743  1.9952 -3.6892  2.7356
  205MOL0     H27610   4.689  11.025   2.769  1.6917  2.2919  0.4774
  205MOL0     H27611   4.715  11.143   2.635  0.6435 -0.5621 -1.3870
  205MOL0     H27612   4.552  11.054   2.503 -0.1646 -4.2402 -1.3483
  205MOL0     H27613   4.538  10.908   2.598  0.4731 -0.0706 -3.1590
  205MOL0     H27614   4.436  11.039   2.787 -3.8126 -4.0908 -0.3666
  205MOL0     H27615   4.452  11.186   2.698  5.3557 -1.5004  2.6625
  205MOL0     H27616   4.299  11.048   2.527 -2.6697  0.1433  0.0352
  205MOL0     H27617   4.274  10.947   2.669 -1.4572 -0.4366 -1.6825
  205MOL0     H27618   4.217  11.242   2.658 -2.0625  0.8934  1.3758
  205MOL0     H27619   4.095  11.129   2.625 -1.9081 -1.7681  2.5648
  205MOL0     H27620   4.078  11.040   2.830 -0.8427  0.5300 -0.5876
  205MOL0     H27621   4.235  11.099   2.889 -1.6038  2.0136  1.9595
  205MOL0     H27622   4.083  11.231   2.996 -0.9609 -0.1829  0.9346
  205MOL0     H27623   4.138  11.341   2.864  0.6937 -0.5820 -1.3809
  205MOL0     H27624   3.882  11.170   2.826 -1.0529  0.1999  4.0763
  205MOL0     H27625   3.934  11.316   2.734 -0.4006  2.4246  0.9800
  205MOL0     H27626   3.637  11.322   2.856  0.9135 -1.5391 -1.1406
  205MOL0     H27627   3.472  11.448   2.981 -1.2920 -2.6125  2.9896
  205MOL0     H27628   3.523  11.439   3.146  0.4563  0.0707  0.4953
  205MOL0     H27629   3.417  11.652   3.033  0.6063  1.8701 -2.8501
  205MOL0     H27630   3.574  11.701   2.986 -3.3347  2.3940 -0.2225
  205MOL0     H27631   3.678  11.658   3.214 -0.1796 -2.4455  0.3168
  205MOL0     H27632   3.515  11.632   3.276  0.2294  0.8562  1.3102
  205MOL0     H27633   3.650  11.878   3.184  1.1307  0.5855  2.1757
  205MOL0     H27634   3.549  11.854   3.329 -3.3853  1.7525 -1.1342
  205MOL0     H27635   3.169  11.884   3.151  0.9761 -0.5852  1.0092
  205MOL0     H27636   2.963  12.005   3.191  2.1543 -0.9054  0.0884
  205MOL0     H27637   2.980  12.098   3.346 -0.5690  0.5004 -0.1439
  205MOL0     H27638   2.956  12.171   3.178 -0.3012  0.3416  0.1169
  205MOL0     H27639   2.861  12.462   3.109  0.7750  1.2728 -2.0759
  205MOL0     H27640   2.763  12.708   3.112  0.9827  0.0190 -0.5639
  205MOL0     H27641   2.770  12.885   3.493  0.0206  0.7667  0.7827
  205MOL0     H27642   2.901  12.992   3.448  1.0809 -1.3166 -2.0341
  205MOL0     H27643   2.719  13.133   3.319  1.2269 -0.8561  0.2904
  205MOL0     H27644   2.610  13.014   3.375  0.3261  1.0461 -0.3786
  205MOL0     H27645   2.771  13.200   3.567  0.0986  0.5456 -0.9907
  205MOL0     H27646   2.664  13.060   3.602  0.1926 -0.2850 -0.5869
  205MOL0     H27647   2.611  13.322   3.618  0.1085  0.5960 -0.0195
  205MOL0     H27648   2.573  13.296   3.444  1.7045 -0.1472  0.4641
  205MOL0     H27649   2.425  13.083   3.532  0.2781  0.5518 -1.3510
  205MOL0     H27650   2.362  13.242   3.533 -1.1696 -0.7521 -0.3555
  205MOL0     H27651   2.512  13.108   3.774  0.4698 -0.2206 -0.4614
  205MOL0     H27652   2.436  13.278   3.771 -1.8894  0.1656 -2.5606
  205MOL0     H27653   2.295  13.025   3.760 -3.0937  0.2477 -0.3403
  205MOL0     H27654   2.229  13.192   3.727 -0.5740  1.0644  2.4037
  205MOL0     H27655   2.171  13.139   3.955 -0.5399  1.6348 -1.3829
  205MOL0     H27656   2.304  13.244   3.976  1.3602 -0.9923 -0.9196
  205MOL0     H27657   3.021  12.814   3.420 -1.6493  1.0440  0.0202
  205MOL0     H27658   3.116  12.602   3.431 -0.2243  2.4015  0.1360
  205MOL0     H27659   3.424  12.296   3.259  0.9378  0.2337 -4.8119
  205MOL0     H27660   3.537  12.097   3.185  0.9115  0.5556  2.8543
  205MOL0     H27661   4.932  10.885   2.403  0.9602  0.8280 -0.5500
  205MOL0     H27662   5.154  10.960   2.337 -0.9041  0.2016 -0.9128
  205MOL0     H27663   5.449  11.103   2.266  0.8567 -0.1957 -3.1987
  205MOL0     H27664   5.659  11.139   2.164  0.3844  2.6266  1.1940
  205MOL0     H27665   6.042  11.065   2.433 -1.2000 -0.3482 -0.3425
  205MOL0     H27666   6.009  10.913   2.358  1.3575  0.4302  1.3671
  205MOL0     H27667   6.236  10.972   2.303 -0.1524  0.2703  0.4602
  205MOL0     H27668   6.188  11.131   2.252 -0.7020  0.4319 -0.2311
  205MOL0     H27669   6.062  11.061   2.062 -0.0972 -0.8764 -2.5290
  205MOL0     H27670   6.096  10.885   2.110  0.8662 -0.3102  3.0087
  205MOL0     H27671   6.327  11.063   2.067  1.3864 -0.9362 -0.3403
  205MOL0     H27672   6.255  10.991   1.923 -0.8618 -2.5453  0.0512
  205MOL0     H27673   6.438  10.661   2.003 -2.7434  0.1047 -3.3979
  205MOL0     H27674   5.865  11.010   2.523 -1.7190 -2.9001  1.4130
  205MOL0     H27675   5.655  11.030   2.635  0.9777  0.0186  0.0533
  206MOL0     O27676   7.701   5.948   2.288 -0.6741  0.6343 -0.2927
  206MOL0     C27677   7.795   5.887   2.246 -0.7013 -0.4384 -0.1188
  206MOL0     O27678   7.787   5.761   2.172 -0.1720 -0.2614  0.5108
  206MOL0     C27679   7.661   5.709   2.153 -0.4408 -0.9829 -0.4941
  206MOL0     C27680   7.589   5.718   2.031 -0.4381  0.2251  0.0099
  206MOL0     C27681   7.462   5.665   2.010 -0.5612 -0.2442 -0.3496
  206MOL0     C27682   7.398   5.612   2.122  0.7430 -0.8973 -0.9502
  206MOL0     O27683   7.271   5.564   2.096  0.1627  0.0220  1.2741
  206MOL0     C27684   7.168   5.587   2.192 -0.3130 -0.4786 -0.2414
  206MOL0     C27685   7.036   5.530   2.131  0.2330 -0.3833  0.3840
  206MOL0     C27686   7.041   5.381   2.106 -1.2438 -0.4516 -1.2800
  206MOL0     C27687   6.941   5.337   1.990 -0.4642  0.2851 -0.3017
  206MOL0     C27688   6.799   5.362   2.032 -0.0308 -0.0282  0.1824
  206MOL0     C27689   6.712   5.378   1.905  0.8850 -0.0145 -0.9050
  206MOL0     C27690   6.557   5.399   1.940 -0.0591  0.3986  0.8285
  206MOL0     C27691   6.515   5.521   2.015 -0.6424  0.1697 -0.4600
  206MOL0     N27692   6.371   5.525   2.023 -0.4269  0.1719 -0.1811
  206MOL0     C27693   6.287   5.594   1.942  1.1053  0.4848  0.8609
  206MOL0     C27694   6.165   5.563   1.988 -0.3297 -0.5298  0.0654
  206MOL0     C27695   6.042   5.606   1.915 -0.2349 -0.1817 -0.1196
  206MOL0     C27696   5.945   5.700   1.992  0.2039 -0.4033 -0.5181
  206MOL0     C27697   6.022   5.806   2.072  0.6604 -0.1563 -0.9621
  206MOL0     C27698   5.927   5.894   2.158  0.3473 -0.3946 -0.8400
  206MOL0     O27699   5.842   5.825   2.255 -0.8054 -0.4676 -0.7053
  206MOL0     C27700   5.767   5.897   2.341 -0.6708 -0.0853 -0.0648
  206MOL0     C27701   5.701   5.823   2.435  0.1488  0.5875  0.1508
  206MOL0     C27702   5.626   5.870   2.542  0.0357  0.2167 -0.4578
  206MOL0     C27703   5.535   5.773   2.618 -0.6757 -0.0319  0.0624
  206MOL0     C27704   5.627   6.011   2.559  0.1756 -0.0643  0.7727
  206MOL0     C27705   5.548   6.087   2.667 -0.3386 -0.3527  0.2418
  206MOL0     O27706   5.510   6.008   2.774  0.3572 -0.6653 -0.6361
  206MOL0     C27707   5.482   6.064   2.902  0.2090 -0.9560  0.0593
  206MOL0     C27708   5.388   5.993   2.980  0.3659  1.5737 -1.0795
  206MOL0     C27709   5.359   6.029   3.115  0.2607  0.3848  0.4568
  206MOL0     C27710   5.410   6.146   3.168  0.4493 -0.1857 -0.0214
  206MOL0     O27711   5.376   6.214   3.285 -0.0731  0.8996  0.0599
  206MOL0     C27712   5.257   6.165   3.350  0.0461 -0.3341 -0.3154
  206MOL0     C27713   5.197   6.259   3.445 -0.2238  0.3098  0.0780
  206MOL0     C27714   5.072   6.202   3.513 -0.5820  0.2739  0.2611
  206MOL0     C27715   4.980   6.315   3.567  0.4417 -0.2027  0.3438
  206MOL0     C27716   4.828   6.283   3.541 -0.1797 -0.1159 -0.6925
  206MOL0     C27717   4.792   6.291   3.401  0.9779 -0.2744  0.4899
  206MOL0     C27718   4.653   6.341   3.391  0.8923  0.8697 -1.0987
  206MOL0     C27719   4.608   6.362   3.249  0.4601 -0.1714 -0.0188
  206MOL0    Cl27720   4.646   6.206   3.165 -0.4453 -0.3005  0.0044
  206MOL0     C27721   5.504   6.214   3.087  0.4150  0.5285 -0.0474
  206MOL0     C27722   5.543   6.181   2.956 -0.4037  0.8168  0.1499
  206MOL0     O27723   5.530   6.213   2.670 -0.0056 -0.1307  0.3041
  206MOL0     C27724   5.689   6.086   2.456 -0.7010 -0.2528 -0.2290
  206MOL0     C27725   5.750   6.032   2.343  1.1419  0.4387  0.4569
  206MOL0     N27726   6.172   5.478   2.097  0.6335  0.0030 -0.2101
  206MOL0     N27727   6.303   5.470   2.126 -0.7007  0.0049 -0.0414
  206MOL0     C27728   7.460   5.608   2.250  0.1404 -0.2150 -0.3488
  206MOL0     C27729   7.597   5.650   2.259  0.0531 -1.1900 -0.4833
  206MOL0     C27730   7.926   5.962   2.260 -0.6625  0.1250 -0.0419
  206MOL0     C27731   7.934   6.100   2.297  0.2130  0.3584  0.7397
  206MOL0     C27732   8.055   6.162   2.314 -0.3161  0.4709 -0.2773
  206MOL0     C27733   8.175   6.095   2.290  0.6184  0.5316  0.4937
  206MOL0     O27734   8.285   6.163   2.322  0.2231 -0.0706  0.3338
  206MOL0     C27735   8.401   6.123   2.254 -0.9644  0.4452 -0.0174
  206MOL0     C27736   8.520   6.228   2.284  0.0798  0.2304 -0.0155
  206MOL0     C27737   8.492   6.367   2.237  0.1988 -0.2910  0.3298
  206MOL0     C27738   8.623   6.448   2.249  0.4061  0.8155  0.5708
  206MOL0     C27739   8.640   6.481   2.391  0.1540 -1.0372  0.3387
  206MOL0     C27740   8.617   6.524   2.505 -1.0806  0.6228 -0.5297
  206MOL0     C27741   8.174   5.957   2.252  0.0363 -0.1453  0.4810
  206MOL0     C27742   8.046   5.891   2.233 -0.0712 -0.2031  0.7725
  206MOL0     H27743   7.642   5.755   1.944  1.0472  1.8537  1.5374
  206MOL0     H27744   7.412   5.650   1.915 -1.4096  1.0843 -0.1365
  206MOL0     H27745   7.189   5.536   2.286 -2.3296  3.7550  2.8272
  206MOL0     H27746   7.151   5.691   2.220 -1.4403 -0.3771 -1.1927
  206MOL0     H27747   6.947   5.559   2.188  0.2428  0.4681 -0.0025
  206MOL0     H27748   7.024   5.574   2.031 -0.6692  0.9105  1.0190
  206MOL0     H27749   7.145   5.357   2.084  0.3175  3.5793  0.5456
  206MOL0     H27750   7.013   5.330   2.199  2.1551  0.3791  0.3704
  206MOL0     H27751   6.967   5.392   1.899  0.4091  0.2285 -0.0920
  206MOL0     H27752   6.954   5.229   1.978  1.6965  0.5829 -1.1891
  206MOL0     H27753   6.769   5.294   2.111 -0.6117  0.9374  0.8194
  206MOL0     H27754   6.803   5.455   2.090  1.0603  0.4793 -0.6591
  206MOL0     H27755   6.738   5.455   1.832 -2.0320  0.9220 -1.1123
  206MOL0     H27756   6.720   5.283   1.850 -1.7279  1.2196 -3.7320
  206MOL0     H27757   6.496   5.394   1.848 -4.9127  0.2435  3.6953
  206MOL0     H27758   6.531   5.304   1.988  0.3829  0.3685  1.0054
  206MOL0     H27759   6.557   5.604   1.959  2.0325 -1.3348 -0.8441
  206MOL0     H27760   6.548   5.518   2.119 -3.4050  1.0165  0.5378
  206MOL0     H27761   6.308   5.650   1.852  1.7706  1.6218  1.6876
  206MOL0     H27762   6.062   5.647   1.816  3.9799  2.0283  1.3863
  206MOL0     H27763   5.983   5.514   1.914 -1.2974  0.4613  0.6991
  206MOL0     H27764   5.880   5.649   2.065  0.4444  0.0740  0.0366
  206MOL0     H27765   5.874   5.759   1.934 -1.7409 -0.9002  1.1870
  206MOL0     H27766   6.073   5.873   2.002  1.8850  0.1570  0.1920
  206MOL0     H27767   6.096   5.762   2.139 -0.6840 -0.9456  0.0686
  206MOL0     H27768   5.873   5.958   2.088 -0.8558  0.6158  0.9566
  206MOL0     H27769   6.002   5.955   2.208 -0.4407 -0.8924  1.0170
  206MOL0     H27770   5.692   5.716   2.419 -3.7112  0.2560  3.0178
  206MOL0     H27771   5.539   5.680   2.560  0.0271  0.8062 -1.2792
  206MOL0     H27772   5.564   5.766   2.723  0.8535 -2.1126 -0.4348
  206MOL0     H27773   5.429   5.799   2.618 -0.6895  0.0223 -1.4207
  206MOL0     H27774   5.351   5.898   2.940  0.4926  0.4902  1.2240
  206MOL0     H27775   5.299   5.966   3.180  1.0943 -0.2398  0.6357
  206MOL0     H27776   5.183   6.141   3.272  0.7417  0.7742 -1.3490
  206MOL0     H27777   5.265   6.074   3.410  1.1663  0.3824  0.6733
  206MOL0     H27778   5.257   6.280   3.534 -0.8902 -0.4211  0.7125
  206MOL0     H27779   5.177   6.355   3.397  0.1718  0.8232  0.9110
  206MOL0     H27780   5.107   6.130   3.588 -0.2607 -1.0797 -1.1381
  206MOL0     H27781   5.012   6.145   3.442  1.0183 -0.5834 -0.4559
  206MOL0     H27782   4.986   6.319   3.676  0.4089  1.6064  0.3186
  206MOL0     H27783   4.999   6.416   3.529 -0.4858  0.5737  1.8251
  206MOL0     H27784   4.765   6.350   3.602  0.3404  1.2197 -1.5755
  206MOL0     H27785   4.806   6.182   3.575  1.0338  0.1481  0.9790
  206MOL0     H27786   4.857   6.354   3.339  0.3592  1.2137  1.3047
  206MOL0     H27787   4.794   6.191   3.356 -1.0739  0.7798 -2.2427
  206MOL0     H27788   4.658   6.438   3.441  1.2447  0.0348  0.5624
  206MOL0     H27789   4.585   6.270   3.438  0.5895  0.1301 -2.5920
  206MOL0     H27790   4.658   6.451   3.210 -1.8932  1.9582  1.4943
  206MOL0     H27791   4.503   6.390   3.237  0.3043 -0.8863 -0.4358
  206MOL0     H27792   5.536   6.307   3.133 -0.0822  1.5170 -1.6037
  206MOL0     H27793   5.592   6.251   2.889 -1.3200  0.7571 -0.6119
  206MOL0     H27794   5.667   6.192   2.461  1.3228  0.1393  1.9590
  206MOL0     H27795   5.794   6.092   2.263  2.5770  0.5099  1.2588
  206MOL0     H27796   7.408   5.562   2.333  1.8096 -0.6318  0.5161
  206MOL0     H27797   7.653   5.647   2.351  0.7309 -3.0696 -0.9113
  206MOL0     H27798   7.836   6.141   2.320  0.2761  0.5476  0.6687
  206MOL0     H27799   8.062   6.265   2.346 -2.7522 -0.3645  3.6053
  206MOL0     H27800   8.435   6.027   2.294  0.7403  0.6960 -0.7852
  206MOL0     H27801   8.392   6.095   2.148  1.1409 -4.3330  0.8023
  206MOL0     H27802   8.613   6.196   2.236 -0.5315 -1.9408  0.1372
  206MOL0     H27803   8.541   6.221   2.391  0.9751  0.9738 -0.1318
  206MOL0     H27804   8.416   6.410   2.303  2.1341  0.0451  2.4693
  206MOL0     H27805   8.451   6.375   2.136  1.2452 -0.7592 -0.1495
  206MOL0     H27806   8.619   6.532   2.179  1.0179  0.8297  0.5466
  206MOL0     H27807   8.711   6.386   2.232 -0.8160 -0.4721 -1.4037
  206MOL0     H27808   8.590   6.560   2.602  0.3998 -1.1208  0.5952
  206MOL0     H27809   8.265   5.898   2.245 -0.6352 -1.1776  0.2651
  206MOL0     H27810   8.029   5.788   2.205 -3.1232  0.4293 -0.0469
  207MOL0     O27811   3.746   6.252   9.980  0.2001  0.2445 -0.0552
  207MOL0     C27812   3.803   6.334   9.913 -0.1446 -0.4698 -0.0284
  207MOL0     O27813   3.748   6.445   9.874 -0.3742 -0.7250 -0.2027
  207MOL0     C27814   3.617   6.445   9.857  0.8424 -0.0350 -0.5543
  207MOL0     C27815   3.556   6.569   9.872  0.5674 -0.4831  0.2081
  207MOL0     C27816   3.417   6.592   9.872  0.5638 -0.4936 -0.5667
  207MOL0     C27817   3.337   6.483   9.852 -0.0576 -0.4072  0.0920
  207MOL0     O27818   3.200   6.514   9.857 -0.3459 -0.1181  0.1436
  207MOL0     C27819   3.107   6.398   9.845  0.1787  0.6983  0.5269
  207MOL0     C27820   2.973   6.460   9.856  0.4622  0.7548  0.2254
  207MOL0     C27821   2.862   6.349   9.840 -0.7498 -0.5747  0.0337
  207MOL0     C27822   2.735   6.397   9.781 -0.2433  0.2391  0.0153
  207MOL0     C27823   2.651   6.288   9.711 -0.5675 -1.1400  0.9949
  207MOL0     C27824   2.525   6.353   9.651 -0.9003 -0.0141 -0.0098
  207MOL0     C27825   2.430   6.252   9.577 -0.1441  0.4937 -0.4469
  207MOL0     C27826   2.289   6.302   9.541 -0.5604 -0.4887 -0.5054
  207MOL0     N27827   2.224   6.207   9.454 -0.6818 -0.1884 -0.5511
  207MOL0     C27828   2.223   6.206   9.318  0.2441  1.1744 -0.4494
  207MOL0     C27829   2.160   6.088   9.280 -0.4441  0.7207  0.2047
  207MOL0     C27830   2.139   6.047   9.139  0.3013  0.2436  0.8583
  207MOL0     C27831   1.996   5.997   9.134  0.3130  0.3289  0.4568
  207MOL0     C27832   1.934   5.989   8.986 -0.1680 -0.3546  0.4450
  207MOL0     C27833   2.021   5.912   8.883 -0.2103  0.5309 -0.2468
  207MOL0     O27834   1.946   5.877   8.768 -0.5334 -0.5367 -0.0095
  207MOL0     C27835   1.846   5.782   8.776 -0.4388 -0.2592  0.6977
  207MOL0     C27836   1.800   5.698   8.882  0.4105  0.6874  0.1235
  207MOL0     C27837   1.702   5.592   8.873 -0.6153  0.4176  0.3764
  207MOL0     C27838   1.680   5.524   9.002  0.3118  0.1916 -0.2503
  207MOL0     C27839   1.633   5.575   8.747 -1.1185 -0.3405  0.0081
  207MOL0     C27840   1.516   5.486   8.721  0.7890  0.1113  0.1883
  207MOL0     O27841   1.451   5.497   8.608 -0.0832  0.2133  0.1898
  207MOL0     C27842   1.332   5.439   8.589 -0.0789  0.6630  0.4513
  207MOL0     C27843   1.231   5.493   8.664  0.1901 -0.1933  0.3501
  207MOL0     C27844   1.106   5.431   8.661 -1.1710  0.1335 -0.0369
  207MOL0     C27845   1.080   5.325   8.571 -0.5559  0.6904 -0.4664
  207MOL0     O27846   0.952   5.261   8.578 -0.2211  0.5688 -0.3102
  207MOL0     C27847   0.891   5.191   8.468 -0.6998  0.2333 -0.5756
  207MOL0     C27848   0.771   5.272   8.409  0.2261  0.2614 -0.1815
  207MOL0     C27849   0.809   5.377   8.312  0.4763 -1.1749 -1.2797
  207MOL0     C27850   0.845   5.321   8.174  0.8582  0.9343 -0.1785
  207MOL0     C27851   0.835   5.410   8.052  0.3443 -0.5939 -0.5861
  207MOL0     C27852   0.931   5.364   7.941  0.1587  0.0436 -0.8460
  207MOL0     C27853   0.969   5.471   7.839 -0.0379 -0.2709 -0.1195
  207MOL0     C27854   0.859   5.575   7.796 -0.0243  0.7716  0.3631
  207MOL0    Cl27855   0.715   5.481   7.756 -0.0103  0.0664  0.2680
  207MOL0     C27856   1.195   5.266   8.502 -0.4350 -0.4406  0.6394
  207MOL0     C27857   1.318   5.325   8.512 -0.0731  0.1187  0.1690
  207MOL0     O27858   1.504   5.395   8.794 -0.5589  0.3652 -0.5378
  207MOL0     C27859   1.685   5.657   8.638  0.2459  0.4183 -0.1613
  207MOL0     C27860   1.786   5.759   8.653  0.8117 -0.0797 -0.1130
  207MOL0     N27861   2.136   6.016   9.397  0.7708  0.6420  0.0070
  207MOL0     N27862   2.167   6.092   9.500 -0.6931  0.2044  0.6654
  207MOL0     C27863   3.392   6.359   9.829  1.4059 -0.6587  0.2526
  207MOL0     C27864   3.524   6.335   9.827 -0.8416 -0.3937  0.2236
  207MOL0     C27865   3.946   6.328   9.917 -0.3517 -0.3755  0.3574
  207MOL0     C27866   4.002   6.200   9.966 -0.4208  0.0117 -1.0530
  207MOL0     C27867   4.139   6.193   9.983  0.4603  0.4758  0.5102
  207MOL0     C27868   4.227   6.300   9.977  0.5823  0.3438  0.0922
  207MOL0     O27869   4.363   6.287  10.000 -0.1117  0.0380 -1.1607
  207MOL0     C27870   4.415   6.358  10.118 -0.8743  0.3755  1.1927
  207MOL0     C27871   4.386   6.286  10.248 -0.0970  0.1363  0.6632
  207MOL0     C27872   4.422   6.144  10.260  0.1129  0.1780  0.5522
  207MOL0     C27873   4.375   6.089  10.392  0.9499  0.1589 -0.6930
  207MOL0     C27874   4.407   5.944  10.412  0.1243 -0.5546 -0.3196
  207MOL0     C27875   4.440   5.826  10.435  0.3245 -0.6462  0.0113
  207MOL0     C27876   4.174   6.426   9.939  0.0861 -0.1159  0.3918
  207MOL0     C27877   4.035   6.431   9.909  0.1523 -0.1796  0.0035
  207MOL0     H27878   3.619   6.651   9.904  2.0107 -0.1298 -3.1205
  207MOL0     H27879   3.381   6.687   9.911 -2.6888 -1.7420 -0.2813
  207MOL0     H27880   3.117   6.346   9.750 -0.7604 -0.6126  1.1154
  207MOL0     H27881   3.125   6.328   9.928  1.1866  0.3542  0.0317
  207MOL0     H27882   2.957   6.504   9.955 -0.4854  0.2020  0.3288
  207MOL0     H27883   2.946   6.541   9.787 -0.9835  1.0321  1.0590
  207MOL0     H27884   2.900   6.264   9.782  1.1710  0.4165 -0.2527
  207MOL0     H27885   2.840   6.308   9.938 -4.0782 -0.3904 -0.5461
  207MOL0     H27886   2.689   6.443   9.868  2.5708  1.9970  0.7143
  207MOL0     H27887   2.746   6.478   9.709 -0.7060 -0.4719 -0.8791
  207MOL0     H27888   2.701   6.243   9.624 -1.3382  1.1525 -0.7472
  207MOL0     H27889   2.625   6.209   9.782 -1.4074  0.0538  2.0376
  207MOL0     H27890   2.476   6.406   9.733  1.9280  0.5770  1.4267
  207MOL0     H27891   2.558   6.420   9.571  1.2962  0.1550  0.9709
  207MOL0     H27892   2.488   6.222   9.489  1.2224  0.7842  0.3240
  207MOL0     H27893   2.418   6.162   9.638 -3.9962 -0.0045 -1.6404
  207MOL0     H27894   2.295   6.406   9.510 -0.6474 -0.3045  0.0977
  207MOL0     H27895   2.242   6.299   9.640 -1.4432 -1.4939 -0.9260
  207MOL0     H27896   2.249   6.290   9.254  0.6910  2.0454  0.8413
  207MOL0     H27897   2.148   6.138   9.079 -0.5474 -0.3948 -0.2938
  207MOL0     H27898   2.203   5.972   9.091 -0.7700 -0.9641  1.2489
  207MOL0     H27899   1.929   6.068   9.184 -0.1118  1.0720 -1.1167
  207MOL0     H27900   1.991   5.898   9.181 -1.9914  0.8219  1.3790
  207MOL0     H27901   1.928   6.094   8.956  4.8318  0.1518  0.4308
  207MOL0     H27902   1.835   5.948   9.007 -1.7565  3.0625  0.1456
  207MOL0     H27903   2.040   5.819   8.938  0.7803  1.5431  1.1741
  207MOL0     H27904   2.116   5.964   8.870  1.9133 -2.7727  0.7989
  207MOL0     H27905   1.837   5.721   8.981  0.6378 -1.8567  0.6895
  207MOL0     H27906   1.737   5.571   9.082  0.3251 -0.6758  0.2580
  207MOL0     H27907   1.575   5.530   9.033 -0.5649 -1.6013 -2.5541
  207MOL0     H27908   1.704   5.418   8.995  2.5178  0.3488  2.9300
  207MOL0     H27909   1.248   5.572   8.737 -2.2795 -1.6518  2.6876
  207MOL0     H27910   1.012   5.456   8.711 -2.3850 -2.6187 -0.7250
  207MOL0     H27911   0.972   5.165   8.399 -0.9206 -0.0760 -0.7247
  207MOL0     H27912   0.861   5.099   8.520 -1.7199  0.4004 -0.8528
  207MOL0     H27913   0.707   5.201   8.356 -3.6864  3.5099 -0.3222
  207MOL0     H27914   0.712   5.312   8.492 -0.7128 -0.3613 -0.5357
  207MOL0     H27915   0.892   5.434   8.354  0.2313 -1.1967 -0.7572
  207MOL0     H27916   0.725   5.446   8.306  0.1169 -1.5430 -0.5939
  207MOL0     H27917   0.946   5.281   8.188  0.6916  1.2095  2.0826
  207MOL0     H27918   0.778   5.242   8.139  0.9694  1.6525 -2.1664
  207MOL0     H27919   0.858   5.513   8.083 -1.1379 -0.4664  0.1978
  207MOL0     H27920   0.729   5.413   8.026 -0.0318  0.1393  0.8963
  207MOL0     H27921   1.018   5.322   7.994  0.0714  0.7510 -0.1259
  207MOL0     H27922   0.884   5.281   7.887 -0.1282 -2.2453  2.5552
  207MOL0     H27923   0.994   5.427   7.743  1.7670  0.1853  0.1129
  207MOL0     H27924   1.062   5.516   7.873  0.3376 -0.8220 -0.4138
  207MOL0     H27925   0.888   5.627   7.704  0.6185 -0.3972 -0.1133
  207MOL0     H27926   0.844   5.649   7.876  2.8404  1.2635  0.5408
  207MOL0     H27927   1.169   5.184   8.436 -1.8423 -0.8987  1.7181
  207MOL0     H27928   1.400   5.277   8.460 -0.5587  0.4082 -0.8892
  207MOL0     H27929   1.644   5.633   8.541 -0.0422 -0.2840  0.1241
  207MOL0     H27930   1.818   5.790   8.554  1.0523 -3.3855 -1.2205
  207MOL0     H27931   3.325   6.277   9.806  0.7009  0.3499 -1.4337
  207MOL0     H27932   3.570   6.238   9.813  1.0655  0.8399 -3.0753
  207MOL0     H27933   3.944   6.112   9.991 -1.6961  1.1222  0.0398
  207MOL0     H27934   4.190   6.098   9.997 -2.6548 -0.9081  3.9768
  207MOL0     H27935   4.524   6.367  10.107 -1.1271  2.4339 -0.0832
  207MOL0     H27936   4.380   6.461  10.122  2.1684  1.6034 -0.0381
  207MOL0     H27937   4.281   6.296  10.274  0.2296  3.8168  1.0893
  207MOL0     H27938   4.431   6.340  10.332 -0.4255 -2.6942  2.7952
  207MOL0     H27939   4.531   6.139  10.259  0.1011 -0.1246  0.6617
  207MOL0     H27940   4.381   6.086  10.177 -0.1696  0.6253  0.3819
  207MOL0     H27941   4.267   6.082  10.406  0.8919 -0.8328 -1.5105
  207MOL0     H27942   4.418   6.148  10.473 -2.8678  1.0518  0.9054
  207MOL0     H27943   4.490   5.735  10.461 -0.4738 -1.0012  0.3536
  207MOL0     H27944   4.223   6.521   9.954 -3.8594  1.8146  2.6166
  207MOL0     H27945   3.986   6.527   9.897  2.8210  1.1199 -1.7166
  208MOL0     O27946   0.654   4.928   4.859 -0.7916  0.6208 -0.2256
  208MOL0     C27947   0.575   4.869   4.933  0.5170  0.6539  0.0544
  208MOL0     O27948   0.440   4.904   4.950  0.7462 -0.5534 -0.2163
  208MOL0     C27949   0.383   5.003   4.865 -0.4015  0.3466 -0.2169
  208MOL0     C27950   0.415   5.037   4.740 -0.0730 -0.4194  0.3972
  208MOL0     C27951   0.334   5.115   4.649  0.7376  0.1614  0.2585
  208MOL0     C27952   0.213   5.180   4.697 -0.1423  0.0211  0.0846
  208MOL0     O27953   0.134   5.269   4.630 -0.6006  0.2674  0.6438
  208MOL0     C27954   0.181   5.406   4.629 -0.3283 -0.3478 -0.0957
  208MOL0     C27955   0.055   5.497   4.635 -0.6123 -0.1210 -0.3679
  208MOL0     C27956  -0.044   5.471   4.518  0.1648  0.1418 -0.2545
  208MOL0     C27957  -0.169   5.562   4.535 -0.7257 -0.3629 -0.2992
  208MOL0     C27958  -0.273   5.533   4.423  0.2598 -0.3359  0.0023
  208MOL0     C27959  -0.219   5.566   4.284 -0.3206  0.0595  0.9216
  208MOL0     C27960  -0.311   5.660   4.195 -0.4770  0.4797 -0.0629
  208MOL0     C27961  -0.238   5.722   4.072  0.0775 -0.5560  0.1029
  208MOL0     N27962  -0.248   5.657   3.937  0.4186  0.1996 -0.1095
  208MOL0     C27963  -0.298   5.527   3.913 -0.2038  0.3169 -0.4078
  208MOL0     C27964  -0.296   5.514   3.773 -0.0532  0.3598 -0.1799
  208MOL0     C27965  -0.361   5.408   3.687 -0.3143 -0.4590 -0.1850
  208MOL0     C27966  -0.510   5.420   3.691  0.1795 -0.1084  0.6278
  208MOL0     C27967  -0.564   5.538   3.601 -0.0850  0.4138  0.1909
  208MOL0     C27968  -0.712   5.572   3.617  0.5910  0.8353 -0.3073
  208MOL0     O27969  -0.730   5.648   3.733  0.3274 -0.1721 -0.2027
  208MOL0     C27970  -0.733   5.786   3.726  0.4642  0.2519  0.1245
  208MOL0     C27971  -0.841   5.851   3.672  0.0474  0.2004 -0.3624
  208MOL0     C27972  -0.852   5.986   3.658  0.2406  0.5974  0.6523
  208MOL0     C27973  -0.971   6.041   3.598  0.4060  0.4095 -0.1751
  208MOL0     C27974  -0.749   6.062   3.711  0.2822 -0.0972  0.4880
  208MOL0     C27975  -0.743   6.211   3.722  0.3836  0.0459  0.5787
  208MOL0     O27976  -0.650   6.263   3.811 -0.4240 -1.2837  0.0311
  208MOL0     C27977  -0.595   6.385   3.781  0.2613 -0.4581  0.0984
  208MOL0     C27978  -0.643   6.503   3.834  1.0065  0.4517  0.1858
  208MOL0     C27979  -0.591   6.625   3.801  0.2118  0.4130 -0.6404
  208MOL0     C27980  -0.492   6.635   3.706 -0.1618  0.1179  0.8417
  208MOL0     O27981  -0.453   6.752   3.646  0.5993  0.3910  0.0710
  208MOL0     C27982  -0.512   6.877   3.677 -0.2688  0.0732 -0.8613
  208MOL0     C27983  -0.447   6.990   3.600  0.7757 -1.0487 -0.3077
  208MOL0     C27984  -0.503   7.126   3.632 -0.4131  0.4372 -0.1759
  208MOL0     C27985  -0.442   7.216   3.520 -0.7010  0.6690 -0.2809
  208MOL0     C27986  -0.508   7.350   3.514  1.0701  0.2127 -0.7042
  208MOL0     C27987  -0.458   7.455   3.405  0.1228  0.5327  1.2828
  208MOL0     C27988  -0.297   7.450   3.387  0.0461 -0.1839 -0.0096
  208MOL0     C27989  -0.253   7.563   3.293 -0.1070  0.1853  0.1057
  208MOL0    Cl27990  -0.348   7.586   3.133 -0.4422  0.3189 -0.1191
  208MOL0     C27991  -0.437   6.515   3.644 -0.2483 -1.3568  0.1131
  208MOL0     C27992  -0.490   6.394   3.683 -0.3045 -0.1540  0.0019
  208MOL0     O27993  -0.832   6.280   3.661 -0.0884  0.3507 -0.0705
  208MOL0     C27994  -0.635   5.998   3.767 -0.3293  0.7173 -0.9970
  208MOL0     C27995  -0.626   5.858   3.781  0.5005  0.9004  0.6330
  208MOL0     N27996  -0.247   5.632   3.719 -0.4755 -0.7652 -1.1067
  208MOL0     N27997  -0.222   5.713   3.819  0.4701 -0.0698  0.7583
  208MOL0     C27998   0.185   5.159   4.832  0.3779  1.0274 -1.0694
  208MOL0     C27999   0.276   5.080   4.911  0.4419 -0.1713 -0.1633
  208MOL0     C28000   0.609   4.727   4.967 -0.2604 -0.3172  0.0945
  208MOL0     C28001   0.518   4.631   5.014 -0.7455  0.5317 -1.1532
  208MOL0     C28002   0.550   4.499   5.039 -0.2622 -0.1337  0.5466
  208MOL0     C28003   0.687   4.462   5.033 -0.9411 -0.4039 -0.8624
  208MOL0     O28004   0.716   4.329   5.058  1.1078  0.2399 -0.2700
  208MOL0     C28005   0.848   4.283   5.048 -0.0691 -0.4479 -0.2079
  208MOL0     C28006   0.843   4.135   5.084 -0.1832 -0.1122 -0.7644
  208MOL0     C28007   0.973   4.046   5.076  0.3503 -0.0032  0.3648
  208MOL0     C28008   1.014   3.991   4.930 -0.0794  0.0396  0.0223
  208MOL0     C28009   1.162   3.963   4.944 -0.0357 -0.1617  0.0469
  208MOL0     C28010   1.280   3.922   4.951 -0.1548 -0.1824  0.4567
  208MOL0     C28011   0.779   4.561   4.998  0.9338 -0.3785 -0.6196
  208MOL0     C28012   0.743   4.690   4.959  0.8334 -0.0985  0.3960
  208MOL0     H28013   0.502   4.993   4.692 -0.9694 -0.5633 -1.1782
  208MOL0     H28014   0.359   5.130   4.545 -0.8569 -3.2867 -0.7449
  208MOL0     H28015   0.244   5.434   4.714 -1.9688 -1.3112  1.5031
  208MOL0     H28016   0.233   5.431   4.536  0.5290 -1.0496  0.1881
  208MOL0     H28017   0.010   5.454   4.725  2.3030 -2.8151 -0.0448
  208MOL0     H28018   0.072   5.605   4.641  1.2733 -0.4004 -0.0451
  208MOL0     H28019   0.005   5.486   4.421  1.4302  3.5605  0.7764
  208MOL0     H28020  -0.080   5.368   4.520 -3.8045  1.2975 -2.0462
  208MOL0     H28021  -0.198   5.560   4.641  2.1175  2.1918  0.6736
  208MOL0     H28022  -0.141   5.667   4.520 -1.8605  0.0492  0.2904
  208MOL0     H28023  -0.299   5.427   4.424  0.0235 -0.2840  1.5618
  208MOL0     H28024  -0.363   5.590   4.450 -0.3992 -1.3830  0.0655
  208MOL0     H28025  -0.122   5.615   4.288 -0.5962  0.7863 -0.5243
  208MOL0     H28026  -0.217   5.472   4.228 -0.4433  1.6791 -1.9687
  208MOL0     H28027  -0.402   5.608   4.163 -0.8064  0.4836  0.8456
  208MOL0     H28028  -0.338   5.741   4.264 -0.1098  1.7591 -1.3756
  208MOL0     H28029  -0.134   5.737   4.104 -0.3931  1.5241  0.8032
  208MOL0     H28030  -0.277   5.823   4.055  1.8950  0.5959  2.1516
  208MOL0     H28031  -0.343   5.455   3.981  0.4751 -0.5761 -0.8754
  208MOL0     H28032  -0.331   5.414   3.582 -1.7672 -3.1762 -0.8388
  208MOL0     H28033  -0.313   5.322   3.734  0.9034  0.6383  0.6399
  208MOL0     H28034  -0.548   5.423   3.794 -0.2603  1.0145  0.4501
  208MOL0     H28035  -0.552   5.331   3.643  0.4404 -0.5851  1.2615
  208MOL0     H28036  -0.550   5.519   3.494 -0.9905  1.0842 -0.0547
  208MOL0     H28037  -0.511   5.630   3.626 -1.9789  1.5326  0.2006
  208MOL0     H28038  -0.761   5.476   3.633  0.2890  0.9539 -0.5236
  208MOL0     H28039  -0.748   5.618   3.525 -1.2285 -1.3106 -0.7498
  208MOL0     H28040  -0.918   5.780   3.643  0.0200  1.1313 -2.8414
  208MOL0     H28041  -0.967   6.093   3.501  1.2053  1.0572  0.1963
  208MOL0     H28042  -1.040   5.960   3.572 -0.1458  0.5640  0.7545
  208MOL0     H28043  -1.011   6.112   3.671 -1.2951 -0.7534  0.0822
  208MOL0     H28044  -0.726   6.488   3.903 -1.0276  0.1169 -2.1560
  208MOL0     H28045  -0.646   6.711   3.839  1.0583  0.4109  0.6539
  208MOL0     H28046  -0.621   6.871   3.668 -0.3484  0.3201 -0.1509
  208MOL0     H28047  -0.485   6.887   3.783  0.3550  0.6053 -1.0639
  208MOL0     H28048  -0.339   6.986   3.618  0.6152  0.6387  1.3468
  208MOL0     H28049  -0.452   6.963   3.494 -0.8771 -3.5084  0.2960
  208MOL0     H28050  -0.467   7.172   3.724  2.0189  0.1902 -0.9379
  208MOL0     H28051  -0.612   7.123   3.632 -0.5220  2.5351  1.6033
  208MOL0     H28052  -0.334   7.230   3.533 -0.3106  0.5944 -2.9307
  208MOL0     H28053  -0.456   7.163   3.425  5.3805 -1.9197 -0.2178
  208MOL0     H28054  -0.501   7.393   3.614 -1.0252 -2.1487  0.5650
  208MOL0     H28055  -0.614   7.326   3.501  0.9619  0.7750 -0.8983
  208MOL0     H28056  -0.502   7.439   3.306  1.0800  1.4105  0.6855
  208MOL0     H28057  -0.494   7.554   3.437 -0.1998  1.2903 -1.1735
  208MOL0     H28058  -0.262   7.353   3.353  3.2865  0.4220  1.2584
  208MOL0     H28059  -0.258   7.470   3.487 -1.2913  1.9406  0.1616
  208MOL0     H28060  -0.147   7.561   3.268  0.0067 -0.4307  0.6048
  208MOL0     H28061  -0.271   7.658   3.343  2.0521  0.6621  0.0423
  208MOL0     H28062  -0.353   6.521   3.575 -0.6696  0.5957 -0.3012
  208MOL0     H28063  -0.454   6.299   3.643  3.0286 -0.1663  2.5871
  208MOL0     H28064  -0.549   6.050   3.807  1.0919 -2.3128  0.2077
  208MOL0     H28065  -0.533   5.819   3.822  1.6577  2.9745  0.1032
  208MOL0     H28066   0.087   5.186   4.869 -0.8343 -0.8827 -2.6936
  208MOL0     H28067   0.245   5.054   5.012  1.9163  3.5800  1.4220
  208MOL0     H28068   0.418   4.665   5.041 -1.1753 -0.0893 -1.9438
  208MOL0     H28069   0.465   4.439   5.070  0.0660  0.9187  3.8770
  208MOL0     H28070   0.879   4.286   4.943 -1.4794 -2.0354 -0.7154
  208MOL0     H28071   0.919   4.323   5.121  0.1710 -0.0858 -0.6310
  208MOL0     H28072   0.781   4.096   5.002 -1.2126 -1.4779  0.6221
  208MOL0     H28073   0.795   4.108   5.178  1.4690 -1.0874 -0.1749
  208MOL0     H28074   0.968   3.968   5.153 -1.5849 -0.4039 -0.1222
  208MOL0     H28075   1.049   4.115   5.114 -1.2970  2.2461 -0.2107
  208MOL0     H28076   0.995   4.070   4.858 -2.3556  0.5978  1.1257
  208MOL0     H28077   0.976   3.894   4.896  0.6803 -0.3184  0.1855
  208MOL0     H28078   1.371   3.871   4.977  2.4564  2.5572 -2.4335
  208MOL0     H28079   0.885   4.539   4.998  0.8409 -0.8391 -0.4307
  208MOL0     H28080   0.830   4.753   4.944  2.4762 -2.0697  1.2460
  209MOL0     O28081  10.939   4.804   8.919  1.0530 -0.3210 -0.0021
  209MOL0     C28082  10.879   4.897   8.859  0.3788  0.1675 -0.5476
  209MOL0     O28083  10.753   4.943   8.880  0.0872  0.8607  0.3745
  209MOL0     C28084  10.670   4.856   8.948  0.4143 -0.5192 -0.4510
  209MOL0     C28085  10.669   4.856   9.090  0.8308 -0.3113  0.8390
  209MOL0     C28086  10.575   4.782   9.166  0.4271 -0.7004  0.7022
  209MOL0     C28087  10.476   4.706   9.096 -0.4969  0.1968  0.7093
  209MOL0     O28088  10.371   4.649   9.157  0.1198  0.1553 -0.4913
  209MOL0     C28089  10.331   4.521   9.104 -0.4210 -0.5839  0.0409
  209MOL0     C28090  10.225   4.458   9.201 -0.2523  0.1715 -0.0553
  209MOL0     C28091  10.172   4.320   9.147  0.2846 -0.2073 -0.1706
  209MOL0     C28092  10.024   4.298   9.193 -0.3721 -1.2090 -0.0344
  209MOL0     C28093   9.989   4.152   9.177  0.8479  0.3107 -0.2008
  209MOL0     C28094   9.849   4.109   9.210 -0.1817  0.0493  1.2950
  209MOL0     C28095   9.827   3.957   9.168 -0.1939  0.8920  0.1201
  209MOL0     C28096   9.813   3.939   9.016  0.2372 -0.3201  0.1402
  209MOL0     N28097   9.787   3.799   9.008  0.2310 -0.9482  0.2615
  209MOL0     C28098   9.663   3.731   9.009 -0.1575 -0.1744  0.0387
  209MOL0     C28099   9.693   3.599   8.979  0.1418  0.2075 -0.1114
  209MOL0     C28100   9.634   3.462   8.981 -0.1097  0.5830 -1.6949
  209MOL0     C28101   9.581   3.426   9.126  0.1238 -0.5172  1.1112
  209MOL0     C28102   9.702   3.407   9.232  0.0487  0.0155  0.1306
  209MOL0     C28103   9.650   3.384   9.372 -0.3238  0.1556  0.2227
  209MOL0     O28104   9.764   3.353   9.450 -0.2123 -0.5301 -0.1748
  209MOL0     C28105   9.734   3.269   9.553 -0.7017 -0.0686  0.7331
  209MOL0     C28106   9.814   3.150   9.557  0.3632 -0.4896 -0.0315
  209MOL0     C28107   9.785   3.047   9.644  0.4269  0.0269  0.5641
  209MOL0     C28108   9.856   2.914   9.640 -0.0533 -0.6574  0.0314
  209MOL0     C28109   9.668   3.054   9.730  0.1886  0.3230  0.2991
  209MOL0     C28110   9.601   2.937   9.807  0.1911 -0.6259  0.7318
  209MOL0     O28111   9.464   2.951   9.823  0.4636  0.3505 -0.2544
  209MOL0     C28112   9.394   2.832   9.866  1.0742 -0.1001  0.9178
  209MOL0     C28113   9.421   2.789   9.998 -0.1936  1.0617 -0.0161
  209MOL0     C28114   9.348   2.676  10.047  0.4327  0.6113 -0.9536
  209MOL0     C28115   9.258   2.611   9.974 -0.4846 -0.1745  0.6665
  209MOL0     O28116   9.175   2.508  10.013  0.0923  0.3077  0.1198
  209MOL0     C28117   9.170   2.456  10.151 -0.6826  0.6081  1.0648
  209MOL0     C28118   9.082   2.329  10.147 -0.0682 -0.2891  0.2981
  209MOL0     C28119   9.064   2.266  10.285 -0.2163 -0.5439  0.4937
  209MOL0     C28120   9.029   2.120  10.271  0.5631 -0.6052 -0.2793
  209MOL0     C28121   9.022   2.064  10.414 -0.1306  0.1414 -0.1269
  209MOL0     C28122   8.958   1.919  10.412  0.2067  0.4446 -0.3309
  209MOL0     C28123   8.939   1.860  10.554  0.4311 -0.1621  0.3478
  209MOL0     C28124   9.062   1.873  10.633  0.4386  0.0641  0.2847
  209MOL0    Cl28125   9.023   1.812  10.789 -0.2864  0.0816  0.2573
  209MOL0     C28126   9.214   2.674   9.857  0.5630  0.0922  0.5340
  209MOL0     C28127   9.278   2.779   9.803  0.2055 -0.0848 -0.3341
  209MOL0     O28128   9.666   2.847   9.843  0.6801  0.4420 -0.3134
  209MOL0     C28129   9.591   3.175   9.713 -0.2015 -0.0344 -0.1820
  209MOL0     C28130   9.633   3.288   9.639  0.1498 -0.4151 -0.5599
  209MOL0     N28131   9.831   3.593   8.957 -0.0343  0.2480  0.1173
  209MOL0     N28132   9.886   3.708   8.967  0.5616 -0.7684  0.0396
  209MOL0     C28133  10.486   4.695   8.957  0.8344  0.6308  0.0434
  209MOL0     C28134  10.581   4.770   8.887 -1.0264  0.1134  0.5776
  209MOL0     C28135  10.962   4.976   8.765 -0.5050  0.6626  0.2741
  209MOL0     C28136  11.082   4.923   8.703  1.1495 -0.3722 -0.3390
  209MOL0     C28137  11.146   4.995   8.604  0.0935  0.3078 -0.8342
  209MOL0     C28138  11.106   5.127   8.569  0.2728  0.3414  0.0797
  209MOL0     O28139  11.180   5.209   8.487  1.0066 -0.2654  0.1205
  209MOL0     C28140  11.254   5.147   8.376  0.6093 -0.4123  0.2273
  209MOL0     C28141  11.324   5.255   8.300 -0.0592  0.2884 -0.9858
  209MOL0     C28142  11.441   5.318   8.367 -0.7342  0.3021 -0.4242
  209MOL0     C28143  11.468   5.460   8.318 -0.1433 -0.0606 -0.7477
  209MOL0     C28144  11.459   5.472   8.170 -0.0362  1.0327 -0.3547
  209MOL0     C28145  11.433   5.497   8.053  0.7524  0.9840 -0.3388
  209MOL0     C28146  11.007   5.184   8.646 -0.3165 -0.0039 -0.5095
  209MOL0     C28147  10.933   5.111   8.739 -0.3399 -0.0862  0.8047
  209MOL0     H28148  10.748   4.912   9.137  0.4665  1.5936 -0.6625
  209MOL0     H28149  10.563   4.794   9.273 -3.8274 -3.3393  0.7321
  209MOL0     H28150  10.280   4.529   9.007  1.6582  0.1048 -1.0501
  209MOL0     H28151  10.417   4.457   9.083 -0.2873 -0.3319 -0.1822
  209MOL0     H28152  10.278   4.433   9.294  0.8618 -0.7435 -0.9006
  209MOL0     H28153  10.148   4.531   9.227  2.6998  4.0385 -1.2924
  209MOL0     H28154  10.176   4.323   9.038 -0.0341  4.2041 -0.2326
  209MOL0     H28155  10.238   4.240   9.181 -1.9538 -2.7821 -1.5159
  209MOL0     H28156  10.027   4.334   9.296  1.6051 -0.5230 -0.2947
  209MOL0     H28157   9.956   4.363   9.137  0.9680  0.3231  0.0659
  209MOL0     H28158  10.009   4.126   9.073 -0.5775 -2.0565  0.0381
  209MOL0     H28159  10.056   4.095   9.242 -0.8494 -0.5892  0.8266
  209MOL0     H28160   9.834   4.120   9.318 -0.0956  0.3499  1.2779
  209MOL0     H28161   9.779   4.178   9.162  1.2295 -0.8041 -2.3402
  209MOL0     H28162   9.901   3.884   9.201 -3.1873 -2.1735  0.6107
  209MOL0     H28163   9.734   3.924   9.215 -1.3689  1.3692 -1.7743
  209MOL0     H28164   9.908   3.967   8.970 -2.1990  2.4119 -3.8768
  209MOL0     H28165   9.735   4.000   8.969  0.0962 -1.5107 -1.2328
  209MOL0     H28166   9.567   3.772   9.036  0.2807 -0.8842  3.0411
  209MOL0     H28167   9.547   3.459   8.914 -0.1985  1.2191 -1.6082
  209MOL0     H28168   9.709   3.388   8.952  1.6682  0.9939  1.4506
  209MOL0     H28169   9.529   3.330   9.126  0.1134 -0.5144  0.5275
  209MOL0     H28170   9.519   3.512   9.155  4.6356  3.3514  0.6730
  209MOL0     H28171   9.773   3.490   9.237 -1.7507  1.5486  1.9191
  209MOL0     H28172   9.758   3.318   9.203 -1.1265 -0.1438 -1.8807
  209MOL0     H28173   9.576   3.305   9.386 -0.2645  0.0719  0.0682
  209MOL0     H28174   9.605   3.478   9.404 -2.3983 -0.6917 -0.0592
  209MOL0     H28175   9.899   3.136   9.492  0.0502  1.0051 -0.8029
  209MOL0     H28176   9.953   2.911   9.589 -0.1146 -1.3255 -0.0455
  209MOL0     H28177   9.878   2.883   9.743  1.3157  0.3223  0.0725
  209MOL0     H28178   9.800   2.840   9.583 -1.6117  0.8247 -0.4463
  209MOL0     H28179   9.492   2.838  10.064  0.9025 -1.7226  1.0267
  209MOL0     H28180   9.367   2.640  10.148 -1.2330 -0.7653 -1.0942
  209MOL0     H28181   9.269   2.425  10.187 -0.7942 -0.7826  0.2176
  209MOL0     H28182   9.117   2.510  10.231  0.0371  0.5860  1.5663
  209MOL0     H28183   8.986   2.350  10.099  1.2018  2.7401 -1.1829
  209MOL0     H28184   9.144   2.263  10.085  1.3729 -0.4302  1.8269
  209MOL0     H28185   8.986   2.326  10.332  0.5533 -0.7179  2.0521
  209MOL0     H28186   9.155   2.272  10.345 -0.6359 -0.7758  1.1654
  209MOL0     H28187   8.930   2.118  10.224  0.1076  1.9179  0.4094
  209MOL0     H28188   9.103   2.072  10.207  3.6460  2.0540  1.0271
  209MOL0     H28189   8.963   2.127  10.481 -0.5536  1.1955 -1.4454
  209MOL0     H28190   9.121   2.072  10.460 -0.0193  2.8476 -0.6614
  209MOL0     H28191   8.861   1.931  10.363 -1.1821  3.3552  2.6750
  209MOL0     H28192   9.018   1.852  10.351  0.8628  0.4462  0.2890
  209MOL0     H28193   8.904   1.756  10.551 -1.2367  0.3916 -1.9086
  209MOL0     H28194   8.856   1.901  10.612  0.7552 -1.0685  1.4920
  209MOL0     H28195   9.097   1.976  10.649  3.9297 -0.9112 -0.1021
  209MOL0     H28196   9.147   1.818  10.592 -1.9202 -2.2547 -1.8794
  209MOL0     H28197   9.142   2.622   9.795  0.4243 -1.5301  1.9674
  209MOL0     H28198   9.253   2.817   9.705 -2.4636 -1.9737 -0.4812
  209MOL0     H28199   9.490   3.179   9.753  0.0067  0.8727  0.2606
  209MOL0     H28200   9.565   3.373   9.634  1.1553  0.8906  3.5513
  209MOL0     H28201  10.411   4.647   8.895 -0.5296  0.5880  1.6535
  209MOL0     H28202  10.590   4.754   8.780 -0.3645  0.6076  0.5577
  209MOL0     H28203  11.094   4.819   8.733  1.5749 -0.5771 -1.1748
  209MOL0     H28204  11.230   4.947   8.555 -0.6878 -0.5128 -1.4076
  209MOL0     H28205  11.335   5.077   8.400  2.0075  1.3874  0.9310
  209MOL0     H28206  11.184   5.091   8.313  0.8270  2.2490 -2.5935
  209MOL0     H28207  11.253   5.336   8.282 -1.0572 -0.3972 -0.2030
  209MOL0     H28208  11.355   5.210   8.205 -0.8682 -1.3296 -0.5238
  209MOL0     H28209  11.530   5.255   8.361 -0.4435  0.6474  0.2337
  209MOL0     H28210  11.408   5.329   8.470 -0.4459  0.2429 -0.3242
  209MOL0     H28211  11.565   5.482   8.363 -0.2112 -1.4705  0.1472
  209MOL0     H28212  11.383   5.517   8.356 -0.9754 -2.3060  1.0115
  209MOL0     H28213  11.382   5.506   7.959 -1.8428 -0.0950  0.8511
  209MOL0     H28214  10.978   5.287   8.632 -0.6692  0.0301  0.3807
  209MOL0     H28215  10.849   5.162   8.784 -1.2641  0.9755 -1.9374
  210MOL0     O28216   7.815   0.228   1.830  0.5230  0.1612 -0.9497
  210MOL0     C28217   7.833   0.316   1.753  0.1060  0.6377 -0.1730
  210MOL0     O28218   7.754   0.425   1.748 -0.4736  0.2088 -0.0276
  210MOL0     C28219   7.669   0.452   1.853  0.2329  0.3019 -0.1132
  210MOL0     C28220   7.559   0.537   1.829  0.3389  0.3681 -0.0042
  210MOL0     C28221   7.470   0.583   1.929 -0.9731 -0.2236 -0.5204
  210MOL0     C28222   7.478   0.531   2.057  1.2110  0.6032 -0.1722
  210MOL0     O28223   7.395   0.555   2.161 -0.0705  0.4656  0.7851
  210MOL0     C28224   7.270   0.606   2.122  0.3240 -0.4277  0.8079
  210MOL0     C28225   7.167   0.619   2.231  0.6363 -0.4125  0.0407
  210MOL0     C28226   7.176   0.756   2.302  0.5314 -0.3822 -0.3674
  210MOL0     C28227   7.165   0.741   2.451 -0.1067  0.9433  0.1769
  210MOL0     C28228   7.025   0.779   2.505  0.4244  0.3833 -0.6200
  210MOL0     C28229   6.909   0.706   2.433 -0.0961 -0.1718 -0.5697
  210MOL0     C28230   6.777   0.760   2.488 -0.7332  0.0808 -0.1150
  210MOL0     C28231   6.707   0.881   2.418 -1.2158 -0.2564  0.2075
  210MOL0     N28232   6.566   0.890   2.437  0.3861 -0.3058 -0.4419
  210MOL0     C28233   6.496   0.955   2.542  0.3381  0.3293  0.2595
  210MOL0     C28234   6.364   0.937   2.511  0.7719  0.3868  0.3545
  210MOL0     C28235   6.245   0.995   2.578  0.9381  0.2044  0.2458
  210MOL0     C28236   6.192   0.904   2.695 -0.2145 -0.4907  0.8318
  210MOL0     C28237   6.189   0.754   2.666  0.2305 -0.3491  0.5256
  210MOL0     C28238   6.165   0.676   2.794  0.5017  0.7719  0.0436
  210MOL0     O28239   6.277   0.673   2.879 -0.0700  1.2550  0.2575
  210MOL0     C28240   6.254   0.638   3.011  0.5747  0.1726 -1.3588
  210MOL0     C28241   6.363   0.632   3.095  0.5491  0.0988 -0.9401
  210MOL0     C28242   6.368   0.578   3.223  0.0111 -0.0529 -0.6706
  210MOL0     C28243   6.505   0.565   3.292  0.3025 -0.0883  1.0190
  210MOL0     C28244   6.252   0.514   3.276 -0.5423  0.3084  0.2478
  210MOL0     C28245   6.242   0.441   3.408  0.0192 -0.3463 -0.0979
  210MOL0     O28246   6.133   0.364   3.425 -0.1799  0.6102 -0.4341
  210MOL0     C28247   6.154   0.248   3.498 -0.3102  0.4757 -0.0288
  210MOL0     C28248   6.134   0.251   3.631  1.3746 -0.1566 -0.5102
  210MOL0     C28249   6.180   0.137   3.711 -0.0682  0.4451  0.2137
  210MOL0     C28250   6.221   0.018   3.648 -0.3831 -0.5383  0.9093
  210MOL0     O28251   6.262  -0.078   3.724  0.1933  0.6979 -0.2196
  210MOL0     C28252   6.197  -0.206   3.712 -0.1493 -0.5620  0.1216
  210MOL0     C28253   6.056  -0.222   3.777  0.8281 -0.2814  0.0956
  210MOL0     C28254   5.970  -0.347   3.742 -0.1299  0.4383  0.5929
  210MOL0     C28255   5.833  -0.327   3.803 -0.6577  0.3002  0.5998
  210MOL0     C28256   5.761  -0.461   3.846  0.1045 -0.3276 -0.0432
  210MOL0     C28257   5.620  -0.431   3.889  0.5212 -0.5398 -0.4905
  210MOL0     C28258   5.528  -0.550   3.932  0.0751  0.8351 -0.1163
  210MOL0     C28259   5.405  -0.564   3.848 -0.0439 -0.2402  0.4681
  210MOL0    Cl28260   5.288  -0.443   3.893 -0.3628  0.0987  0.0755
  210MOL0     C28261   6.241   0.024   3.513 -0.5245  0.0568  0.4766
  210MOL0     C28262   6.211   0.137   3.437  0.9974 -0.4603  0.4802
  210MOL0     O28263   6.315   0.483   3.501 -0.3814 -0.3578 -0.6814
  210MOL0     C28264   6.139   0.515   3.193 -0.3506 -0.0622 -1.4499
  210MOL0     C28265   6.142   0.562   3.061  0.9163 -0.0486 -0.0870
  210MOL0     N28266   6.351   0.872   2.386 -0.4960 -0.2305  0.7880
  210MOL0     N28267   6.474   0.847   2.341 -0.2083 -0.3299 -0.6082
  210MOL0     C28268   7.583   0.448   2.090  0.4232 -1.1439 -0.9983
  210MOL0     C28269   7.683   0.423   1.997  0.2472 -0.6339 -0.4994
  210MOL0     C28270   7.967   0.311   1.688 -0.7967  0.0918 -0.2370
  210MOL0     C28271   7.996   0.409   1.601  0.7761  0.2032  0.1675
  210MOL0     C28272   8.116   0.409   1.523 -0.2913  0.3839 -0.0976
  210MOL0     C28273   8.216   0.316   1.553  0.1024 -0.0354  0.5251
  210MOL0     O28274   8.328   0.315   1.474  0.3919 -0.0935 -0.1319
  210MOL0     C28275   8.459   0.275   1.519 -0.4568  0.3903 -0.1929
  210MOL0     C28276   8.487   0.139   1.451 -0.1056  0.1531  0.3236
  210MOL0     C28277   8.495   0.146   1.289  0.4055  0.2508 -0.0182
  210MOL0     C28278   8.638   0.106   1.249 -0.3908  0.7061 -0.0516
  210MOL0     C28279   8.629   0.034   1.120 -0.8698  0.9296  0.1636
  210MOL0     C28280   8.603  -0.002   1.004 -0.7290  0.1256 -0.5521
  210MOL0     C28281   8.182   0.221   1.638  0.4397  0.4666 -0.5661
  210MOL0     C28282   8.066   0.212   1.715  0.0694 -1.0820 -0.0699
  210MOL0     H28283   7.544   0.570   1.726  0.7851  0.5955 -0.0007
  210MOL0     H28284   7.410   0.669   1.901 -0.4489  0.0237 -0.9005
  210MOL0     H28285   7.284   0.700   2.068  0.3842 -0.0835  1.4095
  210MOL0     H28286   7.236   0.531   2.050  1.1518  0.4843 -0.5759
  210MOL0     H28287   7.075   0.614   2.172  0.4273  0.2947  0.2851
  210MOL0     H28288   7.175   0.533   2.298 -0.3059 -0.5010  0.0515
  210MOL0     H28289   7.275   0.793   2.272  1.3831 -3.6954 -2.1190
  210MOL0     H28290   7.107   0.827   2.255  0.9322  1.2382  1.3383
  210MOL0     H28291   7.190   0.638   2.479 -1.3460  0.1505 -1.3915
  210MOL0     H28292   7.232   0.814   2.496  0.3789 -1.1103  3.0231
  210MOL0     H28293   7.022   0.747   2.609  0.6774  0.4001 -0.6072
  210MOL0     H28294   7.009   0.888   2.500  0.3422  0.4010 -0.0303
  210MOL0     H28295   6.913   0.710   2.324 -0.3163 -1.9250 -0.6782
  210MOL0     H28296   6.920   0.603   2.469  1.8694  1.1150  2.9940
  210MOL0     H28297   6.704   0.679   2.494 -1.2461  0.5008 -0.6671
  210MOL0     H28298   6.798   0.788   2.592 -1.0011  1.6919 -0.4655
  210MOL0     H28299   6.725   0.872   2.311  2.8129  0.2324  0.6725
  210MOL0     H28300   6.761   0.974   2.438 -0.7412 -0.5748  0.4405
  210MOL0     H28301   6.552   1.007   2.619  0.1747  0.2193  0.4507
  210MOL0     H28302   6.262   1.095   2.618  0.9238 -0.1967  1.2910
  210MOL0     H28303   6.171   0.994   2.497  1.0735 -2.7785  0.0515
  210MOL0     H28304   6.090   0.933   2.723 -0.3505  1.8380 -1.6420
  210MOL0     H28305   6.259   0.908   2.781  2.9446 -0.7917 -1.4392
  210MOL0     H28306   6.288   0.731   2.624 -0.7920 -0.1439 -2.2282
  210MOL0     H28307   6.116   0.738   2.587 -0.1358 -1.1822  1.0217
  210MOL0     H28308   6.156   0.569   2.776  1.2389  0.3623  1.9109
  210MOL0     H28309   6.083   0.715   2.854  0.1825  2.3811 -1.3570
  210MOL0     H28310   6.457   0.661   3.049 -0.1097  1.8908 -1.2242
  210MOL0     H28311   6.518   0.470   3.343  0.0479 -1.2450 -0.9733
  210MOL0     H28312   6.582   0.586   3.217 -0.7320 -1.7018 -0.5578
  210MOL0     H28313   6.529   0.641   3.367  1.5780  1.0570 -0.4901
  210MOL0     H28314   6.099   0.341   3.680  4.7745  1.1745 -0.2622
  210MOL0     H28315   6.181   0.117   3.817  0.9179 -0.2814  0.0810
  210MOL0     H28316   6.203  -0.233   3.607  1.0293 -0.0559  0.0532
  210MOL0     H28317   6.254  -0.280   3.769  0.9721  2.0331  2.5939
  210MOL0     H28318   6.087  -0.231   3.882 -1.5421  1.1355  0.9967
  210MOL0     H28319   5.991  -0.136   3.758 -2.4221 -2.8527 -1.5282
  210MOL0     H28320   6.021  -0.439   3.772  0.9335  0.4858 -0.9793
  210MOL0     H28321   5.949  -0.347   3.635  2.2846  2.1251  0.0553
  210MOL0     H28322   5.854  -0.270   3.894 -0.3535  1.8466 -0.3996
  210MOL0     H28323   5.772  -0.251   3.755 -0.8044  0.0752  0.4257
  210MOL0     H28324   5.818  -0.490   3.935  1.0084 -1.6559 -1.0057
  210MOL0     H28325   5.762  -0.541   3.771 -0.4014  1.6397 -2.2854
  210MOL0     H28326   5.606  -0.349   3.960  1.2792 -0.9041  0.1011
  210MOL0     H28327   5.580  -0.389   3.796 -0.3170  0.2816  0.2205
  210MOL0     H28328   5.502  -0.571   4.036 -0.5379  1.7647 -0.0687
  210MOL0     H28329   5.586  -0.638   3.902 -0.8575  0.5629 -1.1817
  210MOL0     H28330   5.373  -0.665   3.872 -0.0929 -0.9924 -2.4381
  210MOL0     H28331   5.436  -0.561   3.744  1.1464 -1.0591  0.7767
  210MOL0     H28332   6.278  -0.065   3.462 -1.6677 -0.1552 -0.0174
  210MOL0     H28333   6.229   0.139   3.330  1.5409  2.8394  0.5328
  210MOL0     H28334   6.044   0.472   3.226 -0.4059  0.7949 -0.4470
  210MOL0     H28335   6.047   0.562   3.007  1.3442  2.4096 -0.9572
  210MOL0     H28336   7.601   0.406   2.188  0.7335 -0.8258 -0.9182
  210MOL0     H28337   7.770   0.375   2.040 -0.4275  0.6653  2.5903
  210MOL0     H28338   7.916   0.479   1.578 -0.7379 -1.0842  1.3229
  210MOL0     H28339   8.130   0.479   1.441 -0.9364  2.2912  1.3301
  210MOL0     H28340   8.532   0.348   1.482 -0.1841 -1.0170 -2.6384
  210MOL0     H28341   8.463   0.270   1.628 -1.9853  0.8556 -0.0980
  210MOL0     H28342   8.396   0.079   1.460 -1.6419  2.1615 -1.0053
  210MOL0     H28343   8.572   0.088   1.498 -1.3567 -0.7041  1.7696
  210MOL0     H28344   8.471   0.247   1.256  0.3544  0.8274  1.7025
  210MOL0     H28345   8.431   0.069   1.246 -0.6906  0.7506  0.6775
  210MOL0     H28346   8.670   0.036   1.326 -0.2795  2.2053  1.3215
  210MOL0     H28347   8.700   0.196   1.242  1.1469  0.0064  2.8933
  210MOL0     H28348   8.591  -0.058   0.913 -3.2943 -0.4742  0.0955
  210MOL0     H28349   8.262   0.147   1.641 -0.4569 -0.5003  0.1081
  210MOL0     H28350   8.060   0.130   1.786  2.8193 -2.1162 -0.9377
  211MOL0     O28351   2.072  11.342   0.816 -0.3639  0.6160  0.1485
  211MOL0     C28352   2.008  11.418   0.742  0.4568  0.0029 -0.2931
  211MOL0     O28353   1.869  11.414   0.726 -0.5984  0.0674 -0.7252
  211MOL0     C28354   1.797  11.308   0.782 -0.8349 -0.0687 -0.2787
  211MOL0     C28355   1.848  11.184   0.828 -0.1088  0.5684  0.7113
  211MOL0     C28356   1.758  11.094   0.892 -0.0014  0.0670 -0.6455
  211MOL0     C28357   1.627  11.130   0.920  0.0375 -0.2571  0.4955
  211MOL0     O28358   1.542  11.031   0.968  0.8590  0.3458 -0.0219
  211MOL0     C28359   1.393  11.049   0.960 -0.5666  0.1305 -0.0215
  211MOL0     C28360   1.323  10.938   1.029  1.0096 -0.1481 -0.5984
  211MOL0     C28361   1.345  10.928   1.182 -0.3963 -0.5636  0.4623
  211MOL0     C28362   1.219  10.861   1.254  0.0027  0.3105  0.8052
  211MOL0     C28363   1.216  10.887   1.402 -1.0677 -1.0772  0.3443
  211MOL0     C28364   1.096  10.832   1.483 -0.0806 -0.6103  0.2241
  211MOL0     C28365   1.118  10.847   1.638 -0.6389  0.1865  0.6155
  211MOL0     C28366   0.997  10.785   1.714 -0.6071 -1.4026 -0.2337
  211MOL0     N28367   1.014  10.784   1.856 -0.2614  0.0815  0.6445
  211MOL0     C28368   1.010  10.897   1.938  0.8432  0.6263 -0.3001
  211MOL0     C28369   1.009  10.849   2.064  0.3660  0.8621  0.0059
  211MOL0     C28370   1.004  10.930   2.188 -0.0200 -0.1426 -0.2629
  211MOL0     C28371   0.883  11.021   2.193  0.0925  0.2657 -0.0098
  211MOL0     C28372   0.757  10.937   2.184  0.0269  0.0153 -0.9208
  211MOL0     C28373   0.647  11.033   2.233 -0.0168  0.1993 -0.5251
  211MOL0     O28374   0.626  11.146   2.140  0.8658  0.5347 -0.0140
  211MOL0     C28375   0.507  11.208   2.129  0.6298  0.3792  0.4131
  211MOL0     C28376   0.392  11.215   2.216  0.1902 -0.2055 -0.1476
  211MOL0     C28377   0.282  11.297   2.181 -0.6209 -0.2246 -0.4575
  211MOL0     C28378   0.180  11.303   2.294  0.1199  0.1682  0.4443
  211MOL0     C28379   0.276  11.368   2.052 -0.8484  1.0481 -0.6730
  211MOL0     C28380   0.167  11.449   2.003 -0.5001  0.4747 -0.0688
  211MOL0     O28381   0.208  11.551   1.928 -0.0619  0.2112 -0.1609
  211MOL0     C28382   0.139  11.652   1.875  0.2891 -0.2693 -0.6750
  211MOL0     C28383  -0.003  11.652   1.859  0.5724  0.5797 -0.3057
  211MOL0     C28384  -0.067  11.763   1.792  0.0775  0.6815  0.6464
  211MOL0     C28385   0.002  11.874   1.758  0.0395  0.2289 -0.9499
  211MOL0     O28386  -0.055  11.994   1.722 -0.4303  0.0665  0.1466
  211MOL0     C28387  -0.196  11.994   1.688  0.3959 -1.3940 -0.0376
  211MOL0     C28388  -0.237  12.142   1.702  0.3135  0.2051 -0.3322
  211MOL0     C28389  -0.386  12.167   1.672  0.4691 -0.2256  0.0909
  211MOL0     C28390  -0.488  12.108   1.773 -0.9982  0.2093  0.8789
  211MOL0     C28391  -0.636  12.163   1.771  0.0320  0.9319  0.0963
  211MOL0     C28392  -0.743  12.083   1.857 -0.7249  0.1208  1.3076
  211MOL0     C28393  -0.704  12.057   1.998  0.1487 -0.3106 -1.0368
  211MOL0     C28394  -0.830  12.052   2.098  1.0430  0.7896  0.6664
  211MOL0    Cl28395  -0.948  11.927   2.043  0.3974  0.5311  0.1689
  211MOL0     C28396   0.142  11.872   1.782  0.6848  0.1288 -0.0836
  211MOL0     C28397   0.206  11.758   1.824  0.1644  0.0351 -0.3087
  211MOL0     O28398   0.050  11.434   2.046 -0.2893 -0.0854  0.3555
  211MOL0     C28399   0.403  11.365   1.978  0.8345 -1.2114 -0.6422
  211MOL0     C28400   0.508  11.280   2.008  0.6795 -0.4131  0.4393
  211MOL0     N28401   1.027  10.710   2.054 -0.0438  0.4579  0.2183
  211MOL0     N28402   1.030  10.674   1.932 -0.3444 -0.2189  0.5317
  211MOL0     C28403   1.576  11.253   0.869  0.1209 -0.1705 -0.2878
  211MOL0     C28404   1.666  11.336   0.801  0.0331  0.5987  0.6315
  211MOL0     C28405   2.072  11.512   0.651  0.5697  0.9183  0.2140
  211MOL0     C28406   2.011  11.625   0.598 -0.2998 -0.3729 -0.0482
  211MOL0     C28407   2.093  11.703   0.505  0.2563 -0.2647 -0.2185
  211MOL0     C28408   2.224  11.671   0.465  0.1325  0.0762 -1.0852
  211MOL0     O28409   2.288  11.764   0.380 -0.5230  0.2768  0.1050
  211MOL0     C28410   2.427  11.754   0.371 -0.6762  0.5231  0.1690
  211MOL0     C28411   2.493  11.809   0.492 -0.4917  0.2510 -0.5935
  211MOL0     C28412   2.526  11.954   0.473  0.2253  0.2122 -0.7420
  211MOL0     C28413   2.405  12.047   0.452 -0.3850 -0.0221  0.0130
  211MOL0     C28414   2.332  12.073   0.571  0.2448  0.8466 -0.1317
  211MOL0     C28415   2.256  12.112   0.660 -0.3424 -0.3897  0.4749
  211MOL0     C28416   2.287  11.557   0.520  0.1008 -0.8046  0.4609
  211MOL0     C28417   2.209  11.486   0.618  0.0124  0.6722 -0.1939
  211MOL0     H28418   1.948  11.142   0.833 -0.9906 -1.6242  0.9544
  211MOL0     H28419   1.795  11.003   0.938  2.2149  1.8971  1.4934
  211MOL0     H28420   1.355  11.140   1.008  1.1468  2.5001 -2.7637
  211MOL0     H28421   1.373  11.041   0.853  4.9370 -1.0450 -1.2782
  211MOL0     H28422   1.220  10.961   1.000  1.1316  1.1397 -0.0612
  211MOL0     H28423   1.344  10.840   0.984  1.1412  0.1690 -1.2376
  211MOL0     H28424   1.437  10.871   1.195  0.1103  0.2869  0.7157
  211MOL0     H28425   1.358  11.026   1.231 -3.5435  1.2063 -1.8986
  211MOL0     H28426   1.132  10.901   1.202 -0.9002 -1.8831  0.5206
  211MOL0     H28427   1.210  10.754   1.232 -0.8763  0.2361  1.5121
  211MOL0     H28428   1.312  10.854   1.444 -2.3644 -2.2518  2.5819
  211MOL0     H28429   1.217  10.994   1.424  2.5116 -1.0602  0.7599
  211MOL0     H28430   1.008  10.890   1.452  1.3167 -0.3083 -3.7878
  211MOL0     H28431   1.065  10.729   1.460 -0.3638 -0.1864 -1.4088
  211MOL0     H28432   1.209  10.795   1.668 -0.1332 -0.7933 -2.2384
  211MOL0     H28433   1.119  10.954   1.661  0.7549 -0.2765  2.9781
  211MOL0     H28434   0.985  10.683   1.676  2.4606 -1.2716 -1.8455
  211MOL0     H28435   0.909  10.841   1.680  1.6343  0.3121 -3.7637
  211MOL0     H28436   1.019  11.001   1.907  0.4525  0.3689 -1.3200
  211MOL0     H28437   1.000  10.868   2.279 -1.1975  0.6430  0.2540
  211MOL0     H28438   1.099  10.983   2.194  0.3478 -0.5904 -1.7568
  211MOL0     H28439   0.879  11.090   2.108  2.1087  0.0299 -0.3426
  211MOL0     H28440   0.890  11.089   2.279  2.3325 -1.1726  1.0421
  211MOL0     H28441   0.759  10.853   2.253  2.4178 -1.2202 -2.3222
  211MOL0     H28442   0.732  10.904   2.082  0.7118  1.3919 -1.5723
  211MOL0     H28443   0.669  11.058   2.338  0.1521  0.3391 -0.5933
  211MOL0     H28444   0.557  10.970   2.235 -0.1982  0.4745  0.7105
  211MOL0     H28445   0.384  11.156   2.307 -2.2113  0.6606  0.2865
  211MOL0     H28446   0.146  11.407   2.283 -3.2250 -0.8574  0.0201
  211MOL0     H28447   0.096  11.234   2.284 -0.1950  0.6893 -0.6777
  211MOL0     H28448   0.222  11.276   2.390  2.7809 -1.5434 -1.0830
  211MOL0     H28449  -0.059  11.562   1.882 -1.8848  1.3276 -2.8386
  211MOL0     H28450  -0.170  11.744   1.760  0.9286 -0.4343 -1.6619
  211MOL0     H28451  -0.204  11.955   1.587  0.0736  1.0370 -1.0184
  211MOL0     H28452  -0.266  11.941   1.753 -1.0803 -0.6285 -0.9594
  211MOL0     H28453  -0.238  12.177   1.806  2.7503 -0.0406 -0.1839
  211MOL0     H28454  -0.169  12.211   1.652 -0.1737 -0.8622 -2.6038
  211MOL0     H28455  -0.413  12.140   1.570  0.2739  1.7981 -0.4378
  211MOL0     H28456  -0.408  12.274   1.673 -0.2993 -0.3614 -0.7748
  211MOL0     H28457  -0.489  11.999   1.765  0.5598  0.2135  0.3039
  211MOL0     H28458  -0.452  12.130   1.874 -0.3416  1.1039  0.4670
  211MOL0     H28459  -0.645  12.166   1.662  1.1328 -0.0795 -0.0507
  211MOL0     H28460  -0.618  12.263   1.810  0.5150  1.1798 -0.7415
  211MOL0     H28461  -0.827  12.153   1.861 -1.5424 -0.8841  1.9009
  211MOL0     H28462  -0.760  11.985   1.813 -0.7453  0.4246  0.6155
  211MOL0     H28463  -0.639  12.138   2.033  1.5254 -1.1656 -1.5582
  211MOL0     H28464  -0.649  11.964   2.013 -1.1169 -0.7561  1.5501
  211MOL0     H28465  -0.876  12.151   2.110  1.5091  0.9279  1.4308
  211MOL0     H28466  -0.796  12.029   2.200 -0.4078 -0.3905  0.9113
  211MOL0     H28467   0.191  11.966   1.756 -0.1610  0.3736 -0.8415
  211MOL0     H28468   0.314  11.761   1.831  0.0910 -0.1098  1.5114
  211MOL0     H28469   0.417  11.444   1.905 -3.8906 -1.0711 -1.6962
  211MOL0     H28470   0.593  11.292   1.941 -0.5780  1.5404 -0.9204
  211MOL0     H28471   1.471  11.280   0.877 -1.1834 -4.5485 -0.0119
  211MOL0     H28472   1.629  11.430   0.762 -2.5655  0.0337  1.4766
  211MOL0     H28473   1.911  11.659   0.624  0.8459  1.9397  1.7173
  211MOL0     H28474   2.047  11.795   0.471  1.3229  1.0537  1.7375
  211MOL0     H28475   2.457  11.650   0.358 -0.0212  0.7341 -0.0854
  211MOL0     H28476   2.466  11.811   0.285 -1.3585 -1.0624 -1.2452
  211MOL0     H28477   2.583  11.747   0.498  0.8248  2.1626  0.2480
  211MOL0     H28478   2.442  11.783   0.585  1.0034  0.0967  0.2133
  211MOL0     H28479   2.597  11.966   0.390  1.8310  1.0715  0.7083
  211MOL0     H28480   2.578  11.991   0.561  4.1091 -1.2460 -2.2085
  211MOL0     H28481   2.341  11.994   0.381  0.8479 -1.5221 -0.0497
  211MOL0     H28482   2.423  12.144   0.406 -0.1965 -0.1598 -0.2052
  211MOL0     H28483   2.179  12.148   0.725 -1.2582 -1.9306  0.3010
  211MOL0     H28484   2.377  11.510   0.480 -0.4545 -0.1730 -1.6811
  211MOL0     H28485   2.248  11.387   0.640 -0.2811  0.7494  0.7061
  212MOL0     O28486   8.050  11.110   3.872  0.3487 -0.1824 -0.3043
  212MOL0     C28487   8.132  11.032   3.846  0.0587  0.3065  0.4921
  212MOL0     O28488   8.107  10.891   3.832 -0.3347  0.7234  0.5153
  212MOL0     C28489   7.999  10.814   3.875 -0.1848 -0.3290  0.6040
  212MOL0     C28490   8.012  10.677   3.842  0.1958 -0.0679  0.3455
  212MOL0     C28491   7.911  10.586   3.889  0.3480 -0.8595  0.1601
  212MOL0     C28492   7.799  10.624   3.966 -0.1141  0.6009  0.5689
  212MOL0     O28493   7.705  10.526   3.988  0.4031 -0.0775 -0.5740
  212MOL0     C28494   7.611  10.552   4.101  0.4640 -0.3827  0.6522
  212MOL0     C28495   7.536  10.424   4.127 -0.8996  0.1271 -0.1466
  212MOL0     C28496   7.428  10.397   4.016 -0.0687  1.0636  0.7996
  212MOL0     C28497   7.331  10.276   4.042 -0.9086  0.3197 -0.1405
  212MOL0     C28498   7.204  10.262   3.946  0.3619 -0.1758  0.8974
  212MOL0     C28499   7.129  10.393   3.906 -0.9897  0.4431 -0.7330
  212MOL0     C28500   6.993  10.381   3.832 -0.5212 -0.9851  0.5945
  212MOL0     C28501   6.871  10.339   3.916  0.4262  0.3744 -0.3335
  212MOL0     N28502   6.744  10.305   3.839 -0.9881  0.0257  0.2801
  212MOL0     C28503   6.749  10.210   3.737 -0.0145 -0.6471  0.1749
  212MOL0     C28504   6.636  10.225   3.671  0.3665  0.0854  0.3477
  212MOL0     C28505   6.606  10.163   3.531  0.9477 -0.5733  0.4493
  212MOL0     C28506   6.650  10.017   3.515  0.8094  0.6218  0.2675
  212MOL0     C28507   6.653   9.973   3.368  0.9413 -0.1212 -1.1579
  212MOL0     C28508   6.532   9.992   3.284  1.3768 -1.0216  0.6415
  212MOL0     O28509   6.555  10.106   3.205  0.2469 -0.2190  0.6299
  212MOL0     C28510   6.461  10.211   3.222 -0.3867  1.1365  0.3061
  212MOL0     C28511   6.324  10.195   3.200 -0.3379 -0.1233  0.6381
  212MOL0     C28512   6.224  10.299   3.213  0.2789  0.2840  0.1069
  212MOL0     C28513   6.077  10.256   3.211 -0.2342  0.0704 -0.0782
  212MOL0     C28514   6.277  10.429   3.232 -0.0552  0.0533  0.1010
  212MOL0     C28515   6.189  10.549   3.266  0.1229 -0.1786  0.2060
  212MOL0     O28516   6.053  10.546   3.229  0.1728 -0.5717  0.2332
  212MOL0     C28517   5.952  10.625   3.297 -0.0867  0.5904  0.3223
  212MOL0     C28518   5.821  10.630   3.243 -0.6239  0.1984 -0.0385
  212MOL0     C28519   5.718  10.694   3.314  0.3586  0.0676 -0.0426
  212MOL0     C28520   5.741  10.747   3.442  0.4452  0.4091 -0.2087
  212MOL0     O28521   5.646  10.818   3.514 -0.0011  0.1053 -0.6350
  212MOL0     C28522   5.599  10.942   3.452  0.3334  0.0188  0.1151
  212MOL0     C28523   5.692  11.070   3.440 -0.1080 -0.2988 -0.7404
  212MOL0     C28524   5.827  11.044   3.360 -0.1773  0.0743 -0.8588
  212MOL0     C28525   5.891  11.179   3.316 -0.3402  0.4419 -0.6899
  212MOL0     C28526   5.990  11.163   3.196  0.2489  0.5947  0.0408
  212MOL0     C28527   6.121  11.093   3.235 -0.5899 -0.1998 -0.0660
  212MOL0     C28528   6.223  11.088   3.123  0.0162 -0.1214  0.9495
  212MOL0     C28529   6.356  11.014   3.154  0.9023 -0.0185  0.2708
  212MOL0    Cl28530   6.441  11.109   3.286  0.2095  0.2093 -0.0581
  212MOL0     C28531   5.871  10.730   3.508  0.1921  0.1936  0.8081
  212MOL0     C28532   5.977  10.672   3.428  0.6955 -0.8829 -0.2070
  212MOL0     O28533   6.243  10.647   3.314  0.1995 -0.9650 -0.2221
  212MOL0     C28534   6.415  10.449   3.248 -0.2654 -0.7697  0.0478
  212MOL0     C28535   6.507  10.338   3.246  0.2701  0.5440  0.5854
  212MOL0     N28536   6.556  10.327   3.735 -0.1719  0.0177 -0.7146
  212MOL0     N28537   6.625  10.373   3.836 -0.1301  0.2568 -0.2760
  212MOL0     C28538   7.794  10.763   4.001  0.4494  0.2797  0.3260
  212MOL0     C28539   7.890  10.852   3.959  0.2048  0.3469 -0.1280
  212MOL0     C28540   8.264  11.089   3.826 -0.2997  0.6046  0.2707
  212MOL0     C28541   8.310  11.210   3.877 -0.3366 -0.2304  0.2377
  212MOL0     C28542   8.440  11.257   3.851 -0.1928  0.2800  0.4688
  212MOL0     C28543   8.527  11.186   3.774  0.1060  0.3618  0.0671
  212MOL0     O28544   8.654  11.229   3.754  0.0352 -0.4487  0.2250
  212MOL0     C28545   8.744  11.173   3.853 -0.5529 -1.2780  0.7142
  212MOL0     C28546   8.879  11.256   3.831  0.8454  0.2336 -0.0398
  212MOL0     C28547   8.944  11.231   3.698 -0.0657  1.0745  1.0168
  212MOL0     C28548   9.000  11.351   3.631 -0.0667 -0.1877  0.1707
  212MOL0     C28549   9.130  11.394   3.689  1.0126 -0.0328  0.7276
  212MOL0     C28550   9.231  11.436   3.727 -0.3662 -0.6786  0.3082
  212MOL0     C28551   8.487  11.066   3.716  0.0403 -0.3681 -0.0613
  212MOL0     C28552   8.363  11.020   3.750 -0.0585 -0.0181 -0.4801
  212MOL0     H28553   8.096  10.628   3.793 -1.0339 -1.3987 -0.5384
  212MOL0     H28554   7.916  10.479   3.869 -0.5060 -1.2269  1.7911
  212MOL0     H28555   7.664  10.581   4.193  2.4899  0.8137 -0.7981
  212MOL0     H28556   7.545  10.632   4.068  0.8822  0.5148  1.8888
  212MOL0     H28557   7.597  10.334   4.144 -1.3774 -0.0860  0.4980
  212MOL0     H28558   7.475  10.434   4.218  2.5878 -0.8923  2.5354
  212MOL0     H28559   7.371  10.489   3.998  1.5805  2.0328  0.2612
  212MOL0     H28560   7.478  10.369   3.923  0.9778 -2.5390  2.2536
  212MOL0     H28561   7.384  10.181   4.030  1.1684  1.0395  2.3184
  212MOL0     H28562   7.298  10.270   4.146 -1.0406 -1.7062 -0.2475
  212MOL0     H28563   7.240  10.217   3.853 -0.6157 -0.1458  0.4885
  212MOL0     H28564   7.132  10.187   3.981 -2.6492  1.8948 -0.4188
  212MOL0     H28565   7.115  10.440   4.004 -1.4174 -2.2804  0.6046
  212MOL0     H28566   7.199  10.452   3.846  1.8709  0.8090  2.6194
  212MOL0     H28567   6.975  10.485   3.802  1.8019 -0.6367  0.2401
  212MOL0     H28568   6.993  10.325   3.738 -0.1544  0.9393 -0.6009
  212MOL0     H28569   6.847  10.430   3.971  0.0508  1.0583 -1.5683
  212MOL0     H28570   6.890  10.257   3.985 -2.1632 -1.2793 -1.4009
  212MOL0     H28571   6.833  10.152   3.701 -0.9073 -4.0010  2.9252
  212MOL0     H28572   6.505  10.183   3.492  1.1863  2.9829  1.2829
  212MOL0     H28573   6.671  10.218   3.462  4.3779 -2.1671  2.1544
  212MOL0     H28574   6.583   9.948   3.566  2.4695 -0.8874  0.4998
  212MOL0     H28575   6.749  10.004   3.560  1.4686  1.2521 -0.9615
  212MOL0     H28576   6.654   9.865   3.379 -0.2138 -0.0123  0.4614
  212MOL0     H28577   6.748  10.003   3.323  2.1654  3.0888  2.8648
  212MOL0     H28578   6.444  10.001   3.348  0.3390 -2.7566 -0.4468
  212MOL0     H28579   6.521   9.908   3.215  1.3533  0.2983 -1.0246
  212MOL0     H28580   6.281  10.098   3.180 -1.0479  0.4284 -0.6394
  212MOL0     H28581   6.021  10.318   3.141 -2.7142 -1.4391  0.4577
  212MOL0     H28582   6.076  10.151   3.180  1.5155  0.5682 -2.0636
  212MOL0     H28583   6.030  10.276   3.308  1.5673  0.8511  0.6738
  212MOL0     H28584   5.791  10.578   3.152  0.0843  0.4844 -0.4433
  212MOL0     H28585   5.621  10.698   3.264 -1.2493 -0.0323  2.8416
  212MOL0     H28586   5.560  10.928   3.351  0.6199  3.3684 -0.6002
  212MOL0     H28587   5.516  10.979   3.514  2.0301 -0.4487  2.8332
  212MOL0     H28588   5.642  11.157   3.397 -1.6206  0.6075  2.4994
  212MOL0     H28589   5.713  11.089   3.546 -2.1463  0.5003 -0.4472
  212MOL0     H28590   5.810  10.983   3.271 -0.5313 -1.0669 -0.0281
  212MOL0     H28591   5.898  10.995   3.428  0.3118  0.5631 -1.0014
  212MOL0     H28592   5.812  11.249   3.288 -1.5351 -1.4851 -2.4596
  212MOL0     H28593   5.950  11.213   3.402 -0.0798 -1.8061  0.0703
  212MOL0     H28594   6.016  11.264   3.164  2.5757  0.3145  0.8378
  212MOL0     H28595   5.940  11.125   3.107 -0.8695  1.1022  0.4394
  212MOL0     H28596   6.167  11.152   3.315  3.4396 -1.4247 -1.2130
  212MOL0     H28597   6.082  10.999   3.276 -1.2019 -0.6864 -1.7090
  212MOL0     H28598   6.242  11.195   3.108  0.6641 -0.6110 -2.4413
  212MOL0     H28599   6.172  11.047   3.036  2.0905  1.1118 -0.9658
  212MOL0     H28600   6.416  10.998   3.064  0.1588 -2.0415  0.0864
  212MOL0     H28601   6.350  10.918   3.206  3.5548  0.2558  1.2762
  212MOL0     H28602   5.878  10.764   3.611  2.4091  1.2505  0.3742
  212MOL0     H28603   6.078  10.667   3.467  0.2086 -1.4960  1.0219
  212MOL0     H28604   6.468  10.542   3.268  1.7375 -1.5733 -1.2622
  212MOL0     H28605   6.612  10.358   3.265  0.5331 -0.9009  0.7871
  212MOL0     H28606   7.722  10.805   4.070  0.7729 -0.3399  1.0533
  212MOL0     H28607   7.869  10.954   3.990 -3.5762 -0.2948 -0.0068
  212MOL0     H28608   8.246  11.278   3.932  1.5635  2.6335 -0.8764
  212MOL0     H28609   8.475  11.350   3.894 -0.5627 -0.1780  1.8288
  212MOL0     H28610   8.703  11.175   3.955  0.0780 -3.1047  1.0401
  212MOL0     H28611   8.776  11.069   3.840  0.8719 -0.6186 -1.8023
  212MOL0     H28612   8.943  11.235   3.917 -1.9299 -0.8055  1.9271
  212MOL0     H28613   8.854  11.362   3.846  1.4537  0.5941 -1.4522
  212MOL0     H28614   8.883  11.186   3.619  2.7122  0.0256 -0.6965
  212MOL0     H28615   9.024  11.157   3.709 -0.6384  0.4561  1.1327
  212MOL0     H28616   8.928  11.432   3.643 -0.4640 -0.4421 -0.4671
  212MOL0     H28617   9.016  11.351   3.523 -1.6556 -0.9484 -0.0901
  212MOL0     H28618   9.329  11.475   3.744  0.0568 -0.0168 -2.9747
  212MOL0     H28619   8.555  11.007   3.654 -1.3326 -0.1881 -1.8299
  212MOL0     H28620   8.319  10.932   3.705 -0.2663 -0.3060  0.2675
  213MOL0     O28621  10.381   5.124   9.505 -0.6241 -0.1603 -0.1567
  213MOL0     C28622  10.397   5.135   9.379 -0.6175 -0.3160 -0.1946
  213MOL0     O28623  10.296   5.158   9.287  0.1619  0.3546 -0.9196
  213MOL0     C28624  10.175   5.111   9.338 -0.3718  0.2177  0.6697
  213MOL0     C28625  10.066   5.184   9.289  0.3969  0.5026  0.4295
  213MOL0     C28626   9.931   5.144   9.337  0.3226 -0.4483 -0.2421
  213MOL0     C28627   9.912   5.024   9.408 -0.5187 -0.0616  0.7928
  213MOL0     O28628   9.788   4.970   9.437  0.3333 -0.3536  0.1037
  213MOL0     C28629   9.692   5.045   9.510 -0.0210  0.0372  0.1584
  213MOL0     C28630   9.720   5.020   9.662  0.7192  0.3588 -0.2172
  213MOL0     C28631   9.611   4.938   9.737  0.1371 -0.3085  0.3586
  213MOL0     C28632   9.470   5.006   9.742  0.1768 -0.3058  0.2792
  213MOL0     C28633   9.373   4.900   9.804 -0.8411 -0.3547 -0.1493
  213MOL0     C28634   9.320   4.778   9.720 -0.5840  0.8586 -0.3018
  213MOL0     C28635   9.211   4.695   9.798  0.3324 -0.4436  0.9733
  213MOL0     C28636   9.259   4.629   9.928  0.6803  0.1177  0.0748
  213MOL0     N28637   9.383   4.549   9.907 -0.0273  0.2463 -0.7623
  213MOL0     C28638   9.504   4.575   9.967  0.2971  0.4151 -0.3660
  213MOL0     C28639   9.578   4.468   9.928 -0.2351  0.4496  0.1697
  213MOL0     C28640   9.732   4.451   9.951  1.5351 -0.7306 -0.0040
  213MOL0     C28641   9.803   4.577   9.920  0.4505  0.7080 -0.1439
  213MOL0     C28642   9.954   4.550   9.956 -0.2936  0.3730  0.0514
  213MOL0     C28643  10.027   4.683   9.937 -0.5852 -0.7346 -0.0678
  213MOL0     O28644   9.990   4.779  10.040 -0.0693 -0.3712  0.1301
  213MOL0     C28645   9.983   4.907   9.997  0.9290  0.0549 -0.5576
  213MOL0     C28646  10.057   4.967   9.895  0.1467 -0.4649  0.2477
  213MOL0     C28647  10.032   5.096   9.854 -0.2452 -0.3335 -1.1432
  213MOL0     C28648  10.119   5.156   9.759 -0.2079 -0.2216  0.5890
  213MOL0     C28649   9.925   5.169   9.913  0.2901 -0.8857  0.3624
  213MOL0     C28650   9.869   5.303   9.869  0.0005  0.0930  0.1251
  213MOL0     O28651   9.789   5.362   9.967  0.0683  0.2906 -0.0726
  213MOL0     C28652   9.731   5.484   9.948  0.0848  0.9005  0.4658
  213MOL0     C28653   9.793   5.599   9.888 -0.2599 -0.6733 -0.6887
  213MOL0     C28654   9.720   5.719   9.885  0.4409  0.5707 -0.1325
  213MOL0     C28655   9.596   5.730   9.953 -0.2641 -0.4425  0.1249
  213MOL0     O28656   9.520   5.840   9.961  0.6963 -0.0917  0.1333
  213MOL0     C28657   9.552   5.952   9.885  0.0408  0.5888 -0.6760
  213MOL0     C28658   9.425   6.026   9.883  0.0831 -0.8660  0.1138
  213MOL0     C28659   9.297   5.950   9.847  0.9649 -0.4704  1.2842
  213MOL0     C28660   9.299   5.890   9.704  0.2839 -0.0781 -0.4394
  213MOL0     C28661   9.151   5.864   9.661 -0.4122 -0.1817  0.7879
  213MOL0     C28662   9.099   5.971   9.560  0.5419  0.4470  0.1041
  213MOL0     C28663   8.946   5.940   9.535  0.0833 -0.3906 -0.1507
  213MOL0     C28664   8.904   5.986   9.388 -0.1760  1.0060 -0.2611
  213MOL0    Cl28665   8.742   5.935   9.351  0.1506 -0.5638  0.2151
  213MOL0     C28666   9.543   5.621  10.012 -0.0277 -0.9001 -0.1768
  213MOL0     C28667   9.609   5.500  10.012  0.2901  0.0408  0.9520
  213MOL0     O28668   9.881   5.343   9.755  0.2933  0.9024  0.1655
  213MOL0     C28669   9.855   5.111  10.015 -0.7302 -0.3046 -1.1345
  213MOL0     C28670   9.875   4.976  10.049 -0.8589  0.3996  0.2377
  213MOL0     N28671   9.501   4.381   9.860 -0.4278  0.2104 -0.7626
  213MOL0     N28672   9.386   4.429   9.852 -0.2441  0.2066  0.1738
  213MOL0     C28673  10.025   4.942   9.425  0.1705 -0.2932 -0.9540
  213MOL0     C28674  10.149   4.985   9.397  0.2297 -0.0835 -0.3267
  213MOL0     C28675  10.537   5.143   9.334 -0.3249  0.3488 -0.7310
  213MOL0     C28676  10.647   5.154   9.428  1.0676  0.1970  0.7030
  213MOL0     C28677  10.780   5.163   9.388 -0.0194 -0.4416  0.0166
  213MOL0     C28678  10.814   5.177   9.249 -0.0958 -0.3347 -0.5856
  213MOL0     O28679  10.944   5.203   9.191  0.5321  0.1479 -0.0945
  213MOL0     C28680  11.042   5.250   9.290 -0.7965  0.6192 -0.0596
  213MOL0     C28681  11.176   5.258   9.212  0.5324  0.1993 -0.9794
  213MOL0     C28682  11.293   5.315   9.296  0.0860  0.0006 -0.0470
  213MOL0     C28683  11.335   5.199   9.392 -0.5267 -0.2531 -0.0450
  213MOL0     C28684  11.451   5.246   9.476  0.6782  0.4346  0.0973
  213MOL0     C28685  11.523   5.301   9.550  0.7667  0.2531  0.0051
  213MOL0     C28686  10.712   5.159   9.154  0.4457  0.0266  0.1977
  213MOL0     C28687  10.582   5.150   9.193 -0.1781  0.0859  0.4876
  213MOL0     H28688  10.082   5.277   9.236  1.9829 -0.8777 -1.6526
  213MOL0     H28689   9.851   5.216   9.322  2.2311  1.7175 -0.6003
  213MOL0     H28690   9.696   5.150   9.481 -2.0864 -0.1916 -1.1526
  213MOL0     H28691   9.596   5.001   9.483  0.9841 -2.9316  0.9960
  213MOL0     H28692   9.817   4.972   9.675  0.9262  0.7424 -0.3154
  213MOL0     H28693   9.726   5.121   9.704  2.0927  0.5120 -0.7487
  213MOL0     H28694   9.583   4.850   9.677 -0.0844  0.1154 -0.1651
  213MOL0     H28695   9.644   4.900   9.834  0.7750 -1.0604 -0.1350
  213MOL0     H28696   9.477   5.099   9.799  0.9260 -0.1111 -0.1157
  213MOL0     H28697   9.443   5.046   9.643 -0.6855  1.5256  1.2011
  213MOL0     H28698   9.421   4.862   9.894  0.8004  3.7375  0.9059
  213MOL0     H28699   9.286   4.963   9.827  0.8168  2.2509 -0.6014
  213MOL0     H28700   9.275   4.804   9.624  0.8941  2.1653 -0.6651
  213MOL0     H28701   9.404   4.713   9.695 -2.0851 -1.2869 -0.0222
  213MOL0     H28702   9.130   4.764   9.822  1.2119  1.3222 -0.8422
  213MOL0     H28703   9.165   4.621   9.731 -0.1608  1.3898 -0.7869
  213MOL0     H28704   9.178   4.560   9.953  2.3929 -3.5466 -3.5113
  213MOL0     H28705   9.273   4.697  10.013 -4.5135  0.9890  0.5839
  213MOL0     H28706   9.537   4.668  10.013  3.3671 -0.1784 -1.1171
  213MOL0     H28707   9.765   4.419  10.050  0.5541 -2.4868 -0.2000
  213MOL0     H28708   9.771   4.377   9.881 -1.6909 -1.1362 -1.5637
  213MOL0     H28709   9.756   4.659   9.975 -4.0880 -1.0579 -0.9529
  213MOL0     H28710   9.799   4.610   9.815 -0.2763  2.2462  0.3464
  213MOL0     H28711  10.008   4.474   9.898  4.0223  1.9494  1.5545
  213MOL0     H28712   9.972   4.516  10.059  1.4038 -1.2559 -0.7154
  213MOL0     H28713  10.012   4.729   9.840  2.3974  1.4731  0.3947
  213MOL0     H28714  10.133   4.653   9.937 -0.2353  0.3851  1.5371
  213MOL0     H28715  10.133   4.912   9.839 -0.4927 -1.8223  0.6649
  213MOL0     H28716  10.134   5.263   9.777 -3.5283  0.7302 -1.3346
  213MOL0     H28717  10.215   5.105   9.755  0.1757  0.3855  1.7814
  213MOL0     H28718  10.075   5.162   9.659  0.2692 -0.3701  0.3655
  213MOL0     H28719   9.892   5.588   9.845 -0.2984  3.2736 -2.1746
  213MOL0     H28720   9.757   5.808   9.836  0.0345  1.3520  0.9293
  213MOL0     H28721   9.635   6.007   9.929  0.6051 -1.6239  1.2288
  213MOL0     H28722   9.570   5.913   9.784 -4.4041 -0.2300 -1.3837
  213MOL0     H28723   9.409   6.059   9.987 -2.0585 -2.7783  0.4673
  213MOL0     H28724   9.440   6.113   9.818  2.2503 -1.8356 -0.7644
  213MOL0     H28725   9.212   6.019   9.857  0.2698 -1.4390  2.4056
  213MOL0     H28726   9.272   5.872   9.920  1.1705  0.5195  2.4547
  213MOL0     H28727   9.358   5.938   9.625 -2.1972 -1.9886 -3.7139
  213MOL0     H28728   9.341   5.789   9.704  0.1417 -0.1515  0.8611
  213MOL0     H28729   9.091   5.818   9.741 -2.3186 -0.9926 -1.0319
  213MOL0     H28730   9.171   5.779   9.596  0.3388 -1.4730  2.6028
  213MOL0     H28731   9.116   6.074   9.596 -0.6024  0.4839  0.6046
  213MOL0     H28732   9.139   5.968   9.459  0.1521  4.3011 -0.3409
  213MOL0     H28733   8.879   5.994   9.602  2.3572  0.6300  1.4260
  213MOL0     H28734   8.931   5.832   9.544  0.2180 -0.2186  5.2378
  213MOL0     H28735   8.978   5.943   9.320 -2.2657 -1.8791 -0.9117
  213MOL0     H28736   8.916   6.094   9.372  1.7782  0.8666  0.0439
  213MOL0     H28737   9.451   5.628  10.068 -0.6351 -0.6848 -1.1688
  213MOL0     H28738   9.559   5.415  10.058  2.0135 -1.3410  0.3716
  213MOL0     H28739   9.765   5.158  10.052 -0.4443 -0.7912  0.2277
  213MOL0     H28740   9.799   4.935  10.115 -0.7039 -0.1070  0.1066
  213MOL0     H28741  10.012   4.842   9.466  0.2827 -0.2650 -0.8489
  213MOL0     H28742  10.236   4.922   9.409  1.1978  0.5865 -3.0486
  213MOL0     H28743  10.641   5.162   9.536 -1.7762 -0.1444  0.6359
  213MOL0     H28744  10.862   5.186   9.455  0.3061  0.3793 -0.6401
  213MOL0     H28745  11.013   5.343   9.340  1.2414  1.4706 -0.3642
  213MOL0     H28746  11.061   5.169   9.361  1.0549  0.9970 -0.0657
  213MOL0     H28747  11.145   5.328   9.134 -0.4888 -0.7678 -1.4723
  213MOL0     H28748  11.201   5.161   9.168  0.3556  0.4133 -1.5577
  213MOL0     H28749  11.280   5.416   9.335  2.4831 -0.0724  1.1662
  213MOL0     H28750  11.366   5.332   9.216  1.6785  4.3175  2.0473
  213MOL0     H28751  11.360   5.108   9.337 -0.5108 -0.5296  0.4110
  213MOL0     H28752  11.247   5.177   9.452 -0.4148  1.1971  0.6949
  213MOL0     H28753  11.593   5.337   9.623  1.7104  1.9251 -1.6210
  213MOL0     H28754  10.732   5.154   9.047  0.1955  0.7991  0.1068
  213MOL0     H28755  10.512   5.127   9.113  2.1557  1.0522 -1.9892
  214MOL0     O28756   5.777   4.174   9.029  0.5175 -0.3872 -0.7244
  214MOL0     C28757   5.811   4.101   8.939 -0.2102 -0.0649 -0.0861
  214MOL0     O28758   5.930   4.103   8.874 -0.4844  0.9337 -0.1747
  214MOL0     C28759   6.029   4.204   8.895  0.0243  0.0478 -0.4251
  214MOL0     C28760   6.008   4.333   8.949 -0.1600 -0.1841  0.7984
  214MOL0     C28761   6.116   4.420   8.961  0.0061  0.0245 -0.2241
  214MOL0     C28762   6.245   4.391   8.910  0.0689 -0.5829 -0.9825
  214MOL0     O28763   6.342   4.484   8.937 -0.6556 -0.3857  0.0065
  214MOL0     C28764   6.475   4.444   8.904  0.0541  0.7904  0.0011
  214MOL0     C28765   6.575   4.542   8.950  0.5339  0.4306  0.8171
  214MOL0     C28766   6.720   4.513   8.925 -0.1048  0.2803 -0.2684
  214MOL0     C28767   6.764   4.500   8.777 -0.2298 -0.3672 -0.9191
  214MOL0     C28768   6.917   4.477   8.774 -0.2948  0.1720  0.5444
  214MOL0     C28769   6.969   4.453   8.626  0.3932 -0.5974 -0.3862
  214MOL0     C28770   7.095   4.362   8.612 -0.3402  0.3038 -1.0305
  214MOL0     C28771   7.191   4.355   8.737  0.0308 -0.3911 -0.3744
  214MOL0     N28772   7.282   4.246   8.716  0.2170 -0.0742  0.2999
  214MOL0     C28773   7.393   4.254   8.641 -0.6735  0.6395 -0.2240
  214MOL0     C28774   7.443   4.134   8.623  0.1144  0.7756  0.0209
  214MOL0     C28775   7.567   4.091   8.557 -1.1376 -0.1310  0.4161
  214MOL0     C28776   7.611   4.174   8.425  0.5157  0.6092  0.2292
  214MOL0     C28777   7.537   4.121   8.302  0.0270  0.5622  1.0964
  214MOL0     C28778   7.576   4.208   8.178  0.1019  0.1953 -0.3034
  214MOL0     O28779   7.502   4.165   8.069 -0.3202 -0.8147  0.0364
  214MOL0     C28780   7.389   4.236   8.035  0.1306  0.6886  0.1873
  214MOL0     C28781   7.359   4.236   7.895  0.5253  0.8432 -0.5663
  214MOL0     C28782   7.243   4.298   7.852 -0.8765  0.1834 -0.8060
  214MOL0     C28783   7.195   4.269   7.711  0.3213 -0.4613 -0.6002
  214MOL0     C28784   7.157   4.371   7.946 -0.0976  0.1673  0.6258
  214MOL0     C28785   7.036   4.434   7.916  0.1197  0.3737  0.6369
  214MOL0     O28786   6.927   4.384   7.984  0.2003 -0.2061  0.5151
  214MOL0     C28787   6.808   4.421   7.935  0.5103  0.0243 -0.3261
  214MOL0     C28788   6.747   4.549   7.963 -0.1991 -0.3789 -0.0183
  214MOL0     C28789   6.614   4.582   7.913 -0.2157  0.9160 -0.4252
  214MOL0     C28790   6.541   4.484   7.847 -0.1706 -0.1493  0.9028
  214MOL0     O28791   6.421   4.494   7.791 -0.0524  0.3555 -0.1617
  214MOL0     C28792   6.336   4.601   7.823  0.5307 -0.2301  0.6364
  214MOL0     C28793   6.199   4.589   7.741  0.2336 -0.3524  0.3488
  214MOL0     C28794   6.095   4.690   7.797 -0.0958  0.4244  0.3008
  214MOL0     C28795   5.961   4.659   7.739  0.3915  0.0493 -0.1187
  214MOL0     C28796   5.859   4.767   7.800 -0.4829 -1.0140 -0.4556
  214MOL0     C28797   5.713   4.728   7.809  0.0684 -0.9110 -0.9646
  214MOL0     C28798   5.632   4.743   7.675 -0.8647 -0.0187 -0.1009
  214MOL0     C28799   5.479   4.712   7.690 -0.3566 -0.2868 -0.0380
  214MOL0    Cl28800   5.435   4.555   7.743  0.1296  0.2222  0.0220
  214MOL0     C28801   6.602   4.359   7.816 -0.3648 -0.5135  0.3238
  214MOL0     C28802   6.732   4.324   7.863 -0.9137  0.2465 -0.8615
  214MOL0     O28803   7.034   4.524   7.840  0.1599  0.1905 -0.1395
  214MOL0     C28804   7.202   4.373   8.077  1.4344  0.7932  0.8641
  214MOL0     C28805   7.310   4.307   8.122 -0.2861 -0.8604 -0.1085
  214MOL0     N28806   7.361   4.047   8.692  0.1785  0.1743 -0.5446
  214MOL0     N28807   7.259   4.114   8.744 -0.1684  0.1211 -0.5412
  214MOL0     C28808   6.263   4.267   8.857 -0.5263 -1.0811 -0.2563
  214MOL0     C28809   6.153   4.182   8.834 -0.5262  0.3436  0.7712
  214MOL0     C28810   5.706   3.998   8.889 -1.1338  0.0412 -0.2873
  214MOL0     C28811   5.744   3.905   8.792 -0.6479  0.6902 -0.3153
  214MOL0     C28812   5.643   3.837   8.725 -0.7918  0.4871 -0.2740
  214MOL0     C28813   5.510   3.844   8.763 -0.0817 -0.8809 -0.3215
  214MOL0     O28814   5.411   3.776   8.716  0.3285 -0.4583  0.7352
  214MOL0     C28815   5.434   3.647   8.650  0.4479  0.6951  0.2293
  214MOL0     C28816   5.310   3.591   8.598 -0.6409 -0.5684  0.2982
  214MOL0     C28817   5.222   3.554   8.716  1.2216 -0.5764  0.3016
  214MOL0     C28818   5.083   3.626   8.702  0.3013  0.9248 -0.6800
  214MOL0     C28819   5.012   3.644   8.827 -0.4622 -0.3156 -0.3918
  214MOL0     C28820   4.962   3.652   8.930  0.8313 -0.2965 -0.4499
  214MOL0     C28821   5.472   3.938   8.868 -0.2968  0.2279  0.5515
  214MOL0     C28822   5.568   4.016   8.930  0.4415 -0.1758 -0.5835
  214MOL0     H28823   5.910   4.358   8.988 -0.0077 -1.1751  1.8613
  214MOL0     H28824   6.097   4.512   9.015 -2.6230  0.2217 -1.3557
  214MOL0     H28825   6.512   4.347   8.941  3.1945  0.6738 -2.9162
  214MOL0     H28826   6.490   4.428   8.797  2.6676  0.6006  0.3269
  214MOL0     H28827   6.549   4.641   8.912 -0.8676 -0.4838 -0.7619
  214MOL0     H28828   6.564   4.540   9.059 -1.1266  0.7235  0.6822
  214MOL0     H28829   6.776   4.591   8.979  3.0286 -2.4324  0.7506
  214MOL0     H28830   6.753   4.423   8.977  0.5621  0.8577  0.3258
  214MOL0     H28831   6.716   4.412   8.733  1.7365 -2.1583  0.3143
  214MOL0     H28832   6.740   4.592   8.723  0.6879 -0.9267 -2.3544
  214MOL0     H28833   6.973   4.563   8.810  1.0811 -0.9129  1.0815
  214MOL0     H28834   6.917   4.395   8.846 -1.1135 -0.5010 -0.1863
  214MOL0     H28835   6.889   4.406   8.568  1.9638 -1.8828 -1.6164
  214MOL0     H28836   6.992   4.553   8.588 -0.2954  0.4569  1.8305
  214MOL0     H28837   7.064   4.263   8.576 -0.1349  0.2785 -1.1384
  214MOL0     H28838   7.146   4.414   8.530 -0.1130  1.8766  0.0568
  214MOL0     H28839   7.135   4.339   8.829 -0.4758 -1.7261 -0.8930
  214MOL0     H28840   7.240   4.453   8.739 -1.6279  0.4787 -0.5418
  214MOL0     H28841   7.435   4.342   8.593 -2.0078  2.2670  1.4055
  214MOL0     H28842   7.659   4.108   8.614 -0.7341  2.7880 -0.9782
  214MOL0     H28843   7.571   3.984   8.533  3.2664  0.2576 -1.4895
  214MOL0     H28844   7.718   4.156   8.406  0.2131 -0.3680 -0.5954
  214MOL0     H28845   7.595   4.278   8.455  0.3995 -0.2485  3.4919
  214MOL0     H28846   7.429   4.128   8.320 -0.3487 -1.5171 -0.0281
  214MOL0     H28847   7.549   4.013   8.288 -3.9390 -0.0654  1.3276
  214MOL0     H28848   7.683   4.203   8.156  0.4842  1.9168  0.9083
  214MOL0     H28849   7.556   4.309   8.215  1.1836  0.4084 -0.2783
  214MOL0     H28850   7.414   4.180   7.820  1.8475  1.9398 -0.4421
  214MOL0     H28851   7.259   4.298   7.627  1.5490  2.2200  1.1234
  214MOL0     H28852   7.177   4.161   7.704 -0.1943 -0.3682 -0.7616
  214MOL0     H28853   7.101   4.320   7.689  1.6927  1.1986 -3.1502
  214MOL0     H28854   6.793   4.620   8.030 -2.2341 -0.2697  1.3487
  214MOL0     H28855   6.559   4.665   7.954 -0.7089 -0.6173  2.2247
  214MOL0     H28856   6.307   4.606   7.928 -2.3243  2.5672 -0.1257
  214MOL0     H28857   6.394   4.692   7.805 -0.1349 -0.2970 -2.4467
  214MOL0     H28858   6.216   4.615   7.636  1.9244 -0.4267  0.5831
  214MOL0     H28859   6.143   4.495   7.741 -2.3447  0.9002 -4.0859
  214MOL0     H28860   6.130   4.793   7.787 -2.0244  0.9742 -1.4991
  214MOL0     H28861   6.091   4.659   7.902  0.4114 -0.1789  0.1444
  214MOL0     H28862   5.960   4.664   7.630 -0.6157 -0.7902 -0.1629
  214MOL0     H28863   5.922   4.565   7.779 -0.6716  0.9580  1.0899
  214MOL0     H28864   5.877   4.862   7.748 -3.2271 -0.6529 -0.9518
  214MOL0     H28865   5.885   4.780   7.905 -1.4456  1.4535 -0.4428
  214MOL0     H28866   5.726   4.626   7.846 -1.1063 -0.5082  0.6502
  214MOL0     H28867   5.657   4.789   7.880 -1.0982  0.6497 -3.0863
  214MOL0     H28868   5.672   4.676   7.598 -2.0655  3.2672 -3.8879
  214MOL0     H28869   5.650   4.844   7.637  4.8032  0.3087  2.4705
  214MOL0     H28870   5.437   4.725   7.590  4.9489 -3.6622 -3.1860
  214MOL0     H28871   5.445   4.795   7.753 -1.0230 -1.3698  1.0790
  214MOL0     H28872   6.548   4.285   7.758  0.6316 -0.2501 -1.0004
  214MOL0     H28873   6.779   4.229   7.842 -3.0980 -0.5291 -2.5663
  214MOL0     H28874   7.136   4.418   8.150  0.5866  1.7196 -0.4254
  214MOL0     H28875   7.337   4.326   8.225  0.8279  0.9602 -0.6767
  214MOL0     H28876   6.357   4.224   8.826 -0.9809 -1.0724 -1.7252
  214MOL0     H28877   6.168   4.089   8.781 -4.4596 -0.2660  0.4604
  214MOL0     H28878   5.847   3.911   8.756  0.1271 -1.0861  1.3867
  214MOL0     H28879   5.677   3.768   8.648  2.5769  0.2713  1.2416
  214MOL0     H28880   5.510   3.668   8.574  1.1616 -0.7214  0.5215
  214MOL0     H28881   5.481   3.585   8.727 -2.1237 -0.0576  1.2827
  214MOL0     H28882   5.333   3.493   8.556  0.1674 -0.2511 -0.0213
  214MOL0     H28883   5.275   3.651   8.513  0.8901 -1.5791 -1.1082
  214MOL0     H28884   5.268   3.576   8.813  1.4185 -0.1760  0.1220
  214MOL0     H28885   5.210   3.446   8.708  1.2674 -0.4552 -2.6927
  214MOL0     H28886   5.030   3.572   8.623  0.7802  0.6685 -0.8310
  214MOL0     H28887   5.092   3.728   8.665 -2.5727  1.1317 -1.0229
  214MOL0     H28888   4.909   3.671   9.021  0.4421 -1.7775 -0.3469
  214MOL0     H28889   5.369   3.941   8.903 -1.0884 -0.8187 -1.5083
  214MOL0     H28890   5.544   4.095   9.001 -1.1280 -0.7860 -0.3990
  215MOL0     O28891   1.902   9.039   7.846  0.1524  0.0802  0.4787
  215MOL0     C28892   1.885   9.126   7.929 -0.5363  0.2000  0.0791
  215MOL0     O28893   1.976   9.222   7.952 -0.1974  0.0886 -0.0845
  215MOL0     C28894   2.058   9.256   7.847 -0.7080 -0.1490 -1.0804
  215MOL0     C28895   1.997   9.328   7.747  0.1586 -1.0111  0.6031
  215MOL0     C28896   2.073   9.363   7.637  0.1753 -0.7115 -0.4065
  215MOL0     C28897   2.208   9.319   7.620 -0.4061  0.2115 -0.3241
  215MOL0     O28898   2.255   9.332   7.492 -0.6160 -1.3733 -0.5657
  215MOL0     C28899   2.380   9.396   7.477  0.5353 -0.2893 -0.6303
  215MOL0     C28900   2.396   9.396   7.329 -0.4825  0.5070 -0.0766
  215MOL0     C28901   2.540   9.461   7.302 -0.2526  0.5511  0.5617
  215MOL0     C28902   2.556   9.502   7.152 -0.4277 -0.3628  0.1363
  215MOL0     C28903   2.697   9.549   7.120 -0.3185  0.2509 -0.1979
  215MOL0     C28904   2.711   9.576   6.963  0.6749  0.6417  0.7878
  215MOL0     C28905   2.846   9.625   6.914 -0.4368 -0.5414  0.1277
  215MOL0     C28906   2.829   9.744   6.822  0.6216 -0.1866 -0.1305
  215MOL0     N28907   2.964   9.800   6.781 -0.0322 -0.4684 -0.4968
  215MOL0     C28908   3.031   9.899   6.851 -0.2967 -0.6310  0.1559
  215MOL0     C28909   3.158   9.896   6.797 -0.6159  1.5427 -0.5656
  215MOL0     C28910   3.275   9.972   6.849  0.0697 -0.1342 -0.1402
  215MOL0     C28911   3.364   9.873   6.932  0.5332 -0.0531 -0.5045
  215MOL0     C28912   3.481   9.948   7.002 -0.0858 -0.6612 -0.1566
  215MOL0     C28913   3.556   9.839   7.083 -1.0455 -0.1930  0.6685
  215MOL0     O28914   3.650   9.781   6.998  0.2662  0.0437  0.4467
  215MOL0     C28915   3.774   9.748   7.047 -1.6425  0.4908  0.9898
  215MOL0     C28916   3.855   9.678   6.952 -0.0168 -0.3511 -0.2439
  215MOL0     C28917   3.992   9.671   6.973  0.5373  0.0317 -0.2428
  215MOL0     C28918   4.072   9.628   6.856  0.6625  0.0728 -0.5315
  215MOL0     C28919   4.045   9.701   7.106  0.1381 -0.0259  0.5793
  215MOL0     C28920   4.178   9.677   7.141  0.7333 -0.5520  0.0771
  215MOL0     O28921   4.200   9.650   7.281  0.8808 -0.8614  0.1026
  215MOL0     C28922   4.329   9.666   7.338  0.2450  0.7027  0.8483
  215MOL0     C28923   4.343   9.617   7.470  0.4151  0.1863  1.0228
  215MOL0     C28924   4.470   9.619   7.538  0.7965  0.3005  0.7791
  215MOL0     C28925   4.579   9.680   7.479 -0.0544  0.6370 -0.3773
  215MOL0     O28926   4.703   9.676   7.537  0.7148 -0.6742  0.1206
  215MOL0     C28927   4.818   9.743   7.489 -0.0697 -0.9329  0.2746
  215MOL0     C28928   4.926   9.710   7.600 -0.2883 -1.2913 -0.7609
  215MOL0     C28929   4.885   9.770   7.734 -0.3303 -0.2765  0.1082
  215MOL0     C28930   5.000   9.774   7.834  0.9087  0.0412 -0.7706
  215MOL0     C28931   4.937   9.801   7.966  0.2237  0.0556 -0.3995
  215MOL0     C28932   5.039   9.836   8.078 -0.6628  0.4297  0.8406
  215MOL0     C28933   4.985   9.797   8.213  0.7127  0.6422 -0.1245
  215MOL0     C28934   5.109   9.790   8.310 -0.5730  0.4387  0.4020
  215MOL0    Cl28935   5.186   9.946   8.333 -0.5413  0.0445 -0.5908
  215MOL0     C28936   4.561   9.741   7.353 -0.0831 -0.6765 -0.7832
  215MOL0     C28937   4.438   9.736   7.287 -0.0092 -0.4387  0.8144
  215MOL0     O28938   4.263   9.696   7.057  0.1672  0.0344 -0.3435
  215MOL0     C28939   3.960   9.754   7.206 -0.2082 -0.1944 -0.5573
  215MOL0     C28940   3.825   9.779   7.179 -0.3206 -0.0693  0.2543
  215MOL0     N28941   3.168   9.799   6.703 -0.0209 -0.0338 -0.5342
  215MOL0     N28942   3.047   9.751   6.688  0.2741 -0.5250 -0.2513
  215MOL0     C28943   2.262   9.232   7.722  0.2482  0.1454  0.7528
  215MOL0     C28944   2.190   9.206   7.843  0.1431 -0.0281  1.3847
  215MOL0     C28945   1.775   9.104   8.027  0.4481  0.2323 -0.2158
  215MOL0     C28946   1.687   8.991   8.025 -0.0142  0.4541 -0.7513
  215MOL0     C28947   1.584   8.970   8.117  0.2202 -0.6255  0.3376
  215MOL0     C28948   1.572   9.055   8.229 -0.0111  0.1979 -0.3294
  215MOL0     O28949   1.473   9.020   8.313  1.1951  0.6475 -0.5337
  215MOL0     C28950   1.467   9.070   8.449  0.0108 -0.5304 -0.3845
  215MOL0     C28951   1.374   8.967   8.521  0.4537 -0.4929  0.3590
  215MOL0     C28952   1.346   8.998   8.669  0.1406 -0.1389  0.7244
  215MOL0     C28953   1.264   9.127   8.698  0.6804  0.3200  0.9156
  215MOL0     C28954   1.270   9.162   8.843 -1.7847 -0.2818 -1.0203
  215MOL0     C28955   1.283   9.196   8.957 -0.9306 -0.4197  1.2447
  215MOL0     C28956   1.642   9.170   8.226 -0.2435 -0.7087 -0.1488
  215MOL0     C28957   1.742   9.201   8.130 -0.7025  0.5573 -0.2221
  215MOL0     H28958   1.896   9.364   7.758  1.1375  1.7756  1.3117
  215MOL0     H28959   2.037   9.439   7.569  0.4297  0.0458  0.2892
  215MOL0     H28960   2.377   9.498   7.517 -2.6375 -0.5230 -0.0266
  215MOL0     H28961   2.455   9.336   7.529 -1.0039  0.1972  2.3731
  215MOL0     H28962   2.394   9.292   7.295  1.8590  0.4849 -0.3133
  215MOL0     H28963   2.314   9.451   7.283 -0.9981 -0.3042 -0.1509
  215MOL0     H28964   2.563   9.537   7.377 -0.8810  0.0861  1.2335
  215MOL0     H28965   2.617   9.384   7.308 -1.2222 -0.9561 -3.2687
  215MOL0     H28966   2.537   9.421   7.081 -0.5164  0.0747 -0.3518
  215MOL0     H28967   2.482   9.578   7.124 -2.1708 -1.8085  0.6212
  215MOL0     H28968   2.721   9.638   7.178 -0.0147  1.3860 -1.9986
  215MOL0     H28969   2.764   9.463   7.132 -2.5546 -1.5024  0.6066
  215MOL0     H28970   2.679   9.491   6.902 -1.1453  1.8993 -0.0989
  215MOL0     H28971   2.632   9.647   6.938 -0.8324 -0.8051  1.2710
  215MOL0     H28972   2.895   9.668   7.002  0.2275  0.1259 -0.5574
  215MOL0     H28973   2.912   9.556   6.862  1.2219 -0.5791  2.1500
  215MOL0     H28974   2.776   9.830   6.863  1.4528  1.0566 -1.5516
  215MOL0     H28975   2.779   9.699   6.735 -0.0064  1.1285 -0.4774
  215MOL0     H28976   2.996   9.957   6.936  0.3602 -0.9824  0.6805
  215MOL0     H28977   3.323  10.023   6.764  3.0853  0.2154  1.6258
  215MOL0     H28978   3.235  10.052   6.911  1.8548  0.6990  0.0155
  215MOL0     H28979   3.405   9.797   6.865 -0.0692 -1.3469  0.5478
  215MOL0     H28980   3.310   9.814   7.007  1.4056 -1.8766 -1.2474
  215MOL0     H28981   3.422  10.017   7.062 -0.4155 -1.1168  0.0437
  215MOL0     H28982   3.545  10.005   6.933  0.5583  0.2326  1.1463
  215MOL0     H28983   3.495   9.761   7.130 -0.3793  0.5141  2.8349
  215MOL0     H28984   3.601   9.902   7.160  1.2006  0.9875 -1.4950
  215MOL0     H28985   3.814   9.637   6.860  4.1924 -0.0166 -2.5043
  215MOL0     H28986   4.129   9.712   6.814  1.1830  1.6833  3.0505
  215MOL0     H28987   4.148   9.554   6.884  2.8503  2.2117 -0.4381
  215MOL0     H28988   4.002   9.587   6.782 -0.9521 -0.5440  1.2654
  215MOL0     H28989   4.259   9.569   7.520  1.5943 -1.3048  1.6657
  215MOL0     H28990   4.477   9.568   7.633 -0.7717 -0.6700  0.4082
  215MOL0     H28991   4.845   9.709   7.388 -2.3090 -0.3599 -0.5880
  215MOL0     H28992   4.803   9.852   7.482 -0.1160 -0.7754  2.2220
  215MOL0     H28993   4.931   9.601   7.606 -1.7100 -1.4639 -2.1647
  215MOL0     H28994   5.020   9.753   7.566  0.7308 -1.6049  1.4857
  215MOL0     H28995   4.800   9.720   7.779  1.5977 -2.8514  1.1358
  215MOL0     H28996   4.856   9.871   7.703  1.3191  0.0774 -0.3835
  215MOL0     H28997   5.057   9.681   7.839  0.3165 -0.2941  0.0356
  215MOL0     H28998   5.068   9.851   7.798  1.2002 -0.4256 -1.2292
  215MOL0     H28999   4.877   9.715   7.997 -0.5243  0.1065 -1.6539
  215MOL0     H29000   4.871   9.887   7.954 -1.8080 -1.5718 -1.6294
  215MOL0     H29001   5.139   9.800   8.055 -0.6813  0.7424  0.2600
  215MOL0     H29002   5.059   9.943   8.081  2.9623 -0.1307  1.2398
  215MOL0     H29003   4.919   9.711   8.216 -0.3229  1.4225  0.1138
  215MOL0     H29004   4.924   9.885   8.233 -0.9453  0.9635 -5.1368
  215MOL0     H29005   5.176   9.715   8.267  0.3676  2.3058 -1.5952
  215MOL0     H29006   5.067   9.748   8.402  1.9023  2.1257  2.4251
  215MOL0     H29007   4.643   9.796   7.309 -1.0858  1.8966  0.3138
  215MOL0     H29008   4.429   9.786   7.190 -0.0465 -0.7985  0.6321
  215MOL0     H29009   3.991   9.776   7.308 -1.4994 -1.5027  0.1525
  215MOL0     H29010   3.765   9.816   7.262 -1.0527 -1.7004  0.4958
  215MOL0     H29011   2.363   9.193   7.715 -0.1847 -0.6502 -3.1498
  215MOL0     H29012   2.237   9.157   7.927 -1.4031 -2.1601  1.0878
  215MOL0     H29013   1.698   8.918   7.946 -0.9608  0.4164 -0.8632
  215MOL0     H29014   1.526   8.880   8.102 -0.1608 -0.2411 -0.5810
  215MOL0     H29015   1.564   9.089   8.496  0.4255  0.5469 -1.6394
  215MOL0     H29016   1.421   9.169   8.455  0.2113 -0.4972  1.2617
  215MOL0     H29017   1.426   8.871   8.511  1.0584 -0.1458  0.0938
  215MOL0     H29018   1.284   8.960   8.459  1.2120 -0.8565 -0.7396
  215MOL0     H29019   1.445   9.017   8.712  1.0379  3.5903 -2.4484
  215MOL0     H29020   1.302   8.914   8.724  0.9355 -3.0042 -2.6637
  215MOL0     H29021   1.164   9.125   8.653  1.3852 -1.3202 -0.6995
  215MOL0     H29022   1.309   9.214   8.648 -0.2496 -0.0059 -0.5662
  215MOL0     H29023   1.281   9.232   9.058 -3.2640  3.8402 -0.0730
  215MOL0     H29024   1.626   9.241   8.306  1.5758  2.0099 -2.0246
  215MOL0     H29025   1.802   9.291   8.140 -0.6241  0.4869 -0.0449
  216MOL0     O29026   4.023   5.874   6.933 -0.1412  0.8938 -1.0072
  216MOL0     C29027   4.110   5.865   6.848  0.4646  0.3687  0.0405
  216MOL0     O29028   4.123   5.754   6.763  0.1393  0.1177  0.4605
  216MOL0     C29029   4.015   5.678   6.737 -0.5913 -0.1621 -0.0502
  216MOL0     C29030   3.868   5.708   6.750  0.6066 -0.8743 -0.0536
  216MOL0     C29031   3.758   5.632   6.703  0.5346 -0.8568 -0.1535
  216MOL0     C29032   3.794   5.510   6.649  0.1796  0.7377  0.7028
  216MOL0     O29033   3.694   5.420   6.618  0.3039  0.8878 -0.1567
  216MOL0     C29034   3.643   5.446   6.488 -0.2632  0.9598  1.2896
  216MOL0     C29035   3.494   5.471   6.483 -0.5423  0.0098 -0.1052
  216MOL0     C29036   3.406   5.348   6.505 -0.0514 -0.0808  1.1673
  216MOL0     C29037   3.258   5.364   6.461  0.6685 -0.8314  0.4693
  216MOL0     C29038   3.230   5.411   6.317  0.1329  0.7226  0.8487
  216MOL0     C29039   3.083   5.399   6.262  0.1344 -0.0378 -0.7126
  216MOL0     C29040   3.079   5.501   6.148  0.2074  1.0073  0.1558
  216MOL0     C29041   2.949   5.494   6.063 -0.2574 -0.1133 -1.0739
  216MOL0     N29042   2.835   5.545   6.140  0.8026  0.0613  0.8158
  216MOL0     C29043   2.793   5.670   6.141  0.8537 -0.2381 -0.1188
  216MOL0     C29044   2.683   5.668   6.228  0.6142 -0.9628  0.3413
  216MOL0     C29045   2.593   5.780   6.267 -0.4594 -0.2311  0.0610
  216MOL0     C29046   2.649   5.858   6.387  0.1793  0.6993  0.1278
  216MOL0     C29047   2.638   5.782   6.519 -0.8085  0.2316  0.0678
  216MOL0     C29048   2.511   5.727   6.573  0.6932  0.3008  0.1281
  216MOL0     O29049   2.414   5.816   6.519  0.2424  0.4155 -0.2403
  216MOL0     C29050   2.279   5.779   6.525  0.3047  0.2698  0.5890
  216MOL0     C29051   2.233   5.659   6.586  1.0385  0.3717 -0.2160
  216MOL0     C29052   2.096   5.621   6.580 -0.5748 -0.2005  0.1605
  216MOL0     C29053   2.045   5.501   6.655 -0.6283 -0.8367  1.1816
  216MOL0     C29054   2.001   5.701   6.515  0.0035 -0.0759 -0.1629
  216MOL0     C29055   1.851   5.667   6.503  0.6082  0.6149  0.5617
  216MOL0     O29056   1.776   5.781   6.486 -0.0683  0.0400  0.0025
  216MOL0     C29057   1.649   5.777   6.445 -0.9195  0.4906 -0.2349
  216MOL0     C29058   1.578   5.885   6.481 -0.0592  1.5371 -0.4794
  216MOL0     C29059   1.459   5.913   6.413 -0.3414  0.6082  0.0488
  216MOL0     C29060   1.396   5.823   6.329  0.3129  0.0613 -0.8419
  216MOL0     O29061   1.275   5.861   6.269 -0.4690 -0.0362 -0.9748
  216MOL0     C29062   1.200   5.765   6.201 -0.6815  1.1654  1.0124
  216MOL0     C29063   1.049   5.803   6.212 -0.9566  0.5420  0.5675
  216MOL0     C29064   1.010   5.907   6.107 -0.8412 -0.1581  0.2080
  216MOL0     C29065   0.854   5.930   6.128  0.5278  0.5952  0.2565
  216MOL0     C29066   0.812   6.015   6.006 -0.2204  0.3810  0.1017
  216MOL0     C29067   0.673   6.083   6.010 -0.2130  0.3950 -0.5431
  216MOL0     C29068   0.556   5.985   6.021 -0.4675 -0.6845  0.1195
  216MOL0     C29069   0.423   6.051   5.992 -0.3200  0.0827 -0.3015
  216MOL0    Cl29070   0.421   6.115   5.829  0.3806  0.7667  0.3383
  216MOL0     C29071   1.467   5.709   6.309  0.7782  0.0710  0.3804
  216MOL0     C29072   1.592   5.682   6.360 -0.5342 -0.0961  0.4662
  216MOL0     O29073   1.804   5.555   6.509  0.0644  0.3427 -0.0229
  216MOL0     C29074   2.052   5.818   6.449 -0.5505 -0.2973 -0.2252
  216MOL0     C29075   2.190   5.851   6.448  0.1884  0.2557  0.1230
  216MOL0     N29076   2.660   5.543   6.263 -0.3333  0.4162 -0.7426
  216MOL0     N29077   2.751   5.463   6.208 -0.5336 -0.3474  0.6198
  216MOL0     C29078   3.930   5.485   6.633  0.0101  0.3268  0.7564
  216MOL0     C29079   4.039   5.562   6.671  0.3396 -0.1211  0.5665
  216MOL0     C29080   4.230   5.946   6.872 -0.0495  0.6369 -0.1886
  216MOL0     C29081   4.242   6.029   6.983  0.0677  0.7547 -0.3882
  216MOL0     C29082   4.362   6.097   7.012 -0.3019  0.2933  0.0796
  216MOL0     C29083   4.477   6.080   6.932 -0.0241 -0.0104  0.4677
  216MOL0     O29084   4.599   6.143   6.964  0.2691 -0.4067  0.5435
  216MOL0     C29085   4.713   6.123   6.879  0.2867  0.3902 -0.6736
  216MOL0     C29086   4.832   6.162   6.964 -0.1511 -0.3924 -0.8698
  216MOL0     C29087   4.862   6.309   6.948  1.1778  0.0399 -0.2502
  216MOL0     C29088   4.970   6.330   6.838  0.6880 -0.2605  0.0525
  216MOL0     C29089   4.988   6.470   6.807 -0.0103 -0.9737 -0.1568
  216MOL0     C29090   4.992   6.593   6.779  0.0817  0.9800 -0.7804
  216MOL0     C29091   4.466   5.984   6.829 -0.5470  0.2298  0.8562
  216MOL0     C29092   4.349   5.921   6.798  0.1872  0.0843 -0.5952
  216MOL0     H29093   3.855   5.810   6.785  4.5062 -0.5890  1.0778
  216MOL0     H29094   3.657   5.666   6.725 -0.0843 -2.7525  0.1070
  216MOL0     H29095   3.690   5.532   6.440 -0.1896  1.2218  1.8254
  216MOL0     H29096   3.661   5.352   6.434 -0.7090  0.0572  2.6751
  216MOL0     H29097   3.469   5.546   6.559 -0.1501  0.2984 -0.2561
  216MOL0     H29098   3.476   5.519   6.387 -1.8511  0.0513  0.1364
  216MOL0     H29099   3.454   5.262   6.456  0.4788 -0.4829  2.3710
  216MOL0     H29100   3.409   5.324   6.611  1.8879 -0.2625  1.1105
  216MOL0     H29101   3.202   5.273   6.484 -0.4771 -1.1098 -2.9005
  216MOL0     H29102   3.219   5.440   6.529  0.5034  0.1677 -0.7174
  216MOL0     H29103   3.266   5.514   6.308  3.0666 -0.2209  0.6842
  216MOL0     H29104   3.297   5.358   6.249 -1.1888  3.0197 -2.4825
  216MOL0     H29105   3.075   5.296   6.225 -1.6110 -0.0902 -0.2771
  216MOL0     H29106   3.003   5.431   6.328  0.1033 -0.8124 -0.3598
  216MOL0     H29107   3.086   5.598   6.196  2.7586 -0.1785  2.4955
  216MOL0     H29108   3.165   5.498   6.079 -1.6716 -1.3857 -2.3086
  216MOL0     H29109   2.925   5.390   6.040  0.7898 -0.3713 -1.0602
  216MOL0     H29110   2.956   5.551   5.969  1.0211  0.1346 -0.8439
  216MOL0     H29111   2.833   5.757   6.089  1.3904  0.4037  1.3237
  216MOL0     H29112   2.590   5.847   6.180  1.1371  2.0541  1.6163
  216MOL0     H29113   2.491   5.754   6.295 -0.7440 -0.5491 -1.2235
  216MOL0     H29114   2.582   5.942   6.406 -0.1807  0.5276 -0.3512
  216MOL0     H29115   2.752   5.886   6.365  0.8051 -3.0681 -2.8184
  216MOL0     H29116   2.683   5.845   6.596 -1.1003 -0.5512  0.9015
  216MOL0     H29117   2.696   5.689   6.517  0.0153  0.7233  0.6704
  216MOL0     H29118   2.509   5.718   6.682  1.5858  0.0408  0.1324
  216MOL0     H29119   2.486   5.628   6.533  2.5922 -1.2328  2.4777
  216MOL0     H29120   2.300   5.592   6.639 -0.0210 -0.8007 -0.3063
  216MOL0     H29121   1.991   5.438   6.584 -0.5367  0.6280 -0.2483
  216MOL0     H29122   2.130   5.448   6.701  2.7584  3.4898  0.6075
  216MOL0     H29123   1.968   5.537   6.724 -0.6793  0.3560  0.5319
  216MOL0     H29124   1.618   5.968   6.539 -1.0509  2.3094 -0.8798
  216MOL0     H29125   1.413   6.005   6.447  0.8247  2.3673 -2.7722
  216MOL0     H29126   1.226   5.761   6.095  1.3148 -0.1293  1.5067
  216MOL0     H29127   1.205   5.658   6.224 -1.9193 -0.1930 -3.7103
  216MOL0     H29128   0.995   5.711   6.191 -0.5916  0.6063 -0.7608
  216MOL0     H29129   1.030   5.847   6.310  0.8088  1.3279  0.6070
  216MOL0     H29130   1.035   5.862   6.010  2.9969 -2.7331  2.1256
  216MOL0     H29131   1.061   6.003   6.112  1.6387 -1.3528 -0.2401
  216MOL0     H29132   0.795   5.838   6.129  1.7812 -0.2842 -1.2436
  216MOL0     H29133   0.813   5.981   6.215 -0.6947 -3.3060  2.2074
  216MOL0     H29134   0.825   5.961   5.912 -0.5411  0.2723  0.1189
  216MOL0     H29135   0.891   6.089   5.992  0.1088  0.1911  0.9036
  216MOL0     H29136   0.679   6.139   6.103  3.1382  0.9774 -0.9574
  216MOL0     H29137   0.667   6.149   5.923 -0.5607 -0.7924 -1.4535
  216MOL0     H29138   0.561   5.941   6.121 -2.1904 -0.2592  0.4306
  216MOL0     H29139   0.562   5.900   5.952 -0.7374 -0.8797  0.3326
  216MOL0     H29140   0.394   6.143   6.043  0.2387  2.1183 -3.3586
  216MOL0     H29141   0.353   5.968   6.006  1.5714 -1.2657  2.0274
  216MOL0     H29142   1.439   5.632   6.237  3.3786  1.0301 -1.8166
  216MOL0     H29143   1.650   5.600   6.319  0.9245  2.2897 -2.7499
  216MOL0     H29144   2.000   5.895   6.391  1.2585  2.0738  1.1299
  216MOL0     H29145   2.220   5.924   6.374 -2.4885 -1.1429 -2.5495
  216MOL0     H29146   3.945   5.385   6.594 -0.1174  0.6693 -0.2136
  216MOL0     H29147   4.142   5.540   6.645  0.2836 -2.1200  1.8379
  216MOL0     H29148   4.147   6.035   7.033  0.5191 -0.5570  0.6884
  216MOL0     H29149   4.367   6.159   7.100 -0.3965  0.3944  0.0153
  216MOL0     H29150   4.728   6.022   6.841  2.7833  0.4547 -0.0108
  216MOL0     H29151   4.696   6.175   6.784  1.2838  1.1353 -0.4546
  216MOL0     H29152   4.916   6.095   6.947 -0.6641 -1.6838  1.3719
  216MOL0     H29153   4.804   6.148   7.069 -0.3820  1.6749 -0.6052
  216MOL0     H29154   4.903   6.358   7.037  1.5478  1.7020 -1.2852
  216MOL0     H29155   4.764   6.352   6.926  0.5607 -0.4287  1.4623
  216MOL0     H29156   4.939   6.278   6.748  0.6306  1.4917 -0.9968
  216MOL0     H29157   5.062   6.283   6.874 -0.6497 -2.1374  1.1849
  216MOL0     H29158   4.984   6.690   6.735  0.3144  1.3036 -0.1369
  216MOL0     H29159   4.543   5.965   6.755 -1.6751 -1.5717  0.1078
  216MOL0     H29160   4.345   5.848   6.718 -0.3348 -1.4124  0.7512
  217MOL0     O29161   0.634   0.462  10.396  1.1305 -0.0623  0.2455
  217MOL0     C29162   0.683   0.497  10.499  0.4500 -0.4917  0.4683
  217MOL0     O29163   0.803   0.559  10.512 -0.2112  0.6762 -0.3882
  217MOL0     C29164   0.862   0.626  10.408  0.0476 -0.4346 -0.7948
  217MOL0     C29165   0.984   0.683  10.437 -0.4157 -0.3569  0.6484
  217MOL0     C29166   1.063   0.769  10.355 -0.4136  0.2171 -0.6505
  217MOL0     C29167   1.022   0.782  10.227 -0.0027 -0.1146  0.0820
  217MOL0     O29168   1.093   0.848  10.129 -0.5311 -1.0096 -1.1250
  217MOL0     C29169   1.229   0.886  10.143  0.4738 -0.0937 -0.1368
  217MOL0     C29170   1.292   0.870   9.999  0.1432  0.7313 -0.0832
  217MOL0     C29171   1.444   0.868  10.016  0.5565  0.1853 -0.2335
  217MOL0     C29172   1.521   0.869   9.882  0.0460  0.5406  0.8137
  217MOL0     C29173   1.670   0.881   9.920 -0.5151 -0.5319  0.3659
  217MOL0     C29174   1.768   0.907   9.796  0.4504 -0.0259 -0.6611
  217MOL0     C29175   1.765   0.806   9.683  0.1224 -0.5332 -0.8621
  217MOL0     C29176   1.852   0.854   9.570 -0.6001 -0.8593  0.4790
  217MOL0     N29177   1.865   0.733   9.480  0.6362  0.0920 -0.8084
  217MOL0     C29178   1.836   0.739   9.351  0.3386  0.0422  0.2899
  217MOL0     C29179   1.870   0.624   9.297  0.2573  0.4352 -0.3692
  217MOL0     C29180   1.857   0.605   9.144 -0.9781  0.4780 -0.1410
  217MOL0     C29181   1.993   0.529   9.090 -0.1225  0.4866 -0.0271
  217MOL0     C29182   1.974   0.378   9.073  0.1020 -0.7021 -0.7976
  217MOL0     C29183   2.077   0.316   8.977  0.1461 -0.1326  0.3508
  217MOL0     O29184   2.201   0.348   9.032  0.8459 -0.2329 -0.1860
  217MOL0     C29185   2.325   0.323   8.971  0.6737  0.1134 -0.8067
  217MOL0     C29186   2.449   0.323   9.054 -0.0109  0.3934 -0.6565
  217MOL0     C29187   2.575   0.290   8.998 -0.0873  0.2684  0.3682
  217MOL0     C29188   2.687   0.268   9.096 -0.0847  0.7622 -0.1932
  217MOL0     C29189   2.582   0.266   8.859  0.1784  0.7417 -0.0170
  217MOL0     C29190   2.709   0.248   8.793  0.8598  0.4721 -0.1762
  217MOL0     O29191   2.798   0.346   8.811  0.1565  0.3788  0.2071
  217MOL0     C29192   2.915   0.331   8.746 -0.2243  0.1235 -0.9933
  217MOL0     C29193   3.018   0.251   8.800  0.4345 -0.2596  1.0899
  217MOL0     C29194   3.148   0.241   8.740  0.9042 -0.8472 -0.2316
  217MOL0     C29195   3.180   0.311   8.626  0.2883  0.7281 -0.2663
  217MOL0     O29196   3.294   0.310   8.558 -0.0526 -0.3814 -0.6183
  217MOL0     C29197   3.383   0.200   8.563 -0.1701 -0.4529  0.9173
  217MOL0     C29198   3.485   0.219   8.448 -0.2201  0.2020  0.5129
  217MOL0     C29199   3.603   0.114   8.471  0.2288  0.3518 -0.5289
  217MOL0     C29200   3.709   0.174   8.558 -0.2588  0.2072 -0.5753
  217MOL0     C29201   3.806   0.066   8.613 -0.0862  0.4681  0.2469
  217MOL0     C29202   3.896   0.003   8.499  0.5704 -0.1790 -0.5341
  217MOL0     C29203   3.984  -0.111   8.556  0.5683  0.4748 -0.7315
  217MOL0     C29204   4.047  -0.184   8.441  0.2134  1.0733 -0.2361
  217MOL0    Cl29205   3.916  -0.285   8.368  0.3531  0.2746  0.2454
  217MOL0     C29206   3.077   0.391   8.570  0.7992  0.3015 -1.0391
  217MOL0     C29207   2.948   0.402   8.624  0.6883 -0.5079 -0.9997
  217MOL0     O29208   2.722   0.155   8.717 -0.1892 -0.0434  0.2515
  217MOL0     C29209   2.465   0.271   8.789 -0.7364  0.6477  0.6433
  217MOL0     C29210   2.343   0.304   8.839  0.1492  0.2381 -0.4680
  217MOL0     N29211   1.912   0.535   9.399 -0.2940 -0.1523  0.0266
  217MOL0     N29212   1.916   0.613   9.503 -0.3258 -0.1844  0.5613
  217MOL0     C29213   0.892   0.733  10.195  0.3225  0.6384 -0.0180
  217MOL0     C29214   0.815   0.653  10.279  0.2514  0.4027 -0.3837
  217MOL0     C29215   0.615   0.455  10.624  0.2174 -0.2222 -0.3020
  217MOL0     C29216   0.695   0.420  10.738 -0.3226 -0.0085  0.2291
  217MOL0     C29217   0.636   0.385  10.856  1.0990 -0.1967  0.0780
  217MOL0     C29218   0.496   0.375  10.873 -0.2261 -0.1747  0.5510
  217MOL0     O29219   0.450   0.337  10.992 -0.0453  0.1882 -0.0584
  217MOL0     C29220   0.314   0.365  11.023 -0.1530  0.0525 -0.3338
  217MOL0     C29221   0.222   0.250  10.969 -1.7486 -0.1745 -0.1194
  217MOL0     C29222   0.075   0.247  11.018 -0.3747 -0.3866 -0.0656
  217MOL0     C29223   0.003   0.362  10.959 -0.4722 -0.1118  0.1961
  217MOL0     C29224  -0.145   0.346  10.975  0.4143 -0.3674 -0.4473
  217MOL0     C29225  -0.267   0.336  10.980  0.9454 -0.6253 -0.2740
  217MOL0     C29226   0.420   0.404  10.755  0.1397  0.0535  1.3269
  217MOL0     C29227   0.478   0.457  10.634 -0.8020 -0.4284 -0.6019
  217MOL0     H29228   1.043   0.665  10.527  3.5051  0.4187 -1.5218
  217MOL0     H29229   1.148   0.820  10.400 -0.8625  2.3171 -2.0130
  217MOL0     H29230   1.242   0.986  10.185  0.7705 -1.2212  2.6439
  217MOL0     H29231   1.281   0.811  10.202 -0.0092  0.0735  0.5114
  217MOL0     H29232   1.263   0.777   9.949  2.9591  0.2305 -0.9654
  217MOL0     H29233   1.250   0.957   9.949 -2.6191  0.4478  1.5486
  217MOL0     H29234   1.475   0.954  10.076 -0.7979  0.1712  0.5262
  217MOL0     H29235   1.466   0.776  10.070 -1.8402 -0.5773 -0.4106
  217MOL0     H29236   1.498   0.777   9.828 -1.1539  1.3878 -0.1808
  217MOL0     H29237   1.481   0.951   9.822 -1.3346 -2.0002 -2.0058
  217MOL0     H29238   1.677   0.958   9.998 -1.5904  0.1440 -0.1923
  217MOL0     H29239   1.715   0.793   9.967  2.6224  0.4146 -0.5860
  217MOL0     H29240   1.722   0.996   9.751 -0.2882 -0.7596 -1.3927
  217MOL0     H29241   1.872   0.921   9.827  1.5195 -0.2955 -3.7584
  217MOL0     H29242   1.822   0.726   9.732 -1.7223 -2.1293 -1.2059
  217MOL0     H29243   1.668   0.769   9.648  0.5816 -1.6101 -1.0101
  217MOL0     H29244   1.950   0.880   9.610  1.1216 -1.1741 -3.0924
  217MOL0     H29245   1.816   0.945   9.520 -0.1712  0.0205  1.7237
  217MOL0     H29246   1.783   0.819   9.302  0.8994 -0.9498 -2.0698
  217MOL0     H29247   1.769   0.547   9.115  0.2143 -1.0301 -0.9345
  217MOL0     H29248   1.838   0.702   9.096 -0.5217  0.1703 -0.9682
  217MOL0     H29249   2.077   0.546   9.158 -1.7431  2.0920  1.6616
  217MOL0     H29250   2.007   0.572   8.990  0.8507  2.7307  1.0212
  217MOL0     H29251   1.873   0.355   9.038 -0.1274 -3.3738  1.2976
  217MOL0     H29252   1.975   0.334   9.173 -1.3603  3.7566  1.4401
  217MOL0     H29253   2.060   0.361   8.879 -0.9459  3.0896  1.8881
  217MOL0     H29254   2.073   0.206   8.980 -4.0520 -0.1074  1.3304
  217MOL0     H29255   2.436   0.362   9.155  0.8421  1.2063 -0.8395
  217MOL0     H29256   2.773   0.211   9.060  2.3453  3.5607  0.7889
  217MOL0     H29257   2.718   0.358   9.149  4.1533 -1.5219  1.7029
  217MOL0     H29258   2.646   0.196   9.168  1.0555 -0.2984 -0.5736
  217MOL0     H29259   2.991   0.201   8.892 -2.7818 -1.4312 -0.3225
  217MOL0     H29260   3.223   0.187   8.797  1.9411  1.5215  0.7923
  217MOL0     H29261   3.430   0.189   8.661  0.5887  1.7011  0.8446
  217MOL0     H29262   3.331   0.108   8.533  0.8990 -1.2309  1.3813
  217MOL0     H29263   3.432   0.191   8.356 -1.7902  0.5820  1.2726
  217MOL0     H29264   3.520   0.320   8.426 -1.0899  0.4025 -0.0048
  217MOL0     H29265   3.640   0.078   8.375  2.3015  1.1344 -0.0811
  217MOL0     H29266   3.558   0.041   8.539  0.1938  1.3115  0.5218
  217MOL0     H29267   3.766   0.256   8.513  1.7187 -0.9114 -0.1977
  217MOL0     H29268   3.675   0.218   8.653  4.0000  0.5888  0.9829
  217MOL0     H29269   3.746  -0.014   8.659 -0.1637 -0.6224 -1.6533
  217MOL0     H29270   3.880   0.109   8.681  0.8468 -0.2053 -0.3321
  217MOL0     H29271   3.841  -0.034   8.412 -2.0242  3.2516 -0.5719
  217MOL0     H29272   3.961   0.084   8.466 -1.7215  1.0416 -2.3411
  217MOL0     H29273   3.914  -0.186   8.595  0.2509  0.3176 -1.5716
  217MOL0     H29274   4.049  -0.072   8.635 -0.2051 -1.4980  0.9765
  217MOL0     H29275   4.127  -0.248   8.478 -1.4005  0.1754  1.8594
  217MOL0     H29276   4.088  -0.122   8.360  0.7477 -0.8780 -1.5143
  217MOL0     H29277   3.094   0.457   8.485  2.3273  0.6850 -0.4561
  217MOL0     H29278   2.878   0.474   8.582  1.5124  2.2690  1.9472
  217MOL0     H29279   2.461   0.259   8.681 -3.2127  2.6109  0.4138
  217MOL0     H29280   2.252   0.308   8.780  0.4480  1.5373 -0.8737
  217MOL0     H29281   0.856   0.746  10.094 -0.8384 -2.3609 -0.0761
  217MOL0     H29282   0.713   0.630  10.248 -0.6417  2.6292  0.6769
  217MOL0     H29283   0.801   0.435  10.724 -0.1588 -1.9119 -0.7950
  217MOL0     H29284   0.699   0.361  10.941  0.1379  2.7870  1.7392
  217MOL0     H29285   0.315   0.367  11.132  1.2697 -1.3126 -0.2755
  217MOL0     H29286   0.287   0.464  10.985 -0.0834  0.2014  0.0059
  217MOL0     H29287   0.278   0.160  10.994  1.4221  1.6473 -0.0896
  217MOL0     H29288   0.227   0.264  10.861  1.7506 -0.0437 -0.0531
  217MOL0     H29289   0.080   0.251  11.127  1.3274  0.8145 -0.1610
  217MOL0     H29290   0.027   0.153  10.989 -1.7207  0.3704 -0.3821
  217MOL0     H29291   0.033   0.366  10.854 -1.6689  1.1707 -0.1356
  217MOL0     H29292   0.033   0.462  10.994  2.6714 -1.0507  0.4723
  217MOL0     H29293  -0.373   0.323  10.990  0.8973 -0.5945 -0.7303
  217MOL0     H29294   0.313   0.385  10.753  0.0910 -0.0663 -2.5943
  217MOL0     H29295   0.412   0.488  10.554 -1.1868  1.2901  0.3406
  218MOL0     O29296  10.326   5.966   9.667  1.0126 -0.6378  0.0728
  218MOL0     C29297  10.410   5.954   9.760  0.3036  0.2365  0.0314
  218MOL0     O29298  10.387   5.938   9.900  0.4419  0.3826  0.4327
  218MOL0     C29299  10.270   5.967   9.966 -0.0231 -0.4341 -0.2194
  218MOL0     C29300  10.141   5.921   9.925  0.3991 -0.5178  0.4469
  218MOL0     C29301  10.034   5.933  10.012 -0.1024 -0.4868 -0.3210
  218MOL0     C29302  10.042   6.003  10.138 -0.2293 -0.6239  0.1928
  218MOL0     O29303   9.936   6.003  10.227  0.3553 -0.1015 -0.2079
  218MOL0     C29304   9.800   5.996  10.183 -0.0427 -0.0397 -0.3418
  218MOL0     C29305   9.716   6.022  10.307  0.4350 -0.1041  0.8170
  218MOL0     C29306   9.575   5.989  10.274 -0.4705 -0.6819  0.2459
  218MOL0     C29307   9.545   5.845  10.285 -0.4226 -0.3755 -0.0665
  218MOL0     C29308   9.398   5.835  10.278  0.5445 -0.5117  0.1928
  218MOL0     C29309   9.332   5.839  10.413  0.7780 -0.0824 -0.4990
  218MOL0     C29310   9.174   5.848  10.403 -0.5271 -0.0920 -0.1068
  218MOL0     C29311   9.114   5.985  10.365  0.9401  0.1346 -0.4626
  218MOL0     N29312   9.144   6.089  10.454  0.0287  0.8110 -0.2366
  218MOL0     C29313   9.237   6.182  10.428  0.4173 -0.0128  0.2813
  218MOL0     C29314   9.227   6.274  10.524  0.0166 -0.4399  0.5149
  218MOL0     C29315   9.284   6.416  10.516 -0.2839 -0.5826 -0.8439
  218MOL0     C29316   9.407   6.417  10.615 -0.5758  0.3210 -0.3926
  218MOL0     C29317   9.534   6.357  10.549  0.1270 -0.2569  0.3414
  218MOL0     C29318   9.664   6.368  10.630  0.0777 -1.0349 -0.3682
  218MOL0     O29319   9.746   6.262  10.576  0.0158 -0.1617  0.2372
  218MOL0     C29320   9.882   6.278  10.592 -0.4550 -0.6294 -1.0229
  218MOL0     C29321   9.947   6.367  10.691  0.3817 -0.6926 -0.4582
  218MOL0     C29322  10.083   6.367  10.713 -0.2018 -0.2158 -0.2251
  218MOL0     C29323  10.135   6.473  10.803 -0.4735 -0.5496  0.4303
  218MOL0     C29324  10.164   6.265  10.654 -0.8966  0.4789  1.3188
  218MOL0     C29325  10.310   6.238  10.675 -0.4571  0.9990  0.4587
  218MOL0     O29326  10.373   6.136  10.600 -0.3152  0.4200  0.0141
  218MOL0     C29327  10.494   6.089  10.643 -0.1615 -0.8616  0.0439
  218MOL0     C29328  10.587   6.051  10.544  0.0317  0.5601 -0.1850
  218MOL0     C29329  10.714   6.000  10.585  0.2298  0.5343 -0.2292
  218MOL0     C29330  10.749   5.980  10.724 -0.0035 -0.6584 -0.4431
  218MOL0     O29331  10.868   5.926  10.771 -0.0447  0.3530 -0.3675
  218MOL0     C29332  10.987   5.963  10.692 -0.1249  0.4706 -0.7257
  218MOL0     C29333  11.028   6.103  10.741  0.3032 -0.0026 -0.7360
  218MOL0     C29334  11.181   6.127  10.725  0.8621  0.4682  0.8622
  218MOL0     C29335  11.220   6.233  10.620  0.1525 -0.1153 -0.0566
  218MOL0     C29336  11.372   6.266  10.639  0.3597 -0.3882 -0.1378
  218MOL0     C29337  11.411   6.359  10.526 -0.2485 -0.7968 -0.8239
  218MOL0     C29338  11.562   6.380  10.505  0.6165 -0.0620 -0.4178
  218MOL0     C29339  11.623   6.430  10.639 -0.4253 -0.0929 -0.0908
  218MOL0    Cl29340  11.790   6.386  10.630  0.2684 -0.7247  0.0149
  218MOL0     C29341  10.651   6.025  10.824  0.2420  0.9317  0.7433
  218MOL0     C29342  10.528   6.072  10.776 -0.0300  0.1106 -0.4588
  218MOL0     O29343  10.375   6.319  10.750 -0.0530  1.0503  0.6808
  218MOL0     C29344  10.103   6.180  10.556  1.1905 -0.0475  0.7382
  218MOL0     C29345   9.969   6.197  10.527  1.3094  0.1486 -0.3446
  218MOL0     N29346   9.136   6.217  10.614  0.4148  0.2573  0.2663
  218MOL0     N29347   9.093   6.098  10.580  0.2337 -0.3478  0.0765
  218MOL0     C29348  10.164   6.054  10.174 -0.5427 -0.6069 -0.0761
  218MOL0     C29349  10.279   6.047  10.083  0.2254 -0.4633 -0.7901
  218MOL0     C29350  10.554   5.971   9.721  0.5611  0.6176 -0.3567
  218MOL0     C29351  10.590   5.960   9.583  0.6610  0.1956 -0.7614
  218MOL0     C29352  10.730   5.951   9.558 -0.1336 -0.8821  1.4276
  218MOL0     C29353  10.832   5.978   9.649 -0.4426  0.7904 -1.2169
  218MOL0     O29354  10.968   5.992   9.625 -0.3764 -0.0270  0.4200
  218MOL0     C29355  11.014   5.998   9.491  0.4930  0.3281  0.5454
  218MOL0     C29356  11.027   5.845   9.449 -0.0991 -0.7826  0.5823
  218MOL0     C29357  11.036   5.829   9.304 -0.1360 -0.3122 -0.0620
  218MOL0     C29358  11.087   5.687   9.258  0.1486 -0.3865 -0.2490
  218MOL0     C29359  10.972   5.600   9.274 -0.1753 -0.0013 -0.9690
  218MOL0     C29360  10.861   5.546   9.274  0.8876  0.6672  0.0335
  218MOL0     C29361  10.786   5.989   9.780 -0.1693 -0.1973  0.3182
  218MOL0     C29362  10.646   5.991   9.815  0.2468  0.6659  0.4220
  218MOL0     H29363  10.127   5.850   9.844 -1.5252  0.1007  0.1842
  218MOL0     H29364   9.939   5.883   9.995 -1.6836  1.8861  0.9528
  218MOL0     H29365   9.778   6.074  10.109  0.1310 -1.5378 -2.0270
  218MOL0     H29366   9.771   5.902  10.136 -2.6337  0.1648  0.6634
  218MOL0     H29367   9.750   5.953  10.384  3.5430  0.9230  0.4957
  218MOL0     H29368   9.727   6.122  10.350 -1.9785 -0.0670  1.5214
  218MOL0     H29369   9.519   6.033  10.357 -0.0094  0.4553 -0.0293
  218MOL0     H29370   9.540   6.042  10.185 -2.1030 -0.6225  0.8871
  218MOL0     H29371   9.590   5.784  10.206 -2.6393  0.7410 -2.3753
  218MOL0     H29372   9.574   5.810  10.384 -1.5347 -0.5500  0.2135
  218MOL0     H29373   9.354   5.904  10.205  0.9702 -1.3337 -0.8771
  218MOL0     H29374   9.373   5.735  10.240 -1.8511 -0.1176  0.5680
  218MOL0     H29375   9.354   5.754  10.478 -1.9067 -2.4924 -2.4846
  218MOL0     H29376   9.363   5.935  10.457 -0.4103  0.8307 -1.5658
  218MOL0     H29377   9.143   5.778  10.324  1.8843 -0.7753 -0.5133
  218MOL0     H29378   9.134   5.819  10.500  3.2037 -0.1544  1.5874
  218MOL0     H29379   9.006   6.000  10.375  1.3887  3.6410  0.8283
  218MOL0     H29380   9.147   6.017  10.266  1.0406 -0.1131 -0.5078
  218MOL0     H29381   9.280   6.173  10.329  0.2581 -2.2389  0.3597
  218MOL0     H29382   9.316   6.463  10.423  1.1938 -0.2354 -0.1887
  218MOL0     H29383   9.210   6.488  10.552 -1.0697 -1.6352 -0.2949
  218MOL0     H29384   9.383   6.353  10.701  1.3223 -0.9048 -0.7271
  218MOL0     H29385   9.412   6.524  10.635 -1.5008  1.1403 -3.8912
  218MOL0     H29386   9.556   6.412  10.457 -1.8818  1.5138  0.8470
  218MOL0     H29387   9.521   6.254  10.514  2.3721 -0.5003  0.0475
  218MOL0     H29388   9.639   6.347  10.735  1.3106  0.6164  0.2951
  218MOL0     H29389   9.718   6.463  10.629  0.4513 -1.2420 -2.3884
  218MOL0     H29390   9.890   6.433  10.755 -1.7917  0.4069 -3.3126
  218MOL0     H29391  10.194   6.426  10.882  3.6849 -0.7322 -2.4214
  218MOL0     H29392  10.210   6.539  10.758  1.0836 -1.5722  1.4310
  218MOL0     H29393  10.053   6.534  10.842 -0.8162 -0.9296  0.3073
  218MOL0     H29394  10.569   6.067  10.439 -2.6667  0.9954  0.2731
  218MOL0     H29395  10.791   5.981  10.511  0.7770  0.6472  0.3061
  218MOL0     H29396  11.060   5.884  10.711 -1.1052 -0.7061 -1.7305
  218MOL0     H29397  10.977   5.962  10.583 -1.3744  3.7607 -0.7500
  218MOL0     H29398  10.963   6.182  10.700  1.0266  0.1250 -1.6694
  218MOL0     H29399  11.002   6.112  10.847 -3.0555  4.5326 -1.6307
  218MOL0     H29400  11.220   6.028  10.703 -3.5618 -2.0283  2.7836
  218MOL0     H29401  11.227   6.155  10.821  3.0112  1.4678 -0.3939
  218MOL0     H29402  11.215   6.191  10.520 -1.3806  0.4036 -0.2202
  218MOL0     H29403  11.172   6.330  10.634  3.0107  1.1325  2.1725
  218MOL0     H29404  11.430   6.173  10.638  1.4964  0.3027 -0.1630
  218MOL0     H29405  11.369   6.308  10.740 -2.2712  1.6127 -0.9110
  218MOL0     H29406  11.370   6.330  10.429 -2.2850 -3.3331  0.6532
  218MOL0     H29407  11.368   6.459  10.536 -0.1758 -0.6958 -1.4626
  218MOL0     H29408  11.572   6.467  10.439  0.4278  0.1890 -0.1141
  218MOL0     H29409  11.602   6.283  10.474 -1.0076 -3.1145  5.4763
  218MOL0     H29410  11.582   6.387  10.731 -2.1846  0.9779 -0.3337
  218MOL0     H29411  11.623   6.539  10.648  0.8002  0.0919 -1.7680
  218MOL0     H29412  10.660   6.027  10.932  1.0198 -3.5102  0.9531
  218MOL0     H29413  10.458   6.109  10.850  0.9271  3.6929 -1.1892
  218MOL0     H29414  10.165   6.122  10.487  1.2867 -1.8206  2.2302
  218MOL0     H29415   9.927   6.121  10.460  0.1830 -0.6335  1.1854
  218MOL0     H29416  10.184   6.095  10.272 -1.7454 -1.8116  0.7023
  218MOL0     H29417  10.376   6.087  10.110 -0.7673  0.9232  0.9717
  218MOL0     H29418  10.522   5.937   9.502  2.6724 -1.0590 -2.1929
  218MOL0     H29419  10.748   5.942   9.451 -0.3236 -3.3820  1.5603
  218MOL0     H29420  10.942   6.036   9.418  1.0411  0.6835  0.1801
  218MOL0     H29421  11.108   6.053   9.493 -0.3718  1.9160 -0.4076
  218MOL0     H29422  10.937   5.794   9.483  0.7364 -1.4030  1.9390
  218MOL0     H29423  11.116   5.797   9.492  0.5850  0.6886  0.8747
  218MOL0     H29424  11.110   5.903   9.273 -0.1454 -0.2306  0.1081
  218MOL0     H29425  10.936   5.852   9.266 -0.3049  1.5070  1.3551
  218MOL0     H29426  11.162   5.652   9.329  0.0303  2.5503  1.4908
  218MOL0     H29427  11.126   5.685   9.156  1.7915 -2.8814  0.3526
  218MOL0     H29428  10.758   5.517   9.278  1.0763 -0.0033  0.1073
  218MOL0     H29429  10.867   5.998   9.852 -0.7742 -0.8041  1.1072
  218MOL0     H29430  10.619   6.003   9.919  1.1061  2.7035  0.4479
  219MOL0     O29431   4.233  10.867  11.225 -0.2951  0.2654 -0.2560
  219MOL0     C29432   4.289  10.952  11.293 -0.6506 -0.6417 -0.5366
  219MOL0     O29433   4.229  11.045  11.371  0.1700  0.2275  0.1396
  219MOL0     C29434   4.090  11.048  11.396 -0.6856  0.6410  0.9363
  219MOL0     C29435   4.028  11.171  11.392  0.9024  0.2833 -0.1328
  219MOL0     C29436   3.892  11.188  11.431  0.4167  0.2947  1.1029
  219MOL0     C29437   3.812  11.074  11.473 -0.7674  0.1430 -1.0277
  219MOL0     O29438   3.682  11.086  11.506 -0.1868  0.3516 -0.2211
  219MOL0     C29439   3.615  10.987  11.584 -0.6869 -0.1472  0.4913
  219MOL0     C29440   3.462  11.015  11.571 -0.2101 -0.4013 -0.0304
  219MOL0     C29441   3.387  10.888  11.614 -0.7666  1.0264  0.4919
  219MOL0     C29442   3.247  10.924  11.652 -0.0123 -0.0044  0.4014
  219MOL0     C29443   3.174  10.799  11.711 -0.0288  0.6567  0.4107
  219MOL0     C29444   3.040  10.836  11.769  0.4121 -0.5141  0.8558
  219MOL0     C29445   2.965  10.717  11.819 -0.6466  0.0718 -0.0467
  219MOL0     C29446   2.830  10.780  11.856  0.3218  0.1712  0.2094
  219MOL0     N29447   2.730  10.762  11.743 -0.2201  0.4617 -0.3400
  219MOL0     C29448   2.629  10.668  11.747 -0.9418  0.5329  0.2712
  219MOL0     C29449   2.545  10.711  11.642 -0.2293  0.5026 -0.4160
  219MOL0     C29450   2.423  10.632  11.599  0.3228 -0.0494  0.2653
  219MOL0     C29451   2.304  10.662  11.697 -0.6873  0.8539 -0.4094
  219MOL0     C29452   2.221  10.789  11.674  0.5756 -0.7867 -0.4474
  219MOL0     C29453   2.176  10.812  11.533  0.1209  0.6004  0.0634
  219MOL0     O29454   2.116  10.707  11.470 -0.1419 -0.0027  0.2902
  219MOL0     C29455   1.981  10.688  11.489  0.3076  0.3718 -0.3460
  219MOL0     C29456   1.925  10.607  11.392  0.3536 -0.4421  0.3272
  219MOL0     C29457   1.789  10.577  11.378  0.1917 -0.7904 -0.3081
  219MOL0     C29458   1.740  10.485  11.269 -0.4256  0.8089 -0.2608
  219MOL0     C29459   1.698  10.638  11.468 -0.8551  0.0848  0.6597
  219MOL0     C29460   1.557  10.627  11.465 -0.2907  0.1418  0.2289
  219MOL0     O29461   1.501  10.544  11.369 -0.0458  0.2538 -0.7974
  219MOL0     C29462   1.365  10.536  11.353  0.0808 -0.4392  0.1934
  219MOL0     C29463   1.274  10.435  11.417 -0.5345 -0.1490  0.5180
  219MOL0     C29464   1.137  10.444  11.401 -0.7910 -0.1909  0.9543
  219MOL0     C29465   1.080  10.549  11.321 -0.1864 -0.1174  0.0617
  219MOL0     O29466   0.949  10.551  11.299 -0.0038  0.6078 -0.4765
  219MOL0     C29467   0.875  10.661  11.357  0.1194  0.7021 -0.8363
  219MOL0     C29468   0.755  10.594  11.447  0.3512  0.6579 -0.7261
  219MOL0     C29469   0.639  10.523  11.371 -0.3344 -0.1398  0.4871
  219MOL0     C29470   0.503  10.524  11.441  0.3812  0.2850  0.9491
  219MOL0     C29471   0.401  10.425  11.372 -0.3046  0.3670 -0.2169
  219MOL0     C29472   0.355  10.480  11.230 -0.7816 -0.1845  0.7853
  219MOL0     C29473   0.241  10.387  11.183 -0.0241  0.2234  0.6253
  219MOL0     C29474   0.166  10.421  11.056  0.1242  0.0228  0.3077
  219MOL0    Cl29475   0.281  10.419  10.905  0.6178  0.3028 -0.2882
  219MOL0     C29476   1.166  10.647  11.260 -0.2382 -1.0723 -0.1988
  219MOL0     C29477   1.305  10.635  11.277  0.1698 -0.0133 -0.1303
  219MOL0     O29478   1.485  10.695  11.544  0.1757  0.4166 -0.1929
  219MOL0     C29479   1.755  10.709  11.574  0.2389 -0.5787  0.3887
  219MOL0     C29480   1.892  10.739  11.587 -0.0603 -0.3249  0.5685
  219MOL0     N29481   2.612  10.816  11.574 -0.3416 -0.5636 -0.4536
  219MOL0     N29482   2.724  10.842  11.636 -0.9004  0.1658  0.4894
  219MOL0     C29483   3.876  10.953  11.457  0.0032  0.3597 -1.0926
  219MOL0     C29484   4.014  10.935  11.423  0.5165 -0.6794  0.1735
  219MOL0     C29485   4.439  10.962  11.270 -0.3542  0.5597 -0.6656
  219MOL0     C29486   4.497  10.869  11.170 -0.4768  0.9562 -0.8505
  219MOL0     C29487   4.634  10.890  11.156 -0.2026 -0.2157  0.1922
  219MOL0     C29488   4.710  10.983  11.223 -0.3534 -0.3985  0.0648
  219MOL0     O29489   4.848  10.983  11.213 -0.0075  0.3383  0.0397
  219MOL0     C29490   4.920  10.926  11.329 -0.3121 -0.3311  0.3434
  219MOL0     C29491   5.025  10.824  11.288 -0.1448  0.1059 -0.8474
  219MOL0     C29492   4.956  10.699  11.239 -0.1932  1.2962  0.5523
  219MOL0     C29493   5.045  10.586  11.192 -0.9032  0.2649 -0.2776
  219MOL0     C29494   5.124  10.606  11.064 -0.1154  0.2619 -0.1795
  219MOL0     C29495   5.179  10.633  10.957 -0.3779  0.1918 -0.7102
  219MOL0     C29496   4.643  11.064  11.323 -0.2758  0.8359  0.1264
  219MOL0     C29497   4.505  11.056  11.336 -0.1886  0.4895  0.0033
  219MOL0     H29498   4.087  11.259  11.369  0.6519  0.6358  0.5490
  219MOL0     H29499   3.846  11.285  11.449 -2.6601 -0.9185  0.3083
  219MOL0     H29500   3.631  10.893  11.529 -0.1766  2.2024 -3.8357
  219MOL0     H29501   3.656  10.989  11.685 -1.5838 -1.0035  0.8950
  219MOL0     H29502   3.437  11.087  11.650  3.3312 -0.3332  1.1921
  219MOL0     H29503   3.434  11.052  11.471  2.0773  4.6343  0.9030
  219MOL0     H29504   3.385  10.805  11.542  1.0560  0.6686  0.8045
  219MOL0     H29505   3.429  10.849  11.707 -2.8915 -1.7953  0.4159
  219MOL0     H29506   3.250  11.004  11.727 -1.8903  0.6064 -0.1330
  219MOL0     H29507   3.191  10.951  11.562  0.0740 -1.1832 -0.0221
  219MOL0     H29508   3.180  10.724  11.632  3.2740  1.4098 -0.1962
  219MOL0     H29509   3.236  10.758  11.792  0.3110  2.1093  0.9188
  219MOL0     H29510   3.045  10.907  11.852  0.4033  0.5851 -0.0424
  219MOL0     H29511   2.984  10.883  11.687 -0.1318  2.2822  2.6937
  219MOL0     H29512   2.967  10.644  11.736  0.1099  0.4779 -0.3994
  219MOL0     H29513   3.013  10.673  11.907 -0.7923 -2.0091 -0.9339
  219MOL0     H29514   2.837  10.888  11.874 -0.3913  0.1862  0.4081
  219MOL0     H29515   2.782  10.724  11.937 -0.1678 -0.4192 -0.4782
  219MOL0     H29516   2.611  10.591  11.822 -0.9137  1.1451  0.9182
  219MOL0     H29517   2.398  10.659  11.496  0.1379 -2.9119 -0.5325
  219MOL0     H29518   2.435  10.523  11.608 -4.2960 -0.6530  2.3178
  219MOL0     H29519   2.347  10.653  11.797  2.5133 -3.6060 -1.8623
  219MOL0     H29520   2.229  10.583  11.694  1.0286 -0.8553 -0.1255
  219MOL0     H29521   2.278  10.878  11.703  1.2357 -1.3593  0.0423
  219MOL0     H29522   2.137  10.795  11.744  0.5198  0.5381 -0.5986
  219MOL0     H29523   2.265  10.834  11.473  1.9185  1.7536  2.9248
  219MOL0     H29524   2.122  10.907  11.534 -2.3759 -0.7415  0.1321
  219MOL0     H29525   1.995  10.575  11.315 -0.7322 -0.0877 -0.8429
  219MOL0     H29526   1.670  10.406  11.297 -0.7198  1.0016 -0.4449
  219MOL0     H29527   1.709  10.544  11.182 -0.2633  1.2067 -0.0469
  219MOL0     H29528   1.832  10.436  11.234 -0.3827  0.9264 -0.3136
  219MOL0     H29529   1.311  10.367  11.492 -0.3437  0.3674  0.9005
  219MOL0     H29530   1.068  10.369  11.438  0.2225 -1.3847  0.4988
  219MOL0     H29531   0.943  10.713  11.425 -0.7552 -1.6172  2.0523
  219MOL0     H29532   0.839  10.735  11.285  2.5359  1.6335 -1.1836
  219MOL0     H29533   0.808  10.532  11.520 -0.2378 -0.4199 -1.1852
  219MOL0     H29534   0.707  10.677  11.498  1.1709  0.8753 -0.2822
  219MOL0     H29535   0.671  10.419  11.363 -1.2798 -0.5466  1.6814
  219MOL0     H29536   0.640  10.568  11.271  2.9015 -1.1614 -0.0330
  219MOL0     H29537   0.528  10.501  11.545  1.0662  0.6319  0.8656
  219MOL0     H29538   0.470  10.628  11.435 -1.9202 -0.3196  1.7554
  219MOL0     H29539   0.313  10.425  11.437  1.2350  2.4448  2.0516
  219MOL0     H29540   0.440  10.324  11.358 -0.1582  0.0810  1.9223
  219MOL0     H29541   0.317  10.583  11.238 -1.4791 -0.2775 -0.9169
  219MOL0     H29542   0.433  10.471  11.154 -3.1213 -3.3589 -1.5109
  219MOL0     H29543   0.162  10.388  11.259 -0.6886 -1.6244  0.0041
  219MOL0     H29544   0.282  10.286  11.177 -0.4721 -0.0573  1.9714
  219MOL0     H29545   0.116  10.518  11.066  2.4129  1.7983 -3.3543
  219MOL0     H29546   0.087  10.350  11.033  1.9289 -2.0117  0.0441
  219MOL0     H29547   1.107  10.717  11.202 -1.4039 -0.9747  1.0495
  219MOL0     H29548   1.381  10.702  11.238 -0.0446  0.3487  0.0759
  219MOL0     H29549   1.679  10.746  11.642 -0.8418  0.6824 -1.4238
  219MOL0     H29550   1.935  10.797  11.668  0.5312  2.7455 -1.7717
  219MOL0     H29551   3.818  10.863  11.476  2.0071 -0.8233 -0.1937
  219MOL0     H29552   4.060  10.837  11.438 -0.2623 -1.3978 -1.8488
  219MOL0     H29553   4.448  10.788  11.117  1.2154 -0.2958 -0.5836
  219MOL0     H29554   4.688  10.830  11.083  0.9132  2.1284 -1.0301
  219MOL0     H29555   4.960  11.009  11.389 -0.2346  0.3758 -0.6636
  219MOL0     H29556   4.846  10.883  11.398 -1.4713 -0.6155 -1.0235
  219MOL0     H29557   5.092  10.797  11.370  1.5111  0.9057 -1.8742
  219MOL0     H29558   5.098  10.855  11.213  1.9908 -0.2000  1.0156
  219MOL0     H29559   4.897  10.741  11.157 -0.3424 -0.6732 -0.4071
  219MOL0     H29560   4.886  10.659  11.313  0.8290 -0.3196  0.6874
  219MOL0     H29561   4.991  10.491  11.191 -0.7505  0.1764 -0.1419
  219MOL0     H29562   5.119  10.571  11.271 -1.7433 -1.4491  0.2182
  219MOL0     H29563   5.222  10.678  10.870 -2.2405 -1.2868 -2.5015
  219MOL0     H29564   4.698  11.128  11.391  0.5821 -0.1738  0.4082
  219MOL0     H29565   4.458  11.127  11.404 -2.0591 -0.7951  0.1383
  220MOL0     O29566   0.835   3.794   8.249  0.2870  0.4111 -0.7245
  220MOL0     C29567   0.757   3.829   8.342 -0.0403  0.0507 -0.3628
  220MOL0     O29568   0.758   3.948   8.401  0.0660 -0.2764 -0.1648
  220MOL0     C29569   0.820   4.055   8.335  0.3610  0.9050 -0.7740
  220MOL0     C29570   0.739   4.167   8.296 -0.7765  0.1607  0.1994
  220MOL0     C29571   0.787   4.277   8.224 -0.0325  0.4050 -0.0803
  220MOL0     C29572   0.923   4.270   8.172  0.4734  0.4407  0.5761
  220MOL0     O29573   0.968   4.379   8.097  1.0228  0.7796  0.2178
  220MOL0     C29574   1.106   4.401   8.097 -0.6286 -0.2058 -0.5986
  220MOL0     C29575   1.128   4.540   8.041  0.4080 -0.0187  0.8529
  220MOL0     C29576   1.098   4.563   7.890 -1.0911  0.2359 -0.0157
  220MOL0     C29577   1.145   4.457   7.787  0.0171  0.0113 -0.0502
  220MOL0     C29578   1.160   4.508   7.645 -0.1388 -0.1856  0.2130
  220MOL0     C29579   1.033   4.541   7.566  0.0458 -0.4696 -0.1840
  220MOL0     C29580   1.077   4.616   7.436 -0.4995  0.3511  0.1619
  220MOL0     C29581   0.987   4.573   7.319  0.1529  0.1262 -0.1774
  220MOL0     N29582   1.019   4.638   7.190 -0.5883 -0.4843  0.8183
  220MOL0     C29583   1.129   4.605   7.118 -0.0354 -0.1600  0.7088
  220MOL0     C29584   1.106   4.644   6.990 -0.3838  0.0215  0.1735
  220MOL0     C29585   1.173   4.615   6.857  0.2311 -0.1463  0.1042
  220MOL0     C29586   1.071   4.621   6.736  0.0600 -0.2703 -0.5955
  220MOL0     C29587   1.142   4.557   6.620 -0.1707  0.3728 -0.1463
  220MOL0     C29588   1.055   4.558   6.494  0.0867 -0.0092 -0.5806
  220MOL0     O29589   0.931   4.507   6.532  0.2073  0.3850  1.3443
  220MOL0     C29590   0.817   4.566   6.482 -0.4828  0.5600 -0.5555
  220MOL0     C29591   0.810   4.633   6.355  0.2553  0.0262  0.0402
  220MOL0     C29592   0.684   4.676   6.310 -0.4985 -0.6956 -0.1608
  220MOL0     C29593   0.688   4.731   6.176 -0.0379  0.3008  0.4740
  220MOL0     C29594   0.573   4.663   6.388  0.7442  0.6095  0.1219
  220MOL0     C29595   0.436   4.683   6.337  1.4512  1.3094 -1.0276
  220MOL0     O29596   0.352   4.749   6.429 -0.3278 -0.0061 -0.0807
  220MOL0     C29597   0.211   4.739   6.410  0.0737 -0.2662  0.7208
  220MOL0     C29598   0.144   4.802   6.303 -0.8499  0.1510  0.3035
  220MOL0     C29599   0.005   4.799   6.293  0.7479  1.0170 -0.7063
  220MOL0     C29600  -0.071   4.721   6.375  0.2172  0.2301  0.8801
  220MOL0     O29601  -0.208   4.721   6.356  0.2146 -0.6171 -0.1732
  220MOL0     C29602  -0.276   4.706   6.483  0.7781  0.1667  0.1547
  220MOL0     C29603  -0.420   4.751   6.464 -0.1929 -0.3721 -1.1306
  220MOL0     C29604  -0.484   4.811   6.599  1.0422  0.3976 -0.0457
  220MOL0     C29605  -0.500   4.964   6.595 -0.1295 -0.5779 -0.4475
  220MOL0     C29606  -0.605   5.023   6.490  1.4086 -1.2636  0.3372
  220MOL0     C29607  -0.703   5.131   6.544 -0.2530 -0.9796 -1.4418
  220MOL0     C29608  -0.776   5.197   6.428 -0.2851 -1.2305 -0.3960
  220MOL0     C29609  -0.890   5.289   6.470 -0.4524  1.1635  0.2705
  220MOL0    Cl29610  -0.828   5.455   6.487  0.0367 -0.0326  0.3805
  220MOL0     C29611  -0.007   4.652   6.483 -0.2483  0.4195 -0.3901
  220MOL0     C29612   0.133   4.668   6.496 -0.7205 -0.4549  0.0573
  220MOL0     O29613   0.406   4.650   6.224 -0.1258  0.2986 -0.0866
  220MOL0     C29614   0.588   4.614   6.522 -0.5732 -0.6759  0.6255
  220MOL0     C29615   0.708   4.573   6.570 -0.2901  0.6076 -0.8750
  220MOL0     N29616   0.983   4.714   6.990 -0.8204 -0.1969  0.1136
  220MOL0     N29617   0.935   4.711   7.108  0.5540  0.0969 -0.0063
  220MOL0     C29618   1.000   4.160   8.208  0.1458  0.1875 -0.2696
  220MOL0     C29619   0.955   4.051   8.289 -0.4891 -0.3234 -0.6741
  220MOL0     C29620   0.661   3.734   8.382 -0.5655 -0.2985 -0.4594
  220MOL0     C29621   0.593   3.743   8.508  0.3166  0.6706 -0.0525
  220MOL0     C29622   0.511   3.630   8.555 -0.0173 -0.4793  0.1051
  220MOL0     C29623   0.507   3.504   8.488 -0.0388  0.3840 -0.6885
  220MOL0     O29624   0.430   3.409   8.558 -0.2324 -0.0257  0.5112
  220MOL0     C29625   0.430   3.276   8.506  1.1610 -0.1208 -0.7259
  220MOL0     C29626   0.416   3.175   8.618  0.5802 -0.9648  0.8384
  220MOL0     C29627   0.517   3.209   8.738 -0.6011  1.3365 -0.6229
  220MOL0     C29628   0.595   3.088   8.800 -0.6267 -0.1193 -0.2672
  220MOL0     C29629   0.655   3.116   8.931 -0.1215 -0.5087  0.2988
  220MOL0     C29630   0.680   3.139   9.046  0.2125 -0.5071 -0.3985
  220MOL0     C29631   0.568   3.493   8.368 -0.2222  0.2656  0.1535
  220MOL0     C29632   0.647   3.601   8.327 -0.1387 -0.3630  0.7728
  220MOL0     H29633   0.637   4.161   8.332 -0.8739 -0.5637 -0.1630
  220MOL0     H29634   0.728   4.368   8.217 -0.8849 -0.2631 -2.8689
  220MOL0     H29635   1.143   4.382   8.198 -1.0699 -0.2493 -0.4446
  220MOL0     H29636   1.164   4.340   8.028  1.1689 -1.1914  1.6677
  220MOL0     H29637   1.071   4.618   8.092  0.1144  0.1306  0.2987
  220MOL0     H29638   1.234   4.568   8.046 -0.0762  2.3399 -0.7218
  220MOL0     H29639   0.994   4.590   7.872 -0.4096  0.6246 -4.4123
  220MOL0     H29640   1.155   4.648   7.852  0.6158 -1.4946 -1.5611
  220MOL0     H29641   1.234   4.399   7.815 -0.1938 -0.6985 -0.8059
  220MOL0     H29642   1.056   4.392   7.791 -1.2611  1.5780 -1.5728
  220MOL0     H29643   1.201   4.609   7.639  2.2434 -1.1759 -2.3419
  220MOL0     H29644   1.209   4.432   7.583 -0.5904  3.0337 -4.6559
  220MOL0     H29645   1.007   4.436   7.551 -1.2655 -0.6098  2.3898
  220MOL0     H29646   0.957   4.597   7.622  0.7311  0.0402  0.2522
  220MOL0     H29647   1.065   4.724   7.450 -0.6227  0.1612  1.6512
  220MOL0     H29648   1.184   4.601   7.419 -0.6251 -1.4584  0.8511
  220MOL0     H29649   0.881   4.571   7.346  0.4666 -1.2881  1.1107
  220MOL0     H29650   1.010   4.468   7.298 -3.0682 -0.9072  0.9230
  220MOL0     H29651   1.212   4.539   7.143  1.2989  0.9660 -0.6083
  220MOL0     H29652   1.261   4.678   6.843  0.1153  0.8402  3.2091
  220MOL0     H29653   1.200   4.508   6.852  1.9801  0.2554  0.1906
  220MOL0     H29654   1.044   4.726   6.721 -2.3303 -0.8483 -0.7542
  220MOL0     H29655   0.982   4.563   6.759 -1.1071  1.9561  0.8682
  220MOL0     H29656   1.165   4.452   6.641 -2.8639 -0.1987  0.3330
  220MOL0     H29657   1.240   4.602   6.600  1.5366 -2.9343 -0.0745
  220MOL0     H29658   1.101   4.498   6.415 -3.5159 -0.4472 -2.5920
  220MOL0     H29659   1.045   4.660   6.454  2.6620 -0.4623 -2.6901
  220MOL0     H29660   0.893   4.624   6.286  1.6884 -3.0425  1.9797
  220MOL0     H29661   0.619   4.812   6.200  0.7906  0.0060  4.5101
  220MOL0     H29662   0.789   4.770   6.160  1.2973 -1.2339  4.0572
  220MOL0     H29663   0.658   4.673   6.088  0.3562  0.0714  0.4887
  220MOL0     H29664   0.189   4.865   6.227 -2.2608 -0.9585 -1.5595
  220MOL0     H29665  -0.037   4.847   6.205  2.1953 -0.5120 -2.3240
  220MOL0     H29666  -0.267   4.601   6.511 -3.3810 -0.5595 -0.6008
  220MOL0     H29667  -0.224   4.768   6.557 -0.2524  1.4006 -0.1110
  220MOL0     H29668  -0.424   4.832   6.391 -3.1476  1.9458  1.3268
  220MOL0     H29669  -0.478   4.666   6.425 -1.2390  1.1591 -3.0972
  220MOL0     H29670  -0.425   4.776   6.685 -2.3248 -0.8170  1.9637
  220MOL0     H29671  -0.576   4.754   6.614  2.0744 -1.4237 -0.3217
  220MOL0     H29672  -0.515   5.001   6.696 -0.3591 -2.1836  0.1324
  220MOL0     H29673  -0.398   4.994   6.570 -1.0834  0.7344 -3.1272
  220MOL0     H29674  -0.679   4.943   6.472  0.1006 -0.3220  1.3522
  220MOL0     H29675  -0.552   5.069   6.406  0.0512 -1.8300 -0.8857
  220MOL0     H29676  -0.780   5.082   6.603 -0.4229 -1.0235 -1.6986
  220MOL0     H29677  -0.647   5.201   6.607  0.0145 -2.3388 -0.1068
  220MOL0     H29678  -0.820   5.111   6.376 -2.1450 -1.0221  0.7082
  220MOL0     H29679  -0.714   5.242   6.351 -2.3579  1.2921 -0.7366
  220MOL0     H29680  -0.927   5.262   6.569  0.7952  0.5612  0.5878
  220MOL0     H29681  -0.962   5.281   6.388  1.7648 -3.1807 -1.5818
  220MOL0     H29682  -0.067   4.592   6.550 -2.0149  2.5493  0.0667
  220MOL0     H29683   0.194   4.620   6.571  1.5020 -0.1686 -1.4549
  220MOL0     H29684   0.496   4.609   6.580 -1.1465  1.8630  0.0610
  220MOL0     H29685   0.720   4.519   6.663  1.2650 -0.3018 -1.5690
  220MOL0     H29686   1.100   4.158   8.166 -0.0942  0.5536 -0.8639
  220MOL0     H29687   1.020   3.965   8.304 -0.2619 -0.3593 -1.8183
  220MOL0     H29688   0.611   3.826   8.576  4.0975 -2.2865  2.9792
  220MOL0     H29689   0.456   3.650   8.647  1.6618  2.6500  0.5711
  220MOL0     H29690   0.343   3.264   8.441 -0.0430  3.0733  0.0995
  220MOL0     H29691   0.517   3.252   8.444  1.5184 -4.6952  1.1347
  220MOL0     H29692   0.440   3.072   8.593  1.2473 -0.4576 -0.7243
  220MOL0     H29693   0.316   3.179   8.661 -0.2405  2.1096 -1.0423
  220MOL0     H29694   0.456   3.256   8.815  1.2300  2.9746 -0.1071
  220MOL0     H29695   0.591   3.284   8.711  0.0753  1.6978  1.9463
  220MOL0     H29696   0.670   3.068   8.723  1.9443 -0.2860  2.1066
  220MOL0     H29697   0.527   3.003   8.802 -1.9719  0.8175 -2.3919
  220MOL0     H29698   0.709   3.153   9.148  1.9667 -0.5200 -0.8644
  220MOL0     H29699   0.572   3.401   8.311 -2.3742  1.1717 -1.6238
  220MOL0     H29700   0.701   3.578   8.235 -0.1976  1.8173  0.1386
  221MOL0     O29701   7.430  11.055   8.076  0.0793 -0.1643  0.5528
  221MOL0     C29702   7.405  10.937   8.053 -0.7527  0.2813 -0.0540
  221MOL0     O29703   7.338  10.857   8.137  0.0691  0.5495 -0.1854
  221MOL0     C29704   7.261  10.907   8.237  0.1356 -0.3299  0.0740
  221MOL0     C29705   7.267  10.854   8.365  0.5478 -0.6806 -0.2397
  221MOL0     C29706   7.187  10.903   8.469  1.0867  0.0130  1.1030
  221MOL0     C29707   7.098  11.009   8.445 -0.4840  0.5836  0.1444
  221MOL0     O29708   7.023  11.074   8.534 -0.2758 -0.3721 -0.0341
  221MOL0     C29709   7.026  11.029   8.676 -0.1119  0.1009  0.1890
  221MOL0     C29710   6.954  10.887   8.691 -0.7000 -0.4908  0.4232
  221MOL0     C29711   6.806  10.881   8.689  1.4385  0.2435 -0.0565
  221MOL0     C29712   6.746  10.897   8.547  0.3966  0.4597 -0.6891
  221MOL0     C29713   6.594  10.891   8.521  0.7467  0.1534 -0.4148
  221MOL0     C29714   6.520  10.987   8.618  0.2898 -0.7960 -0.1970
  221MOL0     C29715   6.549  11.133   8.576 -0.5333 -0.8133  0.6506
  221MOL0     C29716   6.483  11.240   8.663  0.2497 -0.1452  0.5197
  221MOL0     N29717   6.341  11.266   8.628 -0.7234  0.2287 -0.6386
  221MOL0     C29718   6.295  11.364   8.542 -0.3664  0.1101 -0.8689
  221MOL0     C29719   6.159  11.348   8.544 -0.1980  0.4144  0.5499
  221MOL0     C29720   6.056  11.430   8.470 -0.4202  0.0942 -0.5147
  221MOL0     C29721   5.930  11.443   8.560 -0.0728  1.4853  0.0420
  221MOL0     C29722   5.829  11.338   8.508  0.6735  0.6059 -0.1020
  221MOL0     C29723   5.695  11.336   8.582 -0.2655  0.1513  0.0382
  221MOL0     O29724   5.655  11.205   8.552  0.1062 -0.3768 -0.2260
  221MOL0     C29725   5.534  11.168   8.595  0.0326 -0.0145  0.8570
  221MOL0     C29726   5.476  11.066   8.529 -0.3316  0.4300  0.2753
  221MOL0     C29727   5.343  11.019   8.550 -1.1186  0.2797  0.7923
  221MOL0     C29728   5.306  10.887   8.485  0.2739  0.2104 -0.8421
  221MOL0     C29729   5.260  11.097   8.633 -0.4966  0.4476 -0.1584
  221MOL0     C29730   5.113  11.057   8.668  0.3362 -0.1878 -0.3898
  221MOL0     O29731   5.081  10.915   8.668 -0.2857 -0.2287  0.1224
  221MOL0     C29732   4.953  10.879   8.686  0.7033  0.2134  0.0659
  221MOL0     C29733   4.853  10.940   8.610 -0.4281 -0.2587  1.4658
  221MOL0     C29734   4.711  10.911   8.631 -0.5106 -0.1054  0.1029
  221MOL0     C29735   4.677  10.801   8.714 -0.3949 -0.7674  0.1975
  221MOL0     O29736   4.550  10.743   8.710 -0.0433 -0.2709  0.6474
  221MOL0     C29737   4.540  10.596   8.693  0.7478 -0.5450 -0.1457
  221MOL0     C29738   4.402  10.556   8.696  0.2868 -0.2524  0.1218
  221MOL0     C29739   4.385  10.401   8.695 -0.0734 -0.7397  0.2286
  221MOL0     C29740   4.237  10.366   8.698  0.6278  0.5400  0.2668
  221MOL0     C29741   4.229  10.211   8.709  0.2103  0.2969 -0.0866
  221MOL0     C29742   4.082  10.172   8.735  0.0322  0.2225  0.0560
  221MOL0     C29743   4.040  10.205   8.876 -0.3260 -0.7304 -0.0288
  221MOL0     C29744   3.897  10.141   8.909 -0.2266 -0.2849 -0.2142
  221MOL0    Cl29745   3.761  10.233   8.825 -0.5874  0.1642  0.2974
  221MOL0     C29746   4.785  10.730   8.778 -0.0389 -0.3653 -0.0797
  221MOL0     C29747   4.921  10.770   8.765 -0.0561  0.1886 -0.5814
  221MOL0     O29748   5.036  11.146   8.704  0.2973  0.2369 -0.5869
  221MOL0     C29749   5.313  11.218   8.701 -0.0654  0.3841 -0.5564
  221MOL0     C29750   5.456  11.240   8.687 -0.1625 -0.3163  0.2470
  221MOL0     N29751   6.132  11.250   8.643  0.7135 -0.4737  0.2444
  221MOL0     N29752   6.244  11.205   8.691  0.0753 -0.1828 -0.2674
  221MOL0     C29753   7.086  11.060   8.318 -0.5023  0.8507 -0.1096
  221MOL0     C29754   7.165  11.007   8.214 -0.1302  0.9439  0.3568
  221MOL0     C29755   7.472  10.882   7.929 -0.1738  0.0785 -0.1909
  221MOL0     C29756   7.560  10.958   7.841  0.8661  0.7720 -0.3645
  221MOL0     C29757   7.635  10.894   7.748  0.5384 -0.4033  0.5498
  221MOL0     C29758   7.644  10.758   7.744 -0.1106 -0.5636 -0.4862
  221MOL0     O29759   7.742  10.708   7.663  0.2360 -0.2689  0.3097
  221MOL0     C29760   7.888  10.736   7.676  0.1406  0.4221  0.1251
  221MOL0     C29761   7.933  10.746   7.826 -0.6425  0.6986 -0.3704
  221MOL0     C29762   8.080  10.730   7.834 -0.5886 -0.9423 -0.5015
  221MOL0     C29763   8.143  10.766   7.973  0.1344  0.2874  0.8782
  221MOL0     C29764   8.116  10.656   8.062  1.0504 -0.3219  0.4759
  221MOL0     C29765   8.100  10.573   8.152 -0.5289  0.3849 -0.2450
  221MOL0     C29766   7.555  10.673   7.815 -0.1469 -0.8297 -0.0581
  221MOL0     C29767   7.474  10.736   7.912  1.8035  0.4197 -0.4841
  221MOL0     H29768   7.336  10.775   8.394  1.8928  1.2014  2.1663
  221MOL0     H29769   7.202  10.867   8.570 -1.6195 -0.4332  1.4320
  221MOL0     H29770   7.126  11.022   8.721  0.7885  3.4768 -0.9194
  221MOL0     H29771   6.974  11.093   8.748  1.5858 -1.0744  2.6041
  221MOL0     H29772   6.995  10.815   8.620  1.0886  1.4118 -0.5838
  221MOL0     H29773   6.986  10.843   8.786  0.8699 -1.9104 -0.7201
  221MOL0     H29774   6.783  10.777   8.714 -0.4973  0.5958 -0.1942
  221MOL0     H29775   6.751  10.950   8.753 -1.4200 -1.6531 -0.2535
  221MOL0     H29776   6.796  10.981   8.499  0.5498  0.6688 -0.1739
  221MOL0     H29777   6.787  10.813   8.490  1.8894  1.4589 -1.1338
  221MOL0     H29778   6.574  10.917   8.417  0.1754 -2.9452 -1.1912
  221MOL0     H29779   6.563  10.789   8.546  3.3870 -0.5826  0.1923
  221MOL0     H29780   6.412  10.968   8.620  0.1469 -0.1211 -1.1535
  221MOL0     H29781   6.539  10.974   8.725  0.3501  0.7057 -0.0029
  221MOL0     H29782   6.655  11.156   8.581 -0.2212 -1.9030 -0.5003
  221MOL0     H29783   6.527  11.143   8.470 -1.0115 -2.3529  0.5706
  221MOL0     H29784   6.531  11.336   8.645  0.9211 -0.7583 -1.2404
  221MOL0     H29785   6.494  11.217   8.770 -2.7262 -1.3934  0.6722
  221MOL0     H29786   6.355  11.429   8.479 -0.2129  0.1484 -0.6846
  221MOL0     H29787   6.097  11.531   8.460 -0.5237  0.2907  0.8058
  221MOL0     H29788   6.041  11.385   8.372  1.7080  0.0646 -0.8746
  221MOL0     H29789   5.880  11.540   8.558 -1.3259  0.8455 -1.0565
  221MOL0     H29790   5.966  11.426   8.662  0.2834  3.5331  0.3047
  221MOL0     H29791   5.877  11.246   8.543 -1.6444 -0.0070  1.6469
  221MOL0     H29792   5.817  11.341   8.399  0.7035  1.7156 -0.0854
  221MOL0     H29793   5.630  11.413   8.539 -0.0116  0.7861  0.7781
  221MOL0     H29794   5.700  11.343   8.691 -0.9040 -3.4223  0.4228
  221MOL0     H29795   5.533  11.015   8.452 -0.0503  0.9304  0.1455
  221MOL0     H29796   5.373  10.847   8.408 -1.1514 -5.4443  0.3974
  221MOL0     H29797   5.284  10.811   8.560  2.0560  1.0700  0.6234
  221MOL0     H29798   5.214  10.906   8.429 -0.1206  1.2025  0.1229
  221MOL0     H29799   4.873  11.017   8.536  0.5300 -1.8732 -0.0507
  221MOL0     H29800   4.624  10.954   8.582  1.5075  0.9942 -2.7049
  221MOL0     H29801   4.594  10.570   8.601  2.5575  0.7162  0.4882
  221MOL0     H29802   4.593  10.535   8.767  2.1299 -1.4713 -1.8086
  221MOL0     H29803   4.356  10.596   8.787  1.5389 -0.9102  1.0679
  221MOL0     H29804   4.350  10.615   8.619 -2.6901 -1.8244  0.7816
  221MOL0     H29805   4.428  10.371   8.792 -1.2979  4.1995  2.6399
  221MOL0     H29806   4.440  10.353   8.614  0.8811  1.7410 -0.6938
  221MOL0     H29807   4.197  10.427   8.780  4.5856  0.3233  2.6336
  221MOL0     H29808   4.189  10.399   8.606 -0.7432  0.2912  0.8775
  221MOL0     H29809   4.293  10.181   8.793  4.2777  2.7252 -2.0306
  221MOL0     H29810   4.275  10.174   8.617  2.0892  2.8498 -0.2659
  221MOL0     H29811   4.016  10.224   8.666  0.4135 -0.4645 -0.8427
  221MOL0     H29812   4.055  10.067   8.715  1.5098 -0.2562  0.4986
  221MOL0     H29813   4.041  10.314   8.885 -3.1522 -0.6117 -0.4244
  221MOL0     H29814   4.117  10.168   8.944 -2.0836 -0.9202  1.9468
  221MOL0     H29815   3.888  10.159   9.017 -2.0301  3.0016 -0.7831
  221MOL0     H29816   3.896  10.033   8.895 -0.8911 -0.6663  2.2157
  221MOL0     H29817   4.758  10.634   8.820  1.0846 -0.3797  0.6304
  221MOL0     H29818   4.994  10.725   8.831 -0.3904 -1.1316 -1.0853
  221MOL0     H29819   5.252  11.279   8.767  1.1892  0.8350  0.2184
  221MOL0     H29820   5.507  11.324   8.733  0.3834 -0.4467 -0.1127
  221MOL0     H29821   7.022  11.147   8.310 -0.5500  0.8746  0.5209
  221MOL0     H29822   7.171  11.052   8.116  1.8356 -1.0326 -0.5092
  221MOL0     H29823   7.572  11.065   7.846 -0.8866  0.9535  1.4678
  221MOL0     H29824   7.712  10.941   7.688  0.8766 -1.3938  0.1927
  221MOL0     H29825   7.946  10.659   7.625 -1.7739 -1.6009  0.8166
  221MOL0     H29826   7.907  10.831   7.626  1.4937  0.7842  1.2570
  221MOL0     H29827   7.893  10.667   7.891 -1.3178  0.6945 -0.7833
  221MOL0     H29828   7.907  10.843   7.868 -0.0639  0.9945 -0.6868
  221MOL0     H29829   8.136  10.789   7.760  3.6138 -3.0568  0.6561
  221MOL0     H29830   8.110  10.627   7.810  5.1788  0.2229  0.2849
  221MOL0     H29831   8.096  10.858   8.008  0.7142  0.6133  0.7965
  221MOL0     H29832   8.251  10.783   7.966 -0.1807  2.1962  0.0879
  221MOL0     H29833   8.100  10.512   8.240  2.4895  0.4915 -0.0601
  221MOL0     H29834   7.573  10.566   7.812 -0.1059 -0.8270 -3.4353
  221MOL0     H29835   7.427  10.658   7.971 -0.8640 -1.2017 -4.2631
  222MOL0     O29836   0.297   3.518  10.501 -1.0433 -0.5582  1.0564
  222MOL0     C29837   0.283   3.448  10.601 -0.8028 -0.6162  0.6701
  222MOL0     O29838   0.380   3.429  10.696 -0.9457 -0.1095  0.5618
  222MOL0     C29839   0.495   3.504  10.696 -0.9705  0.0965 -0.5298
  222MOL0     C29840   0.612   3.430  10.699 -0.1745  0.1361 -0.7191
  222MOL0     C29841   0.734   3.487  10.736 -1.0706 -0.1622  0.3395
  222MOL0     C29842   0.749   3.620  10.767  0.5704 -0.0768  0.7058
  222MOL0     O29843   0.871   3.672  10.794 -0.3262 -0.5157 -0.6209
  222MOL0     C29844   0.891   3.768  10.900 -0.5094  0.7214  0.1822
  222MOL0     C29845   0.975   3.705  11.014 -0.9161 -0.2479 -0.5086
  222MOL0     C29846   1.125   3.664  10.988  0.2935 -0.2606 -0.1179
  222MOL0     C29847   1.223   3.785  10.960  0.5025 -0.6225  0.5066
  222MOL0     C29848   1.291   3.825  11.090 -1.0280  0.2085  0.7699
  222MOL0     C29849   1.424   3.912  11.078  0.2541 -0.0163  0.0771
  222MOL0     C29850   1.482   3.968  11.207  0.2755 -0.0097  0.1197
  222MOL0     C29851   1.384   4.062  11.273 -0.3578 -1.4690  0.2115
  222MOL0     N29852   1.460   4.167  11.341  0.4388 -0.7910  0.5201
  222MOL0     C29853   1.506   4.161  11.471  0.3937 -0.4061  0.1330
  222MOL0     C29854   1.566   4.284  11.496  1.0198  0.1791  0.6655
  222MOL0     C29855   1.626   4.316  11.623 -0.0107  0.2252 -0.3212
  222MOL0     C29856   1.527   4.318  11.741 -0.2893  0.4707  0.2139
  222MOL0     C29857   1.596   4.318  11.883 -0.0671  0.0963 -0.1643
  222MOL0     C29858   1.716   4.414  11.899 -0.3093  0.1421 -0.7478
  222MOL0     O29859   1.652   4.542  11.931 -0.1940  0.5712  0.0941
  222MOL0     C29860   1.623   4.586  12.059 -0.0020  0.4348 -0.9679
  222MOL0     C29861   1.595   4.503  12.172  0.3475 -0.0020 -0.4331
  222MOL0     C29862   1.566   4.563  12.293 -0.3600  0.1637  0.9776
  222MOL0     C29863   1.512   4.475  12.401  0.4552 -0.3234 -0.2467
  222MOL0     C29864   1.560   4.708  12.302 -0.6691  0.3430 -1.2683
  222MOL0     C29865   1.533   4.766  12.435 -0.5669 -0.6199 -0.3542
  222MOL0     O29866   1.438   4.862  12.446 -0.3201 -0.1463 -0.0820
  222MOL0     C29867   1.390   4.879  12.571 -0.8005 -0.0186 -0.4257
  222MOL0     C29868   1.266   4.830  12.611  0.3353  0.0938 -0.0707
  222MOL0     C29869   1.210   4.827  12.739 -0.1750 -1.0124 -0.7693
  222MOL0     C29870   1.282   4.897  12.840  0.2590 -0.2443 -0.1141
  222MOL0     O29871   1.232   4.887  12.972  0.0937  0.6215  0.8402
  222MOL0     C29872   1.278   4.963  13.085  0.3243 -0.5754  0.5498
  222MOL0     C29873   1.253   4.877  13.212  0.5874 -0.6271  0.3358
  222MOL0     C29874   1.353   4.760  13.226 -0.7100  0.0242 -0.2251
  222MOL0     C29875   1.446   4.776  13.341  0.1866 -0.2438  0.1198
  222MOL0     C29876   1.557   4.873  13.319  0.2599 -0.4555 -0.4527
  222MOL0     C29877   1.669   4.886  13.428  0.2564  0.1990  0.6872
  222MOL0     C29878   1.760   5.002  13.388 -0.0554  0.5986 -0.0312
  222MOL0     C29879   1.886   4.942  13.319  0.0359 -0.2509  0.7833
  222MOL0    Cl29880   1.964   4.843  13.448  0.2237  0.0539  0.1220
  222MOL0     C29881   1.400   4.960  12.812  0.1730  0.5966  0.4654
  222MOL0     C29882   1.453   4.946  12.682 -0.2156  0.0055  0.0532
  222MOL0     O29883   1.612   4.729  12.523 -0.3549 -1.5717 -0.8536
  222MOL0     C29884   1.578   4.785  12.189 -0.6653 -0.1087 -0.6615
  222MOL0     C29885   1.611   4.724  12.070 -0.0508  0.0012 -0.5147
  222MOL0     N29886   1.554   4.372  11.381  0.1593  0.4376  0.0892
  222MOL0     N29887   1.495   4.296  11.296 -1.0292  0.2366  0.3405
  222MOL0     C29888   0.626   3.691  10.777  0.2860  0.7957 -0.1273
  222MOL0     C29889   0.504   3.634  10.735 -0.2208 -0.5915  0.9708
  222MOL0     C29890   0.159   3.372  10.605  0.4321  0.9607  0.1220
  222MOL0     C29891   0.126   3.287  10.714 -0.8565 -0.3272 -0.1649
  222MOL0     C29892   0.000   3.234  10.724  0.4660 -0.3242 -0.0446
  222MOL0     C29893  -0.091   3.245  10.619 -1.2407  0.6017 -0.3217
  222MOL0     O29894  -0.220   3.210  10.658 -0.1881 -0.3211  0.0323
  222MOL0     C29895  -0.329   3.219  10.564  0.0689 -0.4181  0.2714
  222MOL0     C29896  -0.456   3.161  10.624 -0.0060  0.7278  0.2191
  222MOL0     C29897  -0.511   3.239  10.748  0.0228 -0.7921  0.3293
  222MOL0     C29898  -0.602   3.361  10.718  0.2659 -0.1241  0.0287
  222MOL0     C29899  -0.600   3.448  10.842 -0.7577 -0.4804  0.8080
  222MOL0     C29900  -0.605   3.514  10.940 -0.4988 -0.7975  0.4892
  222MOL0     C29901  -0.051   3.309  10.495  0.1013 -0.7552 -0.9104
  222MOL0     C29902   0.074   3.376  10.495  0.6151 -0.4608  0.9702
  222MOL0     H29903   0.612   3.323  10.679  0.6885  0.2483 -1.4371
  222MOL0     H29904   0.817   3.417  10.735  0.2630  1.3335  0.9060
  222MOL0     H29905   0.935   3.861  10.863 -5.2529  3.3743  0.4376
  222MOL0     H29906   0.799   3.798  10.950 -0.1665  2.2426 -0.0679
  222MOL0     H29907   0.971   3.765  11.105 -0.1934  0.2929 -0.8279
  222MOL0     H29908   0.911   3.618  11.033 -1.1714  0.2385  1.0581
  222MOL0     H29909   1.169   3.612  11.073 -1.2455 -0.8398  0.3645
  222MOL0     H29910   1.113   3.596  10.902 -0.7424  0.4283 -0.5352
  222MOL0     H29911   1.305   3.747  10.899  1.4746  1.8973  0.1211
  222MOL0     H29912   1.180   3.868  10.903  1.9410  0.1544  0.5066
  222MOL0     H29913   1.215   3.865  11.158 -1.0287  1.0931  0.2645
  222MOL0     H29914   1.321   3.730  11.136  1.0280  0.6958  0.4954
  222MOL0     H29915   1.506   3.859  11.030  1.1205  1.2688  0.0692
  222MOL0     H29916   1.396   4.000  11.019 -0.5788 -0.3765 -0.0750
  222MOL0     H29917   1.487   3.874  11.263 -0.8316 -1.6298 -2.3079
  222MOL0     H29918   1.580   4.013  11.186  1.0555 -0.1155  3.1130
  222MOL0     H29919   1.325   4.012  11.350 -0.8667 -3.8047 -1.5774
  222MOL0     H29920   1.315   4.095  11.195 -0.5367 -0.5015  0.7721
  222MOL0     H29921   1.494   4.075  11.536  0.3880 -1.9294 -1.7711
  222MOL0     H29922   1.715   4.257  11.650  1.6304  3.1651  1.2967
  222MOL0     H29923   1.673   4.414  11.610  0.4627 -0.0967 -1.0861
  222MOL0     H29924   1.457   4.234  11.735 -0.0605  0.3963 -3.0404
  222MOL0     H29925   1.460   4.401  11.719 -1.3175 -1.2850 -4.2920
  222MOL0     H29926   1.625   4.217  11.915 -1.5946  0.4716  2.6437
  222MOL0     H29927   1.509   4.348  11.941  0.1052  4.3075 -1.7335
  222MOL0     H29928   1.776   4.424  11.808  0.1031  0.2403 -0.4694
  222MOL0     H29929   1.780   4.380  11.980  1.9538  1.5357 -1.8397
  222MOL0     H29930   1.604   4.396  12.159 -0.0323  0.1042 -1.6833
  222MOL0     H29931   1.456   4.396  12.350 -0.8458 -1.5057  2.7731
  222MOL0     H29932   1.590   4.421  12.455 -0.7505 -2.5083 -0.5320
  222MOL0     H29933   1.449   4.522  12.478 -0.0945 -0.9908 -0.2735
  222MOL0     H29934   1.212   4.779  12.532  1.8126 -1.9512  0.1542
  222MOL0     H29935   1.118   4.773  12.762  0.1230 -0.7841  1.1380
  222MOL0     H29936   1.385   4.987  13.079  0.2803 -0.3542  0.6208
  222MOL0     H29937   1.229   5.059  13.104 -1.1003 -1.5951  2.3075
  222MOL0     H29938   1.249   4.934  13.305 -0.1085  1.4073 -0.8822
  222MOL0     H29939   1.151   4.837  13.219  0.7168 -0.7522  1.7311
  222MOL0     H29940   1.409   4.752  13.132 -1.8966 -1.6773 -0.8479
  222MOL0     H29941   1.288   4.673  13.236 -1.1814  0.6248  2.7531
  222MOL0     H29942   1.390   4.810  13.429  0.2769 -0.2205  0.1692
  222MOL0     H29943   1.484   4.676  13.365  2.2420 -0.1741 -2.4184
  222MOL0     H29944   1.512   4.973  13.311  1.6786  0.2354 -0.1579
  222MOL0     H29945   1.604   4.847  13.223  1.2751 -0.8132  0.1210
  222MOL0     H29946   1.622   4.919  13.521 -2.0656  1.9399 -0.9831
  222MOL0     H29947   1.717   4.789  13.447 -0.5868 -1.0503 -2.8192
  222MOL0     H29948   1.781   5.054  13.482  1.8860 -2.5545  1.4301
  222MOL0     H29949   1.711   5.074  13.321  4.3373  2.2978 -1.8672
  222MOL0     H29950   1.963   5.017  13.298 -1.0158  1.3547  2.3354
  222MOL0     H29951   1.842   4.890  13.233 -1.0816 -0.4460  1.4591
  222MOL0     H29952   1.450   5.018  12.889 -0.8748  0.1401  1.5179
  222MOL0     H29953   1.558   4.965  12.663 -0.0404  0.2225  1.1441
  222MOL0     H29954   1.563   4.892  12.197  1.6683  0.2207  0.2668
  222MOL0     H29955   1.623   4.790  11.984 -0.4425  1.0131  0.1793
  222MOL0     H29956   0.630   3.797  10.801  1.9516  0.7227 -0.0053
  222MOL0     H29957   0.407   3.677  10.756  0.3530  0.0243  2.4833
  222MOL0     H29958   0.193   3.265  10.797 -0.1554 -0.0112 -0.6350
  222MOL0     H29959  -0.026   3.177  10.813  0.3832  0.0664  0.1833
  222MOL0     H29960  -0.347   3.323  10.535  1.8127 -0.5269 -1.4261
  222MOL0     H29961  -0.314   3.156  10.475  1.7297  0.4955 -0.1241
  222MOL0     H29962  -0.435   3.058  10.655  1.3985  0.5437 -1.2486
  222MOL0     H29963  -0.533   3.152  10.547  0.6577  0.1811 -0.3915
  222MOL0     H29964  -0.418   3.275  10.792  0.7411 -1.9438 -0.2141
  222MOL0     H29965  -0.564   3.181  10.825 -0.4507 -0.6344  0.1235
  222MOL0     H29966  -0.704   3.326  10.699 -0.4318  0.3932  2.4602
  222MOL0     H29967  -0.569   3.411  10.627 -1.2092  1.4107  0.2680
  222MOL0     H29968  -0.618   3.591  11.013 -0.0758  0.5271 -0.7892
  222MOL0     H29969  -0.126   3.316  10.417 -1.0212 -1.0269  0.1306
  222MOL0     H29970   0.106   3.431  10.407 -1.5613 -1.4870 -0.5327
  223MOL0     O29971  10.718   8.653   7.572  0.8603 -0.1903  0.0199
  223MOL0     C29972  10.658   8.674   7.468  0.4976  0.3316  1.0209
  223MOL0     O29973  10.521   8.655   7.437 -0.0829 -0.8889 -0.3406
  223MOL0     C29974  10.434   8.665   7.545 -0.5066 -0.3587  0.2173
  223MOL0     C29975  10.310   8.595   7.539  0.4160  0.2806 -0.3042
  223MOL0     C29976  10.220   8.596   7.645  0.2527  0.0009 -0.2312
  223MOL0     C29977  10.253   8.660   7.768 -0.4724  0.3651  0.6527
  223MOL0     O29978  10.175   8.647   7.873 -0.3379  0.3298 -0.7286
  223MOL0     C29979  10.056   8.567   7.860  0.1988 -0.4884 -0.4919
  223MOL0     C29980   9.950   8.586   7.969  0.2461  0.7285 -0.6741
  223MOL0     C29981   9.857   8.471   7.985  1.4425  0.2416  0.1113
  223MOL0     C29982   9.839   8.435   8.134 -0.1338 -0.0895  0.0906
  223MOL0     C29983   9.752   8.308   8.143 -0.3015  0.7143  0.4829
  223MOL0     C29984   9.718   8.291   8.289  0.1694  0.3266  0.8962
  223MOL0     C29985   9.606   8.391   8.321 -0.7273 -0.0685 -0.0543
  223MOL0     C29986   9.498   8.349   8.409  1.1700 -0.6428  0.1330
  223MOL0     N29987   9.544   8.314   8.540  0.3005  0.4217 -0.2626
  223MOL0     C29988   9.648   8.348   8.616  0.0857  0.1018 -0.9958
  223MOL0     C29989   9.637   8.282   8.732  0.3037  0.1811 -0.2853
  223MOL0     C29990   9.730   8.285   8.838  0.8139 -0.2851  0.5387
  223MOL0     C29991   9.872   8.275   8.788  0.1853 -0.2157  0.8868
  223MOL0     C29992   9.899   8.140   8.723 -0.2920  0.3163 -0.2681
  223MOL0     C29993  10.037   8.147   8.652 -0.0592  0.1532  0.0505
  223MOL0     O29994  10.033   8.195   8.517  0.9808 -0.5899 -0.1379
  223MOL0     C29995  10.128   8.288   8.476 -0.0274  1.0252 -0.3137
  223MOL0     C29996  10.088   8.413   8.437  0.3591  0.0297  0.1666
  223MOL0     C29997  10.180   8.502   8.389 -0.5591 -0.8494  0.2219
  223MOL0     C29998  10.114   8.627   8.345  0.6349  0.4105 -0.6682
  223MOL0     C29999  10.319   8.470   8.382 -1.6822 -0.4465 -0.4068
  223MOL0     C30000  10.435   8.553   8.330  0.2365 -0.4905 -0.1261
  223MOL0     O30001  10.559   8.520   8.367  0.6770 -0.1498 -0.4103
  223MOL0     C30002  10.664   8.594   8.335  0.0163 -0.2115 -0.2249
  223MOL0     C30003  10.672   8.736   8.340 -0.1926  0.1593 -0.3570
  223MOL0     C30004  10.796   8.798   8.309 -0.2230 -0.2421 -0.1601
  223MOL0     C30005  10.910   8.728   8.269  0.2982  0.2163  0.0580
  223MOL0     O30006  11.019   8.801   8.229 -1.1551  0.2020  0.9213
  223MOL0     C30007  11.147   8.733   8.207 -0.1212  0.4658 -0.2839
  223MOL0     C30008  11.269   8.828   8.198  0.5411  0.4258 -0.4891
  223MOL0     C30009  11.390   8.767   8.136 -0.1415  1.0102  0.0200
  223MOL0     C30010  11.512   8.860   8.152  0.3591  0.9058  0.1361
  223MOL0     C30011  11.640   8.791   8.106  0.2396  0.4589  1.0971
  223MOL0     C30012  11.639   8.708   7.977  0.7400 -0.2422  0.2221
  223MOL0     C30013  11.605   8.770   7.848  0.1292  0.3582 -1.0549
  223MOL0     C30014  11.717   8.848   7.786 -0.3254  0.8400 -0.1616
  223MOL0    Cl30015  11.659   8.953   7.653 -0.0029 -0.0115  0.1544
  223MOL0     C30016  10.900   8.593   8.262 -0.5750  0.1000  0.2171
  223MOL0     C30017  10.778   8.528   8.294 -0.3799 -0.0766 -0.7926
  223MOL0     O30018  10.410   8.645   8.254  0.2385 -0.5211  0.3487
  223MOL0     C30019  10.351   8.346   8.422 -0.1537 -0.1493  0.1440
  223MOL0     C30020  10.263   8.261   8.476  0.0835 -0.5041  0.8510
  223MOL0     N30021   9.521   8.206   8.727  0.0362 -0.5135  0.1589
  223MOL0     N30022   9.477   8.222   8.603 -0.1110 -0.1481 -0.3550
  223MOL0     C30023  10.357   8.754   7.762 -0.5342  1.0721 -0.1393
  223MOL0     C30024  10.457   8.749   7.658  0.7576 -0.4798  0.5691
  223MOL0     C30025  10.741   8.736   7.366  0.3087  0.1893  0.2115
  223MOL0     C30026  10.685   8.827   7.275  0.7869  0.5597  0.7582
  223MOL0     C30027  10.771   8.909   7.196 -0.0977  0.4520 -0.4184
  223MOL0     C30028  10.912   8.906   7.204  0.4891 -0.4694 -0.1907
  223MOL0     O30029  10.986   9.000   7.136 -0.4116 -0.2001  0.7593
  223MOL0     C30030  11.118   9.038   7.173 -0.4583  0.2544 -0.1193
  223MOL0     C30031  11.162   9.159   7.087 -0.5133  0.0176 -0.0474
  223MOL0     C30032  11.213   9.110   6.950  0.1208 -0.5646 -0.4469
  223MOL0     C30033  11.319   9.206   6.887 -0.5709  0.3609 -0.5610
  223MOL0     C30034  11.272   9.342   6.875 -0.1695 -0.5116 -0.4401
  223MOL0     C30035  11.218   9.453   6.860  0.2508 -0.7123  0.2490
  223MOL0     C30036  10.954   8.807   7.294 -0.2328  0.2557 -0.2105
  223MOL0     C30037  10.878   8.725   7.370  0.1041 -0.6110  0.2437
  223MOL0     H30038  10.295   8.545   7.443  1.0333  0.0854 -0.3032
  223MOL0     H30039  10.135   8.530   7.629  2.1705 -1.8934 -4.0877
  223MOL0     H30040  10.007   8.594   7.765  1.4783  0.1677 -0.9890
  223MOL0     H30041  10.096   8.466   7.873  1.7270  0.4164  2.6208
  223MOL0     H30042  10.001   8.597   8.065  2.0781 -1.2101 -1.3466
  223MOL0     H30043   9.896   8.680   7.954 -0.2544  0.6542  0.5698
  223MOL0     H30044   9.758   8.499   7.948 -0.4064  3.3053  6.0494
  223MOL0     H30045   9.900   8.382   7.937 -0.1877  0.6140 -2.1754
  223MOL0     H30046   9.939   8.424   8.178 -0.0370 -2.8637 -0.6456
  223MOL0     H30047   9.796   8.520   8.187  0.2326 -0.0806  0.3805
  223MOL0     H30048   9.662   8.319   8.082 -0.4836  4.1221  1.2034
  223MOL0     H30049   9.811   8.224   8.105  0.4053  2.0176 -1.4424
  223MOL0     H30050   9.688   8.190   8.316  3.8172 -1.1601 -0.0238
  223MOL0     H30051   9.810   8.317   8.343  1.1394  4.3190 -2.1572
  223MOL0     H30052   9.661   8.478   8.359 -0.2112  0.5707 -2.1005
  223MOL0     H30053   9.558   8.430   8.231  0.2054 -2.8607 -1.8847
  223MOL0     H30054   9.455   8.259   8.365 -0.5296 -0.3040  1.0191
  223MOL0     H30055   9.419   8.424   8.408  1.0607 -0.7695 -0.8265
  223MOL0     H30056   9.725   8.422   8.600 -1.1352  1.9904  1.2451
  223MOL0     H30057   9.720   8.374   8.901  1.5272 -0.9438  1.6161
  223MOL0     H30058   9.713   8.195   8.898  2.3398  0.6407  2.4927
  223MOL0     H30059   9.936   8.288   8.876  1.1029  3.6321 -0.1780
  223MOL0     H30060   9.890   8.358   8.720  1.8473 -0.4184  1.0480
  223MOL0     H30061   9.826   8.108   8.649  0.3483 -3.3211  0.4940
  223MOL0     H30062   9.896   8.054   8.791  0.8890  1.0560  0.7886
  223MOL0     H30063  10.062   8.041   8.644 -2.6363 -0.6240  1.1092
  223MOL0     H30064  10.109   8.200   8.715  0.8210  0.1243 -0.9105
  223MOL0     H30065   9.982   8.437   8.440  0.4429  0.3589  0.4528
  223MOL0     H30066  10.012   8.626   8.384  0.3243 -1.1039 -1.4636
  223MOL0     H30067  10.167   8.712   8.389  0.8164 -0.2231  0.3644
  223MOL0     H30068  10.123   8.622   8.236  3.8212  0.0931 -0.5024
  223MOL0     H30069  10.593   8.796   8.383  0.7512  0.2143  1.4077
  223MOL0     H30070  10.826   8.901   8.318  0.5021 -0.2766 -1.8143
  223MOL0     H30071  11.172   8.656   8.280 -0.0628 -1.5755 -2.3741
  223MOL0     H30072  11.152   8.673   8.116  0.7274  0.5613 -0.3075
  223MOL0     H30073  11.233   8.903   8.126  3.5482  1.1060 -1.4111
  223MOL0     H30074  11.284   8.884   8.291 -3.2368  0.1970  0.4280
  223MOL0     H30075  11.364   8.761   8.030  0.5573 -0.0961 -0.0974
  223MOL0     H30076  11.418   8.670   8.177  0.6913  0.7415 -1.1595
  223MOL0     H30077  11.487   8.955   8.103 -0.7270  1.1999  1.2180
  223MOL0     H30078  11.525   8.898   8.254  1.4873  0.1177  0.3055
  223MOL0     H30079  11.655   8.712   8.181 -0.5856 -2.4234 -1.5376
  223MOL0     H30080  11.727   8.857   8.106  2.9686 -2.8404 -1.1343
  223MOL0     H30081  11.737   8.660   7.964  0.4073 -0.9445  0.2866
  223MOL0     H30082  11.564   8.629   7.985 -1.0115  1.1519 -1.5389
  223MOL0     H30083  11.520   8.837   7.866  0.6105  0.3332  1.9002
  223MOL0     H30084  11.591   8.681   7.786 -2.0925 -0.1250  0.0164
  223MOL0     H30085  11.780   8.767   7.749 -1.4915 -0.3687  0.4097
  223MOL0     H30086  11.775   8.907   7.857  1.7594 -0.9737 -0.2669
  223MOL0     H30087  10.982   8.528   8.235 -0.6902 -0.5208  1.2660
  223MOL0     H30088  10.773   8.420   8.285 -1.6786  0.0182 -1.4554
  223MOL0     H30089  10.452   8.309   8.407 -0.5572 -1.6914  0.9776
  223MOL0     H30090  10.289   8.157   8.491 -0.7544 -1.4782 -3.0627
  223MOL0     H30091  10.362   8.804   7.858 -0.0485 -1.2325  1.1203
  223MOL0     H30092  10.534   8.825   7.669 -0.8618  1.2595  0.4213
  223MOL0     H30093  10.578   8.837   7.255 -0.1151 -1.8996  3.5588
  223MOL0     H30094  10.735   8.988   7.129 -0.2837  1.2744  0.6226
  223MOL0     H30095  11.127   9.065   7.278  1.1110  1.0266 -0.4165
  223MOL0     H30096  11.187   8.955   7.155 -0.8859 -0.0722 -0.2426
  223MOL0     H30097  11.249   9.209   7.131 -1.4782  1.4655  0.2679
  223MOL0     H30098  11.098   9.247   7.077  1.4466  1.6478  1.0369
  223MOL0     H30099  11.133   9.094   6.878 -0.4208  3.8349 -1.0689
  223MOL0     H30100  11.267   9.018   6.975  2.2060  0.5416 -0.6416
  223MOL0     H30101  11.355   9.167   6.792  0.1767  2.2153 -1.0859
  223MOL0     H30102  11.408   9.213   6.950 -0.6094 -0.2599 -0.4305
  223MOL0     H30103  11.188   9.552   6.833  0.4280 -1.1341 -1.6139
  223MOL0     H30104  11.059   8.786   7.311  0.4811  2.8743 -0.9650
  223MOL0     H30105  10.919   8.655   7.441 -0.0711 -0.0430  0.9172
  224MOL0     O30106   9.746   5.513   8.916 -0.3276 -0.0616 -0.0090
  224MOL0     C30107   9.854   5.449   8.888 -0.4331 -0.0589 -0.3810
  224MOL0     O30108   9.868   5.346   8.787 -0.1776 -0.1451 -0.0799
  224MOL0     C30109   9.754   5.304   8.730 -0.3915 -0.3261  0.4090
  224MOL0     C30110   9.726   5.320   8.599 -0.7568  0.5975 -0.1735
  224MOL0     C30111   9.612   5.263   8.539  0.3881 -0.4324 -0.2331
  224MOL0     C30112   9.526   5.177   8.617  0.2003  0.0127  0.7674
  224MOL0     O30113   9.425   5.101   8.560 -0.4158 -0.0736 -0.2697
  224MOL0     C30114   9.352   5.148   8.450 -0.0715 -1.1868  0.1416
  224MOL0     C30115   9.223   5.072   8.452 -0.5263  0.1965  0.1715
  224MOL0     C30116   9.165   5.074   8.313 -0.6605  0.2302  0.9234
  224MOL0     C30117   9.041   4.988   8.291 -0.1486 -0.5900 -0.1503
  224MOL0     C30118   8.923   5.025   8.392  0.1367 -0.6188  0.7296
  224MOL0     C30119   8.791   4.967   8.350  0.5173  0.3360 -0.2007
  224MOL0     C30120   8.732   5.040   8.233 -0.1776 -0.0695  0.7540
  224MOL0     C30121   8.620   4.957   8.190 -0.3354  0.5169 -0.5083
  224MOL0     N30122   8.515   5.033   8.127  0.5035 -0.7132 -0.4232
  224MOL0     C30123   8.399   4.989   8.064 -0.3792  0.3038 -0.8702
  224MOL0     C30124   8.320   5.105   8.043  0.1387 -0.2339 -0.2143
  224MOL0     C30125   8.199   5.107   7.957 -0.4840  0.8117  0.1239
  224MOL0     C30126   8.055   5.112   8.019  0.4919 -0.1991  0.1944
  224MOL0     C30127   8.002   4.973   8.045  0.5708  0.8769 -0.4600
  224MOL0     C30128   7.867   4.971   8.123  0.2382  0.1490 -0.8923
  224MOL0     O30129   7.757   5.029   8.046 -0.7180  0.3245  0.3744
  224MOL0     C30130   7.631   5.013   8.104 -1.2374  0.7241 -0.4360
  224MOL0     C30131   7.516   4.983   8.016  0.0069 -0.6670 -0.1324
  224MOL0     C30132   7.398   4.941   8.065 -0.3419 -0.5060  0.1801
  224MOL0     C30133   7.305   4.893   7.960  0.7644  0.5929 -0.9678
  224MOL0     C30134   7.372   4.947   8.201 -0.1127 -0.1163  0.3026
  224MOL0     C30135   7.240   4.920   8.257 -0.9052 -0.5702  0.7234
  224MOL0     O30136   7.155   4.825   8.207 -0.0114  0.1667 -0.8509
  224MOL0     C30137   7.034   4.810   8.266 -0.2538 -0.0454 -0.5585
  224MOL0     C30138   6.935   4.911   8.290  0.6569  0.5509  0.8200
  224MOL0     C30139   6.809   4.879   8.341  0.2623  0.6965 -0.3804
  224MOL0     C30140   6.774   4.746   8.363 -0.4982  0.3855  0.1870
  224MOL0     O30141   6.643   4.708   8.392  0.4229 -0.7410 -0.3502
  224MOL0     C30142   6.597   4.574   8.378  0.6563  0.9610  0.3710
  224MOL0     C30143   6.476   4.532   8.475 -0.8268 -0.4087 -0.7135
  224MOL0     C30144   6.351   4.604   8.459  0.2889 -0.6379 -0.0670
  224MOL0     C30145   6.238   4.537   8.533  0.5156  0.2029 -0.1891
  224MOL0     C30146   6.114   4.638   8.542 -0.6509  1.3861  0.1044
  224MOL0     C30147   6.026   4.580   8.664  0.2621 -0.3832 -0.5392
  224MOL0     C30148   5.891   4.655   8.663 -0.4405  0.1891  0.1419
  224MOL0     C30149   5.805   4.592   8.769  0.3904 -0.0957  0.1598
  224MOL0    Cl30150   5.717   4.445   8.702  0.5939  0.0262  0.2916
  224MOL0     C30151   6.871   4.650   8.334 -0.1665  0.2406  0.2578
  224MOL0     C30152   6.994   4.681   8.287  0.1996 -0.2528  0.6139
  224MOL0     O30153   7.216   4.994   8.349  0.3169  0.2073 -0.7984
  224MOL0     C30154   7.478   4.974   8.287  0.0320 -0.3099 -0.4404
  224MOL0     C30155   7.605   5.001   8.243 -0.2583  0.5629 -0.1174
  224MOL0     N30156   8.395   5.216   8.088 -0.7658 -0.5862  0.7406
  224MOL0     N30157   8.504   5.170   8.141 -0.7509 -0.1950  0.5646
  224MOL0     C30158   9.557   5.156   8.750 -0.0275 -0.2684 -0.3511
  224MOL0     C30159   9.675   5.222   8.801  0.0475 -0.4024  0.2909
  224MOL0     C30160   9.978   5.485   8.967 -0.0837  0.3850  0.6171
  224MOL0     C30161  10.103   5.431   8.948  0.9098 -0.0503 -0.4492
  224MOL0     C30162  10.211   5.478   9.026  0.3573 -1.4389  0.0525
  224MOL0     C30163  10.199   5.588   9.115 -0.1575  0.9959  0.3507
  224MOL0     O30164  10.304   5.617   9.193 -0.3154  0.6367  0.8267
  224MOL0     C30165  10.315   5.751   9.251  0.8796  0.1309  0.5185
  224MOL0     C30166  10.464   5.790   9.260 -0.5998 -0.0753 -1.0303
  224MOL0     C30167  10.526   5.784   9.116 -0.4938  0.2896 -0.8544
  224MOL0     C30168  10.662   5.834   9.128 -0.5642 -0.7644  0.2780
  224MOL0     C30169  10.742   5.790   9.008 -0.3672  0.6241 -0.6329
  224MOL0     C30170  10.808   5.767   8.911 -1.1619 -0.2380  0.1204
  224MOL0     C30171  10.067   5.644   9.127 -0.1443  0.2843  0.0120
  224MOL0     C30172   9.962   5.590   9.061 -0.2752 -0.1780  0.7137
  224MOL0     H30173   9.795   5.376   8.538 -0.0138  1.3385  1.2857
  224MOL0     H30174   9.594   5.289   8.435 -1.1500  3.8675  0.8691
  224MOL0     H30175   9.332   5.255   8.450  0.2582 -1.1152  1.0475
  224MOL0     H30176   9.400   5.129   8.353  1.5668  0.7751  0.5096
  224MOL0     H30177   9.239   4.966   8.477 -2.7057 -0.7546 -1.9911
  224MOL0     H30178   9.148   5.124   8.512  1.8802  4.8594 -0.4165
  224MOL0     H30179   9.150   5.175   8.274 -2.5413 -1.2175 -2.5491
  224MOL0     H30180   9.239   5.032   8.244 -1.0942 -0.9297  1.1304
  224MOL0     H30181   9.013   5.007   8.187  1.8978 -1.0125 -0.8177
  224MOL0     H30182   9.059   4.880   8.293 -0.0693 -0.6159 -1.2665
  224MOL0     H30183   8.950   4.996   8.494  0.7693  2.2349  1.4519
  224MOL0     H30184   8.915   5.134   8.392 -2.5743 -0.7349  2.1916
  224MOL0     H30185   8.808   4.861   8.334  2.3305  0.4194  0.9920
  224MOL0     H30186   8.717   4.982   8.429 -1.7373 -2.6733 -1.5299
  224MOL0     H30187   8.697   5.138   8.266 -2.0301  0.0506 -1.4001
  224MOL0     H30188   8.803   5.048   8.150 -0.8385  0.7839  0.2608
  224MOL0     H30189   8.573   4.921   8.281 -0.9119  4.2418  0.8576
  224MOL0     H30190   8.663   4.878   8.128  1.7019  2.3463 -1.5976
  224MOL0     H30191   8.395   4.890   8.020 -1.1086  0.7697 -1.8876
  224MOL0     H30192   8.211   5.192   7.889  0.6035  0.1219 -0.5838
  224MOL0     H30193   8.214   5.020   7.893  3.3088  0.8499  0.7469
  224MOL0     H30194   7.992   5.159   7.943 -1.4013 -2.3899  0.3097
  224MOL0     H30195   8.063   5.169   8.111 -1.3441  0.7459 -0.1903
  224MOL0     H30196   8.074   4.923   8.109 -0.6057 -0.5347 -0.1856
  224MOL0     H30197   7.990   4.923   7.948 -0.5450 -0.7190  0.4557
  224MOL0     H30198   7.872   5.015   8.223 -0.4176 -0.0500 -0.7660
  224MOL0     H30199   7.839   4.867   8.143 -0.1191  0.4487  0.2696
  224MOL0     H30200   7.520   4.986   7.908  1.9579 -1.8372 -0.1423
  224MOL0     H30201   7.327   4.938   7.863  1.4695  3.2394  0.3032
  224MOL0     H30202   7.306   4.784   7.967  1.8176  0.5731 -1.2606
  224MOL0     H30203   7.204   4.932   7.972  0.8700  0.3913  0.9779
  224MOL0     H30204   6.956   5.014   8.263  1.3622 -0.4304 -2.9232
  224MOL0     H30205   6.734   4.956   8.357  0.2870  0.0968  3.5504
  224MOL0     H30206   6.564   4.555   8.276  1.3520 -1.3970  0.5217
  224MOL0     H30207   6.676   4.499   8.387  0.4209  0.8348  1.5576
  224MOL0     H30208   6.445   4.432   8.446  2.0910 -1.7114  0.2470
  224MOL0     H30209   6.509   4.536   8.579 -1.0419 -1.6113 -0.5852
  224MOL0     H30210   6.319   4.603   8.355 -0.9782 -0.9106  0.3131
  224MOL0     H30211   6.376   4.705   8.492 -0.9699 -0.8445  1.6515
  224MOL0     H30212   6.219   4.438   8.492 -1.6211 -1.7080  4.6540
  224MOL0     H30213   6.256   4.515   8.639  1.0660 -1.7291 -0.6391
  224MOL0     H30214   6.056   4.647   8.449 -2.0817  1.9518  1.0251
  224MOL0     H30215   6.151   4.737   8.569  2.2461  0.4880 -0.2551
  224MOL0     H30216   5.994   4.478   8.643  0.4555 -0.5127 -0.2174
  224MOL0     H30217   6.079   4.589   8.760 -0.0115  1.0371 -0.5073
  224MOL0     H30218   5.852   4.647   8.561  2.3839  2.0525 -1.2155
  224MOL0     H30219   5.899   4.758   8.699 -1.0332 -0.1345  1.2423
  224MOL0     H30220   5.725   4.663   8.794 -1.2551 -1.1239 -1.8432
  224MOL0     H30221   5.863   4.566   8.858 -2.1625 -1.9266  1.4380
  224MOL0     H30222   6.847   4.544   8.324 -2.1704  0.6566  0.4424
  224MOL0     H30223   7.066   4.605   8.257 -0.1488 -0.8505  1.2675
  224MOL0     H30224   7.460   4.956   8.392 -0.6225 -1.5287 -0.7509
  224MOL0     H30225   7.680   5.015   8.320 -1.1437 -0.3661  0.9282
  224MOL0     H30226   9.480   5.107   8.808  0.6307  0.8773  1.5549
  224MOL0     H30227   9.704   5.206   8.904  0.3794 -1.3894  0.0532
  224MOL0     H30228  10.110   5.369   8.859  1.3678  0.8756 -1.0597
  224MOL0     H30229  10.303   5.427   9.001  0.7771 -1.0385  0.7501
  224MOL0     H30230  10.253   5.815   9.188 -0.0318 -0.7407  0.5047
  224MOL0     H30231  10.263   5.752   9.347  0.1250 -1.8113  0.1647
  224MOL0     H30232  10.511   5.725   9.334  1.2717  2.4484  0.1243
  224MOL0     H30233  10.480   5.886   9.308 -0.1094 -0.1408 -1.0584
  224MOL0     H30234  10.468   5.854   9.055 -0.1794 -0.1280 -1.6425
  224MOL0     H30235  10.515   5.687   9.067 -0.4001 -0.7155  0.9940
  224MOL0     H30236  10.716   5.799   9.217 -2.0968 -0.2469  1.4502
  224MOL0     H30237  10.671   5.942   9.142 -3.6570 -0.2280 -1.1229
  224MOL0     H30238  10.866   5.746   8.824  0.5954  1.1318  0.9011
  224MOL0     H30239  10.045   5.705   9.213 -0.8523 -1.8301  1.4226
  224MOL0     H30240   9.866   5.635   9.085 -2.0507 -2.2298 -1.9635
  225MOL0     O30241   2.967   6.485   3.320  0.3129  0.5237  0.3658
  225MOL0     C30242   2.869   6.531   3.378 -0.4611 -0.0473 -0.4542
  225MOL0     O30243   2.871   6.605   3.499  0.0539  0.4461 -0.1937
  225MOL0     C30244   2.997   6.625   3.557  0.2029  0.0183  0.0553
  225MOL0     C30245   3.074   6.521   3.609  0.4754 -0.3621  0.0986
  225MOL0     C30246   3.194   6.556   3.681 -0.2006  0.2110 -0.1954
  225MOL0     C30247   3.231   6.691   3.697  0.9845 -0.3580 -0.3338
  225MOL0     O30248   3.351   6.742   3.754 -0.2262 -0.8009 -0.3327
  225MOL0     C30249   3.438   6.649   3.815 -0.1206 -0.6992 -0.3101
  225MOL0     C30250   3.537   6.723   3.899  0.4350 -0.3310 -0.1552
  225MOL0     C30251   3.657   6.787   3.823 -0.3780  0.1481 -0.1809
  225MOL0     C30252   3.712   6.908   3.895  0.3682 -0.2381  0.3858
  225MOL0     C30253   3.836   6.957   3.817  0.1660  1.0537  0.3556
  225MOL0     C30254   3.918   7.078   3.876  0.1752  0.2022  0.0248
  225MOL0     C30255   3.841   7.208   3.869  0.4853  0.2619  0.3936
  225MOL0     C30256   3.914   7.334   3.929 -0.5403 -0.3410 -0.0815
  225MOL0     N30257   3.967   7.314   4.065 -0.4875  0.1314 -0.0483
  225MOL0     C30258   4.101   7.278   4.086 -0.2214 -0.3817  0.2050
  225MOL0     C30259   4.098   7.267   4.220  0.4583  0.8467  0.5841
  225MOL0     C30260   4.228   7.265   4.298  0.4693 -0.0314  0.1351
  225MOL0     C30261   4.310   7.391   4.255 -0.1556 -0.2093 -0.5578
  225MOL0     C30262   4.436   7.400   4.331 -0.4636  0.0065  0.5965
  225MOL0     C30263   4.501   7.533   4.293 -0.4878  0.5511  1.2128
  225MOL0     O30264   4.630   7.543   4.357  0.5062 -0.3408  0.6283
  225MOL0     C30265   4.697   7.664   4.361  0.0776 -0.5571  0.4390
  225MOL0     C30266   4.819   7.671   4.434  0.3297  0.1124  0.5199
  225MOL0     C30267   4.898   7.782   4.443 -0.4748 -0.4683 -0.0148
  225MOL0     C30268   5.011   7.771   4.541  0.3814  0.4604 -0.1249
  225MOL0     C30269   4.863   7.900   4.379  0.8483 -0.0787  0.5674
  225MOL0     C30270   4.939   8.029   4.363 -0.1476  0.1534  0.6576
  225MOL0     O30271   5.033   8.059   4.458  0.4703 -0.0431  0.9189
  225MOL0     C30272   5.122   8.155   4.423 -1.2549  1.2608 -1.4004
  225MOL0     C30273   5.257   8.121   4.421 -0.1308 -0.3752 -0.7935
  225MOL0     C30274   5.358   8.206   4.382 -0.3137  0.6349  0.1487
  225MOL0     C30275   5.318   8.336   4.339 -1.1350  0.4717  0.5693
  225MOL0     O30276   5.419   8.420   4.294  0.5189  0.0232 -0.1801
  225MOL0     C30277   5.458   8.510   4.396 -0.0255  0.4781  0.6130
  225MOL0     C30278   5.565   8.605   4.349 -0.1762 -0.5498  0.2363
  225MOL0     C30279   5.596   8.695   4.461 -0.2157  0.6699  0.3096
  225MOL0     C30280   5.720   8.641   4.539 -0.6059 -0.6610  0.7584
  225MOL0     C30281   5.761   8.746   4.635 -0.4407  0.0533  0.0563
  225MOL0     C30282   5.860   8.702   4.733 -0.9568 -0.9948 -0.1007
  225MOL0     C30283   5.852   8.807   4.849 -0.3317 -0.4717  0.6242
  225MOL0     C30284   5.964   8.773   4.943  0.5497 -0.3865  1.1418
  225MOL0    Cl30285   6.136   8.800   4.882  0.0236  0.5253  0.2020
  225MOL0     C30286   5.193   8.373   4.338 -0.1333 -0.1199  0.0446
  225MOL0     C30287   5.093   8.286   4.387  0.3763  0.0484 -0.6570
  225MOL0     O30288   4.922   8.093   4.257 -0.3713  0.2963 -1.0060
  225MOL0     C30289   4.737   7.894   4.312 -1.0373 -0.0148 -0.5939
  225MOL0     C30290   4.662   7.779   4.290 -0.3418  0.4053 -0.6868
  225MOL0     N30291   3.967   7.271   4.275  0.7443 -1.0756  0.8064
  225MOL0     N30292   3.889   7.297   4.175 -0.1460 -0.2480 -0.3920
  225MOL0     C30293   3.151   6.792   3.635 -0.1378 -0.0743 -0.5302
  225MOL0     C30294   3.034   6.756   3.580  0.5644 -0.0101  0.8782
  225MOL0     C30295   2.726   6.517   3.319 -0.8393 -0.7692  0.5426
  225MOL0     C30296   2.617   6.577   3.380  0.3551 -0.4424 -0.3289
  225MOL0     C30297   2.489   6.574   3.316 -0.9315 -0.0932 -0.6764
  225MOL0     C30298   2.467   6.507   3.197 -0.1409  0.4654 -0.4716
  225MOL0     O30299   2.357   6.501   3.127  0.3308  0.3635 -0.0651
  225MOL0     C30300   2.230   6.528   3.185  0.1584 -1.0204  0.2267
  225MOL0     C30301   2.115   6.491   3.088  0.2064 -0.1872 -0.4206
  225MOL0     C30302   1.993   6.477   3.171 -0.6865  0.4931 -0.1065
  225MOL0     C30303   1.880   6.398   3.092 -0.1464 -0.5002 -0.4049
  225MOL0     C30304   1.837   6.472   2.971 -0.4975 -0.1825 -0.5995
  225MOL0     C30305   1.822   6.553   2.882 -0.6644 -0.6968 -0.0636
  225MOL0     C30306   2.583   6.452   3.140 -0.0003 -0.5830  0.3258
  225MOL0     C30307   2.711   6.454   3.200 -0.3171 -0.4691 -0.8332
  225MOL0     H30308   3.046   6.418   3.595  0.9522 -0.5624  0.5639
  225MOL0     H30309   3.262   6.480   3.720 -0.3877  0.2146  0.1454
  225MOL0     H30310   3.370   6.585   3.872 -0.1434 -2.4690 -2.2174
  225MOL0     H30311   3.494   6.589   3.743  1.4120 -0.3721  0.5574
  225MOL0     H30312   3.485   6.810   3.940 -0.8849 -1.1178 -0.1328
  225MOL0     H30313   3.578   6.659   3.977 -0.4204  2.6575  2.9671
  225MOL0     H30314   3.741   6.720   3.802  0.3232  1.2640 -1.1044
  225MOL0     H30315   3.627   6.821   3.724 -0.6007 -0.4755 -0.3330
  225MOL0     H30316   3.635   6.985   3.909 -0.5058 -0.8435 -0.9957
  225MOL0     H30317   3.747   6.878   3.995 -0.0545 -2.7568 -0.1587
  225MOL0     H30318   3.900   6.868   3.818 -0.9162  0.2284 -0.7225
  225MOL0     H30319   3.820   6.980   3.712  3.3254  0.4961 -0.3550
  225MOL0     H30320   3.948   7.063   3.980  1.7976  4.0869  0.2939
  225MOL0     H30321   4.011   7.079   3.819  1.0428 -0.4161  1.3726
  225MOL0     H30322   3.826   7.232   3.763  1.5248 -3.1053 -0.6401
  225MOL0     H30323   3.748   7.187   3.921  2.2305 -2.7110  2.6664
  225MOL0     H30324   3.836   7.409   3.943  0.3228  0.2373  2.0741
  225MOL0     H30325   3.990   7.370   3.860 -0.2934  3.5166  1.9350
  225MOL0     H30326   4.183   7.285   4.015  1.7660  1.5121  2.5171
  225MOL0     H30327   4.213   7.270   4.406 -3.0541  0.8592 -0.2529
  225MOL0     H30328   4.285   7.172   4.290 -3.0886 -2.8226  3.5930
  225MOL0     H30329   4.253   7.482   4.274  1.7666  1.3362 -1.7784
  225MOL0     H30330   4.338   7.386   4.149  1.0753 -0.7994 -0.2275
  225MOL0     H30331   4.508   7.319   4.315  0.5995  1.2817 -1.4934
  225MOL0     H30332   4.411   7.413   4.437  2.2245  0.2681  1.2759
  225MOL0     H30333   4.433   7.613   4.323  0.1727  0.6195  2.6042
  225MOL0     H30334   4.525   7.539   4.187 -1.4187  0.0064  0.9628
  225MOL0     H30335   4.844   7.574   4.475  0.8971 -1.2386 -2.6982
  225MOL0     H30336   5.008   7.674   4.590  0.3291 -0.0504 -1.1118
  225MOL0     H30337   5.117   7.782   4.518  0.4859  0.5154  0.3757
  225MOL0     H30338   4.985   7.839   4.622 -2.2384 -0.9297  0.3271
  225MOL0     H30339   5.284   8.019   4.444  1.5092  0.2492  0.2356
  225MOL0     H30340   5.458   8.167   4.366 -0.5814 -0.0206  0.0176
  225MOL0     H30341   5.369   8.567   4.423 -0.8735  0.4326 -1.8656
  225MOL0     H30342   5.497   8.455   4.483 -0.7333 -0.3109  0.4572
  225MOL0     H30343   5.656   8.558   4.310 -0.1148  0.1089 -0.4279
  225MOL0     H30344   5.537   8.658   4.258  2.6190 -2.1122 -1.7170
  225MOL0     H30345   5.508   8.699   4.525  0.1139 -0.3983  0.8736
  225MOL0     H30346   5.619   8.797   4.428 -3.0083  1.6589  1.1981
  225MOL0     H30347   5.704   8.544   4.587 -2.7395 -0.3084  0.8495
  225MOL0     H30348   5.804   8.625   4.471  0.0627  1.1913  1.1050
  225MOL0     H30349   5.668   8.786   4.677  0.5600  3.9998 -1.0133
  225MOL0     H30350   5.807   8.821   4.570 -1.3610  1.2624  0.7456
  225MOL0     H30351   5.833   8.603   4.771  0.2409 -0.9221  1.0215
  225MOL0     H30352   5.958   8.690   4.687  0.5477  2.9800  1.5937
  225MOL0     H30353   5.754   8.818   4.895 -0.1705  1.8909  0.5189
  225MOL0     H30354   5.877   8.906   4.811  1.4011 -1.5127 -1.1668
  225MOL0     H30355   5.953   8.670   4.979 -1.4957 -1.2775 -1.6409
  225MOL0     H30356   5.965   8.833   5.034  3.5936  2.1872 -0.4124
  225MOL0     H30357   5.161   8.472   4.308  1.6006  0.7401  0.8806
  225MOL0     H30358   4.989   8.318   4.391 -0.3874 -1.6907 -3.4445
  225MOL0     H30359   4.701   7.978   4.254 -1.8551  1.4044  1.8487
  225MOL0     H30360   4.576   7.775   4.224 -0.1391 -2.4015 -0.9165
  225MOL0     H30361   3.167   6.899   3.625  1.8662 -0.4535 -2.1497
  225MOL0     H30362   2.974   6.837   3.538 -2.1431 -0.5814  3.3497
  225MOL0     H30363   2.646   6.630   3.470  2.2490  0.4353 -1.3719
  225MOL0     H30364   2.411   6.624   3.372 -0.3695  0.3537 -0.2809
  225MOL0     H30365   2.222   6.458   3.269 -1.0356  0.9631  1.8550
  225MOL0     H30366   2.211   6.630   3.221 -0.1821 -1.4072  1.1749
  225MOL0     H30367   2.146   6.395   3.043  2.6779 -0.7098  2.1128
  225MOL0     H30368   2.114   6.568   3.011  1.8513 -1.4660 -1.8148
  225MOL0     H30369   1.961   6.573   3.213  2.1930  0.5254  2.3956
  225MOL0     H30370   2.012   6.426   3.266  0.3982  1.6172  0.3181
  225MOL0     H30371   1.791   6.390   3.156  0.4584  0.4164  0.5872
  225MOL0     H30372   1.922   6.299   3.070  0.2061 -0.0862 -1.6818
  225MOL0     H30373   1.803   6.630   2.810 -0.1435 -1.7983 -1.4284
  225MOL0     H30374   2.562   6.406   3.044  0.8147 -0.9334  0.3130
  225MOL0     H30375   2.795   6.411   3.147  1.0070 -0.6667  1.3028
  226MOL0     O30376   1.910   4.113   6.549  0.0309 -0.2104  0.1391
  226MOL0     C30377   1.806   4.073   6.590  1.1292 -0.2092  0.1793
  226MOL0     O30378   1.788   4.007   6.714 -0.6876 -0.7111 -0.4374
  226MOL0     C30379   1.889   3.966   6.790  0.1370  0.7054  0.0439
  226MOL0     C30380   1.991   3.888   6.731  0.6700 -0.6697 -0.3179
  226MOL0     C30381   2.089   3.830   6.814 -0.1335  0.3528  0.0163
  226MOL0     C30382   2.099   3.867   6.947  0.8183  0.9318 -0.2995
  226MOL0     O30383   2.186   3.793   7.026 -0.0334 -0.2162 -0.8151
  226MOL0     C30384   2.322   3.843   7.035 -0.3563 -0.5296  0.0405
  226MOL0     C30385   2.363   3.865   7.180  0.4107  0.0854 -0.3809
  226MOL0     C30386   2.408   3.739   7.248  0.1979  0.4794 -0.1234
  226MOL0     C30387   2.427   3.749   7.405  0.7579 -0.5432  0.6571
  226MOL0     C30388   2.455   3.627   7.480  0.0054  0.0144 -0.4595
  226MOL0     C30389   2.584   3.566   7.445 -0.7891 -0.0894 -0.1351
  226MOL0     C30390   2.596   3.451   7.539 -0.7625  0.0197  0.8831
  226MOL0     C30391   2.725   3.377   7.521 -0.5261  0.6451  0.7818
  226MOL0     N30392   2.754   3.250   7.587 -0.0313  0.3322  0.2229
  226MOL0     C30393   2.701   3.129   7.542  0.5280  0.6987 -0.4011
  226MOL0     C30394   2.759   3.036   7.615 -0.1291  0.4130 -0.8865
  226MOL0     C30395   2.740   2.885   7.606 -0.1101  0.6161 -0.9048
  226MOL0     C30396   2.677   2.829   7.471 -0.9365  0.7667 -0.0565
  226MOL0     C30397   2.645   2.678   7.454 -0.8591 -0.1651 -0.5595
  226MOL0     C30398   2.773   2.592   7.425  0.0928 -0.1804  0.8762
  226MOL0     O30399   2.727   2.451   7.409 -0.3126 -0.3408  0.9696
  226MOL0     C30400   2.834   2.372   7.446  0.1260 -0.1521  0.3709
  226MOL0     C30401   2.867   2.266   7.366 -0.0222  0.1626  0.2211
  226MOL0     C30402   2.969   2.176   7.396 -0.8386 -0.0314 -1.1148
  226MOL0     C30403   2.987   2.062   7.297 -0.0945  0.5179  1.2509
  226MOL0     C30404   3.051   2.195   7.512  0.0067 -0.2005 -0.3898
  226MOL0     C30405   3.167   2.108   7.547  0.2515  0.6727 -0.0698
  226MOL0     O30406   3.219   2.128   7.669  0.0748 -0.0995 -0.3234
  226MOL0     C30407   3.317   2.046   7.728  0.6101 -0.2179 -0.3114
  226MOL0     C30408   3.298   1.981   7.850  0.2838  0.6932  0.9770
  226MOL0     C30409   3.416   1.912   7.897  0.2975  0.5733  0.5549
  226MOL0     C30410   3.544   1.928   7.845  0.6040  0.3688  0.7827
  226MOL0     O30411   3.647   1.861   7.902  0.1027  0.1332  0.6060
  226MOL0     C30412   3.781   1.875   7.844  0.6252  1.0791 -0.1351
  226MOL0     C30413   3.872   1.811   7.959 -0.9843 -0.8751 -0.1820
  226MOL0     C30414   4.023   1.832   7.914 -0.7571 -0.2052  0.3807
  226MOL0     C30415   4.077   1.757   7.798  0.1196 -0.1115 -0.2277
  226MOL0     C30416   4.227   1.725   7.830  1.0163  0.3083  0.0911
  226MOL0     C30417   4.294   1.661   7.714  0.2553  0.7037  0.7312
  226MOL0     C30418   4.439   1.625   7.763  0.4421 -0.2523 -0.0389
  226MOL0     C30419   4.451   1.489   7.838 -0.8910  0.3211 -0.4680
  226MOL0    Cl30420   4.394   1.350   7.738  0.3871 -0.3361  0.1732
  226MOL0     C30421   3.550   1.998   7.733  0.2276  0.0220  0.0334
  226MOL0     C30422   3.441   2.052   7.666 -0.2467 -0.0692 -0.9953
  226MOL0     O30423   3.206   2.023   7.469  0.8878 -0.4474  0.1247
  226MOL0     C30424   2.998   2.286   7.604  0.6412  0.6591 -0.1633
  226MOL0     C30425   2.889   2.371   7.575 -0.2971 -0.7250 -0.2260
  226MOL0     N30426   2.825   3.100   7.717 -0.0638  0.1467 -0.6771
  226MOL0     N30427   2.827   3.230   7.700 -0.1972  0.6508  1.0556
  226MOL0     C30428   1.998   3.948   7.002 -0.9690  0.1544 -0.6065
  226MOL0     C30429   1.895   3.998   6.927  0.7336 -0.1531  0.5203
  226MOL0     C30430   1.686   4.111   6.515 -0.6730 -0.1063 -0.3024
  226MOL0     C30431   1.575   4.032   6.528 -0.1033  0.0191  0.3955
  226MOL0     C30432   1.463   4.051   6.446  0.5410 -0.7967 -0.0129
  226MOL0     C30433   1.461   4.161   6.356  0.0514 -0.1159 -0.0110
  226MOL0     O30434   1.358   4.210   6.287  0.2999 -0.1791 -0.0151
  226MOL0     C30435   1.248   4.120   6.265 -0.1127 -0.0635  0.5586
  226MOL0     C30436   1.272   4.028   6.139 -0.9379  0.0128 -0.2028
  226MOL0     C30437   1.153   3.956   6.085  0.0080  0.9851 -0.4419
  226MOL0     C30438   1.112   3.829   6.162 -0.1563  0.2873 -0.9224
  226MOL0     C30439   0.981   3.774   6.122 -0.0896 -0.4252  0.4211
  226MOL0     C30440   0.879   3.749   6.069 -0.1046  0.4459  1.0592
  226MOL0     C30441   1.572   4.251   6.350  0.2572  0.3431 -0.1410
  226MOL0     C30442   1.683   4.216   6.424  0.1198 -0.3785  0.0720
  226MOL0     H30443   1.964   3.870   6.627 -0.6994  1.3123 -0.3565
  226MOL0     H30444   2.142   3.740   6.783 -3.1353 -0.5297 -3.1437
  226MOL0     H30445   2.387   3.773   6.982  0.7523  0.9452 -0.5998
  226MOL0     H30446   2.328   3.935   6.977  1.8432  0.8591  2.2499
  226MOL0     H30447   2.440   3.943   7.185 -1.4198  2.0175 -0.7895
  226MOL0     H30448   2.279   3.917   7.228 -1.5484 -0.7350 -2.7356
  226MOL0     H30449   2.332   3.663   7.227  0.3172  0.1162  0.7171
  226MOL0     H30450   2.503   3.715   7.201  0.2355  1.5736 -0.6434
  226MOL0     H30451   2.511   3.819   7.402  0.0703  0.6285 -5.4105
  226MOL0     H30452   2.342   3.807   7.441  1.5382 -0.1843  1.9649
  226MOL0     H30453   2.439   3.630   7.589  0.6081  0.8525 -0.3901
  226MOL0     H30454   2.373   3.560   7.451  1.9349 -1.4032 -2.9956
  226MOL0     H30455   2.572   3.538   7.341  2.0444 -0.7573 -0.3715
  226MOL0     H30456   2.668   3.636   7.455 -1.1160  0.2537  0.2741
  226MOL0     H30457   2.591   3.487   7.642 -0.7886  0.3293  0.7739
  226MOL0     H30458   2.520   3.374   7.524 -0.1768 -0.0314 -2.6121
  226MOL0     H30459   2.806   3.449   7.531 -0.0519  0.1043  0.8630
  226MOL0     H30460   2.729   3.356   7.414  0.8548  0.3990  0.8660
  226MOL0     H30461   2.636   3.114   7.456  0.0697  3.9652 -0.7781
  226MOL0     H30462   2.838   2.839   7.622  0.4763  1.7862 -1.0000
  226MOL0     H30463   2.677   2.841   7.684 -0.2490 -1.7047 -2.2448
  226MOL0     H30464   2.750   2.843   7.391  0.8630 -2.1128  0.9281
  226MOL0     H30465   2.590   2.882   7.431 -1.3622 -0.0664 -0.2527
  226MOL0     H30466   2.580   2.668   7.367 -0.0510 -0.9663 -1.0842
  226MOL0     H30467   2.589   2.651   7.544 -2.1415  1.0765 -0.9434
  226MOL0     H30468   2.850   2.621   7.496  1.9514  0.1735 -1.1754
  226MOL0     H30469   2.821   2.615   7.330  1.5153 -0.4532  1.5049
  226MOL0     H30470   2.818   2.263   7.269  2.6011  1.5198 -1.2525
  226MOL0     H30471   2.903   2.043   7.229  0.3657 -2.1254  1.3428
  226MOL0     H30472   3.071   2.074   7.227  0.4881 -2.7282  1.2394
  226MOL0     H30473   3.000   1.966   7.348  1.9153  1.2290  2.2020
  226MOL0     H30474   3.195   1.987   7.885  0.2440  5.5552  0.7530
  226MOL0     H30475   3.396   1.841   7.976 -0.4616 -1.8741 -1.6954
  226MOL0     H30476   3.793   1.824   7.748  4.4887  2.6391 -0.6495
  226MOL0     H30477   3.811   1.979   7.834 -0.4123  1.4760  0.6691
  226MOL0     H30478   3.840   1.858   8.052 -0.0828  3.8050 -1.9754
  226MOL0     H30479   3.868   1.702   7.970  1.2914 -0.8979  1.0668
  226MOL0     H30480   4.095   1.800   7.989  3.8622  1.2082 -2.9993
  226MOL0     H30481   4.047   1.938   7.902 -2.4883  0.0712 -1.1111
  226MOL0     H30482   4.031   1.659   7.780  0.4502 -0.0751 -1.4001
  226MOL0     H30483   4.070   1.818   7.707 -1.4995 -2.0271 -1.4898
  226MOL0     H30484   4.252   1.671   7.922 -0.9549  0.4367  0.7394
  226MOL0     H30485   4.267   1.825   7.851 -0.4396  0.8875  0.2451
  226MOL0     H30486   4.239   1.575   7.674 -0.7430  0.3951  2.6464
  226MOL0     H30487   4.309   1.728   7.629  0.8183 -0.1114  0.1674
  226MOL0     H30488   4.482   1.707   7.821 -2.4234  2.1871 -1.1270
  226MOL0     H30489   4.498   1.604   7.673  0.9262  0.3265  0.1343
  226MOL0     H30490   4.381   1.499   7.922 -2.8779  0.2292 -2.0401
  226MOL0     H30491   4.554   1.484   7.875 -1.0482  0.2312 -0.0348
  226MOL0     H30492   3.651   2.005   7.693  0.0611  0.1659 -0.3690
  226MOL0     H30493   3.455   2.097   7.568 -0.4247  0.3276 -0.8390
  226MOL0     H30494   3.054   2.303   7.696  0.5057  1.9466 -0.2973
  226MOL0     H30495   2.851   2.430   7.658 -0.1953  0.5493 -1.0514
  226MOL0     H30496   2.010   3.978   7.106 -1.7392  1.8437 -0.9840
  226MOL0     H30497   1.820   4.058   6.975  0.1419 -1.3903  1.1748
  226MOL0     H30498   1.576   3.948   6.596 -0.1996 -0.4748 -0.2104
  226MOL0     H30499   1.382   3.980   6.435 -0.1558  0.2514 -2.0474
  226MOL0     H30500   1.227   4.049   6.346  0.9433 -0.3474  0.6007
  226MOL0     H30501   1.156   4.177   6.250  0.8326  1.7215  1.2417
  226MOL0     H30502   1.349   3.951   6.149 -3.3245 -2.6981 -1.2733
  226MOL0     H30503   1.300   4.087   6.051  0.1388 -0.6315 -0.3087
  226MOL0     H30504   1.157   3.930   5.979  1.5152  1.0819 -0.4388
  226MOL0     H30505   1.073   4.031   6.092 -1.7317 -0.8537  0.2273
  226MOL0     H30506   1.105   3.849   6.269 -2.8637 -0.0859 -0.9435
  226MOL0     H30507   1.186   3.751   6.148 -3.2740 -3.4144  1.1930
  226MOL0     H30508   0.801   3.712   6.005  0.3567  0.5738  0.4239
  226MOL0     H30509   1.566   4.340   6.289 -0.3470  0.1237 -0.4193
  226MOL0     H30510   1.766   4.281   6.397  0.6808 -0.9277  0.4723
  227MOL0     O30511  11.362   0.320   7.194  0.4818 -0.4369  0.2432
  227MOL0     C30512  11.339   0.432   7.241  0.8523 -0.4500  0.1521
  227MOL0     O30513  11.253   0.531   7.177  0.0622  0.0239 -0.5057
  227MOL0     C30514  11.211   0.506   7.051 -0.6192 -0.0474  0.8268
  227MOL0     C30515  11.081   0.526   7.010  0.4061  0.7853  0.2364
  227MOL0     C30516  11.034   0.496   6.878  0.5418 -0.4814  0.0406
  227MOL0     C30517  11.126   0.454   6.780  0.6564  1.5798 -0.9047
  227MOL0     O30518  11.096   0.416   6.649 -0.3294  0.2661 -0.0484
  227MOL0     C30519  10.982   0.332   6.624 -1.3263 -0.2107 -0.4830
  227MOL0     C30520  11.038   0.200   6.573  0.2666  1.0726 -0.8948
  227MOL0     C30521  11.085   0.194   6.429 -0.6646 -0.1619 -0.4204
  227MOL0     C30522  10.970   0.221   6.330 -0.5172 -0.5324 -0.8791
  227MOL0     C30523  10.993   0.164   6.193  0.0642  0.0798 -0.2411
  227MOL0     C30524  10.885   0.211   6.095  0.5908 -1.1486  0.5622
  227MOL0     C30525  10.929   0.346   6.039  1.0265 -0.9493  1.0666
  227MOL0     C30526  10.851   0.395   5.925 -0.3300  0.2206  0.0287
  227MOL0     N30527  10.723   0.435   5.978  0.6029  0.8467 -0.0668
  227MOL0     C30528  10.690   0.558   6.037 -1.0817  0.5296  0.2516
  227MOL0     C30529  10.556   0.562   6.028 -0.0771 -0.1377 -0.6827
  227MOL0     C30530  10.459   0.666   6.081 -0.7091  0.0761  0.3894
  227MOL0     C30531  10.339   0.703   5.993  0.1130 -0.5117 -0.1786
  227MOL0     C30532  10.209   0.629   6.020  0.8260  0.1335  0.7522
  227MOL0     C30533  10.137   0.695   6.138 -0.9158 -0.3667 -0.0454
  227MOL0     O30534  10.013   0.625   6.166  0.2301  0.5642  0.2807
  227MOL0     C30535   9.920   0.718   6.203  0.4909 -0.1823  0.4539
  227MOL0     C30536   9.883   0.758   6.333  0.0865  0.7348  0.8255
  227MOL0     C30537   9.777   0.841   6.366 -0.7940  0.1506 -0.4970
  227MOL0     C30538   9.762   0.873   6.510 -0.0629 -0.3346 -0.4058
  227MOL0     C30539   9.686   0.887   6.270 -0.6865 -0.1268  0.3204
  227MOL0     C30540   9.571   0.975   6.283  0.2074  0.2857  0.8404
  227MOL0     O30541   9.489   0.968   6.180 -0.2471 -0.0220 -0.2589
  227MOL0     C30542   9.380   1.048   6.159  0.5510 -0.3990  0.0275
  227MOL0     C30543   9.337   1.058   6.021  0.7118 -0.7606 -0.1583
  227MOL0     C30544   9.221   1.124   5.981 -0.5442 -0.1758 -0.3296
  227MOL0     C30545   9.136   1.172   6.080  0.1503 -0.8330  0.3618
  227MOL0     O30546   9.021   1.234   6.051  0.0582  0.0749 -0.4834
  227MOL0     C30547   9.005   1.308   5.929  0.5099  0.1253 -0.2544
  227MOL0     C30548   8.894   1.405   5.956  0.7452 -0.2378 -0.6916
  227MOL0     C30549   8.910   1.540   5.874 -0.6627  0.3413 -0.9684
  227MOL0     C30550   8.902   1.527   5.724 -0.4641 -0.0370  0.4081
  227MOL0     C30551   8.879   1.659   5.642 -0.3029  0.1267 -0.1894
  227MOL0     C30552   9.022   1.731   5.612 -0.3439 -0.6412  0.0440
  227MOL0     C30553   8.979   1.882   5.596  0.6242  0.1074 -0.0233
  227MOL0     C30554   9.091   1.980   5.572  0.6052  0.6623 -0.4203
  227MOL0    Cl30555   9.204   1.992   5.711  0.1896 -0.0293 -0.2466
  227MOL0     C30556   9.180   1.163   6.216  1.2290  0.5150 -0.1200
  227MOL0     C30557   9.293   1.106   6.251  0.1764  0.6288 -0.9454
  227MOL0     O30558   9.544   1.047   6.382  0.7454  0.5699 -0.8111
  227MOL0     C30559   9.721   0.844   6.133 -1.0631 -1.1120  0.2092
  227MOL0     C30560   9.830   0.755   6.106 -0.2523  0.3877 -0.8967
  227MOL0     N30561  10.511   0.450   5.983 -0.1667  0.0926  0.8666
  227MOL0     N30562  10.605   0.376   5.952 -0.0306 -0.0960  0.2407
  227MOL0     C30563  11.259   0.455   6.820 -0.9232 -0.7501  0.4555
  227MOL0     C30564  11.302   0.482   6.947  0.3160 -0.6606 -0.7048
  227MOL0     C30565  11.388   0.469   7.372 -1.1687 -0.2859 -0.5680
  227MOL0     C30566  11.522   0.430   7.401 -0.2158 -0.5289 -0.1379
  227MOL0     C30567  11.586   0.477   7.518 -0.0650 -0.0412 -0.5148
  227MOL0     C30568  11.509   0.550   7.615 -0.2845  0.4376  0.5400
  227MOL0     O30569  11.563   0.587   7.729 -0.1768  0.0101 -0.3840
  227MOL0     C30570  11.632   0.710   7.706  0.4511  0.8851  0.4588
  227MOL0     C30571  11.777   0.677   7.749  0.8928 -1.3091 -0.2415
  227MOL0     C30572  11.785   0.676   7.899 -0.0658 -0.4971  0.4964
  227MOL0     C30573  11.911   0.630   7.956 -0.5753  0.6966  0.1800
  227MOL0     C30574  11.912   0.632   8.102  0.6788  0.1551  0.2982
  227MOL0     C30575  11.907   0.632   8.217  0.4150 -0.3023  0.3483
  227MOL0     C30576  11.371   0.559   7.594  0.7034 -0.5728  0.2034
  227MOL0     C30577  11.308   0.523   7.476 -0.7202 -0.5604 -0.5974
  227MOL0     H30578  11.017   0.563   7.090  1.9502 -0.3033  2.0449
  227MOL0     H30579  10.927   0.484   6.863  0.2767  0.6415  0.8939
  227MOL0     H30580  10.926   0.305   6.714  0.6995 -1.5157  0.4534
  227MOL0     H30581  10.929   0.389   6.547  1.8437  2.9659 -0.5542
  227MOL0     H30582  11.125   0.186   6.638  0.1170  1.3186 -0.6416
  227MOL0     H30583  10.983   0.110   6.602  1.8239  1.1625  2.7745
  227MOL0     H30584  11.170   0.261   6.416 -0.2892 -0.2495  1.3689
  227MOL0     H30585  11.119   0.091   6.411  1.1426  0.1275  1.0851
  227MOL0     H30586  10.874   0.191   6.373 -0.7519  0.9615 -0.3074
  227MOL0     H30587  10.969   0.329   6.315  2.3533 -0.3984 -0.6281
  227MOL0     H30588  11.095   0.181   6.159 -0.0906  3.7193  0.6782
  227MOL0     H30589  10.987   0.055   6.198 -1.5708  0.1637  0.5701
  227MOL0     H30590  10.889   0.137   6.014 -1.5266 -0.1952 -0.4801
  227MOL0     H30591  10.786   0.219   6.140  1.6680  1.9177  2.7272
  227MOL0     H30592  10.930   0.415   6.124 -0.8262  1.4957 -0.7112
  227MOL0     H30593  11.031   0.338   6.001  0.8332 -1.9935  0.7586
  227MOL0     H30594  10.852   0.314   5.851 -2.0004 -1.6270  1.9050
  227MOL0     H30595  10.894   0.486   5.882 -0.2651 -0.2612 -0.9600
  227MOL0     H30596  10.760   0.639   6.056  2.5275 -2.2464 -0.0852
  227MOL0     H30597  10.434   0.641   6.184  0.0743  0.0004  0.5679
  227MOL0     H30598  10.522   0.755   6.088 -0.3920 -0.0093 -1.0416
  227MOL0     H30599  10.368   0.682   5.889 -3.7458 -2.1143 -1.1370
  227MOL0     H30600  10.315   0.809   5.992  0.4255 -0.4369 -1.1204
  227MOL0     H30601  10.221   0.521   6.030 -0.8447 -0.0248  1.4005
  227MOL0     H30602  10.144   0.635   5.932 -0.3806 -1.8401  1.4452
  227MOL0     H30603  10.115   0.798   6.110 -0.0838 -0.0154  0.5678
  227MOL0     H30604  10.207   0.693   6.222 -0.3664 -3.6323 -0.4385
  227MOL0     H30605   9.946   0.728   6.416  0.1627  0.2576  0.5935
  227MOL0     H30606   9.654   0.873   6.527  0.1834 -0.7767  1.3781
  227MOL0     H30607   9.808   0.795   6.572  1.8924  1.2896  0.2872
  227MOL0     H30608   9.813   0.964   6.543 -2.2321  1.4485 -1.7303
  227MOL0     H30609   9.401   1.012   5.946 -0.8756 -0.0137 -2.0645
  227MOL0     H30610   9.196   1.122   5.876 -1.5549  0.8993 -0.1271
  227MOL0     H30611   9.094   1.370   5.917  0.0437  0.9634  0.4727
  227MOL0     H30612   8.975   1.250   5.842 -1.9231 -1.3014  1.4133
  227MOL0     H30613   8.804   1.357   5.917 -1.0744  1.3749  1.2222
  227MOL0     H30614   8.885   1.426   6.063  2.8717 -2.2509 -0.0403
  227MOL0     H30615   9.001   1.594   5.904  0.0855 -1.5240  0.3088
  227MOL0     H30616   8.830   1.612   5.892 -0.1252  1.4136 -2.6900
  227MOL0     H30617   8.995   1.478   5.692 -1.3783 -0.0550 -2.4769
  227MOL0     H30618   8.826   1.456   5.691  0.8034 -0.6308 -1.4032
  227MOL0     H30619   8.796   1.718   5.683 -0.2548  2.3541 -2.9494
  227MOL0     H30620   8.843   1.630   5.543  1.2668 -0.2937 -0.6594
  227MOL0     H30621   9.093   1.723   5.695 -1.4930  1.3103  1.2902
  227MOL0     H30622   9.077   1.690   5.526  2.0763 -0.4374  1.3866
  227MOL0     H30623   8.931   1.920   5.686  1.9374  2.9158 -0.3962
  227MOL0     H30624   8.903   1.898   5.519 -2.4325  2.0103  3.0842
  227MOL0     H30625   9.050   2.079   5.550 -1.7679 -0.1861 -0.0985
  227MOL0     H30626   9.148   1.950   5.483 -0.8826 -2.7796 -0.4068
  227MOL0     H30627   9.117   1.203   6.294 -1.0628  0.7464 -1.9846
  227MOL0     H30628   9.322   1.113   6.356 -0.3168 -0.5182 -0.7223
  227MOL0     H30629   9.657   0.882   6.054 -0.1339  3.0728  1.2126
  227MOL0     H30630   9.849   0.704   6.013 -1.8709 -0.8477 -0.6037
  227MOL0     H30631  11.336   0.418   6.753  1.3739  2.7604  0.8870
  227MOL0     H30632  11.409   0.485   6.963  0.1334  2.6818  0.4823
  227MOL0     H30633  11.579   0.386   7.320 -1.0063 -0.2374 -0.8614
  227MOL0     H30634  11.689   0.451   7.542 -0.4807 -0.5640  0.7983
  227MOL0     H30635  11.636   0.742   7.602  0.1923  2.4029  0.8863
  227MOL0     H30636  11.585   0.790   7.764 -5.6481 -2.3018  0.6667
  227MOL0     H30637  11.843   0.758   7.716 -1.7787  1.0054 -0.2710
  227MOL0     H30638  11.805   0.587   7.693  0.0574 -1.2762 -0.7138
  227MOL0     H30639  11.708   0.609   7.937  0.6934 -1.3907  0.5109
  227MOL0     H30640  11.758   0.774   7.938  0.7778 -0.3148  0.6501
  227MOL0     H30641  11.996   0.694   7.932  1.3734 -0.2648  3.7991
  227MOL0     H30642  11.925   0.534   7.907 -2.8681  0.2819  0.2167
  227MOL0     H30643  11.897   0.628   8.323  1.1277  1.6920  0.5426
  227MOL0     H30644  11.297   0.603   7.661 -1.9280 -3.0321 -0.8876
  227MOL0     H30645  11.205   0.555   7.464 -0.8548 -0.6724  0.2330
  228MOL0     O30646   3.032   5.013   4.454 -0.0100  0.4379 -0.9618
  228MOL0     C30647   2.962   5.019   4.557  0.3285  1.0359  0.0107
  228MOL0     O30648   2.834   4.975   4.571  0.3838 -0.2864  0.3996
  228MOL0     C30649   2.782   4.886   4.477  0.1928 -0.1646  0.0134
  228MOL0     C30650   2.772   4.917   4.344  0.0906 -0.6523 -0.4332
  228MOL0     C30651   2.712   4.837   4.247  0.2930 -0.2466 -0.3207
  228MOL0     C30652   2.654   4.719   4.289  0.7625  0.3977  0.1634
  228MOL0     O30653   2.589   4.632   4.203  1.1259 -0.2627  0.1640
  228MOL0     C30654   2.474   4.700   4.147 -0.1135  0.8703  0.7624
  228MOL0     C30655   2.404   4.592   4.076 -0.5717 -0.0576 -1.1264
  228MOL0     C30656   2.268   4.629   4.014  0.6179  0.7777  0.6612
  228MOL0     C30657   2.292   4.731   3.899 -0.2886  0.5037  0.5757
  228MOL0     C30658   2.169   4.786   3.826  0.2321 -0.1483  0.4284
  228MOL0     C30659   2.206   4.888   3.718  0.4180 -0.5479 -0.4370
  228MOL0     C30660   2.083   4.924   3.639  0.3831  0.4505  0.0503
  228MOL0     C30661   2.057   5.074   3.649 -0.5140  0.1764  0.6761
  228MOL0     N30662   1.945   5.105   3.559 -0.1307 -0.0657  1.2688
  228MOL0     C30663   1.832   5.160   3.583 -0.6655  0.3778 -0.3911
  228MOL0     C30664   1.764   5.172   3.460 -0.6157 -0.5309 -0.6392
  228MOL0     C30665   1.633   5.243   3.443 -0.1887 -0.0259  0.7532
  228MOL0     C30666   1.626   5.380   3.520  0.4997 -0.4173  0.4296
  228MOL0     C30667   1.478   5.429   3.503  0.6784  1.0727 -0.2207
  228MOL0     C30668   1.446   5.558   3.587 -0.2465  0.7589  0.5380
  228MOL0     O30669   1.497   5.669   3.508 -0.0688 -0.4245  0.2527
  228MOL0     C30670   1.454   5.793   3.543 -0.5889  0.0698  0.4269
  228MOL0     C30671   1.518   5.891   3.466  0.1958 -0.6135 -0.3962
  228MOL0     C30672   1.493   6.028   3.479 -0.1394 -0.5750 -0.6539
  228MOL0     C30673   1.554   6.129   3.381 -0.1349 -0.1360 -0.9024
  228MOL0     C30674   1.388   6.062   3.573  0.6944 -0.0812 -0.6565
  228MOL0     C30675   1.351   6.201   3.597  0.2019  0.7295 -0.2686
  228MOL0     O30676   1.233   6.220   3.657  0.9998 -0.4672  0.3247
  228MOL0     C30677   1.173   6.348   3.654 -0.4611  1.2272 -1.8841
  228MOL0     C30678   1.136   6.417   3.775  0.3391  0.3867  0.2216
  228MOL0     C30679   1.047   6.528   3.774  0.0358  0.2841  0.4139
  228MOL0     C30680   0.999   6.580   3.657  0.0139 -0.2121 -0.1352
  228MOL0     O30681   0.928   6.696   3.649 -0.8437 -0.0115 -0.3250
  228MOL0     C30682   0.835   6.715   3.750 -0.4080  0.5756  0.5796
  228MOL0     C30683   0.744   6.839   3.730 -0.1219 -0.5843  0.1513
  228MOL0     C30684   0.625   6.842   3.818 -1.2551 -0.6379 -0.2221
  228MOL0     C30685   0.653   6.873   3.963 -0.0932 -0.6156  0.4108
  228MOL0     C30686   0.527   6.890   4.052  1.6975 -0.0221 -0.0437
  228MOL0     C30687   0.561   6.916   4.204 -0.1549  0.5813 -1.0268
  228MOL0     C30688   0.439   6.903   4.300 -0.0780  0.9851  0.1540
  228MOL0     C30689   0.331   6.993   4.259 -0.2403 -0.2543  0.2218
  228MOL0    Cl30690   0.370   7.164   4.307  0.1128  0.3320 -0.1413
  228MOL0     C30691   1.050   6.526   3.540 -0.1338 -0.3444  0.4961
  228MOL0     C30692   1.130   6.407   3.537 -0.2927 -0.1087  0.2325
  228MOL0     O30693   1.435   6.287   3.582  0.1715  0.3261 -0.2507
  228MOL0     C30694   1.332   5.962   3.657 -0.3352 -0.0633 -0.8363
  228MOL0     C30695   1.364   5.824   3.643  0.2382 -0.3064 -0.0666
  228MOL0     N30696   1.861   5.147   3.366 -0.2625 -0.4925 -0.3172
  228MOL0     N30697   1.962   5.096   3.429  0.4551 -0.8438  0.6102
  228MOL0     C30698   2.654   4.684   4.420  0.4570  0.7524  0.4600
  228MOL0     C30699   2.716   4.760   4.518  0.0210 -0.0406  0.0052
  228MOL0     C30700   3.019   5.080   4.676 -0.4046  0.2254  0.2648
  228MOL0     C30701   2.955   5.080   4.797  0.1543 -0.1972  0.5348
  228MOL0     C30702   3.013   5.137   4.913 -0.2166 -0.3270  0.7379
  228MOL0     C30703   3.133   5.205   4.905 -0.9139 -0.6036 -0.5907
  228MOL0     O30704   3.192   5.236   5.027 -0.4529 -0.4197  0.1717
  228MOL0     C30705   3.221   5.378   5.045 -0.0844 -0.6562 -0.1145
  228MOL0     C30706   3.338   5.402   5.132 -0.4605  0.7307 -0.0400
  228MOL0     C30707   3.292   5.396   5.280 -0.0985  0.6023  0.2713
  228MOL0     C30708   3.262   5.252   5.331 -0.4221 -0.0387 -0.3312
  228MOL0     C30709   3.321   5.213   5.454 -0.1018  0.1923 -0.6283
  228MOL0     C30710   3.364   5.168   5.561 -0.2972  0.4935 -0.4653
  228MOL0     C30711   3.202   5.218   4.787  0.3030  0.1976  0.3630
  228MOL0     C30712   3.138   5.162   4.678 -0.1728  0.3530  0.8029
  228MOL0     H30713   2.823   5.006   4.307 -2.4492  0.4801 -1.4744
  228MOL0     H30714   2.715   4.864   4.142 -2.5584 -0.5807 -0.5588
  228MOL0     H30715   2.407   4.743   4.222  1.5428  1.5180  1.9266
  228MOL0     H30716   2.502   4.766   4.064  1.3028 -1.0958 -0.4246
  228MOL0     H30717   2.462   4.549   3.993  1.2120  2.1439 -1.1129
  228MOL0     H30718   2.386   4.512   4.148  1.8325  1.5522  1.4430
  228MOL0     H30719   2.227   4.541   3.964 -0.7708  1.1663  1.0747
  228MOL0     H30720   2.199   4.674   4.086 -0.1121  3.2513 -1.3997
  228MOL0     H30721   2.340   4.825   3.929 -0.7380  1.0106 -0.2596
  228MOL0     H30722   2.365   4.681   3.836  0.8792 -0.7075  2.7505
  228MOL0     H30723   2.126   4.699   3.775  1.0877 -0.3682  0.0628
  228MOL0     H30724   2.096   4.831   3.894 -0.9103 -0.2391 -0.6920
  228MOL0     H30725   2.247   4.979   3.764 -2.9638  1.4023 -0.9869
  228MOL0     H30726   2.276   4.842   3.647  1.5828  1.0746 -0.4107
  228MOL0     H30727   2.104   4.905   3.534  2.0008  1.3519  0.1887
  228MOL0     H30728   1.996   4.861   3.660  0.6170 -1.6120 -4.0686
  228MOL0     H30729   2.145   5.132   3.619 -1.0219 -0.0250 -1.3258
  228MOL0     H30730   2.025   5.111   3.747 -1.2356  1.8350 -0.1487
  228MOL0     H30731   1.792   5.180   3.682 -2.9136 -1.3619 -0.8623
  228MOL0     H30732   1.617   5.266   3.337  0.8938 -0.8168  0.3909
  228MOL0     H30733   1.547   5.188   3.482 -2.3023  1.7574 -1.1321
  228MOL0     H30734   1.706   5.452   3.499  0.5774 -1.1847 -2.2343
  228MOL0     H30735   1.627   5.358   3.627 -0.7820 -3.4174 -0.0695
  228MOL0     H30736   1.416   5.346   3.538 -1.6413  1.9708 -1.8731
  228MOL0     H30737   1.456   5.449   3.397  0.2232 -2.1840 -0.8560
  228MOL0     H30738   1.484   5.533   3.687  1.1037 -1.9053 -0.5493
  228MOL0     H30739   1.337   5.566   3.591 -0.4083 -0.7099 -0.2307
  228MOL0     H30740   1.587   5.850   3.393 -0.1850 -3.3691  0.6654
  228MOL0     H30741   1.603   6.066   3.306  2.4949 -2.6424  2.5778
  228MOL0     H30742   1.476   6.197   3.344  1.4138  2.6812  0.6687
  228MOL0     H30743   1.622   6.200   3.428  1.8226 -0.1047 -3.5714
  228MOL0     H30744   1.162   6.371   3.869 -1.2440  3.0688  2.1149
  228MOL0     H30745   1.026   6.558   3.876  3.0546 -1.7654  1.8087
  228MOL0     H30746   0.769   6.631   3.774 -2.7393  1.9333 -0.7488
  228MOL0     H30747   0.888   6.743   3.841  0.5663  1.7446 -0.3006
  228MOL0     H30748   0.805   6.928   3.752 -0.5575  0.7390 -3.2979
  228MOL0     H30749   0.713   6.843   3.626  0.2510 -0.5896  0.0365
  228MOL0     H30750   0.572   6.746   3.805 -3.0643  0.5811 -2.8022
  228MOL0     H30751   0.548   6.908   3.778 -2.3449 -0.9294  1.2673
  228MOL0     H30752   0.726   6.800   3.998  1.9056  0.1877 -1.8239
  228MOL0     H30753   0.713   6.964   3.966  0.0811 -0.6318 -1.6014
  228MOL0     H30754   0.457   6.806   4.049  0.4358  0.9729  0.2495
  228MOL0     H30755   0.466   6.970   4.009  0.7166 -1.9677 -2.5138
  228MOL0     H30756   0.623   6.833   4.239 -0.3225  1.6282  2.1026
  228MOL0     H30757   0.603   7.015   4.218  0.4110  0.3791 -1.2938
  228MOL0     H30758   0.467   6.933   4.401  0.2852  3.6299 -0.6517
  228MOL0     H30759   0.394   6.804   4.288 -3.7025  2.3894  1.0180
  228MOL0     H30760   0.242   6.956   4.311 -0.2746 -2.1632 -1.1117
  228MOL0     H30761   0.310   6.992   4.152  2.2880 -3.7816 -0.4125
  228MOL0     H30762   1.020   6.563   3.443  0.2938  3.2735  1.6161
  228MOL0     H30763   1.151   6.360   3.441 -0.8279 -0.8469  0.4673
  228MOL0     H30764   1.257   5.997   3.727 -3.3194  1.0596 -4.2778
  228MOL0     H30765   1.320   5.750   3.709 -0.1709 -2.0840 -2.2318
  228MOL0     H30766   2.604   4.593   4.452  1.7214  0.3783  1.4718
  228MOL0     H30767   2.718   4.739   4.624  1.6060  3.0069  0.6941
  228MOL0     H30768   2.865   5.023   4.816 -0.0623  0.5304  1.7856
  228MOL0     H30769   2.963   5.155   5.007  2.5675  0.8215  2.1345
  228MOL0     H30770   3.253   5.414   4.946  2.0228  2.9880  1.6931
  228MOL0     H30771   3.132   5.437   5.072 -1.7864 -3.0433 -0.2114
  228MOL0     H30772   3.376   5.499   5.099  0.8250  0.6623  1.0982
  228MOL0     H30773   3.405   5.319   5.108 -0.5587  0.0577  1.8468
  228MOL0     H30774   3.211   5.469   5.294  1.9523  3.2962 -0.9453
  228MOL0     H30775   3.369   5.425   5.352  0.2903 -3.0175  1.5034
  228MOL0     H30776   3.287   5.174   5.258  3.9598  2.2412 -1.6445
  228MOL0     H30777   3.155   5.238   5.341 -0.5065  1.1230  0.6244
  228MOL0     H30778   3.415   5.153   5.655  1.5652  3.0944 -0.9498
  228MOL0     H30779   3.291   5.273   4.761 -0.2049  0.8574 -0.0213
  228MOL0     H30780   3.183   5.178   4.580  2.3889 -3.0797  1.2239
  229MOL0     O30781   7.145  11.255   1.893 -0.0418  0.0542  0.1087
  229MOL0     C30782   7.203  11.340   1.830 -1.0756 -0.1983  0.3944
  229MOL0     O30783   7.187  11.478   1.847  0.4381 -0.2971 -0.3507
  229MOL0     C30784   7.116  11.526   1.952  0.8238 -0.9368 -0.2459
  229MOL0     C30785   7.181  11.613   2.033 -0.4378 -0.5884  1.5003
  229MOL0     C30786   7.103  11.679   2.142  0.0458  0.5167  0.6398
  229MOL0     C30787   6.975  11.640   2.166  0.1947  1.2509  0.6011
  229MOL0     O30788   6.907  11.687   2.270  0.0066  0.7800 -0.2362
  229MOL0     C30789   6.961  11.669   2.397  0.3883  0.0164  0.0169
  229MOL0     C30790   6.867  11.577   2.473 -0.2346  0.2361  0.6591
  229MOL0     C30791   6.866  11.431   2.438 -1.2618  0.9739  0.0103
  229MOL0     C30792   7.004  11.361   2.415  0.0285 -0.3277  0.0169
  229MOL0     C30793   6.988  11.204   2.395 -0.3648 -0.4145  0.1421
  229MOL0     C30794   7.114  11.136   2.352  0.3337 -0.6784  0.2468
  229MOL0     C30795   7.158  11.174   2.210  0.5689  1.0076  0.5324
  229MOL0     C30796   7.270  11.086   2.154 -0.4670  0.2908  0.0066
  229MOL0     N30797   7.239  10.941   2.155 -0.1644  0.0158 -0.6764
  229MOL0     C30798   7.151  10.879   2.078  0.4675 -0.2805 -0.3235
  229MOL0     C30799   7.159  10.746   2.115  0.0273 -0.4460  0.2636
  229MOL0     C30800   7.064  10.635   2.076  0.1838 -0.3316 -0.7547
  229MOL0     C30801   6.962  10.587   2.181  0.3306  0.5151 -1.2673
  229MOL0     C30802   7.031  10.497   2.284  0.3351 -0.3798  0.3020
  229MOL0     C30803   6.982  10.513   2.424 -0.5687  0.4176  0.4937
  229MOL0     O30804   6.851  10.465   2.434  0.0890 -0.8188 -0.0001
  229MOL0     C30805   6.755  10.553   2.471  0.0415  0.3945 -1.0406
  229MOL0     C30806   6.752  10.688   2.465  0.9271  0.3920  0.6763
  229MOL0     C30807   6.638  10.760   2.506  0.8385 -0.3992 -0.8188
  229MOL0     C30808   6.659  10.908   2.523 -0.1993  1.0031  0.3430
  229MOL0     C30809   6.522  10.691   2.566 -0.6368  0.9192  0.0901
  229MOL0     C30810   6.392  10.745   2.613 -0.5825 -0.5351 -0.1857
  229MOL0     O30811   6.327  10.672   2.718 -0.4941 -1.0400  0.4179
  229MOL0     C30812   6.229  10.733   2.783  0.1773  0.4785  0.0920
  229MOL0     C30813   6.227  10.715   2.925 -0.0697  1.1592 -1.1428
  229MOL0     C30814   6.115  10.744   2.992  0.8814 -0.2900 -0.0936
  229MOL0     C30815   6.006  10.813   2.934  0.2299  0.3293 -0.3684
  229MOL0     O30816   5.902  10.860   3.017  0.0555  0.5943 -0.2198
  229MOL0     C30817   5.775  10.871   2.951  0.2663 -0.3478  0.7066
  229MOL0     C30818   5.677  10.948   3.039  0.0225 -0.6196 -0.3139
  229MOL0     C30819   5.532  10.963   2.981 -0.8132 -0.5785  0.0338
  229MOL0     C30820   5.443  11.058   3.057  1.1182 -0.5304 -0.0116
  229MOL0     C30821   5.293  11.054   3.011  0.2786 -0.6978  0.7662
  229MOL0     C30822   5.204  10.939   3.060 -0.4933 -0.1067 -0.1817
  229MOL0     C30823   5.063  10.957   3.001 -0.1542  0.4188 -1.1781
  229MOL0     C30824   4.976  10.837   3.022 -0.0861 -0.3756 -0.1446
  229MOL0    Cl30825   4.826  10.843   2.944  0.4096 -0.7781 -0.5367
  229MOL0     C30826   6.015  10.833   2.798  0.4525 -0.2526  0.7203
  229MOL0     C30827   6.117  10.791   2.716 -0.2250  0.1967  0.1565
  229MOL0     O30828   6.349  10.849   2.559 -0.2437  0.1615 -0.4194
  229MOL0     C30829   6.524  10.548   2.566 -0.4524 -0.4351  0.4775
  229MOL0     C30830   6.643  10.491   2.522  1.6950  0.7900  0.1129
  229MOL0     N30831   7.271  10.733   2.196  0.3738  0.5310  0.0437
  229MOL0     N30832   7.309  10.854   2.236  0.6635  0.5599  0.0773
  229MOL0     C30833   6.905  11.552   2.080 -0.7208 -0.1075 -0.3674
  229MOL0     C30834   6.983  11.495   1.977  0.4855  0.7900  0.8206
  229MOL0     C30835   7.313  11.301   1.732 -0.2384  0.3482  0.3408
  229MOL0     C30836   7.326  11.178   1.669  0.2347 -0.4251  0.3329
  229MOL0     C30837   7.436  11.143   1.603 -0.9445  0.2724 -0.8324
  229MOL0     C30838   7.552  11.219   1.614 -0.1940 -0.3436 -0.8492
  229MOL0     O30839   7.675  11.182   1.564  0.5364  0.1301 -0.4836
  229MOL0     C30840   7.698  11.079   1.466 -0.5612  0.3385 -0.1337
  229MOL0     C30841   7.743  10.948   1.527 -0.3015  0.0164  0.5816
  229MOL0     C30842   7.727  10.819   1.435 -0.4775  0.0419 -0.5995
  229MOL0     C30843   7.820  10.708   1.485  1.6118 -0.4550  0.3571
  229MOL0     C30844   7.930  10.696   1.385 -0.2260 -0.2972  0.6239
  229MOL0     C30845   8.022  10.685   1.303 -0.1484 -0.4056  0.3833
  229MOL0     C30846   7.538  11.345   1.670 -0.0540  0.6349 -0.2431
  229MOL0     C30847   7.419  11.392   1.724 -0.4298 -0.2481 -0.3548
  229MOL0     H30848   7.285  11.637   2.014 -0.4382 -1.3081  0.5157
  229MOL0     H30849   7.142  11.744   2.220 -2.2295 -0.8436  3.1051
  229MOL0     H30850   7.059  11.622   2.389  0.1449 -0.6042  0.5457
  229MOL0     H30851   6.972  11.768   2.441  0.5991 -0.0091  0.0235
  229MOL0     H30852   6.900  11.585   2.577  0.1949 -2.0994  0.7465
  229MOL0     H30853   6.766  11.617   2.458 -0.7096  0.2430  3.3244
  229MOL0     H30854   6.825  11.372   2.521 -0.3113  0.1495 -0.0871
  229MOL0     H30855   6.798  11.416   2.353 -1.0848 -0.3783  0.0871
  229MOL0     H30856   7.048  11.407   2.326 -1.0494 -0.6460 -0.7062
  229MOL0     H30857   7.073  11.396   2.491 -0.9293  3.0875 -0.5030
  229MOL0     H30858   6.962  11.167   2.494 -1.7544  1.4083  0.5170
  229MOL0     H30859   6.915  11.194   2.314 -0.5619 -0.1601  0.2870
  229MOL0     H30860   7.194  11.156   2.424 -0.5729  0.0404  1.0803
  229MOL0     H30861   7.105  11.027   2.360  2.9629 -1.1930 -2.0770
  229MOL0     H30862   7.068  11.168   2.148 -0.0818 -0.6423  1.5645
  229MOL0     H30863   7.189  11.278   2.216 -2.9829  2.1382  1.2938
  229MOL0     H30864   7.366  11.101   2.205 -1.6921  4.0734  1.5069
  229MOL0     H30865   7.283  11.130   2.055 -1.0535 -0.1715 -0.2848
  229MOL0     H30866   7.082  10.943   2.023  2.0952  2.7633  0.9205
  229MOL0     H30867   7.011  10.671   1.987 -3.2900 -3.0013 -0.0121
  229MOL0     H30868   7.125  10.547   2.054  1.5397  0.4998 -0.4302
  229MOL0     H30869   6.880  10.531   2.136 -0.9212  2.3544 -1.3872
  229MOL0     H30870   6.910  10.672   2.225  1.3396  0.6108 -0.2053
  229MOL0     H30871   7.138  10.517   2.282  0.4848 -1.2219 -0.3539
  229MOL0     H30872   7.009  10.396   2.247 -2.1273  0.8634 -2.0259
  229MOL0     H30873   6.994  10.614   2.463  0.2349  0.3232  0.5028
  229MOL0     H30874   7.043  10.454   2.493 -0.2083  1.9401  1.5321
  229MOL0     H30875   6.838  10.746   2.433 -0.1365  1.7417  0.1636
  229MOL0     H30876   6.747  10.943   2.468  2.2177 -3.2410  1.1097
  229MOL0     H30877   6.567  10.959   2.492 -0.8213  0.6059  1.4749
  229MOL0     H30878   6.683  10.914   2.630  1.0481 -0.6411  0.1855
  229MOL0     H30879   6.308  10.663   2.976 -3.4034 -1.3628  2.1808
  229MOL0     H30880   6.110  10.734   3.100 -1.5573 -2.4689 -0.3073
  229MOL0     H30881   5.785  10.934   2.863  2.0763  1.4802  2.1209
  229MOL0     H30882   5.727  10.774   2.936 -2.8273  1.0263  1.0681
  229MOL0     H30883   5.661  10.894   3.133 -2.6768  0.7081  0.0973
  229MOL0     H30884   5.718  11.047   3.061 -0.1528 -0.5518 -0.2924
  229MOL0     H30885   5.487  10.863   2.982 -0.5284 -0.7816 -2.6037
  229MOL0     H30886   5.521  10.991   2.876 -1.7953  1.3577  0.6042
  229MOL0     H30887   5.454  11.051   3.166 -0.3290  1.3071  0.3079
  229MOL0     H30888   5.477  11.157   3.026 -0.4593  0.2791  0.7330
  229MOL0     H30889   5.283  11.074   2.904  0.3384  2.0798  1.2123
  229MOL0     H30890   5.246  11.137   3.064  0.0081  0.3180 -0.9968
  229MOL0     H30891   5.253  10.845   3.033 -1.9817 -0.6362 -1.1584
  229MOL0     H30892   5.206  10.939   3.170 -0.9977  1.6735 -0.1531
  229MOL0     H30893   5.077  10.973   2.894 -0.8075  1.8132 -1.0829
  229MOL0     H30894   5.003  11.039   3.042 -2.6108 -1.6666 -0.2774
  229MOL0     H30895   4.958  10.826   3.130 -0.6589  0.0738 -0.1915
  229MOL0     H30896   5.028  10.753   2.976  2.1659  2.3504 -2.9570
  229MOL0     H30897   5.936  10.881   2.740  0.1954 -1.5783 -0.0749
  229MOL0     H30898   6.116  10.798   2.608  3.3019  0.4735  0.0335
  229MOL0     H30899   6.447  10.487   2.611  1.5851 -1.2802  3.0430
  229MOL0     H30900   6.642  10.383   2.513 -2.5798  0.4117  2.3753
  229MOL0     H30901   6.799  11.537   2.095 -1.0743  1.9924 -0.5092
  229MOL0     H30902   6.935  11.423   1.912 -2.7035 -0.6548  4.3942
  229MOL0     H30903   7.242  11.109   1.675  0.9691 -1.1887  3.0550
  229MOL0     H30904   7.441  11.059   1.534 -3.6282  0.5139 -1.4525
  229MOL0     H30905   7.605  11.070   1.410 -1.0603 -0.6233  0.8232
  229MOL0     H30906   7.775  11.103   1.392  1.8093 -0.5440  1.8832
  229MOL0     H30907   7.679  10.930   1.614  1.9872 -1.9237  2.0076
  229MOL0     H30908   7.847  10.949   1.560  0.4292 -2.1081 -1.3265
  229MOL0     H30909   7.756  10.852   1.334  2.7382  2.7295  1.0031
  229MOL0     H30910   7.625  10.779   1.430 -0.4325 -0.5425  1.8796
  229MOL0     H30911   7.762  10.617   1.502 -3.1056  2.3731  1.2740
  229MOL0     H30912   7.858  10.721   1.587  4.5295 -1.7612 -0.4484
  229MOL0     H30913   8.105  10.671   1.238  0.1756 -2.9497  1.2294
  229MOL0     H30914   7.622  11.413   1.662  1.4807 -1.0641  0.7825
  229MOL0     H30915   7.419  11.490   1.771  3.6970  1.2478 -2.9269
  230MOL0     O30916   1.437   2.411   3.459 -0.4039 -0.5460  0.8321
  230MOL0     C30917   1.401   2.530   3.452 -0.4157  0.6800  0.8135
  230MOL0     O30918   1.455   2.632   3.376  0.5129  0.0102  0.2772
  230MOL0     C30919   1.570   2.601   3.306  0.2649 -0.1693  0.2523
  230MOL0     C30920   1.688   2.571   3.371 -0.2697  0.7899 -0.3174
  230MOL0     C30921   1.805   2.540   3.297 -1.2619  0.9415  0.3361
  230MOL0     C30922   1.795   2.530   3.152  0.3956  0.1513  0.0300
  230MOL0     O30923   1.902   2.495   3.069 -0.1906  0.5800  0.1554
  230MOL0     C30924   2.033   2.492   3.123 -0.4813  0.4008  1.1793
  230MOL0     C30925   2.122   2.437   3.012 -0.1995  0.1039 -0.2297
  230MOL0     C30926   2.090   2.299   2.955  0.2555 -0.4798 -0.0029
  230MOL0     C30927   2.167   2.273   2.824 -0.7138 -0.0065  0.2114
  230MOL0     C30928   2.092   2.169   2.724 -0.3770 -0.4912 -0.5023
  230MOL0     C30929   2.100   2.024   2.778  0.3388  0.4790 -0.3663
  230MOL0     C30930   2.002   1.926   2.700  0.8535  0.6497 -0.2540
  230MOL0     C30931   2.016   1.774   2.721  0.2312 -0.1208  0.8133
  230MOL0     N30932   1.917   1.710   2.644  0.2624  0.2537 -0.7602
  230MOL0     C30933   1.928   1.694   2.510  0.3290 -0.1092  0.7832
  230MOL0     C30934   1.801   1.652   2.473 -1.0400  0.0221 -1.1468
  230MOL0     C30935   1.750   1.616   2.339  0.1089 -0.3772 -0.5021
  230MOL0     C30936   1.598   1.621   2.316 -0.5529  0.1284 -0.2848
  230MOL0     C30937   1.551   1.741   2.235  0.0386 -0.1336  0.4098
  230MOL0     C30938   1.401   1.723   2.194 -0.2299 -0.5471 -0.2652
  230MOL0     O30939   1.315   1.724   2.314 -0.4830 -0.0084  0.6718
  230MOL0     C30940   1.173   1.734   2.292  0.3373 -0.9566 -0.6861
  230MOL0     C30941   1.109   1.725   2.173 -0.1943  0.1499  0.4575
  230MOL0     C30942   0.970   1.745   2.150  0.2840  1.1780 -0.6064
  230MOL0     C30943   0.913   1.730   2.003 -0.4249 -0.2590 -0.6630
  230MOL0     C30944   0.891   1.790   2.261 -0.5838  0.5390 -0.0654
  230MOL0     C30945   0.739   1.806   2.259  0.3436  0.1751  0.1748
  230MOL0     O30946   0.679   1.832   2.379 -0.2861  0.2554 -0.5316
  230MOL0     C30947   0.549   1.869   2.368  0.0028 -0.0229 -0.0469
  230MOL0     C30948   0.517   2.008   2.400  0.0202  0.2209  0.2312
  230MOL0     C30949   0.384   2.048   2.378 -0.0024 -0.3443 -0.2965
  230MOL0     C30950   0.281   1.966   2.344 -0.2500  0.4758 -0.4755
  230MOL0     O30951   0.154   2.006   2.357  0.3257  0.8480  0.3349
  230MOL0     C30952   0.051   1.937   2.287 -0.7167  0.0090 -0.6049
  230MOL0     C30953  -0.080   2.004   2.329  0.6872  0.7550  0.4680
  230MOL0     C30954  -0.099   2.149   2.263  0.1949  0.7004  0.2296
  230MOL0     C30955  -0.225   2.192   2.330  0.6465 -1.2139  0.1765
  230MOL0     C30956  -0.279   2.322   2.263 -0.5965 -0.4045 -0.4436
  230MOL0     C30957  -0.400   2.375   2.337 -0.0408 -0.3510 -0.4802
  230MOL0     C30958  -0.412   2.534   2.327 -0.6897  0.4908  0.3965
  230MOL0     C30959  -0.550   2.584   2.373  0.8732 -0.0819  0.1745
  230MOL0    Cl30960  -0.677   2.561   2.247  0.1781  0.6652  0.4874
  230MOL0     C30961   0.322   1.829   2.325 -0.4264  0.4034 -0.2910
  230MOL0     C30962   0.454   1.776   2.339 -0.1465 -0.3054  0.3143
  230MOL0     O30963   0.685   1.826   2.150 -0.2230 -0.0958 -0.6899
  230MOL0     C30964   0.958   1.796   2.384 -0.1309  0.2963 -1.3767
  230MOL0     C30965   1.094   1.775   2.400 -0.0500  0.1987 -0.5273
  230MOL0     N30966   1.721   1.648   2.587 -0.3808  0.1355 -0.3818
  230MOL0     N30967   1.792   1.684   2.688 -0.6436  0.3764 -0.1085
  230MOL0     C30968   1.678   2.555   3.088  0.8005  0.4231  1.4070
  230MOL0     C30969   1.569   2.592   3.162  0.3718 -0.8120 -0.5675
  230MOL0     C30970   1.271   2.564   3.513  0.0289  0.1322  0.7491
  230MOL0     C30971   1.181   2.640   3.443 -0.0607 -1.0844 -0.1563
  230MOL0     C30972   1.068   2.686   3.507 -0.4212  0.0975  0.0401
  230MOL0     C30973   1.023   2.626   3.630 -0.7661 -0.3746 -0.0409
  230MOL0     O30974   0.906   2.666   3.691 -0.4300  0.0163 -0.8380
  230MOL0     C30975   0.835   2.781   3.657 -0.2214 -0.6219 -0.2890
  230MOL0     C30976   0.735   2.749   3.556  0.1389  0.3403  0.3256
  230MOL0     C30977   0.617   2.674   3.616  0.3540  0.3838  0.9174
  230MOL0     C30978   0.497   2.646   3.525 -0.2463  0.4530 -0.2525
  230MOL0     C30979   0.385   2.586   3.601  1.0494 -0.0305  0.1546
  230MOL0     C30980   0.285   2.546   3.660  1.1797  1.0639 -0.3232
  230MOL0     C30981   1.113   2.543   3.697 -0.3175  0.0750  0.4028
  230MOL0     C30982   1.232   2.511   3.637 -0.4130 -0.3014 -0.4326
  230MOL0     H30983   1.684   2.562   3.479  2.5617  0.9047 -0.1152
  230MOL0     H30984   1.903   2.526   3.342 -1.3571 -0.9620  0.0302
  230MOL0     H30985   2.070   2.592   3.147  3.5367 -0.0982 -1.7945
  230MOL0     H30986   2.045   2.426   3.210 -0.0835 -0.7376  0.2989
  230MOL0     H30987   2.110   2.504   2.926  0.5297 -2.3987 -2.4272
  230MOL0     H30988   2.228   2.430   3.038  0.8755  3.1342 -3.0903
  230MOL0     H30989   2.112   2.212   3.018  0.6232 -2.0163 -2.1220
  230MOL0     H30990   1.983   2.295   2.935  0.2175 -1.1285  0.3061
  230MOL0     H30991   2.195   2.365   2.771 -0.4444 -1.0373 -1.5266
  230MOL0     H30992   2.265   2.228   2.839  1.2920  2.2880 -3.9610
  230MOL0     H30993   1.986   2.193   2.713 -0.7441 -1.5868  0.3994
  230MOL0     H30994   2.149   2.175   2.631  1.9860  2.0951  0.9944
  230MOL0     H30995   2.203   1.987   2.767 -0.0625 -0.2021 -2.0562
  230MOL0     H30996   2.071   2.020   2.884  3.0898 -1.1624  0.4423
  230MOL0     H30997   1.896   1.953   2.706 -0.0797 -2.1295 -2.1771
  230MOL0     H30998   2.037   1.945   2.598  0.3059  0.2484 -0.5245
  230MOL0     H30999   2.004   1.741   2.825 -0.1049 -1.6044  0.3298
  230MOL0     H31000   2.117   1.757   2.685  0.3281  1.4286  0.3011
  230MOL0     H31001   2.012   1.712   2.443 -0.4295 -0.8332 -0.4064
  230MOL0     H31002   1.807   1.675   2.267  1.1821 -2.4468 -1.4492
  230MOL0     H31003   1.779   1.511   2.335  0.3023 -0.5740  3.0593
  230MOL0     H31004   1.544   1.606   2.410  1.1673  3.3112  1.3692
  230MOL0     H31005   1.575   1.538   2.247 -0.3983 -0.2475  0.1101
  230MOL0     H31006   1.606   1.744   2.140  1.7054 -0.3179  1.3482
  230MOL0     H31007   1.562   1.830   2.297 -2.5652  0.0251  0.7753
  230MOL0     H31008   1.396   1.640   2.123  0.0694 -2.2566  1.6054
  230MOL0     H31009   1.376   1.806   2.128  0.8335 -0.4684 -0.5749
  230MOL0     H31010   1.163   1.723   2.079  1.1921 -0.4358  1.2358
  230MOL0     H31011   0.852   1.640   1.989  0.5280 -0.8971 -0.8261
  230MOL0     H31012   0.862   1.824   1.979 -1.2461  0.1202  2.1398
  230MOL0     H31013   0.997   1.726   1.934  0.5939  0.2100  0.5077
  230MOL0     H31014   0.597   2.074   2.434 -1.2479  1.5521  0.7156
  230MOL0     H31015   0.351   2.150   2.397 -1.0350 -0.6695 -0.2795
  230MOL0     H31016   0.071   1.948   2.180 -0.0815  1.4194 -0.3658
  230MOL0     H31017   0.048   1.830   2.308  1.5597  0.2790  1.6794
  230MOL0     H31018  -0.168   1.945   2.303  2.1393 -1.0344 -0.6331
  230MOL0     H31019  -0.075   2.006   2.439  1.0805  1.0582  0.4482
  230MOL0     H31020  -0.110   2.147   2.154 -1.3252 -5.5091  0.1125
  230MOL0     H31021  -0.017   2.210   2.302 -0.4178 -0.2087  3.1728
  230MOL0     H31022  -0.303   2.117   2.316  0.9168 -0.9492 -3.5001
  230MOL0     H31023  -0.212   2.204   2.438 -1.2361 -0.0685  0.3316
  230MOL0     H31024  -0.291   2.296   2.157  0.6818 -3.0134 -0.0381
  230MOL0     H31025  -0.197   2.393   2.278 -2.1820  1.4005  0.0432
  230MOL0     H31026  -0.492   2.322   2.311 -0.0888 -0.9197  0.7735
  230MOL0     H31027  -0.374   2.350   2.440  0.0539  1.4795 -0.0368
  230MOL0     H31028  -0.398   2.563   2.222  2.1686 -0.6149  0.4005
  230MOL0     H31029  -0.321   2.576   2.371  0.2119 -0.5317 -0.4314
  230MOL0     H31030  -0.538   2.691   2.394 -0.5999  0.2551 -0.5930
  230MOL0     H31031  -0.571   2.541   2.471 -1.1742  1.4610  0.4758
  230MOL0     H31032   0.254   1.751   2.292  0.3731 -0.1989 -0.5414
  230MOL0     H31033   0.472   1.670   2.330 -1.2260 -0.5074  0.3659
  230MOL0     H31034   0.909   1.817   2.479  3.0437  0.0935  0.4428
  230MOL0     H31035   1.146   1.786   2.495  1.0861  0.7200 -1.1916
  230MOL0     H31036   1.673   2.564   2.980 -1.0928 -0.6842  1.3615
  230MOL0     H31037   1.483   2.612   3.100  0.9720  0.4380 -1.0365
  230MOL0     H31038   1.207   2.671   3.343  0.1090 -0.6261  0.0289
  230MOL0     H31039   1.007   2.757   3.451 -0.9422 -1.7457 -1.8674
  230MOL0     H31040   0.784   2.821   3.745 -0.4096 -1.2453 -0.1122
  230MOL0     H31041   0.900   2.860   3.618 -0.2083  0.4437  1.7436
  230MOL0     H31042   0.780   2.681   3.483 -2.8747 -0.5527 -0.8624
  230MOL0     H31043   0.711   2.839   3.498 -0.9385 -1.0695 -1.5626
  230MOL0     H31044   0.582   2.721   3.708 -0.9650  0.0171  0.6152
  230MOL0     H31045   0.648   2.571   3.637 -2.4440 -0.9171 -0.7494
  230MOL0     H31046   0.535   2.583   3.445  3.5345  0.9096  1.0019
  230MOL0     H31047   0.456   2.731   3.470  0.8673 -0.2282 -2.1999
  230MOL0     H31048   0.213   2.518   3.734  0.8809  0.2469 -0.9070
  230MOL0     H31049   1.110   2.506   3.799 -2.3931  0.5366  0.5536
  230MOL0     H31050   1.299   2.450   3.697 -0.8362  0.3473  0.7498
  231MOL0     O31051   4.720  11.016   1.094 -0.0847 -0.2137  0.5315
  231MOL0     C31052   4.733  11.128   1.143  0.1359  0.4111  0.9477
  231MOL0     O31053   4.643  11.194   1.224  0.5494 -0.3759 -0.3190
  231MOL0     C31054   4.519  11.135   1.246  0.7277 -1.2522 -0.7380
  231MOL0     C31055   4.465  11.143   1.379  0.4108  0.0644 -0.1638
  231MOL0     C31056   4.345  11.086   1.407 -1.2531  0.1061 -0.1344
  231MOL0     C31057   4.276  11.015   1.309 -0.1003 -0.4882  0.6263
  231MOL0     O31058   4.160  10.948   1.323  0.0032  1.0722 -0.2458
  231MOL0     C31059   4.095  10.965   1.454 -0.0680 -0.4999 -0.0154
  231MOL0     C31060   3.952  10.923   1.451  0.5406  0.8927  0.4174
  231MOL0     C31061   3.908  10.947   1.591 -0.3041 -0.5727  0.2575
  231MOL0     C31062   3.760  10.902   1.594 -0.1427  0.7164 -0.6089
  231MOL0     C31063   3.700  10.917   1.736  0.6691 -1.2475 -0.2270
  231MOL0     C31064   3.557  10.866   1.768  0.0012 -0.7808  0.0672
  231MOL0     C31065   3.525  10.890   1.920 -0.6548  0.4816  0.2023
  231MOL0     C31066   3.592  10.790   2.010  0.6789 -0.0671 -0.2558
  231MOL0     N31067   3.545  10.650   2.000 -0.2972 -0.8767  0.0368
  231MOL0     C31068   3.418  10.612   2.027 -0.0062  0.0857  0.2020
  231MOL0     C31069   3.425  10.473   2.019  0.0405  0.3117 -0.9469
  231MOL0     C31070   3.328  10.365   2.048 -0.6152  0.6575 -0.1056
  231MOL0     C31071   3.216  10.351   1.952 -0.8912  0.7399  0.1871
  231MOL0     C31072   3.258  10.305   1.806 -0.4437  0.7745 -0.0275
  231MOL0     C31073   3.161  10.354   1.699 -0.6313  0.3952 -0.3147
  231MOL0     O31074   3.029  10.303   1.733  0.3215  0.5072 -1.0431
  231MOL0     C31075   2.928  10.358   1.661 -0.8221 -1.0223 -0.0692
  231MOL0     C31076   2.943  10.440   1.551 -0.9568  0.4214 -0.6469
  231MOL0     C31077   2.835  10.480   1.471  0.6557  0.6874  0.7231
  231MOL0     C31078   2.851  10.556   1.347 -0.2224 -0.8809  0.2076
  231MOL0     C31079   2.707  10.440   1.516  0.7659  0.2234  0.0881
  231MOL0     C31080   2.579  10.477   1.461  0.1996 -0.7938 -0.1448
  231MOL0     O31081   2.499  10.381   1.416 -0.4275 -0.3071 -0.0821
  231MOL0     C31082   2.385  10.412   1.348 -0.1133 -0.0214 -0.2161
  231MOL0     C31083   2.379  10.515   1.252 -0.1795  0.1750 -0.2185
  231MOL0     C31084   2.258  10.541   1.195  0.0658  0.0039 -0.6413
  231MOL0     C31085   2.142  10.455   1.219 -0.0763 -1.0178  0.1210
  231MOL0     O31086   2.028  10.481   1.152  0.1651  0.8348 -0.8753
  231MOL0     C31087   1.903  10.455   1.220 -0.1007 -0.8465  0.7703
  231MOL0     C31088   1.791  10.505   1.133  0.1988 -0.9698 -0.8992
  231MOL0     C31089   1.667  10.533   1.204  0.5865 -0.3156 -0.0086
  231MOL0     C31090   1.557  10.527   1.093  0.4381  0.4306  0.4916
  231MOL0     C31091   1.416  10.559   1.128 -0.3368 -0.7501 -0.4480
  231MOL0     C31092   1.348  10.431   1.198  0.5010 -1.4676 -0.5321
  231MOL0     C31093   1.212  10.479   1.254 -0.4984  0.0963 -0.4533
  231MOL0     C31094   1.102  10.372   1.284 -0.9510  0.1812  0.1581
  231MOL0    Cl31095   0.961  10.446   1.344 -0.1083  0.3617 -0.6093
  231MOL0     C31096   2.156  10.354   1.314 -0.8088  0.3350 -0.6719
  231MOL0     C31097   2.273  10.332   1.378 -0.5742 -0.7270  0.0506
  231MOL0     O31098   2.566  10.596   1.448 -0.2607  0.1659  0.1866
  231MOL0     C31099   2.687  10.361   1.629 -0.4095 -0.4086 -0.1522
  231MOL0     C31100   2.801  10.314   1.700 -0.6795 -0.0281  0.5173
  231MOL0     N31101   3.553  10.438   1.989 -0.1331 -0.2401  0.7095
  231MOL0     N31102   3.626  10.550   1.970  0.1322  0.2884 -0.5795
  231MOL0     C31103   4.318  11.018   1.179  0.0824  0.7990 -1.3774
  231MOL0     C31104   4.434  11.082   1.148 -0.5441 -0.2411 -0.3035
  231MOL0     C31105   4.866  11.194   1.121  0.5716 -0.2981  0.3337
  231MOL0     C31106   4.955  11.156   1.015 -1.3006  0.4132 -0.3922
  231MOL0     C31107   5.077  11.217   0.996 -0.6934  0.6268 -1.0950
  231MOL0     C31108   5.121  11.320   1.086  0.3778 -0.0019 -0.5197
  231MOL0     O31109   5.248  11.381   1.086 -0.0673 -0.1412  0.1954
  231MOL0     C31110   5.325  11.352   0.961 -0.0477 -0.3834 -0.3329
  231MOL0     C31111   5.461  11.405   0.981 -0.1436  0.6659 -0.1344
  231MOL0     C31112   5.465  11.552   0.947  0.0817 -0.3584  0.8525
  231MOL0     C31113   5.604  11.613   0.976 -0.2519  0.6300 -0.0227
  231MOL0     C31114   5.713  11.553   0.888  0.3708 -0.2368 -0.6064
  231MOL0     C31115   5.798  11.501   0.822 -0.9352 -0.7964  0.0423
  231MOL0     C31116   5.038  11.356   1.192 -0.3788  0.4660 -0.6973
  231MOL0     C31117   4.908  11.301   1.209  0.1420  0.8641  0.5142
  231MOL0     H31118   4.526  11.184   1.458 -2.7154  1.5020  1.6778
  231MOL0     H31119   4.320  11.092   1.512  2.6708 -1.4862  1.0578
  231MOL0     H31120   4.152  10.911   1.530  1.2997 -0.5630 -1.0381
  231MOL0     H31121   4.099  11.074   1.468 -1.9567 -0.0745 -2.1834
  231MOL0     H31122   3.894  10.985   1.382 -2.5977 -1.4832  0.7026
  231MOL0     H31123   3.956  10.817   1.427 -0.7119 -0.4774  5.1648
  231MOL0     H31124   3.970  10.892   1.662 -0.0245 -2.4386 -1.3652
  231MOL0     H31125   3.915  11.051   1.624 -0.4670  0.2053 -1.9682
  231MOL0     H31126   3.703  10.947   1.513 -0.8659 -1.4723 -1.3824
  231MOL0     H31127   3.768  10.795   1.573  4.1398  0.9896 -1.2301
  231MOL0     H31128   3.754  10.848   1.802 -1.0885 -0.7988  1.8203
  231MOL0     H31129   3.714  11.016   1.779 -0.4481 -1.3966  0.5332
  231MOL0     H31130   3.478  10.911   1.708 -0.0136  0.1865  0.7779
  231MOL0     H31131   3.548  10.759   1.747  0.0970 -1.0188  1.1318
  231MOL0     H31132   3.552  10.992   1.947 -0.9230  0.9388 -1.1648
  231MOL0     H31133   3.416  10.886   1.930 -0.8255  0.1016 -1.5001
  231MOL0     H31134   3.570  10.821   2.112  1.3165 -2.2499  0.5938
  231MOL0     H31135   3.699  10.788   1.990  0.5281 -1.5664 -1.0702
  231MOL0     H31136   3.340  10.686   2.042 -1.4880 -1.3131 -0.3125
  231MOL0     H31137   3.390  10.276   2.064 -0.4947  0.9751  1.3857
  231MOL0     H31138   3.283  10.390   2.144 -1.2955  3.4258 -1.0666
  231MOL0     H31139   3.168  10.449   1.950 -1.7692  0.4311 -3.8973
  231MOL0     H31140   3.138  10.284   1.990  0.6314 -0.3285  1.5605
  231MOL0     H31141   3.249  10.197   1.812 -0.5894  0.8146  0.6200
  231MOL0     H31142   3.355  10.340   1.771  0.2227 -1.1425 -0.1928
  231MOL0     H31143   3.187  10.309   1.602 -1.1151 -1.4339  0.3614
  231MOL0     H31144   3.159  10.463   1.701  1.5822  0.5439 -2.3255
  231MOL0     H31145   3.041  10.475   1.519  0.8782 -2.6880  1.0500
  231MOL0     H31146   2.774  10.547   1.270  0.2499  3.8199 -1.1266
  231MOL0     H31147   2.845  10.662   1.372 -3.5397 -0.3863 -2.1081
  231MOL0     H31148   2.949  10.544   1.300 -0.0488  1.0840 -0.0094
  231MOL0     H31149   2.463  10.580   1.230 -0.7230  0.9206 -0.1238
  231MOL0     H31150   2.258  10.617   1.117  1.9246 -0.8211 -1.5072
  231MOL0     H31151   1.884  10.348   1.237 -3.1484 -0.0675  3.1810
  231MOL0     H31152   1.886  10.500   1.319 -3.6594  0.2692 -0.1924
  231MOL0     H31153   1.837  10.595   1.090  1.6200 -1.1408  0.1646
  231MOL0     H31154   1.780  10.433   1.052  2.1137 -1.1676 -1.0247
  231MOL0     H31155   1.668  10.637   1.238  2.4259 -0.3168  0.0070
  231MOL0     H31156   1.652  10.464   1.287 -0.1166 -0.9538 -0.6487
  231MOL0     H31157   1.593  10.603   1.023  1.5375  0.7379  1.3569
  231MOL0     H31158   1.562  10.426   1.052 -2.3408 -0.2303  1.5714
  231MOL0     H31159   1.354  10.584   1.041 -0.4959 -1.5118 -0.5680
  231MOL0     H31160   1.418  10.643   1.198  6.1065  0.2590 -1.2443
  231MOL0     H31161   1.336  10.354   1.122  0.7950 -0.4953 -1.5911
  231MOL0     H31162   1.411  10.394   1.279  1.3802  0.6098 -0.1981
  231MOL0     H31163   1.160  10.546   1.184  1.2388  2.2549  0.1771
  231MOL0     H31164   1.240  10.537   1.343 -0.5748 -0.9524  0.2701
  231MOL0     H31165   1.133  10.292   1.352  2.4278 -0.0052 -1.3928
  231MOL0     H31166   1.084  10.316   1.192  0.9970 -0.5776  0.1921
  231MOL0     H31167   2.075  10.284   1.332  1.0551 -2.4560 -2.3839
  231MOL0     H31168   2.280  10.250   1.449  1.8563  0.3667  1.1743
  231MOL0     H31169   2.586  10.329   1.655 -1.2686  1.0882 -1.4934
  231MOL0     H31170   2.796  10.230   1.770  0.6100 -1.2737 -0.8102
  231MOL0     H31171   4.260  10.961   1.108  0.8175  0.2787 -1.5594
  231MOL0     H31172   4.471  11.084   1.046  0.7274 -0.9491  0.1267
  231MOL0     H31173   4.924  11.079   0.945 -4.8157  1.3780 -0.0824
  231MOL0     H31174   5.137  11.178   0.915  0.9771  0.7278  0.0513
  231MOL0     H31175   5.337  11.243   0.956  1.6529 -0.3985  2.4442
  231MOL0     H31176   5.286  11.388   0.865 -3.8625  0.7811  1.4161
  231MOL0     H31177   5.522  11.348   0.911 -0.7227  1.7176 -1.5457
  231MOL0     H31178   5.492  11.379   1.083 -0.5419  0.6315 -0.0215
  231MOL0     H31179   5.406  11.602   1.024 -0.7282  0.6399 -0.3813
  231MOL0     H31180   5.413  11.571   0.853  0.1071 -1.2920  0.6316
  231MOL0     H31181   5.633  11.602   1.081 -1.1595 -1.1927  0.0774
  231MOL0     H31182   5.597  11.722   0.971 -1.4619  0.7400  2.3626
  231MOL0     H31183   5.868  11.460   0.752 -0.5174 -1.3617  0.7783
  231MOL0     H31184   5.062  11.431   1.267 -2.0600 -0.7101  1.1429
  231MOL0     H31185   4.845  11.340   1.289  0.0824  2.0631 -0.0900
  232MOL0     O31186   8.937   2.100   8.589 -0.4335  0.4451 -0.3228
  232MOL0     C31187   8.888   2.101   8.477 -0.3416  0.7474 -0.0259
  232MOL0     O31188   8.954   2.075   8.362 -0.2345 -0.2727 -0.0146
  232MOL0     C31189   9.086   2.089   8.341  0.4261  0.4231  0.5517
  232MOL0     C31190   9.183   2.016   8.409 -0.4114  0.0867  0.0025
  232MOL0     C31191   9.316   2.049   8.384  0.1921 -0.4478  0.4059
  232MOL0     C31192   9.355   2.166   8.299 -0.1194  0.8349 -0.9772
  232MOL0     O31193   9.490   2.201   8.292  0.4697  0.3083  0.2440
  232MOL0     C31194   9.528   2.326   8.221 -0.4487 -0.3584  0.4888
  232MOL0     C31195   9.679   2.343   8.251  0.5968  0.5012 -0.1841
  232MOL0     C31196   9.708   2.491   8.267  0.0462  0.0201  0.0178
  232MOL0     C31197   9.856   2.509   8.306  0.3750  0.0737  0.1033
  232MOL0     C31198   9.873   2.661   8.284  0.0396 -0.4127 -0.2947
  232MOL0     C31199  10.008   2.709   8.323 -0.6628 -0.4504  0.1990
  232MOL0     C31200   9.998   2.865   8.323  0.0898 -0.5192 -0.4877
  232MOL0     C31201  10.126   2.927   8.389  0.0304 -0.0887 -0.0840
  232MOL0     N31202  10.167   3.037   8.304 -0.1143 -0.4827 -0.1761
  232MOL0     C31203  10.245   3.027   8.191  0.1953 -0.7081 -0.4232
  232MOL0     C31204  10.227   3.153   8.143  0.1333 -0.3732 -0.2156
  232MOL0     C31205  10.296   3.194   8.018 -0.2557  0.1896 -0.4541
  232MOL0     C31206  10.198   3.257   7.919 -0.1364 -0.8893 -0.2561
  232MOL0     C31207  10.094   3.158   7.879 -0.3104 -0.1782  0.1585
  232MOL0     C31208   9.979   3.233   7.803  0.0199 -0.2832  0.2361
  232MOL0     O31209   9.903   3.131   7.744  0.4955 -0.5305 -0.5280
  232MOL0     C31210   9.794   3.164   7.665  0.4329  0.2053  0.7693
  232MOL0     C31211   9.748   3.286   7.637  0.2103  0.0716  0.5947
  232MOL0     C31212   9.630   3.302   7.557 -0.5796 -0.4971 -1.0940
  232MOL0     C31213   9.577   3.440   7.540 -0.0619  0.3473 -0.5959
  232MOL0     C31214   9.569   3.188   7.507 -0.9318 -0.8254 -0.4532
  232MOL0     C31215   9.449   3.174   7.426 -0.1248 -0.1389 -0.2517
  232MOL0     O31216   9.453   3.066   7.347 -0.4500  0.4650  0.1190
  232MOL0     C31217   9.372   3.055   7.229 -0.7802  0.0194 -1.1656
  232MOL0     C31218   9.436   3.064   7.095  0.4421  0.3516 -0.3214
  232MOL0     C31219   9.358   3.043   6.981 -0.4911 -0.5116 -0.3066
  232MOL0     C31220   9.222   3.015   6.994 -0.0688  0.6553 -0.2510
  232MOL0     O31221   9.130   3.003   6.889  0.2522  0.3117 -0.3395
  232MOL0     C31222   9.164   3.068   6.768  0.0973  0.4895 -0.5893
  232MOL0     C31223   9.039   3.106   6.704 -0.2236 -0.5741  0.9521
  232MOL0     C31224   8.967   2.987   6.649 -0.3073  0.4905  0.6803
  232MOL0     C31225   8.846   3.034   6.562  0.1948 -0.3699  0.2887
  232MOL0     C31226   8.789   2.929   6.477  0.2231  0.2645  0.7245
  232MOL0     C31227   8.682   2.977   6.382  0.4639  0.0204  0.7784
  232MOL0     C31228   8.551   3.002   6.456 -0.1660  0.5382 -0.2806
  232MOL0     C31229   8.457   3.067   6.365 -0.5231  0.0102  1.2741
  232MOL0    Cl31230   8.379   2.928   6.286  0.2709 -0.3046  0.0400
  232MOL0     C31231   9.162   2.999   7.123  0.3606 -0.2406  0.0221
  232MOL0     C31232   9.241   3.018   7.237  0.4905 -0.0153 -0.5348
  232MOL0     O31233   9.360   3.256   7.426  0.0603  0.0377 -0.5401
  232MOL0     C31234   9.629   3.056   7.537 -0.9687 -0.4521  0.6764
  232MOL0     C31235   9.736   3.048   7.619 -0.2726  0.4777  0.0821
  232MOL0     N31236  10.139   3.230   8.214  0.5431 -0.1782  0.5302
  232MOL0     N31237  10.097   3.158   8.307 -0.6267 -0.0553  0.2969
  232MOL0     C31238   9.252   2.227   8.226  0.7679  0.3597 -0.0488
  232MOL0     C31239   9.117   2.187   8.247 -0.9641  0.1677  0.0943
  232MOL0     C31240   8.747   2.108   8.457 -0.2694 -0.5137  0.2819
  232MOL0     C31241   8.686   2.095   8.332 -0.0727  0.1988 -0.1063
  232MOL0     C31242   8.548   2.084   8.315  0.2717 -0.5421 -0.3318
  232MOL0     C31243   8.475   2.095   8.421 -0.0528 -1.0887  0.3344
  232MOL0     O31244   8.343   2.117   8.389 -0.4077  0.5255 -0.3291
  232MOL0     C31245   8.260   2.178   8.481 -0.1157 -0.0176 -0.3067
  232MOL0     C31246   8.255   2.335   8.467  0.0289  0.8368  0.2093
  232MOL0     C31247   8.390   2.406   8.507  1.0973  0.9876  0.3856
  232MOL0     C31248   8.368   2.554   8.483  0.5067 -0.6740  0.1924
  232MOL0     C31249   8.496   2.613   8.441 -0.0141  0.2786 -0.2269
  232MOL0     C31250   8.608   2.671   8.421  0.3477  0.5771  0.7696
  232MOL0     C31251   8.535   2.101   8.553 -0.0042  0.6317  0.1445
  232MOL0     C31252   8.669   2.104   8.570 -0.0004 -0.2749 -0.2217
  232MOL0     H31253   9.155   1.942   8.484 -2.7680 -0.6514 -1.5143
  232MOL0     H31254   9.382   1.984   8.440 -0.7498 -2.1416 -0.3677
  232MOL0     H31255   9.518   2.330   8.112 -2.2333  1.5245  0.6570
  232MOL0     H31256   9.467   2.406   8.264  1.1806  0.2248  1.8672
  232MOL0     H31257   9.682   2.281   8.341 -1.9546 -3.6234 -2.6128
  232MOL0     H31258   9.732   2.290   8.172  0.7771  1.4514 -0.7256
  232MOL0     H31259   9.683   2.543   8.173 -1.6479 -1.4189 -0.3853
  232MOL0     H31260   9.634   2.530   8.338  0.5571 -1.6039  1.4832
  232MOL0     H31261   9.863   2.471   8.409  0.6504 -0.0612  0.0370
  232MOL0     H31262   9.916   2.456   8.231 -2.0021  2.4610 -3.7936
  232MOL0     H31263   9.844   2.688   8.182 -1.8135 -0.5630  0.1563
  232MOL0     H31264   9.808   2.712   8.356  1.8473 -0.5326  1.5213
  232MOL0     H31265  10.023   2.668   8.423  0.6483  1.0311  0.6513
  232MOL0     H31266  10.086   2.669   8.256  1.8246 -0.1277  2.7132
  232MOL0     H31267   9.989   2.897   8.219 -0.2035  1.2975  0.0531
  232MOL0     H31268   9.925   2.909   8.391  0.8676  0.0427  0.0119
  232MOL0     H31269  10.210   2.856   8.382  0.9652  0.9243  0.5082
  232MOL0     H31270  10.115   2.958   8.493  2.7514 -2.2741  0.9944
  232MOL0     H31271  10.304   2.951   8.142  2.1313 -0.6150  1.5859
  232MOL0     H31272  10.370   3.271   8.042  0.8397 -0.8304 -0.4479
  232MOL0     H31273  10.348   3.106   7.978 -0.3526 -1.0406  1.9556
  232MOL0     H31274  10.252   3.296   7.832 -2.4127  0.8282 -0.9836
  232MOL0     H31275  10.147   3.345   7.960  2.2954  0.5663 -0.1750
  232MOL0     H31276  10.060   3.108   7.970 -0.4734 -0.8902 -0.2825
  232MOL0     H31277  10.133   3.090   7.802 -0.5680  0.6723 -0.7570
  232MOL0     H31278  10.022   3.310   7.737  1.0498  0.3005  1.5530
  232MOL0     H31279   9.922   3.279   7.884 -0.4907 -1.2944  0.4558
  232MOL0     H31280   9.802   3.371   7.678  2.6423  0.1667 -2.4394
  232MOL0     H31281   9.484   3.449   7.597 -0.0036  0.4106 -0.5082
  232MOL0     H31282   9.645   3.514   7.583 -0.5134  1.4963 -1.7846
  232MOL0     H31283   9.557   3.467   7.436 -1.0775 -1.3208 -0.8719
  232MOL0     H31284   9.540   3.093   7.083 -0.3791  3.1576 -1.5243
  232MOL0     H31285   9.407   3.054   6.885  0.1056  1.5521  0.1880
  232MOL0     H31286   9.210   3.167   6.784 -2.0860  1.4749  0.0262
  232MOL0     H31287   9.223   3.007   6.700 -0.1544 -0.1726 -0.2199
  232MOL0     H31288   8.972   3.159   6.773 -2.0582 -0.5125 -0.7756
  232MOL0     H31289   9.062   3.171   6.619 -2.7869  0.4112  0.9243
  232MOL0     H31290   8.917   2.918   6.718 -0.0078  0.5320  0.9383
  232MOL0     H31291   9.044   2.929   6.599 -2.0064 -0.9567 -0.3977
  232MOL0     H31292   8.771   3.070   6.632  0.0056 -0.8350  0.3289
  232MOL0     H31293   8.865   3.117   6.493 -0.1595 -0.6982 -0.2154
  232MOL0     H31294   8.742   2.846   6.531 -1.0469  0.7478  0.4021
  232MOL0     H31295   8.877   2.883   6.431 -1.4786 -1.8787 -0.6023
  232MOL0     H31296   8.727   3.062   6.329  2.8822 -0.1511  2.3843
  232MOL0     H31297   8.673   2.898   6.307  2.2788 -0.1843  0.7197
  232MOL0     H31298   8.564   3.071   6.540 -0.0933 -0.1885  0.3067
  232MOL0     H31299   8.507   2.910   6.494 -0.9666  1.2356  0.5138
  232MOL0     H31300   8.501   3.138   6.295 -1.0371  0.9272  1.8648
  232MOL0     H31301   8.383   3.128   6.418 -1.7919  1.9241 -2.3659
  232MOL0     H31302   9.060   2.963   7.136  0.7633 -0.9706  1.3706
  232MOL0     H31303   9.194   3.017   7.335  0.5620  4.4301 -0.2775
  232MOL0     H31304   9.577   2.970   7.496  0.4771 -1.2718  0.4993
  232MOL0     H31305   9.779   2.949   7.629 -1.2460 -0.1980 -1.9018
  232MOL0     H31306   9.272   2.300   8.149 -0.0845  0.5491 -0.1008
  232MOL0     H31307   9.027   2.215   8.193  0.2237  0.9604 -1.5833
  232MOL0     H31308   8.749   2.087   8.243  3.1507  0.2884  1.9991
  232MOL0     H31309   8.507   2.082   8.215  0.6049 -0.5490 -0.4695
  232MOL0     H31310   8.161   2.137   8.459 -0.5692  0.1518  1.2535
  232MOL0     H31311   8.282   2.148   8.584  1.5082  2.0962  0.0343
  232MOL0     H31312   8.173   2.381   8.523 -2.3648  1.6672 -3.6206
  232MOL0     H31313   8.226   2.354   8.363 -0.6144 -0.6221  0.0981
  232MOL0     H31314   8.470   2.365   8.445 -0.2829  0.3333 -1.0151
  232MOL0     H31315   8.421   2.385   8.610  2.6766 -0.9470 -0.4262
  232MOL0     H31316   8.324   2.608   8.567  0.0320 -1.7455  0.6557
  232MOL0     H31317   8.301   2.560   8.397  2.9501 -2.0550 -1.9734
  232MOL0     H31318   8.696   2.723   8.390  1.3489 -2.2893 -1.7700
  232MOL0     H31319   8.480   2.099   8.647 -0.5608 -0.8539 -0.1782
  232MOL0     H31320   8.715   2.087   8.667  2.2153 -1.3143 -1.3971
  233MOL0     O31321   4.473   7.118   1.870  0.1180  0.0231  0.2496
  233MOL0     C31322   4.566   7.205   1.858 -0.6136  0.3625 -0.7122
  233MOL0     O31323   4.547   7.342   1.856 -0.0438 -0.5092 -1.1817
  233MOL0     C31324   4.418   7.381   1.857 -0.0920 -0.9399 -0.6080
  233MOL0     C31325   4.358   7.424   1.740 -0.1013  0.3479 -1.2029
  233MOL0     C31326   4.224   7.472   1.748 -0.2100 -0.0276 -0.0604
  233MOL0     C31327   4.153   7.485   1.865  0.3956 -0.2746 -0.1516
  233MOL0     O31328   4.029   7.534   1.843 -0.4652  0.0792  0.2797
  233MOL0     C31329   3.953   7.569   1.956  0.3054  0.4755  0.2612
  233MOL0     C31330   3.986   7.708   2.017 -0.1969 -0.5709  0.3065
  233MOL0     C31331   3.949   7.817   1.913 -0.2397 -0.0335 -0.5493
  233MOL0     C31332   4.023   7.951   1.939 -0.3100  0.0684 -0.2257
  233MOL0     C31333   3.986   8.067   1.841  0.2770  0.9988 -0.2036
  233MOL0     C31334   4.035   8.197   1.904 -0.3707  0.1309 -0.0325
  233MOL0     C31335   4.016   8.317   1.804  0.0768 -0.1322 -0.4128
  233MOL0     C31336   4.050   8.465   1.865  0.5614  0.7336 -0.3796
  233MOL0     N31337   3.934   8.511   1.939 -0.5379  0.1917 -0.2739
  233MOL0     C31338   3.825   8.573   1.886  0.3999 -0.0425 -0.5275
  233MOL0     C31339   3.755   8.628   1.989 -0.5131 -0.6452 -0.7315
  233MOL0     C31340   3.627   8.706   1.992  1.4992 -0.3725  0.8919
  233MOL0     C31341   3.507   8.619   1.952  0.1852  0.0964 -0.2824
  233MOL0     C31342   3.462   8.516   2.055  0.0333 -0.4285 -0.2804
  233MOL0     C31343   3.343   8.436   2.000 -0.4807  0.7280 -0.3427
  233MOL0     O31344   3.375   8.319   1.915  0.0240 -0.0626 -0.5513
  233MOL0     C31345   3.275   8.220   1.900 -0.7192 -0.2496 -0.3633
  233MOL0     C31346   3.301   8.112   1.810 -0.6364  0.0420 -0.9643
  233MOL0     C31347   3.205   8.022   1.762 -0.3327 -0.0863  0.0581
  233MOL0     C31348   3.248   7.912   1.668 -0.0538 -0.2617 -1.1400
  233MOL0     C31349   3.070   8.045   1.800  0.9302 -0.5615  0.0756
  233MOL0     C31350   2.960   7.956   1.759  0.1916  0.6629  0.0670
  233MOL0     O31351   2.998   7.829   1.712 -0.1124  0.1728  0.1201
  233MOL0     C31352   2.913   7.728   1.748  0.1622  0.0930  1.1532
  233MOL0     C31353   2.950   7.665   1.867  0.1372  0.5832  0.1879
  233MOL0     C31354   2.870   7.554   1.912  0.6257 -0.0275  0.3921
  233MOL0     C31355   2.779   7.490   1.821  0.0148  0.3061  0.9048
  233MOL0     O31356   2.713   7.380   1.872  0.0635 -0.5136 -0.3281
  233MOL0     C31357   2.602   7.328   1.805  0.0410 -0.3153 -0.6094
  233MOL0     C31358   2.650   7.221   1.706  0.4207 -0.5732 -0.0686
  233MOL0     C31359   2.544   7.161   1.609 -0.5609 -0.6741  0.4608
  233MOL0     C31360   2.617   7.054   1.534  0.4169  0.0243 -0.1445
  233MOL0     C31361   2.530   6.965   1.448 -0.0971 -0.1270  0.4721
  233MOL0     C31362   2.597   6.844   1.400  0.0712  0.7211 -0.5688
  233MOL0     C31363   2.526   6.780   1.274  0.4233  0.0235  0.3407
  233MOL0     C31364   2.400   6.698   1.298  0.5178 -0.4372  0.3870
  233MOL0    Cl31365   2.322   6.628   1.150  0.5144  0.0819 -0.3776
  233MOL0     C31366   2.757   7.543   1.695  0.3653 -0.0963 -0.3230
  233MOL0     C31367   2.829   7.662   1.650 -0.8336  0.7094 -0.6587
  233MOL0     O31368   2.840   7.994   1.775 -0.0809 -0.1987  0.1282
  233MOL0     C31369   3.047   8.148   1.892  0.1747  0.5725  0.1026
  233MOL0     C31370   3.143   8.233   1.934 -0.0923  0.2066 -0.0689
  233MOL0     N31371   3.825   8.592   2.102  0.1199  0.1773 -0.1211
  233MOL0     N31372   3.937   8.536   2.074  0.7731  0.7637 -0.1635
  233MOL0     C31373   4.219   7.450   1.982 -0.3080 -0.6106  0.4720
  233MOL0     C31374   4.340   7.393   1.976  0.1424  0.1665  0.1325
  233MOL0     C31375   4.712   7.167   1.884  0.6382  0.0469 -0.5398
  233MOL0     C31376   4.820   7.257   1.911 -0.0414  0.1580  0.0328
  233MOL0     C31377   4.954   7.219   1.926  0.1326  0.5104 -0.4032
  233MOL0     C31378   4.988   7.084   1.897 -0.0349  1.0968  0.2147
  233MOL0     O31379   5.116   7.034   1.893  0.7933  0.2241  0.1188
  233MOL0     C31380   5.154   6.970   1.772 -0.0304 -1.5033  0.2367
  233MOL0     C31381   5.297   7.019   1.736  0.0411 -0.1869 -0.1240
  233MOL0     C31382   5.288   7.167   1.701 -0.5879 -0.0165  0.4457
  233MOL0     C31383   5.425   7.227   1.663 -0.7105  0.7562 -0.8923
  233MOL0     C31384   5.496   7.147   1.565  0.0621 -0.0586  0.5309
  233MOL0     C31385   5.564   7.081   1.477  0.4437 -1.2876 -0.7907
  233MOL0     C31386   4.889   6.991   1.891 -0.3693 -0.5315 -0.0526
  233MOL0     C31387   4.751   7.029   1.884 -0.2699 -0.2092 -0.1639
  233MOL0     H31388   4.428   7.439   1.659  1.0078  1.0778 -0.1580
  233MOL0     H31389   4.177   7.523   1.665  0.1857  3.0421  1.4623
  233MOL0     H31390   3.849   7.560   1.925  0.2447 -0.2309  0.6496
  233MOL0     H31391   3.958   7.493   2.035 -3.0299  1.2277  1.3261
  233MOL0     H31392   3.924   7.724   2.106 -0.4741 -2.8600  0.5959
  233MOL0     H31393   4.092   7.721   2.040 -0.4120 -1.4748  1.9668
  233MOL0     H31394   3.969   7.776   1.814 -1.9409 -1.0654 -0.4993
  233MOL0     H31395   3.842   7.829   1.930 -0.2691 -3.2434  2.6360
  233MOL0     H31396   3.994   7.973   2.042  1.2860 -0.7926  0.4468
  233MOL0     H31397   4.130   7.929   1.930 -0.5467 -1.6865  0.8583
  233MOL0     H31398   4.029   8.054   1.741 -1.4638 -0.8286 -0.7819
  233MOL0     H31399   3.877   8.064   1.833  0.1563  0.8210  1.2935
  233MOL0     H31400   3.975   8.223   1.991 -0.8146 -0.8943 -0.0233
  233MOL0     H31401   4.142   8.185   1.924 -0.2050 -0.0098 -0.9297
  233MOL0     H31402   4.088   8.298   1.723 -1.6488 -2.9669 -1.4273
  233MOL0     H31403   3.913   8.309   1.767 -0.3905  1.3311  0.5005
  233MOL0     H31404   4.070   8.541   1.790  1.7568  1.4935  0.6535
  233MOL0     H31405   4.132   8.444   1.935  0.5756  2.3643  0.1435
  233MOL0     H31406   3.799   8.587   1.782 -1.9297  1.4554  0.1723
  233MOL0     H31407   3.613   8.747   2.093  0.2847  0.4218  0.4305
  233MOL0     H31408   3.645   8.792   1.927 -0.9550 -1.1364 -0.9198
  233MOL0     H31409   3.529   8.554   1.866  0.7135 -0.0735 -0.0246
  233MOL0     H31410   3.427   8.689   1.925  0.2413 -0.3935 -1.8078
  233MOL0     H31411   3.430   8.566   2.147 -0.9671 -0.3657 -0.6496
  233MOL0     H31412   3.543   8.444   2.073  0.6232  0.9847  3.8060
  233MOL0     H31413   3.266   8.499   1.955 -0.0506 -1.3397 -4.3913
  233MOL0     H31414   3.293   8.394   2.088 -1.1248  0.4559 -0.8342
  233MOL0     H31415   3.405   8.103   1.780 -0.7098 -0.8973 -0.9842
  233MOL0     H31416   3.235   7.819   1.724 -2.9086 -0.5159 -2.0619
  233MOL0     H31417   3.178   7.910   1.584 -1.6645  1.0286  0.1212
  233MOL0     H31418   3.350   7.922   1.628 -0.2050  3.6904 -0.9192
  233MOL0     H31419   3.014   7.715   1.938 -0.8105  1.8634  0.1689
  233MOL0     H31420   2.894   7.504   2.005 -3.2108  1.0331  2.2021
  233MOL0     H31421   2.533   7.286   1.879  1.8261 -0.0200  1.2984
  233MOL0     H31422   2.542   7.401   1.749 -2.1835 -1.3987  0.2284
  233MOL0     H31423   2.742   7.253   1.657  1.4141 -1.3693  1.2451
  233MOL0     H31424   2.674   7.142   1.777 -3.1271 -2.6463 -0.9074
  233MOL0     H31425   2.508   7.236   1.539 -2.0992 -1.6502  0.1651
  233MOL0     H31426   2.459   7.126   1.669 -2.0985 -0.9210 -1.7423
  233MOL0     H31427   2.690   7.106   1.470  0.3363  2.8755  1.9144
  233MOL0     H31428   2.667   6.995   1.611  2.4674  0.2255 -1.2383
  233MOL0     H31429   2.491   7.023   1.364 -0.4621 -1.5149 -0.3520
  233MOL0     H31430   2.449   6.934   1.514  0.3124  0.7730  1.4290
  233MOL0     H31431   2.695   6.878   1.363  0.5731 -0.3236 -0.2528
  233MOL0     H31432   2.603   6.774   1.483 -3.5008  2.4399  1.3589
  233MOL0     H31433   2.598   6.721   1.216  0.1588  0.7840 -0.7722
  233MOL0     H31434   2.494   6.870   1.222 -0.4181 -1.0591 -1.1011
  233MOL0     H31435   2.322   6.763   1.339  0.0271 -1.3906  1.0173
  233MOL0     H31436   2.428   6.621   1.371  2.3394 -0.0040  0.1797
  233MOL0     H31437   2.686   7.491   1.632 -0.3461 -1.8236  1.7492
  233MOL0     H31438   2.805   7.712   1.557 -1.0953  1.0773 -0.3954
  233MOL0     H31439   2.945   8.177   1.914 -0.0655  0.4756 -0.8328
  233MOL0     H31440   3.107   8.322   1.984  0.4083 -0.7789  2.1843
  233MOL0     H31441   4.156   7.432   2.069 -3.0133 -0.5247 -1.3228
  233MOL0     H31442   4.393   7.358   2.064 -0.0494  0.1056  0.2255
  233MOL0     H31443   4.817   7.365   1.901 -0.7345 -0.0188 -2.6520
  233MOL0     H31444   5.025   7.301   1.934 -2.3436  3.1049 -2.8242
  233MOL0     H31445   5.154   6.861   1.780 -0.0143 -1.3874  2.1223
  233MOL0     H31446   5.087   6.995   1.689 -1.9327  1.0291  2.3910
  233MOL0     H31447   5.337   6.962   1.651  0.2107 -1.7369  0.9411
  233MOL0     H31448   5.365   7.007   1.821 -1.9586  2.5645  2.0725
  233MOL0     H31449   5.245   7.234   1.776 -3.0209  0.6886 -1.4305
  233MOL0     H31450   5.212   7.178   1.623 -2.3992  0.6176  2.1803
  233MOL0     H31451   5.495   7.236   1.747  2.1551 -3.7340 -2.4558
  233MOL0     H31452   5.418   7.329   1.624 -2.3123  1.0419  0.0678
  233MOL0     H31453   5.629   7.018   1.420 -0.2515 -0.5529 -2.4676
  233MOL0     H31454   4.909   6.886   1.872 -1.0249 -0.3581 -1.9313
  233MOL0     H31455   4.680   6.951   1.857  1.6650 -1.7173 -1.0689
  234MOL0     O31456   7.921   9.174   6.428  0.5661  0.0414 -0.1480
  234MOL0     C31457   7.978   9.253   6.507  1.3876  0.9375  0.0369
  234MOL0     O31458   7.959   9.392   6.513 -0.2122  0.5030  0.7465
  234MOL0     C31459   7.860   9.453   6.446 -1.1865 -0.6931 -0.5569
  234MOL0     C31460   7.884   9.556   6.358  0.9575 -0.9578  0.2653
  234MOL0     C31461   7.781   9.627   6.295 -0.5731 -0.3210  1.0628
  234MOL0     C31462   7.650   9.592   6.315  0.3556  0.4193  0.0669
  234MOL0     O31463   7.540   9.643   6.248  0.4596 -0.6318  0.2109
  234MOL0     C31464   7.548   9.782   6.196  0.7275  0.4715  0.6673
  234MOL0     C31465   7.415   9.829   6.167 -0.3968 -0.6914  0.4539
  234MOL0     C31466   7.379   9.778   6.027 -0.1089  0.4544  0.2750
  234MOL0     C31467   7.227   9.772   6.016 -0.2149  0.5975 -0.0452
  234MOL0     C31468   7.201   9.745   5.861 -0.7906  0.7396 -0.1258
  234MOL0     C31469   7.052   9.759   5.839 -0.2567 -0.9449  0.8590
  234MOL0     C31470   7.011   9.729   5.690  0.0113  0.7025  0.0397
  234MOL0     C31471   6.863   9.725   5.671 -0.6378  1.1100  1.0111
  234MOL0     N31472   6.818   9.684   5.540 -0.7958  0.6910 -0.5142
  234MOL0     C31473   6.894   9.621   5.451  0.3568 -0.5026  0.9636
  234MOL0     C31474   6.810   9.613   5.340 -0.2961 -0.0216 -0.7288
  234MOL0     C31475   6.854   9.533   5.220  0.5766 -0.9796 -0.1702
  234MOL0     C31476   6.771   9.419   5.173 -0.7088  0.5445  0.0415
  234MOL0     C31477   6.836   9.354   5.051 -0.3513  0.8796 -0.3475
  234MOL0     C31478   6.730   9.270   4.972 -0.9250  0.6899  0.8352
  234MOL0     O31479   6.735   9.292   4.835 -0.6488 -0.1930  0.4904
  234MOL0     C31480   6.693   9.192   4.759 -0.0819  0.7053 -0.0890
  234MOL0     C31481   6.597   9.097   4.808 -0.7577  0.1862 -0.3370
  234MOL0     C31482   6.549   8.993   4.727 -0.3136  0.5123  0.8896
  234MOL0     C31483   6.436   8.911   4.774  0.0621  0.7640 -0.0000
  234MOL0     C31484   6.602   8.974   4.595 -0.4665  0.3076 -0.7754
  234MOL0     C31485   6.563   8.874   4.512 -0.0886  0.2822 -0.3544
  234MOL0     O31486   6.535   8.909   4.386  0.8141 -0.1808 -0.3375
  234MOL0     C31487   6.516   8.813   4.293 -0.6111  0.6449 -0.1573
  234MOL0     C31488   6.401   8.829   4.217  0.0032  0.1648 -0.5741
  234MOL0     C31489   6.366   8.729   4.129 -0.1568 -1.0571 -0.3302
  234MOL0     C31490   6.455   8.623   4.092  0.5991 -0.1825 -0.2409
  234MOL0     O31491   6.436   8.546   3.980  0.8191 -0.6574  0.2947
  234MOL0     C31492   6.311   8.494   3.930 -0.6387 -0.5679 -0.0953
  234MOL0     C31493   6.338   8.358   3.873  0.3410  0.7624  0.3317
  234MOL0     C31494   6.214   8.275   3.823 -0.2035  0.0665 -0.9820
  234MOL0     C31495   6.160   8.319   3.689 -0.7475  0.1322 -0.2521
  234MOL0     C31496   6.031   8.251   3.663 -0.3827  0.4167 -0.0946
  234MOL0     C31497   5.989   8.229   3.520 -0.1535  0.5856 -0.7077
  234MOL0     C31498   5.937   8.360   3.454 -0.1823  0.3636 -0.4723
  234MOL0     C31499   5.884   8.337   3.312 -1.3502  1.0208  0.1077
  234MOL0    Cl31500   5.829   8.484   3.235 -0.1655  0.4392  0.2417
  234MOL0     C31501   6.581   8.620   4.159  0.6201 -0.2840 -0.6732
  234MOL0     C31502   6.612   8.713   4.259  0.5215  0.9852 -0.0645
  234MOL0     O31503   6.569   8.756   4.556  0.3147  0.1128  0.7183
  234MOL0     C31504   6.699   9.059   4.558 -0.0105 -1.5266  0.1053
  234MOL0     C31505   6.745   9.164   4.638  0.1192 -0.2296 -0.1585
  234MOL0     N31506   6.690   9.680   5.367  0.1037  0.5032  0.2317
  234MOL0     N31507   6.693   9.719   5.488 -0.6542 -0.3379 -0.4888
  234MOL0     C31508   7.628   9.482   6.398 -0.6208 -0.6454 -0.2446
  234MOL0     C31509   7.727   9.413   6.460 -0.5619  0.7702  0.1278
  234MOL0     C31510   8.088   9.195   6.588 -0.2412  0.0343  0.7284
  234MOL0     C31511   8.093   9.060   6.627 -0.1181 -0.3655 -1.2564
  234MOL0     C31512   8.200   9.011   6.706  0.3642  0.8856 -0.0873
  234MOL0     C31513   8.312   9.100   6.725  0.4673  0.4582  0.8175
  234MOL0     O31514   8.427   9.056   6.790 -0.7674  0.3045 -0.1118
  234MOL0     C31515   8.426   8.926   6.859  0.4553  0.2769 -0.6865
  234MOL0     C31516   8.571   8.909   6.904 -0.7427  0.1453 -0.3428
  234MOL0     C31517   8.591   8.759   6.958 -0.3711 -0.6537  0.8290
  234MOL0     C31518   8.712   8.758   7.052  0.5338 -0.4821  0.0269
  234MOL0     C31519   8.797   8.648   7.007 -0.0056  0.5091 -0.3506
  234MOL0     C31520   8.854   8.549   6.986  0.6184  0.5577 -0.0258
  234MOL0     C31521   8.321   9.224   6.673  0.0529 -0.7240 -0.3365
  234MOL0     C31522   8.201   9.280   6.616 -1.1466  0.0347 -0.2353
  234MOL0     H31523   7.981   9.602   6.341 -0.2031  1.2438 -0.6337
  234MOL0     H31524   7.804   9.701   6.218  2.5301 -2.2937 -0.1229
  234MOL0     H31525   7.585   9.851   6.272  2.1441  1.5877 -0.9634
  234MOL0     H31526   7.602   9.772   6.101  0.9246 -2.2197  1.0025
  234MOL0     H31527   7.337   9.802   6.239 -2.1555  3.5962  0.4946
  234MOL0     H31528   7.411   9.938   6.176 -2.2239 -0.8551  2.4522
  234MOL0     H31529   7.427   9.841   5.951 -1.2224 -0.5595 -1.3504
  234MOL0     H31530   7.408   9.672   6.024 -1.3524 -0.0861  3.5682
  234MOL0     H31531   7.187   9.696   6.084 -0.3035 -1.3655 -2.1416
  234MOL0     H31532   7.175   9.864   6.042  0.3819  0.3473  2.3063
  234MOL0     H31533   7.252   9.818   5.798 -0.2366  1.8902  1.5929
  234MOL0     H31534   7.228   9.643   5.832 -0.3453  1.0013 -0.6364
  234MOL0     H31535   6.999   9.687   5.901 -3.2352 -0.2705 -0.6922
  234MOL0     H31536   7.014   9.859   5.863  0.2980 -0.4800 -0.1249
  234MOL0     H31537   7.060   9.799   5.623 -0.1948  1.2523  0.4596
  234MOL0     H31538   7.057   9.630   5.679 -0.5872  0.3228  0.8402
  234MOL0     H31539   6.820   9.825   5.685  0.9694  1.4349  4.7108
  234MOL0     H31540   6.815   9.667   5.751 -2.2096  0.9704  0.0011
  234MOL0     H31541   6.990   9.572   5.461  1.5169  1.5184  0.1892
  234MOL0     H31542   6.863   9.599   5.134  1.4988 -2.0727 -0.9497
  234MOL0     H31543   6.953   9.494   5.246  0.8827 -1.2372 -1.6357
  234MOL0     H31544   6.671   9.457   5.149 -0.1612  0.6891 -2.2471
  234MOL0     H31545   6.763   9.352   5.259 -1.2016  1.0930  0.4335
  234MOL0     H31546   6.923   9.295   5.082  0.3199  1.3824 -1.2356
  234MOL0     H31547   6.868   9.435   4.984 -3.0940  1.8745 -0.6122
  234MOL0     H31548   6.633   9.301   5.012 -0.8592  1.6434  0.2824
  234MOL0     H31549   6.740   9.165   5.001 -1.3935  0.0104 -1.3065
  234MOL0     H31550   6.556   9.110   4.908 -1.1607 -0.2335 -0.4426
  234MOL0     H31551   6.389   8.954   4.864 -2.3161  1.2426 -1.3639
  234MOL0     H31552   6.366   8.877   4.698  0.4187 -3.1529  1.2171
  234MOL0     H31553   6.487   8.819   4.803 -0.3152  0.1058 -1.3647
  234MOL0     H31554   6.324   8.904   4.231  1.6242  1.8636 -0.2023
  234MOL0     H31555   6.275   8.724   4.070  0.5734 -1.3046 -1.4662
  234MOL0     H31556   6.229   8.474   4.001 -0.4250 -0.6583  0.1280
  234MOL0     H31557   6.266   8.565   3.860  0.9255 -0.0771 -0.6464
  234MOL0     H31558   6.406   8.363   3.787  0.0738 -1.1407 -0.0365
  234MOL0     H31559   6.388   8.295   3.946  0.2502  0.2923 -0.0048
  234MOL0     H31560   6.130   8.288   3.893  0.5991 -0.8274  0.1850
  234MOL0     H31561   6.245   8.170   3.822  0.7748  0.3500 -2.3444
  234MOL0     H31562   6.158   8.428   3.687  0.7408  0.1818  0.0266
  234MOL0     H31563   6.238   8.280   3.623  0.4373  0.0852  1.1271
  234MOL0     H31564   5.964   8.323   3.711  0.3157  0.3690  1.0046
  234MOL0     H31565   6.025   8.152   3.709  1.0989  0.2459 -0.2046
  234MOL0     H31566   6.080   8.189   3.475  1.7707  0.6881  2.7696
  234MOL0     H31567   5.906   8.158   3.512  0.6952 -0.2323 -3.1947
  234MOL0     H31568   6.016   8.436   3.458  0.8115 -0.6468  3.6848
  234MOL0     H31569   5.854   8.401   3.512  0.0406  2.7579 -1.6945
  234MOL0     H31570   5.803   8.264   3.316  0.2850 -0.8679  0.5159
  234MOL0     H31571   5.961   8.280   3.258  0.2835  1.2091  2.0965
  234MOL0     H31572   6.650   8.539   4.140 -1.0085 -2.6963  2.6993
  234MOL0     H31573   6.700   8.702   4.321 -0.8534 -2.3986  1.4850
  234MOL0     H31574   6.747   9.045   4.462  3.9804 -2.1340  1.9926
  234MOL0     H31575   6.823   9.222   4.591 -0.1958 -0.3545 -0.8437
  234MOL0     H31576   7.525   9.452   6.414 -0.4579 -0.1370  2.2157
  234MOL0     H31577   7.689   9.321   6.501 -2.5751  1.4124 -0.1672
  234MOL0     H31578   8.018   8.986   6.601 -1.7058  0.5995  0.3427
  234MOL0     H31579   8.198   8.909   6.746 -1.4931  0.8090 -0.2761
  234MOL0     H31580   8.364   8.927   6.949 -0.4666  2.0176 -1.2949
  234MOL0     H31581   8.400   8.846   6.789  0.6038 -1.1645  0.8401
  234MOL0     H31582   8.596   8.978   6.985  1.5420  0.5771 -1.3400
  234MOL0     H31583   8.633   8.931   6.817  0.4036 -0.1420  0.3892
  234MOL0     H31584   8.607   8.687   6.878 -2.3334  2.7593 -3.0403
  234MOL0     H31585   8.505   8.728   7.017  0.2688 -0.9706  1.6126
  234MOL0     H31586   8.669   8.733   7.150 -0.1546 -2.3999 -0.7063
  234MOL0     H31587   8.771   8.849   7.060 -0.4396  0.1557  0.0633
  234MOL0     H31588   8.912   8.462   6.960 -0.6759 -0.1710 -0.5392
  234MOL0     H31589   8.411   9.283   6.684  0.0010 -0.9063  1.2148
  234MOL0     H31590   8.203   9.380   6.575 -2.0515 -0.2141 -0.9247
  235MOL0     O31591   7.366   9.098   7.215  0.8511  0.5037 -0.0639
  235MOL0     C31592   7.254   9.057   7.252 -0.5545  0.3350 -0.6206
  235MOL0     O31593   7.219   8.922   7.250  0.4631  0.2005 -0.1772
  235MOL0     C31594   7.280   8.842   7.155  0.7707  0.8458  0.2051
  235MOL0     C31595   7.195   8.783   7.057  0.4459  0.0140 -0.3276
  235MOL0     C31596   7.240   8.683   6.981 -0.6005  0.3619 -0.1998
  235MOL0     C31597   7.374   8.634   6.986  0.2373  0.0382 -0.7150
  235MOL0     O31598   7.422   8.521   6.932  0.0115  0.8072 -0.6912
  235MOL0     C31599   7.320   8.416   6.904 -0.2257  0.5372  0.2969
  235MOL0     C31600   7.299   8.413   6.757 -0.0679 -0.6343 -0.4635
  235MOL0     C31601   7.436   8.416   6.687 -0.1414 -0.4480  0.2565
  235MOL0     C31602   7.418   8.410   6.533 -0.5945 -0.3158 -0.1259
  235MOL0     C31603   7.551   8.387   6.460 -0.7531  0.5746 -0.4644
  235MOL0     C31604   7.547   8.389   6.309 -0.0930 -0.4189  0.5295
  235MOL0     C31605   7.680   8.406   6.240 -0.2666  0.4543  0.5443
  235MOL0     C31606   7.769   8.284   6.251  0.5467  0.6244  0.4670
  235MOL0     N31607   7.692   8.170   6.188  0.4385  1.1345 -0.7000
  235MOL0     C31608   7.608   8.080   6.250 -0.7964 -0.8481 -0.0477
  235MOL0     C31609   7.599   7.974   6.167  0.1142  0.4729  0.3562
  235MOL0     C31610   7.526   7.855   6.194 -0.3395 -0.1139  0.4764
  235MOL0     C31611   7.390   7.837   6.114 -0.9693 -0.3039  0.0590
  235MOL0     C31612   7.410   7.787   5.968 -0.3648 -0.3563  0.7237
  235MOL0     C31613   7.288   7.816   5.884  0.2193  0.5743 -0.7903
  235MOL0     O31614   7.182   7.738   5.941  0.2344  0.0670 -0.0241
  235MOL0     C31615   7.053   7.740   5.898 -0.3479 -0.8596  0.4461
  235MOL0     C31616   6.980   7.616   5.888 -0.9535 -0.3081  0.6946
  235MOL0     C31617   6.849   7.618   5.849  0.4706  1.0495 -0.2469
  235MOL0     C31618   6.779   7.489   5.834  0.1103 -0.0092  0.1886
  235MOL0     C31619   6.793   7.741   5.814 -0.0672 -0.5207  0.4064
  235MOL0     C31620   6.656   7.756   5.747 -1.2136  0.0724  0.2556
  235MOL0     O31621   6.606   7.875   5.715  0.3285  0.0012 -0.0494
  235MOL0     C31622   6.478   7.895   5.662  0.5220  0.8633 -0.9354
  235MOL0     C31623   6.445   8.004   5.577 -0.1501 -0.3337  0.3037
  235MOL0     C31624   6.329   8.008   5.510  0.5057  0.7977  0.3366
  235MOL0     C31625   6.224   7.917   5.539 -0.8531  0.1114  1.5181
  235MOL0     O31626   6.109   7.939   5.462  0.2724 -0.1060 -0.2507
  235MOL0     C31627   5.984   7.910   5.528  0.7107 -0.8310  0.2984
  235MOL0     C31628   5.866   7.988   5.475 -0.4190  0.5155  0.3725
  235MOL0     C31629   5.737   7.954   5.557  0.0027  0.0785  0.0672
  235MOL0     C31630   5.619   8.009   5.479 -0.1785 -0.0632 -0.4303
  235MOL0     C31631   5.478   7.977   5.551 -0.3286  0.0928 -0.3788
  235MOL0     C31632   5.352   7.970   5.458 -0.9613  0.1621  0.0545
  235MOL0     C31633   5.377   7.882   5.336  0.4226  0.0539  0.4815
  235MOL0     C31634   5.255   7.798   5.317  0.4062  0.5983  0.7551
  235MOL0    Cl31635   5.104   7.891   5.288  0.3151  0.1768 -0.5890
  235MOL0     C31636   6.248   7.822   5.625  0.3055 -0.1729  0.6576
  235MOL0     C31637   6.376   7.809   5.687 -0.0819 -0.3556  0.1922
  235MOL0     O31638   6.600   7.650   5.712  0.1634 -0.1380  0.1518
  235MOL0     C31639   6.867   7.854   5.819 -0.5099  0.6432 -0.0641
  235MOL0     C31640   6.996   7.855   5.857  0.2409 -0.3775 -0.5238
  235MOL0     N31641   7.685   7.994   6.060  0.8422 -0.4026  0.1694
  235MOL0     N31642   7.736   8.108   6.074 -0.7129 -0.1183  0.2544
  235MOL0     C31643   7.460   8.700   7.071 -0.0056  0.0058 -0.2839
  235MOL0     C31644   7.416   8.804   7.159 -0.6493  0.2298  0.4646
  235MOL0     C31645   7.147   9.143   7.311 -0.3575 -1.0490  0.3026
  235MOL0     C31646   7.143   9.283   7.303 -0.4604 -0.2566 -0.5518
  235MOL0     C31647   7.041   9.362   7.356  0.1774  0.5768  0.8967
  235MOL0     C31648   6.942   9.301   7.427 -0.3291 -0.2814 -0.0641
  235MOL0     O31649   6.830   9.369   7.469  0.1849  0.7696  1.0045
  235MOL0     C31650   6.828   9.511   7.462 -0.4928  0.1400  0.4949
  235MOL0     C31651   6.693   9.553   7.525  0.0091 -0.7290  0.2037
  235MOL0     C31652   6.578   9.512   7.442 -0.4459 -0.0224  0.4196
  235MOL0     C31653   6.444   9.534   7.514  0.2427  0.0358 -0.0515
  235MOL0     C31654   6.332   9.548   7.420 -0.5483  0.6976  0.2193
  235MOL0     C31655   6.242   9.561   7.335  0.5790 -0.1024  0.1060
  235MOL0     C31656   6.944   9.163   7.445 -0.0815 -0.0636 -0.5869
  235MOL0     C31657   7.050   9.078   7.389 -0.5079 -0.6271 -0.5713
  235MOL0     H31658   7.089   8.807   7.052  0.0608 -1.0474  1.7081
  235MOL0     H31659   7.172   8.628   6.917 -1.0585 -5.1379  4.1853
  235MOL0     H31660   7.343   8.319   6.948  0.3140  1.1565  1.4304
  235MOL0     H31661   7.236   8.440   6.970  1.9379  1.9727  2.6906
  235MOL0     H31662   7.248   8.318   6.735  1.6724 -1.1070 -2.7853
  235MOL0     H31663   7.246   8.500   6.719 -1.2797 -0.1491  2.0730
  235MOL0     H31664   7.503   8.499   6.712 -0.2900 -0.3509  0.3405
  235MOL0     H31665   7.493   8.326   6.708  1.9518  0.4367 -1.2633
  235MOL0     H31666   7.348   8.326   6.519 -1.1633  0.4777 -2.4484
  235MOL0     H31667   7.369   8.501   6.497  0.9087  0.2716 -0.7477
  235MOL0     H31668   7.623   8.464   6.488 -1.5056  1.3911 -0.7374
  235MOL0     H31669   7.590   8.294   6.501 -0.5452  1.3693  1.2032
  235MOL0     H31670   7.492   8.307   6.262  0.6964 -1.4794  1.3960
  235MOL0     H31671   7.492   8.480   6.283 -0.2837 -1.2104 -2.1867
  235MOL0     H31672   7.672   8.434   6.134 -0.2222  1.8706  0.9056
  235MOL0     H31673   7.727   8.490   6.291 -0.3672 -0.4498  2.1701
  235MOL0     H31674   7.782   8.270   6.359 -0.3369  2.7906  0.8937
  235MOL0     H31675   7.859   8.293   6.190 -1.6558 -1.7133 -3.5060
  235MOL0     H31676   7.564   8.092   6.348  1.0935 -0.6494  0.8200
  235MOL0     H31677   7.594   7.771   6.174  0.7186  0.3748  1.8800
  235MOL0     H31678   7.502   7.856   6.300  1.1006  0.5586  0.8131
  235MOL0     H31679   7.332   7.929   6.120 -0.8019 -0.3046  3.2299
  235MOL0     H31680   7.334   7.766   6.177  0.7072 -1.8910 -0.1621
  235MOL0     H31681   7.419   7.678   5.967 -1.9190 -0.5256 -1.2128
  235MOL0     H31682   7.494   7.840   5.921  0.1971 -1.3917  0.5414
  235MOL0     H31683   7.303   7.775   5.784  2.0249 -0.3909 -0.1680
  235MOL0     H31684   7.249   7.917   5.899  0.8872  0.8120 -0.6597
  235MOL0     H31685   7.029   7.521   5.907  1.8470  0.4455 -1.8691
  235MOL0     H31686   6.688   7.489   5.896  0.5682 -0.3692  0.8717
  235MOL0     H31687   6.764   7.463   5.729 -1.8708 -0.8238  0.6177
  235MOL0     H31688   6.833   7.401   5.872 -1.2779 -0.8842  0.2158
  235MOL0     H31689   6.518   8.080   5.549 -2.2460  1.7183  0.0863
  235MOL0     H31690   6.314   8.096   5.448 -0.5086  1.5070  1.5347
  235MOL0     H31691   5.962   7.804   5.509  0.3553 -0.3761 -2.1818
  235MOL0     H31692   5.986   7.934   5.634 -1.2380 -0.8941  0.3903
  235MOL0     H31693   5.889   8.094   5.487  2.4279 -0.2518  3.1986
  235MOL0     H31694   5.854   7.956   5.371  1.7711 -2.3826  0.8715
  235MOL0     H31695   5.738   7.994   5.659 -2.6806  3.4580 -1.0486
  235MOL0     H31696   5.729   7.845   5.565  0.4507 -0.1744 -2.3758
  235MOL0     H31697   5.626   8.114   5.450 -1.0743  0.6701  1.7634
  235MOL0     H31698   5.631   7.946   5.391  2.6847 -2.4758  1.4724
  235MOL0     H31699   5.480   8.035   5.644  3.8816  1.3600 -1.0689
  235MOL0     H31700   5.480   7.871   5.577 -3.8861 -0.1731 -0.5883
  235MOL0     H31701   5.258   7.935   5.501 -2.5227 -0.9699 -3.8554
  235MOL0     H31702   5.329   8.076   5.443  0.0152  0.2764 -0.7354
  235MOL0     H31703   5.456   7.811   5.361 -0.5173 -0.7728  1.1806
  235MOL0     H31704   5.408   7.931   5.244  1.2685  0.4109  0.9434
  235MOL0     H31705   5.244   7.737   5.407 -0.3996 -0.0629  0.2135
  235MOL0     H31706   5.266   7.720   5.241  2.8400  0.6785  0.9433
  235MOL0     H31707   6.175   7.745   5.650  0.5109 -0.7002 -0.3001
  235MOL0     H31708   6.395   7.737   5.766 -0.5212  1.6287  2.2048
  235MOL0     H31709   6.827   7.948   5.781  1.3455  2.5893  2.4016
  235MOL0     H31710   7.049   7.949   5.872  0.1548 -0.1081 -1.8080
  235MOL0     H31711   7.559   8.667   7.102 -0.7796 -1.5221  0.7233
  235MOL0     H31712   7.487   8.836   7.234  2.5394 -1.8925 -1.3851
  235MOL0     H31713   7.216   9.335   7.241 -2.9710  3.3099 -0.7925
  235MOL0     H31714   7.029   9.466   7.327 -4.0151  0.9813  3.3135
  235MOL0     H31715   6.916   9.545   7.518  0.5952 -0.0592 -1.0301
  235MOL0     H31716   6.830   9.550   7.360 -1.2371 -1.3925 -0.1256
  235MOL0     H31717   6.697   9.663   7.532 -1.6149 -0.5980 -0.5543
  235MOL0     H31718   6.691   9.508   7.624 -2.2464 -1.7401 -0.2378
  235MOL0     H31719   6.571   9.404   7.429  0.9400 -0.1547  0.6533
  235MOL0     H31720   6.589   9.552   7.341 -1.4225 -0.0391  0.2970
  235MOL0     H31721   6.443   9.632   7.563  0.3728  1.5398 -2.7988
  235MOL0     H31722   6.435   9.453   7.586  0.7449 -0.1443 -0.1837
  235MOL0     H31723   6.171   9.587   7.259  2.5176 -0.0104 -1.7567
  235MOL0     H31724   6.868   9.116   7.507  1.2895  0.8168  1.9304
  235MOL0     H31725   7.054   8.971   7.406 -1.1197 -0.5491  0.1288
  236MOL0     O31726   0.303  10.104   7.895  0.5771 -0.2788  0.5685
  236MOL0     C31727   0.289  10.008   7.968 -0.3777  0.7017 -0.3249
  236MOL0     O31728   0.383   9.968   8.069  0.1941  0.2141  0.6934
  236MOL0     C31729   0.497  10.028   8.096  0.1236 -0.1280 -0.5391
  236MOL0     C31730   0.553  10.146   8.059  0.4978 -1.1853  0.1072
  236MOL0     C31731   0.676  10.195   8.097  0.5630 -0.3192 -0.6799
  236MOL0     C31732   0.752  10.121   8.190  0.0488  0.0804  0.0412
  236MOL0     O31733   0.875  10.147   8.245 -0.6295 -0.7535 -0.5476
  236MOL0     C31734   0.940  10.264   8.211 -0.2979  0.1211 -0.6217
  236MOL0     C31735   1.077  10.269   8.275  1.1017 -0.8637  0.6530
  236MOL0     C31736   1.081  10.242   8.425 -0.2725  1.1688 -1.6339
  236MOL0     C31737   1.219  10.263   8.484  0.2647  0.2654 -0.6195
  236MOL0     C31738   1.305  10.148   8.461  0.0121  0.8139  0.1215
  236MOL0     C31739   1.442  10.172   8.523  1.0174  1.0166  0.5982
  236MOL0     C31740   1.550  10.075   8.486  0.1634 -0.5246  0.0422
  236MOL0     C31741   1.508   9.919   8.500 -0.5527  0.2569  0.1816
  236MOL0     N31742   1.455   9.888   8.637  0.2487 -0.7717  0.1106
  236MOL0     C31743   1.337   9.824   8.664  0.3042 -0.4081 -0.7671
  236MOL0     C31744   1.350   9.799   8.793  0.4533 -0.2221 -1.3518
  236MOL0     C31745   1.249   9.747   8.886  0.0587  0.6088  0.7937
  236MOL0     C31746   1.229   9.587   8.869 -0.4306 -1.1017  0.5325
  236MOL0     C31747   1.096   9.542   8.810  0.7311 -0.2302 -0.1164
  236MOL0     C31748   1.119   9.461   8.684  0.4683  0.2965  1.0797
  236MOL0     O31749   0.996   9.396   8.648 -1.0215  0.2866  0.5722
  236MOL0     C31750   0.981   9.322   8.529 -0.6137 -0.1158 -0.0857
  236MOL0     C31751   1.084   9.285   8.440 -0.0123 -0.0493  0.4695
  236MOL0     C31752   1.053   9.201   8.330  0.0490 -1.6964  0.5234
  236MOL0     C31753   1.164   9.159   8.239 -0.3190  0.3208 -0.3142
  236MOL0     C31754   0.917   9.170   8.302 -0.2525  1.2968  1.1759
  236MOL0     C31755   0.885   9.052   8.205  0.8642  0.4384 -0.8148
  236MOL0     O31756   0.751   9.052   8.170 -0.5006 -0.3677  0.0735
  236MOL0     C31757   0.717   8.951   8.084 -0.1354 -0.0522  0.4953
  236MOL0     C31758   0.700   8.976   7.944 -0.5111 -0.1442 -0.9011
  236MOL0     C31759   0.653   8.876   7.872 -0.1002  0.4856  0.2659
  236MOL0     C31760   0.648   8.743   7.909  0.6263 -0.0539 -0.5676
  236MOL0     O31761   0.612   8.656   7.803 -0.0016  0.1671 -0.0332
  236MOL0     C31762   0.644   8.521   7.826 -0.5514 -0.2851 -0.1462
  236MOL0     C31763   0.523   8.449   7.897 -0.9399  0.0790 -0.4935
  236MOL0     C31764   0.413   8.413   7.799  0.3502  0.0785 -0.1547
  236MOL0     C31765   0.277   8.363   7.857 -0.7927 -0.0472  0.4676
  236MOL0     C31766   0.267   8.205   7.836 -0.3201  0.2957  0.0587
  236MOL0     C31767   0.142   8.158   7.912  0.6535  0.7737  0.5607
  236MOL0     C31768   0.094   8.015   7.872  0.7480  0.4943 -0.1993
  236MOL0     C31769   0.051   7.928   8.002  0.4843  0.1639  0.2268
  236MOL0    Cl31770   0.183   7.864   8.101  0.1549 -0.4749  0.3709
  236MOL0     C31771   0.673   8.716   8.047  0.0951  0.9186  0.3439
  236MOL0     C31772   0.703   8.817   8.132 -1.0282  0.6581  0.2611
  236MOL0     O31773   0.966   8.976   8.158 -0.3718 -0.7293 -0.2812
  236MOL0     C31774   0.820   9.218   8.386  0.0811 -0.4528 -0.1394
  236MOL0     C31775   0.855   9.279   8.507  0.3831 -0.1875 -0.2020
  236MOL0     N31776   1.457   9.864   8.836 -0.6088 -0.3323 -0.1421
  236MOL0     N31777   1.522   9.926   8.746 -0.0165  0.2781 -0.1161
  236MOL0     C31778   0.702  10.002   8.239  1.2442  0.4380  0.7684
  236MOL0     C31779   0.568   9.959   8.196  0.2856  0.8103 -0.3039
  236MOL0     C31780   0.165   9.927   7.962  0.2810 -0.4677 -0.0989
  236MOL0     C31781   0.144   9.819   8.049  0.0007  0.2357 -0.6003
  236MOL0     C31782   0.032   9.735   8.042  0.4504 -0.2510 -0.1609
  236MOL0     C31783  -0.063   9.758   7.936 -0.8613 -0.0213  0.5275
  236MOL0     O31784  -0.176   9.686   7.915  0.7399  0.2373 -0.1199
  236MOL0     C31785  -0.214   9.579   8.002 -0.3174  0.6256 -0.1239
  236MOL0     C31786  -0.278   9.454   7.936  0.8303 -0.4314  0.0150
  236MOL0     C31787  -0.221   9.428   7.799 -0.3647 -0.1510  0.5024
  236MOL0     C31788  -0.254   9.280   7.747  0.1188 -1.2165  0.2916
  236MOL0     C31789  -0.164   9.181   7.801 -0.5043  0.0054  0.6714
  236MOL0     C31790  -0.083   9.089   7.826  0.5464  0.3442  1.2453
  236MOL0     C31791  -0.043   9.870   7.847 -0.5909  0.0518 -0.1855
  236MOL0     C31792   0.067   9.949   7.865 -1.0158  0.4409 -0.3683
  236MOL0     H31793   0.486  10.215   8.009  2.6859  1.3547  0.4146
  236MOL0     H31794   0.701  10.292   8.054 -1.1318 -0.5441 -2.2916
  236MOL0     H31795   0.945  10.281   8.103  0.1655  0.5293 -0.5409
  236MOL0     H31796   0.872  10.340   8.249 -4.1743 -2.4190 -1.8847
  236MOL0     H31797   1.142  10.200   8.221  0.7537 -0.3865 -0.3896
  236MOL0     H31798   1.106  10.371   8.246 -1.2182 -0.1455  0.6830
  236MOL0     H31799   1.019  10.319   8.471 -0.2755 -1.1164  2.7115
  236MOL0     H31800   1.036  10.146   8.453  2.2264  0.6055  0.9169
  236MOL0     H31801   1.265  10.349   8.434  1.1918 -0.2454 -0.6674
  236MOL0     H31802   1.204  10.287   8.589  0.0413  2.0692 -1.0278
  236MOL0     H31803   1.252  10.063   8.504  0.5329  0.7950  0.7468
  236MOL0     H31804   1.304  10.136   8.352 -1.5969  0.0259  0.2051
  236MOL0     H31805   1.465  10.271   8.483  0.1538  0.9325 -0.1296
  236MOL0     H31806   1.441  10.179   8.633  1.8245  4.2168  0.5205
  236MOL0     H31807   1.570  10.087   8.379  1.0708 -1.9240  0.0324
  236MOL0     H31808   1.646  10.094   8.535  0.8055 -2.9312 -0.1156
  236MOL0     H31809   1.596   9.859   8.473  0.6122  1.7989  0.3897
  236MOL0     H31810   1.435   9.904   8.420 -0.8900  1.8861  0.1491
  236MOL0     H31811   1.257   9.807   8.593 -2.3452  1.1566  1.6444
  236MOL0     H31812   1.277   9.783   8.986  1.3178  1.9662 -0.0166
  236MOL0     H31813   1.158   9.806   8.872  0.4447  1.4684  1.7627
  236MOL0     H31814   1.245   9.537   8.965 -2.1613 -0.7293  1.0494
  236MOL0     H31815   1.313   9.546   8.812  1.8852 -0.8065  3.4756
  236MOL0     H31816   1.035   9.628   8.782 -0.7481 -0.3453  2.5019
  236MOL0     H31817   1.038   9.478   8.877  1.2985 -1.8930 -1.1506
  236MOL0     H31818   1.197   9.384   8.687 -1.0318 -1.2963  0.6288
  236MOL0     H31819   1.137   9.542   8.612 -0.6791 -2.3417 -2.4089
  236MOL0     H31820   1.188   9.303   8.463  0.2382  1.1000 -1.3474
  236MOL0     H31821   1.252   9.225   8.245  0.0850 -0.2784  0.5624
  236MOL0     H31822   1.192   9.060   8.278  1.4484  0.4343 -1.1878
  236MOL0     H31823   1.132   9.170   8.135 -1.0600 -1.7283 -0.3543
  236MOL0     H31824   0.715   9.079   7.913 -0.9745  0.9111  2.0681
  236MOL0     H31825   0.623   8.905   7.771 -1.8219  1.3598  0.9779
  236MOL0     H31826   0.678   8.469   7.736 -1.9531 -0.9448 -0.3154
  236MOL0     H31827   0.732   8.509   7.890  0.1257  1.2977 -0.7112
  236MOL0     H31828   0.560   8.358   7.946  1.4746  1.6159  0.7356
  236MOL0     H31829   0.475   8.507   7.976  0.1463 -0.6753  0.7688
  236MOL0     H31830   0.448   8.361   7.710  2.3613  2.9298 -1.1803
  236MOL0     H31831   0.384   8.507   7.752  0.2995 -0.0513 -0.3851
  236MOL0     H31832   0.276   8.395   7.961 -2.8479 -0.6602  0.6779
  236MOL0     H31833   0.189   8.410   7.812 -1.8161  0.0913  2.5215
  236MOL0     H31834   0.362   8.163   7.873 -1.1771 -2.6500 -0.7632
  236MOL0     H31835   0.257   8.184   7.729 -1.4582 -0.1029  0.2321
  236MOL0     H31836   0.148   8.162   8.021  1.0682 -3.8556  0.9333
  236MOL0     H31837   0.064   8.225   7.875 -0.8774 -1.0571  0.3053
  236MOL0     H31838   0.158   7.958   7.805 -1.5665  0.3302 -2.4395
  236MOL0     H31839   0.004   8.027   7.810 -0.1758 -4.4307 -0.1578
  236MOL0     H31840   0.005   7.834   7.969  0.6298  0.5138 -1.0194
  236MOL0     H31841  -0.014   8.000   8.052 -1.9232 -0.0759 -2.3569
  236MOL0     H31842   0.663   8.613   8.077  2.0710  0.1943 -1.2319
  236MOL0     H31843   0.721   8.795   8.237 -2.7979 -0.8750  0.3041
  236MOL0     H31844   0.717   9.202   8.358  0.4183  0.8156 -2.3200
  236MOL0     H31845   0.770   9.302   8.572  0.8273  0.0620  0.3008
  236MOL0     H31846   0.757   9.943   8.311 -2.5178  0.9976  4.4793
  236MOL0     H31847   0.526   9.870   8.242  2.1811  0.6848  1.3211
  236MOL0     H31848   0.213   9.801   8.131 -0.1341  1.7852 -0.1202
  236MOL0     H31849   0.012   9.657   8.114 -3.2368  1.2704  0.7197
  236MOL0     H31850  -0.118   9.533   8.027 -0.1031 -0.9403 -3.3277
  236MOL0     H31851  -0.266   9.615   8.091 -2.9977 -0.4150 -1.1685
  236MOL0     H31852  -0.384   9.480   7.933  0.4946 -1.2881  2.4269
  236MOL0     H31853  -0.280   9.367   8.003 -0.1783 -2.5126 -2.5324
  236MOL0     H31854  -0.112   9.437   7.800 -0.3401 -0.4853  0.8299
  236MOL0     H31855  -0.277   9.491   7.728  0.5121  3.3958  2.7123
  236MOL0     H31856  -0.244   9.269   7.639 -0.0032 -1.0992  0.2676
  236MOL0     H31857  -0.359   9.256   7.766  0.2892 -0.4626  2.5061
  236MOL0     H31858  -0.022   9.006   7.856 -0.7605 -0.7378  1.0067
  236MOL0     H31859  -0.127   9.886   7.779 -0.9195 -0.3576  0.1200
  236MOL0     H31860   0.070  10.040   7.806  3.3756  1.4534  1.0318
  237MOL0     O31861   5.898   9.801   6.736  0.2710 -0.1368 -0.0505
  237MOL0     C31862   5.813   9.717   6.770 -0.6725  0.4236  0.9152
  237MOL0     O31863   5.835   9.600   6.843  0.2124 -0.6047 -0.4306
  237MOL0     C31864   5.966   9.561   6.846  0.6561  0.2329  0.6992
  237MOL0     C31865   6.005   9.499   6.965 -0.1602 -1.4484 -0.0747
  237MOL0     C31866   6.138   9.451   6.986 -0.1679 -1.0663  0.1577
  237MOL0     C31867   6.233   9.476   6.888 -0.3090  0.0149 -0.0163
  237MOL0     O31868   6.371   9.446   6.892  0.1354 -0.1113 -1.3836
  237MOL0     C31869   6.420   9.440   7.034 -0.4471  0.5886  0.8643
  237MOL0     C31870   6.566   9.390   7.026 -0.1431 -0.1717  0.4741
  237MOL0     C31871   6.588   9.270   6.937 -0.0736  0.4448 -0.7538
  237MOL0     C31872   6.518   9.149   6.992  0.3745  0.2042 -0.1706
  237MOL0     C31873   6.554   9.030   6.902 -0.2440 -0.2706  0.3928
  237MOL0     C31874   6.479   8.898   6.942 -0.0198 -0.4444 -0.4871
  237MOL0     C31875   6.482   8.793   6.824  0.5060  0.8243 -0.1093
  237MOL0     C31876   6.375   8.832   6.708  0.5714 -0.4549  0.2749
  237MOL0     N31877   6.248   8.889   6.745  0.2503 -1.6840  0.0663
  237MOL0     C31878   6.215   9.022   6.757 -0.7683  0.8977  0.3014
  237MOL0     C31879   6.096   9.021   6.816 -0.0492  0.3045  0.1882
  237MOL0     C31880   6.026   9.149   6.854  0.0236 -0.4997 -0.8204
  237MOL0     C31881   5.898   9.172   6.776 -0.6476  0.5905  0.3579
  237MOL0     C31882   5.782   9.089   6.830 -0.2021  0.4552  0.6991
  237MOL0     C31883   5.762   9.102   6.977  0.1581 -0.9059  0.3995
  237MOL0     O31884   5.733   9.242   7.009  0.2763  0.0451  0.1830
  237MOL0     C31885   5.638   9.267   7.101  0.1747 -0.2824  0.2575
  237MOL0     C31886   5.595   9.398   7.125 -0.6528 -1.2693  0.0196
  237MOL0     C31887   5.493   9.437   7.216 -0.2318  0.4775  0.1835
  237MOL0     C31888   5.445   9.588   7.207 -0.0748 -1.0089 -0.4478
  237MOL0     C31889   5.434   9.329   7.283  0.8810 -0.7614 -0.5771
  237MOL0     C31890   5.306   9.343   7.357  0.4838 -1.1105 -0.5015
  237MOL0     O31891   5.269   9.237   7.433 -1.1783 -0.2387  0.1980
  237MOL0     C31892   5.141   9.247   7.484  0.3623 -0.5362 -0.4805
  237MOL0     C31893   5.035   9.192   7.417  0.4727 -0.5760  0.1900
  237MOL0     C31894   4.908   9.188   7.482  0.1197 -0.0431  0.1508
  237MOL0     C31895   4.891   9.236   7.621 -0.3228  0.1964  0.1302
  237MOL0     O31896   4.762   9.217   7.668 -0.4517  0.1924 -0.5173
  237MOL0     C31897   4.717   9.335   7.740 -0.3539  0.5923 -0.1073
  237MOL0     C31898   4.678   9.288   7.879  0.5637 -0.1766 -0.0637
  237MOL0     C31899   4.610   9.388   7.972  0.5773 -0.3146  0.1448
  237MOL0     C31900   4.481   9.443   7.922 -1.0599  0.4599 -0.0756
  237MOL0     C31901   4.400   9.518   8.030  0.5516  0.7073 -0.1722
  237MOL0     C31902   4.271   9.577   7.977 -0.0869  0.7779  1.2019
  237MOL0     C31903   4.197   9.664   8.083 -0.3895 -0.4637 -0.0340
  237MOL0     C31904   4.119   9.780   8.019  0.2606 -0.9166  0.0431
  237MOL0    Cl31905   3.929   9.768   8.002  0.1855 -0.2221  0.5805
  237MOL0     C31906   5.011   9.281   7.690  0.3163 -0.1581 -0.4434
  237MOL0     C31907   5.132   9.294   7.616  0.1973 -0.7916  0.4651
  237MOL0     O31908   5.253   9.451   7.363  0.5421  0.6395  0.7654
  237MOL0     C31909   5.493   9.200   7.275  0.9259 -0.2601  0.4065
  237MOL0     C31910   5.585   9.172   7.181 -0.0745 -0.2742  0.4104
  237MOL0     N31911   6.054   8.894   6.834  0.5969  0.3690  0.4991
  237MOL0     N31912   6.151   8.820   6.788 -0.0384  0.0858  0.0179
  237MOL0     C31913   6.197   9.538   6.773 -0.4252  0.5951 -0.0149
  237MOL0     C31914   6.064   9.571   6.741 -0.1094 -1.2644 -0.3854
  237MOL0     C31915   5.672   9.741   6.729  0.6986 -0.8244  0.0882
  237MOL0     C31916   5.646   9.847   6.631 -0.3680 -0.0645  0.9535
  237MOL0     C31917   5.510   9.872   6.606  0.1784  0.4784  0.5589
  237MOL0     C31918   5.406   9.798   6.643  0.3252 -0.8977  0.1931
  237MOL0     O31919   5.275   9.844   6.614  0.1985 -0.5569 -0.5713
  237MOL0     C31920   5.154   9.763   6.650 -0.5935 -1.1118  0.0231
  237MOL0     C31921   5.033   9.823   6.570 -0.1805  0.0248  0.2161
  237MOL0     C31922   4.918   9.725   6.570 -0.7371  0.0176 -0.1740
  237MOL0     C31923   4.780   9.788   6.546 -0.0187  0.4264  0.6414
  237MOL0     C31924   4.726   9.767   6.415 -0.2145 -0.7931  0.3811
  237MOL0     C31925   4.677   9.757   6.305 -0.8310  0.6540  0.8433
  237MOL0     C31926   5.431   9.699   6.741 -0.3064  0.2285  0.3975
  237MOL0     C31927   5.566   9.671   6.783 -0.4065  0.6424 -0.2170
  237MOL0     H31928   5.939   9.467   7.045  0.1200 -0.4097  0.5764
  237MOL0     H31929   6.153   9.412   7.086 -1.8696 -1.6579  0.2108
  237MOL0     H31930   6.434   9.541   7.075  1.8474  0.8373 -0.3700
  237MOL0     H31931   6.366   9.368   7.097 -1.1848 -0.7307 -1.1982
  237MOL0     H31932   6.632   9.469   6.989  0.7909 -1.9044 -1.7989
  237MOL0     H31933   6.602   9.373   7.128  0.2730 -2.4743 -0.0151
  237MOL0     H31934   6.563   9.285   6.832 -0.7591  0.1186 -0.6388
  237MOL0     H31935   6.692   9.239   6.953  0.0669  2.0369  1.9714
  237MOL0     H31936   6.546   9.124   7.095  0.0388 -1.2610 -0.4116
  237MOL0     H31937   6.410   9.165   6.995  0.6081  1.7706  1.3688
  237MOL0     H31938   6.528   9.058   6.799 -0.1990 -1.2399  0.1032
  237MOL0     H31939   6.660   9.007   6.887 -0.7424 -1.0442 -2.6031
  237MOL0     H31940   6.528   8.847   7.026 -0.4128 -0.7698 -0.4517
  237MOL0     H31941   6.380   8.906   6.987  1.7071 -0.9996  3.8728
  237MOL0     H31942   6.579   8.780   6.776  1.4534  1.6403  1.4871
  237MOL0     H31943   6.443   8.698   6.861 -0.3593 -0.3520 -3.6466
  237MOL0     H31944   6.342   8.742   6.655  2.4755  0.4396 -2.6608
  237MOL0     H31945   6.430   8.903   6.645 -2.1320  1.0382 -0.5470
  237MOL0     H31946   6.279   9.105   6.730  0.4590 -0.0531  0.2033
  237MOL0     H31947   6.021   9.153   6.964  2.5689 -0.3840 -0.6454
  237MOL0     H31948   6.094   9.232   6.834  0.5035 -0.6219  0.2501
  237MOL0     H31949   5.928   9.149   6.673  0.4426  2.2396  0.2620
  237MOL0     H31950   5.870   9.278   6.768 -1.8992  0.3691  1.4232
  237MOL0     H31951   5.790   8.985   6.799 -0.5700  0.8991 -0.9953
  237MOL0     H31952   5.695   9.124   6.774 -0.8583 -0.4525  1.1214
  237MOL0     H31953   5.845   9.068   7.039 -0.9084  0.1306  2.5095
  237MOL0     H31954   5.678   9.034   6.992  1.0799 -1.9157  1.0975
  237MOL0     H31955   5.623   9.476   7.055  2.7136 -0.5172  1.9872
  237MOL0     H31956   5.396   9.615   7.300  0.2921 -2.0291  0.0525
  237MOL0     H31957   5.526   9.661   7.210 -1.7901  0.9708  0.2776
  237MOL0     H31958   5.381   9.606   7.120 -0.1981 -0.8623 -0.3267
  237MOL0     H31959   5.036   9.153   7.315 -2.2617  0.6073 -0.3787
  237MOL0     H31960   4.829   9.143   7.422  1.6075 -0.8105 -1.2824
  237MOL0     H31961   4.794   9.411   7.755  2.5423 -2.5872  3.0501
  237MOL0     H31962   4.634   9.377   7.681 -0.8750 -0.0196  0.1765
  237MOL0     H31963   4.617   9.200   7.858 -0.0645  0.3136 -0.3056
  237MOL0     H31964   4.764   9.248   7.934  0.0002  1.4550  2.1312
  237MOL0     H31965   4.680   9.468   7.998 -0.1720 -0.3856  2.5927
  237MOL0     H31966   4.582   9.337   8.065 -1.0184 -1.7717 -1.0651
  237MOL0     H31967   4.488   9.501   7.830 -1.6234 -0.1066 -0.4869
  237MOL0     H31968   4.415   9.361   7.893  0.4012 -0.3863 -1.2155
  237MOL0     H31969   4.463   9.594   8.076  0.4373 -0.7363  2.5850
  237MOL0     H31970   4.383   9.447   8.112  0.9047  1.5083  0.6142
  237MOL0     H31971   4.294   9.639   7.891 -1.5787  3.2671  2.4837
  237MOL0     H31972   4.208   9.493   7.944  3.2524 -0.3932 -3.1547
  237MOL0     H31973   4.274   9.713   8.144  2.0196 -0.4360 -2.8764
  237MOL0     H31974   4.135   9.597   8.144 -0.0787 -2.8142 -2.1213
  237MOL0     H31975   4.161   9.812   7.924 -0.7503 -1.2444 -0.5283
  237MOL0     H31976   4.140   9.865   8.085  0.4007  0.3184 -1.5487
  237MOL0     H31977   5.006   9.333   7.785 -2.8884  3.4008 -2.2445
  237MOL0     H31978   5.216   9.336   7.671 -0.0148  1.6963 -0.9683
  237MOL0     H31979   5.450   9.132   7.347  0.2082  1.1233  1.3358
  237MOL0     H31980   5.627   9.072   7.170  1.5115  0.5432 -1.4296
  237MOL0     H31981   6.271   9.549   6.695 -3.4921  1.1089 -3.0941
  237MOL0     H31982   6.036   9.623   6.650 -0.2410  1.9010  1.3218
  237MOL0     H31983   5.728   9.900   6.584  2.1242 -1.7802  3.0413
  237MOL0     H31984   5.486   9.958   6.544  0.0514 -2.5805 -4.1008
  237MOL0     H31985   5.176   9.656   6.636  0.0693 -0.6811 -2.9916
  237MOL0     H31986   5.145   9.776   6.758  2.0245  1.8117  0.0220
  237MOL0     H31987   5.040   9.855   6.466  1.0976 -1.1499 -0.0880
  237MOL0     H31988   5.003   9.909   6.631 -0.0551 -0.8110  1.4948
  237MOL0     H31989   4.900   9.690   6.673 -2.9487  1.2943 -0.0560
  237MOL0     H31990   4.936   9.638   6.506 -1.5668 -0.1176 -0.2382
  237MOL0     H31991   4.777   9.897   6.561 -0.7049  1.0325 -2.8955
  237MOL0     H31992   4.711   9.736   6.611 -1.5442 -0.1890 -1.3675
  237MOL0     H31993   4.643   9.752   6.204  1.9263  1.8251 -0.2299
  237MOL0     H31994   5.345   9.653   6.789  0.0460 -0.9726 -0.0853
  237MOL0     H31995   5.595   9.590   6.849  0.4592  0.4223 -0.8597
  238MOL0     O31996   6.489   7.183   1.162  0.1773 -0.3419 -0.0960
  238MOL0     C31997   6.552   7.242   1.066 -0.0125 -0.0072 -0.4512
  238MOL0     O31998   6.501   7.340   0.995 -0.2295  0.0289 -0.2259
  238MOL0     C31999   6.392   7.411   1.040  0.2092 -0.2746  0.4917
  238MOL0     C32000   6.416   7.546   1.065 -0.4886  0.5371 -0.3707
  238MOL0     C32001   6.318   7.633   1.111  0.9543 -0.0417 -0.6014
  238MOL0     C32002   6.188   7.589   1.139  0.6846  0.9914  0.6461
  238MOL0     O32003   6.095   7.678   1.182 -0.0537  0.0793 -0.3483
  238MOL0     C32004   6.109   7.693   1.320  0.6541 -0.1482 -0.6375
  238MOL0     C32005   5.999   7.785   1.380  0.2583  0.2146 -0.0816
  238MOL0     C32006   5.872   7.708   1.433 -0.4715 -0.5771  0.8689
  238MOL0     C32007   5.784   7.821   1.505 -0.7305 -0.1584  0.3261
  238MOL0     C32008   5.641   7.777   1.508 -0.2083 -0.2086  0.6216
  238MOL0     C32009   5.555   7.881   1.591 -0.2979 -0.4082 -0.6429
  238MOL0     C32010   5.404   7.841   1.620 -0.0468  0.0037 -0.3822
  238MOL0     C32011   5.392   7.729   1.727 -0.2015  0.3254 -0.1093
  238MOL0     N32012   5.267   7.748   1.791 -0.2535 -0.0386 -0.0710
  238MOL0     C32013   5.260   7.795   1.918 -0.5911 -0.2616 -0.8671
  238MOL0     C32014   5.125   7.802   1.936 -0.1992 -0.6498  1.5148
  238MOL0     C32015   5.062   7.862   2.049  0.1065 -1.0534 -0.0067
  238MOL0     C32016   4.904   7.859   2.043  0.4864 -0.5085 -0.5995
  238MOL0     C32017   4.846   7.888   2.185 -0.1238 -0.0947 -0.3041
  238MOL0     C32018   4.869   8.035   2.241  0.0154 -1.0154 -0.6587
  238MOL0     O32019   4.799   8.119   2.148 -0.3393 -0.1165 -0.8313
  238MOL0     C32020   4.735   8.237   2.181 -0.3901 -0.7521 -1.0795
  238MOL0     C32021   4.767   8.320   2.296 -0.3028 -0.4810  0.0054
  238MOL0     C32022   4.708   8.445   2.319  0.2483  0.1900 -0.0878
  238MOL0     C32023   4.752   8.524   2.445  0.7857  0.8020  0.0282
  238MOL0     C32024   4.606   8.496   2.232 -0.1463  0.9433  0.4886
  238MOL0     C32025   4.532   8.617   2.250  0.4303 -0.2829 -0.4127
  238MOL0     O32026   4.423   8.643   2.158  0.5993  0.2991 -0.2129
  238MOL0     C32027   4.358   8.760   2.158 -1.1719 -0.8238 -0.2419
  238MOL0     C32028   4.275   8.806   2.273 -0.6178 -0.2679  0.7265
  238MOL0     C32029   4.207   8.927   2.251 -0.2645  0.6172 -0.6995
  238MOL0     C32030   4.204   8.991   2.130  0.0407  0.0873 -0.9934
  238MOL0     O32031   4.128   9.104   2.125  0.1465  0.5043  0.2815
  238MOL0     C32032   4.206   9.223   2.113 -0.0949  0.4676  0.1602
  238MOL0     C32033   4.242   9.273   2.254  0.1024 -0.3981  0.2113
  238MOL0     C32034   4.112   9.311   2.342 -0.0497 -0.0873  0.1546
  238MOL0     C32035   4.052   9.436   2.304  0.7742 -0.4606 -0.3195
  238MOL0     C32036   3.932   9.471   2.392 -0.0523 -0.6152 -0.2462
  238MOL0     C32037   3.803   9.384   2.403  0.0463  0.4231  0.5445
  238MOL0     C32038   3.705   9.466   2.485 -0.4608  0.9069  0.1592
  238MOL0     C32039   3.583   9.383   2.530 -0.3186 -0.0948  0.8368
  238MOL0    Cl32040   3.456   9.484   2.604  0.4703  0.0733 -0.1246
  238MOL0     C32041   4.283   8.948   2.024  0.0354 -0.5948  0.4208
  238MOL0     C32042   4.361   8.834   2.038  0.3773  0.6842 -0.5473
  238MOL0     O32043   4.548   8.686   2.351 -0.2553  0.4163 -0.3783
  238MOL0     C32044   4.584   8.416   2.114  0.9812 -0.2353 -0.6686
  238MOL0     C32045   4.641   8.291   2.087 -0.0401  0.3096 -0.4251
  238MOL0     N32046   5.067   7.753   1.823 -0.2909  0.7001 -0.4653
  238MOL0     N32047   5.147   7.723   1.729 -0.1972  0.0686 -0.5772
  238MOL0     C32048   6.153   7.451   1.120 -1.1823 -0.3118 -0.9485
  238MOL0     C32049   6.261   7.362   1.073 -0.2674 -0.5342 -0.2325
  238MOL0     C32050   6.675   7.179   1.021  0.3187 -0.3406  0.4862
  238MOL0     C32051   6.753   7.237   0.912  0.8858  0.5747  0.0198
  238MOL0     C32052   6.873   7.181   0.878  1.0752  0.1196  0.0668
  238MOL0     C32053   6.921   7.066   0.945 -0.8240  0.1379  1.1137
  238MOL0     O32054   7.042   7.009   0.911 -0.0278 -0.8363  0.0948
  238MOL0     C32055   7.084   6.882   0.972 -0.3664 -0.5784 -0.2965
  238MOL0     C32056   7.212   6.832   0.904  0.2914 -0.8498  0.0367
  238MOL0     C32057   7.336   6.917   0.926  0.3295 -0.0150  0.2750
  238MOL0     C32058   7.447   6.846   0.865 -0.1077 -0.2865  0.4414
  238MOL0     C32059   7.570   6.928   0.877  0.2354  0.3436 -0.8814
  238MOL0     C32060   7.670   6.998   0.886  1.1624  0.6242 -0.1676
  238MOL0     C32061   6.840   7.005   1.037 -1.0621  0.1395  0.1910
  238MOL0     C32062   6.716   7.059   1.073  0.5096  0.2524 -0.1003
  238MOL0     H32063   6.516   7.580   1.040 -0.6219  0.5742 -0.8544
  238MOL0     H32064   6.357   7.733   1.126 -2.4146  0.9897  2.6646
  238MOL0     H32065   6.109   7.595   1.369 -1.7060 -2.1551 -4.1659
  238MOL0     H32066   6.204   7.746   1.325  1.5659 -1.6183 -1.6611
  238MOL0     H32067   6.049   7.841   1.459 -1.4034  2.8012 -0.7348
  238MOL0     H32068   5.965   7.854   1.302  2.4375 -1.8675 -3.1139
  238MOL0     H32069   5.813   7.664   1.353 -1.6742 -0.5733  1.7136
  238MOL0     H32070   5.899   7.621   1.494  0.6621 -2.3513 -1.9583
  238MOL0     H32071   5.820   7.851   1.604  0.2262  0.3541 -0.1693
  238MOL0     H32072   5.800   7.916   1.453  4.1897 -0.1569  1.3929
  238MOL0     H32073   5.606   7.768   1.405 -1.2024 -0.6473  0.9843
  238MOL0     H32074   5.621   7.677   1.548 -1.4832 -0.0131  0.5182
  238MOL0     H32075   5.604   7.903   1.687 -0.0255 -0.1111 -0.8469
  238MOL0     H32076   5.565   7.973   1.534  2.3014  1.4091  2.3776
  238MOL0     H32077   5.357   7.935   1.650 -0.9180 -0.3265 -0.6720
  238MOL0     H32078   5.354   7.801   1.531 -3.5651  0.0095  1.4052
  238MOL0     H32079   5.467   7.745   1.805 -0.5109 -1.9799  0.7372
  238MOL0     H32080   5.409   7.627   1.691  0.6209  0.9790 -1.6781
  238MOL0     H32081   5.349   7.832   1.969 -1.6281  1.1887 -0.0399
  238MOL0     H32082   5.090   7.824   2.147 -1.8412  2.0595  1.9529
  238MOL0     H32083   5.090   7.968   2.044 -0.9214 -0.8227 -2.5077
  238MOL0     H32084   4.878   7.757   2.013  0.3165 -0.3048 -1.1505
  238MOL0     H32085   4.864   7.929   1.969 -0.5103 -1.4279 -0.9662
  238MOL0     H32086   4.904   7.822   2.250  0.0538  0.8012  0.4546
  238MOL0     H32087   4.742   7.854   2.187 -0.0658 -0.2624 -0.1243
  238MOL0     H32088   4.976   8.055   2.237 -0.0146 -0.8783 -0.7870
  238MOL0     H32089   4.839   8.040   2.346  2.5636  0.5923  0.0831
  238MOL0     H32090   4.842   8.292   2.370 -0.6443  0.3181  0.6578
  238MOL0     H32091   4.833   8.467   2.491  1.6331  1.5267 -0.5543
  238MOL0     H32092   4.778   8.628   2.425  2.2196  0.1343 -1.8569
  238MOL0     H32093   4.668   8.526   2.515 -1.4344  2.6339 -2.4780
  238MOL0     H32094   4.270   8.753   2.367 -2.3196 -1.1399  0.1728
  238MOL0     H32095   4.166   8.969   2.343 -0.1522 -0.9935  0.1193
  238MOL0     H32096   4.303   9.204   2.067 -0.3837 -2.1730  0.4881
  238MOL0     H32097   4.148   9.292   2.051 -1.7052 -0.3600  0.6799
  238MOL0     H32098   4.304   9.198   2.305 -1.5611 -1.5518  0.6018
  238MOL0     H32099   4.309   9.359   2.241  1.3130 -1.2522  0.5910
  238MOL0     H32100   4.144   9.315   2.447 -1.3650 -2.6924  0.7191
  238MOL0     H32101   4.033   9.237   2.328  0.3847 -0.2476 -1.6939
  238MOL0     H32102   4.131   9.510   2.317  1.2702 -0.6074 -2.1766
  238MOL0     H32103   4.029   9.435   2.197 -0.8031 -0.4639  0.0059
  238MOL0     H32104   3.913   9.574   2.359 -0.0851 -0.7049 -0.5133
  238MOL0     H32105   3.977   9.485   2.490  0.6550  1.9263 -0.8456
  238MOL0     H32106   3.761   9.354   2.307  0.0814 -0.4467  0.7869
  238MOL0     H32107   3.836   9.300   2.465  3.6683  0.8522 -0.5574
  238MOL0     H32108   3.664   9.547   2.425  1.2125  0.6011 -1.4755
  238MOL0     H32109   3.749   9.519   2.570 -1.6662  0.7690  0.9062
  238MOL0     H32110   3.609   9.297   2.592 -1.4679 -1.6660 -0.7767
  238MOL0     H32111   3.555   9.332   2.438  1.4705  3.8875 -2.2042
  238MOL0     H32112   4.275   9.017   1.941 -0.1033  0.5950  1.3930
  238MOL0     H32113   4.427   8.806   1.957  2.1848  0.5459  0.9058
  238MOL0     H32114   4.505   8.455   2.050  0.7285  0.4093  0.0165
  238MOL0     H32115   4.616   8.237   1.996  0.6936 -1.6938  0.4950
  238MOL0     H32116   6.052   7.417   1.141 -1.5120  1.1098 -0.0835
  238MOL0     H32117   6.235   7.257   1.061 -1.3411 -0.5480  1.7817
  238MOL0     H32118   6.722   7.332   0.870  1.3021  1.4236  1.5394
  238MOL0     H32119   6.926   7.236   0.801 -0.8543  0.4627 -1.0950
  238MOL0     H32120   7.100   6.895   1.080 -0.8564  1.1169 -0.3941
  238MOL0     H32121   7.005   6.808   0.955 -1.0999  0.2201 -0.4383
  238MOL0     H32122   7.188   6.819   0.798  0.7712  0.5672 -0.2699
  238MOL0     H32123   7.231   6.732   0.945  2.7139  0.0507  1.3236
  238MOL0     H32124   7.354   6.919   1.034  0.4183 -0.3083  0.2663
  238MOL0     H32125   7.313   7.013   0.879 -0.4603 -0.5114 -0.3750
  238MOL0     H32126   7.427   6.831   0.759 -2.5358 -2.0832  1.0538
  238MOL0     H32127   7.450   6.748   0.913  0.0062 -1.2944 -1.5280
  238MOL0     H32128   7.769   7.038   0.897  1.6272 -0.5324 -0.0634
  238MOL0     H32129   6.872   6.908   1.072  1.2117  0.2324 -1.4359
  238MOL0     H32130   6.650   7.005   1.141  0.0785 -1.3897 -1.7504
  239MOL0     O32131   9.028   5.991   0.857  0.2958 -0.7563  0.2370
  239MOL0     C32132   9.099   5.920   0.785 -0.7259 -0.4148  0.7589
  239MOL0     O32133   9.063   5.805   0.711 -0.4809 -0.1440  0.6175
  239MOL0     C32134   8.936   5.762   0.730  0.4152  0.0060  0.8368
  239MOL0     C32135   8.910   5.667   0.827 -1.0414  0.4828 -0.1118
  239MOL0     C32136   8.778   5.635   0.861 -1.0294  0.4485  0.0627
  239MOL0     C32137   8.670   5.700   0.798 -0.0373 -0.0929 -0.1723
  239MOL0     O32138   8.541   5.671   0.803 -0.0784  0.4993 -0.0481
  239MOL0     C32139   8.495   5.577   0.907 -0.2074  1.2076 -0.0886
  239MOL0     C32140   8.505   5.626   1.054  0.7669  0.1088 -0.3983
  239MOL0     C32141   8.442   5.514   1.146  1.0954 -0.2438 -0.2557
  239MOL0     C32142   8.420   5.557   1.294  0.0030  0.3834 -0.5422
  239MOL0     C32143   8.391   5.423   1.383  0.5320 -0.0986 -0.0597
  239MOL0     C32144   8.256   5.356   1.367 -0.6384  0.4331  0.1099
  239MOL0     C32145   8.222   5.223   1.448  0.3172  0.1909 -0.8966
  239MOL0     C32146   8.099   5.146   1.386 -0.2898  0.1210  0.0659
  239MOL0     N32147   7.978   5.204   1.453  0.0466  1.0858 -0.3642
  239MOL0     C32148   7.900   5.304   1.409  1.1324  0.0027  0.0968
  239MOL0     C32149   7.802   5.317   1.505  0.8040  0.2784  0.4230
  239MOL0     C32150   7.690   5.421   1.503 -0.6592  0.6907  0.0206
  239MOL0     C32151   7.741   5.553   1.546  0.3857  0.3398  1.4843
  239MOL0     C32152   7.700   5.585   1.682 -0.1838 -0.7983 -1.1626
  239MOL0     C32153   7.779   5.499   1.789 -0.5628  0.6692  0.8496
  239MOL0     O32154   7.923   5.494   1.769 -0.0596  0.2029  0.3910
  239MOL0     C32155   7.999   5.603   1.811 -0.2190  0.0786  0.7257
  239MOL0     C32156   8.130   5.595   1.760 -0.1011 -0.0908 -0.1893
  239MOL0     C32157   8.220   5.703   1.781 -0.1761  0.0072 -0.2244
  239MOL0     C32158   8.365   5.673   1.733 -0.4077  0.0040 -0.0542
  239MOL0     C32159   8.185   5.823   1.843  0.1358 -0.2131 -0.5683
  239MOL0     C32160   8.270   5.944   1.854  0.0032 -0.1647 -0.5195
  239MOL0     O32161   8.193   6.058   1.890  0.3215  0.5960  0.1852
  239MOL0     C32162   8.236   6.191   1.884 -0.4729  0.7378 -0.0363
  239MOL0     C32163   8.366   6.231   1.853 -0.3731  0.5555 -0.2929
  239MOL0     C32164   8.395   6.365   1.864  0.0979 -0.4206  0.9855
  239MOL0     C32165   8.297   6.457   1.881  0.0749 -0.5822 -0.3240
  239MOL0     O32166   8.353   6.576   1.900  0.7681 -1.2153  0.2074
  239MOL0     C32167   8.275   6.660   1.987 -0.4069  0.8191 -0.3434
  239MOL0     C32168   8.352   6.784   2.043  0.0767  0.7802 -0.4270
  239MOL0     C32169   8.492   6.752   2.097 -0.4060  0.3379  0.2223
  239MOL0     C32170   8.586   6.874   2.108  0.3060  0.1114  0.2905
  239MOL0     C32171   8.713   6.840   2.177  0.0246 -1.4813  0.2282
  239MOL0     C32172   8.707   6.864   2.330 -0.7194  0.0347  0.7608
  239MOL0     C32173   8.847   6.821   2.386 -0.0481  0.7218 -0.4613
  239MOL0     C32174   8.884   6.882   2.525  0.6140  0.9969  0.1804
  239MOL0    Cl32175   8.922   7.061   2.503 -0.4840 -0.0157 -0.4831
  239MOL0     C32176   8.165   6.413   1.906 -0.6209 -0.2695 -0.4708
  239MOL0     C32177   8.140   6.276   1.922  0.6610 -1.0577 -0.5447
  239MOL0     O32178   8.386   5.945   1.813  0.2691 -0.1426  0.6973
  239MOL0     C32179   8.052   5.823   1.894  0.3459 -0.3127 -0.1266
  239MOL0     C32180   7.959   5.717   1.879  0.2076  0.5822 -0.3926
  239MOL0     N32181   7.829   5.227   1.602  0.0930  0.4483  0.0306
  239MOL0     N32182   7.933   5.158   1.574  0.2544  0.2618  0.3831
  239MOL0     C32183   8.698   5.801   0.702  0.4938  0.2708 -0.3429
  239MOL0     C32184   8.831   5.837   0.676 -0.1873 -0.4506 -0.3661
  239MOL0     C32185   9.242   5.952   0.777  0.8644  0.3166  0.2006
  239MOL0     C32186   9.278   6.084   0.817 -0.2843 -0.4016  0.1752
  239MOL0     C32187   9.406   6.135   0.794 -0.0888 -0.8233  0.1913
  239MOL0     C32188   9.504   6.051   0.737 -0.0576 -1.2485 -0.4169
  239MOL0     O32189   9.626   6.094   0.699 -0.3941 -0.3320  0.3690
  239MOL0     C32190   9.667   6.235   0.719 -0.3270 -0.1878  0.2999
  239MOL0     C32191   9.780   6.271   0.626 -0.2631  0.9228 -0.2524
  239MOL0     C32192   9.911   6.214   0.669  0.7502 -0.3619  0.2597
  239MOL0     C32193   9.944   6.210   0.818 -0.0222  0.1831  0.3526
  239MOL0     C32194  10.086   6.154   0.830 -0.1931  0.0467  0.9685
  239MOL0     C32195  10.205   6.128   0.851 -0.5680  0.2532  1.4581
  239MOL0     C32196   9.474   5.917   0.707  0.3800  0.1502  0.2444
  239MOL0     C32197   9.340   5.870   0.720  0.7307  0.2745  0.2690
  239MOL0     H32198   8.996   5.616   0.868  0.6250  1.2098 -2.4846
  239MOL0     H32199   8.769   5.571   0.948  2.5568  0.2624  0.4280
  239MOL0     H32200   8.388   5.580   0.883  0.1816  2.4397 -1.9360
  239MOL0     H32201   8.532   5.476   0.890  0.2261  1.6087 -1.7779
  239MOL0     H32202   8.609   5.639   1.085  1.8250  0.0220 -3.5212
  239MOL0     H32203   8.444   5.716   1.066 -0.9819 -1.1672  0.6893
  239MOL0     H32204   8.349   5.471   1.107 -0.1223 -0.3131  2.4981
  239MOL0     H32205   8.519   5.438   1.130  2.5955  1.1161  0.2160
  239MOL0     H32206   8.503   5.615   1.334 -0.6524  0.5284  0.6432
  239MOL0     H32207   8.334   5.625   1.290  2.1300  3.1490 -2.4453
  239MOL0     H32208   8.471   5.352   1.360  1.8295  0.8125  1.4321
  239MOL0     H32209   8.408   5.453   1.487 -1.6429 -1.0580  0.6358
  239MOL0     H32210   8.183   5.434   1.391 -0.1985  0.9807 -0.3091
  239MOL0     H32211   8.244   5.337   1.260  3.1982  1.2008 -0.6198
  239MOL0     H32212   8.305   5.152   1.437  0.7970  0.6458 -0.2331
  239MOL0     H32213   8.204   5.271   1.544 -1.9631 -0.4599 -0.9320
  239MOL0     H32214   8.112   5.041   1.413  1.1577  0.2680 -0.0124
  239MOL0     H32215   8.096   5.157   1.277 -2.2471 -1.6854 -0.1226
  239MOL0     H32216   7.921   5.364   1.321 -0.5555  2.3294  1.1899
  239MOL0     H32217   7.649   5.435   1.403 -3.1256  0.4572  0.9366
  239MOL0     H32218   7.611   5.378   1.565 -1.8711  0.0936 -1.8549
  239MOL0     H32219   7.697   5.629   1.481 -0.8524  0.8368  2.8601
  239MOL0     H32220   7.850   5.561   1.541  0.2407  2.3065 -2.1331
  239MOL0     H32221   7.591   5.583   1.692 -0.0788  1.3406  1.8223
  239MOL0     H32222   7.725   5.689   1.704 -1.9505 -0.0691 -2.3631
  239MOL0     H32223   7.745   5.395   1.785 -3.1299  1.4158  1.3920
  239MOL0     H32224   7.757   5.521   1.893 -1.3681  0.2443  0.7844
  239MOL0     H32225   8.166   5.503   1.715  1.4365 -0.1340  1.0158
  239MOL0     H32226   8.388   5.748   1.656 -1.7120  1.0276  0.5296
  239MOL0     H32227   8.432   5.680   1.819  1.6615 -3.1081 -1.2395
  239MOL0     H32228   8.370   5.571   1.693  1.5883 -0.0226  0.1657
  239MOL0     H32229   8.448   6.160   1.843 -1.4475 -0.6746 -0.6092
  239MOL0     H32230   8.494   6.404   1.844 -1.2001  3.4291  1.2180
  239MOL0     H32231   8.186   6.692   1.932  1.0110  2.8940 -1.5654
  239MOL0     H32232   8.237   6.599   2.069 -0.5318 -0.1420 -1.1066
  239MOL0     H32233   8.367   6.846   1.954  0.5003 -3.0661 -3.2779
  239MOL0     H32234   8.296   6.833   2.123  0.3811 -0.3510  0.5050
  239MOL0     H32235   8.536   6.679   2.028  0.2482 -0.6462  1.6175
  239MOL0     H32236   8.489   6.704   2.196  1.7376  0.9470  0.6345
  239MOL0     H32237   8.615   6.903   2.006  1.1397  3.7863  1.4459
  239MOL0     H32238   8.539   6.959   2.158 -1.7137 -1.3572  1.0652
  239MOL0     H32239   8.792   6.902   2.136 -1.0688 -0.7502 -0.8475
  239MOL0     H32240   8.736   6.737   2.148 -0.4453 -1.6072  0.2904
  239MOL0     H32241   8.697   6.972   2.343  1.5624  0.4704 -0.5427
  239MOL0     H32242   8.618   6.819   2.375 -1.1012 -0.8248 -0.7772
  239MOL0     H32243   8.934   6.840   2.322  1.5055  2.0697  1.8961
  239MOL0     H32244   8.840   6.715   2.409  0.2668  0.7326 -0.3162
  239MOL0     H32245   8.971   6.835   2.572  0.9061  0.4880 -0.8286
  239MOL0     H32246   8.798   6.869   2.591 -0.7547  2.9732 -1.1287
  239MOL0     H32247   8.079   6.478   1.912 -0.0738  0.8019 -2.9537
  239MOL0     H32248   8.043   6.230   1.929  0.7031 -1.8300 -3.6634
  239MOL0     H32249   8.013   5.916   1.932 -1.7539 -0.5040 -1.6643
  239MOL0     H32250   7.859   5.728   1.921  1.3829  0.0617  2.8560
  239MOL0     H32251   8.617   5.855   0.654 -1.1016 -3.9152 -2.9277
  239MOL0     H32252   8.834   5.921   0.607  0.4778  0.2063  0.4474
  239MOL0     H32253   9.209   6.158   0.855  1.4205  3.0430 -2.8231
  239MOL0     H32254   9.425   6.240   0.810  1.4601 -1.1000  0.3569
  239MOL0     H32255   9.588   6.306   0.697  0.8969  1.0556 -0.2177
  239MOL0     H32256   9.694   6.256   0.822 -1.8996  0.8963  0.5283
  239MOL0     H32257   9.788   6.380   0.622  1.1378  0.9162  1.2637
  239MOL0     H32258   9.752   6.230   0.529  1.7500 -2.2967  0.3762
  239MOL0     H32259   9.987   6.274   0.618 -1.8204  0.6892 -2.6929
  239MOL0     H32260   9.921   6.114   0.625  1.5956  0.7463 -2.2461
  239MOL0     H32261   9.869   6.143   0.861 -2.4000 -0.1056 -3.6550
  239MOL0     H32262   9.943   6.311   0.860 -1.5569  0.2736  0.1749
  239MOL0     H32263  10.303   6.089   0.864 -0.1416  0.0010 -1.6734
  239MOL0     H32264   9.547   5.857   0.653  0.0144 -0.1239  0.0497
  239MOL0     H32265   9.331   5.770   0.679  0.2424  0.6113 -0.4649
  240MOL0     O32266   6.616   1.573   0.138  0.3366  0.4209  0.2919
  240MOL0     C32267   6.560   1.681   0.123  0.3423  0.6171  0.9394
  240MOL0     O32268   6.624   1.797   0.086  0.5207  0.0261 -0.2235
  240MOL0     C32269   6.744   1.810   0.019  0.4133 -0.2173  0.4448
  240MOL0     C32270   6.850   1.713   0.021 -0.0461  0.4510  0.0476
  240MOL0     C32271   6.975   1.736  -0.049 -0.1148 -0.8160 -0.5442
  240MOL0     C32272   6.981   1.850  -0.138 -0.5738  0.5946 -0.5259
  240MOL0     O32273   7.070   1.864  -0.236 -0.3879  0.9777 -0.0251
  240MOL0     C32274   7.192   1.792  -0.237 -1.1687  0.4905 -0.5867
  240MOL0     C32275   7.174   1.664  -0.317 -0.1079  0.4577 -0.5777
  240MOL0     C32276   7.302   1.578  -0.294 -0.1765 -0.2563  0.3628
  240MOL0     C32277   7.356   1.521  -0.425  0.8705 -0.4551 -0.3439
  240MOL0     C32278   7.503   1.480  -0.410 -0.4126  0.2757 -0.0447
  240MOL0     C32279   7.584   1.463  -0.533  0.2392  0.2541  0.1361
  240MOL0     C32280   7.722   1.418  -0.480 -0.9461  0.2041 -0.3717
  240MOL0     C32281   7.832   1.457  -0.584  0.5371 -0.1686 -0.3604
  240MOL0     N32282   7.967   1.450  -0.537  1.2293  0.1792  0.1369
  240MOL0     C32283   8.035   1.545  -0.461  0.0161  0.1406  0.0583
  240MOL0     C32284   8.146   1.476  -0.428 -0.5623 -0.0493 -0.3920
  240MOL0     C32285   8.268   1.548  -0.368  0.0643  0.0375  0.7941
  240MOL0     C32286   8.251   1.596  -0.225  0.0189  0.1133 -0.2487
  240MOL0     C32287   8.188   1.489  -0.129 -0.5645 -0.3835 -0.0644
  240MOL0     C32288   8.183   1.533   0.014  0.6764  0.5404 -0.7615
  240MOL0     O32289   8.118   1.658   0.010 -0.4937  0.2591  0.8923
  240MOL0     C32290   7.987   1.653   0.036  0.6434 -0.1876  0.0004
  240MOL0     C32291   7.934   1.592   0.156  0.2187 -0.1196 -0.0266
  240MOL0     C32292   7.794   1.591   0.185  0.1534  0.0247 -0.2396
  240MOL0     C32293   7.739   1.521   0.309 -1.8363 -0.9237  0.1367
  240MOL0     C32294   7.716   1.660   0.090 -0.6747 -0.1772  0.1957
  240MOL0     C32295   7.582   1.680   0.117 -0.0854 -0.9034 -0.1670
  240MOL0     O32296   7.550   1.750   0.233 -0.4411  0.1705  0.7900
  240MOL0     C32297   7.419   1.774   0.267 -0.3668  0.6283 -0.0119
  240MOL0     C32298   7.396   1.751   0.402 -0.0287 -0.8180 -0.8030
  240MOL0     C32299   7.264   1.757   0.456  0.4580 -0.0882 -0.5065
  240MOL0     C32300   7.160   1.801   0.368 -0.4287  0.3150 -0.4103
  240MOL0     O32301   7.037   1.808   0.426 -0.0046 -0.4208 -1.1603
  240MOL0     C32302   6.938   1.864   0.334 -0.1372 -0.3408 -0.4609
  240MOL0     C32303   6.807   1.876   0.405 -0.2010 -0.7767 -0.1001
  240MOL0     C32304   6.804   1.992   0.506 -0.8691  0.1751  0.1801
  240MOL0     C32305   6.705   1.970   0.631 -0.5331 -0.9081 -0.3016
  240MOL0     C32306   6.693   2.087   0.726 -0.7860  0.4521 -0.1024
  240MOL0     C32307   6.584   2.082   0.833  0.7997 -0.2863  0.4482
  240MOL0     C32308   6.439   2.111   0.771  0.0417  0.4899 -0.1699
  240MOL0     C32309   6.432   2.246   0.692  0.5642 -0.8531 -0.2248
  240MOL0    Cl32310   6.270   2.319   0.720 -0.0458 -0.2791 -0.0440
  240MOL0     C32311   7.188   1.826   0.228 -1.1146 -0.2148 -0.0846
  240MOL0     C32312   7.317   1.815   0.183  0.6623 -0.1595  1.1303
  240MOL0     O32313   7.498   1.638   0.036  0.2203 -1.1409  0.0283
  240MOL0     C32314   7.769   1.721  -0.019 -0.4741 -0.4791  0.4268
  240MOL0     C32315   7.900   1.718  -0.051  0.0976 -0.5634  0.3229
  240MOL0     N32316   8.150   1.355  -0.477  0.1871 -0.4603 -0.4521
  240MOL0     N32317   8.039   1.336  -0.535  0.3425 -0.1547 -0.1212
  240MOL0     C32318   6.883   1.946  -0.123 -0.9594  0.4877  0.1332
  240MOL0     C32319   6.763   1.927  -0.056 -0.1777  0.1442 -0.0884
  240MOL0     C32320   6.431   1.698   0.179 -0.7627 -0.5381 -0.2909
  240MOL0     C32321   6.368   1.603   0.259 -0.8309  0.7959  1.3772
  240MOL0     C32322   6.236   1.614   0.300  0.5497  0.1715 -0.8938
  240MOL0     C32323   6.165   1.724   0.261  0.1801  0.4666  0.2038
  240MOL0     O32324   6.034   1.753   0.295 -0.0447  0.2300 -0.0275
  240MOL0     C32325   5.967   1.659   0.382  0.1355 -0.1468  1.3053
  240MOL0     C32326   5.825   1.709   0.369  0.2323 -0.8316  0.1120
  240MOL0     C32327   5.719   1.640   0.449  0.3772 -0.3306  0.6384
  240MOL0     C32328   5.657   1.521   0.374 -0.1648 -0.0953  0.6825
  240MOL0     C32329   5.586   1.570   0.259 -0.8628 -0.8631  0.1644
  240MOL0     C32330   5.546   1.609   0.156 -1.2033 -0.6046 -0.0151
  240MOL0     C32331   6.223   1.828   0.176 -0.1079  0.1089  0.4122
  240MOL0     C32332   6.357   1.812   0.141  0.6101 -0.0422 -1.1190
  240MOL0     H32333   6.842   1.621   0.078  2.2092  0.9308  1.2451
  240MOL0     H32334   7.046   1.654  -0.048 -2.0974 -2.6312 -0.6149
  240MOL0     H32335   7.266   1.864  -0.273 -2.2249  2.4984  1.0300
  240MOL0     H32336   7.224   1.781  -0.132 -0.2233  0.8242 -0.8273
  240MOL0     H32337   7.091   1.604  -0.280  2.3162 -2.5729  0.3206
  240MOL0     H32338   7.162   1.705  -0.418 -0.2355  0.9486 -0.3650
  240MOL0     H32339   7.375   1.639  -0.239 -0.7043  1.7614 -1.0526
  240MOL0     H32340   7.280   1.486  -0.239 -3.2439 -1.1884 -2.1035
  240MOL0     H32341   7.294   1.435  -0.454  1.5930 -1.0212 -0.2548
  240MOL0     H32342   7.355   1.597  -0.503  1.8133 -0.1901 -0.1167
  240MOL0     H32343   7.568   1.543  -0.349  2.5699 -3.4703  1.0652
  240MOL0     H32344   7.495   1.382  -0.362 -2.0197  0.5370  0.2637
  240MOL0     H32345   7.544   1.385  -0.597  2.0303 -1.2579  0.7792
  240MOL0     H32346   7.582   1.553  -0.596 -2.4212  0.8877  1.0147
  240MOL0     H32347   7.747   1.467  -0.385 -2.4910 -0.6695  0.5184
  240MOL0     H32348   7.735   1.310  -0.471  2.1874  0.2897 -2.1200
  240MOL0     H32349   7.809   1.559  -0.614  3.0410  0.8355  0.8810
  240MOL0     H32350   7.817   1.397  -0.674  1.1041 -0.5289 -0.2210
  240MOL0     H32351   8.008   1.646  -0.430 -0.6643 -0.3271  1.0058
  240MOL0     H32352   8.353   1.481  -0.381 -0.1182 -0.3754  1.6258
  240MOL0     H32353   8.284   1.630  -0.438  0.4187 -2.1092 -1.7569
  240MOL0     H32354   8.192   1.688  -0.231  0.2820  0.3367  0.4749
  240MOL0     H32355   8.344   1.635  -0.182  0.0773  0.7029 -0.8782
  240MOL0     H32356   8.255   1.403  -0.127 -0.4723 -0.4106  4.0506
  240MOL0     H32357   8.086   1.465  -0.162 -0.2860 -0.4071 -0.9441
  240MOL0     H32358   8.282   1.550   0.057 -0.9020  0.5683  3.3212
  240MOL0     H32359   8.128   1.464   0.078 -2.2739  1.6254 -1.9547
  240MOL0     H32360   8.002   1.551   0.230  1.9058  1.4544 -0.6178
  240MOL0     H32361   7.739   1.586   0.397 -3.8240 -0.2662 -0.3079
  240MOL0     H32362   7.643   1.473   0.290 -1.4855 -1.0429 -1.4536
  240MOL0     H32363   7.819   1.448   0.329  0.4609  1.6418  0.9702
  240MOL0     H32364   7.481   1.739   0.469 -0.2426  0.7077 -0.2062
  240MOL0     H32365   7.253   1.752   0.563 -1.7321  3.0621 -0.4369
  240MOL0     H32366   6.956   1.966   0.299 -3.3700 -0.6468 -3.6614
  240MOL0     H32367   6.921   1.802   0.245 -0.6248 -2.7013  1.1730
  240MOL0     H32368   6.743   1.904   0.321 -3.4263 -2.5269  1.5622
  240MOL0     H32369   6.773   1.782   0.450 -0.2109 -1.2020 -0.9707
  240MOL0     H32370   6.770   2.081   0.452  0.8071 -0.4798 -2.0733
  240MOL0     H32371   6.905   2.003   0.548 -1.3816 -1.4725  1.9610
  240MOL0     H32372   6.604   1.962   0.590 -0.9685 -1.0106  0.7362
  240MOL0     H32373   6.725   1.882   0.694  0.7673  1.7341  3.3209
  240MOL0     H32374   6.689   2.188   0.683  1.4495  0.8785  0.5542
  240MOL0     H32375   6.788   2.088   0.781 -0.3714  0.4911 -0.8039
  240MOL0     H32376   6.595   1.983   0.877 -0.5377 -2.4653 -3.6041
  240MOL0     H32377   6.597   2.156   0.912 -1.1318  2.6995 -1.7885
  240MOL0     H32378   6.373   2.123   0.858  2.8418 -1.1065  2.3663
  240MOL0     H32379   6.399   2.035   0.703 -2.8009  0.0524  1.8081
  240MOL0     H32380   6.452   2.236   0.585  2.4328 -1.2492  0.1398
  240MOL0     H32381   6.499   2.320   0.736  1.5301 -0.5594 -2.1031
  240MOL0     H32382   7.117   1.852   0.151 -1.0961 -1.9671 -0.7437
  240MOL0     H32383   7.343   1.835   0.080  1.0412  3.5561  1.8065
  240MOL0     H32384   7.691   1.763  -0.082 -0.9426  0.1457  1.3891
  240MOL0     H32385   7.938   1.763  -0.142 -0.3469 -0.4224  0.2028
  240MOL0     H32386   6.892   2.040  -0.177  0.0110  1.4869  1.9301
  240MOL0     H32387   6.686   2.003  -0.054  0.0072  0.4594 -2.3233
  240MOL0     H32388   6.400   1.504   0.290 -1.7605 -0.2217 -0.6516
  240MOL0     H32389   6.190   1.540   0.364 -2.9570  3.5447  0.9448
  240MOL0     H32390   5.973   1.559   0.339 -0.3592 -0.0806  1.0761
  240MOL0     H32391   5.998   1.685   0.484  0.3722  0.4681  1.0782
  240MOL0     H32392   5.800   1.722   0.263 -0.6416  0.3180  0.4337
  240MOL0     H32393   5.832   1.806   0.419  3.3643 -0.6440 -0.4544
  240MOL0     H32394   5.635   1.706   0.474  0.3664  0.3815 -1.1311
  240MOL0     H32395   5.752   1.610   0.549 -0.8952  0.3734  1.2946
  240MOL0     H32396   5.593   1.461   0.438  0.0101 -0.0282  0.9226
  240MOL0     H32397   5.738   1.454   0.341 -2.5131 -3.0335  0.4657
  240MOL0     H32398   5.510   1.636   0.059 -1.4409 -1.6838 -0.2318
  240MOL0     H32399   6.160   1.911   0.144  2.4940  2.3484  0.6756
  240MOL0     H32400   6.388   1.882   0.065  1.5505 -2.0157 -2.6460
  241MOL0     O32401   6.116  10.501   7.521  0.1198  0.8229  1.4790
  241MOL0     C32402   6.105  10.405   7.440  0.8597  0.8424 -0.4689
  241MOL0     O32403   5.990  10.333   7.421 -0.4150 -0.2215 -0.4579
  241MOL0     C32404   5.877  10.396   7.466 -0.2572 -0.3846  0.4424
  241MOL0     C32405   5.845  10.405   7.597 -0.2165  0.0932  0.1873
  241MOL0     C32406   5.727  10.456   7.646  0.1792 -0.0025 -0.0105
  241MOL0     C32407   5.626  10.496   7.555  0.7278  0.3326 -0.0535
  241MOL0     O32408   5.507  10.520   7.614 -0.4329  0.0518 -0.0198
  241MOL0     C32409   5.383  10.498   7.544  0.5257  0.2321  0.7198
  241MOL0     C32410   5.259  10.515   7.637  0.5360 -0.2426  0.0772
  241MOL0     C32411   5.138  10.534   7.542 -0.2362 -0.1840 -0.5898
  241MOL0     C32412   5.014  10.511   7.623 -0.8580  0.1963 -0.1632
  241MOL0     C32413   4.888  10.535   7.534 -1.0540 -1.1102 -1.1008
  241MOL0     C32414   4.764  10.484   7.615 -0.8280 -0.6107 -0.1285
  241MOL0     C32415   4.643  10.497   7.523 -0.1340 -0.3023  0.7037
  241MOL0     C32416   4.526  10.422   7.609  0.2619 -0.2064 -0.0789
  241MOL0     N32417   4.396  10.447   7.545 -0.9960  0.1219 -0.2056
  241MOL0     C32418   4.338  10.368   7.443 -0.1445 -0.3528 -0.6411
  241MOL0     C32419   4.210  10.425   7.442  0.0380  0.9849  0.3134
  241MOL0     C32420   4.120  10.403   7.328 -0.4850  0.0110  0.1273
  241MOL0     C32421   4.075  10.542   7.265  0.2025  0.6216 -0.8989
  241MOL0     C32422   3.955  10.519   7.176 -0.6436 -0.2596 -0.0152
  241MOL0     C32423   3.888  10.633   7.105  0.9245 -0.6645  0.0648
  241MOL0     O32424   3.941  10.649   6.979  0.6779 -0.2603 -0.6429
  241MOL0     C32425   4.071  10.688   6.961  0.7232 -0.1766  0.1742
  241MOL0     C32426   4.159  10.592   6.920 -0.2532 -0.1989  0.1005
  241MOL0     C32427   4.284  10.617   6.877 -0.2639  0.3348 -0.2243
  241MOL0     C32428   4.369  10.501   6.834 -0.6981 -0.4280  0.6833
  241MOL0     C32429   4.333  10.755   6.884  0.8466 -0.4563  0.0534
  241MOL0     C32430   4.467  10.789   6.855 -0.1755 -0.1858  0.1653
  241MOL0     O32431   4.520  10.733   6.739  0.0554  0.1974 -0.1523
  241MOL0     C32432   4.653  10.726   6.710  1.0613  0.3976 -0.6421
  241MOL0     C32433   4.751  10.823   6.742  0.5574 -0.1833 -0.0988
  241MOL0     C32434   4.878  10.812   6.680 -0.0776 -0.0971 -0.6307
  241MOL0     C32435   4.917  10.711   6.592  0.0758  0.1214  0.2610
  241MOL0     O32436   5.049  10.712   6.547 -0.1589  0.8983 -0.2029
  241MOL0     C32437   5.070  10.623   6.433 -0.1493 -0.4592  0.0859
  241MOL0     C32438   5.175  10.687   6.356 -0.4482  0.1230 -0.1999
  241MOL0     C32439   5.220  10.597   6.240 -0.3595  0.3244 -0.5075
  241MOL0     C32440   5.127  10.585   6.124  0.3447 -0.0038 -0.7064
  241MOL0     C32441   5.178  10.489   6.025 -1.0147  0.6609  0.4781
  241MOL0     C32442   5.080  10.465   5.902  0.2040 -0.7776 -0.0076
  241MOL0     C32443   5.122  10.332   5.831 -0.2167  0.0657  0.3301
  241MOL0     C32444   5.012  10.277   5.752 -0.0885 -1.1481 -0.1227
  241MOL0    Cl32445   5.057  10.131   5.679 -0.3236  0.2353 -0.3286
  241MOL0     C32446   4.828  10.603   6.577  0.3385  0.0776  0.0397
  241MOL0     C32447   4.695  10.602   6.635  0.4370 -0.4031  0.2886
  241MOL0     O32448   4.528  10.870   6.926  0.6207  0.1568 -0.1109
  241MOL0     C32449   4.256  10.849   6.951 -0.6157 -0.6053  0.7413
  241MOL0     C32450   4.123  10.818   6.990 -0.6943  0.5310  0.4749
  241MOL0     N32451   4.191  10.519   7.537 -0.8096  0.0389  0.4377
  241MOL0     N32452   4.297  10.534   7.606  0.0110  0.9878  0.2085
  241MOL0     C32453   5.657  10.503   7.425 -0.0468  0.0616  0.3547
  241MOL0     C32454   5.776  10.444   7.380  0.2739 -0.4647  0.7165
  241MOL0     C32455   6.220  10.389   7.350 -0.0411  0.3767  0.2571
  241MOL0     C32456   6.227  10.278   7.265 -1.0038 -0.3016  0.1929
  241MOL0     C32457   6.346  10.261   7.187 -0.0163  0.1555 -0.4679
  241MOL0     C32458   6.440  10.354   7.180  0.3680 -0.2928 -0.0069
  241MOL0     O32459   6.543  10.319   7.100  0.7962  0.2250 -0.0406
  241MOL0     C32460   6.641  10.414   7.042  0.2103 -0.3679 -0.3998
  241MOL0     C32461   6.752  10.466   7.146 -0.4470  0.2021 -0.0406
  241MOL0     C32462   6.859  10.355   7.154 -0.1298 -0.0340 -0.0582
  241MOL0     C32463   6.963  10.387   7.278  1.2209 -0.3524  0.2673
  241MOL0     C32464   7.069  10.283   7.267  0.7030 -0.0756 -0.0200
  241MOL0     C32465   7.170  10.216   7.261 -0.0550  0.2635  1.0381
  241MOL0     C32466   6.420  10.483   7.241 -0.0737 -0.0650 -0.6867
  241MOL0     C32467   6.320  10.494   7.334  1.1823  0.9521  0.4041
  241MOL0     H32468   5.906  10.362   7.676 -0.6623 -3.7673 -1.3633
  241MOL0     H32469   5.707  10.464   7.752 -0.3325 -0.5229 -0.0661
  241MOL0     H32470   5.375  10.578   7.471  1.7976 -1.5076 -1.4730
  241MOL0     H32471   5.379  10.404   7.488 -3.7808  2.1593 -2.7267
  241MOL0     H32472   5.244  10.426   7.699  1.6576 -0.2249  0.4098
  241MOL0     H32473   5.263  10.594   7.713 -2.8648  0.9179 -0.7900
  241MOL0     H32474   5.147  10.634   7.500 -0.9029 -1.2732 -3.5792
  241MOL0     H32475   5.149  10.463   7.460 -0.8952  1.8135 -2.5044
  241MOL0     H32476   5.013  10.412   7.669 -0.9895  1.3152  2.4131
  241MOL0     H32477   5.005  10.566   7.717 -3.1912 -1.7868  0.8816
  241MOL0     H32478   4.887  10.640   7.504  0.0170 -1.4901 -2.5475
  241MOL0     H32479   4.884  10.471   7.446 -0.7757 -2.4706 -0.1730
  241MOL0     H32480   4.786  10.382   7.649  0.8803 -0.0342  0.6117
  241MOL0     H32481   4.750  10.552   7.699  1.5821  1.4246 -1.2593
  241MOL0     H32482   4.618  10.602   7.508  0.2988 -0.3197 -0.1856
  241MOL0     H32483   4.656  10.445   7.428 -0.1543 -0.7051  0.9178
  241MOL0     H32484   4.517  10.461   7.711 -2.7753 -1.4666  0.2387
  241MOL0     H32485   4.537  10.313   7.609  0.3291 -0.2002 -0.4201
  241MOL0     H32486   4.377  10.298   7.371  2.6950 -1.8983  2.1401
  241MOL0     H32487   4.158  10.328   7.257  1.2155  0.9482 -0.0203
  241MOL0     H32488   4.024  10.366   7.363 -0.8254  3.0734  2.9508
  241MOL0     H32489   4.161  10.595   7.223  2.4657 -0.5521  1.8730
  241MOL0     H32490   4.046  10.609   7.346  1.2819  2.5223 -2.0092
  241MOL0     H32491   3.874  10.474   7.234 -2.9692  3.0377 -0.4053
  241MOL0     H32492   3.985  10.445   7.102  2.0438  1.1028 -0.4060
  241MOL0     H32493   3.894  10.728   7.159  1.8146 -0.5415 -0.2236
  241MOL0     H32494   3.781  10.625   7.087  0.6846  1.4361  0.3135
  241MOL0     H32495   4.139  10.485   6.925  3.7370 -1.3360 -2.8439
  241MOL0     H32496   4.315  10.406   6.834 -1.4847  0.0058  1.6181
  241MOL0     H32497   4.411  10.516   6.734  1.0303 -2.5530  1.0227
  241MOL0     H32498   4.452  10.496   6.905  2.4522  0.8486 -2.5555
  241MOL0     H32499   4.739  10.908   6.809 -2.1478 -0.4566 -0.1439
  241MOL0     H32500   4.966  10.875   6.693  0.0800 -0.8793  3.3439
  241MOL0     H32501   5.094  10.522   6.467 -1.3012 -0.1900  1.7842
  241MOL0     H32502   4.980  10.629   6.370 -1.0672  0.8099  1.4369
  241MOL0     H32503   5.129  10.778   6.316  0.8317  0.5034 -0.8607
  241MOL0     H32504   5.255  10.725   6.420  1.1393  0.4176 -2.2256
  241MOL0     H32505   5.248  10.496   6.272 -0.7361 -0.3893 -2.2839
  241MOL0     H32506   5.311  10.638   6.195  0.0696 -2.2995 -2.2592
  241MOL0     H32507   5.034  10.550   6.171  1.0779  1.6197  2.1721
  241MOL0     H32508   5.090  10.684   6.094 -2.0204  0.0384  1.8893
  241MOL0     H32509   5.191  10.401   6.088 -1.5310 -0.2551 -0.6632
  241MOL0     H32510   5.276  10.517   5.983 -1.2507  3.5234  1.6351
  241MOL0     H32511   4.978  10.458   5.942  0.1211  0.4784  0.0297
  241MOL0     H32512   5.081  10.553   5.837 -1.0629  0.7885  1.9570
  241MOL0     H32513   5.172  10.252   5.888  3.4269  1.0238 -1.2566
  241MOL0     H32514   5.204  10.358   5.765 -0.7879  1.0896  0.0133
  241MOL0     H32515   4.981  10.351   5.677 -0.3239 -1.9569 -0.8456
  241MOL0     H32516   4.923  10.259   5.812 -2.4387  1.3811 -2.5492
  241MOL0     H32517   4.852  10.512   6.522  1.9385  0.9720 -0.7961
  241MOL0     H32518   4.613  10.532   6.629 -1.1364  1.2247  1.7028
  241MOL0     H32519   4.286  10.949   6.983 -0.3079 -0.6510  0.5899
  241MOL0     H32520   4.052  10.886   7.036 -1.0902  1.5167 -1.4783
  241MOL0     H32521   5.587  10.531   7.347  2.2346 -1.7439 -2.5838
  241MOL0     H32522   5.806  10.441   7.275 -1.9992 -2.5344  0.0179
  241MOL0     H32523   6.149  10.203   7.263 -0.8541 -0.4533 -1.2890
  241MOL0     H32524   6.332  10.168   7.132  0.2409 -0.3905  0.3851
  241MOL0     H32525   6.692  10.370   6.956  0.4978 -0.7119 -0.0546
  241MOL0     H32526   6.592  10.507   7.011  2.4346  0.9733 -0.1492
  241MOL0     H32527   6.718  10.486   7.249  1.1893  2.9978  0.0393
  241MOL0     H32528   6.800  10.559   7.117 -2.6445  1.7016  0.8624
  241MOL0     H32529   6.927  10.356   7.068  2.0355  2.5894  1.4989
  241MOL0     H32530   6.815  10.257   7.174 -0.9973  0.2490 -0.5351
  241MOL0     H32531   6.914  10.399   7.375 -1.2761 -1.2785 -0.7960
  241MOL0     H32532   7.015  10.482   7.260  1.3777 -0.6776 -1.1641
  241MOL0     H32533   7.266  10.170   7.254 -0.4433 -0.4267  0.0237
  241MOL0     H32534   6.487  10.567   7.233  1.9859 -1.6021 -0.2299
  241MOL0     H32535   6.314  10.586   7.392  1.3863  1.7911 -0.8711
  242MOL0     O32536   9.658   9.508   2.681 -0.3261  0.3521 -0.2126
  242MOL0     C32537   9.678   9.625   2.677 -0.9048 -1.3082  0.5181
  242MOL0     O32538   9.590   9.723   2.634 -0.2403 -0.3539  0.0002
  242MOL0     C32539   9.473   9.683   2.586 -0.1403 -0.1567 -0.0327
  242MOL0     C32540   9.430   9.722   2.460  0.4376  0.2981 -0.0399
  242MOL0     C32541   9.300   9.690   2.408  0.2244  0.1265 -1.0465
  242MOL0     C32542   9.212   9.607   2.482 -0.2803 -0.7598  0.1519
  242MOL0     O32543   9.089   9.564   2.426 -0.0909  0.2231  0.1724
  242MOL0     C32544   8.970   9.560   2.499  0.3102 -0.3979 -0.0818
  242MOL0     C32545   8.922   9.418   2.527 -0.3560 -0.3542 -0.1288
  242MOL0     C32546   8.769   9.401   2.552 -0.5843  0.7861 -0.1496
  242MOL0     C32547   8.682   9.434   2.425 -0.2622 -0.2182  0.1926
  242MOL0     C32548   8.532   9.412   2.437  0.3372 -0.5714 -0.0776
  242MOL0     C32549   8.455   9.461   2.319  0.2769  0.5932  0.0601
  242MOL0     C32550   8.326   9.390   2.295 -1.3569 -0.3597  0.1988
  242MOL0     C32551   8.262   9.488   2.205  0.3885  1.2994  0.1882
  242MOL0     N32552   8.138   9.411   2.172 -0.0489 -0.1073 -0.6529
  242MOL0     C32553   8.014   9.425   2.225  0.8903 -0.2422  0.3188
  242MOL0     C32554   7.932   9.370   2.132  0.3444  0.3248 -0.8827
  242MOL0     C32555   7.783   9.349   2.158  0.3575  0.0223 -0.3859
  242MOL0     C32556   7.704   9.449   2.072 -0.4141 -0.2876 -0.1680
  242MOL0     C32557   7.553   9.412   2.069 -0.5248  0.8997 -0.3098
  242MOL0     C32558   7.454   9.500   2.003  0.0135  0.7682  1.0496
  242MOL0     O32559   7.473   9.484   1.862  0.1436 -0.1265  0.3870
  242MOL0     C32560   7.357   9.488   1.791 -0.9106 -0.5118  0.0302
  242MOL0     C32561   7.321   9.605   1.724  0.1753  0.5347  0.1340
  242MOL0     C32562   7.219   9.609   1.627 -1.4435 -0.4748 -0.3857
  242MOL0     C32563   7.175   9.752   1.591  0.1346 -0.1204  0.1756
  242MOL0     C32564   7.157   9.489   1.591  0.5606 -1.0555 -0.2722
  242MOL0     C32565   7.046   9.486   1.492  0.9464  0.3725 -0.7332
  242MOL0     O32566   6.925   9.412   1.525 -0.0545 -0.0404 -0.1989
  242MOL0     C32567   6.816   9.433   1.452  0.1351  0.3892  0.7111
  242MOL0     C32568   6.723   9.526   1.503  0.1130 -0.0939 -0.6268
  242MOL0     C32569   6.618   9.561   1.422 -0.1372 -0.5147 -0.0300
  242MOL0     C32570   6.597   9.509   1.297 -0.6017 -1.0432 -0.8677
  242MOL0     O32571   6.488   9.551   1.227  0.2165  0.2945  0.3035
  242MOL0     C32572   6.466   9.510   1.086 -0.3731 -0.0560 -0.9799
  242MOL0     C32573   6.396   9.374   1.065 -0.4680 -0.7184  0.3912
  242MOL0     C32574   6.268   9.375   1.145 -1.3929  1.0479  0.7051
  242MOL0     C32575   6.162   9.277   1.092  0.6228  0.3149 -0.3342
  242MOL0     C32576   6.034   9.307   1.175 -1.2321  0.3331 -0.0220
  242MOL0     C32577   5.920   9.213   1.135  0.2981 -0.3815 -0.1474
  242MOL0     C32578   5.788   9.222   1.219  0.0614 -0.0795 -0.4813
  242MOL0     C32579   5.660   9.266   1.142  0.8608 -0.0108 -0.1919
  242MOL0    Cl32580   5.623   9.164   0.996 -0.0759  0.0128  0.1625
  242MOL0     C32581   6.691   9.421   1.246  0.5805  0.7158 -1.2163
  242MOL0     C32582   6.797   9.377   1.324 -0.9168  0.3107 -0.9666
  242MOL0     O32583   7.056   9.549   1.391  0.1972  0.3199  0.1856
  242MOL0     C32584   7.177   9.374   1.675  0.1864 -0.0400  0.0471
  242MOL0     C32585   7.276   9.374   1.774  0.0360 -0.2381 -0.0414
  242MOL0     N32586   8.005   9.298   2.040 -0.3659 -0.0011  0.0768
  242MOL0     N32587   8.125   9.336   2.060  0.3114  0.2816  0.6951
  242MOL0     C32588   9.255   9.579   2.610 -0.3396  0.1545  0.0531
  242MOL0     C32589   9.381   9.605   2.656  0.6208 -0.2321 -0.5589
  242MOL0     C32590   9.811   9.666   2.735 -0.5064  0.5014  0.7004
  242MOL0     C32591   9.856   9.798   2.713  0.2032 -0.4300 -0.0954
  242MOL0     C32592   9.983   9.832   2.768 -0.3472 -0.1294 -0.0072
  242MOL0     C32593  10.068   9.735   2.837  0.1955 -0.0474 -0.4496
  242MOL0     O32594  10.188   9.759   2.895  0.0960  0.3075 -0.0524
  242MOL0     C32595  10.238   9.889   2.899  0.1915  0.5717  0.6942
  242MOL0     C32596  10.178   9.975   3.007 -0.3674  0.1564 -0.1201
  242MOL0     C32597  10.248   9.980   3.144  0.5089 -0.5231 -0.1356
  242MOL0     C32598  10.295   9.842   3.179  0.5256  0.5853 -0.6088
  242MOL0     C32599  10.333   9.831   3.329 -0.6577 -0.6614  0.7472
  242MOL0     C32600  10.355   9.812   3.449  0.2152 -0.6459 -0.2811
  242MOL0     C32601  10.012   9.612   2.861  0.2299  0.3261  0.8000
  242MOL0     C32602   9.889   9.577   2.809 -0.1614 -0.4197 -0.5234
  242MOL0     H32603   9.488   9.771   2.383  1.0786 -3.7755 -2.4627
  242MOL0     H32604   9.265   9.709   2.308 -0.4126 -3.2470 -1.5749
  242MOL0     H32605   9.000   9.600   2.596  0.7578 -2.9727  0.9245
  242MOL0     H32606   8.887   9.625   2.468  0.9664  0.3749 -0.2416
  242MOL0     H32607   8.942   9.361   2.436  0.3361  0.6637 -0.6278
  242MOL0     H32608   8.983   9.373   2.605  1.2276 -1.7538 -2.0477
  242MOL0     H32609   8.762   9.298   2.589  2.9596  1.1368  1.9022
  242MOL0     H32610   8.748   9.475   2.630 -0.1840  1.6955 -0.8885
  242MOL0     H32611   8.708   9.539   2.404  1.8859 -0.8147 -0.3636
  242MOL0     H32612   8.711   9.378   2.336 -0.4067 -0.1052  0.0724
  242MOL0     H32613   8.516   9.304   2.427  0.6471 -0.4369 -2.6244
  242MOL0     H32614   8.492   9.450   2.531  1.0819 -2.1564  0.9390
  242MOL0     H32615   8.436   9.567   2.338 -1.4494  0.1581  0.9220
  242MOL0     H32616   8.513   9.439   2.229 -0.3715 -1.3374  0.0756
  242MOL0     H32617   8.344   9.293   2.249 -0.8610 -0.9781  1.6284
  242MOL0     H32618   8.262   9.390   2.384 -3.3057 -0.3285 -1.1541
  242MOL0     H32619   8.309   9.513   2.110  3.1681  3.3542  1.9358
  242MOL0     H32620   8.233   9.587   2.241 -1.4697  1.2361 -1.0245
  242MOL0     H32621   7.977   9.466   2.319  0.2692  3.1229 -1.2460
  242MOL0     H32622   7.750   9.246   2.143  1.0733 -0.4321  0.9656
  242MOL0     H32623   7.761   9.372   2.263 -1.4835  1.2670 -1.0066
  242MOL0     H32624   7.744   9.462   1.971  2.5478 -0.0752  0.9489
  242MOL0     H32625   7.721   9.549   2.111 -3.2690  0.8816 -1.6208
  242MOL0     H32626   7.521   9.403   2.174 -4.1072  1.0991 -1.2363
  242MOL0     H32627   7.552   9.314   2.019  1.9436 -0.1423  1.4725
  242MOL0     H32628   7.454   9.608   2.022 -3.5998  1.3628 -1.3941
  242MOL0     H32629   7.351   9.469   2.023  0.0302 -0.0074  0.0329
  242MOL0     H32630   7.378   9.692   1.756  0.1835  0.0432  1.5579
  242MOL0     H32631   7.067   9.763   1.604  0.1018  0.8944 -0.7741
  242MOL0     H32632   7.214   9.827   1.661  0.5570 -2.7628  2.9563
  242MOL0     H32633   7.211   9.775   1.490 -1.4744  1.8721 -0.0143
  242MOL0     H32634   6.744   9.573   1.598  0.4295 -1.0542 -0.2131
  242MOL0     H32635   6.547   9.634   1.460 -0.0921  1.1540 -2.8646
  242MOL0     H32636   6.398   9.577   1.034 -1.9004 -1.2319 -0.5672
  242MOL0     H32637   6.564   9.510   1.037  0.6138 -3.6770  0.6605
  242MOL0     H32638   6.377   9.363   0.957 -3.0773  1.1528  0.5784
  242MOL0     H32639   6.466   9.295   1.093  0.4913 -0.1229 -0.2696
  242MOL0     H32640   6.229   9.476   1.142 -3.4788  0.2627 -0.1677
  242MOL0     H32641   6.293   9.353   1.250 -2.0593  0.6785  0.7934
  242MOL0     H32642   6.135   9.291   0.987 -1.4573  0.8375  0.2310
  242MOL0     H32643   6.190   9.176   1.124 -0.9628  0.5433  2.0180
  242MOL0     H32644   5.995   9.408   1.161 -1.9198 -0.2149 -2.4521
  242MOL0     H32645   6.061   9.283   1.278  0.7752 -0.9267 -0.7797
  242MOL0     H32646   5.903   9.230   1.029  1.4115 -2.2632 -0.6870
  242MOL0     H32647   5.954   9.109   1.135  0.0090 -0.4853 -1.3142
  242MOL0     H32648   5.797   9.306   1.289  2.6707  0.6201 -1.5230
  242MOL0     H32649   5.768   9.130   1.274 -1.7498  0.7225  0.2888
  242MOL0     H32650   5.666   9.373   1.120 -2.7003  0.7004  1.5070
  242MOL0     H32651   5.577   9.252   1.212  1.0301 -0.9456 -0.1625
  242MOL0     H32652   6.681   9.371   1.150 -1.0340 -2.9481  0.6405
  242MOL0     H32653   6.875   9.312   1.287 -0.1007  0.3462  0.5747
  242MOL0     H32654   7.112   9.288   1.667  0.7881 -0.5259  0.3830
  242MOL0     H32655   7.296   9.277   1.818  2.7338 -0.2509 -1.1526
  242MOL0     H32656   9.184   9.518   2.666 -2.7995  2.4288 -0.3900
  242MOL0     H32657   9.409   9.556   2.748  4.2941  0.8523 -0.9191
  242MOL0     H32658   9.799   9.875   2.662 -0.6838  0.2278  1.7867
  242MOL0     H32659  10.007   9.936   2.748 -0.1621  0.7307  3.8923
  242MOL0     H32660  10.347   9.891   2.909  0.3262 -0.3006 -0.4284
  242MOL0     H32661  10.224   9.932   2.799 -1.1797  0.2392  0.7215
  242MOL0     H32662  10.071   9.954   3.022 -0.3217  1.0315  1.7989
  242MOL0     H32663  10.194  10.074   2.962 -1.2327  0.5640  0.4213
  242MOL0     H32664  10.167  10.000   3.215 -0.1841 -5.0095  0.6327
  242MOL0     H32665  10.328  10.054   3.150  1.1748 -1.3256  1.3621
  242MOL0     H32666  10.380   9.819   3.116  0.3264 -1.0919 -0.3207
  242MOL0     H32667  10.218   9.764   3.175  2.4404 -1.3609 -1.0359
  242MOL0     H32668  10.390   9.802   3.550  1.0528 -0.9772 -0.5934
  242MOL0     H32669  10.071   9.543   2.919 -0.3389 -1.7288 -0.9237
  242MOL0     H32670   9.866   9.475   2.838  0.6961 -0.0274  1.7475
  243MOL0     O32671   0.154   4.172   3.497 -0.0715 -0.2363 -0.2536
  243MOL0     C32672   0.132   4.046   3.504  0.0209 -0.3109 -0.3602
  243MOL0     O32673   0.013   3.991   3.516  0.8613  0.0545  0.7339
  243MOL0     C32674  -0.100   4.062   3.552 -0.4803 -0.2377 -1.0067
  243MOL0     C32675  -0.097   4.186   3.621  0.4460 -0.3174  0.4946
  243MOL0     C32676  -0.223   4.245   3.654  0.2213  0.1932  0.0537
  243MOL0     C32677  -0.343   4.190   3.616  0.0613  0.3511 -0.5796
  243MOL0     O32678  -0.468   4.247   3.628 -0.6620 -0.0869  0.5338
  243MOL0     C32679  -0.498   4.345   3.726 -0.2030 -0.2138 -0.2507
  243MOL0     C32680  -0.650   4.374   3.724  0.3359 -0.3211 -0.5929
  243MOL0     C32681  -0.701   4.450   3.843 -0.0980  0.1436  0.2976
  243MOL0     C32682  -0.718   4.597   3.814  0.2741 -0.2190 -0.7786
  243MOL0     C32683  -0.773   4.662   3.943 -0.5820  0.1523  0.1340
  243MOL0     C32684  -0.807   4.816   3.927  0.8188  0.1092  0.4437
  243MOL0     C32685  -0.823   4.867   4.070  0.0571 -0.6795 -0.2468
  243MOL0     C32686  -0.873   5.014   4.070 -0.1941  0.6143  0.8743
  243MOL0     N32687  -0.885   5.073   4.202 -0.6021 -0.6849  0.0926
  243MOL0     C32688  -1.001   5.102   4.270  0.5681 -0.6136 -0.3430
  243MOL0     C32689  -0.961   5.142   4.395 -0.0296  1.0047  1.0065
  243MOL0     C32690  -1.056   5.186   4.507 -0.4164  0.0177  1.1417
  243MOL0     C32691  -1.155   5.081   4.559  0.1245 -0.3397 -0.4921
  243MOL0     C32692  -1.263   5.032   4.456  0.0317 -1.2609  0.4748
  243MOL0     C32693  -1.367   4.938   4.528  0.9191 -0.1959 -0.0556
  243MOL0     O32694  -1.438   4.863   4.430  0.2659  0.0002 -0.9336
  243MOL0     C32695  -1.546   4.933   4.374 -0.1743 -0.2215  0.9526
  243MOL0     C32696  -1.658   4.975   4.458  0.3589 -1.4178  0.0176
  243MOL0     C32697  -1.787   5.024   4.404 -0.7026 -0.5351  0.1941
  243MOL0     C32698  -1.902   5.071   4.494 -0.5280 -0.3762 -0.0610
  243MOL0     C32699  -1.793   5.034   4.265 -0.1550  0.9342 -0.0932
  243MOL0     C32700  -1.922   5.060   4.186 -0.0300 -0.6012 -0.8233
  243MOL0     O32701  -2.039   5.065   4.255  0.2865 -0.2665  0.1975
  243MOL0     C32702  -2.161   5.038   4.196  0.2452 -0.4367  0.3761
  243MOL0     C32703  -2.267   5.066   4.273 -0.4275  0.8618 -0.6947
  243MOL0     C32704  -2.395   5.041   4.233 -0.7294  0.3925 -0.2833
  243MOL0     C32705  -2.424   5.009   4.102 -0.1303 -0.4897  0.2142
  243MOL0     O32706  -2.551   5.015   4.064  0.1408 -0.1615  0.2659
  243MOL0     C32707  -2.617   4.887   4.037 -0.5607 -1.3543  0.7934
  243MOL0     C32708  -2.764   4.920   4.047 -0.4071  0.8235  0.2159
  243MOL0     C32709  -2.857   4.798   4.041  0.1039  0.2924  0.0879
  243MOL0     C32710  -3.006   4.821   4.076  0.2172  0.1590 -0.6052
  243MOL0     C32711  -3.025   4.838   4.224 -0.7329  0.0543  0.3565
  243MOL0     C32712  -2.979   4.710   4.310 -0.1637  0.5242 -0.0177
  243MOL0     C32713  -3.037   4.573   4.261 -0.0043  0.7496 -0.2723
  243MOL0     C32714  -3.027   4.464   4.362 -0.2263 -0.6117 -0.0534
  243MOL0    Cl32715  -2.858   4.438   4.383 -0.2547 -0.8411  0.1618
  243MOL0     C32716  -2.319   4.985   4.013  0.0475  0.6079  1.2320
  243MOL0     C32717  -2.186   4.989   4.060 -0.4894 -0.7378  0.4231
  243MOL0     O32718  -1.909   5.069   4.068  0.2322 -0.3468  0.5743
  243MOL0     C32719  -1.684   4.996   4.185 -0.3757  0.1677  1.0299
  243MOL0     C32720  -1.569   4.941   4.234  0.4334  0.2393  0.2074
  243MOL0     N32721  -0.822   5.133   4.405 -0.5622 -0.3891  0.4620
  243MOL0     N32722  -0.776   5.081   4.292 -0.6157 -0.1740  0.1144
  243MOL0     C32723  -0.342   4.072   3.544  0.9246  0.1561 -0.3283
  243MOL0     C32724  -0.221   4.015   3.513  0.0826  0.2899 -0.5946
  243MOL0     C32725   0.239   3.949   3.537 -0.5010 -0.4367  0.3248
  243MOL0     C32726   0.217   3.835   3.616 -0.6087 -0.0774 -0.3274
  243MOL0     C32727   0.322   3.746   3.642 -0.3704 -0.3155  0.1847
  243MOL0     C32728   0.453   3.773   3.598  0.5310  0.7114  0.6803
  243MOL0     O32729   0.550   3.685   3.635  0.2505 -0.6701  0.6988
  243MOL0     C32730   0.532   3.594   3.740  0.4052 -0.7696 -0.1224
  243MOL0     C32731   0.492   3.462   3.686  0.6468 -0.3902  0.2361
  243MOL0     C32732   0.502   3.341   3.782  0.1916 -0.4584 -0.3783
  243MOL0     C32733   0.408   3.218   3.749  0.4395  0.0529 -0.4782
  243MOL0     C32734   0.418   3.202   3.607 -0.8065  0.2058  0.7123
  243MOL0     C32735   0.412   3.185   3.488  1.4787 -0.9607 -0.1598
  243MOL0     C32736   0.475   3.889   3.524 -0.3266  0.6487 -0.4056
  243MOL0     C32737   0.369   3.979   3.507 -0.2378  0.0193  0.7827
  243MOL0     H32738  -0.007   4.233   3.661  0.6936  0.5226 -0.9902
  243MOL0     H32739  -0.225   4.340   3.706 -0.7765  1.4360 -2.1057
  243MOL0     H32740  -0.481   4.307   3.827 -1.3798  3.7295  1.6033
  243MOL0     H32741  -0.449   4.438   3.698 -3.2624  0.5020 -4.0448
  243MOL0     H32742  -0.684   4.422   3.631 -2.2218 -0.4898  0.1704
  243MOL0     H32743  -0.688   4.271   3.719 -1.5094  0.3479 -1.9104
  243MOL0     H32744  -0.798   4.413   3.877  0.2095  0.9899  2.2720
  243MOL0     H32745  -0.637   4.450   3.933 -1.9483 -0.2512  1.6706
  243MOL0     H32746  -0.617   4.633   3.793  0.8344 -0.8974  0.6131
  243MOL0     H32747  -0.790   4.619   3.734 -0.3480 -1.7577 -0.6733
  243MOL0     H32748  -0.868   4.611   3.960 -0.6400  0.4269  0.6518
  243MOL0     H32749  -0.705   4.641   4.026  1.0000  0.8816 -0.9199
  243MOL0     H32750  -0.729   4.872   3.875  1.2897 -0.9920 -0.0753
  243MOL0     H32751  -0.904   4.837   3.881  0.3790  1.5289  1.9381
  243MOL0     H32752  -0.904   4.815   4.122  0.8643 -0.2391  1.5076
  243MOL0     H32753  -0.729   4.857   4.124 -1.0840 -3.3103  1.4833
  243MOL0     H32754  -0.967   5.023   4.015  0.4373  1.8901 -0.0572
  243MOL0     H32755  -0.807   5.081   4.014 -0.2727  0.3861  0.5027
  243MOL0     H32756  -1.105   5.099   4.242  0.1700  1.1195  0.8193
  243MOL0     H32757  -0.993   5.218   4.591  0.9220  2.1118 -0.5431
  243MOL0     H32758  -1.120   5.271   4.483 -2.4596 -1.5594  0.7649
  243MOL0     H32759  -1.205   5.126   4.645 -0.7446  1.6010 -1.9476
  243MOL0     H32760  -1.098   4.990   4.582  0.6787 -1.2884 -4.6714
  243MOL0     H32761  -1.221   4.970   4.377 -2.2092 -1.6070 -0.5323
  243MOL0     H32762  -1.321   5.114   4.412  0.6264 -1.0295  0.1159
  243MOL0     H32763  -1.422   4.994   4.605  1.1328  0.2233 -0.2034
  243MOL0     H32764  -1.322   4.862   4.593  0.5699  0.0494  0.4884
  243MOL0     H32765  -1.659   4.957   4.564 -1.7092 -0.6472  0.1833
  243MOL0     H32766  -1.979   4.993   4.499 -0.4804 -0.5738 -1.7218
  243MOL0     H32767  -1.864   5.110   4.588 -0.6541  0.8618 -0.5073
  243MOL0     H32768  -1.956   5.161   4.465 -0.1554  0.1723  0.9060
  243MOL0     H32769  -2.242   5.093   4.375  2.3453  0.0651 -1.0709
  243MOL0     H32770  -2.472   5.072   4.303 -0.6859  1.5564 -0.7191
  243MOL0     H32771  -2.586   4.834   3.947  0.6399 -0.7265  0.8214
  243MOL0     H32772  -2.591   4.825   4.124  2.3364  1.9013  2.4949
  243MOL0     H32773  -2.799   4.975   4.135 -1.6907  0.7630 -0.2415
  243MOL0     H32774  -2.783   4.986   3.962  2.0925  2.9494  1.1517
  243MOL0     H32775  -2.828   4.710   4.099 -0.3804 -0.5917 -0.9638
  243MOL0     H32776  -2.848   4.757   3.940 -0.6043 -0.1055  0.1771
  243MOL0     H32777  -3.041   4.905   4.016 -2.1663 -0.5460 -0.3190
  243MOL0     H32778  -3.067   4.733   4.051  1.6085 -0.4273 -2.1572
  243MOL0     H32779  -3.130   4.861   4.244 -0.6785 -1.1820  2.3419
  243MOL0     H32780  -2.961   4.919   4.259 -1.4304  1.7128 -1.9273
  243MOL0     H32781  -2.871   4.697   4.314 -0.1800 -0.2598 -1.2938
  243MOL0     H32782  -3.026   4.725   4.407 -0.0839  1.9613 -0.1740
  243MOL0     H32783  -2.975   4.541   4.177 -0.1071  0.3169 -0.1858
  243MOL0     H32784  -3.143   4.583   4.236  0.1017  0.7014 -0.7443
  243MOL0     H32785  -3.073   4.374   4.320  1.4594 -0.7817 -1.6503
  243MOL0     H32786  -3.076   4.488   4.457  2.9882 -1.1693  1.9386
  243MOL0     H32787  -2.342   4.955   3.912  1.5465 -0.1112  1.0723
  243MOL0     H32788  -2.113   4.977   3.980 -0.9084 -3.1163  0.3110
  243MOL0     H32789  -1.691   4.996   4.077  2.8615  0.5031  0.7486
  243MOL0     H32790  -1.501   4.912   4.155 -0.3419  1.1646 -0.8261
  243MOL0     H32791  -0.432   4.020   3.512  2.2924 -2.2686 -0.5186
  243MOL0     H32792  -0.214   3.919   3.464  1.7019 -1.1630  2.2010
  243MOL0     H32793   0.119   3.812   3.658  0.1235  1.0131  2.1697
  243MOL0     H32794   0.292   3.651   3.685 -3.1155 -0.6172 -2.1280
  243MOL0     H32795   0.622   3.578   3.801  1.0755  1.9948 -0.2317
  243MOL0     H32796   0.463   3.637   3.813 -1.6763 -1.4368 -1.6357
  243MOL0     H32797   0.540   3.447   3.589  0.0149  3.4528 -0.8084
  243MOL0     H32798   0.385   3.467   3.664  0.9253  0.5473 -1.0161
  243MOL0     H32799   0.470   3.381   3.878  2.1143 -0.9912  0.5334
  243MOL0     H32800   0.608   3.313   3.790  1.0605  2.8053  2.2102
  243MOL0     H32801   0.305   3.239   3.780 -0.0303 -1.4960 -0.9279
  243MOL0     H32802   0.436   3.124   3.798  0.9646  0.6011  0.3052
  243MOL0     H32803   0.404   3.178   3.381 -2.1715  2.4502 -0.3047
  243MOL0     H32804   0.573   3.917   3.488  0.3682 -1.9356 -0.7062
  243MOL0     H32805   0.382   4.066   3.443  0.1776 -0.6159 -0.0276
  244MOL0     O32806   4.161   5.132  10.214 -0.8382  0.4999 -0.3551
  244MOL0     C32807   4.069   5.050  10.204  0.6163 -0.4859 -0.2157
  244MOL0     O32808   3.983   5.013  10.304 -0.2108 -0.8072 -0.8897
  244MOL0     C32809   4.028   5.039  10.434 -0.4461  0.4069 -0.0710
  244MOL0     C32810   4.051   4.928  10.516 -0.0449 -0.3252  1.0331
  244MOL0     C32811   4.101   4.948  10.650 -0.6008  0.7810 -0.3256
  244MOL0     C32812   4.141   5.079  10.695  0.1067 -0.1634 -0.8949
  244MOL0     O32813   4.193   5.093  10.823  0.0742 -0.2031  0.0540
  244MOL0     C32814   4.174   5.212  10.892  0.6382 -0.2163  0.7195
  244MOL0     C32815   4.026   5.235  10.933 -0.0578 -0.2412  0.3503
  244MOL0     C32816   4.002   5.183  11.066 -0.1763  0.2580 -0.5914
  244MOL0     C32817   3.853   5.180  11.118  0.1903  0.6292 -0.6191
  244MOL0     C32818   3.870   5.144  11.270  0.0753 -0.3221  0.0939
  244MOL0     C32819   3.741   5.104  11.344 -0.5569 -0.3688  0.2326
  244MOL0     C32820   3.788   5.020  11.464  0.2818  0.6661 -0.3825
  244MOL0     C32821   3.666   4.988  11.559 -1.4121  0.4276 -0.6134
  244MOL0     N32822   3.699   4.921  11.687 -0.0984  1.1735 -0.5085
  244MOL0     C32823   3.616   4.921  11.797 -0.6940  0.3449 -0.1926
  244MOL0     C32824   3.675   4.823  11.878  0.3704 -0.4236  0.6124
  244MOL0     C32825   3.621   4.775  12.010  0.6105  0.0948  0.7256
  244MOL0     C32826   3.680   4.854  12.125  1.1004  0.2955  0.3105
  244MOL0     C32827   3.603   4.830  12.254  0.0276 -0.2555 -0.3471
  244MOL0     C32828   3.668   4.902  12.373  1.1816  0.1765 -0.1295
  244MOL0     O32829   3.589   4.907  12.493  0.5441 -0.2801  0.1586
  244MOL0     C32830   3.480   4.989  12.494 -0.2230  0.3366 -0.6762
  244MOL0     C32831   3.390   4.969  12.596 -0.1045  0.4036 -0.6651
  244MOL0     C32832   3.276   5.045  12.605  0.0931  0.8516  0.7215
  244MOL0     C32833   3.194   5.021  12.728 -0.8835  0.4085  0.3032
  244MOL0     C32834   3.245   5.139  12.503 -0.4232 -0.0682 -0.3988
  244MOL0     C32835   3.128   5.228  12.516 -0.3913  0.7695  0.4212
  244MOL0     O32836   3.102   5.273  12.640  0.0610  0.2126 -0.1811
  244MOL0     C32837   2.987   5.337  12.672  0.5488 -0.9309  0.3530
  244MOL0     C32838   2.928   5.445  12.599 -0.3474 -0.0869  0.2087
  244MOL0     C32839   2.821   5.519  12.650  0.5690  0.1547 -0.2020
  244MOL0     C32840   2.766   5.483  12.766 -0.0515 -0.4393 -0.5281
  244MOL0     O32841   2.665   5.553  12.817 -0.5580 -0.1272 -0.7310
  244MOL0     C32842   2.608   5.674  12.748 -0.0255 -0.0807 -0.1844
  244MOL0     C32843   2.522   5.669  12.620  0.8684 -0.2700  0.2394
  244MOL0     C32844   2.419   5.777  12.613 -0.2169  1.2365 -0.1951
  244MOL0     C32845   2.327   5.781  12.486  0.7064  0.2017  0.1410
  244MOL0     C32846   2.270   5.921  12.450 -0.2569 -0.1447 -0.0430
  244MOL0     C32847   2.191   5.984  12.573  0.4330  0.6750  0.0692
  244MOL0     C32848   2.159   6.133  12.541 -0.2255  0.4866  0.5281
  244MOL0     C32849   2.110   6.204  12.665 -0.8963  0.6671  0.2992
  244MOL0    Cl32850   2.073   6.365  12.597  0.3301 -0.1379 -0.0198
  244MOL0     C32851   2.831   5.384  12.848 -0.7562 -1.0973 -0.1747
  244MOL0     C32852   2.947   5.317  12.800 -0.1323 -0.9344  0.2436
  244MOL0     O32853   3.065   5.256  12.415  0.3034  0.1930 -0.2999
  244MOL0     C32854   3.331   5.160  12.394  0.2594  0.5572 -0.7538
  244MOL0     C32855   3.450   5.093  12.396 -1.1931 -0.1884 -0.7890
  244MOL0     N32856   3.786   4.769  11.816  0.7182  0.1776 -0.2433
  244MOL0     N32857   3.797   4.829  11.705  0.2758 -0.8284  0.1821
  244MOL0     C32858   4.122   5.188  10.607  0.3564 -0.2037  0.6441
  244MOL0     C32859   4.064   5.168  10.488  1.5102  0.1428 -0.7474
  244MOL0     C32860   4.042   5.002  10.064  0.1650  0.4054  0.5170
  244MOL0     C32861   3.923   4.928  10.042 -0.1524 -0.2187  1.3272
  244MOL0     C32862   3.885   4.907   9.908 -0.0244 -0.4739 -1.2672
  244MOL0     C32863   3.962   4.943   9.796 -1.8906  0.4105  0.3986
  244MOL0     O32864   3.935   4.923   9.663  0.2385  0.1269  0.2623
  244MOL0     C32865   3.853   4.809   9.621  0.0442 -0.2097  0.2289
  244MOL0     C32866   3.704   4.843   9.595  0.1283  0.1578  0.4932
  244MOL0     C32867   3.674   4.856   9.444  0.5116  0.3645 -0.6786
  244MOL0     C32868   3.593   4.983   9.412  1.1443 -1.1365 -0.8582
  244MOL0     C32869   3.601   5.042   9.275  0.1108  0.7018 -0.2200
  244MOL0     C32870   3.620   5.093   9.174 -0.5813 -0.5284 -0.5140
  244MOL0     C32871   4.085   5.009   9.823 -0.1517 -0.4578 -0.1068
  244MOL0     C32872   4.124   5.042   9.953  0.2257  1.0225  0.0953
  244MOL0     H32873   4.026   4.830  10.476 -1.9357  0.4617  0.1794
  244MOL0     H32874   4.122   4.864  10.715  0.0851  0.9839 -0.2731
  244MOL0     H32875   4.245   5.210  10.975  3.0308  0.3501 -1.1821
  244MOL0     H32876   4.201   5.304  10.838 -0.6458 -0.0319  0.3572
  244MOL0     H32877   4.007   5.343  10.932 -0.1042 -0.2443  0.7023
  244MOL0     H32878   3.951   5.199  10.862 -1.2375  3.0446 -0.2433
  244MOL0     H32879   4.051   5.086  11.072  4.0595  2.0641 -2.2981
  244MOL0     H32880   4.065   5.256  11.117  0.7084 -0.0519 -1.2302
  244MOL0     H32881   3.804   5.278  11.111 -0.4634  0.4555  1.0937
  244MOL0     H32882   3.795   5.094  11.082  2.3442 -3.3269  4.1380
  244MOL0     H32883   3.942   5.061  11.275  1.2730  0.6865  0.3132
  244MOL0     H32884   3.925   5.227  11.316  2.2096 -0.1205 -2.5596
  244MOL0     H32885   3.673   5.186  11.370 -1.4692 -0.1816 -2.4320
  244MOL0     H32886   3.694   5.042  11.267  1.9024 -0.3513 -1.3905
  244MOL0     H32887   3.851   4.934  11.437  2.2655  1.5190  1.2491
  244MOL0     H32888   3.863   5.073  11.525  0.3906 -1.1552  1.1786
  244MOL0     H32889   3.595   4.930  11.499 -0.6414 -2.3250  0.9470
  244MOL0     H32890   3.613   5.080  11.584 -0.7546  0.1415  2.1352
  244MOL0     H32891   3.520   4.969  11.812  0.1877  2.5246 -1.0986
  244MOL0     H32892   3.514   4.795  12.009  0.0477 -2.5114 -0.6081
  244MOL0     H32893   3.631   4.668  12.030 -1.1831 -0.4250 -0.8523
  244MOL0     H32894   3.688   4.959  12.097 -3.9820  0.5299 -1.2026
  244MOL0     H32895   3.783   4.819  12.136  1.4210  0.5530 -1.5701
  244MOL0     H32896   3.605   4.722  12.269 -3.0014 -0.4055 -0.5400
  244MOL0     H32897   3.500   4.862  12.237  0.7990  2.5872 -0.3261
  244MOL0     H32898   3.687   5.004  12.338 -0.4054 -0.3191 -2.7111
  244MOL0     H32899   3.769   4.863  12.390  0.8287  0.4010  3.0207
  244MOL0     H32900   3.418   4.904  12.678  0.2050  1.1817 -0.1386
  244MOL0     H32901   3.090   5.032  12.695 -0.1732  2.8215 -1.3971
  244MOL0     H32902   3.209   4.925  12.778 -0.4131  1.4357  2.2106
  244MOL0     H32903   3.226   5.099  12.797  0.5731  2.8398 -2.8348
  244MOL0     H32904   2.955   5.465  12.496 -0.5924  2.3566  0.5539
  244MOL0     H32905   2.782   5.593  12.581  1.5320 -0.7087 -1.7422
  244MOL0     H32906   2.549   5.713  12.832  0.8099 -1.3092  1.0159
  244MOL0     H32907   2.682   5.754  12.738 -2.5574  2.4418 -0.1151
  244MOL0     H32908   2.587   5.675  12.532  0.3639  0.1928 -0.1025
  244MOL0     H32909   2.478   5.569  12.607  1.4152 -0.3904 -0.8894
  244MOL0     H32910   2.481   5.867  12.618  0.9457  0.4072  1.6033
  244MOL0     H32911   2.356   5.774  12.702  1.2510 -2.7375  0.9269
  244MOL0     H32912   2.390   5.748  12.403  0.2244  1.3066 -0.6822
  244MOL0     H32913   2.248   5.706  12.494  1.5495 -0.9022 -1.3218
  244MOL0     H32914   2.204   5.898  12.365  0.8239 -1.7499 -0.4984
  244MOL0     H32915   2.344   5.991  12.410 -1.9004  1.5294 -0.2972
  244MOL0     H32916   2.101   5.927  12.598  1.6698 -1.3051  0.1992
  244MOL0     H32917   2.258   5.973  12.659  0.7882 -1.9334 -0.4630
  244MOL0     H32918   2.104   6.142  12.448  0.2132  1.5355  0.3520
  244MOL0     H32919   2.253   6.184  12.518  0.2959 -0.7622 -0.1902
  244MOL0     H32920   2.188   6.193  12.741 -1.1498 -2.4398  0.2475
  244MOL0     H32921   2.020   6.155  12.703 -0.0259  0.7862  2.6738
  244MOL0     H32922   2.812   5.373  12.955  1.1334  1.0895  0.4814
  244MOL0     H32923   3.017   5.255  12.854  4.1947  1.6843 -1.8375
  244MOL0     H32924   3.295   5.234  12.325 -0.2316  4.1687  2.9755
  244MOL0     H32925   3.532   5.120  12.330  2.6774 -2.5047  2.5753
  244MOL0     H32926   4.163   5.286  10.630 -0.2324  0.7139 -1.9058
  244MOL0     H32927   4.057   5.251  10.418 -0.9162  0.3957 -0.2770
  244MOL0     H32928   3.856   4.889  10.118 -0.7413 -2.9769 -0.4824
  244MOL0     H32929   3.793   4.850   9.899  0.3349 -1.5938  1.4012
  244MOL0     H32930   3.899   4.757   9.537 -2.1629 -0.6805 -0.7535
  244MOL0     H32931   3.849   4.749   9.712  0.7052  1.6012  1.5088
  244MOL0     H32932   3.668   4.935   9.644 -1.0252  0.0920 -0.1943
  244MOL0     H32933   3.633   4.764   9.622 -4.0010  3.0843 -0.6127
  244MOL0     H32934   3.633   4.767   9.395 -1.2495  1.7692 -1.8991
  244MOL0     H32935   3.774   4.881   9.405 -0.6058  0.5298 -3.7587
  244MOL0     H32936   3.626   5.061   9.482 -3.4272 -1.1818  1.7394
  244MOL0     H32937   3.490   4.966   9.442  0.9923 -1.1237 -1.3742
  244MOL0     H32938   3.617   5.144   9.079 -3.2310 -3.4584 -2.1944
  244MOL0     H32939   4.132   5.053   9.735 -0.6469 -0.9712 -0.6435
  244MOL0     H32940   4.213   5.099   9.978 -0.2704  1.2784  1.3865
  245MOL0     O32941   1.960   6.956   3.442  0.1636  0.5891 -0.6594
  245MOL0     C32942   2.082   6.942   3.454 -0.2346  0.5534  0.2151
  245MOL0     O32943   2.148   6.924   3.565  0.3207  0.4304 -0.2125
  245MOL0     C32944   2.066   6.942   3.677 -0.7604 -0.4971  0.2507
  245MOL0     C32945   2.033   7.069   3.718  1.0126  0.1882  0.6805
  245MOL0     C32946   1.972   7.091   3.839 -0.2780 -0.0571  0.4001
  245MOL0     C32947   1.936   6.985   3.925  0.2315 -0.3095  0.4069
  245MOL0     O32948   1.879   7.023   4.044  0.6497  0.3404 -0.3125
  245MOL0     C32949   1.826   6.909   4.117 -0.9586  0.5745  1.0105
  245MOL0     C32950   1.766   6.954   4.242 -0.0842 -0.7850 -0.6903
  245MOL0     C32951   1.647   7.050   4.207  0.5021  1.0807 -0.7459
  245MOL0     C32952   1.567   7.089   4.324 -0.8591 -0.5169 -0.9633
  245MOL0     C32953   1.468   7.201   4.301  0.1108 -0.0391 -0.2911
  245MOL0     C32954   1.333   7.151   4.237  0.2044  0.0288  0.5456
  245MOL0     C32955   1.225   7.262   4.217  0.1152  0.0967 -0.1916
  245MOL0     C32956   1.233   7.334   4.078 -0.7074  0.2089 -0.9671
  245MOL0     N32957   1.372   7.335   4.021  0.1270  0.1638  0.3870
  245MOL0     C32958   1.428   7.246   3.925  0.3342 -0.7043 -0.0738
  245MOL0     C32959   1.526   7.321   3.873  0.1147 -0.2605 -0.5851
  245MOL0     C32960   1.630   7.255   3.778 -0.8290  0.9512 -0.7044
  245MOL0     C32961   1.576   7.180   3.663  0.1437  0.2267 -0.5257
  245MOL0     C32962   1.688   7.153   3.559 -0.4445  0.5028  0.4747
  245MOL0     C32963   1.641   7.082   3.436  0.7274 -0.4467 -1.0507
  245MOL0     O32964   1.608   6.939   3.457 -0.4059  0.1967 -0.2551
  245MOL0     C32965   1.495   6.896   3.402  0.7991  1.4402  1.0005
  245MOL0     C32966   1.505   6.772   3.344 -0.4596 -0.3259 -0.6250
  245MOL0     C32967   1.403   6.719   3.272  0.0684 -0.4233  0.1705
  245MOL0     C32968   1.433   6.584   3.209  0.1708 -0.7804  0.1184
  245MOL0     C32969   1.274   6.777   3.277  0.5671 -0.3019  0.4337
  245MOL0     C32970   1.149   6.718   3.221 -0.2244  0.3811 -0.4971
  245MOL0     O32971   1.039   6.767   3.283  0.5233 -0.2030 -0.2865
  245MOL0     C32972   0.917   6.737   3.238  0.1531 -1.4632 -0.3683
  245MOL0     C32973   0.885   6.750   3.101 -0.9792  0.1535  0.6666
  245MOL0     C32974   0.752   6.737   3.064 -0.4283  0.8671 -1.1671
  245MOL0     C32975   0.644   6.719   3.153  0.5626  0.0595 -0.4364
  245MOL0     O32976   0.516   6.705   3.100 -0.3876  1.0352 -0.9397
  245MOL0     C32977   0.482   6.806   3.000 -0.5248  0.3006 -0.5176
  245MOL0     C32978   0.352   6.767   2.939 -0.5110 -0.4607  0.7786
  245MOL0     C32979   0.338   6.620   2.901 -0.2383  0.0693 -0.4600
  245MOL0     C32980   0.206   6.581   2.829  0.6371 -0.8010  0.2285
  245MOL0     C32981   0.209   6.438   2.777 -0.4379  0.1786  0.5718
  245MOL0     C32982   0.203   6.330   2.885  0.1731  0.8321 -1.1966
  245MOL0     C32983   0.249   6.186   2.835  0.5268  0.5156 -0.4734
  245MOL0     C32984   0.207   6.132   2.698  0.2725 -0.4079 -0.1472
  245MOL0    Cl32985   0.330   6.007   2.653 -0.0536  0.6685 -0.1680
  245MOL0     C32986   0.674   6.706   3.286 -0.6688 -0.2237 -0.1186
  245MOL0     C32987   0.807   6.729   3.330 -0.2172 -0.0417 -0.3231
  245MOL0     O32988   1.147   6.644   3.120 -0.1011 -0.4185  0.0087
  245MOL0     C32989   1.266   6.898   3.348 -0.0630  0.1247  0.0762
  245MOL0     C32990   1.374   6.957   3.407 -0.4111  0.5077  0.3509
  245MOL0     N32991   1.536   7.445   3.927 -0.0685 -0.2958  0.0313
  245MOL0     N32992   1.452   7.446   4.022  0.7137 -0.5856  0.4676
  245MOL0     C32993   1.969   6.859   3.881 -0.3547  0.1358 -1.4106
  245MOL0     C32994   2.032   6.842   3.761 -0.6931 -0.0750 -0.5057
  245MOL0     C32995   2.164   6.924   3.333 -0.7093  0.5919  0.5986
  245MOL0     C32996   2.111   6.907   3.202 -0.3833  0.1317  0.3212
  245MOL0     C32997   2.191   6.884   3.089 -0.8134  0.1228 -0.0840
  245MOL0     C32998   2.329   6.873   3.105 -0.2159 -0.0063 -0.8419
  245MOL0     O32999   2.397   6.852   2.986  0.4903 -0.4959 -0.0241
  245MOL0     C33000   2.536   6.843   2.979  0.3418 -0.4530  0.9112
  245MOL0     C33001   2.562   6.834   2.830 -0.0090  0.0902  0.5683
  245MOL0     C33002   2.525   6.976   2.759  0.2487 -0.5919 -0.2795
  245MOL0     C33003   2.555   6.960   2.608 -0.3221  0.4795 -0.7814
  245MOL0     C33004   2.507   7.077   2.544  0.3041  0.8930 -0.7325
  245MOL0     C33005   2.457   7.171   2.489  0.2921  0.4427  0.7384
  245MOL0     C33006   2.388   6.882   3.236 -0.5557  0.4567 -0.4205
  245MOL0     C33007   2.305   6.914   3.347 -0.1276  0.1948 -0.5914
  245MOL0     H33008   2.046   7.157   3.656 -2.2448 -1.3302 -2.5726
  245MOL0     H33009   1.943   7.193   3.862  1.5890  1.0921 -1.8986
  245MOL0     H33010   1.751   6.859   4.055  0.4769  0.4407 -0.7290
  245MOL0     H33011   1.906   6.836   4.136 -2.3872 -1.6409 -0.9085
  245MOL0     H33012   1.728   6.881   4.314  1.3404  0.0389  0.9596
  245MOL0     H33013   1.843   7.012   4.292 -2.7340  1.5799  0.9431
  245MOL0     H33014   1.685   7.142   4.163 -0.9289  0.0080 -4.6287
  245MOL0     H33015   1.580   7.008   4.132  0.2668  0.0286  0.0210
  245MOL0     H33016   1.512   7.002   4.362 -4.0248  0.8262 -2.1899
  245MOL0     H33017   1.640   7.125   4.398  0.3737 -0.8660 -1.9660
  245MOL0     H33018   1.439   7.262   4.387  0.2875  2.5286 -1.9636
  245MOL0     H33019   1.529   7.263   4.235  2.4882 -0.6426  1.2229
  245MOL0     H33020   1.356   7.112   4.137 -0.3848  2.3691 -0.5909
  245MOL0     H33021   1.294   7.063   4.288 -1.8427  0.4153 -0.2463
  245MOL0     H33022   1.123   7.224   4.225  0.0035 -0.1276 -2.2410
  245MOL0     H33023   1.232   7.341   4.292 -3.4542  0.8222 -0.4420
  245MOL0     H33024   1.205   7.439   4.091 -0.9049  0.0116  0.3568
  245MOL0     H33025   1.160   7.292   4.009 -0.9634 -0.5113 -0.2766
  245MOL0     H33026   1.384   7.165   3.868 -1.2864  1.8090 -2.6290
  245MOL0     H33027   1.699   7.339   3.760  1.1574 -0.0864  1.5470
  245MOL0     H33028   1.700   7.189   3.831  0.0963  1.4709 -1.2387
  245MOL0     H33029   1.496   7.233   3.611  1.4553  1.7020 -1.1024
  245MOL0     H33030   1.538   7.084   3.701  0.3404  0.0750 -0.7085
  245MOL0     H33031   1.772   7.097   3.602  0.2904  1.5227  0.3886
  245MOL0     H33032   1.732   7.250   3.534  0.9730 -0.7294 -2.3030
  245MOL0     H33033   1.727   7.088   3.369  0.9803  0.3420 -0.6675
  245MOL0     H33034   1.561   7.138   3.385 -0.9423 -2.6503 -0.9808
  245MOL0     H33035   1.597   6.717   3.357  0.4372  1.4520  0.9310
  245MOL0     H33036   1.517   6.544   3.267 -1.2918  0.0076  2.9581
  245MOL0     H33037   1.347   6.517   3.217 -1.9101  1.8810  1.4239
  245MOL0     H33038   1.469   6.593   3.106 -0.7460  1.2761 -0.0666
  245MOL0     H33039   0.956   6.758   3.020  1.9006  0.0717  3.0016
  245MOL0     H33040   0.741   6.730   2.957 -0.2378 -2.2512 -1.0882
  245MOL0     H33041   0.482   6.905   3.048  1.8866 -0.8147  2.0834
  245MOL0     H33042   0.553   6.814   2.917  1.3060 -1.4918  0.7632
  245MOL0     H33043   0.266   6.804   2.995 -1.2709 -1.7212  0.4757
  245MOL0     H33044   0.356   6.824   2.846  5.0744 -1.9220 -0.2005
  245MOL0     H33045   0.332   6.556   2.990  1.7649  1.9406  1.1479
  245MOL0     H33046   0.428   6.593   2.845 -0.1096 -1.8126  0.5693
  245MOL0     H33047   0.127   6.596   2.902  1.8547  1.3438  1.2047
  245MOL0     H33048   0.197   6.640   2.737  1.6433 -1.7425 -0.5011
  245MOL0     H33049   0.292   6.425   2.707 -1.6049  1.4502 -1.1123
  245MOL0     H33050   0.126   6.422   2.708  0.3050 -0.0413 -0.2887
  245MOL0     H33051   0.267   6.360   2.968  1.2635  0.1576 -1.7783
  245MOL0     H33052   0.100   6.326   2.924  0.3504  0.7178 -0.7310
  245MOL0     H33053   0.220   6.115   2.913 -3.2617  1.2031 -1.0721
  245MOL0     H33054   0.359   6.189   2.840  0.6030 -1.6908  0.1812
  245MOL0     H33055   0.217   6.207   2.619  1.6014 -0.2792  0.1209
  245MOL0     H33056   0.111   6.082   2.710 -0.2635  1.0451  2.3223
  245MOL0     H33057   0.592   6.687   3.354  1.2522 -2.6319  1.7253
  245MOL0     H33058   0.823   6.723   3.437 -0.2600  3.1020 -0.0379
  245MOL0     H33059   1.170   6.944   3.366 -0.7536 -1.4350  0.6191
  245MOL0     H33060   1.358   7.040   3.476 -0.9984  0.2184  0.5736
  245MOL0     H33061   1.947   6.769   3.938  0.0764 -0.5433 -2.2932
  245MOL0     H33062   2.060   6.742   3.728  3.0883 -0.0180  1.9528
  245MOL0     H33063   2.004   6.914   3.186 -0.3026 -0.8433 -0.8066
  245MOL0     H33064   2.142   6.862   2.995 -1.3456 -1.4193  0.5222
  245MOL0     H33065   2.576   6.933   3.027 -2.0908  2.3825 -1.8985
  245MOL0     H33066   2.569   6.760   3.041  0.5510 -0.1028  1.2708
  245MOL0     H33067   2.513   6.745   2.788  0.1776 -0.0597  0.6706
  245MOL0     H33068   2.667   6.815   2.807 -0.8244 -3.8036 -0.7713
  245MOL0     H33069   2.584   7.056   2.806 -0.6686 -0.4671  0.6952
  245MOL0     H33070   2.417   6.992   2.759 -0.0475 -2.4291  0.2065
  245MOL0     H33071   2.496   6.874   2.575 -4.3896  1.5049  2.7560
  245MOL0     H33072   2.662   6.956   2.586  0.0169  0.3013  0.7777
  245MOL0     H33073   2.417   7.260   2.445  1.8054  2.2304  2.7529
  245MOL0     H33074   2.496   6.873   3.243 -0.5044  1.3066  0.0363
  245MOL0     H33075   2.356   6.929   3.441  0.4432 -3.7335 -0.1054
  246MOL0     O33076   0.099   6.233   8.153 -0.1992  1.0865 -0.3844
  246MOL0     C33077   0.105   6.129   8.083  0.2117 -0.4708  0.3127
  246MOL0     O33078   0.143   6.003   8.131  0.0700 -0.7598  0.3324
  246MOL0     C33079   0.171   5.983   8.266  0.0575 -0.0514 -0.1322
  246MOL0     C33080   0.251   6.067   8.351 -0.6739 -0.4162  0.2271
  246MOL0     C33081   0.287   6.036   8.480 -0.0892  0.4016  0.0999
  246MOL0     C33082   0.239   5.910   8.533 -0.3379 -0.2271  1.0312
  246MOL0     O33083   0.250   5.870   8.662 -0.1363 -0.3853 -0.3772
  246MOL0     C33084   0.279   5.976   8.754  0.4771  0.0038 -0.2316
  246MOL0     C33085   0.249   5.925   8.897  0.2804  0.7915  0.8415
  246MOL0     C33086   0.233   6.026   9.019  0.5722 -0.4953 -0.1646
  246MOL0     C33087   0.341   6.133   9.016 -0.2736 -0.0427  0.0690
  246MOL0     C33088   0.337   6.212   9.139  0.0012 -0.0747 -0.4381
  246MOL0     C33089   0.418   6.345   9.128 -0.3963 -0.4334  0.4221
  246MOL0     C33090   0.395   6.416   9.260 -0.0945  0.0132  0.4490
  246MOL0     C33091   0.484   6.534   9.261  0.0902  0.1916 -0.9333
  246MOL0     N33092   0.458   6.605   9.391  0.8622  0.3064  0.1587
  246MOL0     C33093   0.537   6.600   9.508  0.3969 -0.3532  0.4964
  246MOL0     C33094   0.452   6.647   9.602 -0.0791  0.2286  1.1377
  246MOL0     C33095   0.470   6.656   9.749 -0.7054 -1.1297 -0.6819
  246MOL0     C33096   0.480   6.522   9.821 -0.1535  0.3556  0.3106
  246MOL0     C33097   0.528   6.535   9.966 -0.9477  0.1220  0.8578
  246MOL0     C33098   0.399   6.560  10.061 -0.7126  0.5899 -0.4168
  246MOL0     O33099   0.330   6.436  10.094  0.6340  0.2449  0.7492
  246MOL0     C33100   0.187   6.442  10.092  0.5319  0.4464  0.7237
  246MOL0     C33101   0.115   6.345  10.025  0.1632  0.3640 -0.1405
  246MOL0     C33102  -0.021   6.351  10.028 -0.0359 -0.9638  0.5294
  246MOL0     C33103  -0.091   6.248   9.944  0.4363  0.8181  0.3185
  246MOL0     C33104  -0.097   6.459  10.087  0.2013  0.1129  0.6425
  246MOL0     C33105  -0.249   6.487  10.086 -0.5602  0.6098  0.1451
  246MOL0     O33106  -0.289   6.612  10.090  0.5159 -0.6361 -0.4605
  246MOL0     C33107  -0.398   6.643  10.020 -0.1976 -0.4630 -0.4745
  246MOL0     C33108  -0.406   6.648   9.876 -0.4086  0.3060 -1.0156
  246MOL0     C33109  -0.534   6.681   9.818 -1.3644  0.1144  0.0971
  246MOL0     C33110  -0.644   6.730   9.892 -0.3598 -0.3685 -1.6058
  246MOL0     O33111  -0.753   6.771   9.832  0.0008 -0.8261 -0.0329
  246MOL0     C33112  -0.868   6.695   9.845 -0.5353 -0.1472  0.7414
  246MOL0     C33113  -0.942   6.725   9.714 -0.5222  0.0121  0.1455
  246MOL0     C33114  -0.876   6.681   9.572  0.7790  0.5470  0.1201
  246MOL0     C33115  -0.991   6.652   9.473  0.1863  0.3636  0.6247
  246MOL0     C33116  -1.050   6.782   9.412 -0.3025  0.2124 -1.3838
  246MOL0     C33117  -1.151   6.758   9.297 -0.3866 -0.2513  0.0691
  246MOL0     C33118  -1.080   6.734   9.167  0.5504  0.0499 -0.2815
  246MOL0     C33119  -1.175   6.714   9.049  0.0316  0.2699 -0.3414
  246MOL0    Cl33120  -1.293   6.575   9.066  0.1460 -0.0366 -0.0861
  246MOL0     C33121  -0.621   6.724  10.027 -0.0112  0.5326 -0.7408
  246MOL0     C33122  -0.507   6.689  10.093  0.1013  0.3703 -0.5616
  246MOL0     O33123  -0.323   6.389  10.064 -0.2558  0.2687  0.2252
  246MOL0     C33124  -0.024   6.555  10.160  1.2320 -0.2239 -0.1843
  246MOL0     C33125   0.116   6.541  10.167 -0.3636 -0.2116  0.7251
  246MOL0     N33126   0.341   6.706   9.538  0.6001  0.1177 -0.4231
  246MOL0     N33127   0.355   6.680   9.418  0.7017 -0.4118  1.0382
  246MOL0     C33128   0.172   5.829   8.446 -0.0748 -0.0946 -0.4163
  246MOL0     C33129   0.139   5.853   8.313 -0.7583 -0.1968 -0.4020
  246MOL0     C33130   0.039   6.138   7.945 -0.1319 -0.7510 -0.6692
  246MOL0     C33131  -0.031   6.255   7.920 -0.7378 -0.1334  0.1297
  246MOL0     C33132  -0.109   6.263   7.803 -1.5522  0.2554 -0.5886
  246MOL0     C33133  -0.116   6.144   7.722  0.2710 -0.4633  0.3625
  246MOL0     O33134  -0.205   6.122   7.620 -0.2156  0.0869  0.8911
  246MOL0     C33135  -0.308   6.226   7.593 -1.1885 -0.2830 -0.9470
  246MOL0     C33136  -0.452   6.211   7.652 -0.1189  0.8054 -0.0591
  246MOL0     C33137  -0.530   6.093   7.593  0.1347  0.1341  0.2421
  246MOL0     C33138  -0.658   6.077   7.681 -1.0013 -0.0214  1.6642
  246MOL0     C33139  -0.735   5.969   7.627 -0.8525 -0.4148  0.3565
  246MOL0     C33140  -0.777   5.862   7.590 -0.2132 -0.2542  1.1470
  246MOL0     C33141  -0.043   6.038   7.742 -0.0526  0.0840 -0.2102
  246MOL0     C33142   0.032   6.028   7.855 -0.4603  0.4310 -0.6947
  246MOL0     H33143   0.297   6.155   8.308  1.0527 -0.9409  0.9411
  246MOL0     H33144   0.339   6.106   8.544  0.5012  0.6317 -0.6107
  246MOL0     H33145   0.382   6.011   8.744 -0.1561  1.4852 -2.4262
  246MOL0     H33146   0.212   6.059   8.727 -0.1181  0.0537  1.2860
  246MOL0     H33147   0.163   5.858   8.900  0.3994  0.6527  3.0141
  246MOL0     H33148   0.327   5.855   8.930 -0.4824 -0.8523 -0.6901
  246MOL0     H33149   0.138   6.080   9.017 -0.5239 -2.3263  0.4178
  246MOL0     H33150   0.238   5.972   9.115  2.9914 -2.5052 -1.3089
  246MOL0     H33151   0.444   6.096   9.012 -0.0802  0.0191  2.6368
  246MOL0     H33152   0.329   6.198   8.929 -0.8793 -0.3053 -0.0517
  246MOL0     H33153   0.231   6.235   9.158 -0.5382 -1.0759 -2.0254
  246MOL0     H33154   0.375   6.148   9.220  0.6608 -1.7528 -1.9875
  246MOL0     H33155   0.524   6.329   9.108 -0.3714  1.0300 -0.8121
  246MOL0     H33156   0.359   6.386   9.045 -0.0593  2.9567  1.6748
  246MOL0     H33157   0.296   6.463   9.263  0.9425  2.4210 -0.6175
  246MOL0     H33158   0.423   6.352   9.344  0.9546 -0.0603  0.0528
  246MOL0     H33159   0.467   6.608   9.182 -0.3554  0.0054 -1.0134
  246MOL0     H33160   0.590   6.509   9.269  0.1858  1.0892  2.7590
  246MOL0     H33161   0.628   6.540   9.507 -0.7515 -2.2355 -1.4866
  246MOL0     H33162   0.559   6.715   9.773  0.0411 -1.1450 -3.1705
  246MOL0     H33163   0.386   6.714   9.789  0.8492  0.9035 -0.1831
  246MOL0     H33164   0.545   6.453   9.766 -1.7689 -2.6400  1.9213
  246MOL0     H33165   0.384   6.470   9.829  0.2915 -0.4830  0.3270
  246MOL0     H33166   0.610   6.608   9.957 -1.7189  0.8207 -1.4157
  246MOL0     H33167   0.554   6.439  10.010 -0.7212  0.7716  2.1991
  246MOL0     H33168   0.332   6.632  10.013 -2.1969  0.7036  1.6984
  246MOL0     H33169   0.425   6.605  10.157 -2.3278 -0.1680  0.4074
  246MOL0     H33170   0.168   6.274   9.962  0.5645  1.7144 -1.4015
  246MOL0     H33171  -0.123   6.291   9.849  3.2892  1.3159 -0.5346
  246MOL0     H33172  -0.023   6.169   9.908 -3.2233 -1.5420 -2.0593
  246MOL0     H33173  -0.172   6.202  10.001  3.7918 -4.4696  1.6432
  246MOL0     H33174  -0.329   6.612   9.808  0.8136  0.3618  0.3066
  246MOL0     H33175  -0.555   6.694   9.712 -0.5778 -2.9782 -0.5070
  246MOL0     H33176  -0.854   6.589   9.869  1.6781 -1.0359 -3.5550
  246MOL0     H33177  -0.929   6.731   9.929 -1.0781  1.5968 -0.3580
  246MOL0     H33178  -1.031   6.664   9.729 -0.7684  0.5055  0.7253
  246MOL0     H33179  -0.970   6.831   9.713  0.0372  0.2154  2.1240
  246MOL0     H33180  -0.814   6.591   9.579 -2.9164 -2.0904  2.2860
  246MOL0     H33181  -0.803   6.753   9.535  2.5932 -1.0266  0.4371
  246MOL0     H33182  -0.953   6.591   9.391  1.1709  1.3975  0.2767
  246MOL0     H33183  -1.075   6.600   9.519 -0.2113  1.0225  0.6542
  246MOL0     H33184  -0.967   6.847   9.383  0.3320 -0.7239 -1.7078
  246MOL0     H33185  -1.100   6.839   9.491 -1.4767 -1.3638 -0.9352
  246MOL0     H33186  -1.205   6.668   9.327  1.1889 -1.6361 -1.0442
  246MOL0     H33187  -1.219   6.843   9.288 -1.5100 -1.1918 -0.6652
  246MOL0     H33188  -1.021   6.645   9.189  0.6875  0.6290  1.9177
  246MOL0     H33189  -1.010   6.816   9.145  3.8118 -2.0457  1.5229
  246MOL0     H33190  -1.115   6.694   8.960  0.7802  1.9994 -0.2713
  246MOL0     H33191  -1.226   6.811   9.041  1.4511  0.8973 -3.6032
  246MOL0     H33192  -0.694   6.750  10.104  0.7359  0.9167 -0.1421
  246MOL0     H33193  -0.499   6.681  10.201  2.1591 -2.5149 -0.8018
  246MOL0     H33194  -0.073   6.639  10.207 -0.0199 -1.2310  0.3698
  246MOL0     H33195   0.172   6.614  10.226  4.0211 -1.4314 -1.4688
  246MOL0     H33196   0.135   5.733   8.483  3.5814 -1.2945  0.6275
  246MOL0     H33197   0.082   5.788   8.247  2.6644 -4.0547  0.0197
  246MOL0     H33198  -0.028   6.347   7.978  2.0363  2.7545 -4.0186
  246MOL0     H33199  -0.162   6.356   7.788  0.8384  1.5756 -1.5424
  246MOL0     H33200  -0.269   6.326   7.616  0.3554 -0.9900 -0.3150
  246MOL0     H33201  -0.324   6.227   7.485 -1.6769  0.2868 -0.8736
  246MOL0     H33202  -0.511   6.303   7.642  0.0208  1.0721  1.3767
  246MOL0     H33203  -0.446   6.190   7.759 -0.0437 -1.6203 -0.4961
  246MOL0     H33204  -0.474   5.999   7.592  0.2656 -0.0296  4.2690
  246MOL0     H33205  -0.542   6.119   7.488 -0.8200 -0.1968  0.2586
  246MOL0     H33206  -0.727   6.161   7.673 -0.0968  0.6390  0.5629
  246MOL0     H33207  -0.625   6.051   7.782 -0.9723 -2.3166  1.1144
  246MOL0     H33208  -0.806   5.773   7.538 -0.7214 -0.1470  1.2434
  246MOL0     H33209  -0.055   5.955   7.674  1.8536  0.3371 -0.8932
  246MOL0     H33210   0.091   5.940   7.878 -1.5372 -0.1422 -0.0624
  247MOL0     O33211  10.007   5.242   1.399 -0.6093 -0.5001  0.9915
  247MOL0     C33212  10.124   5.266   1.430 -0.3810  0.1299  0.5053
  247MOL0     O33213  10.220   5.298   1.343 -0.6477 -0.4672  0.0660
  247MOL0     C33214  10.194   5.305   1.211 -0.1754 -0.0835  0.1341
  247MOL0     C33215  10.289   5.251   1.126  0.6373 -0.2845  0.6670
  247MOL0     C33216  10.264   5.270   0.985  0.6294 -1.0663  0.1115
  247MOL0     C33217  10.146   5.340   0.940  0.1139  0.0372 -0.1803
  247MOL0     O33218  10.125   5.353   0.801  0.1428  0.5465  0.7506
  247MOL0     C33219   9.991   5.380   0.753  1.2249  0.1705  0.6152
  247MOL0     C33220   9.978   5.368   0.604 -0.4849 -0.0061 -0.5377
  247MOL0     C33221   9.844   5.314   0.560  0.2453  0.1375 -0.3114
  247MOL0     C33222   9.724   5.403   0.604  0.4684 -0.1450 -0.5190
  247MOL0     C33223   9.587   5.338   0.553  0.1293  0.3328 -0.1941
  247MOL0     C33224   9.467   5.430   0.556 -0.3169 -0.2601 -0.8474
  247MOL0     C33225   9.424   5.479   0.704  0.1784 -0.5480 -0.1064
  247MOL0     C33226   9.400   5.376   0.811 -0.7515  0.0454 -0.2809
  247MOL0     N33227   9.286   5.289   0.774  0.0942 -0.4097  0.3138
  247MOL0     C33228   9.146   5.324   0.785  0.0123  0.1957  0.8661
  247MOL0     C33229   9.084   5.236   0.714  0.8581  0.1297 -0.3150
  247MOL0     C33230   8.935   5.241   0.680  0.4110 -0.7240 -0.5047
  247MOL0     C33231   8.884   5.363   0.606  0.4822 -0.2158  0.0137
  247MOL0     C33232   8.729   5.369   0.596  0.0647  0.8966  0.3163
  247MOL0     C33233   8.659   5.239   0.526 -0.1700 -0.4245 -0.4734
  247MOL0     O33234   8.515   5.238   0.530 -0.0905 -0.0049 -0.2381
  247MOL0     C33235   8.446   5.207   0.643  0.2802  0.2302  1.1839
  247MOL0     C33236   8.512   5.162   0.764  1.1712 -0.2784  0.1485
  247MOL0     C33237   8.429   5.124   0.870 -0.4193 -1.1333  0.1118
  247MOL0     C33238   8.512   5.088   0.988 -0.4753 -0.4157  0.7551
  247MOL0     C33239   8.286   5.133   0.869  0.7506  0.1053  0.1488
  247MOL0     C33240   8.192   5.112   0.977 -0.7541  0.0507 -0.8225
  247MOL0     O33241   8.066   5.078   0.948  0.3505 -0.5322  0.0715
  247MOL0     C33242   7.980   5.029   1.043 -0.6215  0.2354 -0.1832
  247MOL0     C33243   7.865   5.095   1.058  0.5107  0.4260  0.3608
  247MOL0     C33244   7.763   5.054   1.151  0.8192  0.8193 -0.2106
  247MOL0     C33245   7.784   4.942   1.232  0.3317  0.4019 -0.1286
  247MOL0     O33246   7.686   4.913   1.328  0.6324 -0.2323  0.6198
  247MOL0     C33247   7.738   4.845   1.448 -0.4239  1.1086 -0.8182
  247MOL0     C33248   7.609   4.832   1.535 -0.4510  0.6906  0.6199
  247MOL0     C33249   7.586   4.978   1.594 -0.2252  0.5659  0.0401
  247MOL0     C33250   7.442   4.992   1.652 -0.1531  0.0944 -0.6227
  247MOL0     C33251   7.336   5.002   1.540  0.0731  0.4582  0.2449
  247MOL0     C33252   7.201   4.990   1.624 -0.3130  0.0068  0.1538
  247MOL0     C33253   7.087   5.021   1.531  0.2655 -0.3670  0.3877
  247MOL0     C33254   6.943   4.990   1.593 -0.2048  0.2441 -0.1526
  247MOL0    Cl33255   6.937   5.048   1.764  0.0411 -0.1782 -0.1653
  247MOL0     C33256   7.899   4.870   1.208 -0.2368  0.0187  0.6875
  247MOL0     C33257   8.001   4.916   1.122 -0.6083  0.2496  0.8688
  247MOL0     O33258   8.239   5.118   1.093 -0.1289 -0.1578  0.3770
  247MOL0     C33259   8.228   5.175   0.745 -0.6300 -0.2802  0.7153
  247MOL0     C33260   8.311   5.219   0.642  0.2729  0.3063 -0.7539
  247MOL0     N33261   9.174   5.141   0.658  0.4493 -0.2518 -0.1303
  247MOL0     N33262   9.298   5.183   0.692  0.2696  0.5809  0.6851
  247MOL0     C33263  10.053   5.388   1.029 -0.3333  0.8631  0.0060
  247MOL0     C33264  10.089   5.382   1.166  0.5968 -0.3158 -0.6853
  247MOL0     C33265  10.147   5.245   1.573  0.1935 -0.4096 -0.9599
  247MOL0     C33266  10.281   5.253   1.627 -0.5576  0.6485  0.4888
  247MOL0     C33267  10.305   5.180   1.743 -1.2291  0.9975 -0.1448
  247MOL0     C33268  10.212   5.109   1.813 -0.1790 -1.2297 -0.1951
  247MOL0     O33269  10.252   5.023   1.916 -0.0456 -0.0757 -0.3973
  247MOL0     C33270  10.160   4.925   1.972  0.4067 -0.8507 -0.2140
  247MOL0     C33271  10.150   4.800   1.876 -0.5720 -1.2628 -0.5970
  247MOL0     C33272  10.078   4.690   1.942 -0.3351 -0.5296 -0.3850
  247MOL0     C33273   9.927   4.704   1.924  0.0600  0.0067  0.2703
  247MOL0     C33274   9.846   4.651   2.035  0.7654  0.1640 -0.5799
  247MOL0     C33275   9.774   4.629   2.129  0.7826 -0.3284 -0.3988
  247MOL0     C33276  10.074   5.117   1.775  0.4381  0.8693  0.4861
  247MOL0     C33277  10.045   5.183   1.653 -0.6922 -0.3180 -0.0281
  247MOL0     H33278  10.375   5.191   1.155  1.3893  0.2582 -0.3530
  247MOL0     H33279  10.337   5.235   0.912  0.7948 -1.7798  0.6076
  247MOL0     H33280   9.930   5.301   0.797  1.3433 -1.8618 -2.5501
  247MOL0     H33281   9.956   5.479   0.782 -0.8519 -0.7683  1.4612
  247MOL0     H33282   9.988   5.467   0.559  2.3776 -0.0593 -0.2416
  247MOL0     H33283  10.055   5.299   0.567 -0.6213 -0.6293  0.3029
  247MOL0     H33284   9.845   5.303   0.451 -0.5575  0.5394 -0.3614
  247MOL0     H33285   9.831   5.217   0.610  0.0976  0.3986  0.1617
  247MOL0     H33286   9.717   5.408   0.713 -4.4283  0.2165 -0.6447
  247MOL0     H33287   9.731   5.498   0.549  2.0498  0.0465 -0.0136
  247MOL0     H33288   9.604   5.311   0.449  0.6989 -2.6789  0.5768
  247MOL0     H33289   9.571   5.244   0.607  1.2770 -0.2678 -0.8800
  247MOL0     H33290   9.487   5.515   0.490 -0.0684  0.1478 -0.2584
  247MOL0     H33291   9.388   5.366   0.517  0.4669 -1.7901 -0.0150
  247MOL0     H33292   9.499   5.548   0.742  0.5728 -0.9237 -0.1949
  247MOL0     H33293   9.332   5.537   0.694  1.7481  1.7642 -2.1829
  247MOL0     H33294   9.383   5.422   0.909  0.0190 -1.1996  0.4634
  247MOL0     H33295   9.486   5.310   0.821 -0.1408  0.9794  0.8071
  247MOL0     H33296   9.086   5.405   0.824 -3.1697 -0.5437 -2.0497
  247MOL0     H33297   8.899   5.162   0.614 -3.8516  2.0380 -1.9325
  247MOL0     H33298   8.876   5.224   0.771  0.8581 -1.3936 -0.3303
  247MOL0     H33299   8.918   5.367   0.502  0.8626  0.8508  0.1666
  247MOL0     H33300   8.921   5.456   0.651 -1.2343  0.8362 -0.6263
  247MOL0     H33301   8.692   5.460   0.549  3.0781  2.2478  0.3613
  247MOL0     H33302   8.688   5.361   0.698 -4.7148  1.4744 -1.2985
  247MOL0     H33303   8.706   5.146   0.558 -0.7900 -0.2214  1.1082
  247MOL0     H33304   8.692   5.261   0.424 -0.6959  2.1215 -0.1772
  247MOL0     H33305   8.620   5.161   0.768  1.2911  0.2771 -1.8823
  247MOL0     H33306   8.604   5.032   0.969  0.4347  0.8381  1.3160
  247MOL0     H33307   8.551   5.182   1.029 -1.3892  0.8299 -1.0860
  247MOL0     H33308   8.447   5.035   1.057 -2.3824  2.5595  1.4476
  247MOL0     H33309   7.861   5.191   1.008 -1.7096 -0.4101 -1.2404
  247MOL0     H33310   7.676   5.117   1.152  1.2693  1.5050  2.3597
  247MOL0     H33311   7.777   4.746   1.426  3.8843  2.0392  1.5715
  247MOL0     H33312   7.819   4.896   1.501 -0.4901  0.9313 -0.5481
  247MOL0     H33313   7.530   4.796   1.467 -2.5920 -0.3729  3.4698
  247MOL0     H33314   7.635   4.754   1.607  5.0550  0.8524 -0.7428
  247MOL0     H33315   7.591   5.045   1.508 -0.2387 -0.7479 -1.0304
  247MOL0     H33316   7.661   4.992   1.672 -2.3363 -2.4589  2.8813
  247MOL0     H33317   7.423   4.925   1.736  2.1801  0.7432  0.5142
  247MOL0     H33318   7.437   5.084   1.712 -0.8657  0.9555 -1.9402
  247MOL0     H33319   7.354   4.929   1.460 -0.8304 -0.4585  0.8401
  247MOL0     H33320   7.342   5.105   1.503 -1.6717  0.5567  0.1660
  247MOL0     H33321   7.190   4.888   1.662 -0.7915 -0.2886 -0.7433
  247MOL0     H33322   7.204   5.065   1.703 -0.1382  0.5102 -0.3245
  247MOL0     H33323   7.092   4.952   1.446 -2.6123 -0.5744  0.2910
  247MOL0     H33324   7.086   5.119   1.484 -2.9198 -0.8388 -0.8070
  247MOL0     H33325   6.927   4.881   1.595 -1.3715  0.3440 -2.0934
  247MOL0     H33326   6.865   5.038   1.533 -0.8130 -0.5593 -0.0246
  247MOL0     H33327   7.912   4.775   1.259 -1.4280 -1.6300 -1.8775
  247MOL0     H33328   8.095   4.862   1.134  0.4329  1.2799 -1.8500
  247MOL0     H33329   8.124   5.189   0.718 -0.3744 -1.4304 -0.9639
  247MOL0     H33330   8.267   5.256   0.550  0.7602 -2.0144 -1.9957
  247MOL0     H33331   9.966   5.440   0.989 -2.5630 -1.7120  1.1748
  247MOL0     H33332  10.017   5.423   1.237  1.6207 -1.4478  1.0992
  247MOL0     H33333  10.363   5.279   1.562  0.7175 -0.5920  1.5275
  247MOL0     H33334  10.407   5.162   1.776 -1.9188  0.2032  1.7102
  247MOL0     H33335  10.204   4.895   2.067 -3.4789 -1.4850  1.5652
  247MOL0     H33336  10.066   4.977   1.991 -0.3872 -1.0144 -3.1003
  247MOL0     H33337  10.254   4.768   1.863  0.8035  2.1468  0.7905
  247MOL0     H33338  10.113   4.823   1.775 -0.6437  1.4221 -0.0477
  247MOL0     H33339  10.092   4.682   2.050 -3.0605  0.4432  0.1335
  247MOL0     H33340  10.112   4.599   1.891  1.0643 -0.2603  0.0277
  247MOL0     H33341   9.901   4.658   1.828 -2.2090  1.7275 -0.0099
  247MOL0     H33342   9.910   4.812   1.921  3.0602  0.6536  2.0477
  247MOL0     H33343   9.705   4.576   2.192  1.5914 -1.0469 -0.0987
  247MOL0     H33344   9.985   5.090   1.830 -0.3734  0.5279 -0.9521
  247MOL0     H33345   9.944   5.167   1.616 -2.2110 -0.1960  3.6465
  248MOL0     O33346   5.729   3.913  10.894 -0.1708  0.1218 -0.1015
  248MOL0     C33347   5.846   3.949  10.885 -0.2983 -0.5120 -0.9173
  248MOL0     O33348   5.955   3.885  10.944  0.3747  0.2219  1.0698
  248MOL0     C33349   5.927   3.767  10.997 -0.3932 -0.0744 -0.3463
  248MOL0     C33350   5.985   3.651  10.946  0.3885  0.7609  0.1180
  248MOL0     C33351   5.959   3.523  11.021  0.2152 -0.6947  0.4996
  248MOL0     C33352   5.883   3.528  11.135  0.5561 -0.3575 -0.5031
  248MOL0     O33353   5.853   3.411  11.197 -0.1211  0.0438  0.3565
  248MOL0     C33354   5.880   3.409  11.342 -0.1739  0.4337 -0.1745
  248MOL0     C33355   5.755   3.389  11.425  0.0621  0.3633  0.2500
  248MOL0     C33356   5.646   3.504  11.432  0.1401  0.3996  0.4535
  248MOL0     C33357   5.520   3.454  11.511 -0.5874  0.0622 -0.3323
  248MOL0     C33358   5.406   3.550  11.495 -0.2078  1.0231 -0.0936
  248MOL0     C33359   5.297   3.496  11.569 -0.1146 -0.1800 -0.9698
  248MOL0     C33360   5.157   3.540  11.531  0.1053  0.0461  0.0990
  248MOL0     C33361   5.141   3.671  11.452  0.1585  0.3540  0.1674
  248MOL0     N33362   4.999   3.721  11.445 -0.0252  0.4965 -0.0356
  248MOL0     C33363   4.896   3.649  11.373 -0.5094 -0.2908  0.0390
  248MOL0     C33364   4.784   3.711  11.391  0.9346 -1.0242 -0.3044
  248MOL0     C33365   4.646   3.665  11.339 -1.2270 -0.3895  0.1982
  248MOL0     C33366   4.603   3.534  11.410  1.0741 -0.6711 -0.1330
  248MOL0     C33367   4.494   3.457  11.336  0.6799 -0.3575  0.1830
  248MOL0     C33368   4.398   3.539  11.262  0.5345 -0.2237  0.1192
  248MOL0     O33369   4.332   3.631  11.349  0.3685  0.5541  0.4208
  248MOL0     C33370   4.202   3.662  11.313  1.2331 -0.4933  0.0574
  248MOL0     C33371   4.166   3.702  11.189 -0.2086 -0.2829 -0.0775
  248MOL0     C33372   4.035   3.743  11.161  0.4642 -0.1608  0.3794
  248MOL0     C33373   4.005   3.787  11.021  0.1610 -0.0716 -0.2994
  248MOL0     C33374   3.928   3.727  11.253  0.2381  0.4866  0.2528
  248MOL0     C33375   3.784   3.765  11.235  0.1745 -0.3695  0.3234
  248MOL0     O33376   3.718   3.718  11.122 -0.4132 -0.5716 -0.1589
  248MOL0     C33377   3.582   3.721  11.111 -1.0601 -0.3779 -0.2229
  248MOL0     C33378   3.491   3.696  11.208  0.2511 -1.2850  0.3101
  248MOL0     C33379   3.351   3.694  11.174  0.6959  0.6985  0.4743
  248MOL0     C33380   3.304   3.712  11.039 -0.7651 -0.1483 -0.9329
  248MOL0     O33381   3.169   3.691  11.015 -0.6118  0.2517  0.5732
  248MOL0     C33382   3.119   3.695  10.883 -0.2877 -0.5743 -0.9338
  248MOL0     C33383   2.968   3.692  10.889  0.0420  0.1171  0.1780
  248MOL0     C33384   2.905   3.819  10.968  0.5643  0.7637 -0.1375
  248MOL0     C33385   2.751   3.809  10.956  0.6701  0.3788 -0.1939
  248MOL0     C33386   2.688   3.943  10.995  0.1398  0.5210 -0.2636
  248MOL0     C33387   2.545   3.959  10.964  0.4368  0.3458 -0.6585
  248MOL0     C33388   2.476   4.033  11.071 -0.0288 -0.4433  0.1899
  248MOL0     C33389   2.330   4.038  11.032  0.1982 -0.3842  0.2151
  248MOL0    Cl33390   2.241   4.063  11.180 -0.0050 -0.3269 -0.3074
  248MOL0     C33391   3.408   3.746  10.947  0.1144  0.1904  0.5387
  248MOL0     C33392   3.539   3.756  10.991 -1.1828 -0.3577 -0.0817
  248MOL0     O33393   3.736   3.821  11.331 -0.2781 -0.3941 -0.3029
  248MOL0     C33394   3.964   3.690  11.382 -0.9080 -0.0095  1.4525
  248MOL0     C33395   4.099   3.651  11.415  0.9910  0.5760  0.5063
  248MOL0     N33396   4.821   3.819  11.479 -0.4702 -0.0817  0.1437
  248MOL0     N33397   4.950   3.823  11.498 -0.0653  0.5667 -0.3599
  248MOL0     C33398   5.818   3.653  11.175 -0.2886 -0.4561  0.4312
  248MOL0     C33399   5.843   3.773  11.110 -0.1284  0.4983  0.7347
  248MOL0     C33400   5.877   4.083  10.827 -0.3478  0.3894  1.0826
  248MOL0     C33401   5.780   4.183  10.814  0.6459  0.2029  0.4619
  248MOL0     C33402   5.814   4.314  10.753  0.3063 -0.4201 -0.2070
  248MOL0     C33403   5.941   4.338  10.707  0.7339 -0.6846 -0.3186
  248MOL0     O33404   5.967   4.469  10.669  0.1855  0.1474  1.1763
  248MOL0     C33405   6.096   4.496  10.609 -0.0013  0.0102  0.4018
  248MOL0     C33406   6.105   4.650  10.588 -0.4074  0.4380  0.2314
  248MOL0     C33407   6.244   4.691  10.552  0.2271  0.0629 -1.1416
  248MOL0     C33408   6.252   4.833  10.499 -0.6073 -0.3635 -0.1308
  248MOL0     C33409   6.397   4.868  10.493  0.5085  0.2191 -0.2089
  248MOL0     C33410   6.518   4.890  10.479  0.1857 -0.6148 -0.4927
  248MOL0     C33411   6.038   4.232  10.708 -0.1899 -0.5503  0.1498
  248MOL0     C33412   6.006   4.109  10.768 -0.2469 -0.5362 -0.6754
  248MOL0     H33413   6.052   3.647  10.861 -1.7252 -0.7205 -1.5980
  248MOL0     H33414   5.985   3.423  10.986 -1.8297 -1.0642 -0.0874
  248MOL0     H33415   5.948   3.325  11.357 -2.5285 -1.1585  2.6491
  248MOL0     H33416   5.940   3.495  11.373  0.2174 -0.4944  1.7477
  248MOL0     H33417   5.701   3.304  11.384 -0.8140  1.9205 -2.0703
  248MOL0     H33418   5.797   3.354  11.520  0.7232 -0.6234 -0.3887
  248MOL0     H33419   5.684   3.597  11.476 -3.8986  1.9533  1.0414
  248MOL0     H33420   5.612   3.532  11.332 -2.5472 -5.0309 -0.4946
  248MOL0     H33421   5.503   3.349  11.489  0.3014 -0.2147  0.2472
  248MOL0     H33422   5.550   3.465  11.616  0.7594  4.9817 -0.9357
  248MOL0     H33423   5.440   3.648  11.529  2.2138  1.0656 -2.3325
  248MOL0     H33424   5.382   3.567  11.389  1.9418  2.4552 -0.4090
  248MOL0     H33425   5.293   3.387  11.567  0.5947 -0.2841  1.0368
  248MOL0     H33426   5.321   3.520  11.673 -1.4156  1.9621 -1.1156
  248MOL0     H33427   5.108   3.472  11.461 -0.9310 -0.2535  1.0826
  248MOL0     H33428   5.088   3.545  11.616 -1.1486 -0.4117 -0.8709
  248MOL0     H33429   5.181   3.660  11.351 -2.0313 -3.7614 -0.4503
  248MOL0     H33430   5.194   3.754  11.500  1.1953  1.8318 -3.2472
  248MOL0     H33431   4.912   3.568  11.302 -0.5468  1.2715 -1.8447
  248MOL0     H33432   4.585   3.752  11.366 -0.4526 -0.1960  1.4210
  248MOL0     H33433   4.650   3.653  11.231 -4.7384 -0.3987 -0.0280
  248MOL0     H33434   4.562   3.565  11.506 -1.5608  0.3574 -1.5101
  248MOL0     H33435   4.694   3.472  11.410  3.3575  2.2446 -3.4548
  248MOL0     H33436   4.442   3.392  11.406 -0.5359  2.6156  2.2732
  248MOL0     H33437   4.554   3.394  11.270  0.4773  0.3908 -0.7395
  248MOL0     H33438   4.326   3.468  11.222  0.7872 -0.3387 -0.1349
  248MOL0     H33439   4.430   3.595  11.173 -3.0642  2.3119  0.2163
  248MOL0     H33440   4.242   3.710  11.112  0.6736  1.4588  0.9354
  248MOL0     H33441   4.094   3.831  10.977  1.5155 -1.8543  0.5342
  248MOL0     H33442   3.969   3.700  10.965  0.6987  0.4310 -1.4485
  248MOL0     H33443   3.920   3.857  11.017  1.4029  1.5573  0.6966
  248MOL0     H33444   3.503   3.661  11.311 -1.6608 -0.4443  0.8629
  248MOL0     H33445   3.291   3.665  11.259 -0.3416  1.1583 -0.0801
  248MOL0     H33446   3.149   3.789  10.834  0.4361 -0.7281 -0.7927
  248MOL0     H33447   3.160   3.617  10.818  0.3371 -0.7654 -0.3166
  248MOL0     H33448   2.940   3.687  10.783  1.8482 -5.3820 -0.3771
  248MOL0     H33449   2.941   3.598  10.939  0.4099  0.6773  1.4805
  248MOL0     H33450   2.938   3.907  10.913 -0.6647  1.4903  0.2287
  248MOL0     H33451   2.919   3.821  11.077 -1.3385 -0.5703  0.1732
  248MOL0     H33452   2.729   3.786  10.851  0.7420 -1.0826  0.0904
  248MOL0     H33453   2.718   3.720  11.010  0.3724  0.1455 -0.7476
  248MOL0     H33454   2.755   4.021  10.958  1.3584 -0.9506 -1.2866
  248MOL0     H33455   2.706   3.952  11.102  2.3853  0.0445 -0.5482
  248MOL0     H33456   2.528   4.006  10.867  1.9020 -0.3093 -1.2697
  248MOL0     H33457   2.500   3.860  10.975  0.7561  0.3505  1.0252
  248MOL0     H33458   2.536   4.124  11.082  4.5892 -3.0736 -0.4819
  248MOL0     H33459   2.471   3.981  11.167 -3.2627 -2.5655 -0.9715
  248MOL0     H33460   2.295   3.942  10.994  1.1821 -0.9185  0.6343
  248MOL0     H33461   2.306   4.127  10.972  0.4322 -0.7851 -0.4850
  248MOL0     H33462   3.387   3.760  10.841 -1.5895  0.3547  0.8695
  248MOL0     H33463   3.615   3.789  10.921 -2.4021  0.8738 -0.8865
  248MOL0     H33464   3.893   3.669  11.460 -1.1206  0.7848  1.4832
  248MOL0     H33465   4.117   3.610  11.514 -0.6373 -3.3880 -0.6073
  248MOL0     H33466   5.755   3.672  11.261  1.6054  4.1736  1.0823
  248MOL0     H33467   5.813   3.871  11.144  1.4166  0.4769  2.3395
  248MOL0     H33468   5.680   4.178  10.856  1.1408 -0.0658  1.6405
  248MOL0     H33469   5.745   4.397  10.762  0.0431 -0.7667  1.1451
  248MOL0     H33470   6.183   4.468  10.670  0.8027  3.1951  0.9065
  248MOL0     H33471   6.104   4.441  10.515 -1.0752 -4.1871  2.5151
  248MOL0     H33472   6.076   4.697  10.682  1.3433  1.8911  0.1045
  248MOL0     H33473   6.039   4.690  10.510  1.0204  0.8557 -0.8058
  248MOL0     H33474   6.303   4.628  10.484  2.5652 -0.0011  0.7633
  248MOL0     H33475   6.302   4.699  10.645 -1.7414  0.1502  0.1447
  248MOL0     H33476   6.200   4.902  10.566 -0.7313  0.0494 -0.6534
  248MOL0     H33477   6.205   4.826  10.400 -1.1504 -2.2633  0.2202
  248MOL0     H33478   6.624   4.904  10.471  0.6371 -2.2223  1.5921
  248MOL0     H33479   6.136   4.246  10.663 -1.0972 -1.6358 -2.3844
  248MOL0     H33480   6.076   4.026  10.766  2.2375  1.4683 -1.3584
  249MOL0     O33481   4.201   2.011   6.912  0.0411 -0.8376 -0.6001
  249MOL0     C33482   4.265   2.107   6.956  0.1527 -0.0758  0.4179
  249MOL0     O33483   4.223   2.243   6.958 -0.1217  0.6282  0.1866
  249MOL0     C33484   4.087   2.255   6.937  1.0008  0.0215 -0.0629
  249MOL0     C33485   4.007   2.280   7.050  0.5390  0.1186 -0.5993
  249MOL0     C33486   3.872   2.326   7.032 -0.0155  0.4245 -0.6728
  249MOL0     C33487   3.816   2.344   6.907  0.5476 -0.1056 -0.4104
  249MOL0     O33488   3.684   2.398   6.906 -0.4875 -0.8009  0.0238
  249MOL0     C33489   3.652   2.484   6.791  0.3436 -0.3884 -0.4184
  249MOL0     C33490   3.552   2.589   6.836  1.0908 -0.2871 -0.1802
  249MOL0     C33491   3.495   2.680   6.721  0.8701 -0.0717  0.7408
  249MOL0     C33492   3.378   2.775   6.753  0.3466  0.9724  0.1924
  249MOL0     C33493   3.350   2.849   6.624 -0.0421 -0.5506  0.0258
  249MOL0     C33494   3.453   2.930   6.545 -0.7919 -1.2519 -0.2364
  249MOL0     C33495   3.381   3.005   6.435  0.0203 -0.3807  0.3497
  249MOL0     C33496   3.491   3.086   6.369  0.3052  0.5050 -0.0597
  249MOL0     N33497   3.435   3.140   6.247 -0.9434 -0.5710  0.0376
  249MOL0     C33498   3.359   3.251   6.235 -0.2824 -0.4597  0.7370
  249MOL0     C33499   3.343   3.267   6.103  0.6233 -0.3703 -0.1156
  249MOL0     C33500   3.269   3.383   6.057 -0.6797  0.6295 -0.3704
  249MOL0     C33501   3.146   3.347   5.982 -0.2814  0.4879  0.9591
  249MOL0     C33502   3.064   3.464   5.918 -0.6862  0.5892  0.6371
  249MOL0     C33503   2.923   3.414   5.894 -0.2431 -0.0145 -1.4223
  249MOL0     O33504   2.844   3.530   5.867  0.8757 -0.0064 -0.8619
  249MOL0     C33505   2.703   3.506   5.838 -0.7835  0.1982 -0.2093
  249MOL0     C33506   2.618   3.611   5.872  0.5906  0.4836  0.3872
  249MOL0     C33507   2.477   3.591   5.874 -1.0010 -0.0045  0.4237
  249MOL0     C33508   2.385   3.709   5.911 -0.2806 -0.2876 -0.4038
  249MOL0     C33509   2.421   3.461   5.849  0.3138 -0.5469  0.9008
  249MOL0     C33510   2.275   3.434   5.844  0.0322  0.2871 -0.4140
  249MOL0     O33511   2.185   3.535   5.820  0.7122 -0.1197  0.5737
  249MOL0     C33512   2.054   3.510   5.809  0.3010 -0.0749 -0.1761
  249MOL0     C33513   1.987   3.411   5.882 -0.1664  0.6296 -0.7659
  249MOL0     C33514   1.864   3.360   5.834 -0.4220  0.9564  0.2331
  249MOL0     C33515   1.806   3.410   5.718 -0.6856  0.1469  0.7282
  249MOL0     O33516   1.705   3.333   5.659  0.3372  0.0891  0.5099
  249MOL0     C33517   1.648   3.389   5.543  0.8168 -0.2621 -0.1105
  249MOL0     C33518   1.499   3.337   5.550 -0.8477 -1.0502 -0.2302
  249MOL0     C33519   1.508   3.185   5.536  0.6882  0.3018  0.1659
  249MOL0     C33520   1.364   3.122   5.509  0.5876 -0.2820  0.0390
  249MOL0     C33521   1.358   2.971   5.472 -0.8586 -0.9866 -0.0383
  249MOL0     C33522   1.222   2.910   5.454  0.2985 -0.0674  0.1274
  249MOL0     C33523   1.209   2.760   5.461  0.0123  0.9415  0.2083
  249MOL0     C33524   1.076   2.715   5.400 -0.3936 -0.5521 -0.1521
  249MOL0    Cl33525   1.101   2.729   5.224 -0.0756  0.0841 -0.3480
  249MOL0     C33526   1.872   3.523   5.669  0.1231  0.4299  0.4230
  249MOL0     C33527   1.992   3.573   5.711  0.4431 -0.5302 -0.4050
  249MOL0     O33528   2.247   3.316   5.861 -0.1434 -0.1151  0.0577
  249MOL0     C33529   2.510   3.356   5.815 -0.1633  0.2359  0.3489
  249MOL0     C33530   2.646   3.380   5.823  0.3913  0.3379 -1.0180
  249MOL0     N33531   3.396   3.156   6.033  0.2064 -0.0179 -0.3016
  249MOL0     N33532   3.450   3.083   6.125  0.0629  0.8944 -0.0963
  249MOL0     C33533   3.890   2.315   6.789  0.3312  0.1148 -0.5383
  249MOL0     C33534   4.022   2.279   6.811 -0.5559  0.8601  0.4089
  249MOL0     C33535   4.400   2.080   6.998 -0.4437 -0.1399 -0.5225
  249MOL0     C33536   4.449   2.148   7.113  0.1180  0.9095 -0.6084
  249MOL0     C33537   4.582   2.122   7.158  0.9856  0.7829 -0.0093
  249MOL0     C33538   4.660   2.022   7.098 -0.5108  0.0187 -0.7228
  249MOL0     O33539   4.790   2.008   7.151  0.5402  0.1664  0.3266
  249MOL0     C33540   4.885   1.919   7.091 -0.3225  0.6354  0.5222
  249MOL0     C33541   4.946   1.827   7.197  0.9175  0.4905 -0.0272
  249MOL0     C33542   5.032   1.914   7.294 -0.3160 -0.3504 -0.2396
  249MOL0     C33543   5.094   1.821   7.407 -0.3095 -0.0889  0.4636
  249MOL0     C33544   5.187   1.726   7.356 -0.2769 -0.4238 -0.3536
  249MOL0     C33545   5.251   1.641   7.313  0.3854 -0.2558 -0.4598
  249MOL0     C33546   4.614   1.963   6.974 -0.6276 -0.0690 -0.8545
  249MOL0     C33547   4.485   1.993   6.934  0.2093  0.5617  1.1009
  249MOL0     H33548   4.046   2.276   7.151 -2.8411  1.4416  0.8695
  249MOL0     H33549   3.819   2.369   7.117  0.1979  0.3683 -0.5107
  249MOL0     H33550   3.734   2.537   6.742  0.4623 -0.6713 -0.5261
  249MOL0     H33551   3.597   2.420   6.722 -3.5202  1.5719  0.5391
  249MOL0     H33552   3.466   2.540   6.882  0.7775 -2.1774 -2.5641
  249MOL0     H33553   3.595   2.669   6.898  0.0136  0.3573 -0.2379
  249MOL0     H33554   3.582   2.741   6.693  0.0812  0.3112 -1.0286
  249MOL0     H33555   3.477   2.621   6.630  3.0475  2.2576 -1.3534
  249MOL0     H33556   3.294   2.713   6.787  1.3863 -1.6489 -1.6252
  249MOL0     H33557   3.412   2.838   6.835  1.8026  2.0890 -1.1988
  249MOL0     H33558   3.308   2.781   6.550 -3.1693  2.5975 -1.4062
  249MOL0     H33559   3.264   2.916   6.632  1.3374  1.4193 -0.8892
  249MOL0     H33560   3.497   3.002   6.614  1.1991 -1.5725 -1.0846
  249MOL0     H33561   3.537   2.874   6.503  0.5837 -0.0911  0.8856
  249MOL0     H33562   3.322   2.935   6.376  1.1374 -2.3551  1.4642
  249MOL0     H33563   3.309   3.081   6.468  2.1291  1.0933  1.8696
  249MOL0     H33564   3.574   3.017   6.351 -0.7791 -1.0656  0.7394
  249MOL0     H33565   3.533   3.155   6.443 -0.1329  0.4406  0.2510
  249MOL0     H33566   3.336   3.324   6.312  0.6169  2.4287 -1.5201
  249MOL0     H33567   3.263   3.455   6.139 -1.1115  1.1409 -0.8477
  249MOL0     H33568   3.336   3.440   5.992 -0.8473  0.4953 -0.6618
  249MOL0     H33569   3.091   3.291   6.059  1.8903 -1.0646  1.4864
  249MOL0     H33570   3.156   3.263   5.913 -0.4266  1.9568 -0.9281
  249MOL0     H33571   3.106   3.495   5.822 -1.2628  0.2689  0.2787
  249MOL0     H33572   3.064   3.554   5.980  0.1626  2.6217 -2.1266
  249MOL0     H33573   2.884   3.364   5.983  2.4240 -1.2626 -0.8269
  249MOL0     H33574   2.918   3.337   5.816  0.5804  0.2242 -1.7230
  249MOL0     H33575   2.661   3.705   5.904 -0.4530  0.7165  1.1240
  249MOL0     H33576   2.311   3.736   5.835  0.0753  1.5289 -0.1502
  249MOL0     H33577   2.330   3.675   5.999 -1.2445  0.2249 -0.8063
  249MOL0     H33578   2.452   3.787   5.947 -1.7306  0.2712  1.1863
  249MOL0     H33579   2.032   3.365   5.970 -1.0525 -2.2144 -1.6766
  249MOL0     H33580   1.823   3.268   5.876  1.7618 -0.4296 -0.4814
  249MOL0     H33581   1.648   3.498   5.537 -0.1597  0.0780  3.5798
  249MOL0     H33582   1.693   3.341   5.456 -0.5310  0.5703 -1.3255
  249MOL0     H33583   1.452   3.367   5.643  0.0947  4.5059 -1.1808
  249MOL0     H33584   1.448   3.381   5.464 -0.1118 -0.7599 -0.5354
  249MOL0     H33585   1.537   3.118   5.618  0.4808  0.5181  0.4187
  249MOL0     H33586   1.583   3.167   5.458  0.5921 -0.8545  0.3355
  249MOL0     H33587   1.306   3.141   5.599  0.2542  0.4520 -0.3224
  249MOL0     H33588   1.322   3.169   5.420  0.0754 -0.9820 -0.1028
  249MOL0     H33589   1.401   2.919   5.559  3.3750  1.5687 -0.3312
  249MOL0     H33590   1.434   2.956   5.395 -1.1416 -0.6613 -0.3798
  249MOL0     H33591   1.157   2.953   5.532 -1.1305 -0.3818 -0.8363
  249MOL0     H33592   1.185   2.942   5.355  0.7082  1.0667  0.3198
  249MOL0     H33593   1.221   2.722   5.563 -1.4744  1.1416  0.4756
  249MOL0     H33594   1.290   2.714   5.404  1.6351  0.5967  2.6327
  249MOL0     H33595   0.995   2.771   5.448  0.9100  1.6355 -0.3515
  249MOL0     H33596   1.047   2.611   5.416 -0.4210 -0.8062 -1.6844
  249MOL0     H33597   1.836   3.577   5.582  1.4448  1.2474  0.3622
  249MOL0     H33598   2.054   3.632   5.644 -0.4577 -0.3072 -1.0684
  249MOL0     H33599   2.463   3.259   5.818 -1.8573  1.0064  0.1220
  249MOL0     H33600   2.713   3.295   5.818 -1.9343 -1.6206 -0.9357
  249MOL0     H33601   3.848   2.329   6.690 -2.4352  1.8385  0.7839
  249MOL0     H33602   4.101   2.274   6.737 -0.3719 -0.6278  0.6722
  249MOL0     H33603   4.397   2.224   7.170  0.0158 -1.2977  2.4523
  249MOL0     H33604   4.613   2.171   7.250  0.2313  0.2764  0.5202
  249MOL0     H33605   4.858   1.858   7.004  0.9867  1.6587 -0.6448
  249MOL0     H33606   4.965   1.978   7.046 -3.1384  4.3430 -0.1035
  249MOL0     H33607   5.015   1.754   7.154  2.2410  1.5039  0.3143
  249MOL0     H33608   4.864   1.771   7.242  2.5252 -0.8154  1.4231
  249MOL0     H33609   4.971   1.992   7.341  0.5427  0.0364  0.2527
  249MOL0     H33610   5.108   1.969   7.238 -1.9618  0.7297 -1.5504
  249MOL0     H33611   5.007   1.776   7.456 -0.4977 -2.6373 -1.9092
  249MOL0     H33612   5.132   1.881   7.490 -0.8974 -0.3080  0.8971
  249MOL0     H33613   5.324   1.566   7.291  1.0334 -0.5317  2.2774
  249MOL0     H33614   4.672   1.893   6.914 -1.5605 -0.2332 -1.5738
  249MOL0     H33615   4.441   1.936   6.853 -0.9848  1.1305  1.3260
  250MOL0     O33616   0.654   8.954  10.208  0.0940 -0.1781 -0.2926
  250MOL0     C33617   0.603   8.881  10.292 -0.3366  0.0934 -1.1673
  250MOL0     O33618   0.668   8.779  10.355 -0.2356 -0.1150 -0.0796
  250MOL0     C33619   0.798   8.769  10.328 -0.0266  1.0531  0.3612
  250MOL0     C33620   0.894   8.804  10.421 -0.5729  0.4223  0.5061
  250MOL0     C33621   1.023   8.759  10.408 -0.0843 -0.2447  0.7301
  250MOL0     C33622   1.063   8.697  10.287  0.2623  0.3350  0.4325
  250MOL0     O33623   1.186   8.649  10.251  0.8718  0.2923  0.2511
  250MOL0     C33624   1.288   8.665  10.354  0.3741  0.8327  0.7445
  250MOL0     C33625   1.403   8.567  10.324  0.2226  0.1075 -0.0593
  250MOL0     C33626   1.511   8.606  10.434 -0.4510  0.6771 -0.2131
  250MOL0     C33627   1.634   8.515  10.406  0.3611  0.3864 -0.9501
  250MOL0     C33628   1.738   8.540  10.509  0.0260  0.4729 -0.0373
  250MOL0     C33629   1.884   8.524  10.457  0.1627  0.2221  0.6278
  250MOL0     C33630   1.990   8.586  10.550  0.2968 -0.6338 -0.4018
  250MOL0     C33631   2.009   8.509  10.674 -0.2482  0.6099  0.3026
  250MOL0     N33632   2.150   8.456  10.694  0.6158 -1.0446  0.5219
  250MOL0     C33633   2.261   8.530  10.701 -0.1665 -0.3692  0.2219
  250MOL0     C33634   2.361   8.444  10.702 -0.6719  0.1114 -0.1909
  250MOL0     C33635   2.504   8.472  10.718  0.1576  0.3732  0.4889
  250MOL0     C33636   2.592   8.448  10.589  0.0172 -0.9191  0.3394
  250MOL0     C33637   2.739   8.500  10.596  0.3507 -0.3711  0.8548
  250MOL0     C33638   2.832   8.399  10.660 -0.3557 -0.1069 -1.0535
  250MOL0     O33639   2.970   8.445  10.647 -0.5039 -0.1836  0.0327
  250MOL0     C33640   3.071   8.360  10.705 -0.3908  0.7957 -0.9494
  250MOL0     C33641   3.054   8.232  10.764 -0.2581 -0.4853  1.0660
  250MOL0     C33642   3.158   8.178  10.839  0.3913  0.1278  0.0821
  250MOL0     C33643   3.121   8.043  10.897 -1.0905  0.7911 -0.6196
  250MOL0     C33644   3.281   8.247  10.849 -0.9360 -0.6970 -0.8935
  250MOL0     C33645   3.392   8.189  10.932 -0.5574  0.6223  0.3102
  250MOL0     O33646   3.508   8.146  10.866 -0.4348  0.3558 -0.1117
  250MOL0     C33647   3.618   8.159  10.945 -0.4571  0.0712 -0.5158
  250MOL0     C33648   3.684   8.038  10.986 -0.6486 -0.2175  0.6519
  250MOL0     C33649   3.807   8.049  11.045  0.8346 -0.0714 -0.5817
  250MOL0     C33650   3.869   8.172  11.071 -0.4147 -0.2427  0.6652
  250MOL0     O33651   3.990   8.184  11.130 -0.5410 -0.8038 -0.0746
  250MOL0     C33652   4.063   8.075  11.191 -0.3552  0.1380  0.3219
  250MOL0     C33653   4.187   8.122  11.265 -0.2429 -0.2590 -0.8171
  250MOL0     C33654   4.306   8.026  11.242 -0.9430 -0.5690 -1.4262
  250MOL0     C33655   4.434   8.061  11.323 -0.7871 -0.5049  0.0932
  250MOL0     C33656   4.562   7.984  11.296 -0.8327 -0.2973 -0.3481
  250MOL0     C33657   4.684   8.042  11.379 -0.4420  0.3368 -0.4271
  250MOL0     C33658   4.817   7.987  11.334 -0.4105  0.0705 -0.5783
  250MOL0     C33659   4.871   8.035  11.201  0.1097  0.7464  0.2728
  250MOL0    Cl33660   4.950   8.194  11.175  0.5567 -0.4040  0.4198
  250MOL0     C33661   3.805   8.285  11.025 -0.3533 -0.1793  0.6188
  250MOL0     C33662   3.680   8.287  10.964 -1.4262  0.6461 -0.1988
  250MOL0     O33663   3.372   8.163  11.049 -0.5583 -0.3127 -0.2093
  250MOL0     C33664   3.304   8.373  10.781 -0.1519 -1.1790  0.9470
  250MOL0     C33665   3.191   8.432  10.719 -0.2101 -0.0627  0.2288
  250MOL0     N33666   2.306   8.321  10.697  0.0932  0.4034  0.4322
  250MOL0     N33667   2.177   8.325  10.695  0.0886 -0.7202  0.2710
  250MOL0     C33668   0.964   8.659  10.188 -0.5337  0.5498 -0.9902
  250MOL0     C33669   0.832   8.694  10.213 -0.0352 -0.0614  1.1762
  250MOL0     C33670   0.463   8.911  10.318  0.7706 -0.0930  0.4522
  250MOL0     C33671   0.401   9.032  10.283  0.4075 -0.2465  0.2181
  250MOL0     C33672   0.264   9.044  10.323 -0.1351 -0.5461  0.9008
  250MOL0     C33673   0.188   8.940  10.373 -0.8251 -0.8616 -0.1629
  250MOL0     O33674   0.058   8.981  10.404 -0.3759  0.1269  0.1792
  250MOL0     C33675  -0.043   8.878  10.416  0.5667  0.1718 -0.1120
  250MOL0     C33676  -0.180   8.937  10.442 -0.1100 -0.5133  0.1674
  250MOL0     C33677  -0.273   8.828  10.506  0.3013 -1.4963 -0.2498
  250MOL0     C33678  -0.427   8.880  10.515 -0.1966  1.0593 -0.9108
  250MOL0     C33679  -0.474   8.911  10.379  0.0609 -0.4438 -0.2099
  250MOL0     C33680  -0.504   8.959  10.274 -0.5354 -0.2782  0.8669
  250MOL0     C33681   0.251   8.826  10.407  1.2841  0.0195  0.7342
  250MOL0     C33682   0.388   8.813  10.381  0.1027  0.8722 -1.0550
  250MOL0     H33683   0.860   8.841  10.517 -1.1735 -0.8202  0.7956
  250MOL0     H33684   1.089   8.795  10.487  0.1937  1.2780 -0.1597
  250MOL0     H33685   1.331   8.765  10.347  0.5799  0.6350 -1.7390
  250MOL0     H33686   1.251   8.635  10.452 -1.8833  0.2846 -0.1982
  250MOL0     H33687   1.375   8.462  10.334 -3.2965  0.8314 -0.8233
  250MOL0     H33688   1.435   8.575  10.220  1.6421 -0.6673  0.2944
  250MOL0     H33689   1.525   8.714  10.436  1.4183  0.5867 -2.8813
  250MOL0     H33690   1.477   8.578  10.534 -1.4538  0.7095 -0.5323
  250MOL0     H33691   1.603   8.411  10.415 -1.2764  0.9959  2.3159
  250MOL0     H33692   1.661   8.540  10.303 -0.8563  0.9720 -1.1439
  250MOL0     H33693   1.725   8.645  10.538 -2.2161  0.1046  0.4584
  250MOL0     H33694   1.720   8.474  10.593 -0.1527 -0.3578 -0.7141
  250MOL0     H33695   1.908   8.419  10.440 -1.1849 -0.1680  1.0146
  250MOL0     H33696   1.895   8.575  10.360  2.4003 -1.2245  0.0406
  250MOL0     H33697   2.083   8.604  10.496  3.1497 -1.2238  3.8339
  250MOL0     H33698   1.939   8.678  10.579 -2.2017 -1.7751 -0.9526
  250MOL0     H33699   1.941   8.423  10.676  1.5341 -0.8557 -0.0072
  250MOL0     H33700   1.991   8.578  10.758  2.7578 -2.0213  3.3771
  250MOL0     H33701   2.282   8.637  10.702  1.9479 -0.7415  0.0108
  250MOL0     H33702   2.500   8.577  10.750  0.0234  0.7137 -0.5909
  250MOL0     H33703   2.545   8.407  10.795 -0.1890 -2.5818 -1.6395
  250MOL0     H33704   2.552   8.508  10.506  2.7246 -0.7792 -0.9558
  250MOL0     H33705   2.583   8.342  10.564 -4.5069 -1.1296  1.8228
  250MOL0     H33706   2.742   8.597  10.647 -0.5728  0.7892 -1.1780
  250MOL0     H33707   2.787   8.521  10.500  0.9386 -1.4026  0.8971
  250MOL0     H33708   2.822   8.301  10.613  4.4471 -1.5581  0.3437
  250MOL0     H33709   2.819   8.383  10.768  1.5700 -2.5105 -1.1010
  250MOL0     H33710   2.961   8.177  10.756  0.4898 -1.9260  1.8302
  250MOL0     H33711   3.050   7.998  10.827 -0.5128  1.5750 -1.7494
  250MOL0     H33712   3.211   7.980  10.902 -0.9882  1.0635  1.8254
  250MOL0     H33713   3.097   8.055  11.003  1.2758  2.0705 -0.1409
  250MOL0     H33714   3.635   7.946  10.953  0.1902 -0.1272 -0.9582
  250MOL0     H33715   3.857   7.957  11.074 -3.2326 -1.5632  2.7156
  250MOL0     H33716   4.017   8.006  11.263  1.9156 -0.3937  1.3432
  250MOL0     H33717   4.093   8.014  11.106 -1.0785  1.4088 -0.8907
  250MOL0     H33718   4.218   8.223  11.237 -0.0325 -0.8179 -2.7130
  250MOL0     H33719   4.161   8.124  11.371 -1.2208  0.7248 -1.0610
  250MOL0     H33720   4.348   8.025  11.141  2.5151  0.8784 -0.1781
  250MOL0     H33721   4.293   7.923  11.277  3.9948 -0.4503  1.7609
  250MOL0     H33722   4.457   8.160  11.284 -1.7643  0.3548  1.5753
  250MOL0     H33723   4.420   8.051  11.431 -0.7173  2.5181  0.4618
  250MOL0     H33724   4.586   7.979  11.189  1.7081  1.1671  0.0630
  250MOL0     H33725   4.546   7.881  11.326  3.5761 -0.9795  0.3153
  250MOL0     H33726   4.678   8.148  11.353 -1.6662  0.9905  2.2565
  250MOL0     H33727   4.669   8.023  11.485  1.6445 -1.0618 -0.3142
  250MOL0     H33728   4.819   7.878  11.342  2.4445  0.1409  0.7652
  250MOL0     H33729   4.888   8.024  11.408  0.8776  0.1035 -1.7945
  250MOL0     H33730   4.786   8.023  11.134  1.2536 -0.4273 -1.0084
  250MOL0     H33731   4.948   7.963  11.172  3.5456  5.1301 -2.8176
  250MOL0     H33732   3.852   8.381  11.042 -3.4973  1.6791 -0.3588
  250MOL0     H33733   3.637   8.381  10.930 -2.4741 -0.4608 -2.1035
  250MOL0     H33734   3.395   8.433  10.785 -0.7273 -0.2393  0.2297
  250MOL0     H33735   3.211   8.525  10.668 -0.3282 -1.8694 -3.4177
  250MOL0     H33736   0.978   8.609  10.093 -0.7679 -1.6458  0.0648
  250MOL0     H33737   0.763   8.688  10.129  0.8908 -1.6578  0.4881
  250MOL0     H33738   0.461   9.104  10.229 -0.7699  0.2659 -0.4509
  250MOL0     H33739   0.210   9.131  10.288  1.2433 -0.6919 -1.8371
  250MOL0     H33740  -0.045   8.807  10.333  3.2811 -0.9053  0.6633
  250MOL0     H33741  -0.019   8.816  10.502  0.6351 -0.6332 -0.6995
  250MOL0     H33742  -0.222   8.968  10.346 -1.6599 -4.7835 -0.7834
  250MOL0     H33743  -0.177   9.017  10.516  0.8560 -0.0158 -0.4006
  250MOL0     H33744  -0.238   8.808  10.607  2.2122 -0.9775 -0.7701
  250MOL0     H33745  -0.255   8.739  10.445  0.2293 -0.3260 -2.0678
  250MOL0     H33746  -0.430   8.979  10.561  1.1972  0.4393  0.6172
  250MOL0     H33747  -0.498   8.811  10.561  1.0711  2.3797  3.5700
  250MOL0     H33748  -0.531   8.997  10.177  4.4247 -0.7214 -0.9754
  250MOL0     H33749   0.212   8.746  10.469  2.0237 -0.7522  0.2289
  250MOL0     H33750   0.433   8.719  10.411  1.7537  1.4104 -1.7345
  251MOL0     O33751   7.395   1.368   7.263 -0.3445  0.1294  0.0931
  251MOL0     C33752   7.460   1.279   7.204 -0.3591  0.1408  0.5408
  251MOL0     O33753   7.413   1.200   7.098 -0.5374 -0.1405  0.1197
  251MOL0     C33754   7.275   1.184   7.081  0.4417  0.1375 -0.4091
  251MOL0     C33755   7.194   1.159   7.188 -0.0065  0.3276 -0.2773
  251MOL0     C33756   7.055   1.138   7.166 -0.3198 -0.3410 -0.3783
  251MOL0     C33757   7.009   1.123   7.041  1.4496  0.4863  1.2265
  251MOL0     O33758   6.874   1.105   7.004 -0.3296 -0.1812  0.3082
  251MOL0     C33759   6.772   1.155   7.098  0.4146 -0.0761  0.0506
  251MOL0     C33760   6.638   1.101   7.031 -0.1463 -0.6651 -0.3266
  251MOL0     C33761   6.529   1.129   7.132  0.2986 -0.3687 -1.5323
  251MOL0     C33762   6.399   1.093   7.068  1.0099  0.6136 -0.3068
  251MOL0     C33763   6.276   1.114   7.150  0.3515 -0.6184  0.1864
  251MOL0     C33764   6.233   1.239   7.221  0.4318  0.1963 -1.3169
  251MOL0     C33765   6.097   1.216   7.292  0.6800 -0.0454 -0.4795
  251MOL0     C33766   5.984   1.180   7.208 -0.6324 -0.6442  1.3827
  251MOL0     N33767   5.862   1.184   7.293  0.1457  0.5338  0.2114
  251MOL0     C33768   5.736   1.232   7.261  0.2583  0.3696  0.0248
  251MOL0     C33769   5.652   1.205   7.363  0.1946 -0.1135  0.0285
  251MOL0     C33770   5.504   1.253   7.368 -0.1513  0.3400  0.5050
  251MOL0     C33771   5.413   1.158   7.435 -0.9391  0.0028 -0.4911
  251MOL0     C33772   5.386   1.028   7.358 -0.5095 -0.0949  0.1221
  251MOL0     C33773   5.297   0.939   7.453 -0.0114  0.7333 -0.0229
  251MOL0     O33774   5.158   0.982   7.454 -0.1207  0.1974 -0.3537
  251MOL0     C33775   5.073   0.920   7.541  1.3028 -0.6985 -0.3889
  251MOL0     C33776   5.099   0.839   7.648  0.4179 -0.0647  0.5673
  251MOL0     C33777   5.002   0.792   7.733  0.6039  0.0491  0.0289
  251MOL0     C33778   5.040   0.712   7.849  0.0343 -0.8791 -0.7870
  251MOL0     C33779   4.868   0.826   7.718  0.7829 -0.9577  0.1445
  251MOL0     C33780   4.748   0.781   7.803 -0.2441 -0.1232 -0.0952
  251MOL0     O33781   4.625   0.802   7.752 -0.2169 -0.2092  0.4255
  251MOL0     C33782   4.529   0.799   7.835 -0.3221 -0.0393  0.3530
  251MOL0     C33783   4.510   0.882   7.950 -0.8913  0.7947  0.4547
  251MOL0     C33784   4.406   0.870   8.033 -0.2879 -0.1651 -0.1570
  251MOL0     C33785   4.298   0.779   8.007  0.0167 -0.9188  0.7279
  251MOL0     O33786   4.193   0.766   8.080  0.1802  0.5377 -0.4453
  251MOL0     C33787   4.066   0.739   8.026 -0.6370  0.2400 -0.0551
  251MOL0     C33788   3.976   0.862   8.058 -0.2586  1.1422 -0.3323
  251MOL0     C33789   3.827   0.832   8.052 -0.1100  0.3043  0.9211
  251MOL0     C33790   3.793   0.798   7.909 -0.0079  0.4044 -0.3067
  251MOL0     C33791   3.642   0.807   7.897 -0.3335  0.6073 -0.5190
  251MOL0     C33792   3.598   0.945   7.858  1.0484  1.1870 -0.3009
  251MOL0     C33793   3.454   0.926   7.805  0.7432  0.4467  0.4818
  251MOL0     C33794   3.383   1.052   7.754  0.1356  0.6618 -1.0259
  251MOL0    Cl33795   3.383   1.173   7.885  0.1504  0.0713  0.0460
  251MOL0     C33796   4.307   0.707   7.886  0.0176 -0.0530  1.2229
  251MOL0     C33797   4.423   0.712   7.803 -0.5861  0.0304 -0.5734
  251MOL0     O33798   4.769   0.731   7.915  0.5694 -0.2275 -0.2055
  251MOL0     C33799   4.844   0.906   7.600  0.2681  0.5583  0.4307
  251MOL0     C33800   4.940   0.947   7.507  0.0822  0.6421 -0.1591
  251MOL0     N33801   5.729   1.135   7.455  0.7899 -0.0919 -0.3208
  251MOL0     N33802   5.847   1.118   7.409 -0.0638  0.0742 -0.4752
  251MOL0     C33803   7.092   1.154   6.936 -1.1383 -0.1521 -0.2087
  251MOL0     C33804   7.229   1.183   6.955  0.3857 -0.3498  0.1761
  251MOL0     C33805   7.607   1.283   7.222  0.2356 -0.8398  0.4154
  251MOL0     C33806   7.686   1.180   7.186 -0.7153  0.0806  0.0927
  251MOL0     C33807   7.820   1.174   7.218  0.6831 -0.2718  0.4333
  251MOL0     C33808   7.879   1.286   7.288 -0.1339  0.2357  0.1981
  251MOL0     O33809   8.012   1.273   7.320 -0.0172 -0.4079  0.2416
  251MOL0     C33810   8.068   1.373   7.396 -0.5451 -0.7788  0.3425
  251MOL0     C33811   8.208   1.325   7.430  0.6964 -0.2207  1.3095
  251MOL0     C33812   8.207   1.193   7.508  0.1509 -0.1755  0.5102
  251MOL0     C33813   8.347   1.157   7.556  0.8253  0.0160 -0.0663
  251MOL0     C33814   8.342   1.022   7.618 -0.2441 -0.7547 -0.0083
  251MOL0     C33815   8.361   0.911   7.662 -0.1020  0.6327 -0.5876
  251MOL0     C33816   7.800   1.396   7.323 -0.7602 -0.1459 -1.3541
  251MOL0     C33817   7.666   1.394   7.288  0.6496  0.7688 -0.5274
  251MOL0     H33818   7.242   1.147   7.285  1.7889 -0.4945 -1.2259
  251MOL0     H33819   6.996   1.128   7.256 -0.5738  0.6569 -0.4274
  251MOL0     H33820   6.778   1.103   7.195 -1.5447 -1.1429 -0.3299
  251MOL0     H33821   6.774   1.263   7.110  0.2720 -0.1954  1.3132
  251MOL0     H33822   6.616   1.153   6.937 -2.1178  1.1966  1.0553
  251MOL0     H33823   6.644   0.993   7.019  2.1064 -0.6653  0.4859
  251MOL0     H33824   6.536   1.075   7.227 -0.4889 -1.0219 -1.8328
  251MOL0     H33825   6.522   1.234   7.161 -2.4165 -1.0004  0.5147
  251MOL0     H33826   6.383   1.161   6.983 -0.1506  1.6542  0.7053
  251MOL0     H33827   6.391   0.989   7.035  0.2018  0.5359  0.1217
  251MOL0     H33828   6.201   1.097   7.073 -0.5497  2.2220  0.3576
  251MOL0     H33829   6.267   1.028   7.218  1.4472 -2.0922 -1.4278
  251MOL0     H33830   6.304   1.248   7.303 -1.7310 -1.5490  0.9064
  251MOL0     H33831   6.229   1.325   7.153 -1.0774  0.2321 -1.2187
  251MOL0     H33832   6.105   1.133   7.362 -0.0096 -0.4877 -0.9075
  251MOL0     H33833   6.071   1.294   7.365 -0.4652 -2.8253  2.3059
  251MOL0     H33834   5.997   1.087   7.153 -0.5972 -0.2560  0.7218
  251MOL0     H33835   5.980   1.258   7.132  0.0883 -1.1929  0.7677
  251MOL0     H33836   5.706   1.301   7.182 -3.3742 -0.0041  0.9060
  251MOL0     H33837   5.498   1.346   7.426 -3.1526 -0.1225  1.1374
  251MOL0     H33838   5.463   1.270   7.268  2.1764  0.9840 -0.3993
  251MOL0     H33839   5.316   1.207   7.448 -0.6040  0.9961 -1.4521
  251MOL0     H33840   5.445   1.133   7.536 -0.2533  0.1326 -0.6717
  251MOL0     H33841   5.473   0.965   7.336 -1.5180 -2.0975  1.4818
  251MOL0     H33842   5.337   1.058   7.266  0.7428  0.3957 -0.4099
  251MOL0     H33843   5.326   0.947   7.558 -3.4956 -1.0881  1.2421
  251MOL0     H33844   5.295   0.831   7.439  2.4489 -0.1234  4.3943
  251MOL0     H33845   5.203   0.815   7.663  1.9011  3.8886 -1.7966
  251MOL0     H33846   5.144   0.679   7.853 -0.2997 -2.2029  5.0236
  251MOL0     H33847   5.032   0.759   7.947  0.8899 -2.4250  0.0737
  251MOL0     H33848   4.989   0.615   7.846 -0.2692 -0.7345 -0.4472
  251MOL0     H33849   4.581   0.961   7.972 -2.9572  3.0866 -0.6654
  251MOL0     H33850   4.415   0.932   8.121  3.0761 -1.0563  0.2722
  251MOL0     H33851   4.065   0.723   7.917  0.0273 -1.4376  0.1593
  251MOL0     H33852   4.013   0.652   8.066 -2.6424  1.0063 -0.8937
  251MOL0     H33853   4.002   0.884   8.162  1.7720 -0.1137 -0.5125
  251MOL0     H33854   4.007   0.951   8.002  2.4812 -0.8030 -2.1658
  251MOL0     H33855   3.768   0.919   8.082 -2.1818  0.0230 -1.9110
  251MOL0     H33856   3.792   0.748   8.114 -3.6362 -0.4499 -1.7536
  251MOL0     H33857   3.844   0.860   7.834  0.6268 -2.4238 -2.3692
  251MOL0     H33858   3.822   0.696   7.883 -1.5745 -0.2150  0.2775
  251MOL0     H33859   3.596   0.772   7.990  0.7676 -1.9697 -0.8329
  251MOL0     H33860   3.607   0.738   7.820  2.5998 -0.1975 -1.2487
  251MOL0     H33861   3.593   1.007   7.948  1.9355 -2.0432  2.1414
  251MOL0     H33862   3.666   0.992   7.787  2.2111 -1.5174 -1.1051
  251MOL0     H33863   3.395   0.888   7.889  0.5342  3.0460  1.5898
  251MOL0     H33864   3.443   0.861   7.717 -0.8133  3.0763 -1.4005
  251MOL0     H33865   3.280   1.024   7.726  0.3486 -0.0678 -1.1035
  251MOL0     H33866   3.442   1.100   7.676 -1.1345  0.7532 -1.9573
  251MOL0     H33867   4.235   0.628   7.865 -1.3907  0.7638  2.7651
  251MOL0     H33868   4.446   0.648   7.718 -0.0991  0.2314 -0.5952
  251MOL0     H33869   4.739   0.913   7.574  0.9299  1.5783 -2.1988
  251MOL0     H33870   4.915   1.007   7.420  1.9407  0.4307 -0.8651
  251MOL0     H33871   7.058   1.156   6.833 -0.9225  0.9265 -0.2695
  251MOL0     H33872   7.304   1.202   6.879  1.7619 -0.1097  1.5332
  251MOL0     H33873   7.652   1.107   7.113  0.8732 -0.1054 -0.5126
  251MOL0     H33874   7.888   1.094   7.193 -1.1121 -1.8617  0.3480
  251MOL0     H33875   8.071   1.471   7.346  0.3347  0.2771  2.3347
  251MOL0     H33876   8.026   1.388   7.496  0.7495 -0.5977  0.8772
  251MOL0     H33877   8.261   1.405   7.483 -0.4224  1.0270  0.6000
  251MOL0     H33878   8.260   1.313   7.334 -2.7921  1.6068 -1.0006
  251MOL0     H33879   8.157   1.118   7.447 -1.8294  0.2836  1.4793
  251MOL0     H33880   8.145   1.219   7.595  3.1505  1.4698  2.3419
  251MOL0     H33881   8.401   1.230   7.616  1.7864 -0.4570 -0.3288
  251MOL0     H33882   8.405   1.143   7.464  0.0376 -0.2049 -0.5460
  251MOL0     H33883   8.372   0.815   7.708 -1.5243  0.6878 -0.0974
  251MOL0     H33884   7.850   1.484   7.362 -0.6113  0.1777 -2.2661
  251MOL0     H33885   7.597   1.474   7.315  0.2416  0.0816  0.5276
  252MOL0     O33886   2.955  10.429   3.387  0.4170  0.9874 -0.1285
  252MOL0     C33887   3.040  10.428   3.470 -0.7288  0.6855  0.5565
  252MOL0     O33888   3.064  10.532   3.553  0.4066  0.3266 -0.0578
  252MOL0     C33889   2.983  10.643   3.561 -0.6435  0.2534  0.3206
  252MOL0     C33890   2.965  10.701   3.684  0.2467  1.3565  0.2753
  252MOL0     C33891   2.909  10.827   3.693 -0.4478 -0.4194  0.7284
  252MOL0     C33892   2.875  10.903   3.578 -0.5676 -1.1658  0.1473
  252MOL0     O33893   2.832  11.038   3.584  0.0177  0.8510  0.2109
  252MOL0     C33894   2.793  11.103   3.706 -0.1994  0.5915  0.2054
  252MOL0     C33895   2.750  11.245   3.677  0.5209  0.4747 -0.2619
  252MOL0     C33896   2.733  11.333   3.804 -0.4832  0.0178 -0.0836
  252MOL0     C33897   2.603  11.301   3.876  0.2105  0.7535  0.5494
  252MOL0     C33898   2.487  11.401   3.851  0.0902 -0.3453  0.4477
  252MOL0     C33899   2.500  11.527   3.924 -0.1377 -0.1424  0.2772
  252MOL0     C33900   2.373  11.612   3.921 -0.8544 -0.6178  0.4222
  252MOL0     C33901   2.258  11.553   4.003  0.7144 -0.1051  0.1630
  252MOL0     N33902   2.297  11.486   4.133 -0.1471  1.0732  0.2221
  252MOL0     C33903   2.338  11.540   4.251  0.1988  0.0936  0.2744
  252MOL0     C33904   2.328  11.446   4.341 -0.6145 -0.1739 -0.5971
  252MOL0     C33905   2.362  11.471   4.485 -0.0537  0.9137 -0.8735
  252MOL0     C33906   2.419  11.341   4.542 -0.4093 -0.2223 -0.6156
  252MOL0     C33907   2.500  11.374   4.676 -0.6009 -0.0568 -0.9223
  252MOL0     C33908   2.567  11.253   4.724 -0.2830  0.3370 -0.4837
  252MOL0     O33909   2.648  11.184   4.628  0.7421  0.2723  0.1348
  252MOL0     C33910   2.767  11.231   4.594 -0.6690 -0.1060 -0.7335
  252MOL0     C33911   2.830  11.349   4.654  0.5841  0.9204 -0.1885
  252MOL0     C33912   2.957  11.399   4.613  0.3416  0.0283 -0.4786
  252MOL0     C33913   3.020  11.520   4.684  0.1414  0.3605  0.3022
  252MOL0     C33914   3.029  11.321   4.519  0.1928  0.5873 -0.4080
  252MOL0     C33915   3.172  11.344   4.477 -0.7376 -0.3710 -0.1293
  252MOL0     O33916   3.205  11.282   4.355  0.0671  0.7521  0.2994
  252MOL0     C33917   3.326  11.300   4.305 -0.8453 -0.2056  0.6237
  252MOL0     C33918   3.411  11.185   4.267  0.4416 -0.7034  0.2820
  252MOL0     C33919   3.542  11.204   4.221  0.1485  0.3605 -0.6501
  252MOL0     C33920   3.594  11.334   4.203  0.5156 -0.4115 -0.8172
  252MOL0     O33921   3.728  11.354   4.177  0.3113  0.5176 -0.3251
  252MOL0     C33922   3.790  11.247   4.095  0.1597 -0.6943 -0.4193
  252MOL0     C33923   3.909  11.299   4.014  0.1997  0.9270 -0.4989
  252MOL0     C33924   4.030  11.321   4.100  0.7531 -0.4249 -0.0585
  252MOL0     C33925   4.153  11.354   4.007 -0.3118  0.4362 -0.6349
  252MOL0     C33926   4.196  11.242   3.903 -1.0330  0.5196 -0.3690
  252MOL0     C33927   4.338  11.258   3.848  0.2909  0.2640  0.3781
  252MOL0     C33928   4.352  11.351   3.719 -0.1791  0.2269  0.0690
  252MOL0     C33929   4.491  11.336   3.653 -0.8138 -0.6720 -0.4452
  252MOL0    Cl33930   4.516  11.438   3.504 -0.4073  0.5057  0.1004
  252MOL0     C33931   3.512  11.436   4.251  0.3540  0.5498  0.1982
  252MOL0     C33932   3.382  11.425   4.295 -0.8386  0.0504 -0.3075
  252MOL0     O33933   3.245  11.412   4.541  0.3340  0.5878 -0.1968
  252MOL0     C33934   2.977  11.187   4.486  0.4857  1.1532 -0.4175
  252MOL0     C33935   2.846  11.149   4.517 -0.4937 -0.0192  0.3274
  252MOL0     N33936   2.278  11.334   4.288 -0.1558 -0.5740  0.4783
  252MOL0     N33937   2.261  11.357   4.157 -0.0630  0.0768 -0.2339
  252MOL0     C33938   2.908  10.845   3.459  0.4482 -0.2884  0.2046
  252MOL0     C33939   2.958  10.721   3.446  0.2495  0.4095 -0.7989
  252MOL0     C33940   3.119  10.306   3.488  0.5205  0.2221  1.1896
  252MOL0     C33941   3.213  10.284   3.588  0.5392 -0.5665 -0.5956
  252MOL0     C33942   3.283  10.170   3.606 -0.8611 -0.1981 -0.3543
  252MOL0     C33943   3.252  10.057   3.527  0.3731  0.0248  0.8485
  252MOL0     O33944   3.301   9.933   3.549  0.0887  0.0223  0.6493
  252MOL0     C33945   3.251   9.878   3.676  0.4464 -1.1324  0.1923
  252MOL0     C33946   3.327   9.748   3.706  0.1362 -0.7508 -0.3406
  252MOL0     C33947   3.478   9.774   3.724 -0.0902  0.4491  0.2895
  252MOL0     C33948   3.539   9.639   3.702 -0.0248  0.8722  0.1037
  252MOL0     C33949   3.688   9.642   3.707  0.5769  0.0622 -1.2052
  252MOL0     C33950   3.809   9.650   3.700  0.7377 -1.0155  0.6262
  252MOL0     C33951   3.159  10.074   3.419 -0.3333  0.3046  0.2432
  252MOL0     C33952   3.092  10.197   3.400  1.0837  0.4742  0.0895
  252MOL0     H33953   3.011  10.648   3.766  2.0084  2.0451 -0.2294
  252MOL0     H33954   2.884  10.878   3.786 -0.5357  0.9309 -0.0215
  252MOL0     H33955   2.717  11.047   3.761 -1.1285  0.6648 -0.9615
  252MOL0     H33956   2.882  11.104   3.770 -0.6861  0.2987  0.9053
  252MOL0     H33957   2.836  11.297   3.632  1.9093  1.7186  3.4549
  252MOL0     H33958   2.664  11.247   3.610 -0.1892  0.2556  0.6320
  252MOL0     H33959   2.828  11.318   3.856 -0.6878  0.0581  0.3070
  252MOL0     H33960   2.724  11.436   3.770 -0.5584  0.6791  1.8126
  252MOL0     H33961   2.566  11.205   3.838 -1.7031  0.6290  2.5386
  252MOL0     H33962   2.620  11.294   3.984  1.5386 -3.4203  0.2355
  252MOL0     H33963   2.492  11.420   3.744 -1.1112 -0.1692  0.4151
  252MOL0     H33964   2.392  11.351   3.870 -0.2817  0.5064  0.9013
  252MOL0     H33965   2.536  11.512   4.027 -0.8190  0.6509  0.6371
  252MOL0     H33966   2.575  11.579   3.865 -1.0848 -2.0994 -2.8722
  252MOL0     H33967   2.409  11.704   3.968 -2.3365 -0.2219  0.8262
  252MOL0     H33968   2.339  11.629   3.819 -0.7712 -0.7257  0.3765
  252MOL0     H33969   2.220  11.470   3.943 -3.5699 -0.2347  2.6796
  252MOL0     H33970   2.172  11.617   4.023  0.0257 -1.2296  0.9279
  252MOL0     H33971   2.372  11.643   4.243  1.0508 -0.3050 -3.8633
  252MOL0     H33972   2.440  11.547   4.479  0.7885  0.0408 -1.3913
  252MOL0     H33973   2.279  11.507   4.546  0.2023  1.2925 -0.7481
  252MOL0     H33974   2.485  11.304   4.463 -3.6609  0.1775 -3.7611
  252MOL0     H33975   2.337  11.272   4.561 -0.2507 -0.6433 -1.4020
  252MOL0     H33976   2.432  11.398   4.758 -1.1150 -4.5194  0.2214
  252MOL0     H33977   2.575  11.454   4.665  0.6537 -0.9907  0.4493
  252MOL0     H33978   2.481  11.191   4.752  1.5982 -2.6004 -0.7664
  252MOL0     H33979   2.615  11.277   4.819 -0.5488  1.4974 -0.6260
  252MOL0     H33980   2.780  11.406   4.732  0.6196 -0.7456  1.1131
  252MOL0     H33981   3.082  11.567   4.607 -0.9807 -0.2065 -0.9911
  252MOL0     H33982   2.947  11.594   4.717 -1.1014 -0.5523 -0.3217
  252MOL0     H33983   3.078  11.484   4.770 -0.4656  2.6872  1.7657
  252MOL0     H33984   3.378  11.082   4.276  1.5919 -1.0114  1.3017
  252MOL0     H33985   3.611  11.123   4.204  0.5699  1.0721 -2.5649
  252MOL0     H33986   3.819  11.155   4.146 -0.7209 -1.5071 -1.3407
  252MOL0     H33987   3.725  11.228   4.009 -1.5761 -0.4861  0.7942
  252MOL0     H33988   3.929  11.232   3.930 -3.5908 -1.4502  0.2778
  252MOL0     H33989   3.876  11.392   3.968 -2.1352 -0.1577 -1.1538
  252MOL0     H33990   4.055  11.228   4.152 -0.5290  0.0056  1.4259
  252MOL0     H33991   4.011  11.412   4.159  0.3663 -0.7142  0.2636
  252MOL0     H33992   4.127  11.442   3.947 -1.5212 -0.6246 -1.7251
  252MOL0     H33993   4.241  11.379   4.068  1.1881  0.4001 -2.6774
  252MOL0     H33994   4.125  11.238   3.820 -0.5891 -1.6376 -0.6920
  252MOL0     H33995   4.201  11.152   3.965 -0.5874  0.8989  0.1546
  252MOL0     H33996   4.416  11.280   3.921 -0.4689 -0.5168  1.4552
  252MOL0     H33997   4.369  11.160   3.809  0.9068  0.8540 -0.6810
  252MOL0     H33998   4.334  11.454   3.749  2.1454  0.6257  0.2733
  252MOL0     H33999   4.278  11.334   3.640  0.3263  0.6985 -0.5200
  252MOL0     H34000   4.509  11.234   3.620 -1.2539 -1.2588  1.0277
  252MOL0     H34001   4.574  11.357   3.722 -0.1945 -2.1981 -0.7045
  252MOL0     H34002   3.545  11.539   4.256  0.2709  0.5826  0.0653
  252MOL0     H34003   3.338  11.520   4.323  0.8231  1.3572 -1.8703
  252MOL0     H34004   3.052  11.126   4.436 -1.0594 -0.5265 -0.7621
  252MOL0     H34005   2.807  11.049   4.499  0.2334 -0.5490  1.6032
  252MOL0     H34006   2.885  10.901   3.369 -2.0803 -2.5613 -0.7034
  252MOL0     H34007   2.973  10.685   3.344  1.4516  2.1299 -1.2786
  252MOL0     H34008   3.245  10.367   3.651  1.0018 -2.6185  2.0295
  252MOL0     H34009   3.365  10.177   3.676 -2.4787  3.8598  1.4622
  252MOL0     H34010   3.262   9.957   3.750 -2.9237  0.9669 -1.3260
  252MOL0     H34011   3.142   9.872   3.684  0.3403  0.3467  0.0885
  252MOL0     H34012   3.320   9.681   3.620  0.8654 -0.4519 -0.6438
  252MOL0     H34013   3.290   9.684   3.787  2.9547 -2.1229 -0.0080
  252MOL0     H34014   3.495   9.802   3.829 -0.9642 -1.2388  0.9152
  252MOL0     H34015   3.519   9.852   3.659 -1.9396  0.3968 -1.0125
  252MOL0     H34016   3.513   9.604   3.602 -1.9199  0.2667  0.7788
  252MOL0     H34017   3.497   9.569   3.775 -0.3034 -0.7619 -1.5646
  252MOL0     H34018   3.916   9.650   3.691  0.7561 -3.1418  0.3594
  252MOL0     H34019   3.144   9.976   3.373  2.1535 -0.6824  1.3353
  252MOL0     H34020   3.021  10.216   3.320  1.8281 -2.3367 -1.4060
  253MOL0     O34021   9.608   0.275   6.242  0.3698 -0.2669  0.0572
  253MOL0     C34022   9.671   0.299   6.137 -0.2044 -0.1141 -0.8451
  253MOL0     O34023   9.625   0.359   6.031  0.2248  0.6634  0.3637
  253MOL0     C34024   9.505   0.431   6.043 -1.3911 -0.3218  0.8436
  253MOL0     C34025   9.400   0.399   5.957 -0.0449 -0.2642  0.5751
  253MOL0     C34026   9.288   0.483   5.958  0.1575 -0.1868  1.0153
  253MOL0     C34027   9.281   0.593   6.045 -0.4532  0.4540  0.0748
  253MOL0     O34028   9.174   0.675   6.056  0.4005  0.4803  0.5120
  253MOL0     C34029   9.098   0.683   5.928  0.4596  0.2794 -0.1691
  253MOL0     C34030   8.995   0.795   5.938  0.1305 -0.5743  0.7805
  253MOL0     C34031   8.902   0.786   6.057  0.2367 -0.2843 -0.9820
  253MOL0     C34032   8.833   0.921   6.088  0.7591  0.2468  0.3586
  253MOL0     C34033   8.714   0.924   6.188  1.0086 -0.2472 -0.0857
  253MOL0     C34034   8.637   1.051   6.172 -0.0266 -0.2115  1.2068
  253MOL0     C34035   8.711   1.180   6.179 -0.4595 -0.8842 -0.9814
  253MOL0     C34036   8.790   1.191   6.312  0.0349  0.1478 -0.4924
  253MOL0     N34037   8.704   1.176   6.425  0.4528  0.9572  0.4273
  253MOL0     C34038   8.691   1.064   6.504  0.1571  0.7986 -0.1355
  253MOL0     C34039   8.615   1.107   6.612  0.5498 -0.3355 -0.4402
  253MOL0     C34040   8.571   1.041   6.742  0.3198  0.6857 -0.0900
  253MOL0     C34041   8.415   1.041   6.746  0.3044 -0.1145 -0.3962
  253MOL0     C34042   8.362   0.897   6.728  0.3886  0.6410  0.4921
  253MOL0     C34043   8.197   0.880   6.733  0.0756 -0.1404  0.2305
  253MOL0     O34044   8.122   0.954   6.635  0.1815  0.5965  0.2476
  253MOL0     C34045   7.992   0.975   6.649  0.6818 -0.4857  1.0302
  253MOL0     C34046   7.941   1.070   6.562  0.1641 -0.2637 -0.6929
  253MOL0     C34047   7.811   1.112   6.563  0.4246 -0.7119 -0.6332
  253MOL0     C34048   7.779   1.223   6.464  0.0876 -0.1863  0.7773
  253MOL0     C34049   7.719   1.059   6.656 -0.0089 -1.2275 -0.0818
  253MOL0     C34050   7.571   1.095   6.656  0.1589  1.0746 -0.2461
  253MOL0     O34051   7.529   1.173   6.553 -0.2617 -0.0113 -0.6180
  253MOL0     C34052   7.398   1.215   6.554  0.0098 -0.1389 -0.4105
  253MOL0     C34053   7.295   1.124   6.552 -0.5600  0.7913 -0.0148
  253MOL0     C34054   7.165   1.166   6.540  0.0427  1.3081 -0.8620
  253MOL0     C34055   7.129   1.296   6.554  0.4560 -0.1723 -0.9143
  253MOL0     O34056   6.992   1.334   6.564  0.4732  0.0784 -0.4202
  253MOL0     C34057   6.952   1.420   6.670  0.1812  0.0677 -0.0837
  253MOL0     C34058   6.799   1.421   6.685 -0.1673  0.1499 -0.1526
  253MOL0     C34059   6.748   1.498   6.804 -1.0749 -1.0466  0.4358
  253MOL0     C34060   6.602   1.557   6.771 -0.1068  0.6043  0.1925
  253MOL0     C34061   6.495   1.465   6.825 -0.2689 -0.1403  0.4577
  253MOL0     C34062   6.357   1.478   6.767  0.1772 -0.6896 -0.2859
  253MOL0     C34063   6.304   1.617   6.788  0.8027 -0.5416 -0.2292
  253MOL0     C34064   6.181   1.635   6.695  0.2455  0.3726  0.2784
  253MOL0    Cl34065   6.056   1.525   6.744  0.0887 -0.3214  0.0107
  253MOL0     C34066   7.228   1.397   6.554 -0.3960  0.5750  0.1126
  253MOL0     C34067   7.359   1.348   6.550 -0.0647  0.0313  0.1834
  253MOL0     O34068   7.501   1.048   6.746  0.2321 -0.5158 -0.1694
  253MOL0     C34069   7.766   0.959   6.737 -0.1455  0.3893 -1.1557
  253MOL0     C34070   7.901   0.916   6.738  0.0261  1.0082 -0.3181
  253MOL0     N34071   8.591   1.246   6.595 -0.0720  0.2402  0.0889
  253MOL0     N34072   8.636   1.283   6.480 -0.6404  0.4344  0.0341
  253MOL0     C34073   9.383   0.613   6.139  0.0404 -0.3380 -0.0248
  253MOL0     C34074   9.499   0.538   6.131  0.2771  0.1012 -0.4943
  253MOL0     C34075   9.815   0.245   6.146 -0.5149  0.7120 -0.3696
  253MOL0     C34076   9.848   0.145   6.237  0.5679  0.1684 -0.1188
  253MOL0     C34077   9.977   0.094   6.252  0.7478 -0.3157 -0.0890
  253MOL0     C34078  10.085   0.148   6.188 -0.4888  0.1564 -0.3998
  253MOL0     O34079  10.213   0.101   6.221  0.2472  0.0237 -0.3337
  253MOL0     C34080  10.326   0.162   6.144  0.8007 -0.0614 -0.9668
  253MOL0     C34081  10.456   0.106   6.212 -1.0169 -0.2866  0.3023
  253MOL0     C34082  10.476   0.134   6.366  1.2185  0.7336  0.4120
  253MOL0     C34083  10.587   0.038   6.406  0.4053 -0.6201 -0.0292
  253MOL0     C34084  10.633   0.063   6.540  0.3948 -0.4733  0.0281
  253MOL0     C34085  10.670   0.109   6.646  0.2092 -0.1140  0.0432
  253MOL0     C34086  10.060   0.252   6.094 -0.2539 -0.4712 -0.6008
  253MOL0     C34087   9.926   0.297   6.071 -1.1027  0.1203 -0.1052
  253MOL0     H34088   9.404   0.315   5.888 -1.3328 -0.5997  0.8891
  253MOL0     H34089   9.215   0.452   5.883  1.3327 -0.2629 -0.1385
  253MOL0     H34090   9.167   0.699   5.845 -0.9449  2.2218 -1.0403
  253MOL0     H34091   9.035   0.595   5.910 -0.6453  1.3908 -2.1021
  253MOL0     H34092   9.041   0.894   5.941 -0.8391 -0.1364  1.9451
  253MOL0     H34093   8.935   0.792   5.846 -0.6940 -0.3538  1.3020
  253MOL0     H34094   8.818   0.723   6.026  0.5773 -1.3140  0.1101
  253MOL0     H34095   8.946   0.744   6.147 -1.7253  0.9324  0.6297
  253MOL0     H34096   8.908   0.995   6.117  0.6038  0.8301 -0.6748
  253MOL0     H34097   8.792   0.951   5.991  3.2640  1.8307 -0.2892
  253MOL0     H34098   8.656   0.834   6.167 -0.2291  0.3661  0.6200
  253MOL0     H34099   8.755   0.922   6.289 -0.3568 -2.6610  0.4806
  253MOL0     H34100   8.600   1.047   6.069 -1.5324  1.0835  1.6527
  253MOL0     H34101   8.547   1.056   6.234 -1.1954  0.8713 -0.4548
  253MOL0     H34102   8.774   1.199   6.092  1.1077  0.9974  0.4641
  253MOL0     H34103   8.647   1.269   6.182  0.8995  0.1750 -2.0782
  253MOL0     H34104   8.839   1.289   6.310  0.4187  0.0526  1.8206
  253MOL0     H34105   8.876   1.123   6.312 -0.1602 -0.2042  2.4448
  253MOL0     H34106   8.733   0.965   6.487  1.8205  0.9324  2.7031
  253MOL0     H34107   8.611   0.941   6.758  0.7606  0.9698  0.6410
  253MOL0     H34108   8.613   1.104   6.821  0.9924 -1.4533  1.3320
  253MOL0     H34109   8.384   1.104   6.662  0.3709  0.2238 -0.1710
  253MOL0     H34110   8.371   1.081   6.838  1.5183 -0.8125  0.5185
  253MOL0     H34111   8.412   0.837   6.804  1.1113  0.3007 -0.2388
  253MOL0     H34112   8.384   0.865   6.626 -1.4109 -0.4015  0.4033
  253MOL0     H34113   8.166   0.892   6.837  1.8369 -0.0929  0.7942
  253MOL0     H34114   8.172   0.774   6.719  2.4109 -1.0794  2.3635
  253MOL0     H34115   8.008   1.115   6.489 -0.8725  0.6767 -1.0965
  253MOL0     H34116   7.702   1.188   6.395  1.2286 -0.0822 -0.6029
  253MOL0     H34117   7.732   1.304   6.521 -0.3676  1.6624 -2.0539
  253MOL0     H34118   7.866   1.250   6.403 -0.3754 -1.3523 -0.4332
  253MOL0     H34119   7.318   1.019   6.537  2.5312  1.4209 -0.2785
  253MOL0     H34120   7.097   1.082   6.524  2.6928 -1.4029  1.0114
  253MOL0     H34121   7.002   1.377   6.757  3.9067 -0.0589 -2.0970
  253MOL0     H34122   6.983   1.523   6.650 -2.1663  0.9211  0.3169
  253MOL0     H34123   6.771   1.467   6.591  0.0487  0.1856 -0.2000
  253MOL0     H34124   6.754   1.321   6.684 -1.5228  0.6618 -3.5312
  253MOL0     H34125   6.813   1.585   6.809 -0.5878 -1.3019 -0.9947
  253MOL0     H34126   6.765   1.446   6.898  2.6807  0.8347  0.9559
  253MOL0     H34127   6.593   1.647   6.833 -1.1621  0.5322  0.1494
  253MOL0     H34128   6.581   1.595   6.670 -0.0045 -1.4281 -0.6312
  253MOL0     H34129   6.494   1.481   6.933  4.7417  2.5063  0.4439
  253MOL0     H34130   6.543   1.367   6.817  0.8496  0.5206 -1.9724
  253MOL0     H34131   6.374   1.477   6.659  2.2620  1.1387 -0.0734
  253MOL0     H34132   6.303   1.395   6.811  0.1493 -0.0667  0.8986
  253MOL0     H34133   6.381   1.689   6.761  0.1306  0.1513 -0.3185
  253MOL0     H34134   6.279   1.629   6.893 -1.0734 -0.6642 -0.6114
  253MOL0     H34135   6.209   1.631   6.589  1.4528 -1.6923  0.6149
  253MOL0     H34136   6.135   1.733   6.714 -2.2800 -0.6599 -0.1312
  253MOL0     H34137   7.220   1.505   6.563  1.0571  0.5897  1.8245
  253MOL0     H34138   7.436   1.423   6.537  0.2573  0.2203  2.6811
  253MOL0     H34139   7.698   0.913   6.809 -0.6870  1.6288 -0.8552
  253MOL0     H34140   7.924   0.840   6.812 -0.0343 -0.7620 -2.0340
  253MOL0     H34141   9.375   0.691   6.214  1.3195 -1.9359  1.8775
  253MOL0     H34142   9.576   0.561   6.204  0.2719  1.2143 -0.8206
  253MOL0     H34143   9.777   0.088   6.297  0.4221 -1.2397 -1.5588
  253MOL0     H34144  10.001   0.020   6.327 -2.3153 -1.5771 -0.1930
  253MOL0     H34145  10.322   0.135   6.038 -1.0270 -3.9506 -0.0824
  253MOL0     H34146  10.316   0.271   6.152  1.5928  0.0963 -1.8853
  253MOL0     H34147  10.544   0.143   6.159  1.6322 -2.0476  3.1312
  253MOL0     H34148  10.459   0.001   6.183  0.2185 -0.3900  0.7648
  253MOL0     H34149  10.379   0.117   6.415 -0.3174 -0.7240 -2.8750
  253MOL0     H34150  10.502   0.240   6.375 -1.9902  1.6120  0.5341
  253MOL0     H34151  10.669   0.052   6.335  1.1445  1.2033  1.1112
  253MOL0     H34152  10.552  -0.065   6.393 -1.1574  0.0441 -1.4723
  253MOL0     H34153  10.693   0.139   6.746  2.1428 -1.2059 -0.0347
  253MOL0     H34154  10.144   0.291   6.038 -1.2380  0.3350 -1.5429
  253MOL0     H34155   9.916   0.387   6.012 -0.2451  0.6541  0.5399
  254MOL0     O34156   6.987   4.873   6.145 -0.4909  0.5368 -0.5085
  254MOL0     C34157   7.025   4.757   6.115  0.0073  0.7436  0.0727
  254MOL0     O34158   6.935   4.650   6.097 -0.0182  0.3580  0.3884
  254MOL0     C34159   6.801   4.679   6.125  1.0256  0.8033 -0.2735
  254MOL0     C34160   6.754   4.712   6.257  0.1641 -0.0941  0.1063
  254MOL0     C34161   6.618   4.719   6.291 -0.5389  0.5861 -0.2497
  254MOL0     C34162   6.521   4.689   6.187  0.3621 -0.9535  0.0449
  254MOL0     O34163   6.386   4.718   6.196  0.4348 -0.5131 -0.4463
  254MOL0     C34164   6.333   4.786   6.313 -0.3155  0.3231 -0.1588
  254MOL0     C34165   6.184   4.789   6.301 -0.9481 -0.7163  0.7334
  254MOL0     C34166   6.124   4.895   6.393  0.0583 -0.6691  0.0190
  254MOL0     C34167   5.970   4.911   6.378  0.4666  0.0115  0.4671
  254MOL0     C34168   5.913   5.026   6.467  0.0536 -0.1865  0.8001
  254MOL0     C34169   5.763   5.047   6.444  0.5127 -0.6006  0.1366
  254MOL0     C34170   5.715   5.182   6.509  0.0581  0.4353 -0.4593
  254MOL0     C34171   5.586   5.220   6.436  0.3239  0.4712  0.3390
  254MOL0     N34172   5.455   5.157   6.478 -0.4394  0.5678  0.0280
  254MOL0     C34173   5.434   5.026   6.510  0.3081  0.6189  0.6684
  254MOL0     C34174   5.302   5.016   6.537  0.1175  1.0964  0.1848
  254MOL0     C34175   5.226   4.880   6.548 -0.1725  0.2457  0.2017
  254MOL0     C34176   5.138   4.870   6.657 -0.0903 -0.3035  0.0415
  254MOL0     C34177   5.072   4.731   6.664 -0.2076 -0.1629  0.4809
  254MOL0     C34178   4.989   4.693   6.792 -0.2633 -0.3197  0.3327
  254MOL0     O34179   4.868   4.626   6.757 -1.1884 -0.5268 -0.1045
  254MOL0     C34180   4.762   4.642   6.850 -0.8424 -0.2803 -0.1957
  254MOL0     C34181   4.633   4.610   6.808 -0.8434  0.3805 -0.4157
  254MOL0     C34182   4.522   4.625   6.893  0.3022 -0.0413 -0.1605
  254MOL0     C34183   4.395   4.601   6.827 -0.1492 -0.0949 -0.2178
  254MOL0     C34184   4.543   4.658   7.033  0.1548  0.5879  0.3834
  254MOL0     C34185   4.433   4.648   7.137  0.6821 -0.1369  0.4552
  254MOL0     O34186   4.325   4.566   7.111 -0.0938  0.5762 -0.0453
  254MOL0     C34187   4.238   4.529   7.206  0.7773  0.4857 -1.4201
  254MOL0     C34188   4.226   4.392   7.240  0.4058 -0.2028  0.8760
  254MOL0     C34189   4.135   4.347   7.339  0.4441  0.3176 -0.0311
  254MOL0     C34190   4.061   4.442   7.412  0.3125 -0.5918 -0.2932
  254MOL0     O34191   3.967   4.415   7.514 -0.1190  0.2486  0.0951
  254MOL0     C34192   3.974   4.293   7.580 -0.9239  0.6447 -0.5068
  254MOL0     C34193   3.880   4.292   7.705 -0.2267 -0.5306  0.7207
  254MOL0     C34194   3.738   4.299   7.660  0.0531  0.0169  0.1682
  254MOL0     C34195   3.695   4.165   7.611  0.4164  0.6184 -0.6664
  254MOL0     C34196   3.561   4.190   7.529  0.9042  0.0176 -0.2929
  254MOL0     C34197   3.455   4.278   7.593 -0.7456 -0.1732 -0.8007
  254MOL0     C34198   3.327   4.278   7.508 -0.5028  0.2719 -0.4974
  254MOL0     C34199   3.236   4.159   7.541 -0.0437  0.9172  0.3601
  254MOL0    Cl34200   3.201   4.164   7.710  0.3550  0.0876 -0.0163
  254MOL0     C34201   4.072   4.582   7.376  0.0209  0.2206  0.0883
  254MOL0     C34202   4.165   4.618   7.282 -0.0208  0.0317 -0.6980
  254MOL0     O34203   4.447   4.710   7.243 -0.2059 -0.7302 -0.4709
  254MOL0     C34204   4.675   4.693   7.077  0.4451  0.8061  0.5597
  254MOL0     C34205   4.781   4.687   6.983 -0.1851  0.2223 -0.5037
  254MOL0     N34206   5.242   5.140   6.530 -0.4694 -1.3323 -0.2202
  254MOL0     N34207   5.341   5.225   6.507  0.3589  0.2420  0.2908
  254MOL0     C34208   6.567   4.642   6.065 -0.0818 -0.0074  0.9623
  254MOL0     C34209   6.707   4.638   6.036 -0.3319 -0.4890  0.7590
  254MOL0     C34210   7.168   4.733   6.120 -0.5082  0.5101 -0.0134
  254MOL0     C34211   7.241   4.843   6.165 -0.5668  0.0874 -1.2684
  254MOL0     C34212   7.382   4.834   6.182  0.7550  0.3239  0.5323
  254MOL0     C34213   7.450   4.719   6.142 -0.6633 -0.2016 -0.0780
  254MOL0     O34214   7.589   4.697   6.161 -0.3782 -0.2187 -0.4827
  254MOL0     C34215   7.661   4.786   6.248  0.1459 -0.9667  1.2628
  254MOL0     C34216   7.809   4.752   6.258 -0.0444  0.0014 -0.4213
  254MOL0     C34217   7.835   4.628   6.334 -0.1687 -0.7568  0.2156
  254MOL0     C34218   7.979   4.616   6.388 -0.7229  0.9519  0.1458
  254MOL0     C34219   8.014   4.501   6.478 -0.2362  1.2664 -0.2260
  254MOL0     C34220   8.033   4.408   6.553 -0.4481  0.0811  0.5775
  254MOL0     C34221   7.370   4.608   6.099  1.2691 -0.3518  0.2707
  254MOL0     C34222   7.230   4.609   6.088 -1.0319  0.1812 -0.6334
  254MOL0     H34223   6.823   4.726   6.339 -0.9509 -1.3445  1.3140
  254MOL0     H34224   6.582   4.724   6.393  2.2930 -0.8168  0.9623
  254MOL0     H34225   6.346   4.734   6.408 -0.9947 -0.9179 -0.7278
  254MOL0     H34226   6.372   4.889   6.311 -0.6088  0.4784 -3.0715
  254MOL0     H34227   6.161   4.827   6.201 -2.0795 -1.2278  0.7879
  254MOL0     H34228   6.141   4.689   6.311 -1.9547 -0.4745 -0.8971
  254MOL0     H34229   6.147   4.870   6.497 -2.5513  1.1216  1.1287
  254MOL0     H34230   6.174   4.990   6.373 -0.4104  0.1021  2.1533
  254MOL0     H34231   5.923   4.924   6.280 -0.6334  0.5642  1.0436
  254MOL0     H34232   5.930   4.815   6.413  2.4336  0.1665  3.5231
  254MOL0     H34233   5.925   5.004   6.574  2.6471 -0.5537  0.5055
  254MOL0     H34234   5.973   5.116   6.450  2.3150 -1.0635  3.3452
  254MOL0     H34235   5.747   5.061   6.337  0.4643  1.9639  0.4115
  254MOL0     H34236   5.705   4.966   6.491  0.1042  1.0210  2.6445
  254MOL0     H34237   5.698   5.173   6.617 -2.3478  0.3331 -0.7906
  254MOL0     H34238   5.785   5.264   6.487 -0.5541  1.1027  0.0312
  254MOL0     H34239   5.591   5.186   6.332  0.4549  1.1913  0.1050
  254MOL0     H34240   5.557   5.326   6.441  0.9224  0.6864 -0.4782
  254MOL0     H34241   5.498   4.941   6.490  0.7746  1.6681 -3.0422
  254MOL0     H34242   5.172   4.866   6.454  1.1105  4.1666 -1.3072
  254MOL0     H34243   5.290   4.791   6.541 -1.0066 -0.3749  0.2492
  254MOL0     H34244   5.055   4.941   6.657 -1.9461 -2.3583  0.8924
  254MOL0     H34245   5.196   4.884   6.749 -0.1733  0.5378 -0.0212
  254MOL0     H34246   5.147   4.653   6.646  1.2513  1.4518 -0.8162
  254MOL0     H34247   4.998   4.735   6.584 -3.2201 -0.0211  3.1042
  254MOL0     H34248   4.970   4.790   6.838 -1.2656 -0.2065 -0.2985
  254MOL0     H34249   5.040   4.632   6.867  1.4946  0.0668 -0.4793
  254MOL0     H34250   4.619   4.589   6.702 -0.4479 -0.2631 -0.3481
  254MOL0     H34251   4.400   4.594   6.718  0.3325 -2.2474 -0.0896
  254MOL0     H34252   4.354   4.506   6.862 -1.9909 -0.4751 -3.0237
  254MOL0     H34253   4.320   4.679   6.843 -0.4583 -0.5517  0.5520
  254MOL0     H34254   4.280   4.317   7.182 -1.6295 -1.5890  0.6720
  254MOL0     H34255   4.126   4.241   7.362  1.1191 -0.0712 -1.4624
  254MOL0     H34256   3.944   4.210   7.514 -0.9578  0.4113 -0.2012
  254MOL0     H34257   4.080   4.272   7.599 -1.1453 -0.9482 -0.8617
  254MOL0     H34258   3.901   4.204   7.766  0.2173 -0.5943  0.4844
  254MOL0     H34259   3.900   4.380   7.767  3.4918  0.3915 -1.4543
  254MOL0     H34260   3.736   4.375   7.581  1.0800 -1.2066 -1.0932
  254MOL0     H34261   3.683   4.339   7.746  2.7363  3.2117  0.6089
  254MOL0     H34262   3.775   4.117   7.554  3.4386  2.3180  1.8480
  254MOL0     H34263   3.674   4.099   7.695 -0.4277  0.0049 -1.3303
  254MOL0     H34264   3.521   4.092   7.500  0.4298  0.4486 -1.1037
  254MOL0     H34265   3.595   4.243   7.440  1.1964  1.6184  0.7314
  254MOL0     H34266   3.436   4.257   7.699  1.8519  2.0300  0.2237
  254MOL0     H34267   3.491   4.381   7.606 -3.3984  0.5057  3.0968
  254MOL0     H34268   3.345   4.273   7.400 -2.5640  2.1807 -1.0159
  254MOL0     H34269   3.271   4.366   7.543  2.3695  0.8649  3.2768
  254MOL0     H34270   3.276   4.060   7.515 -3.4210 -0.8699  1.3345
  254MOL0     H34271   3.137   4.165   7.494 -0.3603 -1.0459  0.6774
  254MOL0     H34272   4.021   4.657   7.436 -0.3368 -0.7932  1.0923
  254MOL0     H34273   4.174   4.722   7.253 -0.0503  0.2073 -0.0952
  254MOL0     H34274   4.697   4.715   7.181 -2.2949 -0.2113  1.4527
  254MOL0     H34275   4.881   4.709   7.017 -0.7967  2.1085  0.2223
  254MOL0     H34276   6.487   4.593   6.010  1.8648  0.2330 -2.3678
  254MOL0     H34277   6.728   4.579   5.948 -3.1023 -0.5393  0.0508
  254MOL0     H34278   7.203   4.941   6.194 -3.9385 -1.4384 -0.0193
  254MOL0     H34279   7.447   4.911   6.221  1.0075  0.8574 -0.8670
  254MOL0     H34280   7.661   4.888   6.207  1.0317  0.2313  3.9677
  254MOL0     H34281   7.612   4.797   6.345  3.0676 -0.4055  2.8121
  254MOL0     H34282   7.863   4.831   6.311 -0.0501  0.1488 -0.6328
  254MOL0     H34283   7.846   4.746   6.156 -3.3661 -0.0086 -1.7611
  254MOL0     H34284   7.818   4.536   6.279  1.0175 -0.6805 -0.3195
  254MOL0     H34285   7.757   4.626   6.411 -2.1371 -1.7078 -1.7083
  254MOL0     H34286   8.014   4.707   6.438  2.2572  1.4503 -2.4610
  254MOL0     H34287   8.049   4.614   6.303  1.2895  1.9145  1.6839
  254MOL0     H34288   8.053   4.329   6.623 -1.8043 -0.3865  0.4632
  254MOL0     H34289   7.423   4.515   6.081  1.9014  0.2528 -1.1637
  254MOL0     H34290   7.182   4.520   6.050  2.0710 -1.4618 -1.0101
  255MOL0     O34291   9.193   9.224   2.243  0.1523 -0.1415  0.1284
  255MOL0     C34292   9.115   9.170   2.325  0.0710  0.3410  0.2814
  255MOL0     O34293   8.985   9.124   2.301  0.0756  0.6095  0.2653
  255MOL0     C34294   8.905   9.175   2.208  0.4004  0.0909 -0.2471
  255MOL0     C34295   8.777   9.114   2.195 -0.6665  0.3813  1.1972
  255MOL0     C34296   8.666   9.181   2.124  0.1806 -0.6039 -0.0742
  255MOL0     C34297   8.696   9.303   2.057  0.4694 -0.2621 -0.1768
  255MOL0     O34298   8.599   9.358   1.972  0.1820 -0.0254 -0.0094
  255MOL0     C34299   8.483   9.287   1.928 -0.7247 -0.2957 -0.5428
  255MOL0     C34300   8.443   9.314   1.783 -0.5156 -0.3637  0.2448
  255MOL0     C34301   8.308   9.258   1.744 -0.1585 -0.4314  0.3343
  255MOL0     C34302   8.225   9.336   1.642 -0.2965  0.2972  0.2573
  255MOL0     C34303   8.097   9.263   1.601  1.2009  0.7835 -0.3660
  255MOL0     C34304   7.999   9.233   1.714  0.1599  0.0634  0.0928
  255MOL0     C34305   7.865   9.165   1.664 -0.4357  1.0480 -0.3739
  255MOL0     C34306   7.750   9.205   1.755  0.5983 -0.2206 -0.0379
  255MOL0     N34307   7.641   9.121   1.726 -0.1908 -0.9847  0.0277
  255MOL0     C34308   7.589   9.100   1.596  0.0998  0.3521  0.1380
  255MOL0     C34309   7.471   9.035   1.618 -0.8951 -0.1394  0.4611
  255MOL0     C34310   7.363   8.980   1.521 -0.8814  0.8948  0.0647
  255MOL0     C34311   7.231   9.040   1.545 -1.1062  0.2652 -0.6333
  255MOL0     C34312   7.129   8.951   1.468  0.5707 -0.5825  0.1241
  255MOL0     C34313   6.994   9.025   1.476  0.6738 -0.5189  0.2552
  255MOL0     O34314   6.954   9.034   1.614  0.8868  0.0679 -0.2134
  255MOL0     C34315   6.842   9.109   1.640 -0.6096 -0.8693  0.4562
  255MOL0     C34316   6.731   9.098   1.557  0.6477  1.0191  0.9958
  255MOL0     C34317   6.608   9.163   1.580 -0.2178  0.1139  0.9462
  255MOL0     C34318   6.500   9.117   1.486 -0.4763  0.4143 -0.2918
  255MOL0     C34319   6.612   9.264   1.679 -0.2646  0.8184 -0.5267
  255MOL0     C34320   6.488   9.332   1.726  0.2253  0.1421 -0.1585
  255MOL0     O34321   6.507   9.428   1.820  0.0141 -1.0569 -0.0044
  255MOL0     C34322   6.409   9.529   1.835 -1.1322  0.7433  0.8153
  255MOL0     C34323   6.316   9.510   1.937 -0.1126  0.2041  0.0534
  255MOL0     C34324   6.220   9.612   1.949 -0.5431  0.5103  0.5445
  255MOL0     C34325   6.221   9.725   1.875  1.1030  0.3553  0.2042
  255MOL0     O34326   6.117   9.814   1.891 -0.4560 -0.6636 -0.3098
  255MOL0     C34327   6.141   9.944   1.830  0.3478  0.0629  0.2118
  255MOL0     C34328   6.238  10.037   1.889 -0.4343  0.2583  0.1068
  255MOL0     C34329   6.223  10.039   2.044 -0.2425  0.3186  0.4207
  255MOL0     C34330   6.265  10.178   2.100  0.1848  0.7626  0.3491
  255MOL0     C34331   6.253  10.163   2.252  0.2505  0.4540 -0.0026
  255MOL0     C34332   6.318  10.291   2.318  0.0046  0.0229  0.5311
  255MOL0     C34333   6.233  10.406   2.281  0.0211 -0.7923  0.9467
  255MOL0     C34334   6.272  10.537   2.342 -0.5572 -0.3696 -0.0119
  255MOL0    Cl34335   6.158  10.673   2.307 -0.2444  0.2643 -0.1662
  255MOL0     C34336   6.323   9.737   1.780  0.2097  0.9084 -0.2911
  255MOL0     C34337   6.423   9.642   1.768  0.2897  0.4036  0.9653
  255MOL0     O34338   6.376   9.303   1.675 -0.8074 -0.3538 -0.1056
  255MOL0     C34339   6.721   9.274   1.762  0.2202 -0.3095 -0.1555
  255MOL0     C34340   6.832   9.197   1.748  0.0762 -0.5846  0.4760
  255MOL0     N34341   7.458   9.014   1.758  1.1928 -0.5495 -0.0474
  255MOL0     N34342   7.552   9.084   1.818  0.2563  0.6528 -0.2598
  255MOL0     C34343   8.821   9.366   2.079  0.2929  0.1168 -0.5448
  255MOL0     C34344   8.924   9.309   2.151  0.5231  0.3803  0.0478
  255MOL0     C34345   9.169   9.161   2.461  0.6457  0.5736  0.6871
  255MOL0     C34346   9.293   9.225   2.497  0.7742 -0.4651 -0.1477
  255MOL0     C34347   9.342   9.189   2.628  0.6824 -0.3662  0.6416
  255MOL0     C34348   9.273   9.099   2.710 -0.7308  0.2286 -0.1270
  255MOL0     O34349   9.324   9.046   2.827  0.1158 -0.0679  0.0725
  255MOL0     C34350   9.450   8.976   2.819  0.5527 -0.2319  0.7986
  255MOL0     C34351   9.433   8.846   2.735 -0.5272  0.3347  0.2060
  255MOL0     C34352   9.562   8.771   2.706 -0.6278 -0.0866  1.3512
  255MOL0     C34353   9.663   8.764   2.824  0.3935  0.2337  1.7909
  255MOL0     C34354   9.743   8.643   2.816  0.0164  0.7511 -0.5382
  255MOL0     C34355   9.802   8.543   2.829 -0.2108  0.0870  0.3001
  255MOL0     C34356   9.156   9.036   2.668 -0.2097 -0.3249  0.4487
  255MOL0     C34357   9.108   9.069   2.541  0.2185 -0.7892  0.2068
  255MOL0     H34358   8.759   9.021   2.249 -5.6773 -0.5713 -1.4883
  255MOL0     H34359   8.570   9.131   2.115  0.0451 -0.2020 -0.9361
  255MOL0     H34360   8.491   9.178   1.936  1.2363 -0.1950 -0.4441
  255MOL0     H34361   8.402   9.306   1.998 -1.6419  0.1431 -1.7033
  255MOL0     H34362   8.442   9.422   1.767 -0.5581 -0.4331 -0.2424
  255MOL0     H34363   8.517   9.269   1.716  1.4295 -0.1055  2.0943
  255MOL0     H34364   8.314   9.160   1.696  2.6157 -1.2687  2.1124
  255MOL0     H34365   8.246   9.250   1.834 -1.3008  0.3451 -0.3527
  255MOL0     H34366   8.191   9.430   1.686 -0.8704 -0.7227  2.0462
  255MOL0     H34367   8.290   9.350   1.554 -1.4480  0.4568 -0.5898
  255MOL0     H34368   8.045   9.322   1.524  0.1848  1.3053  0.6752
  255MOL0     H34369   8.114   9.164   1.558 -2.8306 -0.4382  0.4428
  255MOL0     H34370   8.047   9.172   1.790  0.2142  0.0677  0.0629
  255MOL0     H34371   7.965   9.319   1.773 -3.5594 -0.1000 -1.4924
  255MOL0     H34372   7.853   9.199   1.560  5.1887 -0.9221 -2.0293
  255MOL0     H34373   7.869   9.057   1.655 -2.3222  0.8827  0.2940
  255MOL0     H34374   7.725   9.309   1.730  1.2775 -0.5261 -2.1624
  255MOL0     H34375   7.761   9.195   1.863 -0.5043 -2.1002 -0.0620
  255MOL0     H34376   7.627   9.153   1.510 -3.6102  1.5369 -0.9843
  255MOL0     H34377   7.398   9.003   1.420  2.3524  1.0683  1.1303
  255MOL0     H34378   7.368   8.871   1.529  0.8762  1.0702  1.9335
  255MOL0     H34379   7.242   9.139   1.501  0.0323 -0.2404 -1.5510
  255MOL0     H34380   7.203   9.055   1.650 -0.2757 -0.3963 -0.2963
  255MOL0     H34381   7.131   8.850   1.511  3.5024 -1.0566 -0.8777
  255MOL0     H34382   7.158   8.937   1.363 -0.4682 -0.4781 -0.1934
  255MOL0     H34383   6.921   8.965   1.421  0.6408 -1.1731  0.9940
  255MOL0     H34384   7.015   9.127   1.442  0.7570 -0.3471  0.8106
  255MOL0     H34385   6.731   9.030   1.472 -1.0358  3.1357 -0.7946
  255MOL0     H34386   6.443   9.035   1.531  2.3040 -1.4946 -0.0490
  255MOL0     H34387   6.430   9.195   1.452 -1.4827 -1.2913 -2.3627
  255MOL0     H34388   6.541   9.083   1.391 -0.9313  1.1423 -0.7579
  255MOL0     H34389   6.316   9.423   2.002 -1.9760  0.5611  0.6002
  255MOL0     H34390   6.135   9.601   2.015 -1.4959 -1.2763 -0.8635
  255MOL0     H34391   6.160   9.933   1.722 -1.3599  0.1133 -0.1206
  255MOL0     H34392   6.049  10.002   1.825  0.8895  0.8490 -1.5176
  255MOL0     H34393   6.336   9.999   1.858  0.2378  1.2181  1.0236
  255MOL0     H34394   6.216  10.132   1.840 -1.2502  0.7121  1.3274
  255MOL0     H34395   6.288   9.968   2.097  2.4483  1.4873 -1.0645
  255MOL0     H34396   6.122  10.011   2.076  0.9284 -3.0185  1.6798
  255MOL0     H34397   6.361  10.212   2.059  0.6726  0.4924  1.2334
  255MOL0     H34398   6.191  10.251   2.067  3.0740  2.7212 -2.4107
  255MOL0     H34399   6.316  10.081   2.288  1.0723  0.3097 -1.6704
  255MOL0     H34400   6.153  10.133   2.284  0.9959 -2.7311 -0.3036
  255MOL0     H34401   6.323  10.271   2.426 -1.6922  1.6914  0.9573
  255MOL0     H34402   6.417  10.301   2.272 -0.4646  0.2803 -0.4210
  255MOL0     H34403   6.135  10.373   2.316 -0.8013  1.4223  0.8752
  255MOL0     H34404   6.243  10.424   2.174  3.9702 -1.3316  1.0508
  255MOL0     H34405   6.372  10.566   2.308 -0.1819 -1.1038  0.4334
  255MOL0     H34406   6.288  10.523   2.450  4.2490  2.5402 -0.0684
  255MOL0     H34407   6.328   9.816   1.705 -0.3875 -0.5589 -1.9411
  255MOL0     H34408   6.494   9.655   1.687 -2.0302 -1.3742 -1.5434
  255MOL0     H34409   6.718   9.331   1.854  0.0400 -1.3042  0.4691
  255MOL0     H34410   6.914   9.193   1.818  2.9950  0.3899 -2.6172
  255MOL0     H34411   8.852   9.452   2.021  5.2166 -0.7688  0.3320
  255MOL0     H34412   9.010   9.374   2.162  0.5491  0.6914 -1.6632
  255MOL0     H34413   9.348   9.287   2.428  1.0792 -0.7869 -0.1918
  255MOL0     H34414   9.420   9.254   2.667  4.1043 -3.1866 -0.9867
  255MOL0     H34415   9.517   9.048   2.773 -0.6344  2.3706  2.8640
  255MOL0     H34416   9.481   8.948   2.920  0.7171 -2.9976  0.0594
  255MOL0     H34417   9.378   8.865   2.642 -3.4113 -0.8598  1.5483
  255MOL0     H34418   9.374   8.778   2.796 -0.7710 -0.8018 -1.2244
  255MOL0     H34419   9.620   8.812   2.623 -2.8273  0.9486  0.2261
  255MOL0     H34420   9.535   8.668   2.681 -2.2185  0.7547 -0.6947
  255MOL0     H34421   9.601   8.748   2.913 -0.7903 -1.3327  0.7289
  255MOL0     H34422   9.727   8.852   2.837  1.1552 -0.3159  1.8686
  255MOL0     H34423   9.843   8.445   2.842 -1.6363 -0.2684  2.6078
  255MOL0     H34424   9.102   8.959   2.721 -0.4930 -0.0065  0.6286
  255MOL0     H34425   9.019   9.016   2.509  0.6528 -2.1107  1.0996
  256MOL0     O34426   3.360  11.031   9.360 -0.4497 -0.1508  0.2481
  256MOL0     C34427   3.388  11.149   9.347  0.1329  0.0360 -0.1232
  256MOL0     O34428   3.317  11.254   9.374  0.3151  0.5953  0.2342
  256MOL0     C34429   3.183  11.256   9.395  0.4765 -0.4020  0.6239
  256MOL0     C34430   3.089  11.230   9.300  0.2058  0.5261  0.7721
  256MOL0     C34431   2.950  11.252   9.317  0.2293  0.8548 -0.4650
  256MOL0     C34432   2.899  11.293   9.447 -0.2193 -0.1281 -0.0030
  256MOL0     O34433   2.777  11.336   9.493 -0.2845  0.4480  0.3784
  256MOL0     C34434   2.677  11.314   9.386 -1.3213 -0.3603 -0.1386
  256MOL0     C34435   2.531  11.330   9.428  0.0229  0.1630  0.4293
  256MOL0     C34436   2.481  11.469   9.477 -0.5627 -0.2932 -0.3025
  256MOL0     C34437   2.324  11.465   9.509  0.2552 -0.1671  0.5068
  256MOL0     C34438   2.260  11.602   9.475  0.1961  0.3433 -0.1726
  256MOL0     C34439   2.112  11.589   9.454  0.0154 -0.3904  0.6744
  256MOL0     C34440   2.036  11.670   9.560  0.6175  0.4319 -0.4454
  256MOL0     C34441   1.883  11.653   9.558 -0.6975 -0.8676  0.5439
  256MOL0     N34442   1.840  11.538   9.649 -0.8940  0.2147 -0.0625
  256MOL0     C34443   1.841  11.537   9.785  1.3159  0.2626 -1.0180
  256MOL0     C34444   1.807  11.413   9.820 -0.5464  0.2147  0.6144
  256MOL0     C34445   1.807  11.348   9.965  0.7207 -0.5065  0.7643
  256MOL0     C34446   1.665  11.361  10.023  0.2282 -0.1211 -0.6588
  256MOL0     C34447   1.645  11.283  10.154 -0.4290  0.2484  0.7498
  256MOL0     C34448   1.633  11.134  10.137  0.6047 -0.5174 -0.3705
  256MOL0     O34449   1.531  11.114  10.037 -0.0495  0.2077 -0.3744
  256MOL0     C34450   1.403  11.137  10.084 -0.2204 -0.3134  0.3004
  256MOL0     C34451   1.317  11.206   9.997 -1.1996  0.0307 -0.1394
  256MOL0     C34452   1.193  11.246  10.033  0.8838  0.0292 -1.0701
  256MOL0     C34453   1.112  11.319   9.920 -1.3383 -0.1507  0.2901
  256MOL0     C34454   1.140  11.206  10.161  0.9338  0.9305  0.6979
  256MOL0     C34455   1.001  11.233  10.210  1.0411 -0.2973  1.0648
  256MOL0     O34456   0.975  11.186  10.333  0.9266 -0.5681  0.6162
  256MOL0     C34457   0.842  11.161  10.381 -0.2287  0.5696 -0.3649
  256MOL0     C34458   0.734  11.113  10.301  1.0813  1.0351 -0.3784
  256MOL0     C34459   0.612  11.077  10.371  0.7501  0.0574  0.1183
  256MOL0     C34460   0.607  11.077  10.514  0.6148 -0.3469 -0.1606
  256MOL0     O34461   0.485  11.060  10.578 -0.1146  0.0891 -0.3679
  256MOL0     C34462   0.479  10.969  10.694 -0.7972  0.5162  0.2547
  256MOL0     C34463   0.344  10.982  10.762 -0.0733  0.0719 -0.1378
  256MOL0     C34464   0.224  10.990  10.663  0.4068  0.7161  0.0111
  256MOL0     C34465   0.104  11.042  10.741 -0.1591  0.2043 -0.0139
  256MOL0     C34466  -0.026  11.045  10.660  0.9065 -0.1291  0.4134
  256MOL0     C34467  -0.144  11.026  10.756  0.6509  0.6264  0.9666
  256MOL0     C34468  -0.278  11.029  10.677 -0.0800  0.5895 -0.6338
  256MOL0     C34469  -0.386  11.034  10.774  0.8640  0.1064  0.9658
  256MOL0    Cl34470  -0.537  11.077  10.679 -0.1272 -0.1877 -0.2108
  256MOL0     C34471   0.714  11.128  10.588 -0.0166 -0.0712 -0.3528
  256MOL0     C34472   0.831  11.159  10.522 -0.6910 -0.6893  0.5403
  256MOL0     O34473   0.911  11.265  10.127 -0.1045  0.3710 -0.1457
  256MOL0     C34474   1.224  11.130  10.239  0.0214  0.0408 -0.2326
  256MOL0     C34475   1.357  11.093  10.209  0.3032  0.5552 -0.3590
  256MOL0     N34476   1.768  11.337   9.705  0.2441 -0.1630 -0.0507
  256MOL0     N34477   1.785  11.416   9.603 -0.3183 -0.4368 -0.6645
  256MOL0     C34478   2.995  11.308   9.545 -0.3106 -1.0229  0.1000
  256MOL0     C34479   3.132  11.284   9.522  0.2987  0.0104  0.3882
  256MOL0     C34480   3.521  11.187   9.303  0.2509  0.4407  0.1481
  256MOL0     C34481   3.577  11.306   9.342 -0.3909  0.2533  0.1468
  256MOL0     C34482   3.702  11.350   9.303 -0.2740 -0.6950  0.1313
  256MOL0     C34483   3.784  11.260   9.228 -0.1049 -0.0814  0.5296
  256MOL0     O34484   3.904  11.296   9.197  0.1122  0.1914 -0.2202
  256MOL0     C34485   4.004  11.231   9.275 -0.4303 -1.5913  0.2914
  256MOL0     C34486   4.070  11.345   9.358 -0.2694  0.0853 -0.9040
  256MOL0     C34487   4.114  11.287   9.490 -0.3849  0.5669  0.0090
  256MOL0     C34488   4.225  11.366   9.554  0.1674 -0.8742 -0.1025
  256MOL0     C34489   4.298  11.294   9.654  0.3927 -0.0411  0.4589
  256MOL0     C34490   4.351  11.236   9.746 -0.6097 -0.0578  0.4643
  256MOL0     C34491   3.717  11.141   9.181  0.8793 -0.1925 -0.5093
  256MOL0     C34492   3.591  11.099   9.224 -0.6553  0.4229 -0.0526
  256MOL0     H34493   3.131  11.214   9.201  1.1496 -1.1125  1.4007
  256MOL0     H34494   2.900  11.225   9.225 -0.8159 -0.6584  0.4838
  256MOL0     H34495   2.705  11.377   9.301 -0.1655  0.7463  1.0064
  256MOL0     H34496   2.678  11.210   9.354  0.5368 -0.4430  0.0496
  256MOL0     H34497   2.470  11.300   9.342  0.3666 -2.1096  0.9186
  256MOL0     H34498   2.517  11.260   9.510  6.2560 -1.4555  0.5913
  256MOL0     H34499   2.544  11.490   9.564  0.8408 -5.4352  0.2257
  256MOL0     H34500   2.506  11.537   9.395 -0.5543  1.0060  0.7422
  256MOL0     H34501   2.286  11.390   9.439  3.0416 -1.4481  0.1978
  256MOL0     H34502   2.311  11.431   9.612 -1.1429  1.4838  0.9318
  256MOL0     H34503   2.288  11.671   9.555 -0.7722 -2.2265  2.5806
  256MOL0     H34504   2.307  11.641   9.385 -2.4838  0.3173 -1.6883
  256MOL0     H34505   2.092  11.635   9.357 -0.2418 -2.3502 -0.2346
  256MOL0     H34506   2.077  11.486   9.454 -0.6446 -0.1719  0.2738
  256MOL0     H34507   2.081  11.645   9.657  0.9908  0.1151 -0.6944
  256MOL0     H34508   2.055  11.777   9.549 -1.0261  0.9533  1.1408
  256MOL0     H34509   1.848  11.634   9.456  1.4375  0.1897 -0.4563
  256MOL0     H34510   1.843  11.749   9.593  2.5639  2.6517 -4.1006
  256MOL0     H34511   1.877  11.610   9.857  1.6293 -0.3797 -0.5167
  256MOL0     H34512   1.847  11.247   9.968  2.0855 -0.2748 -3.5995
  256MOL0     H34513   1.864  11.422  10.022 -1.7656  1.5883  0.7388
  256MOL0     H34514   1.597  11.323   9.946  2.7880 -1.3708 -2.4588
  256MOL0     H34515   1.644  11.468  10.034  1.2593  0.3544 -2.5940
  256MOL0     H34516   1.548  11.317  10.192 -0.1342  1.5589  0.3680
  256MOL0     H34517   1.724  11.311  10.224  0.6504  0.6703 -0.5993
  256MOL0     H34518   1.611  11.086  10.232 -2.1865 -2.8174 -2.0141
  256MOL0     H34519   1.731  11.098  10.102  0.0190 -1.2762 -1.2875
  256MOL0     H34520   1.357  11.231   9.899 -1.4146  0.1604 -0.1946
  256MOL0     H34521   1.084  11.421   9.947 -2.4202  0.0106 -1.3167
  256MOL0     H34522   1.172  11.343   9.831 -1.7405  2.0766  0.5439
  256MOL0     H34523   1.021  11.261   9.904 -1.3171 -0.1727  0.2506
  256MOL0     H34524   0.721  11.111  10.194 -0.2715 -2.3679 -0.3032
  256MOL0     H34525   0.534  11.045  10.304 -0.6241  1.1522  1.1297
  256MOL0     H34526   0.502  10.867  10.661  3.8602  1.5962 -0.5014
  256MOL0     H34527   0.557  10.999  10.765 -1.0839  1.5487  0.1511
  256MOL0     H34528   0.330  10.896  10.829  0.7250  0.8191  1.0253
  256MOL0     H34529   0.358  11.072  10.822 -1.2452 -1.1585  2.1789
  256MOL0     H34530   0.207  10.890  10.621  2.0945 -0.5421  2.1203
  256MOL0     H34531   0.242  11.069  10.590 -1.9367  0.7426 -0.6203
  256MOL0     H34532   0.093  10.982  10.831 -2.7203 -0.5086 -0.7162
  256MOL0     H34533   0.127  11.145  10.770  0.9135  1.1444 -3.5724
  256MOL0     H34534  -0.034  10.967  10.583 -2.9772  0.9381 -0.4684
  256MOL0     H34535  -0.043  11.143  10.616  1.4187 -0.1748  0.1058
  256MOL0     H34536  -0.132  10.935  10.816  1.7588  0.1851  0.0872
  256MOL0     H34537  -0.140  11.111  10.825  2.9218  2.1653 -0.8884
  256MOL0     H34538  -0.289  10.941  10.613 -2.5606 -1.4188  2.2647
  256MOL0     H34539  -0.279  11.121  10.618  0.6391  0.6537 -0.5553
  256MOL0     H34540  -0.375  11.102  10.859 -3.4736 -1.8702  3.5021
  256MOL0     H34541  -0.404  10.941  10.830 -0.3352 -0.4256 -0.2432
  256MOL0     H34542   0.708  11.147  10.694 -1.1217 -0.2524 -0.3696
  256MOL0     H34543   0.927  11.182  10.568  0.1547 -0.5380 -1.2128
  256MOL0     H34544   1.188  11.093  10.334  3.1161  1.9795  1.9162
  256MOL0     H34545   1.418  11.029  10.273  0.9300  0.5744 -0.9281
  256MOL0     H34546   2.973  11.343   9.646  4.4490 -1.8477  1.6673
  256MOL0     H34547   3.202  11.302   9.603 -0.7429  3.5932  0.6641
  256MOL0     H34548   3.521  11.379   9.401 -0.4157  0.0047  0.4355
  256MOL0     H34549   3.756  11.434   9.345 -1.4403 -0.3785  1.0661
  256MOL0     H34550   3.964  11.160   9.348 -1.3410 -0.1581  1.2216
  256MOL0     H34551   4.065  11.176   9.203 -0.4443 -1.9458  0.5481
  256MOL0     H34552   4.013  11.438   9.372  0.0448  0.5129 -2.2404
  256MOL0     H34553   4.154  11.390   9.303  0.6563  2.0465  1.8721
  256MOL0     H34554   4.156  11.189   9.464 -1.4306  0.0562  0.1677
  256MOL0     H34555   4.030  11.266   9.557 -1.1807 -0.3008 -1.2034
  256MOL0     H34556   4.174  11.450   9.603 -0.3786 -1.2222 -0.0776
  256MOL0     H34557   4.305  11.402   9.488  0.8444  3.3268  2.6235
  256MOL0     H34558   4.367  11.179   9.835  1.6965 -0.1243  0.0604
  256MOL0     H34559   3.773  11.072   9.119  0.5035  0.7123 -1.9050
  256MOL0     H34560   3.538  11.010   9.191  1.5197  0.1869 -3.4180
  257MOL0     O34561   7.689   9.804   7.931 -0.4644 -0.2809  0.0560
  257MOL0     C34562   7.635   9.705   7.964  0.2678 -0.5784 -0.0072
  257MOL0     O34563   7.505   9.673   7.924  0.5780  0.1305 -0.3063
  257MOL0     C34564   7.416   9.766   7.884 -0.3796  0.7211  0.0548
  257MOL0     C34565   7.319   9.799   7.977 -0.1171  0.8584  0.3775
  257MOL0     C34566   7.222   9.890   7.946  0.1955 -0.5933 -0.1065
  257MOL0     C34567   7.215   9.945   7.823 -0.0753  0.5981  0.0814
  257MOL0     O34568   7.103  10.016   7.796 -0.1841  1.1762 -0.5538
  257MOL0     C34569   7.063  10.023   7.658  0.0028 -0.9239 -0.5045
  257MOL0     C34570   6.910  10.056   7.643 -0.4053  0.5942  0.1481
  257MOL0     C34571   6.866  10.068   7.501 -0.4554 -0.2542 -0.6455
  257MOL0     C34572   6.895   9.941   7.415  0.3899 -0.3753 -0.4537
  257MOL0     C34573   6.847   9.957   7.273 -0.0412  0.9618  0.1335
  257MOL0     C34574   6.891   9.836   7.191  0.7035 -0.5026  0.1081
  257MOL0     C34575   6.838   9.857   7.045 -0.6567 -0.0309 -0.0702
  257MOL0     C34576   6.795   9.728   6.971 -0.8853 -0.5379  0.0454
  257MOL0     N34577   6.890   9.621   6.990 -0.3049 -0.0995 -0.1812
  257MOL0     C34578   7.020   9.617   6.933  0.3981  0.4171  0.2865
  257MOL0     C34579   7.064   9.486   6.964 -1.0561  0.6504 -0.5640
  257MOL0     C34580   7.181   9.416   6.898 -0.4056  0.6313 -0.5850
  257MOL0     C34581   7.309   9.498   6.907  0.1290  0.0293 -0.4608
  257MOL0     C34582   7.430   9.425   6.850 -0.3925 -0.6814 -0.6470
  257MOL0     C34583   7.482   9.303   6.925 -0.0867 -0.9075 -0.6618
  257MOL0     O34584   7.601   9.258   6.859  0.6458 -1.1153  0.2078
  257MOL0     C34585   7.671   9.160   6.924 -0.1823  0.5271 -0.9845
  257MOL0     C34586   7.663   9.117   7.053  0.3790  0.6237 -1.5978
  257MOL0     C34587   7.750   9.027   7.113  0.0142  1.4251 -0.1524
  257MOL0     C34588   7.720   8.995   7.260  0.6396 -0.5234  0.2727
  257MOL0     C34589   7.850   8.973   7.027  1.1604  0.0990  0.6405
  257MOL0     C34590   7.966   8.892   7.069  0.1624 -0.3203  0.1265
  257MOL0     O34591   8.039   8.829   6.976 -0.2984 -0.5377 -0.7381
  257MOL0     C34592   8.117   8.717   7.023  0.1231  0.1684 -0.1063
  257MOL0     C34593   8.098   8.645   7.141  1.1652 -0.1390  0.0466
  257MOL0     C34594   8.186   8.540   7.173  0.2081  0.2642 -0.3151
  257MOL0     C34595   8.278   8.497   7.091 -0.9083 -0.0986  0.2342
  257MOL0     O34596   8.329   8.370   7.121 -0.1590  0.2146  0.1210
  257MOL0     C34597   8.400   8.288   7.031 -0.0982 -0.1634  0.4543
  257MOL0     C34598   8.421   8.143   7.075 -0.6880 -0.3329  0.3881
  257MOL0     C34599   8.402   8.110   7.216  0.3193 -0.2028 -1.1218
  257MOL0     C34600   8.444   7.972   7.244 -0.5126  0.0624  0.0499
  257MOL0     C34601   8.456   7.942   7.401 -0.5151  0.2787  0.6100
  257MOL0     C34602   8.543   8.027   7.487  0.3591  0.5097 -0.8909
  257MOL0     C34603   8.678   8.044   7.416  0.0205 -0.0735  0.4910
  257MOL0     C34604   8.784   8.117   7.512 -0.5141 -0.4120 -0.3298
  257MOL0    Cl34605   8.928   8.119   7.421 -0.2840 -0.4687  0.1475
  257MOL0     C34606   8.290   8.554   6.967  0.4884 -0.5942 -0.5892
  257MOL0     C34607   8.212   8.671   6.937  0.4555 -0.3094 -0.2977
  257MOL0     O34608   7.976   8.894   7.188 -0.6311  0.4824  0.1593
  257MOL0     C34609   7.854   9.005   6.889  0.6585  0.2180 -0.2836
  257MOL0     C34610   7.760   9.091   6.841  0.1838 -0.1140 -0.1472
  257MOL0     N34611   6.964   9.423   7.048 -0.3388 -0.8239  0.1117
  257MOL0     N34612   6.871   9.512   7.065 -0.5063  0.8888 -0.5273
  257MOL0     C34613   7.318   9.914   7.723 -0.0492 -0.6421 -0.0576
  257MOL0     C34614   7.423   9.833   7.759 -0.0133 -0.0023 -1.0154
  257MOL0     C34615   7.703   9.628   8.061  0.0562 -0.6418 -1.1899
  257MOL0     C34616   7.844   9.629   8.076 -0.6144 -0.4968 -0.1353
  257MOL0     C34617   7.910   9.559   8.174  0.2761 -0.3684 -0.3662
  257MOL0     C34618   7.838   9.476   8.259 -0.5612 -0.2059  0.4043
  257MOL0     O34619   7.886   9.400   8.362  0.2614 -0.9442  0.9208
  257MOL0     C34620   8.025   9.390   8.376  0.5155  0.3333 -0.5483
  257MOL0     C34621   8.061   9.271   8.458 -0.4322 -0.6110  0.1784
  257MOL0     C34622   8.210   9.261   8.494  0.2830 -0.3851  0.0797
  257MOL0     C34623   8.230   9.154   8.599  0.0785 -0.0191 -1.0144
  257MOL0     C34624   8.377   9.156   8.627  0.2379  0.2844 -0.3442
  257MOL0     C34625   8.500   9.150   8.643 -0.3835  1.0722  1.2607
  257MOL0     C34626   7.704   9.480   8.245 -0.3787 -0.1278 -0.5129
  257MOL0     C34627   7.634   9.551   8.153  0.7738 -0.1123 -0.1294
  257MOL0     H34628   7.312   9.744   8.070 -1.4995 -2.0478 -1.2794
  257MOL0     H34629   7.150   9.900   8.027 -0.5070 -1.9569 -0.5368
  257MOL0     H34630   7.118  10.088   7.590 -2.1097  0.3467 -1.0948
  257MOL0     H34631   7.079   9.920   7.625  1.6606 -1.7345  2.3935
  257MOL0     H34632   6.849   9.992   7.707  0.4018  1.3256  1.6826
  257MOL0     H34633   6.878  10.148   7.692 -1.4634  0.1459  0.3308
  257MOL0     H34634   6.757  10.071   7.509 -0.4857 -0.4476 -0.9584
  257MOL0     H34635   6.909  10.161   7.462  0.0644 -0.8906 -1.6368
  257MOL0     H34636   7.003   9.922   7.407  0.4050 -1.6677  1.9162
  257MOL0     H34637   6.836   9.862   7.463 -1.2558  0.3748 -1.1560
  257MOL0     H34638   6.738   9.970   7.277  0.0042  3.3899 -2.5150
  257MOL0     H34639   6.875  10.050   7.222  0.4105  1.8435  1.8932
  257MOL0     H34640   6.999   9.823   7.199  0.8923  1.4283  1.0287
  257MOL0     H34641   6.827   9.757   7.232 -0.5020 -1.2871 -3.0043
  257MOL0     H34642   6.759   9.932   7.032 -1.9994 -1.3375  0.2091
  257MOL0     H34643   6.927   9.897   6.996  0.6573  1.4107  3.1496
  257MOL0     H34644   6.779   9.768   6.871  3.2042  0.5515 -0.3678
  257MOL0     H34645   6.702   9.701   7.020 -3.4365  1.8031 -3.0704
  257MOL0     H34646   7.071   9.688   6.868 -1.5674  0.9754 -0.7301
  257MOL0     H34647   7.195   9.319   6.946  1.1926  0.6406 -0.9745
  257MOL0     H34648   7.165   9.395   6.792  1.5505 -3.3550 -0.3066
  257MOL0     H34649   7.332   9.539   7.006  0.2140 -0.8414 -0.1059
  257MOL0     H34650   7.314   9.586   6.843 -2.2802  1.4543  1.1329
  257MOL0     H34651   7.509   9.499   6.838  0.0477 -1.2326 -1.2606
  257MOL0     H34652   7.413   9.383   6.750  0.6355 -1.4081 -0.5280
  257MOL0     H34653   7.404   9.226   6.930 -2.2319  1.2556  2.2355
  257MOL0     H34654   7.499   9.346   7.024  0.5263 -2.9680  0.1849
  257MOL0     H34655   7.593   9.157   7.125  2.3511 -0.8620  1.3778
  257MOL0     H34656   7.714   8.887   7.279  2.2451 -0.4970  1.1109
  257MOL0     H34657   7.798   9.034   7.327 -0.3686  0.4643  0.8936
  257MOL0     H34658   7.627   9.038   7.299  0.1491 -1.9163  0.7101
  257MOL0     H34659   8.019   8.664   7.213  0.2357  4.8415 -1.9041
  257MOL0     H34660   8.164   8.494   7.268  1.5961 -0.8349 -0.5013
  257MOL0     H34661   8.343   8.283   6.938 -2.2842 -0.2218  1.7280
  257MOL0     H34662   8.494   8.335   7.001 -0.4916 -0.8741 -2.1080
  257MOL0     H34663   8.361   8.074   7.014  0.2578  1.2950 -2.5954
  257MOL0     H34664   8.525   8.114   7.057 -0.3711 -0.7446  2.6141
  257MOL0     H34665   8.296   8.108   7.246  0.0551  1.7349 -1.7861
  257MOL0     H34666   8.467   8.178   7.272 -0.4897  0.9156 -1.4900
  257MOL0     H34667   8.381   7.891   7.205  0.3042 -0.5214 -0.0919
  257MOL0     H34668   8.543   7.958   7.201 -0.8360 -3.1666  0.1001
  257MOL0     H34669   8.495   7.840   7.408 -0.2007  0.2537 -1.1562
  257MOL0     H34670   8.355   7.936   7.445  0.2681 -0.3129  2.4322
  257MOL0     H34671   8.489   8.121   7.497 -0.4589 -0.1389  1.7239
  257MOL0     H34672   8.540   7.979   7.585 -0.1031 -0.4791 -1.3712
  257MOL0     H34673   8.670   8.102   7.323 -0.0269 -1.5463 -0.4553
  257MOL0     H34674   8.726   7.953   7.380  0.1554  0.6481 -1.2512
  257MOL0     H34675   8.800   8.063   7.606  2.3644  2.5795  1.0914
  257MOL0     H34676   8.738   8.214   7.535 -2.0867 -0.7051 -1.9945
  257MOL0     H34677   8.371   8.516   6.906  2.1522  0.6491  0.7610
  257MOL0     H34678   8.223   8.715   6.838 -1.1846 -1.7113 -1.1589
  257MOL0     H34679   7.932   8.967   6.824  0.2978 -2.8256  0.9053
  257MOL0     H34680   7.764   9.120   6.736  0.5956  0.2773 -0.0265
  257MOL0     H34681   7.313   9.978   7.635 -1.0096 -0.3351  0.2147
  257MOL0     H34682   7.504   9.821   7.687  0.4271  1.3391 -0.7850
  257MOL0     H34683   7.902   9.690   8.008 -1.6681 -1.4877 -2.0042
  257MOL0     H34684   8.015   9.571   8.198 -0.6753  0.2021  4.6179
  257MOL0     H34685   8.070   9.374   8.277 -1.3014  2.7260 -1.8687
  257MOL0     H34686   8.069   9.484   8.409 -0.0190  0.0591  0.9996
  257MOL0     H34687   8.036   9.184   8.397  0.8340  0.3550 -1.8522
  257MOL0     H34688   8.008   9.265   8.554  2.3164 -2.7936  1.7254
  257MOL0     H34689   8.244   9.357   8.534  1.1960  2.3554 -6.1337
  257MOL0     H34690   8.272   9.239   8.406  1.4884 -1.2641  1.1000
  257MOL0     H34691   8.228   9.053   8.556  1.5512 -0.7610  0.5087
  257MOL0     H34692   8.182   9.171   8.696 -0.6980  2.0566 -1.7145
  257MOL0     H34693   8.605   9.133   8.656 -0.0997  0.4408 -1.2979
  257MOL0     H34694   7.654   9.409   8.308  0.9365 -1.4549 -0.8903
  257MOL0     H34695   7.525   9.554   8.158  0.7465 -1.3268  3.7442
  258MOL0     O34696   0.277   6.274   7.656  0.7207 -0.0447  0.1675
  258MOL0     C34697   0.253   6.342   7.756  0.0848 -0.4137  0.1624
  258MOL0     O34698   0.309   6.336   7.872  0.4195 -0.1425 -0.5054
  258MOL0     C34699   0.411   6.254   7.907 -0.6439  0.3125 -0.1513
  258MOL0     C34700   0.507   6.194   7.822 -0.4316 -0.7188  0.0080
  258MOL0     C34701   0.619   6.128   7.863 -0.6162  0.0074 -0.3579
  258MOL0     C34702   0.642   6.101   8.001  0.0028 -0.4719  0.2218
  258MOL0     O34703   0.763   6.048   8.041  0.1991  0.4007  0.7000
  258MOL0     C34704   0.832   5.969   7.949 -0.4895 -0.1400  0.3275
  258MOL0     C34705   0.926   5.890   8.041 -0.3914 -0.4243  0.4960
  258MOL0     C34706   1.054   5.962   8.108 -0.2319 -0.0659 -1.0443
  258MOL0     C34707   1.135   6.064   8.032  0.2613 -0.1077  0.9520
  258MOL0     C34708   1.254   6.096   8.115 -0.1377 -0.0024 -0.1857
  258MOL0     C34709   1.323   6.224   8.049 -0.1023 -0.5787  0.7105
  258MOL0     C34710   1.460   6.256   8.102  0.4035  0.6981  0.8195
  258MOL0     C34711   1.514   6.375   8.026 -0.5635 -0.0349  0.7369
  258MOL0     N34712   1.650   6.419   8.071 -0.2516  0.1243 -0.3000
  258MOL0     C34713   1.760   6.339   8.074 -0.6374  0.0199  0.7321
  258MOL0     C34714   1.859   6.414   8.113  0.0267 -0.1973 -0.7297
  258MOL0     C34715   1.991   6.359   8.161  0.1656 -0.5199  0.4866
  258MOL0     C34716   2.105   6.359   8.059 -0.2149  0.8988 -0.0202
  258MOL0     C34717   2.091   6.248   7.950  0.4720 -0.0079 -0.1010
  258MOL0     C34718   2.176   6.283   7.829  0.3548 -0.1705  0.6390
  258MOL0     O34719   2.147   6.409   7.756  0.5417  0.0064 -0.6287
  258MOL0     C34720   2.016   6.410   7.717  0.6102 -0.6979  0.1350
  258MOL0     C34721   1.945   6.531   7.740  1.0358  0.3890  0.1931
  258MOL0     C34722   1.820   6.555   7.676  0.2000 -0.3208 -0.1516
  258MOL0     C34723   1.749   6.681   7.714  0.2340  0.2721 -0.2903
  258MOL0     C34724   1.760   6.450   7.586 -0.0752  0.0331 -0.5117
  258MOL0     C34725   1.641   6.464   7.524  0.7523  0.1096  0.0574
  258MOL0     O34726   1.627   6.417   7.396 -0.6775  0.1073 -0.3257
  258MOL0     C34727   1.502   6.379   7.355 -0.4973  0.8720  0.4008
  258MOL0     C34728   1.457   6.246   7.367 -0.0314  0.1819 -0.5027
  258MOL0     C34729   1.331   6.209   7.317 -0.3923  0.2495 -0.3236
  258MOL0     C34730   1.248   6.299   7.247 -0.2698  0.6925  0.0114
  258MOL0     O34731   1.136   6.263   7.178  0.7448 -0.0802 -0.0807
  258MOL0     C34732   1.093   6.127   7.172  0.2008 -0.7158 -0.0345
  258MOL0     C34733   0.987   6.118   7.055  0.2749  0.5626 -0.7802
  258MOL0     C34734   0.852   6.187   7.087 -0.1758  0.1646  0.9663
  258MOL0     C34735   0.745   6.172   6.985 -0.5397 -0.2858 -0.7249
  258MOL0     C34736   0.722   6.297   6.893  0.4940  0.1219  0.4473
  258MOL0     C34737   0.611   6.264   6.800 -0.7758  0.2106 -0.2759
  258MOL0     C34738   0.630   6.350   6.671 -0.2186 -0.0739 -0.4302
  258MOL0     C34739   0.612   6.508   6.686 -0.5606  0.2672 -0.3882
  258MOL0    Cl34740   0.766   6.607   6.723  0.1460  0.3390 -0.1777
  258MOL0     C34741   1.292   6.427   7.239 -0.5036  0.1922  0.4590
  258MOL0     C34742   1.418   6.462   7.283  0.0520  0.1290 -0.0992
  258MOL0     O34743   1.546   6.492   7.595 -0.2506 -0.6756  0.2798
  258MOL0     C34744   1.836   6.330   7.571  0.0243  0.2559  0.0470
  258MOL0     C34745   1.959   6.315   7.626 -1.2970 -0.4852  0.1337
  258MOL0     N34746   1.812   6.552   8.125 -0.0695  0.1279 -0.2412
  258MOL0     N34747   1.683   6.551   8.093  0.3499 -0.0392 -1.0279
  258MOL0     C34748   0.545   6.149   8.087  0.2437 -0.7816 -0.5337
  258MOL0     C34749   0.434   6.221   8.039 -0.5291 -0.4349 -0.0857
  258MOL0     C34750   0.148   6.449   7.736 -0.4779 -0.3191  0.5767
  258MOL0     C34751   0.104   6.527   7.842  0.0757  0.0825  0.5002
  258MOL0     C34752  -0.013   6.606   7.825  0.5579  0.6153  0.1562
  258MOL0     C34753  -0.079   6.625   7.700  0.2343  0.9780  0.3135
  258MOL0     O34754  -0.202   6.683   7.672 -0.8594 -0.6537 -0.2075
  258MOL0     C34755  -0.259   6.765   7.775 -0.0051  0.8366  0.4844
  258MOL0     C34756  -0.363   6.857   7.723  0.6552  0.3835 -0.3882
  258MOL0     C34757  -0.302   6.929   7.599  0.2313 -0.0308 -0.4264
  258MOL0     C34758  -0.381   7.049   7.560  0.4299  0.5750 -0.1324
  258MOL0     C34759  -0.523   7.013   7.523  0.1415  0.0755  0.0298
  258MOL0     C34760  -0.638   7.000   7.481  0.0908 -0.9609 -1.0134
  258MOL0     C34761  -0.017   6.562   7.590 -0.1073 -0.3053  1.0100
  258MOL0     C34762   0.083   6.470   7.612  0.8748 -0.1188 -0.0241
  258MOL0     H34763   0.504   6.212   7.715 -0.8974 -1.3866 -0.1034
  258MOL0     H34764   0.700   6.104   7.795  1.3755  1.9918  1.1685
  258MOL0     H34765   0.766   5.910   7.886 -1.4046 -1.0907  2.1062
  258MOL0     H34766   0.886   6.040   7.886  0.3752 -1.1830 -0.1294
  258MOL0     H34767   0.865   5.840   8.117 -0.3257  1.7680  2.0638
  258MOL0     H34768   0.975   5.812   7.982 -2.1613  0.3527 -2.1845
  258MOL0     H34769   1.025   6.026   8.192  0.4881 -3.9533  2.5013
  258MOL0     H34770   1.120   5.887   8.153  0.5209  1.4110  0.4310
  258MOL0     H34771   1.157   6.026   7.932 -0.0905  0.9386  0.4599
  258MOL0     H34772   1.076   6.156   8.025 -0.3491 -0.3956  2.1137
  258MOL0     H34773   1.231   6.118   8.219  1.9002  0.5780  0.1949
  258MOL0     H34774   1.326   6.015   8.101  0.2314  0.2633  0.1841
  258MOL0     H34775   1.349   6.201   7.946 -0.3099 -0.9326  0.7365
  258MOL0     H34776   1.256   6.309   8.062 -1.0615 -0.9524 -1.4143
  258MOL0     H34777   1.461   6.265   8.211 -0.9761  0.3477  0.8677
  258MOL0     H34778   1.529   6.172   8.085  0.3013  0.6425  0.6846
  258MOL0     H34779   1.446   6.461   8.033  3.3951  3.3926  1.0443
  258MOL0     H34780   1.522   6.341   7.922 -1.4175 -0.2328  0.7305
  258MOL0     H34781   1.767   6.232   8.057 -0.0587  0.2358 -0.4274
  258MOL0     H34782   2.018   6.417   8.250 -3.8623 -0.2225  1.6932
  258MOL0     H34783   1.978   6.259   8.203 -1.8065  0.0334  1.2758
  258MOL0     H34784   2.195   6.333   8.115 -3.0496 -2.8334  3.4575
  258MOL0     H34785   2.109   6.460   8.018  0.0590  0.4874 -1.0136
  258MOL0     H34786   1.989   6.226   7.919  0.3075  1.4464 -0.6676
  258MOL0     H34787   2.130   6.147   7.971 -0.0879 -0.6736 -2.0138
  258MOL0     H34788   2.164   6.199   7.760 -1.4887 -0.0238  0.7377
  258MOL0     H34789   2.278   6.303   7.862  1.1260 -3.4646  0.5723
  258MOL0     H34790   1.982   6.607   7.808 -2.2455 -1.1099  4.0842
  258MOL0     H34791   1.698   6.671   7.811 -0.2834 -2.3321 -0.7366
  258MOL0     H34792   1.819   6.764   7.713 -0.9517  1.3227  0.5754
  258MOL0     H34793   1.669   6.707   7.644 -1.4062  0.5088  1.5846
  258MOL0     H34794   1.501   6.173   7.433 -0.7714  0.4902  0.3542
  258MOL0     H34795   1.311   6.103   7.331  1.6108 -0.0981  0.3503
  258MOL0     H34796   1.179   6.063   7.151  0.8790  0.2569 -0.2771
  258MOL0     H34797   1.046   6.091   7.264 -1.1288 -2.7924 -1.4386
  258MOL0     H34798   1.037   6.165   6.969 -0.8626 -0.0911 -1.8359
  258MOL0     H34799   0.955   6.017   7.030 -1.5501  1.3535 -1.8454
  258MOL0     H34800   0.880   6.293   7.088  2.6491 -0.3749 -2.0126
  258MOL0     H34801   0.803   6.155   7.179 -1.6025  0.6653  0.4061
  258MOL0     H34802   0.768   6.086   6.922  1.3155 -0.4356  0.0927
  258MOL0     H34803   0.648   6.163   7.035  0.1995 -1.8221  0.5114
  258MOL0     H34804   0.815   6.337   6.850 -0.8783  1.7299 -1.1980
  258MOL0     H34805   0.690   6.384   6.951  0.1553 -0.7800  1.6527
  258MOL0     H34806   0.610   6.156   6.782 -1.9398  0.1026  0.3168
  258MOL0     H34807   0.518   6.294   6.849  0.7589  2.0547  1.6798
  258MOL0     H34808   0.558   6.317   6.595 -0.3652  0.0911 -0.3639
  258MOL0     H34809   0.732   6.333   6.635  0.3346  1.3184  0.4173
  258MOL0     H34810   0.542   6.522   6.769  0.9132  1.3887  0.7201
  258MOL0     H34811   0.571   6.549   6.594 -0.0358  1.0580 -0.2741
  258MOL0     H34812   1.235   6.502   7.185 -0.6204 -1.0598 -1.2391
  258MOL0     H34813   1.457   6.562   7.264  0.3694  1.0297  4.2317
  258MOL0     H34814   1.811   6.257   7.494  0.6951 -1.1644  1.1199
  258MOL0     H34815   2.009   6.225   7.592  0.2895 -0.2113  1.6363
  258MOL0     H34816   0.562   6.140   8.193  1.4855  1.1785 -0.5218
  258MOL0     H34817   0.360   6.252   8.112  1.5625  0.3541  1.8159
  258MOL0     H34818   0.143   6.523   7.944 -1.5768 -0.3396  1.1578
  258MOL0     H34819  -0.041   6.649   7.921  4.2616 -1.4441  2.4072
  258MOL0     H34820  -0.304   6.711   7.858  1.3859 -0.5107  0.3959
  258MOL0     H34821  -0.178   6.822   7.822  0.7647  1.1520 -1.1554
  258MOL0     H34822  -0.383   6.932   7.800 -1.3349 -0.7572  0.2914
  258MOL0     H34823  -0.458   6.808   7.699  1.0584 -0.1105 -1.0199
  258MOL0     H34824  -0.287   6.857   7.518  0.3706 -1.6529  0.9690
  258MOL0     H34825  -0.204   6.964   7.633  0.5501 -0.8039 -0.5139
  258MOL0     H34826  -0.338   7.095   7.471  2.5797 -0.9113  0.0556
  258MOL0     H34827  -0.375   7.120   7.644  2.3652 -0.9170  1.0778
  258MOL0     H34828  -0.740   6.984   7.452 -1.8732  3.3363  2.2432
  258MOL0     H34829  -0.053   6.571   7.488 -0.9239 -0.1902  1.3027
  258MOL0     H34830   0.127   6.419   7.527 -0.8080 -2.8308  0.6220
  259MOL0     O34831  11.084   8.894   3.670 -0.3631 -0.1649  0.1040
  259MOL0     C34832  10.993   8.934   3.748 -0.5534  0.3040  0.4676
  259MOL0     O34833  10.975   8.893   3.883 -0.8171  0.3954  0.4867
  259MOL0     C34834  11.076   8.812   3.928  0.3480 -0.2970 -0.2114
  259MOL0     C34835  11.188   8.866   3.998 -0.3649  0.7842 -0.3732
  259MOL0     C34836  11.299   8.786   4.035 -0.2031  1.0007  0.1829
  259MOL0     C34837  11.296   8.642   3.999  0.0352  0.0227 -0.2856
  259MOL0     O34838  11.395   8.561   4.034  0.0589 -0.0047 -0.2061
  259MOL0     C34839  11.512   8.573   3.952  0.6777 -0.1559  0.9248
  259MOL0     C34840  11.623   8.481   3.986  0.3426 -0.3379  0.3004
  259MOL0     C34841  11.752   8.526   3.918  0.3780  0.2555  0.3461
  259MOL0     C34842  11.760   8.498   3.769  0.1440 -0.2538  0.1374
  259MOL0     C34843  11.849   8.375   3.733 -0.4659 -0.8478  1.3564
  259MOL0     C34844  11.802   8.251   3.810 -0.1880  0.1864  0.0548
  259MOL0     C34845  11.682   8.183   3.741 -0.5285 -0.4956 -0.6137
  259MOL0     C34846  11.720   8.105   3.614 -0.4897  0.6339  0.2084
  259MOL0     N34847  11.600   8.074   3.531 -0.4932 -0.5985  0.4700
  259MOL0     C34848  11.485   8.013   3.571 -0.1820 -0.3141  0.2023
  259MOL0     C34849  11.412   7.992   3.461  0.2143  0.1989 -0.5176
  259MOL0     C34850  11.265   7.940   3.456 -1.2608  1.1449  0.7709
  259MOL0     C34851  11.171   7.987   3.344  0.3140  0.2414 -0.3737
  259MOL0     C34852  11.147   8.139   3.352 -0.4072 -0.2078  0.1581
  259MOL0     C34853  11.025   8.174   3.267  0.6351 -0.6337 -0.1075
  259MOL0     O34854  11.035   8.112   3.143 -0.2704  0.1450 -0.3502
  259MOL0     C34855  10.923   8.052   3.092 -0.0928 -1.0997 -0.5378
  259MOL0     C34856  10.787   8.089   3.124 -0.1186  0.0281  0.3046
  259MOL0     C34857  10.678   8.028   3.063 -0.4207 -0.2594  0.3138
  259MOL0     C34858  10.540   8.086   3.102 -0.1168 -0.2228  0.8667
  259MOL0     C34859  10.698   7.928   2.964  0.0202 -0.6197  0.9278
  259MOL0     C34860  10.581   7.869   2.892  0.1528 -0.1114 -0.0952
  259MOL0     O34861  10.462   7.952   2.868  0.4463 -0.1755 -0.0849
  259MOL0     C34862  10.340   7.894   2.855 -0.6452 -0.1427 -0.2961
  259MOL0     C34863  10.280   7.924   2.738  0.2626  0.1230  1.1290
  259MOL0     C34864  10.164   7.852   2.704 -0.3131  0.0685  0.1967
  259MOL0     C34865  10.110   7.750   2.789 -0.2296  0.3236  0.5991
  259MOL0     O34866   9.991   7.687   2.766 -0.1281  0.2143 -0.0904
  259MOL0     C34867   9.899   7.738   2.668  0.4011  0.2287 -0.0329
  259MOL0     C34868   9.766   7.739   2.741  0.2073 -0.2242  0.1382
  259MOL0     C34869   9.668   7.819   2.652  0.5321 -0.3975  0.0562
  259MOL0     C34870   9.528   7.804   2.714  0.1985  0.0086 -1.1238
  259MOL0     C34871   9.420   7.876   2.639 -0.3027 -0.9155  0.0091
  259MOL0     C34872   9.284   7.828   2.676 -0.9629  0.7832  0.1734
  259MOL0     C34873   9.181   7.875   2.585 -0.3939 -0.3374  0.6541
  259MOL0     C34874   9.045   7.846   2.644 -0.0856 -0.0448  0.7308
  259MOL0    Cl34875   8.926   7.863   2.510 -0.1406 -0.4259 -0.1448
  259MOL0     C34876  10.174   7.719   2.910 -0.3043  0.6844 -0.8676
  259MOL0     C34877  10.292   7.791   2.947  0.3309 -0.4953 -0.5538
  259MOL0     O34878  10.594   7.752   2.864  0.6918 -0.0745 -0.6125
  259MOL0     C34879  10.833   7.886   2.940  0.5513 -0.1735  0.3470
  259MOL0     C34880  10.940   7.948   3.001  0.7254  0.3951  0.8307
  259MOL0     N34881  11.483   8.029   3.353  0.2636  0.3012  0.2901
  259MOL0     N34882  11.595   8.080   3.394 -0.4096 -0.1767  0.1067
  259MOL0     C34883  11.183   8.587   3.939  0.4120 -0.0844  1.0223
  259MOL0     C34884  11.086   8.677   3.898  0.2227  0.5190 -0.1684
  259MOL0     C34885  10.883   9.012   3.684 -0.1375 -0.3165 -0.8711
  259MOL0     C34886  10.907   9.089   3.573 -0.1709 -0.0740 -0.3060
  259MOL0     C34887  10.816   9.180   3.532 -0.6065 -0.7598 -0.0455
  259MOL0     C34888  10.697   9.212   3.609  0.1869 -0.2275 -0.1566
  259MOL0     O34889  10.589   9.281   3.565  0.3148 -0.3301 -0.5643
  259MOL0     C34890  10.603   9.364   3.446  0.3142 -0.4088  0.5525
  259MOL0     C34891  10.494   9.477   3.440 -1.2691  0.1460 -0.0080
  259MOL0     C34892  10.347   9.424   3.449  0.0136  0.8411 -0.5750
  259MOL0     C34893  10.274   9.439   3.308  0.0915 -0.9420  0.4368
  259MOL0     C34894  10.132   9.403   3.305  0.3486 -0.5975  0.3188
  259MOL0     C34895  10.013   9.389   3.319 -0.3889 -0.0483  0.2998
  259MOL0     C34896  10.683   9.138   3.724  0.5923 -1.1280  0.2368
  259MOL0     C34897  10.775   9.039   3.762 -0.2733 -1.2480  0.4268
  259MOL0     H34898  11.200   8.971   4.022  1.5304  0.8873 -1.5127
  259MOL0     H34899  11.387   8.814   4.092  2.1399 -1.4407 -1.9630
  259MOL0     H34900  11.486   8.578   3.845  1.8486  0.8876  0.6593
  259MOL0     H34901  11.546   8.676   3.970 -2.9716  1.9574 -2.5257
  259MOL0     H34902  11.637   8.469   4.094 -2.4762 -0.5460  0.7154
  259MOL0     H34903  11.598   8.383   3.943 -0.0264 -0.4577  0.7707
  259MOL0     H34904  11.765   8.631   3.948  2.2842 -0.3016  1.7021
  259MOL0     H34905  11.838   8.481   3.969  1.4727  1.7011 -0.1239
  259MOL0     H34906  11.661   8.472   3.730  0.3457 -2.5232  0.9869
  259MOL0     H34907  11.793   8.588   3.714  0.9442 -0.1747  0.7197
  259MOL0     H34908  11.830   8.372   3.625  0.8730 -0.9526  1.1076
  259MOL0     H34909  11.956   8.392   3.748 -0.3555  0.7294 -0.6554
  259MOL0     H34910  11.881   8.175   3.816 -1.3976 -1.1304 -0.3275
  259MOL0     H34911  11.784   8.263   3.917 -1.2560 -0.2019 -0.0666
  259MOL0     H34912  11.638   8.108   3.808 -0.0347 -2.5936 -2.5064
  259MOL0     H34913  11.605   8.259   3.725  0.4616  0.0358 -3.5256
  259MOL0     H34914  11.771   8.012   3.640  1.7431  2.2076  1.7701
  259MOL0     H34915  11.796   8.160   3.558  1.4681 -0.8112  1.2907
  259MOL0     H34916  11.459   7.988   3.673  2.2411  0.7711  1.1765
  259MOL0     H34917  11.270   7.831   3.463  1.8190  1.0231 -1.6737
  259MOL0     H34918  11.219   7.970   3.551 -2.3806 -1.9163  1.3444
  259MOL0     H34919  11.072   7.941   3.344  0.5066 -0.1787  0.4838
  259MOL0     H34920  11.216   7.962   3.247  3.6408 -2.4883  1.6730
  259MOL0     H34921  11.236   8.195   3.322 -0.1348  0.3431  1.8760
  259MOL0     H34922  11.127   8.171   3.455 -2.4614 -0.3621 -0.1552
  259MOL0     H34923  11.016   8.282   3.253 -0.2956 -0.5406  1.0607
  259MOL0     H34924  10.937   8.144   3.323  0.4647 -0.6784 -0.3972
  259MOL0     H34925  10.775   8.183   3.178  1.4340  0.8342 -0.6732
  259MOL0     H34926  10.492   8.127   3.012  0.8479 -2.4157 -0.7320
  259MOL0     H34927  10.486   7.996   3.132 -0.7216  0.1422  0.8856
  259MOL0     H34928  10.552   8.169   3.172  2.5422 -0.1708  0.4487
  259MOL0     H34929  10.330   7.983   2.663 -1.3943  0.4985  0.2602
  259MOL0     H34930  10.124   7.874   2.605  1.7008 -1.4931 -1.0401
  259MOL0     H34931   9.921   7.837   2.626  1.2631 -0.7938 -2.1618
  259MOL0     H34932   9.896   7.671   2.582  0.5305  1.6027 -1.1549
  259MOL0     H34933   9.724   7.638   2.729  0.0919 -0.2093  0.4150
  259MOL0     H34934   9.774   7.769   2.845  1.6674  2.4989 -0.6652
  259MOL0     H34935   9.676   7.783   2.549 -3.6694 -1.5843 -0.0205
  259MOL0     H34936   9.692   7.926   2.663  1.4411 -0.6580  0.7762
  259MOL0     H34937   9.509   7.696   2.725  0.6959 -0.0838 -1.1242
  259MOL0     H34938   9.532   7.849   2.814 -0.0941 -0.6961 -0.7845
  259MOL0     H34939   9.449   7.858   2.535  2.6188 -1.0874  0.7494
  259MOL0     H34940   9.429   7.984   2.653 -0.0366 -0.8614 -0.5241
  259MOL0     H34941   9.286   7.719   2.676  1.2799  0.7430 -1.2155
  259MOL0     H34942   9.257   7.859   2.777 -2.4141  0.0493  0.0354
  259MOL0     H34943   9.201   7.820   2.492  1.2930 -2.0430  1.9433
  259MOL0     H34944   9.202   7.980   2.565  1.2384 -0.7734 -0.0867
  259MOL0     H34945   9.034   7.911   2.732 -0.4083  0.8786  0.0186
  259MOL0     H34946   9.045   7.744   2.685  0.5839 -2.1510 -3.9062
  259MOL0     H34947  10.134   7.630   2.956 -1.0766  1.1270 -0.6725
  259MOL0     H34948  10.362   7.753   3.021  0.8091  2.5833  0.7314
  259MOL0     H34949  10.844   7.804   2.871  0.5958  1.0513 -1.1546
  259MOL0     H34950  11.041   7.909   2.990 -0.1534 -1.9263  0.6070
  259MOL0     H34951  11.169   8.484   3.907 -0.7091  0.7318 -1.3718
  259MOL0     H34952  11.002   8.635   3.842  1.9702 -2.9834 -0.4527
  259MOL0     H34953  10.997   9.073   3.515  0.9584 -2.1082  1.8253
  259MOL0     H34954  10.849   9.241   3.448 -0.5692  2.8790  2.4005
  259MOL0     H34955  10.693   9.426   3.454  0.0238  0.0515  0.2817
  259MOL0     H34956  10.599   9.307   3.352 -3.2593  1.7136 -0.7863
  259MOL0     H34957  10.509   9.540   3.352  0.1345  1.7450  1.3095
  259MOL0     H34958  10.511   9.546   3.523  2.2742  0.5977 -0.9470
  259MOL0     H34959  10.288   9.491   3.512 -1.0416 -0.2966 -0.3262
  259MOL0     H34960  10.344   9.321   3.485  1.3718  1.0907  0.3540
  259MOL0     H34961  10.324   9.377   3.234 -1.9171 -0.2711 -1.6127
  259MOL0     H34962  10.276   9.545   3.279  0.5650 -1.1508 -0.3075
  259MOL0     H34963   9.907   9.381   3.333 -0.5645  1.9512  0.3894
  259MOL0     H34964  10.590   9.150   3.779  0.4593 -2.5373  0.3327
  259MOL0     H34965  10.764   8.998   3.862 -0.0262 -0.5857  0.7305
  260MOL0     O34966   4.976   8.706   6.529  0.0767 -0.0828 -0.4572
  260MOL0     C34967   4.996   8.609   6.457 -0.1326 -0.4929 -0.5163
  260MOL0     O34968   4.909   8.552   6.381 -0.2546  1.1351 -0.0466
  260MOL0     C34969   4.780   8.568   6.418  0.5267  0.3419 -0.3481
  260MOL0     C34970   4.703   8.612   6.307  0.1717  0.7432 -0.1263
  260MOL0     C34971   4.566   8.642   6.335  0.1473  0.4033  0.0697
  260MOL0     C34972   4.500   8.610   6.458 -1.5307  0.1338 -0.1828
  260MOL0     O34973   4.373   8.626   6.478  0.9544  0.0304 -0.1987
  260MOL0     C34974   4.316   8.617   6.611  0.5621 -0.6768 -0.4938
  260MOL0     C34975   4.164   8.645   6.604  0.7406  0.1051  0.3350
  260MOL0     C34976   4.090   8.562   6.496 -0.7438  0.5384  1.0160
  260MOL0     C34977   3.941   8.592   6.485  0.2939  0.2168  0.9195
  260MOL0     C34978   3.870   8.508   6.373  0.0054 -0.3980 -0.3997
  260MOL0     C34979   3.727   8.557   6.337  0.0267 -0.1044 -0.0479
  260MOL0     C34980   3.633   8.536   6.452  0.0594  0.5550  0.3322
  260MOL0     C34981   3.507   8.624   6.447  0.6617  0.7378 -0.2140
  260MOL0     N34982   3.402   8.575   6.361  0.2758  0.4122 -0.0017
  260MOL0     C34983   3.342   8.453   6.370  0.1368 -0.4262 -0.6576
  260MOL0     C34984   3.241   8.465   6.289  0.7661  0.0135  0.5439
  260MOL0     C34985   3.116   8.379   6.287  0.7737  0.0262 -0.0924
  260MOL0     C34986   3.145   8.231   6.268 -0.0907  0.2258 -0.1122
  260MOL0     C34987   3.012   8.144   6.247 -0.0865  0.3092  0.0530
  260MOL0     C34988   3.046   7.991   6.270  0.1000  0.2933 -0.5246
  260MOL0     O34989   2.926   7.911   6.259 -0.0857 -0.9488  0.6165
  260MOL0     C34990   2.861   7.913   6.138 -0.3509 -0.1549 -0.2988
  260MOL0     C34991   2.738   7.973   6.121 -0.9520  0.2373  0.0564
  260MOL0     C34992   2.682   7.970   5.995  0.4710  0.6615 -0.1190
  260MOL0     C34993   2.546   8.026   5.994 -0.0338  0.0022 -0.0869
  260MOL0     C34994   2.743   7.908   5.888 -1.4530 -1.2180  0.2711
  260MOL0     C34995   2.695   7.890   5.751  0.7995 -0.3645 -1.0257
  260MOL0     O34996   2.748   7.792   5.671 -0.3467 -0.1497 -0.1134
  260MOL0     C34997   2.695   7.756   5.545 -0.3039  0.1565 -0.4616
  260MOL0     C34998   2.647   7.853   5.457 -0.4660 -0.5461 -0.0226
  260MOL0     C34999   2.586   7.817   5.335 -1.1356 -0.4964 -0.0744
  260MOL0     C35000   2.577   7.679   5.300 -0.0490 -0.0480  0.4628
  260MOL0     O35001   2.525   7.650   5.171 -0.1725 -0.4887  0.2500
  260MOL0     C35002   2.504   7.514   5.128 -0.1388 -0.0281 -0.0225
  260MOL0     C35003   2.440   7.501   4.999 -0.0685  0.2936 -0.6886
  260MOL0     C35004   2.311   7.583   4.976  0.2027 -0.5375  0.2453
  260MOL0     C35005   2.196   7.536   5.061  0.1677  0.0812  0.6147
  260MOL0     C35006   2.069   7.614   5.037  0.6220 -1.0940  0.3433
  260MOL0     C35007   2.091   7.764   5.066  0.6682  0.9319 -0.2181
  260MOL0     C35008   2.136   7.782   5.210 -0.4898  0.0927 -0.1093
  260MOL0     C35009   2.122   7.925   5.259 -0.2297  0.6855  0.3641
  260MOL0    Cl35010   2.188   7.928   5.425  0.1106  0.2859 -0.1763
  260MOL0     C35011   2.618   7.583   5.396 -0.2777  0.7579  0.1434
  260MOL0     C35012   2.676   7.623   5.517 -0.2870  0.2760  0.2754
  260MOL0     O35013   2.594   7.954   5.727  0.1150 -0.3526  1.0865
  260MOL0     C35014   2.865   7.833   5.913  0.6852 -0.5350  0.7891
  260MOL0     C35015   2.917   7.842   6.042  0.4191  0.6431  0.7760
  260MOL0     N35016   3.240   8.587   6.216 -0.2931  0.2172 -0.5583
  260MOL0     N35017   3.332   8.656   6.279 -0.3281  0.2359  0.5651
  260MOL0     C35018   4.586   8.546   6.561  0.5127 -0.4763  0.1052
  260MOL0     C35019   4.720   8.542   6.546 -0.0574 -0.3015  0.5948
  260MOL0     C35020   5.136   8.566   6.442 -0.1888  0.0473  0.1484
  260MOL0     C35021   5.173   8.486   6.330  0.1414  0.1010 -0.1251
  260MOL0     C35022   5.307   8.435   6.306 -0.1442 -0.9313  0.1776
  260MOL0     C35023   5.412   8.481   6.389 -0.1981  0.3504 -0.6344
  260MOL0     O35024   5.552   8.452   6.385 -0.1301  0.0171  0.1703
  260MOL0     C35025   5.592   8.356   6.289 -0.4100  0.2680 -0.3309
  260MOL0     C35026   5.745   8.358   6.278 -0.7129 -0.9767 -0.4553
  260MOL0     C35027   5.808   8.320   6.145 -0.3360  0.0830 -0.0193
  260MOL0     C35028   5.955   8.279   6.155  0.6643 -0.2575 -0.7048
  260MOL0     C35029   6.060   8.372   6.205  1.3214  0.0346  0.4459
  260MOL0     C35030   6.158   8.441   6.245 -0.2087  0.5928  0.1564
  260MOL0     C35031   5.376   8.558   6.499  0.0154 -0.6815  0.0592
  260MOL0     C35032   5.240   8.595   6.530 -0.8630  0.5112  0.1275
  260MOL0     H35033   4.745   8.623   6.207 -0.0172 -1.8261 -0.5470
  260MOL0     H35034   4.509   8.671   6.247 -1.5478 -1.3364  0.5398
  260MOL0     H35035   4.330   8.513   6.644  0.8932 -0.3185  0.5396
  260MOL0     H35036   4.351   8.681   6.692 -0.8945 -0.6123  0.1183
  260MOL0     H35037   4.121   8.602   6.695 -1.6623 -1.7221 -1.5330
  260MOL0     H35038   4.148   8.753   6.590  1.6677 -0.0767 -3.0919
  260MOL0     H35039   4.139   8.577   6.400 -1.8824  2.0599  0.6256
  260MOL0     H35040   4.103   8.459   6.530  2.3627  0.4717 -0.1023
  260MOL0     H35041   3.897   8.581   6.585  0.2661 -0.7646  0.8065
  260MOL0     H35042   3.933   8.697   6.454  0.2331  0.0880  0.4901
  260MOL0     H35043   3.924   8.511   6.279 -0.9813 -0.0461 -0.9716
  260MOL0     H35044   3.859   8.403   6.405 -1.2557  0.1880  1.2557
  260MOL0     H35045   3.721   8.661   6.304 -4.1498 -0.9426 -2.6275
  260MOL0     H35046   3.697   8.502   6.247  1.9221  3.2427 -2.9840
  260MOL0     H35047   3.591   8.435   6.444  1.3851 -0.3098  3.1399
  260MOL0     H35048   3.685   8.539   6.547  0.6140  1.3609  0.0074
  260MOL0     H35049   3.527   8.728   6.420 -4.1764  1.7046 -1.1490
  260MOL0     H35050   3.475   8.621   6.552 -0.9592 -1.9671 -0.6845
  260MOL0     H35051   3.376   8.380   6.444  1.0236 -1.8470 -2.3664
  260MOL0     H35052   3.049   8.402   6.371 -1.3851  0.6212 -1.8938
  260MOL0     H35053   3.060   8.402   6.197  1.7091  0.0584 -0.6804
  260MOL0     H35054   3.191   8.202   6.363 -1.0250  2.1624  0.9651
  260MOL0     H35055   3.218   8.218   6.187  1.2827  0.3484  1.0485
  260MOL0     H35056   2.975   8.154   6.144 -1.6036  1.2637  0.6494
  260MOL0     H35057   2.938   8.173   6.322 -0.4059 -1.7658  0.6001
  260MOL0     H35058   3.077   7.984   6.374 -0.2543  0.5586 -0.3998
  260MOL0     H35059   3.122   7.954   6.200  0.8800 -0.8048  0.8450
  260MOL0     H35060   2.701   8.020   6.211 -2.5643 -2.2829  0.8127
  260MOL0     H35061   2.527   8.082   5.902  0.2810 -0.3510 -0.3730
  260MOL0     H35062   2.474   7.944   6.005  0.1273  0.0139  1.2131
  260MOL0     H35063   2.528   8.092   6.079  0.1618  0.7162 -0.5889
  260MOL0     H35064   2.655   7.959   5.476 -0.0874 -1.0208  2.9791
  260MOL0     H35065   2.548   7.895   5.270 -1.2725 -2.1773 -2.1055
  260MOL0     H35066   2.597   7.456   5.137  1.6184  2.4238 -1.2098
  260MOL0     H35067   2.443   7.459   5.200 -0.8096 -1.4110 -1.5685
  260MOL0     H35068   2.512   7.519   4.919 -1.0179  1.2216 -1.3703
  260MOL0     H35069   2.423   7.393   5.002 -0.0018  0.2250 -2.0265
  260MOL0     H35070   2.293   7.570   4.869  1.4271  0.9737 -0.1979
  260MOL0     H35071   2.332   7.691   4.980  1.5511 -0.6501 -1.7829
  260MOL0     H35072   2.173   7.434   5.031  2.0043 -1.0616  2.7926
  260MOL0     H35073   2.232   7.525   5.164  0.2500 -0.3755  0.5374
  260MOL0     H35074   1.994   7.592   5.113 -1.7221  3.8095 -0.1742
  260MOL0     H35075   2.028   7.596   4.937 -1.3220 -0.6005  1.0180
  260MOL0     H35076   2.162   7.808   4.995  2.9496 -0.3526  1.1729
  260MOL0     H35077   1.993   7.806   5.042  1.3658  2.0834 -1.1440
  260MOL0     H35078   2.237   7.742   5.220 -0.3121  0.0164 -1.8453
  260MOL0     H35079   2.073   7.728   5.281  0.5046  0.0676  0.7816
  260MOL0     H35080   2.017   7.955   5.265 -0.4289  0.0736  0.0171
  260MOL0     H35081   2.164   7.998   5.190 -2.2158  0.1991 -1.4554
  260MOL0     H35082   2.589   7.479   5.382 -1.7528  1.3150 -1.2451
  260MOL0     H35083   2.696   7.547   5.592  2.1049  0.7147  0.1641
  260MOL0     H35084   2.918   7.776   5.837  1.6035  2.9245 -1.4125
  260MOL0     H35085   3.013   7.791   6.054 -0.0210  0.1164  2.3379
  260MOL0     H35086   4.549   8.524   6.660 -1.8381  0.9533 -0.3705
  260MOL0     H35087   4.786   8.506   6.624 -1.9050 -1.2835  1.7687
  260MOL0     H35088   5.097   8.458   6.258 -0.2286 -0.2948  0.4113
  260MOL0     H35089   5.321   8.379   6.214 -0.0143  1.2171 -1.1809
  260MOL0     H35090   5.555   8.257   6.317 -2.4298  1.1185  0.1133
  260MOL0     H35091   5.544   8.381   6.194  0.4552 -0.3647 -0.9556
  260MOL0     H35092   5.787   8.293   6.355  1.6102 -0.1998 -0.9888
  260MOL0     H35093   5.783   8.459   6.294 -1.1409 -1.1440  2.0005
  260MOL0     H35094   5.792   8.407   6.080 -0.1179  0.4985  0.4718
  260MOL0     H35095   5.751   8.237   6.104 -0.2024 -1.2154  2.2377
  260MOL0     H35096   5.980   8.237   6.057 -3.5036 -3.2629 -0.7388
  260MOL0     H35097   5.956   8.193   6.222 -1.0565 -0.6346 -1.1011
  260MOL0     H35098   6.228   8.519   6.268  0.7376  0.2258 -1.3336
  260MOL0     H35099   5.451   8.588   6.571 -0.5869  0.1684  0.3563
  260MOL0     H35100   5.216   8.640   6.626 -0.8345 -0.5038  0.6222
  261MOL0     O35101   0.903   2.916   3.315 -0.3109  0.0656  0.1243
  261MOL0     C35102   0.929   3.015   3.256 -0.7515 -1.1872  0.1963
  261MOL0     O35103   0.850   3.079   3.167 -0.0680  0.5145  0.3303
  261MOL0     C35104   0.713   3.042   3.148 -0.6058 -0.2450  0.0539
  261MOL0     C35105   0.630   3.022   3.255  0.3773 -0.7900 -0.2807
  261MOL0     C35106   0.505   2.974   3.238  0.8514  0.8878  0.6165
  261MOL0     C35107   0.448   2.964   3.114  0.5930  0.3947  0.3224
  261MOL0     O35108   0.319   2.936   3.086  0.0025 -0.1956 -0.2607
  261MOL0     C35109   0.234   2.915   3.199  0.8433  0.1394 -0.5738
  261MOL0     C35110   0.261   2.774   3.246 -0.2772  0.0260  0.0261
  261MOL0     C35111   0.254   2.659   3.139  0.8263  0.2447 -0.3672
  261MOL0     C35112   0.278   2.523   3.211 -1.0657  0.7203 -0.3078
  261MOL0     C35113   0.147   2.451   3.272  0.3371  1.0003  0.7000
  261MOL0     C35114   0.046   2.415   3.165  0.4754  0.5089  0.5711
  261MOL0     C35115  -0.048   2.291   3.192 -0.3572  0.9105  0.5498
  261MOL0     C35116  -0.160   2.319   3.291  0.3839  0.1146 -0.5480
  261MOL0     N35117  -0.110   2.324   3.432 -0.1963  0.4775 -0.4750
  261MOL0     C35118  -0.082   2.214   3.511  0.3592 -0.7466 -0.4985
  261MOL0     C35119  -0.053   2.259   3.636 -0.0231 -0.0291 -0.7803
  261MOL0     C35120  -0.039   2.181   3.762 -0.3652 -0.7493 -0.2565
  261MOL0     C35121  -0.066   2.250   3.905 -0.4461 -0.1256  0.4058
  261MOL0     C35122  -0.093   2.152   4.013 -0.5529  0.5187  0.4197
  261MOL0     C35123  -0.093   2.245   4.139  0.0351  0.6500 -0.0270
  261MOL0     O35124  -0.118   2.163   4.257  0.0747  0.0197  0.7533
  261MOL0     C35125  -0.015   2.095   4.321  0.6278 -0.4679 -0.0467
  261MOL0     C35126  -0.055   2.033   4.444  0.1805  1.0697  0.0383
  261MOL0     C35127   0.042   1.985   4.540 -0.5592 -0.1092  0.7997
  261MOL0     C35128  -0.021   1.946   4.674 -0.4155 -0.7173 -0.5148
  261MOL0     C35129   0.176   1.974   4.499  0.0488 -0.2135 -0.1855
  261MOL0     C35130   0.278   1.893   4.576  0.9965  0.0190  0.4594
  261MOL0     O35131   0.364   1.830   4.497 -0.1769  0.3865  0.4499
  261MOL0     C35132   0.496   1.804   4.549  1.3949 -0.9743  0.1250
  261MOL0     C35133   0.566   1.916   4.588 -0.0166  0.3154  0.1693
  261MOL0     C35134   0.691   1.897   4.646 -0.0335  0.9086 -0.5829
  261MOL0     C35135   0.744   1.770   4.688 -0.2755 -0.4760  0.2398
  261MOL0     O35136   0.858   1.759   4.766 -0.2453  0.2766 -0.2425
  261MOL0     C35137   0.866   1.665   4.876  0.3203  0.2389 -0.1228
  261MOL0     C35138   1.006   1.664   4.933  0.3572 -0.0248  0.6437
  261MOL0     C35139   1.014   1.540   5.027 -0.2803  0.0346  0.3814
  261MOL0     C35140   1.163   1.513   5.044  0.0642  0.5067 -0.4564
  261MOL0     C35141   1.198   1.395   4.953  0.7818 -0.7217 -0.4552
  261MOL0     C35142   1.169   1.257   5.011 -0.7538 -0.5968  0.6123
  261MOL0     C35143   1.280   1.202   5.105 -0.3932 -0.2531  1.0923
  261MOL0     C35144   1.230   1.093   5.204  0.5852 -1.0570  0.2793
  261MOL0    Cl35145   1.218   0.936   5.124  0.1386 -0.3941 -0.7931
  261MOL0     C35146   0.672   1.662   4.634 -0.4502  0.4051 -0.4324
  261MOL0     C35147   0.549   1.678   4.560  1.1208  0.1386 -0.0027
  261MOL0     O35148   0.284   1.891   4.694 -0.0460  0.0102  0.3496
  261MOL0     C35149   0.207   2.031   4.374  0.1537 -0.1882 -0.1472
  261MOL0     C35150   0.122   2.103   4.296  0.0849  0.3702 -0.0915
  261MOL0     N35151  -0.080   2.395   3.642 -0.9773 -0.1604 -0.0652
  261MOL0     N35152  -0.114   2.439   3.520 -0.5677  0.2699 -0.3851
  261MOL0     C35153   0.534   2.991   3.000 -0.1144 -0.1073 -0.5056
  261MOL0     C35154   0.661   3.031   3.020 -0.1056 -0.1529  0.0170
  261MOL0     C35155   1.063   3.069   3.279  0.5368 -0.3390  0.6527
  261MOL0     C35156   1.166   2.989   3.319  0.3013 -0.2679  1.3030
  261MOL0     C35157   1.295   3.043   3.313  0.4677 -0.1273 -1.7621
  261MOL0     C35158   1.326   3.176   3.284 -0.3098 -0.5392  0.7244
  261MOL0     O35159   1.456   3.224   3.274 -0.6221  0.4573  0.2063
  261MOL0     C35160   1.575   3.148   3.307 -0.4288 -0.1100  0.4883
  261MOL0     C35161   1.603   3.141   3.455  0.5780 -0.5683  0.4737
  261MOL0     C35162   1.707   3.037   3.496  0.6145  0.1877  0.3613
  261MOL0     C35163   1.695   3.007   3.648 -0.5559  0.2897 -0.4446
  261MOL0     C35164   1.582   2.911   3.677 -0.3454  0.4880  0.2750
  261MOL0     C35165   1.486   2.845   3.691 -0.8095 -0.2941  0.4327
  261MOL0     C35166   1.221   3.260   3.245  0.6707 -0.2982 -0.3938
  261MOL0     C35167   1.089   3.203   3.234 -0.8479 -0.2374  0.5294
  261MOL0     H35168   0.664   3.034   3.357 -2.9767  1.5742  0.7160
  261MOL0     H35169   0.452   2.940   3.327 -2.0841 -0.5496 -1.4809
  261MOL0     H35170   0.251   2.996   3.271  0.1798 -0.6305  0.4682
  261MOL0     H35171   0.134   2.914   3.155  1.5828  1.6714 -2.4371
  261MOL0     H35172   0.356   2.758   3.297 -0.8757 -1.4465  0.7329
  261MOL0     H35173   0.173   2.746   3.306 -1.0476 -0.8885 -1.4617
  261MOL0     H35174   0.159   2.659   3.083  2.9078  3.5314 -4.4846
  261MOL0     H35175   0.326   2.672   3.057  3.3223  1.0637  1.8319
  261MOL0     H35176   0.326   2.456   3.139 -1.4053  0.3928 -0.2269
  261MOL0     H35177   0.353   2.535   3.290 -2.3716  0.6693  0.9845
  261MOL0     H35178   0.175   2.357   3.318 -3.6057 -1.1572 -0.8686
  261MOL0     H35179   0.090   2.511   3.343 -0.9119 -2.4845  2.8732
  261MOL0     H35180  -0.021   2.499   3.146 -0.5686 -0.0929  1.4336
  261MOL0     H35181   0.104   2.405   3.072  0.1836 -0.6631  0.4973
  261MOL0     H35182  -0.083   2.251   3.097  1.2655  1.5692 -0.3636
  261MOL0     H35183   0.017   2.213   3.232  0.5485  1.5760  0.4139
  261MOL0     H35184  -0.237   2.243   3.274 -1.0302  1.9229 -2.6315
  261MOL0     H35185  -0.202   2.416   3.265 -1.4340 -0.8908 -1.6232
  261MOL0     H35186  -0.074   2.113   3.473  1.0730 -0.5693 -0.8420
  261MOL0     H35187  -0.108   2.097   3.759 -0.2510 -0.8078 -2.6464
  261MOL0     H35188   0.059   2.134   3.776 -0.0088 -0.1192 -0.5727
  261MOL0     H35189  -0.147   2.323   3.893 -0.9160 -0.7364 -0.1681
  261MOL0     H35190   0.022   2.310   3.930 -1.2180  1.5043 -0.5732
  261MOL0     H35191  -0.020   2.071   4.023 -2.6442 -1.6673 -0.7824
  261MOL0     H35192  -0.192   2.108   3.993  0.3715 -0.8987 -1.3170
  261MOL0     H35193  -0.166   2.327   4.142 -0.1197  0.4976  2.2923
  261MOL0     H35194  -0.008   2.313   4.156  0.4252 -0.6673  4.5128
  261MOL0     H35195  -0.160   2.035   4.470  0.2144  1.5869  0.1559
  261MOL0     H35196   0.033   1.980   4.763 -0.2322  0.0664 -0.9159
  261MOL0     H35197  -0.122   1.988   4.672  0.2721  1.0335 -1.1046
  261MOL0     H35198  -0.004   1.839   4.686  0.3308 -0.3807  2.2109
  261MOL0     H35199   0.526   2.016   4.577 -1.8249 -0.2464  1.2466
  261MOL0     H35200   0.766   1.969   4.678  2.0434 -1.4160  0.1079
  261MOL0     H35201   0.804   1.697   4.960 -0.4664  0.9169 -0.9426
  261MOL0     H35202   0.839   1.565   4.840 -0.8433  0.1001  1.0932
  261MOL0     H35203   1.073   1.662   4.846 -3.3236 -3.0524 -2.5463
  261MOL0     H35204   1.029   1.754   4.989  3.4134 -0.1133 -0.3000
  261MOL0     H35205   0.951   1.454   5.001 -1.6175  0.8761  0.7384
  261MOL0     H35206   0.974   1.567   5.125  1.3013  0.4418  0.9417
  261MOL0     H35207   1.214   1.605   5.015 -1.7253  2.0783  1.1437
  261MOL0     H35208   1.191   1.505   5.149  0.6775  0.0519 -0.6495
  261MOL0     H35209   1.303   1.402   4.924  1.2526  2.1735  1.5531
  261MOL0     H35210   1.134   1.404   4.864  0.2816 -0.2513 -0.0503
  261MOL0     H35211   1.072   1.264   5.061 -0.7066 -0.5729  0.6993
  261MOL0     H35212   1.160   1.186   4.928 -0.8321 -1.9931  1.7781
  261MOL0     H35213   1.326   1.286   5.159 -0.7440 -0.1825  1.2888
  261MOL0     H35214   1.348   1.145   5.043  1.8571 -0.0741  3.2449
  261MOL0     H35215   1.131   1.115   5.243 -0.4844 -2.0695 -1.7386
  261MOL0     H35216   1.305   1.074   5.281  0.8808 -1.5111 -0.1108
  261MOL0     H35217   0.708   1.561   4.651  0.2245  0.8852  1.2352
  261MOL0     H35218   0.480   1.596   4.544  0.3055  0.8551 -0.1598
  261MOL0     H35219   0.307   2.027   4.333  1.3670  1.1066  2.4835
  261MOL0     H35220   0.156   2.162   4.211 -3.2871 -0.5380 -2.2777
  261MOL0     H35221   0.490   2.990   2.900 -2.0927  0.7521  0.2934
  261MOL0     H35222   0.714   3.058   2.930  0.1285  0.0050  0.2023
  261MOL0     H35223   1.149   2.882   3.329 -0.7221 -0.2665 -0.0431
  261MOL0     H35224   1.378   2.978   3.337  0.2682 -0.5787 -2.2659
  261MOL0     H35225   1.558   3.047   3.269  1.4125 -0.5414  0.7211
  261MOL0     H35226   1.664   3.180   3.251  1.0784 -4.2930  0.1814
  261MOL0     H35227   1.509   3.113   3.503 -0.3368  0.0186 -0.9335
  261MOL0     H35228   1.639   3.236   3.496 -0.4880  0.8798 -1.8030
  261MOL0     H35229   1.805   3.072   3.464 -0.4335  1.7042 -1.3818
  261MOL0     H35230   1.691   2.940   3.449  1.5736  0.6421 -0.9398
  261MOL0     H35231   1.690   3.095   3.713  2.2159 -0.6096  1.1655
  261MOL0     H35232   1.792   2.962   3.667 -1.0967  0.0308  2.0171
  261MOL0     H35233   1.400   2.781   3.695 -0.5640 -0.7752 -1.3657
  261MOL0     H35234   1.242   3.361   3.210  3.5908 -1.5994 -2.7884
  261MOL0     H35235   1.013   3.270   3.194 -1.0840 -2.4346 -3.1714
  262MOL0     O35236   7.954   5.274   8.941 -0.6060  0.2785 -0.3832
  262MOL0     C35237   7.884   5.349   9.003  0.5452 -0.2571 -0.0207
  262MOL0     O35238   7.921   5.472   9.053  0.6569 -0.4151 -0.3381
  262MOL0     C35239   8.049   5.531   9.037 -0.5379  0.7748 -0.4129
  262MOL0     C35240   8.050   5.661   9.079 -0.8187 -0.9947  0.2361
  262MOL0     C35241   8.167   5.746   9.046 -0.5357 -0.0239  0.1948
  262MOL0     C35242   8.287   5.696   8.997 -0.3988  0.0244  0.1958
  262MOL0     O35243   8.406   5.760   8.982  0.1279  0.1798  0.1363
  262MOL0     C35244   8.403   5.901   8.947 -0.4773 -0.2669 -0.3223
  262MOL0     C35245   8.544   5.965   8.981  0.3273 -0.5174 -0.3603
  262MOL0     C35246   8.572   6.088   8.905 -0.6195 -0.8886  0.3429
  262MOL0     C35247   8.657   6.190   8.988 -0.6807  0.0425  0.2188
  262MOL0     C35248   8.714   6.308   8.901  0.7332  0.5551  0.0682
  262MOL0     C35249   8.770   6.427   8.964  0.7139 -0.3610  0.0190
  262MOL0     C35250   8.872   6.400   9.083 -0.5230 -0.0874  0.0146
  262MOL0     C35251   8.957   6.522   9.117 -0.7471 -0.2086 -0.0445
  262MOL0     N35252   8.902   6.614   9.218  0.1976 -0.8138 -0.2929
  262MOL0     C35253   8.781   6.665   9.204 -0.3939  0.1663  0.4117
  262MOL0     C35254   8.775   6.761   9.294 -0.2246 -1.1085 -0.6450
  262MOL0     C35255   8.667   6.864   9.315 -0.2886 -0.6136 -0.4831
  262MOL0     C35256   8.542   6.805   9.370  0.3579  0.6441 -0.0206
  262MOL0     C35257   8.480   6.677   9.298  0.1174 -0.3465 -0.0325
  262MOL0     C35258   8.348   6.635   9.371 -0.0765 -0.1629 -0.3258
  262MOL0     O35259   8.243   6.725   9.330 -0.5763  0.7396  0.2803
  262MOL0     C35260   8.115   6.686   9.347 -0.1857 -0.3823 -0.2840
  262MOL0     C35261   8.078   6.597   9.452 -0.4050 -0.2676 -0.3820
  262MOL0     C35262   7.946   6.569   9.479  0.1607 -0.9073 -0.2104
  262MOL0     C35263   7.913   6.470   9.583  0.2364 -0.5077  0.3632
  262MOL0     C35264   7.845   6.634   9.410 -0.7916  0.4507  0.9070
  262MOL0     C35265   7.699   6.624   9.433 -0.1638  0.5382  0.1400
  262MOL0     O35266   7.652   6.511   9.488 -0.3490 -1.3399  0.0356
  262MOL0     C35267   7.519   6.492   9.496  0.7920 -0.5436 -0.1537
  262MOL0     C35268   7.447   6.569   9.583  0.8300  0.2646 -0.3560
  262MOL0     C35269   7.310   6.543   9.590 -0.0972 -0.3155  1.1724
  262MOL0     C35270   7.244   6.450   9.510 -0.4200 -0.4248 -0.3389
  262MOL0     O35271   7.106   6.447   9.515  0.4352  0.3362 -0.6454
  262MOL0     C35272   7.031   6.344   9.437  0.8952  0.6420  0.3165
  262MOL0     C35273   6.890   6.308   9.500  0.1101 -0.2750  0.7936
  262MOL0     C35274   6.827   6.197   9.412  0.2598  1.0060 -1.2069
  262MOL0     C35275   6.694   6.127   9.467 -0.0354 -1.3611 -0.3346
  262MOL0     C35276   6.619   6.037   9.363  0.3879  0.4615 -0.6231
  262MOL0     C35277   6.466   6.024   9.409 -0.0965  0.5428  0.3513
  262MOL0     C35278   6.372   6.149   9.384 -0.0978  0.5943 -0.2319
  262MOL0     C35279   6.229   6.148   9.446  0.5489  0.0126  1.4599
  262MOL0    Cl35280   6.225   6.095   9.607 -0.0866 -0.3304 -0.1853
  262MOL0     C35281   7.317   6.372   9.417 -0.0949 -0.3188 -0.7760
  262MOL0     C35282   7.456   6.404   9.411  1.5197  0.4670 -1.1271
  262MOL0     O35283   7.629   6.721   9.392 -0.1037  0.0554  0.0022
  262MOL0     C35284   7.880   6.715   9.306 -0.0699 -0.0969  0.4567
  262MOL0     C35285   8.007   6.735   9.269  1.1651  0.7136  0.2451
  262MOL0     N35286   8.886   6.775   9.373  0.2686 -0.3059  0.4999
  262MOL0     N35287   8.970   6.690   9.319  0.0995 -0.4874 -0.4990
  262MOL0     C35288   8.270   5.556   8.961 -0.8634 -0.4943 -0.1721
  262MOL0     C35289   8.154   5.481   8.965 -0.1137  0.2828  0.2030
  262MOL0     C35290   7.741   5.318   9.018  0.4734  0.3798  0.0144
  262MOL0     C35291   7.655   5.398   9.103  0.0160  0.1321 -0.3045
  262MOL0     C35292   7.528   5.356   9.113 -0.2122  0.0414  0.0765
  262MOL0     C35293   7.481   5.236   9.054  0.3881  0.2880  0.0633
  262MOL0     O35294   7.353   5.186   9.074  0.0187  0.3041  0.3914
  262MOL0     C35295   7.250   5.254   9.149  0.3077  0.2273  0.5542
  262MOL0     C35296   7.122   5.191   9.104  0.1183  0.6643  0.1340
  262MOL0     C35297   6.997   5.219   9.184 -0.2774 -0.3690  0.0912
  262MOL0     C35298   6.889   5.106   9.157 -1.1972 -1.2178  0.2912
  262MOL0     C35299   6.749   5.137   9.190 -0.0483 -0.3241 -0.3643
  262MOL0     C35300   6.634   5.185   9.195 -0.0223  0.3741 -0.1205
  262MOL0     C35301   7.554   5.162   8.974 -0.5291  0.0828 -0.0073
  262MOL0     C35302   7.681   5.199   8.954 -1.0954 -0.1077  0.4011
  262MOL0     H35303   7.968   5.701   9.138  0.2011  0.5673  0.6630
  262MOL0     H35304   8.169   5.846   9.088 -1.0458  1.3669 -2.7738
  262MOL0     H35305   8.391   5.918   8.840 -0.5565  2.5236  0.0448
  262MOL0     H35306   8.330   5.973   8.987  2.0692  2.8594 -0.8720
  262MOL0     H35307   8.525   5.993   9.085 -2.8367 -0.5055 -0.8422
  262MOL0     H35308   8.626   5.894   8.973  0.7422  0.0419 -1.1673
  262MOL0     H35309   8.616   6.049   8.813 -0.8774 -0.2931 -0.0414
  262MOL0     H35310   8.476   6.131   8.875 -1.0912 -2.6102 -0.6866
  262MOL0     H35311   8.604   6.234   9.073  2.2796  1.9282  1.2443
  262MOL0     H35312   8.742   6.134   9.028 -1.3319 -1.8503 -0.9227
  262MOL0     H35313   8.799   6.262   8.850 -0.8669 -1.6880 -0.7752
  262MOL0     H35314   8.640   6.335   8.825  0.9891  0.5992 -0.1679
  262MOL0     H35315   8.812   6.494   8.888 -2.3387 -1.0162 -2.4547
  262MOL0     H35316   8.683   6.482   9.004  1.3035 -1.3699  2.9791
  262MOL0     H35317   8.823   6.348   9.167  0.8169 -2.1473 -0.4190
  262MOL0     H35318   8.934   6.315   9.056  0.6135  1.1408 -1.3582
  262MOL0     H35319   8.975   6.578   9.025 -1.6695  0.7197  0.3211
  262MOL0     H35320   9.052   6.488   9.159 -1.6178 -0.3966  1.9260
  262MOL0     H35321   8.702   6.648   9.131 -2.1673  0.8526  2.0815
  262MOL0     H35322   8.699   6.932   9.395 -1.9237  0.5976 -0.7989
  262MOL0     H35323   8.647   6.920   9.223 -0.0609 -1.3416 -0.9809
  262MOL0     H35324   8.470   6.886   9.380 -1.7002 -1.1202 -0.0227
  262MOL0     H35325   8.578   6.779   9.470  3.1720 -0.7232 -1.2562
  262MOL0     H35326   8.546   6.590   9.306  0.2257 -0.3083 -0.4690
  262MOL0     H35327   8.464   6.690   9.190  1.6265 -2.8421 -0.6574
  262MOL0     H35328   8.371   6.646   9.477  1.5554  0.2111 -0.6838
  262MOL0     H35329   8.319   6.531   9.355 -4.6100  1.2389 -3.1978
  262MOL0     H35330   8.149   6.556   9.522 -2.4802 -2.4086  0.5907
  262MOL0     H35331   7.831   6.494   9.652  3.2459  1.1661  3.6648
  262MOL0     H35332   7.905   6.370   9.541  2.1133 -0.8762  0.7917
  262MOL0     H35333   7.993   6.458   9.656  2.4915  0.8536 -1.7035
  262MOL0     H35334   7.500   6.642   9.643 -0.9782  2.0380 -0.8042
  262MOL0     H35335   7.257   6.597   9.668 -1.3747  1.2354 -0.6576
  262MOL0     H35336   7.023   6.371   9.331  2.5978  3.3595  0.8125
  262MOL0     H35337   7.090   6.252   9.442 -0.6623 -0.3870  0.8386
  262MOL0     H35338   6.921   6.266   9.596  2.4249  0.3575  0.4004
  262MOL0     H35339   6.819   6.390   9.505 -0.4988 -0.5427 -1.7212
  262MOL0     H35340   6.899   6.114   9.411 -0.7436  0.1084 -1.2092
  262MOL0     H35341   6.826   6.238   9.310  0.5984  1.7955 -0.8929
  262MOL0     H35342   6.721   6.074   9.559  2.8223  0.1031 -0.2193
  262MOL0     H35343   6.626   6.212   9.478  2.5136  1.0526 -1.9384
  262MOL0     H35344   6.657   5.935   9.353 -0.4317 -0.4071  3.4213
  262MOL0     H35345   6.625   6.082   9.263  2.7508  0.9260 -0.3311
  262MOL0     H35346   6.418   5.936   9.364  1.7336  0.1261 -0.9505
  262MOL0     H35347   6.464   6.017   9.518  1.1164 -1.1253  0.3124
  262MOL0     H35348   6.361   6.162   9.276  0.7417 -1.9096 -0.6695
  262MOL0     H35349   6.425   6.232   9.433 -0.7395  2.2729 -2.2711
  262MOL0     H35350   6.170   6.077   9.387  0.7205  1.5761 -0.7087
  262MOL0     H35351   6.187   6.246   9.423 -0.7923 -0.3491  2.2850
  262MOL0     H35352   7.277   6.297   9.350  0.2932  1.2321 -2.8554
  262MOL0     H35353   7.521   6.335   9.359  0.3927 -1.4910 -0.0404
  262MOL0     H35354   7.804   6.765   9.247  0.9657  0.6984 -0.2385
  262MOL0     H35355   8.033   6.798   9.184  1.1366 -1.6891 -1.6592
  262MOL0     H35356   8.350   5.494   8.924 -1.0011 -2.0212  1.9134
  262MOL0     H35357   8.158   5.375   8.939  0.6643  0.8519 -2.2798
  262MOL0     H35358   7.690   5.477   9.168  1.7690 -1.3214  0.6256
  262MOL0     H35359   7.468   5.424   9.174  0.5940 -0.5688  1.5970
  262MOL0     H35360   7.282   5.258   9.254 -0.2794  1.3646  0.7040
  262MOL0     H35361   7.231   5.359   9.123  1.3880  0.0348 -1.1915
  262MOL0     H35362   7.146   5.085   9.118  0.2157  1.0210  3.3678
  262MOL0     H35363   7.105   5.203   8.996  1.5176  2.3365  0.0490
  262MOL0     H35364   6.951   5.311   9.148 -0.8799 -0.7835 -0.2171
  262MOL0     H35365   7.019   5.220   9.291  2.6362 -0.7301 -0.4034
  262MOL0     H35366   6.918   5.010   9.200 -0.5716 -1.2843 -0.2569
  262MOL0     H35367   6.896   5.085   9.050 -2.3404  0.2493 -0.0918
  262MOL0     H35368   6.542   5.239   9.202 -0.0322  1.0800 -3.7347
  262MOL0     H35369   7.512   5.068   8.939  1.7281 -0.6881 -0.8472
  262MOL0     H35370   7.744   5.134   8.894  3.6011  2.9013  1.5475
  263MOL0     O35371   4.536   8.561   7.329 -0.0564  0.1014 -0.5594
  263MOL0     C35372   4.541   8.471   7.408 -0.0350 -0.7959 -0.5642
  263MOL0     O35373   4.437   8.429   7.482 -0.0834  0.0247  0.8539
  263MOL0     C35374   4.308   8.481   7.475 -0.5288 -0.5187 -0.1129
  263MOL0     C35375   4.282   8.613   7.488  0.3894 -0.6483 -0.7069
  263MOL0     C35376   4.156   8.670   7.493 -0.0118 -0.3853  0.6070
  263MOL0     C35377   4.047   8.577   7.488 -0.6619 -0.6058  0.6053
  263MOL0     O35378   3.918   8.613   7.500 -0.4416  0.0869  0.2062
  263MOL0     C35379   3.894   8.750   7.516  0.2048  0.4786  0.3051
  263MOL0     C35380   3.751   8.764   7.549  0.7566 -0.0015 -0.0850
  263MOL0     C35381   3.703   8.906   7.545  0.3350  0.4860  0.7523
  263MOL0     C35382   3.603   8.931   7.656  0.2781  0.4653  0.8902
  263MOL0     C35383   3.574   9.084   7.691  0.0225  0.3962 -0.0349
  263MOL0     C35384   3.535   9.161   7.564  0.4640 -0.0750  0.1206
  263MOL0     C35385   3.464   9.290   7.598  0.1950 -0.0948 -0.4016
  263MOL0     C35386   3.327   9.273   7.646  0.0987  0.8182 -0.0253
  263MOL0     N35387   3.290   9.381   7.740  0.5178 -0.3564  0.3087
  263MOL0     C35388   3.238   9.505   7.721  0.3168  0.2666 -0.1115
  263MOL0     C35389   3.196   9.556   7.840  0.1197 -0.2737 -0.2339
  263MOL0     C35390   3.132   9.685   7.862  0.0403 -0.5699  0.0981
  263MOL0     C35391   3.205   9.803   7.809 -0.0102 -0.6002  0.0791
  263MOL0     C35392   3.146   9.939   7.863 -0.6772 -0.0404 -0.1178
  263MOL0     C35393   2.994   9.959   7.842 -0.6770 -0.4275  0.4894
  263MOL0     O35394   2.956  10.068   7.922  0.6434 -0.2921 -0.1212
  263MOL0     C35395   2.821  10.100   7.914 -0.7945  0.4631 -1.2357
  263MOL0     C35396   2.781  10.215   7.976 -0.0261  0.0416  0.0586
  263MOL0     C35397   2.646  10.269   7.976  0.3441  0.6225  0.0591
  263MOL0     C35398   2.637  10.406   8.025 -0.5446 -0.0325 -0.4751
  263MOL0     C35399   2.548  10.183   7.924  0.2711 -0.0850  0.3772
  263MOL0     C35400   2.405  10.218   7.913  0.3787  0.8371 -0.0618
  263MOL0     O35401   2.318  10.113   7.873 -0.7446  0.3224 -0.5709
  263MOL0     C35402   2.184  10.133   7.885 -0.2365  0.2625  0.0857
  263MOL0     C35403   2.114  10.195   7.785 -0.4610  1.0919  0.0163
  263MOL0     C35404   1.976  10.206   7.784 -0.7836  0.3248 -0.4355
  263MOL0     C35405   1.909  10.162   7.898 -0.3782  0.3514  1.2907
  263MOL0     O35406   1.774  10.187   7.914 -0.0865  0.3796  0.2576
  263MOL0     C35407   1.743  10.324   7.874  0.2961  0.9019 -0.4136
  263MOL0     C35408   1.607  10.350   7.945 -0.2831  0.0567 -0.0832
  263MOL0     C35409   1.520  10.469   7.895  1.1006  1.0582  0.0708
  263MOL0     C35410   1.400  10.486   7.986  0.2331 -0.5877  0.5911
  263MOL0     C35411   1.283  10.577   7.923 -0.5150 -1.1812  0.5612
  263MOL0     C35412   1.151  10.571   8.018 -0.2706 -0.3437  0.3084
  263MOL0     C35413   1.048  10.659   7.967 -0.1743 -0.5736  0.4654
  263MOL0     C35414   0.946  10.710   8.068 -0.3927 -0.4799  0.4095
  263MOL0    Cl35415   0.839  10.580   8.119 -0.5775  0.0700  0.1019
  263MOL0     C35416   1.979  10.086   7.996 -0.8790 -0.1810 -0.5286
  263MOL0     C35417   2.120  10.080   7.988 -0.3295 -0.3087 -0.4038
  263MOL0     O35418   2.367  10.332   7.949  0.3113  0.2559 -0.4028
  263MOL0     C35419   2.587  10.054   7.881 -0.1827  0.5222  0.3181
  263MOL0     C35420   2.721  10.009   7.872  0.1051  0.4189  0.0121
  263MOL0     N35421   3.252   9.476   7.934 -0.2640  0.4483 -0.1975
  263MOL0     N35422   3.296   9.373   7.876 -0.2885  0.9918 -0.0156
  263MOL0     C35423   4.073   8.442   7.480 -0.0936 -0.8039 -0.4349
  263MOL0     C35424   4.198   8.396   7.473  0.5221  0.2276  0.0399
  263MOL0     C35425   4.672   8.411   7.419  0.0107 -0.1200  0.7691
  263MOL0     C35426   4.706   8.339   7.531  0.3832 -0.6283  0.0449
  263MOL0     C35427   4.819   8.258   7.551  0.5155 -0.4748 -0.4343
  263MOL0     C35428   4.912   8.258   7.450 -0.7359 -0.1679 -0.5462
  263MOL0     O35429   5.015   8.178   7.465 -0.5018 -0.5374  0.0706
  263MOL0     C35430   5.140   8.243   7.491  0.5587 -0.0530 -0.1785
  263MOL0     C35431   5.212   8.153   7.587 -0.1110  1.2297  0.3398
  263MOL0     C35432   5.355   8.196   7.614 -0.0836  0.3707 -0.5144
  263MOL0     C35433   5.373   8.318   7.706 -0.2879  0.5093 -0.4941
  263MOL0     C35434   5.512   8.369   7.716 -0.6008  0.7740  0.3725
  263MOL0     C35435   5.635   8.395   7.725 -0.1840 -0.6461 -0.2300
  263MOL0     C35436   4.887   8.328   7.331  0.0650 -0.5419 -0.1060
  263MOL0     C35437   4.767   8.407   7.320  0.3655 -0.1711  0.6628
  263MOL0     H35438   4.369   8.677   7.500  0.2574 -0.9041  2.5127
  263MOL0     H35439   4.146   8.777   7.506  1.3875 -0.2883  1.0533
  263MOL0     H35440   3.936   8.790   7.609 -0.1647 -1.1567  1.2091
  263MOL0     H35441   3.923   8.803   7.425 -3.4240 -1.5802 -2.2957
  263MOL0     H35442   3.691   8.695   7.489 -0.2845 -2.1056  3.0880
  263MOL0     H35443   3.735   8.724   7.650  1.1135 -0.8112 -0.3383
  263MOL0     H35444   3.789   8.973   7.543  2.8895 -2.6063 -1.3414
  263MOL0     H35445   3.664   8.910   7.443  3.0694 -1.8118 -0.5104
  263MOL0     H35446   3.507   8.895   7.619 -0.0468  0.6882  1.5087
  263MOL0     H35447   3.627   8.877   7.748  0.2955 -2.6010 -0.7693
  263MOL0     H35448   3.485   9.085   7.755  0.3619  2.1544  0.4650
  263MOL0     H35449   3.664   9.131   7.731 -0.4128  0.8031  0.4847
  263MOL0     H35450   3.627   9.197   7.516 -0.5566  4.2887  0.9651
  263MOL0     H35451   3.474   9.102   7.495  1.2786 -0.4103 -0.3204
  263MOL0     H35452   3.528   9.338   7.673  1.1224 -1.9677  0.0451
  263MOL0     H35453   3.452   9.360   7.514 -0.1010 -0.9492 -1.0784
  263MOL0     H35454   3.307   9.177   7.694 -0.0281  0.3301 -1.0316
  263MOL0     H35455   3.262   9.281   7.559 -0.0686  0.4861  0.0674
  263MOL0     H35456   3.213   9.553   7.627  0.8228 -1.3940 -1.1532
  263MOL0     H35457   3.033   9.673   7.817  0.0554 -2.3617  0.4835
  263MOL0     H35458   3.101   9.699   7.966  0.2319  0.4136  0.0353
  263MOL0     H35459   3.206   9.805   7.700 -2.9532  3.0013 -0.1094
  263MOL0     H35460   3.309   9.807   7.842 -0.4814 -1.3588  1.7814
  263MOL0     H35461   3.200  10.021   7.815  0.6967 -0.2225  1.0495
  263MOL0     H35462   3.166   9.941   7.970  0.5347  0.1400 -0.3364
  263MOL0     H35463   2.932   9.876   7.877  1.2708 -1.2897  2.1661
  263MOL0     H35464   2.982   9.992   7.739  1.2528  0.4053  0.4853
  263MOL0     H35465   2.866  10.259   8.028  1.1111 -2.9610  0.9947
  263MOL0     H35466   2.731  10.458   8.006  0.0641 -1.9343 -3.1923
  263MOL0     H35467   2.554  10.462   7.981 -2.6444 -1.0858  1.9021
  263MOL0     H35468   2.614  10.414   8.132  1.4124 -0.2562  0.0069
  263MOL0     H35469   2.178  10.231   7.704  0.3533 -0.8472 -0.2673
  263MOL0     H35470   1.921  10.246   7.699  0.1729 -1.4716 -1.9940
  263MOL0     H35471   1.814  10.397   7.913  1.8056 -1.0374  0.6603
  263MOL0     H35472   1.722  10.347   7.769 -2.2984  2.2648  0.2950
  263MOL0     H35473   1.552  10.256   7.951 -0.2860 -0.0520 -1.5449
  263MOL0     H35474   1.642  10.371   8.047 -1.4863 -3.4321  1.1673
  263MOL0     H35475   1.478  10.450   7.796 -2.9959 -1.5869  2.0323
  263MOL0     H35476   1.576  10.563   7.895  0.5388  1.4825 -2.5231
  263MOL0     H35477   1.361  10.390   8.021 -3.2226  0.1832 -0.8017
  263MOL0     H35478   1.435  10.550   8.068  1.2765 -2.0707  1.3667
  263MOL0     H35479   1.250  10.547   7.823  0.0716  1.8512 -0.6324
  263MOL0     H35480   1.308  10.679   7.893 -3.7800 -0.4399 -0.0613
  263MOL0     H35481   1.121  10.466   8.023 -1.4498 -0.1208 -1.2392
  263MOL0     H35482   1.173  10.605   8.120 -1.1001 -1.5904  0.9311
  263MOL0     H35483   0.997  10.628   7.876 -0.4505 -0.6595  0.6455
  263MOL0     H35484   1.099  10.754   7.949 -2.1753  0.3633 -0.6718
  263MOL0     H35485   0.879  10.786   8.027  2.5871  0.2797 -3.6719
  263MOL0     H35486   0.989  10.751   8.160  1.6747 -1.5916 -0.0020
  263MOL0     H35487   1.934  10.049   8.087  1.6477  0.3268  1.0167
  263MOL0     H35488   2.178  10.041   8.071 -1.3626 -0.8261  0.0966
  263MOL0     H35489   2.505   9.998   7.837 -1.0829  3.2035 -1.6422
  263MOL0     H35490   2.745   9.912   7.829  1.9693  0.1485  1.5489
  263MOL0     H35491   3.987   8.376   7.486 -1.6986  1.1208 -1.2555
  263MOL0     H35492   4.227   8.292   7.460  1.0879  0.2249  1.1869
  263MOL0     H35493   4.636   8.337   7.614  1.3950 -1.2134  0.9254
  263MOL0     H35494   4.828   8.209   7.647  0.0336  3.0863  1.5857
  263MOL0     H35495   5.198   8.232   7.399 -1.0238  2.4047 -1.5666
  263MOL0     H35496   5.146   8.346   7.528  5.2046  0.1000 -0.6980
  263MOL0     H35497   5.219   8.056   7.536  2.3196  1.8452 -0.6315
  263MOL0     H35498   5.158   8.155   7.682  2.9129 -0.7792  2.2872
  263MOL0     H35499   5.404   8.212   7.517 -1.4953  0.5701 -1.2342
  263MOL0     H35500   5.400   8.113   7.669 -1.3067 -0.6149 -0.9623
  263MOL0     H35501   5.352   8.295   7.811  1.2600  0.8708 -0.0792
  263MOL0     H35502   5.304   8.400   7.684 -0.7609  0.3868  0.4614
  263MOL0     H35503   5.741   8.405   7.715 -0.4395  1.7129 -1.0749
  263MOL0     H35504   4.953   8.309   7.247  2.5335  1.0174  1.3600
  263MOL0     H35505   4.724   8.440   7.226  0.4224 -1.2067  0.2604
  264MOL0     O35506   8.910   0.089   0.640 -0.2041 -0.1329  0.4404
  264MOL0     C35507   8.886   0.115   0.520  0.2900 -0.7017  0.1610
  264MOL0     O35508   8.760   0.117   0.465  0.5336  0.2414  0.0951
  264MOL0     C35509   8.657   0.067   0.538 -0.1500  0.7254  0.3479
  264MOL0     C35510   8.552   0.153   0.576  0.2279  0.4215 -0.5132
  264MOL0     C35511   8.444   0.100   0.651 -0.8505  0.1398 -1.1222
  264MOL0     C35512   8.444  -0.033   0.702  0.5554 -0.4170  0.4528
  264MOL0     O35513   8.349  -0.082   0.783 -0.3256  0.0007 -0.2782
  264MOL0     C35514   8.243   0.001   0.837  0.2646  0.1457  0.3317
  264MOL0     C35515   8.137  -0.092   0.887 -0.1463  0.7316  0.2113
  264MOL0     C35516   8.032  -0.004   0.964 -0.2872  0.3279  0.4639
  264MOL0     C35517   7.916  -0.101   0.971  0.4667 -0.4066  0.7273
  264MOL0     C35518   7.799  -0.022   1.044  0.3306 -0.3245  0.7147
  264MOL0     C35519   7.678  -0.112   1.064 -0.0740 -0.1123 -0.2472
  264MOL0     C35520   7.556  -0.056   1.142 -0.3859 -0.5175  0.4118
  264MOL0     C35521   7.435  -0.134   1.094 -0.4679  0.2081  0.0310
  264MOL0     N35522   7.308  -0.075   1.154  1.1690 -0.1144 -0.8495
  264MOL0     C35523   7.289  -0.054   1.292 -0.1115 -0.4511  0.1113
  264MOL0     C35524   7.168   0.001   1.302 -1.1439  0.3772 -0.2165
  264MOL0     C35525   7.107   0.064   1.419 -0.4074 -0.1394 -0.1658
  264MOL0     C35526   7.016  -0.034   1.490 -0.3985  0.9565  0.2429
  264MOL0     C35527   6.942   0.048   1.605  0.0601 -0.2031  0.2419
  264MOL0     C35528   6.833  -0.039   1.670  0.4854  0.1212  0.0831
  264MOL0     O35529   6.754   0.048   1.751 -0.0179  0.1545 -0.0514
  264MOL0     C35530   6.620   0.029   1.771  0.4238 -0.2811  0.6159
  264MOL0     C35531   6.559   0.116   1.864  1.0158 -0.8984  0.4198
  264MOL0     C35532   6.430   0.099   1.909  0.6632  0.6787  0.3152
  264MOL0     C35533   6.395   0.184   2.025 -0.2888 -0.5934 -0.3430
  264MOL0     C35534   6.342   0.011   1.845 -0.2376  0.2362  0.0411
  264MOL0     C35535   6.209  -0.011   1.880  0.5340  0.2458  0.8957
  264MOL0     O35536   6.156   0.048   1.984 -0.1636  0.2660 -0.5140
  264MOL0     C35537   6.017   0.047   1.999  0.4858 -0.3634 -0.4164
  264MOL0     C35538   5.932  -0.030   2.083 -0.8811  0.0696  0.3702
  264MOL0     C35539   5.805  -0.003   2.096  0.0913  0.4777  0.1079
  264MOL0     C35540   5.748   0.098   2.028  0.3812  0.0156  0.7537
  264MOL0     O35541   5.618   0.128   2.074  0.1529 -0.3173  0.1465
  264MOL0     C35542   5.558   0.222   1.997  0.7458 -0.5597 -1.1699
  264MOL0     C35543   5.421   0.241   2.067 -0.4509 -0.0649  0.5264
  264MOL0     C35544   5.334   0.121   2.034 -0.3086 -0.1950  0.0088
  264MOL0     C35545   5.206   0.108   2.119  0.2543  0.1952  0.4356
  264MOL0     C35546   5.141  -0.032   2.128 -0.1084 -0.1493 -0.2507
  264MOL0     C35547   5.008  -0.031   2.189  0.4061 -0.0974  0.4141
  264MOL0     C35548   4.951  -0.166   2.222  0.8207  1.0574 -0.2646
  264MOL0     C35549   4.970  -0.274   2.108  0.1117  0.3508 -0.0589
  264MOL0    Cl35550   4.894  -0.233   1.958  0.2159  0.3140  0.1500
  264MOL0     C35551   5.826   0.169   1.938  0.5267  0.0864  0.7376
  264MOL0     C35552   5.960   0.137   1.912 -0.5175 -0.7105  0.2717
  264MOL0     O35553   6.150  -0.082   1.798  0.1609  0.4027  0.1837
  264MOL0     C35554   6.402  -0.076   1.745 -0.5308 -1.0577  0.5128
  264MOL0     C35555   6.539  -0.071   1.710 -0.0992  0.0077 -0.1008
  264MOL0     N35556   7.111  -0.014   1.180 -1.1600 -0.8685 -0.0122
  264MOL0     N35557   7.190  -0.068   1.089  0.4813  0.0196  0.2417
  264MOL0     C35558   8.546  -0.114   0.649  0.1812 -0.2283 -0.3642
  264MOL0     C35559   8.651  -0.074   0.569 -0.6960 -0.2996  0.3872
  264MOL0     C35560   9.007   0.152   0.430  0.7256  1.4254 -0.6269
  264MOL0     C35561   8.971   0.176   0.289  0.1546  0.0330 -0.8792
  264MOL0     C35562   9.086   0.215   0.211 -0.0656  0.2278 -0.4040
  264MOL0     C35563   9.220   0.219   0.261 -0.4829  0.5041 -0.5727
  264MOL0     O35564   9.333   0.252   0.198  0.1830  0.0947  0.4334
  264MOL0     C35565   9.320   0.318   0.064 -0.2107 -0.4050 -0.1205
  264MOL0     C35566   9.452   0.385   0.010  0.3025 -0.1835  0.4250
  264MOL0     C35567   9.570   0.288  -0.012 -0.3502  0.3326  0.3815
  264MOL0     C35568   9.700   0.352  -0.053 -0.1434  0.3147 -0.6194
  264MOL0     C35569   9.820   0.258  -0.053 -0.0630 -0.2083 -0.7263
  264MOL0     C35570   9.921   0.192  -0.058 -0.2307  0.0051 -0.2317
  264MOL0     C35571   9.241   0.191   0.396  0.4770  0.4341 -0.0765
  264MOL0     C35572   9.135   0.152   0.478  0.3816  0.9031  0.7296
  264MOL0     H35573   8.549   0.259   0.553  4.2250  0.5270 -1.1758
  264MOL0     H35574   8.365   0.167   0.682 -1.2523 -0.3936 -0.9967
  264MOL0     H35575   8.275   0.078   0.907 -0.9743 -0.7438  1.9448
  264MOL0     H35576   8.205   0.060   0.753 -1.1667 -1.0142  0.1334
  264MOL0     H35577   8.097  -0.144   0.799 -0.2367  1.3679 -0.1294
  264MOL0     H35578   8.179  -0.177   0.942  1.0596  1.0617 -0.1707
  264MOL0     H35579   8.082   0.031   1.054  0.2201 -2.2891  1.2775
  264MOL0     H35580   8.012   0.089   0.909 -0.9339  0.7627  1.4064
  264MOL0     H35581   7.885  -0.142   0.875 -3.0086  1.8537  0.6861
  264MOL0     H35582   7.946  -0.186   1.033 -1.2825 -1.3717  0.3269
  264MOL0     H35583   7.821   0.016   1.145  0.8226  1.8931 -0.1722
  264MOL0     H35584   7.773   0.062   0.979 -0.2916 -0.8226  0.3060
  264MOL0     H35585   7.646  -0.135   0.962  1.5913 -3.1034 -0.2005
  264MOL0     H35586   7.724  -0.203   1.105  2.4571  0.5076 -1.5103
  264MOL0     H35587   7.576  -0.060   1.250 -1.2999  0.6935  0.6410
  264MOL0     H35588   7.541   0.048   1.111 -1.3487 -0.0589  2.3034
  264MOL0     H35589   7.445  -0.240   1.116  2.5412  0.5937  0.9496
  264MOL0     H35590   7.430  -0.124   0.986 -1.4171  0.7236  0.1113
  264MOL0     H35591   7.372  -0.065   1.362  3.5550  1.7962 -3.4112
  264MOL0     H35592   7.182   0.111   1.484 -1.3246  0.9539  0.1517
  264MOL0     H35593   7.040   0.143   1.383 -0.2302  0.6292  1.1222
  264MOL0     H35594   7.061  -0.120   1.540  0.0266  0.2128 -1.3343
  264MOL0     H35595   6.939  -0.068   1.420 -0.5038  0.2803  0.6768
  264MOL0     H35596   6.893   0.133   1.556  0.0969  0.2624  0.9887
  264MOL0     H35597   7.013   0.090   1.677 -2.7164  1.1590  2.4061
  264MOL0     H35598   6.897  -0.111   1.722  1.9334 -0.2834 -2.1468
  264MOL0     H35599   6.771  -0.098   1.601  0.8998  0.5084 -0.6306
  264MOL0     H35600   6.630   0.191   1.897  0.9502 -1.4019  1.7589
  264MOL0     H35601   6.337   0.272   1.996 -1.4068 -1.3736 -0.5245
  264MOL0     H35602   6.352   0.136   2.113  3.8723  0.3384  2.5105
  264MOL0     H35603   6.488   0.215   2.074 -0.7741 -1.4381  1.1596
  264MOL0     H35604   5.975  -0.113   2.139 -0.8962 -1.6486 -2.0164
  264MOL0     H35605   5.743  -0.065   2.160 -0.2676 -2.9985 -3.2209
  264MOL0     H35606   5.612   0.317   1.993  0.0377 -0.0595  0.4969
  264MOL0     H35607   5.536   0.181   1.898 -1.9066 -1.6808 -0.2165
  264MOL0     H35608   5.435   0.263   2.173  3.0548  1.3851 -0.0883
  264MOL0     H35609   5.388   0.329   2.010 -0.2152  0.0067  0.4973
  264MOL0     H35610   5.382   0.023   2.042 -1.1922 -0.6671 -0.2985
  264MOL0     H35611   5.307   0.120   1.928  0.8563  0.1460 -0.3084
  264MOL0     H35612   5.216   0.160   2.215 -1.9794 -0.5809  1.1455
  264MOL0     H35613   5.125   0.163   2.071 -0.2656 -0.4834  0.5262
  264MOL0     H35614   5.214  -0.102   2.170 -1.7967 -1.9365 -0.1063
  264MOL0     H35615   5.124  -0.061   2.024  2.4142 -0.5194 -0.6257
  264MOL0     H35616   5.028   0.011   2.288  1.6601  1.7789 -0.5727
  264MOL0     H35617   4.934   0.028   2.133 -0.1460 -1.0737  0.0844
  264MOL0     H35618   4.850  -0.152   2.260  0.8160  2.1212 -0.6440
  264MOL0     H35619   5.007  -0.212   2.305 -1.3990 -0.3283  0.5452
  264MOL0     H35620   4.925  -0.365   2.148 -2.7125  0.6742 -2.1834
  264MOL0     H35621   5.076  -0.293   2.088  0.3152  1.3917 -0.0362
  264MOL0     H35622   5.790   0.255   1.882 -0.3956 -1.7122 -1.6292
  264MOL0     H35623   6.037   0.197   1.865  1.4556 -0.8934  2.9984
  264MOL0     H35624   6.350  -0.149   1.685 -2.9547 -0.2181  1.4722
  264MOL0     H35625   6.577  -0.141   1.637  2.0653 -1.3601  2.1754
  264MOL0     H35626   8.529  -0.217   0.677 -0.6153  0.2679  1.0873
  264MOL0     H35627   8.731  -0.140   0.540  0.6601  1.4388 -0.0254
  264MOL0     H35628   8.869   0.173   0.250  0.5447  0.5987 -1.9816
  264MOL0     H35629   9.050   0.235   0.110 -1.3317 -3.7367 -0.9216
  264MOL0     H35630   9.310   0.237  -0.010 -1.8289  0.6127 -1.0677
  264MOL0     H35631   9.237   0.388   0.063  0.5518  0.5239 -0.6170
  264MOL0     H35632   9.489   0.456   0.084  3.6541 -1.0465 -0.2498
  264MOL0     H35633   9.430   0.429  -0.088  1.0104  0.6687  0.6416
  264MOL0     H35634   9.554   0.216  -0.093  1.1963 -1.4913  1.6093
  264MOL0     H35635   9.575   0.215   0.069  0.5282 -3.3552 -2.6916
  264MOL0     H35636   9.716   0.440   0.010  2.4941 -1.9017  2.1043
  264MOL0     H35637   9.691   0.399  -0.152  2.3598  2.9966  0.2868
  264MOL0     H35638  10.013   0.143  -0.034 -2.5272 -2.4364  5.3302
  264MOL0     H35639   9.344   0.201   0.429  0.1517  1.4726  0.6930
  264MOL0     H35640   9.139   0.120   0.582 -0.9309 -0.6742  0.3323
  265MOL0     O35641   5.083   4.423   1.751  0.4682 -0.2301 -0.3136
  265MOL0     C35642   5.049   4.322   1.696 -1.3837 -0.0471 -0.1877
  265MOL0     O35643   5.127   4.272   1.590  0.3267 -0.5450 -0.5508
  265MOL0     C35644   5.260   4.277   1.609 -0.0069 -0.1442 -0.3567
  265MOL0     C35645   5.348   4.190   1.685 -0.6014  0.2392 -0.0813
  265MOL0     C35646   5.483   4.213   1.686 -0.4482 -0.0010  0.0614
  265MOL0     C35647   5.541   4.321   1.616 -0.1448  0.2024 -1.0654
  265MOL0     O35648   5.672   4.352   1.622  0.0137  0.5744  0.2394
  265MOL0     C35649   5.735   4.329   1.755 -0.4964 -0.3156  0.3516
  265MOL0     C35650   5.855   4.429   1.776 -0.3378 -0.7118 -0.2541
  265MOL0     C35651   5.978   4.383   1.704 -0.4828  0.3241 -0.7088
  265MOL0     C35652   5.964   4.379   1.555 -0.2847  0.6388  0.0159
  265MOL0     C35653   5.943   4.519   1.480  0.9806 -0.4845 -0.1241
  265MOL0     C35654   5.903   4.510   1.333 -0.2667 -0.4877  0.2062
  265MOL0     C35655   6.024   4.448   1.259 -0.5108  0.0776  0.1933
  265MOL0     C35656   6.139   4.553   1.264 -0.0336 -0.0200  0.6061
  265MOL0     N35657   6.243   4.521   1.162  0.3941  0.6830  0.1182
  265MOL0     C35658   6.235   4.437   1.053  0.1648  0.0350 -0.3119
  265MOL0     C35659   6.349   4.452   0.993  0.2896  0.1772 -0.3032
  265MOL0     C35660   6.388   4.384   0.865 -0.3581 -0.1836  0.9507
  265MOL0     C35661   6.308   4.426   0.747 -0.6718 -0.4354  0.2708
  265MOL0     C35662   6.330   4.576   0.719  0.9907 -0.5130 -0.1377
  265MOL0     C35663   6.221   4.669   0.771  0.3961  0.2123 -1.1955
  265MOL0     O35664   6.092   4.612   0.753  0.8482 -0.7182  0.5061
  265MOL0     C35665   5.991   4.692   0.808 -0.0724 -0.6045  0.0531
  265MOL0     C35666   5.985   4.828   0.785  0.4997 -0.2787  0.7144
  265MOL0     C35667   5.877   4.902   0.841  0.6190 -0.5227 -0.1599
  265MOL0     C35668   5.876   5.049   0.818 -0.1648  0.2649 -0.0170
  265MOL0     C35669   5.775   4.841   0.927  0.0367  0.9351  0.7831
  265MOL0     C35670   5.647   4.897   0.988  0.4153 -0.2138  0.0442
  265MOL0     O35671   5.564   4.808   1.059  0.1216 -0.6548 -0.1218
  265MOL0     C35672   5.444   4.856   1.105  0.2792 -0.0378  0.1924
  265MOL0     C35673   5.352   4.925   1.021 -0.0128  0.9812 -0.0572
  265MOL0     C35674   5.232   4.983   1.071 -0.2660  0.0490  0.3912
  265MOL0     C35675   5.198   4.962   1.206 -0.3507 -0.3525 -0.5858
  265MOL0     O35676   5.090   5.025   1.269  0.2956 -0.0792  0.8200
  265MOL0     C35677   5.003   5.112   1.188 -0.0243 -0.7980  1.1046
  265MOL0     C35678   4.937   5.209   1.293 -0.3710  0.6907 -1.0260
  265MOL0     C35679   4.841   5.139   1.389  0.0761 -0.5389 -0.0997
  265MOL0     C35680   4.781   5.006   1.330 -0.6828  1.0323  0.5245
  265MOL0     C35681   4.687   4.939   1.422  0.1796  0.5440 -0.2732
  265MOL0     C35682   4.608   4.831   1.348 -0.0620  0.3210  0.2128
  265MOL0     C35683   4.476   4.807   1.412 -1.1239 -0.3479  0.4154
  265MOL0     C35684   4.383   4.734   1.317 -0.5080 -0.5615  0.1468
  265MOL0    Cl35685   4.453   4.578   1.273 -0.5031  0.6152  0.2959
  265MOL0     C35686   5.281   4.875   1.281 -0.4891 -0.6703  0.4945
  265MOL0     C35687   5.396   4.833   1.234  0.0145  0.4539 -0.2287
  265MOL0     O35688   5.626   5.012   0.969  0.4923  0.4438 -0.1511
  265MOL0     C35689   5.791   4.694   0.946 -0.4721  0.0096  0.1292
  265MOL0     C35690   5.897   4.627   0.881 -0.5776 -0.8906 -0.1611
  265MOL0     N35691   6.439   4.529   1.063 -0.3386  0.5342 -0.4024
  265MOL0     N35692   6.372   4.574   1.171  0.3898 -1.0860 -0.3148
  265MOL0     C35693   5.457   4.402   1.546  0.4764 -0.0052  0.4561
  265MOL0     C35694   5.318   4.377   1.539 -0.2985  0.3273  0.1328
  265MOL0     C35695   4.912   4.263   1.725 -0.5499 -0.5572 -0.2272
  265MOL0     C35696   4.815   4.325   1.809  0.2860 -0.2714 -0.2646
  265MOL0     C35697   4.692   4.264   1.828  0.7016 -0.1103 -1.2903
  265MOL0     C35698   4.664   4.142   1.755  0.7335  0.0034  0.4356
  265MOL0     O35699   4.547   4.070   1.779 -0.0160  0.6943 -0.5008
  265MOL0     C35700   4.439   4.122   1.848 -0.0481 -0.3550 -0.0398
  265MOL0     C35701   4.310   4.082   1.786 -0.1073  1.0092 -0.1105
  265MOL0     C35702   4.180   4.159   1.833  0.1166  0.4923  1.2338
  265MOL0     C35703   4.079   4.132   1.727  0.5753 -0.1045  0.0153
  265MOL0     C35704   4.037   3.986   1.721  0.5238 -0.0439 -0.0036
  265MOL0     C35705   3.996   3.872   1.710 -0.8081 -0.0169 -0.1269
  265MOL0     C35706   4.765   4.079   1.683  0.2373 -0.1925  0.6037
  265MOL0     C35707   4.889   4.139   1.667  1.1154 -0.5390 -0.8680
  265MOL0     H35708   5.300   4.119   1.751 -1.5821  2.0833  1.2810
  265MOL0     H35709   5.552   4.146   1.737 -0.6319 -0.5826 -0.4436
  265MOL0     H35710   5.666   4.361   1.834 -0.5386  2.8383 -0.7960
  265MOL0     H35711   5.760   4.223   1.764 -0.2345 -0.2425  0.4746
  265MOL0     H35712   5.831   4.531   1.746 -1.6944 -0.2811  2.0167
  265MOL0     H35713   5.881   4.422   1.882 -0.9488 -1.2502 -0.1296
  265MOL0     H35714   6.054   4.458   1.725 -2.6581  2.4302  0.0208
  265MOL0     H35715   6.012   4.290   1.751  0.6016 -0.4613 -2.8895
  265MOL0     H35716   6.059   4.341   1.516  0.7441  1.2617  1.7868
  265MOL0     H35717   5.882   4.313   1.527 -0.1510  0.6048 -0.3041
  265MOL0     H35718   5.864   4.570   1.535  1.3775  3.4887 -2.8134
  265MOL0     H35719   6.024   4.588   1.506 -0.8866  1.0290  2.0455
  265MOL0     H35720   5.816   4.445   1.347  0.3547 -1.2510  0.6581
  265MOL0     H35721   5.883   4.601   1.277  0.9654 -2.4539 -3.8758
  265MOL0     H35722   6.052   4.353   1.305 -0.9921  0.2779  0.9174
  265MOL0     H35723   5.998   4.414   1.158  1.6734 -0.4818 -0.2393
  265MOL0     H35724   6.191   4.551   1.360  1.7151  1.5614 -0.2406
  265MOL0     H35725   6.095   4.650   1.238  2.1041  0.7749 -0.2191
  265MOL0     H35726   6.150   4.393   1.001  1.0527 -0.3940 -1.4518
  265MOL0     H35727   6.492   4.411   0.841 -1.0104  2.4669  0.8091
  265MOL0     H35728   6.385   4.277   0.888 -1.1446  0.1168  2.3869
  265MOL0     H35729   6.203   4.396   0.754 -1.3181  1.6974  0.4314
  265MOL0     H35730   6.348   4.375   0.659 -3.3621 -1.8897 -0.2184
  265MOL0     H35731   6.324   4.592   0.611  0.1275 -0.3125 -0.0633
  265MOL0     H35732   6.430   4.612   0.746  0.9797  2.1264 -3.0238
  265MOL0     H35733   6.229   4.771   0.732  0.9078  0.7080  0.1390
  265MOL0     H35734   6.242   4.672   0.878 -0.8721 -0.1037 -0.9131
  265MOL0     H35735   6.056   4.872   0.715 -0.7649 -2.1924 -1.9138
  265MOL0     H35736   5.975   5.096   0.821 -1.0222  2.2165 -0.4495
  265MOL0     H35737   5.824   5.069   0.724  2.8176 -1.4759 -2.2138
  265MOL0     H35738   5.831   5.102   0.903  4.6649  2.2711  1.6529
  265MOL0     H35739   5.370   4.927   0.914 -0.8714 -1.5550 -0.2964
  265MOL0     H35740   5.166   5.029   0.997  0.4897  2.5965  1.1766
  265MOL0     H35741   5.058   5.182   1.125 -1.5024  0.3952  1.0951
  265MOL0     H35742   4.934   5.047   1.133  0.1948  0.3441 -0.5862
  265MOL0     H35743   5.019   5.261   1.342  2.7613 -5.3534  1.1708
  265MOL0     H35744   4.873   5.277   1.235 -0.8095  0.8308 -0.3965
  265MOL0     H35745   4.756   5.205   1.406 -1.3154 -2.2701  0.0533
  265MOL0     H35746   4.885   5.118   1.487 -1.9861 -4.8827  0.1366
  265MOL0     H35747   4.727   5.015   1.235  1.6708  1.9187 -0.8142
  265MOL0     H35748   4.854   4.926   1.314 -0.5498  1.4566 -1.0938
  265MOL0     H35749   4.624   5.022   1.458  0.6280  0.9310 -0.3681
  265MOL0     H35750   4.724   4.885   1.509  1.3578  0.8655 -0.5671
  265MOL0     H35751   4.589   4.867   1.247 -1.4272  0.3341  0.4489
  265MOL0     H35752   4.673   4.744   1.336 -1.3238 -0.6140 -0.0381
  265MOL0     H35753   4.446   4.908   1.442  3.5547  0.4382  3.5711
  265MOL0     H35754   4.479   4.747   1.504 -3.9073  0.6448  1.2669
  265MOL0     H35755   4.369   4.788   1.222 -1.0742 -2.8374 -1.1407
  265MOL0     H35756   4.283   4.730   1.362 -1.5286  1.1502 -1.7587
  265MOL0     H35757   5.266   4.846   1.385 -1.7721 -0.7595  0.3021
  265MOL0     H35758   5.472   4.776   1.287 -1.1802 -0.5543  0.4317
  265MOL0     H35759   5.715   4.633   0.995 -1.7157 -0.7886 -2.5902
  265MOL0     H35760   5.908   4.520   0.894 -2.0329 -1.1800 -1.0889
  265MOL0     H35761   5.503   4.479   1.485 -0.8675 -0.2761 -0.9965
  265MOL0     H35762   5.266   4.446   1.474 -0.7424 -0.4586 -0.3653
  265MOL0     H35763   4.845   4.417   1.858  1.7614 -0.7820 -0.1406
  265MOL0     H35764   4.620   4.314   1.892  1.0919  1.1170 -1.7693
  265MOL0     H35765   4.436   4.097   1.954  0.5377  0.8880  0.2909
  265MOL0     H35766   4.436   4.231   1.838 -0.1560 -0.2746  0.7845
  265MOL0     H35767   4.293   3.976   1.803  0.5866  1.0799  1.1997
  265MOL0     H35768   4.330   4.094   1.679 -2.1228  0.0625 -0.6298
  265MOL0     H35769   4.199   4.265   1.849 -0.2875  1.8936 -4.9628
  265MOL0     H35770   4.137   4.126   1.928 -3.3501  3.6924  0.9777
  265MOL0     H35771   4.116   4.170   1.631  2.0060  0.5540  0.7901
  265MOL0     H35772   3.994   4.188   1.765  0.9794 -1.0369  2.5487
  265MOL0     H35773   3.966   3.770   1.701  3.5614 -1.6018  0.6752
  265MOL0     H35774   4.735   3.987   1.634 -1.4958  1.4413 -1.6665
  265MOL0     H35775   4.961   4.097   1.598 -0.9622 -2.3115 -2.1146
  266MOL0     O35776   7.991   7.642   8.059 -0.2046 -0.2737 -0.0419
  266MOL0     C35777   8.069   7.627   7.967 -0.3553 -0.4028  1.0339
  266MOL0     O35778   8.044   7.556   7.852 -0.2637 -0.9898 -0.1479
  266MOL0     C35779   7.927   7.549   7.784 -0.5989 -0.9203 -0.1437
  266MOL0     C35780   7.902   7.451   7.697  0.0404 -0.0467  0.6374
  266MOL0     C35781   7.768   7.449   7.646  0.1159  0.5564  0.3052
  266MOL0     C35782   7.668   7.548   7.656  0.1922  1.1075 -0.0022
  266MOL0     O35783   7.552   7.533   7.590  0.3612  0.1016 -0.6940
  266MOL0     C35784   7.431   7.591   7.639  0.4598 -0.4515  0.6646
  266MOL0     C35785   7.328   7.604   7.524 -0.1839  0.2688  0.0456
  266MOL0     C35786   7.194   7.668   7.563 -0.3525 -0.1179  0.3499
  266MOL0     C35787   7.079   7.630   7.468 -0.6415  0.6416  0.5474
  266MOL0     C35788   6.954   7.703   7.497  0.5338  0.5029 -0.2898
  266MOL0     C35789   6.883   7.637   7.615  0.0033 -0.9323  0.3370
  266MOL0     C35790   6.739   7.693   7.636 -0.0582  0.3814 -0.4862
  266MOL0     C35791   6.677   7.626   7.761  0.5047 -0.2563  1.0750
  266MOL0     N35792   6.540   7.670   7.762 -0.3114 -0.8633  0.4700
  266MOL0     C35793   6.425   7.598   7.755  0.0197 -0.4823  0.4830
  266MOL0     C35794   6.324   7.684   7.745  0.3499  0.3780 -0.5077
  266MOL0     C35795   6.176   7.630   7.749  0.2618  0.4401  0.2060
  266MOL0     C35796   6.077   7.741   7.789  0.2382 -0.2609 -0.1296
  266MOL0     C35797   5.942   7.673   7.798  0.4759 -0.0925 -0.3030
  266MOL0     C35798   5.825   7.770   7.842 -0.2255  0.1777 -1.5017
  266MOL0     O35799   5.717   7.684   7.879  0.8066 -0.2547 -0.2824
  266MOL0     C35800   5.588   7.729   7.890  0.8199 -0.5748 -0.3778
  266MOL0     C35801   5.497   7.639   7.956  0.2619  0.0330  0.5637
  266MOL0     C35802   5.361   7.671   7.988 -0.6890  0.2832 -0.1078
  266MOL0     C35803   5.277   7.555   8.058  0.0763 -0.0274 -0.0622
  266MOL0     C35804   5.317   7.797   7.953  0.6949 -0.4837 -0.2391
  266MOL0     C35805   5.181   7.849   7.974  0.0379 -0.3095  0.7912
  266MOL0     O35806   5.163   7.983   7.954  0.2782  0.9641 -0.2218
  266MOL0     C35807   5.046   8.053   7.963  1.1054  0.5026 -0.3116
  266MOL0     C35808   4.914   8.000   7.956  0.0359 -0.5251  0.3844
  266MOL0     C35809   4.800   8.077   7.960 -0.4504  0.7106  0.4210
  266MOL0     C35810   4.813   8.215   7.964 -0.1763  0.7853 -0.7877
  266MOL0     O35811   4.696   8.281   7.968  0.0685  0.0201  0.5425
  266MOL0     C35812   4.709   8.423   7.955 -0.8061  0.2434  0.0083
  266MOL0     C35813   4.565   8.465   7.931  0.2708 -0.0892  0.0667
  266MOL0     C35814   4.538   8.616   7.912  0.7823  0.8508  0.2983
  266MOL0     C35815   4.388   8.640   7.889 -0.7951 -0.0795  0.3214
  266MOL0     C35816   4.301   8.584   8.007  0.0795  0.1083 -0.2258
  266MOL0     C35817   4.152   8.629   8.008 -0.9911 -0.2065  0.1393
  266MOL0     C35818   4.086   8.618   7.873 -0.0188  1.1843  0.1047
  266MOL0     C35819   3.938   8.593   7.888 -0.4001 -0.4847 -1.0043
  266MOL0    Cl35820   3.840   8.711   7.991  0.4093 -0.5058  0.8373
  266MOL0     C35821   4.943   8.272   7.961 -0.3051 -0.4697  0.2012
  266MOL0     C35822   5.052   8.190   7.955 -0.1133 -0.7318  0.3367
  266MOL0     O35823   5.092   7.781   8.010  0.0753  0.5009 -0.5106
  266MOL0     C35824   5.410   7.892   7.893 -0.4184 -0.6785 -0.1948
  266MOL0     C35825   5.543   7.862   7.865  0.2781  0.1586  0.5969
  266MOL0     N35826   6.374   7.809   7.737 -0.0639  0.3331  0.4989
  266MOL0     N35827   6.504   7.800   7.754 -0.4443  0.0500 -0.2599
  266MOL0     C35828   7.700   7.650   7.741  0.3504  0.1147  0.4954
  266MOL0     C35829   7.827   7.651   7.800  0.7580  0.6284 -0.3975
  266MOL0     C35830   8.213   7.665   7.995  0.0253  0.3184 -0.7658
  266MOL0     C35831   8.247   7.695   8.134 -0.4430 -0.2099 -0.2312
  266MOL0     C35832   8.383   7.706   8.172 -0.1993 -0.0012 -0.5137
  266MOL0     C35833   8.487   7.681   8.085 -0.8147 -0.6098 -0.2088
  266MOL0     O35834   8.621   7.687   8.110 -0.0464 -0.5968 -0.2598
  266MOL0     C35835   8.686   7.814   8.103  0.6634 -0.6896  0.2524
  266MOL0     C35836   8.745   7.847   7.969  0.1838 -0.1154 -0.2013
  266MOL0     C35837   8.863   7.752   7.933  1.0737  1.3529 -0.3024
  266MOL0     C35838   9.011   7.809   7.960 -0.4292  0.1966  0.5602
  266MOL0     C35839   9.033   7.923   7.876  0.5797  0.3646 -0.4329
  266MOL0     C35840   9.058   8.009   7.802 -0.0207  0.7871 -0.2749
  266MOL0     C35841   8.461   7.640   7.957 -0.1271 -0.2998  0.5033
  266MOL0     C35842   8.330   7.636   7.914  0.0877 -0.1266 -0.3674
  266MOL0     H35843   7.970   7.369   7.676 -0.5265 -0.6498  1.1170
  266MOL0     H35844   7.736   7.365   7.584  1.0615  0.3146  0.1323
  266MOL0     H35845   7.393   7.530   7.721  0.8962  0.3722  1.4955
  266MOL0     H35846   7.445   7.692   7.678  0.8526 -0.8934  1.7128
  266MOL0     H35847   7.374   7.668   7.448  0.1085  2.5111  1.9865
  266MOL0     H35848   7.309   7.507   7.478  1.5369  0.0554 -0.2609
  266MOL0     H35849   7.176   7.626   7.662  0.3683 -1.1979  0.0367
  266MOL0     H35850   7.203   7.776   7.581  1.2537 -0.0190 -0.7580
  266MOL0     H35851   7.102   7.637   7.361 -2.4630 -3.3040 -0.2723
  266MOL0     H35852   7.053   7.524   7.477  0.1271  0.4381  0.4442
  266MOL0     H35853   6.980   7.804   7.530  0.4359 -0.4080  2.9044
  266MOL0     H35854   6.882   7.712   7.415  0.8507  0.5718 -0.5602
  266MOL0     H35855   6.873   7.531   7.591 -0.7045 -0.1738 -3.4124
  266MOL0     H35856   6.953   7.652   7.697  3.3748 -1.2616 -2.2563
  266MOL0     H35857   6.749   7.800   7.656  1.9054  0.2204 -0.4038
  266MOL0     H35858   6.687   7.673   7.542  1.2640  1.4629 -1.4880
  266MOL0     H35859   6.735   7.654   7.849 -0.6457 -1.5584  2.3032
  266MOL0     H35860   6.678   7.517   7.756 -0.4251 -0.2090 -2.0898
  266MOL0     H35861   6.416   7.490   7.762  1.8898 -0.8345 -1.3637
  266MOL0     H35862   6.144   7.597   7.650  0.7153 -2.1737  0.8557
  266MOL0     H35863   6.161   7.551   7.822  1.2829  0.7128  0.7302
  266MOL0     H35864   6.089   7.812   7.706 -0.1267 -0.7328 -0.5908
  266MOL0     H35865   6.109   7.789   7.882  0.2889  0.7333 -0.6440
  266MOL0     H35866   5.951   7.589   7.867  3.2657  0.5049  0.1751
  266MOL0     H35867   5.921   7.628   7.701  0.3388  2.6388 -1.6271
  266MOL0     H35868   5.792   7.847   7.771 -2.6275  0.2732 -0.3546
  266MOL0     H35869   5.862   7.824   7.929 -0.5674 -1.6918 -0.1412
  266MOL0     H35870   5.532   7.538   7.975 -1.8846 -0.8396  0.1126
  266MOL0     H35871   5.262   7.585   8.162 -1.6832 -1.1900  0.0548
  266MOL0     H35872   5.183   7.536   8.006 -0.4672  1.9692  0.1150
  266MOL0     H35873   5.325   7.457   8.060  0.6226  0.1372 -2.3039
  266MOL0     H35874   4.892   7.895   7.941 -1.4099  0.0025 -1.5343
  266MOL0     H35875   4.704   8.028   7.966 -0.0935 -0.1311 -0.6615
  266MOL0     H35876   4.738   8.485   8.041 -1.7446  2.9808 -1.5031
  266MOL0     H35877   4.773   8.455   7.872 -1.6012  1.9507  0.0014
  266MOL0     H35878   4.520   8.416   7.843  0.7147  0.7457 -0.6404
  266MOL0     H35879   4.523   8.434   8.027  1.7773  2.1332  1.5367
  266MOL0     H35880   4.603   8.652   7.831  1.4675  2.4045  1.4986
  266MOL0     H35881   4.563   8.670   8.004  1.1386  1.5644 -0.2028
  266MOL0     H35882   4.377   8.749   7.891  3.8761  0.5882  2.4396
  266MOL0     H35883   4.354   8.596   7.795  0.9783 -2.2236  0.5987
  266MOL0     H35884   4.353   8.607   8.101 -2.9511  0.7293  1.4479
  266MOL0     H35885   4.294   8.475   8.007 -0.0933  0.1072  0.9218
  266MOL0     H35886   4.094   8.569   8.079 -1.6806  1.0990  0.7048
  266MOL0     H35887   4.156   8.732   8.044  4.1225  0.3188 -1.0958
  266MOL0     H35888   4.126   8.534   7.816 -2.8839 -1.9757  2.3535
  266MOL0     H35889   4.087   8.707   7.810 -1.1805  3.5943  3.2185
  266MOL0     H35890   3.931   8.492   7.929  1.1335  0.8441  3.0248
  266MOL0     H35891   3.898   8.586   7.786  2.0780  0.5829 -2.1109
  266MOL0     H35892   4.965   8.378   7.953  2.0818 -0.7603  1.7193
  266MOL0     H35893   5.143   8.242   7.924 -0.9585  0.5301 -0.1116
  266MOL0     H35894   5.388   7.994   7.862 -4.0250 -0.3770  2.7420
  266MOL0     H35895   5.606   7.932   7.813 -2.5753 -0.0457 -3.6019
  266MOL0     H35896   7.641   7.737   7.769  2.3838  0.9742  2.4541
  266MOL0     H35897   7.853   7.736   7.863  2.1403  0.4603 -0.7139
  266MOL0     H35898   8.169   7.715   8.207  1.1531 -0.0909  1.5140
  266MOL0     H35899   8.406   7.732   8.275 -1.3496 -3.4493  0.7514
  266MOL0     H35900   8.620   7.894   8.136  1.5293  0.0317  0.2653
  266MOL0     H35901   8.762   7.825   8.181  2.6854 -0.7281 -1.5971
  266MOL0     H35902   8.780   7.950   7.953  0.1430 -0.1481 -0.5038
  266MOL0     H35903   8.665   7.838   7.895 -0.9849 -0.8446  1.1177
  266MOL0     H35904   8.852   7.726   7.827  0.0479 -1.9861  0.5116
  266MOL0     H35905   8.856   7.663   7.996 -1.4468  2.2605  0.8120
  266MOL0     H35906   9.089   7.738   7.932 -1.7332 -0.2753 -2.2186
  266MOL0     H35907   9.001   7.838   8.065 -2.3291 -1.5651  0.9307
  266MOL0     H35908   9.067   8.091   7.734  0.1487  1.1166  0.1352
  266MOL0     H35909   8.536   7.605   7.887 -0.9987 -1.8160  0.2792
  266MOL0     H35910   8.306   7.599   7.814  3.0209  1.7541 -1.9442
  267MOL0     O35911   5.543   7.582   5.449  0.1900 -0.2931  1.1256
  267MOL0     C35912   5.571   7.493   5.370  0.4757 -0.2033  0.7492
  267MOL0     O35913   5.485   7.424   5.294 -0.0724  0.1514 -0.7323
  267MOL0     C35914   5.346   7.428   5.303  0.0480 -0.7395  0.3009
  267MOL0     C35915   5.272   7.455   5.415  0.4454  0.5017 -0.1437
  267MOL0     C35916   5.128   7.463   5.414 -1.9658 -0.3129 -0.6055
  267MOL0     C35917   5.072   7.469   5.292 -0.7329 -0.5152  0.0073
  267MOL0     O35918   4.930   7.472   5.295  0.2885  0.4607 -0.7350
  267MOL0     C35919   4.854   7.590   5.271  0.8247 -0.5206  0.8754
  267MOL0     C35920   4.704   7.559   5.297 -0.7633 -0.3303 -0.4669
  267MOL0     C35921   4.662   7.458   5.192 -0.0587 -0.3613 -0.7262
  267MOL0     C35922   4.513   7.425   5.201 -0.0461 -0.3578 -0.0060
  267MOL0     C35923   4.451   7.342   5.087  0.9838 -0.5788 -0.2791
  267MOL0     C35924   4.311   7.307   5.129  0.5069  0.1551  0.2181
  267MOL0     C35925   4.248   7.198   5.033  0.4698 -0.2698 -1.0659
  267MOL0     C35926   4.307   7.059   5.042  0.0299 -0.1389  0.4358
  267MOL0     N35927   4.316   7.013   5.182  0.3046  1.4151  0.5938
  267MOL0     C35928   4.216   7.006   5.274 -0.5865  0.4057  0.4830
  267MOL0     C35929   4.275   6.949   5.382  0.8985 -0.7963 -0.3344
  267MOL0     C35930   4.204   6.900   5.496 -0.1301  0.1054  0.4022
  267MOL0     C35931   4.077   6.820   5.458 -0.1979  0.4822  0.6852
  267MOL0     C35932   4.113   6.676   5.405 -0.1556 -0.4693 -0.6902
  267MOL0     C35933   3.991   6.595   5.366 -0.5685  0.4426 -0.5954
  267MOL0     O35934   3.929   6.633   5.245  0.5901 -0.2299  0.3920
  267MOL0     C35935   3.803   6.607   5.207 -0.0653  0.3305  0.1346
  267MOL0     C35936   3.785   6.665   5.086 -0.5885  0.0717  0.4133
  267MOL0     C35937   3.664   6.646   5.022  0.2137  0.1848  0.1826
  267MOL0     C35938   3.639   6.692   4.876  0.0188 -0.6000  0.1012
  267MOL0     C35939   3.558   6.564   5.082 -1.7790 -0.1981  0.0994
  267MOL0     C35940   3.448   6.511   5.009  1.3174 -0.4410  0.1458
  267MOL0     O35941   3.326   6.537   5.073  0.5158  0.1181  0.2796
  267MOL0     C35942   3.211   6.476   5.027 -0.0698 -0.4226  0.1056
  267MOL0     C35943   3.185   6.437   4.892  0.9659 -0.1940 -0.5985
  267MOL0     C35944   3.064   6.369   4.870  0.1571 -0.6058  0.1822
  267MOL0     C35945   2.984   6.333   4.975  0.3128  1.2294  0.0181
  267MOL0     O35946   2.866   6.279   4.932  0.6563  0.1412 -0.2699
  267MOL0     C35947   2.825   6.155   4.998 -0.1854  0.7374  0.7219
  267MOL0     C35948   2.675   6.182   5.015 -0.9061 -0.0894  0.0149
  267MOL0     C35949   2.595   6.050   4.994  0.2801  1.1126 -0.4893
  267MOL0     C35950   2.450   6.076   5.020 -0.3131 -0.9919  0.1849
  267MOL0     C35951   2.359   5.975   4.950  0.3675 -0.9665 -0.9749
  267MOL0     C35952   2.199   6.000   4.960 -0.6390 -0.0238  0.2355
  267MOL0     C35953   2.148   6.139   4.906 -0.2688 -0.1068 -0.3747
  267MOL0     C35954   1.993   6.167   4.928 -0.2164  0.7424  0.1323
  267MOL0    Cl35955   1.948   6.143   5.098  0.3788  0.2709 -0.0336
  267MOL0     C35956   3.007   6.379   5.107  1.4805 -0.7541  0.4744
  267MOL0     C35957   3.119   6.451   5.124  0.3274  0.7136 -0.7673
  267MOL0     O35958   3.459   6.454   4.898  0.5121 -0.3958  0.1229
  267MOL0     C35959   3.589   6.500   5.209  0.7017 -0.1597 -0.3227
  267MOL0     C35960   3.711   6.531   5.273  0.7468  0.4014 -0.9829
  267MOL0     N35961   4.406   6.916   5.346  0.7075  0.5031  0.1939
  267MOL0     N35962   4.430   6.957   5.228 -0.2890 -0.2169 -0.0838
  267MOL0     C35963   5.144   7.449   5.176  0.1913 -0.9071 -0.4564
  267MOL0     C35964   5.278   7.422   5.184 -0.5163  0.3835 -1.0455
  267MOL0     C35965   5.713   7.476   5.336 -0.0348 -0.0927 -0.7417
  267MOL0     C35966   5.752   7.369   5.262  0.2723 -0.3174 -0.3772
  267MOL0     C35967   5.887   7.363   5.227  0.0521 -0.5364  0.5024
  267MOL0     C35968   5.983   7.462   5.252  0.0343 -0.4206  1.0400
  267MOL0     O35969   6.113   7.449   5.209  0.2267  0.5651 -0.0549
  267MOL0     C35970   6.207   7.540   5.253  0.7101 -0.7303 -0.2344
  267MOL0     C35971   6.355   7.514   5.201  0.0738 -0.5728 -0.0550
  267MOL0     C35972   6.439   7.612   5.279  0.3036  0.6849  0.3315
  267MOL0     C35973   6.574   7.618   5.224 -0.4758  0.3972  0.0038
  267MOL0     C35974   6.678   7.641   5.319 -0.3722  0.3219 -0.1138
  267MOL0     C35975   6.762   7.654   5.404  0.4906 -0.2906 -0.3606
  267MOL0     C35976   5.937   7.573   5.326 -1.5860  0.2958 -0.0767
  267MOL0     C35977   5.804   7.575   5.370 -0.5228 -0.4733 -0.9083
  267MOL0     H35978   5.326   7.435   5.508  0.0551 -1.6536 -0.3292
  267MOL0     H35979   5.073   7.476   5.507 -2.6230  2.3311 -1.2873
  267MOL0     H35980   4.876   7.666   5.347 -1.9415  1.0689  0.2154
  267MOL0     H35981   4.881   7.635   5.174 -0.6556  1.4951  1.3304
  267MOL0     H35982   4.692   7.533   5.402 -2.2666  0.5251 -0.3985
  267MOL0     H35983   4.642   7.648   5.287 -1.5276 -0.7187  0.6254
  267MOL0     H35984   4.662   7.520   5.102 -1.6192  0.5308 -0.1542
  267MOL0     H35985   4.732   7.376   5.174 -0.8770 -1.2064 -0.1790
  267MOL0     H35986   4.483   7.387   5.299 -3.2351 -0.9322 -1.0770
  267MOL0     H35987   4.465   7.523   5.196  1.7493  0.5723  0.2745
  267MOL0     H35988   4.453   7.392   4.989 -0.6261 -0.3412 -0.2085
  267MOL0     H35989   4.517   7.254   5.080  2.6411  0.5339  0.7852
  267MOL0     H35990   4.315   7.282   5.236 -1.3137  4.0556  1.4071
  267MOL0     H35991   4.248   7.395   5.109  0.5424 -0.2796 -2.0461
  267MOL0     H35992   4.144   7.197   5.068  1.0563  1.9924  1.0298
  267MOL0     H35993   4.252   7.224   4.927 -2.6339  0.2296 -1.1699
  267MOL0     H35994   4.396   7.075   4.980 -1.7589 -0.1177 -2.3483
  267MOL0     H35995   4.246   6.990   4.981 -0.6935  1.2059 -0.4278
  267MOL0     H35996   4.111   7.023   5.256 -0.6297 -1.1242 -1.0442
  267MOL0     H35997   4.262   6.840   5.566 -0.9085 -2.8370 -1.3270
  267MOL0     H35998   4.168   6.992   5.544  0.9806  0.9555 -0.3401
  267MOL0     H35999   4.011   6.870   5.386 -0.9101 -3.2722 -1.4810
  267MOL0     H36000   4.025   6.820   5.555  1.5066  2.3080  1.6753
  267MOL0     H36001   4.155   6.623   5.491 -1.7835  1.3539  1.3222
  267MOL0     H36002   4.189   6.672   5.326  1.5844 -3.5471  0.9497
  267MOL0     H36003   3.919   6.599   5.449  1.4456  3.7811  1.2350
  267MOL0     H36004   4.043   6.499   5.363  1.3107  1.3547  0.7500
  267MOL0     H36005   3.852   6.732   5.035 -1.6269  2.6794  2.2664
  267MOL0     H36006   3.540   6.739   4.869 -1.4227 -3.4379 -0.0376
  267MOL0     H36007   3.714   6.765   4.845 -1.1581  0.5827 -0.0534
  267MOL0     H36008   3.628   6.598   4.820  0.4434 -0.8286  0.4047
  267MOL0     H36009   3.247   6.462   4.806  1.7859 -4.5430 -1.5239
  267MOL0     H36010   3.026   6.344   4.771  0.0373 -0.0852  0.0932
  267MOL0     H36011   2.853   6.067   4.939  4.8623 -0.2534  3.9220
  267MOL0     H36012   2.873   6.133   5.094  0.4719 -0.8609  0.0602
  267MOL0     H36013   2.660   6.222   5.116 -0.2863 -2.2731  1.0151
  267MOL0     H36014   2.644   6.259   4.943  0.5512 -1.3671 -2.0818
  267MOL0     H36015   2.633   5.969   5.057  1.1403  2.0592  0.2205
  267MOL0     H36016   2.614   6.030   4.888 -1.1348  0.1946 -0.6029
  267MOL0     H36017   2.419   6.092   5.124  0.5733 -0.2937  0.3510
  267MOL0     H36018   2.429   6.174   4.975 -0.0189 -1.7562 -1.6987
  267MOL0     H36019   2.389   5.880   4.996  2.6010  0.0077 -0.3120
  267MOL0     H36020   2.383   5.968   4.844 -2.3936 -0.5641 -1.7141
  267MOL0     H36021   2.150   5.910   4.922 -0.5094  0.0854 -0.1899
  267MOL0     H36022   2.172   6.001   5.066  1.1623 -0.2074  0.7195
  267MOL0     H36023   2.177   6.140   4.801 -2.2365  0.1969 -0.9587
  267MOL0     H36024   2.199   6.223   4.956  2.7403 -1.5025 -0.8903
  267MOL0     H36025   1.931   6.093   4.876 -3.6611  1.7708  2.4614
  267MOL0     H36026   1.957   6.267   4.903  1.1653  1.4220  0.7573
  267MOL0     H36027   2.937   6.348   5.184  0.6162 -0.5419 -0.2157
  267MOL0     H36028   3.142   6.476   5.227  0.8072  0.4415 -0.8075
  267MOL0     H36029   3.500   6.451   5.246 -0.1921  0.6424 -1.2996
  267MOL0     H36030   3.742   6.488   5.368  0.2696 -1.0241 -1.4395
  267MOL0     H36031   5.094   7.447   5.079 -1.9308 -1.3924  0.5844
  267MOL0     H36032   5.345   7.399   5.102  1.6486 -0.4980  0.8617
  267MOL0     H36033   5.673   7.305   5.225 -2.4906  2.7201 -0.1052
  267MOL0     H36034   5.903   7.280   5.159 -1.6447  0.3356 -1.0233
  267MOL0     H36035   6.183   7.645   5.234 -1.9542 -1.0779  0.7769
  267MOL0     H36036   6.214   7.539   5.362 -1.6636  0.7819 -0.0041
  267MOL0     H36037   6.361   7.516   5.092  0.4839 -0.3186 -0.0306
  267MOL0     H36038   6.374   7.410   5.225  2.3124 -0.7798 -2.3394
  267MOL0     H36039   6.440   7.577   5.383 -2.7912  1.7526  0.8506
  267MOL0     H36040   6.399   7.714   5.285  0.7335  0.7860  2.6718
  267MOL0     H36041   6.585   7.697   5.149  2.8834 -0.8662 -1.0346
  267MOL0     H36042   6.581   7.523   5.171 -1.4104 -0.0310  0.6201
  267MOL0     H36043   6.819   7.663   5.495 -0.7906 -0.7247  0.5159
  267MOL0     H36044   5.999   7.657   5.358 -1.3604  0.2443 -0.3736
  267MOL0     H36045   5.782   7.664   5.427 -0.7763 -0.4743 -1.0042
  268MOL0     O36046   1.234   7.656   6.306 -0.1416  0.5598 -0.7109
  268MOL0     C36047   1.198   7.745   6.230 -0.0702  0.5367  1.0127
  268MOL0     O36048   1.266   7.860   6.194  0.1604 -0.2528  0.0028
  268MOL0     C36049   1.398   7.880   6.229  0.1997 -0.6874  0.1963
  268MOL0     C36050   1.446   8.010   6.211 -0.8064  0.3052  0.6365
  268MOL0     C36051   1.581   8.042   6.232  0.9411  0.1979  0.5608
  268MOL0     C36052   1.679   7.942   6.251  0.4563  0.3775 -0.5038
  268MOL0     O36053   1.815   7.969   6.247 -0.1902  0.5892  0.4635
  268MOL0     C36054   1.889   7.879   6.171 -0.2365 -0.4957 -0.4126
  268MOL0     C36055   2.021   7.961   6.131  0.9252  0.4137 -0.0043
  268MOL0     C36056   1.971   8.071   6.032 -0.0688  0.3133 -0.2285
  268MOL0     C36057   2.086   8.104   5.938 -0.9456 -0.0958  0.0790
  268MOL0     C36058   2.062   8.213   5.836  0.1181 -0.2740  0.8100
  268MOL0     C36059   2.196   8.251   5.768  0.1657  0.6844  0.1158
  268MOL0     C36060   2.268   8.138   5.689 -0.5715 -0.4934  0.1381
  268MOL0     C36061   2.335   8.206   5.566  0.5465 -0.9244 -0.1314
  268MOL0     N36062   2.442   8.299   5.614  0.8295  0.8825 -0.0189
  268MOL0     C36063   2.579   8.282   5.597  0.5508 -0.8363  0.3169
  268MOL0     C36064   2.640   8.402   5.649  0.5446  1.5652  0.1233
  268MOL0     C36065   2.782   8.412   5.686  0.3542  0.2050  1.0496
  268MOL0     C36066   2.816   8.375   5.829 -0.0927 -0.4367 -0.2726
  268MOL0     C36067   2.962   8.362   5.848 -0.7518  0.1782  0.0203
  268MOL0     C36068   3.003   8.217   5.829  0.8997  0.0927  0.3724
  268MOL0     O36069   3.097   8.200   5.722 -0.0877 -0.8774  0.0632
  268MOL0     C36070   3.235   8.225   5.750  0.5007  1.0004  0.0364
  268MOL0     C36071   3.289   8.296   5.862  0.7426 -0.1213  0.0490
  268MOL0     C36072   3.420   8.342   5.867  0.0923 -0.1461  0.4591
  268MOL0     C36073   3.462   8.453   5.960  0.4677  0.7025 -1.1258
  268MOL0     C36074   3.513   8.300   5.763 -0.1716 -0.2658  0.5739
  268MOL0     C36075   3.653   8.346   5.754 -0.1086 -0.7552 -0.1721
  268MOL0     O36076   3.715   8.400   5.861  0.3688  0.1103 -0.1683
  268MOL0     C36077   3.832   8.469   5.838 -0.0721  0.3034  0.3441
  268MOL0     C36078   3.888   8.511   5.711 -0.2409 -0.1965  0.4588
  268MOL0     C36079   4.006   8.585   5.711  0.0217 -0.2619  0.0722
  268MOL0     C36080   4.079   8.613   5.821  0.4706  0.2980 -0.6068
  268MOL0     O36081   4.196   8.676   5.807  0.2519  0.2383  0.3927
  268MOL0     C36082   4.267   8.694   5.923 -0.6052 -0.1457 -0.3789
  268MOL0     C36083   4.409   8.757   5.909 -0.4855 -0.4805  0.3703
  268MOL0     C36084   4.400   8.901   5.836  1.0524  0.0839 -0.2454
  268MOL0     C36085   4.505   8.901   5.720 -0.0972  0.3307  0.1306
  268MOL0     C36086   4.547   9.046   5.694  0.4747 -0.0619 -0.2428
  268MOL0     C36087   4.634   9.058   5.577  0.2508 -0.1327  0.6707
  268MOL0     C36088   4.782   9.016   5.585  0.9520 -0.0171  0.4607
  268MOL0     C36089   4.876   9.128   5.539  0.1364 -0.8815 -0.3475
  268MOL0    Cl36090   4.884   9.264   5.670  0.2972 -0.6410  0.2282
  268MOL0     C36091   4.022   8.574   5.945  0.0583 -0.4052 -0.3806
  268MOL0     C36092   3.906   8.510   5.953  1.6020  0.3319 -0.1866
  268MOL0     O36093   3.701   8.322   5.642 -0.1766  0.3401 -0.1651
  268MOL0     C36094   3.455   8.215   5.668 -0.0104  0.8872 -0.7061
  268MOL0     C36095   3.324   8.179   5.654  0.1791  0.1625 -0.4686
  268MOL0     N36096   2.539   8.493   5.682  0.5708  0.0271  0.7604
  268MOL0     N36097   2.421   8.426   5.667  0.4305  0.6300 -0.1879
  268MOL0     C36098   1.625   7.820   6.282 -0.3771  0.4871  0.8925
  268MOL0     C36099   1.491   7.782   6.268 -0.8777 -1.3136  1.0714
  268MOL0     C36100   1.059   7.717   6.170 -0.0030  0.9338  0.5478
  268MOL0     C36101   1.019   7.777   6.045 -0.2097  0.5722 -1.1310
  268MOL0     C36102   0.897   7.752   5.985 -0.4014  0.4816  0.3359
  268MOL0     C36103   0.805   7.668   6.052 -0.8599  0.4851  0.3893
  268MOL0     O36104   0.678   7.654   6.016  0.7326 -0.2380 -0.6208
  268MOL0     C36105   0.576   7.729   6.080  0.0443 -0.5279 -0.2591
  268MOL0     C36106   0.438   7.690   6.042 -0.1565  0.3274  0.8477
  268MOL0     C36107   0.401   7.744   5.903 -0.0883  1.0905  0.5657
  268MOL0     C36108   0.282   7.655   5.861 -0.3261  0.0818  0.1791
  268MOL0     C36109   0.186   7.730   5.789  0.2009 -0.1248 -0.2100
  268MOL0     C36110   0.099   7.797   5.748  0.3193  0.1460  0.0295
  268MOL0     C36111   0.841   7.607   6.173 -0.0571  0.0227  0.0172
  268MOL0     C36112   0.968   7.618   6.225 -0.5653  0.3744 -0.5531
  268MOL0     H36113   1.383   8.095   6.183 -0.1626  0.7178  0.4076
  268MOL0     H36114   1.607   8.148   6.225  1.3778  0.0089 -1.5111
  268MOL0     H36115   1.916   7.788   6.226  0.9600 -0.3410 -0.7116
  268MOL0     H36116   1.840   7.842   6.080 -0.5428 -0.4313 -0.2730
  268MOL0     H36117   2.069   7.998   6.222 -1.3904  0.8115  1.1310
  268MOL0     H36118   2.099   7.907   6.078  2.1567  2.2548 -0.1533
  268MOL0     H36119   1.884   8.033   5.978 -0.6070  1.0202  0.1391
  268MOL0     H36120   1.939   8.161   6.085 -2.2591 -0.3303 -0.3519
  268MOL0     H36121   2.159   8.145   6.008 -2.8529  1.3736  1.3071
  268MOL0     H36122   2.122   8.007   5.904  1.3714  0.2628  1.3080
  268MOL0     H36123   2.000   8.178   5.753  1.0889 -1.4754  0.5599
  268MOL0     H36124   2.020   8.303   5.883  2.4664  0.9080  0.7914
  268MOL0     H36125   2.182   8.343   5.710 -0.8161 -0.5007 -1.6113
  268MOL0     H36126   2.263   8.275   5.851 -1.3287 -2.4430  2.4118
  268MOL0     H36127   2.342   8.097   5.759 -0.2810  0.4624  0.4131
  268MOL0     H36128   2.191   8.074   5.646 -0.7971  1.6389 -2.9811
  268MOL0     H36129   2.267   8.261   5.500 -0.0555 -0.6568  0.6974
  268MOL0     H36130   2.389   8.127   5.514  0.1764 -1.2575 -0.0116
  268MOL0     H36131   2.622   8.189   5.561 -1.4707 -1.2327 -1.2761
  268MOL0     H36132   2.841   8.352   5.617 -2.3234 -1.2922 -0.1210
  268MOL0     H36133   2.822   8.511   5.662  0.4046 -0.3054 -1.1898
  268MOL0     H36134   2.764   8.284   5.861  1.2192 -1.5848 -1.2618
  268MOL0     H36135   2.771   8.457   5.885  0.8114 -0.1233  0.0075
  268MOL0     H36136   3.002   8.402   5.942 -0.9863  3.7133 -1.2300
  268MOL0     H36137   3.018   8.412   5.768  2.2435  1.2311  2.5811
  268MOL0     H36138   2.910   8.163   5.814 -0.5574  2.2005  1.2614
  268MOL0     H36139   3.043   8.187   5.926  2.1031 -3.3463 -1.0399
  268MOL0     H36140   3.222   8.326   5.942  0.5523  1.1135 -0.5582
  268MOL0     H36141   3.524   8.400   6.033 -0.6479 -1.6424 -1.7942
  268MOL0     H36142   3.511   8.535   5.906  1.4946  2.0899  1.7060
  268MOL0     H36143   3.379   8.493   6.019  2.6480  1.5443  1.6228
  268MOL0     H36144   3.845   8.504   5.612  0.9024 -1.7314  0.0486
  268MOL0     H36145   4.053   8.632   5.626 -1.4064  3.1381  0.9791
  268MOL0     H36146   4.208   8.762   5.986 -0.7481  2.6617 -3.2962
  268MOL0     H36147   4.298   8.597   5.963  1.9494  0.2706 -1.1913
  268MOL0     H36148   4.455   8.764   6.008  4.4840 -0.2652 -1.6519
  268MOL0     H36149   4.473   8.682   5.863  0.3867 -0.0104  0.7919
  268MOL0     H36150   4.416   8.982   5.907 -0.1396 -1.7557  2.2476
  268MOL0     H36151   4.298   8.912   5.799  0.1641  5.1441  2.7721
  268MOL0     H36152   4.584   8.828   5.742 -0.6092 -0.6832 -1.2602
  268MOL0     H36153   4.455   8.861   5.631  0.1970  0.8753 -0.2874
  268MOL0     H36154   4.583   9.080   5.792  0.4759  2.7806 -1.1360
  268MOL0     H36155   4.449   9.091   5.676 -0.0037 -0.7955  0.4605
  268MOL0     H36156   4.579   9.009   5.496 -1.0499  2.5890 -0.2442
  268MOL0     H36157   4.633   9.164   5.547  6.4995  0.5503  1.4848
  268MOL0     H36158   4.793   8.929   5.520 -1.2174 -0.6042  0.7963
  268MOL0     H36159   4.811   8.978   5.683  1.8804 -0.0316  0.1958
  268MOL0     H36160   4.837   9.177   5.449  0.3623  0.4070  0.2373
  268MOL0     H36161   4.977   9.093   5.516  0.8478  0.6059  0.3733
  268MOL0     H36162   4.071   8.602   6.038 -0.6683  0.2163 -0.1745
  268MOL0     H36163   3.860   8.485   6.048 -0.6803  0.0713 -1.2967
  268MOL0     H36164   3.513   8.157   5.598 -1.1433 -0.3496 -0.6748
  268MOL0     H36165   3.286   8.107   5.582 -0.9012 -1.8998  2.0542
  268MOL0     H36166   1.690   7.736   6.308 -1.1628 -0.6333 -0.5991
  268MOL0     H36167   1.462   7.679   6.282 -1.5398 -1.8214 -2.8687
  268MOL0     H36168   1.086   7.845   5.993 -0.8841  1.0921 -1.3323
  268MOL0     H36169   0.870   7.798   5.891  1.7548  0.8712 -0.1374
  268MOL0     H36170   0.576   7.704   6.187 -2.2066  0.8374  0.1276
  268MOL0     H36171   0.585   7.838   6.075 -0.4752 -0.4129  0.8945
  268MOL0     H36172   0.367   7.736   6.111 -0.6479 -1.2112  1.4272
  268MOL0     H36173   0.435   7.581   6.054  0.9978 -0.1509 -2.2206
  268MOL0     H36174   0.483   7.739   5.830 -2.1741  1.2218 -1.9510
  268MOL0     H36175   0.380   7.850   5.914  1.7150  1.7174 -1.3351
  268MOL0     H36176   0.229   7.589   5.931  3.0746 -3.1816  0.0088
  268MOL0     H36177   0.314   7.581   5.787  0.6906 -0.2566  0.9431
  268MOL0     H36178   0.018   7.857   5.710  0.4019  0.6147  0.5857
  268MOL0     H36179   0.767   7.550   6.228 -0.7117  0.4139 -0.4391
  268MOL0     H36180   0.987   7.567   6.319  0.9948  3.9348  1.2406
  269MOL0     O36181   3.718   2.622   2.834 -0.9262 -0.2505  0.3561
  269MOL0     C36182   3.749   2.550   2.936  0.7709 -0.1552  1.0019
  269MOL0     O36183   3.670   2.455   2.987  0.2411  0.4565 -0.1941
  269MOL0     C36184   3.539   2.438   2.933 -1.0017 -0.0830  0.5744
  269MOL0     C36185   3.430   2.453   3.012 -0.1673 -0.2513 -0.1031
  269MOL0     C36186   3.294   2.427   2.959 -0.7396  0.0138  0.8752
  269MOL0     C36187   3.273   2.411   2.822 -0.2955 -0.2813  1.0462
  269MOL0     O36188   3.141   2.403   2.770 -0.3675  0.2920 -0.5983
  269MOL0     C36189   3.114   2.417   2.632  0.1062  0.2160 -0.1928
  269MOL0     C36190   3.118   2.286   2.554  0.8026  0.5418 -0.5212
  269MOL0     C36191   3.045   2.165   2.613  0.7021  0.9825 -0.4564
  269MOL0     C36192   2.902   2.147   2.573  0.4171  0.0189 -0.2369
  269MOL0     C36193   2.832   2.041   2.660 -1.2442 -1.1192  0.2875
  269MOL0     C36194   2.689   2.078   2.693  0.3579 -0.4772  0.9484
  269MOL0     C36195   2.598   2.062   2.568  0.8258 -0.5404  0.1378
  269MOL0     C36196   2.444   2.056   2.617 -0.5347  0.6533 -0.5392
  269MOL0     N36197   2.352   1.986   2.527  0.4751 -0.1977  0.0834
  269MOL0     C36198   2.307   2.029   2.407  0.2920  0.7437  0.1082
  269MOL0     C36199   2.253   1.917   2.350 -0.6414 -0.3083  0.4671
  269MOL0     C36200   2.185   1.918   2.217 -0.0493 -0.4650 -0.4641
  269MOL0     C36201   2.043   1.974   2.235 -0.6456  0.2999 -0.7813
  269MOL0     C36202   1.949   1.956   2.114 -1.0668  0.7400 -0.0263
  269MOL0     C36203   1.807   2.009   2.128  0.2091  0.0512 -0.3190
  269MOL0     O36204   1.716   1.970   2.020  0.2108  0.4120  0.2543
  269MOL0     C36205   1.585   2.004   2.021 -0.2513  0.2694 -0.1795
  269MOL0     C36206   1.500   1.958   1.917 -0.4009 -0.2034  0.3773
  269MOL0     C36207   1.363   1.988   1.917 -0.5113 -0.6879  0.2855
  269MOL0     C36208   1.289   1.943   1.793 -0.1311  0.0967 -0.6012
  269MOL0     C36209   1.304   2.061   2.020  0.1524  0.7339 -0.8475
  269MOL0     C36210   1.163   2.095   2.026 -0.3729 -0.7378 -0.3717
  269MOL0     O36211   1.136   2.220   2.080 -0.2554 -0.9947  0.2871
  269MOL0     C36212   1.002   2.252   2.116  0.0764 -0.3267 -0.1028
  269MOL0     C36213   0.996   2.387   2.126  0.9612 -0.2125  0.1194
  269MOL0     C36214   0.872   2.446   2.154  0.5535  0.4251 -0.8368
  269MOL0     C36215   0.752   2.370   2.176 -0.5325  0.8095  0.0001
  269MOL0     O36216   0.634   2.434   2.220 -0.4476  0.7275 -0.2251
  269MOL0     C36217   0.585   2.355   2.333 -0.0523  0.0267 -0.0396
  269MOL0     C36218   0.503   2.439   2.423  0.2819  0.2152  0.6298
  269MOL0     C36219   0.402   2.515   2.338 -0.3335  0.1512 -0.4165
  269MOL0     C36220   0.296   2.597   2.413  0.4301 -0.4385 -0.8744
  269MOL0     C36221   0.178   2.635   2.330 -0.3689 -0.3932 -0.0506
  269MOL0     C36222   0.082   2.724   2.406  0.2531  0.0699  0.4639
  269MOL0     C36223  -0.006   2.803   2.299  0.2350  0.7833  0.4936
  269MOL0     C36224  -0.097   2.913   2.358 -0.0756 -0.5117  0.6423
  269MOL0    Cl36225  -0.203   2.824   2.478  0.2250 -0.2614  0.4437
  269MOL0     C36226   0.762   2.229   2.167  0.1758  0.8267  0.4301
  269MOL0     C36227   0.889   2.168   2.132 -0.1276 -0.2226 -0.7347
  269MOL0     O36228   1.075   2.018   1.980 -0.0137 -0.1867 -0.3058
  269MOL0     C36229   1.391   2.106   2.120 -0.0337 -0.9805  0.3270
  269MOL0     C36230   1.531   2.086   2.115 -0.9318  0.2205 -0.1652
  269MOL0     N36231   2.266   1.813   2.432  0.3463  0.8635 -0.8845
  269MOL0     N36232   2.339   1.849   2.529  0.3751  0.3301 -0.6747
  269MOL0     C36233   3.388   2.399   2.744  0.3520  0.2856  0.0719
  269MOL0     C36234   3.519   2.413   2.795 -0.1716  0.8866  1.2891
  269MOL0     C36235   3.888   2.565   2.984 -0.6234 -0.8309 -0.5139
  269MOL0     C36236   3.945   2.457   3.039 -0.3739  0.0275 -0.0852
  269MOL0     C36237   4.078   2.460   3.069  0.2473  1.0725 -0.8623
  269MOL0     C36238   4.156   2.575   3.048  0.9105 -0.6361  0.6619
  269MOL0     O36239   4.291   2.573   3.081  0.7744 -0.1361 -1.2202
  269MOL0     C36240   4.380   2.672   3.024  0.8415  0.2656  0.2828
  269MOL0     C36241   4.503   2.693   3.118  0.5803 -0.2740  0.8179
  269MOL0     C36242   4.567   2.556   3.156 -0.3576  0.9073  0.3290
  269MOL0     C36243   4.672   2.580   3.257 -0.1105  0.4374 -0.2501
  269MOL0     C36244   4.792   2.643   3.199  0.2924 -0.1793 -0.5354
  269MOL0     C36245   4.887   2.693   3.143 -0.5320 -0.6422  0.5757
  269MOL0     C36246   4.097   2.685   2.997 -0.0762  0.5407 -0.2938
  269MOL0     C36247   3.967   2.682   2.961  0.3648 -1.1025 -0.2545
  269MOL0     H36248   3.455   2.473   3.115 -0.3712  0.7920 -0.2454
  269MOL0     H36249   3.206   2.425   3.023 -1.5315  4.2605  0.2550
  269MOL0     H36250   3.013   2.458   2.633 -0.2873 -0.6371  1.9261
  269MOL0     H36251   3.186   2.489   2.593 -1.2111  2.1267  0.7154
  269MOL0     H36252   3.079   2.299   2.453  0.0600 -0.6327 -0.4065
  269MOL0     H36253   3.221   2.249   2.543  1.0316  0.6620  0.9584
  269MOL0     H36254   3.097   2.072   2.587 -0.5145  0.0107  0.4512
  269MOL0     H36255   3.042   2.182   2.721  0.9882  0.5646 -0.3790
  269MOL0     H36256   2.853   2.245   2.585 -2.1020 -0.8881 -2.0892
  269MOL0     H36257   2.883   2.134   2.466  1.5457  1.6736 -0.6867
  269MOL0     H36258   2.829   1.941   2.616 -1.2620  0.9228 -5.0899
  269MOL0     H36259   2.883   2.041   2.757  0.6959  0.5670 -0.6591
  269MOL0     H36260   2.658   2.012   2.775  1.4312  0.1477  1.8889
  269MOL0     H36261   2.687   2.183   2.722 -1.7098 -0.7541  2.0145
  269MOL0     H36262   2.614   2.142   2.496  1.1671 -0.2662  0.5177
  269MOL0     H36263   2.615   1.967   2.516 -2.3675 -1.5007  0.6305
  269MOL0     H36264   2.409   2.158   2.629 -0.1934  0.5650  1.7139
  269MOL0     H36265   2.446   1.998   2.710  1.3717 -2.1605 -2.1541
  269MOL0     H36266   2.318   2.132   2.378  1.9401 -0.1561 -2.8461
  269MOL0     H36267   2.245   1.974   2.145  0.4879 -1.2700 -0.6619
  269MOL0     H36268   2.189   1.814   2.181  2.2490 -1.9525  3.4353
  269MOL0     H36269   2.051   2.081   2.256 -0.6831  0.2609 -0.5643
  269MOL0     H36270   1.991   1.937   2.323  2.1153  1.6910  1.5955
  269MOL0     H36271   1.941   1.847   2.110  2.1155  0.4380 -1.8859
  269MOL0     H36272   1.994   1.982   2.018  1.7304 -0.9581  0.6943
  269MOL0     H36273   1.813   2.115   2.100 -0.9908 -0.5024 -2.9863
  269MOL0     H36274   1.758   1.983   2.222 -1.9091 -0.0452 -1.4004
  269MOL0     H36275   1.550   1.913   1.832 -0.5056  1.6843 -0.7350
  269MOL0     H36276   1.235   1.849   1.807 -0.1800  0.5368  2.9616
  269MOL0     H36277   1.216   2.014   1.754 -2.0950 -0.0229  2.4998
  269MOL0     H36278   1.371   1.931   1.721 -0.2551  0.7760 -0.8626
  269MOL0     H36279   1.081   2.453   2.109 -0.9076  2.2495 -0.2362
  269MOL0     H36280   0.859   2.554   2.153  5.4617  1.4031  2.6490
  269MOL0     H36281   0.530   2.266   2.298  3.1668 -1.4114 -1.9076
  269MOL0     H36282   0.668   2.307   2.387  0.6806 -0.2855 -1.3915
  269MOL0     H36283   0.432   2.382   2.484 -2.5106  2.2987 -0.4575
  269MOL0     H36284   0.555   2.511   2.487  0.2953  0.1527  0.6900
  269MOL0     H36285   0.358   2.445   2.265 -1.1803  2.0500 -1.8366
  269MOL0     H36286   0.459   2.591   2.283 -1.0556  1.4646  0.6061
  269MOL0     H36287   0.254   2.543   2.499  1.9460 -2.3930 -1.2909
  269MOL0     H36288   0.344   2.688   2.450 -0.4526  0.0200 -0.8352
  269MOL0     H36289   0.123   2.545   2.299  0.6043 -0.7778 -0.7100
  269MOL0     H36290   0.218   2.687   2.243 -2.1452  0.9623 -0.1000
  269MOL0     H36291   0.020   2.663   2.473  0.5169 -2.3140 -1.3381
  269MOL0     H36292   0.143   2.800   2.456 -0.6538  0.4914  0.9523
  269MOL0     H36293  -0.077   2.730   2.261 -1.6817  2.4997  0.6094
  269MOL0     H36294   0.061   2.849   2.225  0.1555  0.9557  0.5267
  269MOL0     H36295  -0.153   2.954   2.274 -1.5282 -4.9184 -0.7998
  269MOL0     H36296  -0.046   2.990   2.417  0.2812 -1.2067  1.2617
  269MOL0     H36297   0.671   2.169   2.166 -0.5838  1.8522  2.4918
  269MOL0     H36298   0.880   2.061   2.118 -2.1632 -0.7832  3.3745
  269MOL0     H36299   1.344   2.177   2.189 -2.4867 -0.2829 -1.8951
  269MOL0     H36300   1.595   2.135   2.188 -1.2566  0.7961 -0.2682
  269MOL0     H36301   3.371   2.373   2.640 -0.3065  1.1712 -0.0590
  269MOL0     H36302   3.612   2.408   2.741  0.5091 -0.4464  2.5276
  269MOL0     H36303   3.896   2.360   3.044  1.0094 -0.7565 -1.1640
  269MOL0     H36304   4.126   2.366   3.095 -0.9155  0.0068 -2.4009
  269MOL0     H36305   4.409   2.641   2.923 -0.3799 -0.5448  0.1654
  269MOL0     H36306   4.324   2.765   3.017 -0.1458 -0.2582  0.9793
  269MOL0     H36307   4.460   2.748   3.202  0.4416 -0.0945  0.6323
  269MOL0     H36308   4.572   2.762   3.069  0.6932  1.0430  2.7590
  269MOL0     H36309   4.593   2.511   3.060 -1.7077 -1.6938  1.0655
  269MOL0     H36310   4.492   2.490   3.202  1.1800 -1.9168 -0.9211
  269MOL0     H36311   4.709   2.489   3.305  2.7105  1.2595 -0.6504
  269MOL0     H36312   4.631   2.646   3.334 -3.0642 -0.7120 -0.7215
  269MOL0     H36313   4.955   2.719   3.065  0.1690 -2.4552  0.5397
  269MOL0     H36314   4.146   2.782   2.986  3.2020 -0.9314  0.1196
  269MOL0     H36315   3.919   2.760   2.903  1.2218 -0.7801 -0.5406
  270MOL0     O36316   8.951   2.389   1.672 -0.2643 -0.2979  0.0031
  270MOL0     C36317   9.002   2.472   1.593 -0.9597  0.2714  0.6262
  270MOL0     O36318   9.086   2.578   1.621  1.4785  0.0581 -0.0155
  270MOL0     C36319   9.120   2.589   1.753  0.1513 -0.0390  0.5987
  270MOL0     C36320   9.216   2.505   1.805 -0.1267  0.0767 -0.1517
  270MOL0     C36321   9.247   2.531   1.938 -0.2257  0.4025  0.7300
  270MOL0     C36322   9.177   2.620   2.015 -0.7368 -0.2050 -0.3170
  270MOL0     O36323   9.211   2.639   2.151  0.0091 -0.4848  0.4004
  270MOL0     C36324   9.120   2.695   2.240  0.8264  0.8112 -0.7104
  270MOL0     C36325   9.172   2.675   2.380  0.1171  0.2501 -0.0866
  270MOL0     C36326   9.142   2.532   2.412 -0.3626  0.7344  0.1519
  270MOL0     C36327   9.229   2.478   2.524  0.2211 -0.6242  0.3419
  270MOL0     C36328   9.198   2.334   2.568 -1.0529  0.3206 -0.3736
  270MOL0     C36329   9.244   2.229   2.473 -0.2513 -0.4701 -0.7240
  270MOL0     C36330   9.373   2.249   2.411  0.0666  0.1851 -0.6472
  270MOL0     C36331   9.425   2.121   2.351  0.0340  0.9119  0.1023
  270MOL0     N36332   9.335   2.065   2.244  0.5895 -0.4697  1.0448
  270MOL0     C36333   9.310   2.132   2.119  0.2738 -0.3621  0.3212
  270MOL0     C36334   9.201   2.074   2.077 -0.8348  0.1680  0.9836
  270MOL0     C36335   9.129   2.118   1.949 -0.0861 -0.1359 -0.6040
  270MOL0     C36336   8.980   2.143   1.969  0.6045 -1.1253  0.5761
  270MOL0     C36337   8.925   2.283   2.005 -0.2348  0.4653  0.1054
  270MOL0     C36338   8.993   2.358   2.121  0.5118  0.1696  0.0258
  270MOL0     O36339   8.978   2.276   2.242  0.3525 -0.5066 -0.2490
  270MOL0     C36340   8.854   2.274   2.300 -0.8049 -0.4944  0.0110
  270MOL0     C36341   8.775   2.385   2.305  0.0597 -0.4188  0.5782
  270MOL0     C36342   8.649   2.380   2.372 -1.2692 -0.0763  0.8625
  270MOL0     C36343   8.585   2.515   2.389  0.0130 -0.3846 -0.5270
  270MOL0     C36344   8.611   2.265   2.435  0.4819 -1.0736 -0.6944
  270MOL0     C36345   8.498   2.247   2.531 -0.4393 -1.0530  0.3629
  270MOL0     O36346   8.494   2.145   2.629  0.0160 -0.0031 -1.0893
  270MOL0     C36347   8.379   2.129   2.697 -0.2202 -0.5382  0.2559
  270MOL0     C36348   8.383   2.105   2.828  0.3846 -0.0143 -0.0287
  270MOL0     C36349   8.269   2.070   2.903 -0.3885  0.2643  0.9131
  270MOL0     C36350   8.146   2.058   2.835 -0.4570  0.3833  0.5705
  270MOL0     O36351   8.050   2.001   2.912  0.4067 -0.8632 -0.5600
  270MOL0     C36352   7.952   1.917   2.855 -0.6560 -0.6132  0.7940
  270MOL0     C36353   7.854   1.887   2.968 -0.1582  0.0198 -0.1104
  270MOL0     C36354   7.737   1.799   2.904  0.2180  0.0197  0.5958
  270MOL0     C36355   7.726   1.668   2.969  0.5245 -0.4736 -0.0087
  270MOL0     C36356   7.685   1.673   3.112  0.3388  0.3107  0.5778
  270MOL0     C36357   7.556   1.750   3.152 -0.2069 -0.6326  0.6100
  270MOL0     C36358   7.525   1.725   3.304 -0.8947 -0.0843 -0.8502
  270MOL0     C36359   7.438   1.816   3.389 -0.1987 -0.1002 -0.3118
  270MOL0    Cl36360   7.419   1.744   3.555 -0.0879  0.6033  0.4555
  270MOL0     C36361   8.137   2.079   2.701  0.6175 -0.3186 -1.2388
  270MOL0     C36362   8.249   2.124   2.631 -0.6298 -0.2686  0.5266
  270MOL0     O36363   8.419   2.335   2.519 -0.2178 -0.4703  0.0068
  270MOL0     C36364   8.696   2.155   2.429 -0.0686 -0.0085 -0.2624
  270MOL0     C36365   8.813   2.156   2.355  0.0161 -0.1025 -0.0004
  270MOL0     N36366   9.160   1.976   2.168 -0.0790  0.2084 -0.3391
  270MOL0     N36367   9.250   1.960   2.260  0.7204  0.0301  0.6759
  270MOL0     C36368   9.074   2.699   1.964  0.1250  0.1778  0.6052
  270MOL0     C36369   9.052   2.689   1.823 -1.0151 -0.0756 -0.5033
  270MOL0     C36370   8.983   2.424   1.450  0.0834 -0.5255  0.2880
  270MOL0     C36371   8.999   2.522   1.345  0.3784 -0.1090 -0.8806
  270MOL0     C36372   9.001   2.475   1.211 -0.1235  0.6186 -0.9981
  270MOL0     C36373   8.997   2.336   1.180  1.0608 -0.3353  0.9328
  270MOL0     O36374   9.008   2.288   1.060  0.1063 -0.1940 -0.0431
  270MOL0     C36375   8.945   2.358   0.954  0.0424  0.6109 -0.0855
  270MOL0     C36376   8.966   2.275   0.825  0.3722  0.3051 -0.6065
  270MOL0     C36377   8.901   2.329   0.697 -0.3563 -0.2933  0.2905
  270MOL0     C36378   8.895   2.480   0.665 -1.0262  0.8004  0.6737
  270MOL0     C36379   9.038   2.539   0.660  0.2241 -0.1122 -0.1375
  270MOL0     C36380   9.149   2.591   0.655 -0.1022 -0.5004 -0.3812
  270MOL0     C36381   8.986   2.254   1.288 -0.2614 -0.9004  0.1560
  270MOL0     C36382   8.974   2.289   1.418  0.5458 -0.3043  0.5361
  270MOL0     H36383   9.279   2.437   1.749  0.3800  0.9540 -0.6613
  270MOL0     H36384   9.325   2.485   1.997  0.0138  3.2381  2.8189
  270MOL0     H36385   9.111   2.802   2.216  0.3639  0.4758 -2.1246
  270MOL0     H36386   9.020   2.653   2.226  0.6073  1.4561 -1.1536
  270MOL0     H36387   9.275   2.710   2.388 -0.0786  1.4844 -2.1017
  270MOL0     H36388   9.112   2.746   2.439 -2.1720  0.0821 -2.0596
  270MOL0     H36389   9.034   2.520   2.427 -0.7446 -1.0911 -3.1477
  270MOL0     H36390   9.170   2.467   2.328 -2.0566 -0.2075  0.2647
  270MOL0     H36391   9.333   2.475   2.490  0.0742 -0.0705 -0.1701
  270MOL0     H36392   9.205   2.536   2.614 -4.1877 -2.9731  0.9528
  270MOL0     H36393   9.245   2.317   2.665 -1.2280 -0.8603 -0.4849
  270MOL0     H36394   9.091   2.319   2.586 -0.6655 -1.4248  0.6733
  270MOL0     H36395   9.239   2.138   2.533 -0.2193  0.4281  0.6947
  270MOL0     H36396   9.174   2.218   2.390  0.3382 -0.1733 -1.2718
  270MOL0     H36397   9.372   2.328   2.336 -1.9137 -0.6090 -1.5287
  270MOL0     H36398   9.435   2.269   2.499 -0.4710 -2.4856  0.4456
  270MOL0     H36399   9.444   2.052   2.433 -1.8045 -0.5363 -0.6276
  270MOL0     H36400   9.520   2.143   2.301 -1.0229  3.8028 -0.8500
  270MOL0     H36401   9.370   2.201   2.061  0.2209 -1.0262 -0.5486
  270MOL0     H36402   9.186   2.204   1.913  1.5597 -0.5106  0.9463
  270MOL0     H36403   9.145   2.049   1.865 -0.1876 -1.0837  0.1381
  270MOL0     H36404   8.939   2.067   2.036  1.6188 -1.9890  0.2513
  270MOL0     H36405   8.928   2.124   1.874 -0.2436  1.8610  0.3286
  270MOL0     H36406   8.817   2.285   2.023 -0.2753  2.5348 -0.1455
  270MOL0     H36407   8.939   2.349   1.919 -0.9495 -3.1475 -3.0860
  270MOL0     H36408   8.941   2.454   2.131  2.0191  1.2517 -1.7688
  270MOL0     H36409   9.099   2.373   2.097  0.2930  1.5600 -0.1728
  270MOL0     H36410   8.820   2.480   2.276  0.6632 -1.4708 -2.1688
  270MOL0     H36411   8.479   2.519   2.363 -0.0516 -1.3396 -0.4564
  270MOL0     H36412   8.600   2.550   2.492 -2.1247  2.6684 -1.1372
  270MOL0     H36413   8.636   2.590   2.329 -1.2645  1.9547  1.1417
  270MOL0     H36414   8.479   2.112   2.879 -0.0087  1.2310  0.5946
  270MOL0     H36415   8.278   2.054   3.010 -0.2092 -0.4261  0.8001
  270MOL0     H36416   7.919   1.970   2.766  3.9180  0.0737 -0.7370
  270MOL0     H36417   7.995   1.820   2.827  1.2254 -0.0115  1.4416
  270MOL0     H36418   7.910   1.834   3.046  0.4229  1.0397  0.1829
  270MOL0     H36419   7.825   1.985   3.007  0.0493  0.4081 -0.9313
  270MOL0     H36420   7.765   1.783   2.800  1.3458  2.1884  0.5093
  270MOL0     H36421   7.649   1.864   2.898  0.5615  0.7926  2.8996
  270MOL0     H36422   7.649   1.613   2.915 -2.2881  2.5497  0.6367
  270MOL0     H36423   7.826   1.623   2.961  0.6897  0.0913 -1.6957
  270MOL0     H36424   7.774   1.697   3.171  3.2221 -4.8754 -1.0069
  270MOL0     H36425   7.666   1.568   3.135 -1.6309  0.8358  1.4701
  270MOL0     H36426   7.584   1.856   3.144 -1.0520 -0.5174 -1.3744
  270MOL0     H36427   7.468   1.729   3.090  0.9600  3.6731 -3.0636
  270MOL0     H36428   7.619   1.731   3.360  0.6663  0.4533 -3.3839
  270MOL0     H36429   7.505   1.618   3.306  0.9019 -0.7157 -5.2555
  270MOL0     H36430   7.497   1.907   3.388  1.8106 -1.1255  3.8700
  270MOL0     H36431   7.344   1.837   3.337  1.9447  1.9009 -3.7387
  270MOL0     H36432   8.046   2.069   2.644 -0.0159  0.3103 -0.3723
  270MOL0     H36433   8.238   2.124   2.523  1.4207 -1.0980  0.2636
  270MOL0     H36434   8.665   2.072   2.492 -0.4315  3.1893  4.2705
  270MOL0     H36435   8.881   2.072   2.367 -0.5866 -0.3448  2.1846
  270MOL0     H36436   9.008   2.765   2.019  0.0200  0.4617  0.1367
  270MOL0     H36437   8.975   2.745   1.770  0.2536  0.8854 -1.4110
  270MOL0     H36438   9.003   2.629   1.358  0.1712  0.2843 -3.4737
  270MOL0     H36439   9.017   2.537   1.123 -0.8614  0.1460 -1.4797
  270MOL0     H36440   8.838   2.377   0.962 -0.1555 -1.2204  3.5413
  270MOL0     H36441   8.990   2.457   0.945 -1.4597  1.2817 -0.3713
  270MOL0     H36442   8.934   2.172   0.844 -0.2103  0.3385 -1.3793
  270MOL0     H36443   9.076   2.278   0.818  0.5015 -0.4035  0.8493
  270MOL0     H36444   8.797   2.306   0.721 -0.4532  0.7702  0.9850
  270MOL0     H36445   8.931   2.284   0.602  0.1859 -1.1971  0.8747
  270MOL0     H36446   8.842   2.533   0.745 -2.3375 -0.4082  0.6466
  270MOL0     H36447   8.855   2.490   0.564 -0.2140 -1.5116  0.0599
  270MOL0     H36448   9.248   2.631   0.662 -0.7122  1.6506 -2.9045
  270MOL0     H36449   8.976   2.148   1.266  0.1467 -0.5924 -1.6219
  270MOL0     H36450   8.956   2.214   1.494 -2.6957 -0.1929  0.0253
  271MOL0     O36451  10.145   7.819   0.511  0.4849 -0.5391  0.7125
  271MOL0     C36452  10.188   7.799   0.400  0.6115 -0.0181  0.6418
  271MOL0     O36453  10.117   7.753   0.293 -0.2908 -0.0314  0.5802
  271MOL0     C36454   9.991   7.690   0.312  0.2514  0.0099 -0.5231
  271MOL0     C36455   9.976   7.558   0.272 -0.0123  0.2768  0.5009
  271MOL0     C36456   9.848   7.492   0.280 -1.2220 -0.7147  0.3621
  271MOL0     C36457   9.738   7.560   0.318 -0.2564 -0.6516 -0.4337
  271MOL0     O36458   9.621   7.496   0.316  0.1540  0.2445  0.6633
  271MOL0     C36459   9.508   7.549   0.388 -0.1080 -0.1164 -0.3915
  271MOL0     C36460   9.379   7.464   0.353 -0.4080  0.6747  0.2070
  271MOL0     C36461   9.278   7.486   0.461 -0.0917 -0.1186 -0.2550
  271MOL0     C36462   9.202   7.357   0.475  0.6187  0.0050  0.0580
  271MOL0     C36463   9.076   7.379   0.558 -0.9904 -0.4557  0.0891
  271MOL0     C36464   9.054   7.256   0.645  0.4684 -0.1228  0.6319
  271MOL0     C36465   8.905   7.210   0.647  0.7090  0.3188 -0.2411
  271MOL0     C36466   8.905   7.092   0.756  0.4252 -0.3152  0.1868
  271MOL0     N36467   8.765   7.053   0.769 -0.0826  0.6327  0.6031
  271MOL0     C36468   8.692   6.981   0.675  0.5679  0.4737  0.2349
  271MOL0     C36469   8.566   6.980   0.727 -0.5203  0.0713 -0.0372
  271MOL0     C36470   8.445   6.921   0.663 -0.4852  0.4961  0.3999
  271MOL0     C36471   8.398   6.806   0.749  0.5157 -0.2975 -0.8167
  271MOL0     C36472   8.488   6.683   0.770  0.3209 -0.0392 -0.6728
  271MOL0     C36473   8.432   6.570   0.857 -0.3157  0.3287 -0.9902
  271MOL0     O36474   8.420   6.605   0.992  0.6919 -0.4536 -0.1336
  271MOL0     C36475   8.288   6.600   1.044  0.2126  0.5782 -0.6336
  271MOL0     C36476   8.206   6.489   1.025 -0.3291  0.5864  0.1670
  271MOL0     C36477   8.077   6.470   1.083  0.1098 -0.3716 -0.4495
  271MOL0     C36478   8.002   6.345   1.052 -0.3125 -0.1778 -0.1506
  271MOL0     C36479   8.026   6.577   1.155 -0.1534  0.7741 -0.9724
  271MOL0     C36480   7.890   6.578   1.207 -0.1118 -0.3421 -0.5482
  271MOL0     O36481   7.850   6.483   1.288 -0.4643  0.1213 -0.4799
  271MOL0     C36482   7.719   6.484   1.341  0.2831 -0.7060  0.3155
  271MOL0     C36483   7.624   6.382   1.306  0.4989 -0.7447  0.7677
  271MOL0     C36484   7.493   6.386   1.366  0.4092  0.0748 -0.7475
  271MOL0     C36485   7.448   6.494   1.445 -0.0891  0.8640  0.1345
  271MOL0     O36486   7.318   6.486   1.490 -0.5291 -0.2317 -0.5014
  271MOL0     C36487   7.285   6.546   1.617  0.0926 -0.6096  0.0081
  271MOL0     C36488   7.145   6.509   1.638 -0.2608  0.0037 -0.3374
  271MOL0     C36489   7.068   6.615   1.730  0.2236  0.6501 -0.0242
  271MOL0     C36490   6.925   6.565   1.740  0.6885  0.2880  0.4537
  271MOL0     C36491   6.902   6.480   1.871  0.0459 -0.1758  0.9547
  271MOL0     C36492   6.869   6.563   1.987 -0.3573 -0.4984  0.6346
  271MOL0     C36493   6.791   6.490   2.091  0.0268  0.9056  0.6414
  271MOL0     C36494   6.768   6.569   2.225 -0.8237  0.1211 -0.2332
  271MOL0    Cl36495   6.726   6.740   2.207 -0.4184  0.6430  0.1574
  271MOL0     C36496   7.538   6.595   1.470 -0.4342  0.5983 -0.2156
  271MOL0     C36497   7.669   6.593   1.420  0.1583  0.7065 -0.4319
  271MOL0     O36498   7.828   6.672   1.169 -0.0697 -0.8288  0.0993
  271MOL0     C36499   8.110   6.685   1.193  0.0368  0.5571  0.7389
  271MOL0     C36500   8.236   6.696   1.128 -0.4638 -0.6195  0.4898
  271MOL0     N36501   8.560   7.055   0.840  0.4626 -0.9913  0.1615
  271MOL0     N36502   8.681   7.089   0.872  0.2906  0.6622 -0.0050
  271MOL0     C36503   9.754   7.695   0.350  0.0909  0.0057  0.0761
  271MOL0     C36504   9.879   7.756   0.362  0.1248 -1.0258 -0.3422
  271MOL0     C36505  10.319   7.857   0.364  0.9267 -0.9596 -1.2844
  271MOL0     C36506  10.387   7.813   0.257  0.5397  0.7086  0.0347
  271MOL0     C36507  10.509   7.871   0.215  0.7780 -0.5174 -0.2471
  271MOL0     C36508  10.561   7.991   0.278  0.0595 -0.4241 -0.4324
  271MOL0     O36509  10.676   8.061   0.245  0.0518  1.0154  0.6030
  271MOL0     C36510  10.781   8.000   0.167 -0.1084 -0.8239  0.2459
  271MOL0     C36511  10.924   8.024   0.215 -0.1111  0.3389 -0.1565
  271MOL0     C36512  10.936   8.162   0.278  0.1127 -0.4152 -0.7484
  271MOL0     C36513  11.081   8.196   0.331 -0.4550 -0.5330 -0.5869
  271MOL0     C36514  11.123   8.120   0.442  0.1280 -0.7309  0.6584
  271MOL0     C36515  11.135   8.048   0.541  0.1209  0.7682 -0.5812
  271MOL0     C36516  10.484   8.039   0.390  0.3641 -0.2003  0.7117
  271MOL0     C36517  10.371   7.969   0.429  0.0885 -1.0525 -0.0600
  271MOL0     H36518  10.057   7.503   0.225  0.3883  2.7811 -2.0048
  271MOL0     H36519   9.838   7.389   0.248  1.1981 -1.0699  0.5816
  271MOL0     H36520   9.536   7.544   0.494 -0.4184  1.9131 -0.1766
  271MOL0     H36521   9.480   7.650   0.359 -2.2025 -1.1094 -2.1329
  271MOL0     H36522   9.342   7.498   0.256 -2.6464  0.0189  0.7767
  271MOL0     H36523   9.417   7.362   0.363  0.7690  1.3217  3.9375
  271MOL0     H36524   9.329   7.510   0.554 -2.0468 -0.9335  1.0986
  271MOL0     H36525   9.206   7.566   0.438  0.3015  0.2075 -0.3517
  271MOL0     H36526   9.185   7.324   0.372  1.8890 -1.9811  0.4399
  271MOL0     H36527   9.273   7.286   0.517  1.3921  0.1197 -1.0472
  271MOL0     H36528   9.079   7.478   0.606 -2.3606  0.5848 -1.8062
  271MOL0     H36529   8.993   7.400   0.490 -0.7001  1.5068  0.2819
  271MOL0     H36530   9.118   7.179   0.602  1.2248 -0.2464  1.9273
  271MOL0     H36531   9.088   7.267   0.749 -0.6511  0.1282  0.9926
  271MOL0     H36532   8.828   7.283   0.675 -0.8355 -0.3731 -2.3655
  271MOL0     H36533   8.883   7.175   0.546 -0.9941 -0.1823  0.2726
  271MOL0     H36534   8.939   7.117   0.856 -0.6768 -1.0054  0.7529
  271MOL0     H36535   8.966   7.005   0.728  0.2633 -0.2442 -0.4054
  271MOL0     H36536   8.716   6.929   0.584 -3.4528 -2.5412  0.6091
  271MOL0     H36537   8.362   6.991   0.651 -0.9399 -0.3204 -1.6272
  271MOL0     H36538   8.484   6.887   0.567 -0.7395  1.4569 -0.0545
  271MOL0     H36539   8.310   6.767   0.697 -1.8163  1.1784  1.7449
  271MOL0     H36540   8.369   6.841   0.849  3.3212  1.1392 -0.3770
  271MOL0     H36541   8.584   6.712   0.813 -0.5429  0.5864  0.9243
  271MOL0     H36542   8.517   6.636   0.675  0.4080  1.6640 -1.5246
  271MOL0     H36543   8.500   6.484   0.856  3.3580  2.8803  1.2493
  271MOL0     H36544   8.342   6.540   0.804  0.3619 -2.5119 -0.6860
  271MOL0     H36545   8.264   6.421   0.962  2.5437  1.2007  1.9525
  271MOL0     H36546   7.907   6.365   1.002 -1.3935 -2.6617  0.7210
  271MOL0     H36547   8.049   6.273   0.984 -1.0302  0.2797 -1.1662
  271MOL0     H36548   7.988   6.288   1.145  1.1882  0.5903  0.5798
  271MOL0     H36549   7.647   6.306   1.232 -0.8922  1.1640 -1.7949
  271MOL0     H36550   7.435   6.297   1.342  0.4313 -0.3445  0.6724
  271MOL0     H36551   7.353   6.517   1.698 -0.8185 -1.5296  0.4612
  271MOL0     H36552   7.277   6.654   1.604 -1.1824 -0.8123 -1.1158
  271MOL0     H36553   7.085   6.495   1.547 -2.4979 -1.5592  1.2653
  271MOL0     H36554   7.142   6.409   1.683  1.8423 -0.0885 -0.2975
  271MOL0     H36555   7.060   6.714   1.683 -1.4389  0.1596 -0.8555
  271MOL0     H36556   7.112   6.628   1.829 -1.8741 -0.6766  1.1574
  271MOL0     H36557   6.857   6.651   1.742  0.3612  0.0360  0.2894
  271MOL0     H36558   6.898   6.503   1.654 -2.5603  1.9828  0.0904
  271MOL0     H36559   6.994   6.425   1.897  1.2108  0.8319 -0.8518
  271MOL0     H36560   6.820   6.408   1.859  0.2634 -0.2476 -0.1542
  271MOL0     H36561   6.958   6.612   2.029 -2.1704  1.5466  2.3719
  271MOL0     H36562   6.803   6.644   1.952  0.1714  0.0575  0.8960
  271MOL0     H36563   6.825   6.389   2.114 -1.0103  1.0246  2.9438
  271MOL0     H36564   6.694   6.468   2.047 -0.3172  0.9452  1.3651
  271MOL0     H36565   6.860   6.562   2.283 -1.5210  2.4195  1.2988
  271MOL0     H36566   6.698   6.522   2.295  1.0236 -0.1169  1.5213
  271MOL0     H36567   7.505   6.675   1.535  0.4199  0.6924  0.1157
  271MOL0     H36568   7.738   6.668   1.454  0.9821 -0.1558 -0.1572
  271MOL0     H36569   8.070   6.757   1.263  1.1645  2.7231 -0.7279
  271MOL0     H36570   8.306   6.774   1.158  0.0913 -0.5537 -0.9093
  271MOL0     H36571   9.670   7.754   0.386 -0.8839 -1.3665  0.1136
  271MOL0     H36572   9.903   7.858   0.392  0.0833 -1.1256  0.0308
  271MOL0     H36573  10.354   7.731   0.194  1.7366  0.1231  0.1295
  271MOL0     H36574  10.571   7.840   0.131  0.1913  1.2462 -1.3821
  271MOL0     H36575  10.779   7.890   0.169  2.9356 -1.0169 -0.9182
  271MOL0     H36576  10.772   8.037   0.064 -2.4312 -1.4082  0.1781
  271MOL0     H36577  10.995   8.008   0.133 -0.5206 -1.1230 -0.2643
  271MOL0     H36578  10.963   7.948   0.284  1.1369  0.7053 -0.4443
  271MOL0     H36579  10.866   8.167   0.363  1.0594 -0.9869  0.0796
  271MOL0     H36580  10.910   8.243   0.209 -3.6232  0.1802  1.1034
  271MOL0     H36581  11.098   8.302   0.349  0.5077 -0.9827  1.4449
  271MOL0     H36582  11.155   8.169   0.255  0.2706 -2.5216  0.7549
  271MOL0     H36583  11.137   7.998   0.637  0.1085  2.1791  0.1766
  271MOL0     H36584  10.507   8.124   0.453 -2.5814 -0.1336  1.8554
  271MOL0     H36585  10.319   7.997   0.519  0.4475 -1.9822  0.4540
  272MOL0     O36586   4.321   5.183   2.144 -0.0233 -0.3308  0.0140
  272MOL0     C36587   4.348   5.196   2.265  0.2313  0.1619 -0.0438
  272MOL0     O36588   4.283   5.139   2.372  0.9353 -0.6969  0.5584
  272MOL0     C36589   4.192   5.037   2.360  0.8214 -0.1662 -0.0571
  272MOL0     C36590   4.084   5.026   2.456 -0.2115 -1.2866  0.0293
  272MOL0     C36591   3.989   4.926   2.439 -0.0006 -0.2418  0.8891
  272MOL0     C36592   3.987   4.841   2.327  0.6263 -0.8317 -1.0154
  272MOL0     O36593   3.884   4.759   2.324  0.6789  0.4345  0.8915
  272MOL0     C36594   3.819   4.753   2.194  0.0009  1.0573 -0.3641
  272MOL0     C36595   3.721   4.640   2.206  0.1514 -0.7133 -0.7853
  272MOL0     C36596   3.638   4.646   2.088 -0.0415 -0.7310  0.8775
  272MOL0     C36597   3.520   4.550   2.098 -0.4370 -0.1494 -0.6758
  272MOL0     C36598   3.451   4.533   1.965  0.2272 -0.0089  0.3662
  272MOL0     C36599   3.315   4.469   1.983  0.0750  1.0444 -0.7797
  272MOL0     C36600   3.231   4.445   1.847 -0.9649  0.3180 -0.8140
  272MOL0     C36601   3.087   4.407   1.872 -0.6625  0.1571 -0.1786
  272MOL0     N36602   3.076   4.283   1.952  0.6939  0.1010 -0.5246
  272MOL0     C36603   3.061   4.155   1.906  0.5074  0.3220  0.7014
  272MOL0     C36604   3.055   4.080   2.018  0.6730 -0.2464 -0.0433
  272MOL0     C36605   3.020   3.931   2.026 -0.0033  0.3656 -0.0911
  272MOL0     C36606   2.873   3.888   2.026 -0.5251 -0.5125  1.0320
  272MOL0     C36607   2.784   3.983   1.942 -0.7101 -0.0824 -0.3933
  272MOL0     C36608   2.635   3.957   1.959  0.1591  0.9977 -0.0469
  272MOL0     O36609   2.554   4.070   1.909 -0.7236 -0.1281  0.1785
  272MOL0     C36610   2.466   4.119   2.002 -0.7893  0.2385 -0.4483
  272MOL0     C36611   2.485   4.135   2.137  0.7712  0.3657 -0.7226
  272MOL0     C36612   2.385   4.190   2.227 -0.0399  0.7416 -1.0931
  272MOL0     C36613   2.426   4.191   2.367 -0.1020  0.2869 -0.1167
  272MOL0     C36614   2.271   4.249   2.171  0.6665  0.3899  0.4192
  272MOL0     C36615   2.159   4.318   2.254 -0.3708 -0.9961  0.8726
  272MOL0     O36616   2.052   4.356   2.180  0.1093  0.2827  0.2498
  272MOL0     C36617   1.942   4.401   2.247 -0.0961 -0.3608  0.2392
  272MOL0     C36618   1.924   4.527   2.282  0.1616 -1.8363  0.1432
  272MOL0     C36619   1.805   4.574   2.339  0.3020 -0.0353  1.9244
  272MOL0     C36620   1.701   4.485   2.366 -0.3299 -0.2222 -0.3308
  272MOL0     O36621   1.586   4.531   2.437  0.2678 -0.3717 -0.1537
  272MOL0     C36622   1.476   4.442   2.424  0.4217 -0.5139 -0.7421
  272MOL0     C36623   1.357   4.539   2.462 -0.5518  0.1421  0.1696
  272MOL0     C36624   1.238   4.454   2.462  0.9324  0.4458  0.5480
  272MOL0     C36625   1.117   4.548   2.455 -0.8625  1.3545  0.7578
  272MOL0     C36626   0.987   4.492   2.506 -0.4366 -0.4091  0.4105
  272MOL0     C36627   0.864   4.575   2.461  0.4257  0.5057  0.1471
  272MOL0     C36628   0.736   4.502   2.492  0.0644  0.7405  1.0796
  272MOL0     C36629   0.678   4.536   2.636 -0.6300 -0.1143  0.9829
  272MOL0    Cl36630   0.506   4.486   2.668  0.4112 -0.0999 -0.3327
  272MOL0     C36631   1.724   4.345   2.330 -0.4052 -0.1675 -0.9931
  272MOL0     C36632   1.839   4.309   2.276 -0.1416  0.3685  0.4266
  272MOL0     O36633   2.171   4.332   2.375 -0.6703 -0.4792  0.2339
  272MOL0     C36634   2.261   4.244   2.026  1.2212 -0.4434  0.0329
  272MOL0     C36635   2.356   4.178   1.948 -0.0483  0.3024 -1.1484
  272MOL0     N36636   3.047   4.167   2.123  0.4418 -0.4476 -0.0480
  272MOL0     N36637   3.066   4.287   2.082  0.0752 -0.7379 -0.2347
  272MOL0     C36638   4.090   4.858   2.231  0.1655  0.4539  0.0343
  272MOL0     C36639   4.192   4.949   2.246  0.6970  0.6272  0.2659
  272MOL0     C36640   4.460   5.277   2.304  0.1074 -0.5273 -0.8439
  272MOL0     C36641   4.565   5.307   2.214 -0.1415  0.3455 -0.6772
  272MOL0     C36642   4.684   5.364   2.258  0.5452 -0.7319  0.5376
  272MOL0     C36643   4.693   5.398   2.396  0.5625  0.3638  0.2361
  272MOL0     O36644   4.809   5.453   2.456  0.7461  0.5455 -0.8167
  272MOL0     C36645   4.934   5.425   2.395  0.1743 -0.0443  0.5313
  272MOL0     C36646   5.052   5.455   2.491  0.0133  0.1203  0.2180
  272MOL0     C36647   5.094   5.598   2.507 -0.3640  0.6637  0.3181
  272MOL0     C36648   5.181   5.674   2.398  1.2136 -0.4050 -0.9579
  272MOL0     C36649   5.308   5.609   2.369  0.3926  0.1498  0.1055
  272MOL0     C36650   5.402   5.543   2.340  0.5959  0.5986 -0.0164
  272MOL0     C36651   4.585   5.374   2.482 -0.6999 -0.0190  0.1553
  272MOL0     C36652   4.468   5.313   2.435 -0.1830 -0.3730 -0.5821
  272MOL0     H36653   4.073   5.103   2.531 -0.6197 -1.1721 -0.1432
  272MOL0     H36654   3.906   4.904   2.506  0.6682  0.1037  1.8603
  272MOL0     H36655   3.777   4.851   2.171  2.2862  2.2650  0.2857
  272MOL0     H36656   3.889   4.720   2.117  1.4746  1.8426  0.5967
  272MOL0     H36657   3.785   4.551   2.201  2.6496  0.8517  0.9540
  272MOL0     H36658   3.670   4.637   2.303  0.7638  1.9438 -0.3128
  272MOL0     H36659   3.595   4.743   2.063 -2.0937 -1.2676  2.0313
  272MOL0     H36660   3.700   4.608   2.006 -2.0949 -1.4336 -0.4229
  272MOL0     H36661   3.554   4.449   2.123 -2.6757 -1.2869 -1.9395
  272MOL0     H36662   3.452   4.594   2.171  0.1213  1.9174 -1.3554
  272MOL0     H36663   3.429   4.631   1.922  1.9197  0.1283 -0.2595
  272MOL0     H36664   3.521   4.487   1.894  0.2241  1.6713 -0.7595
  272MOL0     H36665   3.333   4.370   2.026 -2.1603  1.6514  1.8866
  272MOL0     H36666   3.257   4.533   2.050 -0.4289  1.1152 -1.2773
  272MOL0     H36667   3.241   4.537   1.789  3.7117 -0.8084 -2.2335
  272MOL0     H36668   3.286   4.370   1.789 -0.4094  0.9107 -1.0551
  272MOL0     H36669   3.028   4.395   1.781 -1.9328  2.4591  0.2637
  272MOL0     H36670   3.049   4.491   1.930 -3.0395  0.4992 -2.0636
  272MOL0     H36671   3.071   4.111   1.807 -0.2273 -3.0282  1.9641
  272MOL0     H36672   3.070   3.894   1.936 -0.0264  0.3796 -0.1096
  272MOL0     H36673   3.066   3.876   2.109  0.0224 -1.4240 -1.2352
  272MOL0     H36674   2.833   3.888   2.128 -0.3059 -2.6207  1.1547
  272MOL0     H36675   2.874   3.787   1.985  2.6630  0.3809 -1.4867
  272MOL0     H36676   2.815   3.970   1.837 -1.4225 -0.0664 -0.6071
  272MOL0     H36677   2.798   4.088   1.967  0.4773 -0.0497 -1.0839
  272MOL0     H36678   2.618   3.921   2.061 -0.3059 -0.0620 -0.4813
  272MOL0     H36679   2.609   3.868   1.901 -2.9409 -0.6686  3.4711
  272MOL0     H36680   2.577   4.099   2.183 -0.2314  0.0782  1.1367
  272MOL0     H36681   2.392   4.280   2.420  2.2264 -0.0120  2.0515
  272MOL0     H36682   2.397   4.095   2.412  1.8484 -1.2706 -2.0074
  272MOL0     H36683   2.534   4.194   2.379 -0.0464 -0.4943 -0.3705
  272MOL0     H36684   2.003   4.602   2.274 -1.2172 -0.2462  0.8577
  272MOL0     H36685   1.802   4.681   2.356  1.9932  0.5817 -0.9353
  272MOL0     H36686   1.457   4.383   2.334 -2.9194 -1.7917  0.6223
  272MOL0     H36687   1.478   4.367   2.504 -1.4272 -0.8985 -1.0077
  272MOL0     H36688   1.373   4.579   2.562 -2.2367 -2.0077  1.3871
  272MOL0     H36689   1.346   4.613   2.382 -1.5802  0.0751  0.2285
  272MOL0     H36690   1.224   4.400   2.556  3.6090 -0.1173  0.7180
  272MOL0     H36691   1.235   4.382   2.379  0.7196  1.5526 -0.4239
  272MOL0     H36692   1.149   4.639   2.506  0.7370  2.2342 -1.6042
  272MOL0     H36693   1.114   4.572   2.348  1.1198  2.5925  0.9149
  272MOL0     H36694   0.979   4.479   2.615 -3.6120 -1.5108  0.1411
  272MOL0     H36695   0.976   4.392   2.463 -1.2721 -1.1488  2.2390
  272MOL0     H36696   0.862   4.675   2.505 -1.8630  0.5900  0.0145
  272MOL0     H36697   0.870   4.583   2.352 -0.2723  0.3426  0.0919
  272MOL0     H36698   0.753   4.395   2.477 -3.0515  0.4574 -1.6208
  272MOL0     H36699   0.656   4.527   2.422  0.2823  0.6230  0.7905
  272MOL0     H36700   0.679   4.645   2.644  1.5945  0.3437 -3.1281
  272MOL0     H36701   0.743   4.494   2.712  2.4476 -1.0304 -1.9175
  272MOL0     H36702   1.654   4.270   2.365 -0.5450  0.8958  1.1813
  272MOL0     H36703   1.860   4.204   2.259  3.8922  1.4063 -2.6154
  272MOL0     H36704   2.170   4.271   1.972  1.5951 -0.5540 -0.6561
  272MOL0     H36705   2.334   4.156   1.844  3.9244  1.9744 -2.5194
  272MOL0     H36706   4.090   4.794   2.143  3.7784  1.0575 -0.5420
  272MOL0     H36707   4.261   4.961   2.164  2.2476  1.0454  1.5644
  272MOL0     H36708   4.567   5.276   2.110  1.8415  1.3041 -0.9829
  272MOL0     H36709   4.763   5.392   2.190 -2.1691  2.3125 -1.6655
  272MOL0     H36710   4.939   5.315   2.389  1.8167  0.0384  0.0204
  272MOL0     H36711   4.942   5.475   2.298 -0.1737  0.2721  0.6630
  272MOL0     H36712   5.141   5.407   2.448  0.9358  1.3075  0.7352
  272MOL0     H36713   5.026   5.411   2.588 -2.3106 -2.3015 -1.3450
  272MOL0     H36714   5.146   5.604   2.603 -0.6208 -2.2417  0.7181
  272MOL0     H36715   5.002   5.653   2.530 -1.4037 -0.2175 -1.4909
  272MOL0     H36716   5.196   5.770   2.447 -2.5638  0.2172 -0.6936
  272MOL0     H36717   5.118   5.692   2.310  0.0878 -0.8535 -0.2727
  272MOL0     H36718   5.482   5.477   2.313 -0.0372 -0.0180 -0.4077
  272MOL0     H36719   4.593   5.404   2.586  2.2927  3.6896 -0.9011
  272MOL0     H36720   4.393   5.291   2.509 -0.9078 -1.9545 -1.7233
  273MOL0     O36721   9.095   1.000   1.404  0.1436  0.0794 -0.7805
  273MOL0     C36722   9.130   1.097   1.336 -0.8363  1.1397 -0.3138
  273MOL0     O36723   9.059   1.152   1.228 -0.9341 -0.0835 -0.2616
  273MOL0     C36724   8.949   1.086   1.198  0.4094  0.4485  0.5321
  273MOL0     C36725   8.960   0.979   1.103 -0.0963  0.7999  0.0336
  273MOL0     C36726   8.846   0.915   1.064 -0.4426  0.0858  0.5245
  273MOL0     C36727   8.719   0.963   1.090 -0.2501  0.0180 -0.3343
  273MOL0     O36728   8.616   0.897   1.025  0.1701 -0.6060 -0.0900
  273MOL0     C36729   8.484   0.965   1.023  0.0950  0.4296 -0.2328
  273MOL0     C36730   8.387   0.877   0.945 -0.2710  0.3620  0.1317
  273MOL0     C36731   8.240   0.926   0.967 -0.3154 -0.4623  0.4237
  273MOL0     C36732   8.162   0.893   0.840  1.1138  0.2572 -0.1143
  273MOL0     C36733   8.022   0.935   0.866 -0.3332  0.8230  0.8255
  273MOL0     C36734   7.944   0.917   0.740 -0.7443  0.2679 -0.0691
  273MOL0     C36735   7.800   0.957   0.743 -0.9022 -0.7359  0.2548
  273MOL0     C36736   7.710   0.891   0.858  0.5034 -0.2053  0.9382
  273MOL0     N36737   7.607   0.824   0.788  0.2660  0.4048 -0.3134
  273MOL0     C36738   7.493   0.883   0.739 -0.5812 -0.0385  0.0145
  273MOL0     C36739   7.427   0.789   0.671 -0.1817  0.1056  0.0677
  273MOL0     C36740   7.310   0.823   0.581 -0.4312  0.6924  0.2549
  273MOL0     C36741   7.189   0.854   0.668  0.1406 -0.8931 -0.0175
  273MOL0     C36742   7.100   0.724   0.690 -0.1728  0.1852 -0.4112
  273MOL0     C36743   6.984   0.753   0.789 -0.4040  0.4331 -0.1205
  273MOL0     O36744   6.907   0.625   0.800  0.9073 -0.1996  0.3383
  273MOL0     C36745   6.797   0.629   0.880  0.3655 -0.1138 -0.0964
  273MOL0     C36746   6.682   0.553   0.849  1.0257  0.7628  1.0889
  273MOL0     C36747   6.572   0.555   0.930  0.8320 -0.2403  0.7144
  273MOL0     C36748   6.443   0.492   0.870 -0.6557  0.1363 -0.3137
  273MOL0     C36749   6.573   0.624   1.053 -1.4376  0.1809 -1.5806
  273MOL0     C36750   6.464   0.617   1.150 -1.0054  0.7173 -0.0552
  273MOL0     O36751   6.445   0.726   1.221  0.2329  0.3518 -0.8509
  273MOL0     C36752   6.334   0.716   1.295  0.1790 -0.9694 -1.1364
  273MOL0     C36753   6.333   0.640   1.413 -0.2312 -0.2168  0.3003
  273MOL0     C36754   6.232   0.651   1.503  0.4831 -0.1736 -0.8281
  273MOL0     C36755   6.121   0.730   1.474 -0.3974 -1.1372 -0.4029
  273MOL0     O36756   6.002   0.745   1.549 -0.2659 -0.3956  0.8236
  273MOL0     C36757   5.993   0.683   1.678  0.5147  1.2705 -1.1037
  273MOL0     C36758   5.940   0.538   1.684 -0.0820 -0.7227  0.5231
  273MOL0     C36759   5.828   0.523   1.575 -0.2367  0.5053  0.4705
  273MOL0     C36760   5.752   0.391   1.592 -0.7703  0.0068 -0.2791
  273MOL0     C36761   5.643   0.361   1.495 -0.3554  0.4603  0.8439
  273MOL0     C36762   5.578   0.216   1.525 -0.5161 -0.0868 -0.6399
  273MOL0     C36763   5.466   0.186   1.419 -0.4360 -0.2064  0.0332
  273MOL0     C36764   5.373   0.076   1.465 -0.1133 -0.6301 -0.8292
  273MOL0    Cl36765   5.280   0.126   1.621  0.0380  0.0093 -0.1480
  273MOL0     C36766   6.120   0.807   1.360  0.9052 -0.2657  0.2384
  273MOL0     C36767   6.225   0.798   1.262  0.8886  0.0856  0.3557
  273MOL0     O36768   6.407   0.509   1.155 -0.1519  0.4277  0.2028
  273MOL0     C36769   6.691   0.690   1.096 -0.2588 -0.3690 -0.4725
  273MOL0     C36770   6.801   0.700   1.008 -0.0308  0.2114  1.4656
  273MOL0     N36771   7.495   0.677   0.685 -0.7932 -0.6665  0.5387
  273MOL0     N36772   7.603   0.690   0.757 -0.4391  0.2780 -0.3313
  273MOL0     C36773   8.717   1.060   1.190 -0.4257  0.1538  1.1241
  273MOL0     C36774   8.823   1.129   1.247  0.0702  0.1607  0.3504
  273MOL0     C36775   9.251   1.168   1.385  1.0771 -0.4232  0.7118
  273MOL0     C36776   9.291   1.291   1.334 -1.1439 -0.2255 -0.5069
  273MOL0     C36777   9.407   1.357   1.386  0.0682  0.6906  0.1934
  273MOL0     C36778   9.492   1.293   1.475  1.0257  0.4748 -0.9630
  273MOL0     O36779   9.592   1.348   1.546 -0.1593 -0.4524 -0.2557
  273MOL0     C36780   9.610   1.490   1.547  0.3800 -0.3905  0.5393
  273MOL0     C36781   9.728   1.516   1.457 -0.0866 -0.8922 -0.4684
  273MOL0     C36782   9.862   1.453   1.498 -1.1933 -0.3852 -0.3886
  273MOL0     C36783   9.977   1.517   1.408 -0.4464 -0.0134  0.9960
  273MOL0     C36784  10.105   1.449   1.425  0.0370 -0.1068  0.8512
  273MOL0     C36785  10.212   1.396   1.423 -0.3749  0.0561 -0.9233
  273MOL0     C36786   9.453   1.167   1.519  0.8720 -0.2710  0.1510
  273MOL0     C36787   9.333   1.115   1.483 -0.1794 -0.1920  0.7896
  273MOL0     H36788   9.052   0.931   1.069 -2.3731 -2.0901 -2.6110
  273MOL0     H36789   8.855   0.820   1.013 -0.3926 -0.0137  0.7178
  273MOL0     H36790   8.447   0.978   1.125 -1.7658  0.7554 -0.9198
  273MOL0     H36791   8.509   1.065   0.986  1.5091 -0.0952 -0.7629
  273MOL0     H36792   8.409   0.867   0.839 -0.7384 -0.9938  0.1386
  273MOL0     H36793   8.397   0.774   0.982 -0.5349 -0.1568 -1.2157
  273MOL0     H36794   8.193   0.874   1.052  3.3441 -3.3683  0.9372
  273MOL0     H36795   8.234   1.034   0.987  1.8101 -0.6835  2.7724
  273MOL0     H36796   8.196   0.949   0.752 -0.5290 -0.9065 -1.5472
  273MOL0     H36797   8.166   0.785   0.824  0.9485  0.2766 -0.2857
  273MOL0     H36798   7.977   0.883   0.951  1.2565 -2.4355 -0.1524
  273MOL0     H36799   8.016   1.042   0.887  1.9494  0.8357  1.7046
  273MOL0     H36800   7.980   0.979   0.657 -0.2992  0.3428  0.1738
  273MOL0     H36801   7.957   0.814   0.707  3.3548  0.6239 -0.0676
  273MOL0     H36802   7.793   1.063   0.766 -1.2480 -0.4881 -0.9042
  273MOL0     H36803   7.761   0.945   0.641 -0.8817 -0.7264  0.2460
  273MOL0     H36804   7.673   0.965   0.930 -0.0233 -2.5977  3.3290
  273MOL0     H36805   7.760   0.809   0.911 -1.5188 -0.1351  3.1174
  273MOL0     H36806   7.460   0.986   0.741  0.6148  0.3821 -0.6065
  273MOL0     H36807   7.337   0.908   0.518 -1.0910  0.8248  0.1415
  273MOL0     H36808   7.290   0.739   0.514 -1.9860  0.8386  0.4794
  273MOL0     H36809   7.131   0.936   0.623 -1.5037 -0.6235  2.3718
  273MOL0     H36810   7.218   0.899   0.763  1.3354  2.3136 -1.7513
  273MOL0     H36811   7.167   0.648   0.732 -0.7053 -0.0416  0.0432
  273MOL0     H36812   7.065   0.700   0.590  0.2608 -0.5275 -0.3980
  273MOL0     H36813   6.921   0.839   0.762 -0.5980  1.6723  3.7168
  273MOL0     H36814   7.040   0.770   0.881 -0.4882  0.8956 -0.1492
  273MOL0     H36815   6.699   0.499   0.756 -2.0719  2.4924 -0.6597
  273MOL0     H36816   6.386   0.572   0.822  3.2698  3.3964 -0.0343
  273MOL0     H36817   6.452   0.415   0.792 -1.6502 -2.6537  2.1348
  273MOL0     H36818   6.381   0.433   0.939  0.0525  1.2583  1.3237
  273MOL0     H36819   6.423   0.594   1.453  1.2972  0.9961 -1.5727
  273MOL0     H36820   6.234   0.590   1.593 -3.6658  2.2625  1.2102
  273MOL0     H36821   6.092   0.688   1.723  0.8710  2.2601 -1.9578
  273MOL0     H36822   5.930   0.749   1.738 -0.5091  1.7791 -2.6661
  273MOL0     H36823   6.024   0.470   1.668  0.3498  0.4788 -3.1348
  273MOL0     H36824   5.903   0.515   1.785  1.1790  0.7014  1.3518
  273MOL0     H36825   5.871   0.519   1.475 -5.4360  0.1327 -2.0923
  273MOL0     H36826   5.761   0.610   1.582  0.2872  1.0186 -0.6508
  273MOL0     H36827   5.828   0.312   1.597  2.4787  2.9214  0.2900
  273MOL0     H36828   5.700   0.403   1.688  0.6705  0.4304  0.4880
  273MOL0     H36829   5.686   0.361   1.395 -1.8566 -2.6047  0.0934
  273MOL0     H36830   5.555   0.426   1.506 -0.3088  0.4185  1.5269
  273MOL0     H36831   5.650   0.133   1.534 -0.5911  0.1208  4.2916
  273MOL0     H36832   5.527   0.229   1.621 -2.8126 -1.5072 -1.5709
  273MOL0     H36833   5.515   0.160   1.325  0.5327  0.5884  0.2939
  273MOL0     H36834   5.412   0.281   1.414  0.0473  0.1616  1.3408
  273MOL0     H36835   5.418  -0.021   1.487  0.1439 -0.0210  1.5337
  273MOL0     H36836   5.301   0.054   1.385  0.0992 -2.4364 -0.5702
  273MOL0     H36837   6.028   0.862   1.344  0.7597 -0.5155  0.2195
  273MOL0     H36838   6.218   0.864   1.176 -1.2263  2.5552  2.2118
  273MOL0     H36839   6.708   0.742   1.189  0.4626  1.5971 -1.6303
  273MOL0     H36840   6.888   0.758   1.036  1.0311 -0.8836  0.5473
  273MOL0     H36841   8.618   1.093   1.220 -0.7145  2.1561 -1.5716
  273MOL0     H36842   8.814   1.216   1.312 -1.4741 -0.4254  0.9561
  273MOL0     H36843   9.225   1.338   1.263 -1.2535  1.8268  0.8835
  273MOL0     H36844   9.429   1.455   1.345 -2.8624  1.8699  1.1603
  273MOL0     H36845   9.518   1.542   1.518  1.2969  1.7074  1.2440
  273MOL0     H36846   9.629   1.524   1.649 -1.2847  1.8270  0.1916
  273MOL0     H36847   9.730   1.626   1.462  1.6998 -0.9409  1.6643
  273MOL0     H36848   9.706   1.503   1.350 -4.4109  3.5718 -0.4858
  273MOL0     H36849   9.854   1.344   1.486  1.3901 -0.9573  2.0872
  273MOL0     H36850   9.894   1.477   1.600 -0.8265  0.8474 -0.7785
  273MOL0     H36851   9.984   1.621   1.440 -3.2486  0.5425  0.1002
  273MOL0     H36852   9.939   1.502   1.306  2.0189 -1.8390  0.2479
  273MOL0     H36853  10.302   1.338   1.420  0.6291  0.6629  5.0416
  273MOL0     H36854   9.508   1.100   1.586 -0.8639 -2.0097 -0.0645
  273MOL0     H36855   9.296   1.025   1.531 -3.0936 -0.3884 -1.5017
  274MOL0     O36856   2.484   6.481   8.931 -0.0224  0.1874 -0.0366
  274MOL0     C36857   2.472   6.385   9.007 -1.0196  0.5117  0.3260
  274MOL0     O36858   2.355   6.314   9.022  0.5809 -0.1187 -0.8480
  274MOL0     C36859   2.240   6.379   8.985  1.6901 -0.5808 -0.4399
  274MOL0     C36860   2.196   6.486   9.057  0.1568  0.3250  0.3593
  274MOL0     C36861   2.071   6.530   9.039 -0.6358  0.4426 -0.2227
  274MOL0     C36862   1.993   6.475   8.938  0.4475 -0.9545 -0.0385
  274MOL0     O36863   1.868   6.525   8.939  0.1136 -0.7655  0.1372
  274MOL0     C36864   1.769   6.475   8.852 -0.3437  0.3173  0.0825
  274MOL0     C36865   1.633   6.517   8.901  0.5453 -0.3873  0.2809
  274MOL0     C36866   1.595   6.475   9.051 -0.2901  0.1657 -0.0974
  274MOL0     C36867   1.459   6.529   9.088 -0.4557  0.2327  0.9125
  274MOL0     C36868   1.349   6.460   9.005 -1.0983  0.2849 -0.5333
  274MOL0     C36869   1.211   6.453   9.075  0.6859 -0.4700 -0.7245
  274MOL0     C36870   1.111   6.376   8.994  0.0293  0.7331  1.1438
  274MOL0     C36871   1.044   6.461   8.880 -0.1930 -0.6157 -0.5682
  274MOL0     N36872   0.939   6.558   8.938  0.4032  0.0898 -0.6221
  274MOL0     C36873   0.965   6.684   8.993 -0.1653 -0.1787 -0.0355
  274MOL0     C36874   0.844   6.735   9.032  0.1730 -0.3600  0.1482
  274MOL0     C36875   0.830   6.858   9.117  0.4075  0.0324  0.5850
  274MOL0     C36876   0.696   6.920   9.090  0.0747 -0.3766 -0.1114
  274MOL0     C36877   0.607   6.885   9.209 -0.9816 -0.4007 -0.5475
  274MOL0     C36878   0.632   6.976   9.331  0.0006  1.0831 -0.5500
  274MOL0     O36879   0.581   7.111   9.314 -0.1446  0.5468 -0.0880
  274MOL0     C36880   0.445   7.125   9.302  0.5631 -1.1006 -0.0505
  274MOL0     C36881   0.339   7.029   9.319  0.1408 -0.0646  0.6678
  274MOL0     C36882   0.201   7.063   9.299  0.0724  0.6406 -0.0451
  274MOL0     C36883   0.097   6.956   9.315  0.2303 -0.5350 -0.2681
  274MOL0     C36884   0.161   7.185   9.255  0.3606  0.1493  0.1161
  274MOL0     C36885   0.022   7.241   9.238  0.4096 -0.4886  0.8040
  274MOL0     O36886  -0.013   7.278   9.109 -0.2361  0.6048 -0.0688
  274MOL0     C36887  -0.142   7.322   9.094 -0.4241 -0.1285  0.5646
  274MOL0     C36888  -0.223   7.257   8.995  0.4149 -0.0381  0.2568
  274MOL0     C36889  -0.357   7.298   8.981  0.2198  0.3037  0.0262
  274MOL0     C36890  -0.406   7.416   9.046  0.8954  0.9845 -1.0605
  274MOL0     O36891  -0.532   7.466   9.031  0.0919 -0.6525  0.2455
  274MOL0     C36892  -0.613   7.439   8.909  1.0536 -0.0441  0.8246
  274MOL0     C36893  -0.738   7.538   8.907  0.3060 -0.6089 -0.0061
  274MOL0     C36894  -0.683   7.679   8.897 -0.6055  0.7300  0.2100
  274MOL0     C36895  -0.794   7.777   8.901  0.2586 -0.1483 -0.8012
  274MOL0     C36896  -0.740   7.925   8.880  0.4197  0.4155  0.0238
  274MOL0     C36897  -0.848   8.034   8.922  0.6975 -0.1491 -0.8736
  274MOL0     C36898  -0.988   7.982   8.954 -0.0032  0.3563  0.9620
  274MOL0     C36899  -1.100   8.080   8.914 -0.6993 -0.7031  0.0449
  274MOL0    Cl36900  -1.255   7.994   8.933 -0.0118 -0.0920 -0.0541
  274MOL0     C36901  -0.319   7.484   9.124 -0.5362 -0.8917 -0.0650
  274MOL0     C36902  -0.195   7.436   9.150  0.1184  0.2346 -0.6433
  274MOL0     O36903  -0.042   7.264   9.344 -0.1773 -0.4745  0.2231
  274MOL0     C36904   0.259   7.278   9.250 -1.0750 -0.4021  0.1649
  274MOL0     C36905   0.398   7.251   9.284 -0.3502 -0.0771 -1.0497
  274MOL0     N36906   0.746   6.645   8.994 -0.1003  0.3255  0.0419
  274MOL0     N36907   0.802   6.534   8.945 -0.1792 -0.5186  1.0341
  274MOL0     C36908   2.038   6.376   8.861 -1.2505 -0.7249 -0.0325
  274MOL0     C36909   2.159   6.323   8.884 -0.0480  0.7204  0.3468
  274MOL0     C36910   2.589   6.344   9.085  1.6306  1.2270  0.0913
  274MOL0     C36911   2.579   6.234   9.172 -0.5821  1.4172  0.6278
  274MOL0     C36912   2.687   6.183   9.239 -0.3335  0.1950  0.0217
  274MOL0     C36913   2.807   6.259   9.236 -0.1015 -0.5976 -0.7788
  274MOL0     O36914   2.914   6.203   9.299  0.2364 -0.2761 -0.5003
  274MOL0     C36915   3.041   6.273   9.297  0.9011 -0.2077 -0.5029
  274MOL0     C36916   3.058   6.375   9.402  0.2601 -0.4055  0.2397
  274MOL0     C36917   3.179   6.466   9.375 -0.3161 -0.2073 -0.1909
  274MOL0     C36918   3.166   6.540   9.247 -0.0495 -0.2057  1.4641
  274MOL0     C36919   3.271   6.641   9.257 -0.7566  0.2231 -0.5418
  274MOL0     C36920   3.366   6.721   9.262 -0.4215  0.1795  0.0815
  274MOL0     C36921   2.812   6.376   9.163 -0.8454 -0.2724 -0.6179
  274MOL0     C36922   2.699   6.426   9.095 -0.2627  0.4447  0.1625
  274MOL0     H36923   2.263   6.522   9.135  1.5389  0.6327 -0.9017
  274MOL0     H36924   2.034   6.621   9.085  2.3935  2.2017 -0.9297
  274MOL0     H36925   1.795   6.498   8.748 -1.7903  2.2111  0.0855
  274MOL0     H36926   1.764   6.366   8.860  2.4547  0.1407  0.7481
  274MOL0     H36927   1.639   6.626   8.907  2.2433 -0.5114  1.6687
  274MOL0     H36928   1.566   6.481   8.823 -1.5903  1.7382  0.9945
  274MOL0     H36929   1.593   6.367   9.072 -0.4220 -0.5256 -3.1220
  274MOL0     H36930   1.666   6.516   9.124  0.7332 -0.6172 -0.6235
  274MOL0     H36931   1.429   6.507   9.191 -1.8071 -0.2945  0.4359
  274MOL0     H36932   1.455   6.638   9.098  0.2931  0.1029  3.0781
  274MOL0     H36933   1.352   6.527   8.918  3.7488  4.2481  2.1691
  274MOL0     H36934   1.386   6.360   8.983 -0.1830 -0.0085  1.9971
  274MOL0     H36935   1.207   6.404   9.173  3.0095  2.1262  0.8295
  274MOL0     H36936   1.166   6.550   9.094 -0.1919 -0.5194 -2.3874
  274MOL0     H36937   1.171   6.302   8.939 -1.7902 -0.0441  0.1408
  274MOL0     H36938   1.025   6.333   9.045 -0.2679  1.4257  1.2390
  274MOL0     H36939   0.990   6.409   8.801 -0.0849  0.8787 -1.6709
  274MOL0     H36940   1.125   6.521   8.838  0.2984 -0.4183  0.6111
  274MOL0     H36941   1.057   6.736   9.020 -0.1537 -0.9857  1.5858
  274MOL0     H36942   0.843   6.832   9.223  0.3295 -0.5216  0.4663
  274MOL0     H36943   0.907   6.934   9.103 -3.0294  3.5920 -0.8437
  274MOL0     H36944   0.654   6.888   8.993 -0.3288  0.6225 -0.2738
  274MOL0     H36945   0.699   7.028   9.078  3.1597 -0.2529  1.0161
  274MOL0     H36946   0.628   6.782   9.239  0.0086 -0.0817 -0.0609
  274MOL0     H36947   0.506   6.894   9.168 -1.6873  1.6904  1.4248
  274MOL0     H36948   0.740   6.988   9.336  0.8378 -4.4234  1.0559
  274MOL0     H36949   0.604   6.936   9.429  1.5546  1.3922  0.0504
  274MOL0     H36950   0.358   6.925   9.345 -3.0826 -0.8837  0.2591
  274MOL0     H36951  -0.000   6.990   9.351 -0.4091 -1.5749 -0.9704
  274MOL0     H36952   0.081   6.911   9.217 -0.3526 -0.5830 -0.1542
  274MOL0     H36953   0.131   6.875   9.379 -0.3224 -2.2042 -2.0028
  274MOL0     H36954  -0.183   7.176   8.934 -0.0875 -0.8185  0.9453
  274MOL0     H36955  -0.415   7.242   8.908  2.5781 -1.7488 -0.4219
  274MOL0     H36956  -0.546   7.436   8.822  0.1774 -0.8638  0.1567
  274MOL0     H36957  -0.654   7.338   8.900 -1.1224  0.9672 -2.6351
  274MOL0     H36958  -0.801   7.515   8.821 -0.0749  0.7107 -0.1067
  274MOL0     H36959  -0.802   7.534   8.995 -0.0530  0.2382 -0.2171
  274MOL0     H36960  -0.627   7.694   8.804  3.4782  0.3114  2.4312
  274MOL0     H36961  -0.614   7.698   8.979 -2.1322 -0.8091  1.9339
  274MOL0     H36962  -0.877   7.756   8.833 -2.7829 -0.2574  2.5998
  274MOL0     H36963  -0.826   7.780   9.006  1.3208 -2.5690 -0.3455
  274MOL0     H36964  -0.713   7.933   8.774  0.0460  0.8084 -0.0454
  274MOL0     H36965  -0.646   7.947   8.933  1.9508 -0.3253 -2.2538
  274MOL0     H36966  -0.821   8.088   9.013  0.4424 -1.7478  0.1908
  274MOL0     H36967  -0.859   8.108   8.843  2.4574  1.0793 -0.0186
  274MOL0     H36968  -1.006   7.953   9.058 -1.4582  1.5074  1.0615
  274MOL0     H36969  -1.011   7.891   8.898 -1.0699  0.5528  1.0692
  274MOL0     H36970  -1.085   8.118   8.813 -0.3866 -0.0716  0.3234
  274MOL0     H36971  -1.103   8.164   8.984 -3.5017 -0.1796 -0.5924
  274MOL0     H36972  -0.348   7.580   9.164  2.3776 -0.5331  1.4630
  274MOL0     H36973  -0.132   7.489   9.220  3.2295 -2.1335 -1.3827
  274MOL0     H36974   0.229   7.381   9.230 -0.7050 -0.2007  0.5959
  274MOL0     H36975   0.474   7.329   9.282  0.1595 -0.5302 -3.7992
  274MOL0     H36976   1.976   6.331   8.784  0.3349 -1.2098 -1.0848
  274MOL0     H36977   2.208   6.247   8.824  0.0530  3.7866 -3.9455
  274MOL0     H36978   2.487   6.179   9.186 -0.6145  1.6955  1.5752
  274MOL0     H36979   2.677   6.104   9.312  1.1640  0.5523  0.6457
  274MOL0     H36980   3.110   6.191   9.319 -0.0870 -0.6467  1.1323
  274MOL0     H36981   3.060   6.302   9.193 -2.0089  1.1773 -0.7470
  274MOL0     H36982   3.067   6.338   9.504  0.2524 -0.3416  0.2626
  274MOL0     H36983   2.967   6.435   9.397  1.2796  1.1100 -1.0067
  274MOL0     H36984   3.269   6.403   9.373  0.2381  0.5129  1.0103
  274MOL0     H36985   3.182   6.542   9.453 -0.3329  0.1573 -0.5474
  274MOL0     H36986   3.065   6.579   9.229 -0.0315 -1.3837 -1.7611
  274MOL0     H36987   3.202   6.477   9.166  0.5734  0.4200  1.2492
  274MOL0     H36988   3.445   6.793   9.264  1.8505 -2.1976  1.6863
  274MOL0     H36989   2.907   6.429   9.157 -0.1881 -1.4547 -1.1736
  274MOL0     H36990   2.701   6.521   9.042 -1.4579 -0.0957 -0.9162
  275MOL0     O36991  11.309   9.637   6.508 -0.0373  0.0781  0.5981
  275MOL0     C36992  11.215   9.644   6.425 -0.3237 -0.1598 -0.0228
  275MOL0     O36993  11.130   9.547   6.393  0.6126 -0.1549 -0.7940
  275MOL0     C36994  11.137   9.425   6.456  0.6549 -1.0113 -1.4565
  275MOL0     C36995  11.036   9.392   6.549 -0.7836 -0.4137  0.1394
  275MOL0     C36996  11.049   9.267   6.616  0.1381 -0.4043  0.9425
  275MOL0     C36997  11.153   9.177   6.573 -0.1902  0.2135  0.0292
  275MOL0     O36998  11.150   9.051   6.631  1.0494  0.2693  0.0363
  275MOL0     C36999  11.247   8.948   6.630 -0.5532  0.1829 -0.3006
  275MOL0     C37000  11.181   8.807   6.626  0.6845  0.9477  0.1231
  275MOL0     C37001  11.110   8.776   6.755  0.0723 -0.1157 -0.1171
  275MOL0     C37002  11.063   8.629   6.755 -0.7398  0.9442 -0.3809
  275MOL0     C37003  11.040   8.577   6.898 -0.5624  0.5735  0.6790
  275MOL0     C37004  10.987   8.438   6.906 -0.3850 -0.4285  0.1436
  275MOL0     C37005  10.956   8.397   7.050  0.5545  0.3091 -0.6636
  275MOL0     C37006  10.880   8.261   7.067  0.0560 -0.0998  0.2709
  275MOL0     N37007  10.756   8.261   6.989  0.8560  0.1017  0.4442
  275MOL0     C37008  10.725   8.176   6.895  1.2449  0.1256 -0.3958
  275MOL0     C37009  10.591   8.210   6.870  0.4755  0.0100  1.0885
  275MOL0     C37010  10.505   8.125   6.786  0.3907  0.5059  0.9991
  275MOL0     C37011  10.538   8.128   6.633 -0.0408  0.9351 -0.8408
  275MOL0     C37012  10.414   8.086   6.551 -0.2915  0.0831 -0.2364
  275MOL0     C37013  10.440   8.095   6.398 -0.3245 -1.8127 -1.0507
  275MOL0     O37014  10.320   8.047   6.335 -0.4560 -0.3272 -0.0741
  275MOL0     C37015  10.215   8.127   6.318  0.2702  0.7550  0.1571
  275MOL0     C37016  10.218   8.263   6.350 -0.2744  0.6782 -0.0040
  275MOL0     C37017  10.102   8.344   6.336 -0.1308  0.6377  0.4591
  275MOL0     C37018  10.114   8.493   6.384 -0.5660  0.7374  0.3428
  275MOL0     C37019   9.979   8.282   6.304 -0.6251 -0.5038 -0.1863
  275MOL0     C37020   9.846   8.354   6.302 -0.8318  0.0897  0.3910
  275MOL0     O37021   9.839   8.477   6.256 -0.7586 -0.4103  0.5212
  275MOL0     C37022   9.725   8.544   6.258 -0.1755  0.5874 -0.5440
  275MOL0     C37023   9.689   8.633   6.358  0.7981 -0.2946 -0.4174
  275MOL0     C37024   9.550   8.666   6.373 -0.0973  0.0859 -0.3041
  275MOL0     C37025   9.456   8.623   6.275  0.8706  0.6063 -0.3775
  275MOL0     O37026   9.321   8.662   6.296  0.2086 -0.6473 -0.3107
  275MOL0     C37027   9.216   8.648   6.198 -0.2951 -0.7468  0.1791
  275MOL0     C37028   9.161   8.508   6.187  0.5472 -0.4140 -0.2971
  275MOL0     C37029   9.139   8.433   6.322 -0.0189 -0.9946 -0.3975
  275MOL0     C37030   9.042   8.492   6.416  0.3792  0.4022  0.1390
  275MOL0     C37031   9.049   8.441   6.561  1.4259  0.3594 -0.6878
  275MOL0     C37032   9.183   8.442   6.635 -0.1644  0.1164 -0.6594
  275MOL0     C37033   9.186   8.337   6.749 -0.6361 -0.2340  0.3256
  275MOL0     C37034   9.290   8.382   6.852  0.3447  1.1913 -0.0732
  275MOL0    Cl37035   9.284   8.251   6.975 -0.0759  0.5857  0.2181
  275MOL0     C37036   9.503   8.563   6.158  0.6003 -0.2927  0.2702
  275MOL0     C37037   9.637   8.518   6.156  0.1700  0.3082  0.4320
  275MOL0     O37038   9.749   8.292   6.344 -1.0459  0.4755 -0.4098
  275MOL0     C37039   9.972   8.143   6.283  0.1812  0.4982  0.4569
  275MOL0     C37040  10.095   8.071   6.283  0.6329 -0.2251 -0.1551
  275MOL0     N37041  10.550   8.317   6.953  0.6133 -0.1637 -0.3037
  275MOL0     N37042  10.658   8.357   7.018  0.0150  0.3644  0.2650
  275MOL0     C37043  11.252   9.220   6.486  0.2744 -0.9074  0.3790
  275MOL0     C37044  11.243   9.352   6.432 -0.1260 -0.5443 -1.1196
  275MOL0     C37045  11.195   9.769   6.359  0.4162 -0.6529 -0.3090
  275MOL0     C37046  11.099   9.781   6.258 -0.1717 -0.3469  0.1920
  275MOL0     C37047  11.065   9.908   6.208 -0.5290  0.2624 -0.0627
  275MOL0     C37048  11.119  10.021   6.259 -0.6929  0.4023  1.0657
  275MOL0     O37049  11.082  10.144   6.214  0.2629  0.1202 -0.5934
  275MOL0     C37050  10.976  10.207   6.293  0.1450 -0.1190 -0.6859
  275MOL0     C37051  10.835  10.175   6.246  0.1291  0.4050 -0.3560
  275MOL0     C37052  10.781  10.060   6.329 -0.3308 -0.1462  0.3031
  275MOL0     C37053  10.669   9.975   6.256  0.2796 -0.6958  0.4796
  275MOL0     C37054  10.574  10.067   6.183  0.1983  0.4423  0.6780
  275MOL0     C37055  10.486  10.113   6.113 -0.4014 -0.1760 -0.4828
  275MOL0     C37056  11.225  10.015   6.358 -0.3324 -0.1877  0.0693
  275MOL0     C37057  11.257   9.889   6.412 -0.5614 -0.2295 -0.3780
  275MOL0     H37058  10.956   9.464   6.559  1.2427  2.0784 -0.4081
  275MOL0     H37059  10.972   9.242   6.688  1.1189 -2.3479  1.3877
  275MOL0     H37060  11.309   8.953   6.539 -1.4052  0.4877 -0.8739
  275MOL0     H37061  11.316   8.957   6.714 -1.7676 -0.1802  0.7507
  275MOL0     H37062  11.110   8.817   6.544  0.4346  1.4129  0.3936
  275MOL0     H37063  11.258   8.731   6.608  0.9784  1.8958 -3.5537
  275MOL0     H37064  11.190   8.778   6.830  1.9457  0.6700 -2.0540
  275MOL0     H37065  11.027   8.843   6.781 -0.0868  0.0634 -1.0703
  275MOL0     H37066  10.981   8.609   6.685 -0.9179  2.0720 -0.5082
  275MOL0     H37067  11.143   8.564   6.718  0.5620  2.8238 -0.9770
  275MOL0     H37068  11.127   8.586   6.963 -1.9774  3.2801  2.3726
  275MOL0     H37069  10.963   8.636   6.948  0.3755  2.5715 -0.1566
  275MOL0     H37070  10.895   8.438   6.847  0.5765  2.2410 -1.5551
  275MOL0     H37071  11.061   8.368   6.866  0.4688  0.9784 -0.8747
  275MOL0     H37072  11.056   8.395   7.096  1.3502  3.0653 -2.0644
  275MOL0     H37073  10.890   8.470   7.098  1.0625 -0.1987  0.8867
  275MOL0     H37074  10.846   8.262   7.170 -0.9384  0.3960 -0.0499
  275MOL0     H37075  10.939   8.172   7.045 -2.3876 -1.2266 -2.2494
  275MOL0     H37076  10.785   8.095   6.853  1.6317  1.3218 -2.2367
  275MOL0     H37077  10.497   8.025   6.829 -1.0494  0.9406  1.7840
  275MOL0     H37078  10.403   8.160   6.804 -0.6778 -2.9641  2.5086
  275MOL0     H37079  10.613   8.054   6.604  1.2373  0.0357  3.9551
  275MOL0     H37080  10.584   8.223   6.605  2.3576  0.1095  0.0870
  275MOL0     H37081  10.328   8.147   6.579  0.9469  1.6794  0.2944
  275MOL0     H37082  10.398   7.981   6.575 -1.9907  0.2903 -0.3829
  275MOL0     H37083  10.531   8.045   6.364  1.1760  1.5361 -2.3990
  275MOL0     H37084  10.469   8.197   6.373  0.1852 -1.9088 -0.8679
  275MOL0     H37085  10.307   8.312   6.388 -1.0509 -0.0090  2.9441
  275MOL0     H37086  10.185   8.486   6.467  2.4807  0.3142 -2.1170
  275MOL0     H37087  10.168   8.553   6.311  2.5946 -0.3078  1.6455
  275MOL0     H37088  10.016   8.535   6.409 -1.2463 -1.2286  1.1535
  275MOL0     H37089   9.767   8.644   6.432 -1.7800  0.7859  2.3352
  275MOL0     H37090   9.534   8.719   6.467  0.5440  0.4533 -0.3966
  275MOL0     H37091   9.122   8.703   6.215  0.0000  0.9278 -2.7796
  275MOL0     H37092   9.247   8.689   6.101  1.2498 -4.3522 -1.0224
  275MOL0     H37093   9.078   8.492   6.118  1.1759 -1.3121 -0.8716
  275MOL0     H37094   9.242   8.457   6.134 -0.1871 -1.4195 -0.4884
  275MOL0     H37095   9.237   8.413   6.365  1.1888  0.2815 -2.3845
  275MOL0     H37096   9.105   8.331   6.304 -0.9436 -0.9191  0.7507
  275MOL0     H37097   9.056   8.601   6.421  1.9573  0.2670 -0.7648
  275MOL0     H37098   8.946   8.477   6.367 -2.1540  0.3523  4.6092
  275MOL0     H37099   9.009   8.339   6.561  1.9277  0.1541 -1.2972
  275MOL0     H37100   8.980   8.512   6.606  0.4683  1.6218 -3.9168
  275MOL0     H37101   9.273   8.420   6.577 -0.2436 -3.3840  0.3461
  275MOL0     H37102   9.188   8.545   6.674 -1.0626 -0.7590  1.9742
  275MOL0     H37103   9.216   8.241   6.705 -1.0177  0.7237 -2.1739
  275MOL0     H37104   9.092   8.331   6.805 -0.8815  1.6229  0.1554
  275MOL0     H37105   9.246   8.470   6.901 -5.5013 -1.9578  1.3756
  275MOL0     H37106   9.386   8.393   6.802 -1.1369 -0.4131 -3.6780
  275MOL0     H37107   9.430   8.555   6.078 -1.3059 -1.4400  2.0160
  275MOL0     H37108   9.669   8.459   6.071 -0.8431 -0.3576  0.4894
  275MOL0     H37109   9.879   8.091   6.267  0.6578 -0.3739  0.4860
  275MOL0     H37110  10.096   7.964   6.260 -0.2007 -0.2792  0.0157
  275MOL0     H37111  11.336   9.155   6.467  0.4746  0.1518 -2.8468
  275MOL0     H37112  11.329   9.389   6.376  0.2981  0.1978 -0.0097
  275MOL0     H37113  11.049   9.699   6.208  0.6624 -1.8604  1.7574
  275MOL0     H37114  10.991   9.915   6.129 -1.1915  0.6114  0.5767
  275MOL0     H37115  10.983  10.213   6.402  3.9311  1.0828 -0.8526
  275MOL0     H37116  10.998  10.311   6.268  2.3094 -0.7970 -1.8130
  275MOL0     H37117  10.832  10.150   6.140 -0.8967  0.8166 -0.4345
  275MOL0     H37118  10.765  10.259   6.259 -0.8652 -0.4841  0.1672
  275MOL0     H37119  10.742  10.110   6.418  0.7075 -0.2628  0.8361
  275MOL0     H37120  10.856   9.986   6.359 -2.5100 -1.1319  3.9950
  275MOL0     H37121  10.624   9.907   6.329 -2.4102 -0.0528 -0.4561
  275MOL0     H37122  10.721   9.918   6.179 -0.1112 -0.9623  0.4102
  275MOL0     H37123  10.401  10.143   6.055 -2.0596 -2.6347  0.5105
  275MOL0     H37124  11.260  10.105   6.406 -1.7763  0.3193  0.2225
  275MOL0     H37125  11.336   9.881   6.485 -0.6625 -0.6428 -0.3131
  276MOL0     O37126   1.035   8.957   6.052  0.7495 -0.2529  0.8033
  276MOL0     C37127   1.045   9.078   6.024 -0.7991  0.1015  0.4063
  276MOL0     O37128   1.047   9.136   5.901  0.2179 -0.5322  0.5868
  276MOL0     C37129   1.024   9.040   5.801  0.9909  0.4534 -0.3708
  276MOL0     C37130   0.894   9.001   5.765  0.5534  0.3105 -0.4411
  276MOL0     C37131   0.868   8.925   5.645 -0.8101 -0.8380 -0.1114
  276MOL0     C37132   0.973   8.898   5.560  0.3828 -0.7710 -0.9989
  276MOL0     O37133   0.967   8.836   5.439  0.0375  0.2105 -0.5504
  276MOL0     C37134   0.865   8.738   5.418  0.3981  0.0396 -0.5633
  276MOL0     C37135   0.733   8.798   5.363  0.4681 -0.4176 -0.4642
  276MOL0     C37136   0.735   8.817   5.211  0.3996  0.1206 -0.3552
  276MOL0     C37137   0.662   8.948   5.188  0.5407  0.9455  0.1318
  276MOL0     C37138   0.673   8.974   5.035  0.5128 -0.9048 -0.7038
  276MOL0     C37139   0.583   8.889   4.954  0.5564  0.5169  0.1953
  276MOL0     C37140   0.583   8.941   4.802 -0.6470 -0.1116  0.3639
  276MOL0     C37141   0.532   8.844   4.694 -0.1502 -0.6130  0.4334
  276MOL0     N37142   0.392   8.805   4.715  0.0929  0.4624 -0.3811
  276MOL0     C37143   0.337   8.684   4.705  0.3680 -0.1670  0.0809
  276MOL0     C37144   0.205   8.700   4.732  0.4971  0.4644 -0.3314
  276MOL0     C37145   0.087   8.607   4.704 -0.1108  0.1309  0.6542
  276MOL0     C37146  -0.007   8.663   4.597  1.0517 -0.1602  0.1506
  276MOL0     C37147   0.040   8.670   4.449 -0.2074 -0.1265 -0.1262
  276MOL0     C37148  -0.088   8.701   4.374 -0.4421 -0.1535 -0.4572
  276MOL0     O37149  -0.179   8.590   4.376 -0.5816  0.3358 -0.1011
  276MOL0     C37150  -0.303   8.633   4.416 -0.1230  0.6932 -0.2238
  276MOL0     C37151  -0.362   8.738   4.345  0.5484  0.7652  0.1635
  276MOL0     C37152  -0.491   8.784   4.366  0.0986  1.1023  0.2830
  276MOL0     C37153  -0.537   8.909   4.294  0.4602  0.2559  0.6849
  276MOL0     C37154  -0.565   8.723   4.468 -0.4285  0.2356  0.3107
  276MOL0     C37155  -0.710   8.765   4.506 -0.6443 -0.6912  1.0793
  276MOL0     O37156  -0.757   8.728   4.628 -1.1406 -0.7814 -0.4360
  276MOL0     C37157  -0.883   8.759   4.660  0.3942  0.3540 -0.4096
  276MOL0     C37158  -0.940   8.884   4.651 -0.2979  0.4926  0.5753
  276MOL0     C37159  -1.057   8.923   4.716  0.6595 -0.3068  0.9509
  276MOL0     C37160  -1.131   8.829   4.785 -0.4182  0.1898 -0.0815
  276MOL0     O37161  -1.242   8.878   4.852  0.0687 -0.1070 -0.1123
  276MOL0     C37162  -1.358   8.831   4.795  0.6385 -0.4659 -0.4300
  276MOL0     C37163  -1.414   8.706   4.875  0.7261  0.3186 -1.0290
  276MOL0     C37164  -1.460   8.598   4.781 -0.1279  0.3614 -0.1473
  276MOL0     C37165  -1.511   8.472   4.845  1.2406 -0.3631 -0.0253
  276MOL0     C37166  -1.519   8.353   4.742  0.3345 -0.9569  0.5374
  276MOL0     C37167  -1.379   8.307   4.693 -0.2729 -0.9299  0.2312
  276MOL0     C37168  -1.390   8.178   4.626  0.0277  0.6399  0.7671
  276MOL0     C37169  -1.391   8.046   4.718  0.1219 -0.1486  0.3773
  276MOL0    Cl37170  -1.221   8.024   4.792 -0.2098  0.2811 -0.3604
  276MOL0     C37171  -1.085   8.703   4.793  0.2408  0.4514 -0.2864
  276MOL0     C37172  -0.960   8.658   4.735 -0.4349 -0.6376 -1.0007
  276MOL0     O37173  -0.777   8.792   4.407  0.6848 -0.0640 -0.3329
  276MOL0     C37174  -0.510   8.615   4.540  0.6007 -0.1557  0.4480
  276MOL0     C37175  -0.387   8.564   4.508 -0.2474  0.5096 -0.1662
  276MOL0     N37176   0.194   8.832   4.768  0.5597  0.2374 -0.8957
  276MOL0     N37177   0.296   8.900   4.745 -0.2687  0.1841  0.1632
  276MOL0     C37178   1.106   8.939   5.597  0.8239 -0.3344  1.4814
  276MOL0     C37179   1.130   8.992   5.725 -0.4918  0.0871 -0.4259
  276MOL0     C37180   1.037   9.168   6.141  0.0865 -0.7344  0.6102
  276MOL0     C37181   1.031   9.125   6.268  0.2108  0.0526 -1.1253
  276MOL0     C37182   1.014   9.211   6.383  0.2900 -0.8050 -0.8588
  276MOL0     C37183   1.000   9.345   6.363  0.0430 -0.5944  0.6406
  276MOL0     O37184   0.992   9.444   6.466  0.0553  0.0455  0.6043
  276MOL0     C37185   0.992   9.404   6.601  1.1760 -0.5577  0.3974
  276MOL0     C37186   1.008   9.530   6.685 -0.4492 -0.5547  0.7487
  276MOL0     C37187   0.996   9.512   6.840 -0.6693  0.3748  0.0649
  276MOL0     C37188   0.953   9.646   6.912 -0.4202 -0.7554  0.4183
  276MOL0     C37189   0.925   9.621   7.049 -1.2099 -0.0504  0.7975
  276MOL0     C37190   0.912   9.622   7.169  0.6226  0.0319  0.4330
  276MOL0     C37191   1.015   9.394   6.227 -0.7799  0.1234  0.0695
  276MOL0     C37192   1.023   9.306   6.122  0.1534  0.4076 -0.1082
  276MOL0     H37193   0.802   9.035   5.810 -0.2317  2.3007 -3.2745
  276MOL0     H37194   0.773   8.885   5.613 -1.0724 -1.8923  1.8289
  276MOL0     H37195   0.894   8.664   5.342  0.7166  1.0528 -1.4496
  276MOL0     H37196   0.837   8.702   5.518 -1.4202  3.6874  0.4301
  276MOL0     H37197   0.653   8.727   5.387  1.5081 -1.2429  0.7321
  276MOL0     H37198   0.708   8.893   5.412 -0.5679 -0.6064 -0.6073
  276MOL0     H37199   0.842   8.826   5.186 -0.0073  1.4493 -1.7569
  276MOL0     H37200   0.687   8.730   5.166 -2.1249  1.6402 -0.8017
  276MOL0     H37201   0.557   8.944   5.218  0.1899  0.9566 -1.0607
  276MOL0     H37202   0.717   9.036   5.225  0.3731  2.7914 -3.5586
  276MOL0     H37203   0.646   9.079   5.022 -1.0981 -1.0891  0.7243
  276MOL0     H37204   0.779   8.960   5.015  0.9512  2.6968 -1.6978
  276MOL0     H37205   0.603   8.782   4.948 -1.1537  0.2324 -3.2763
  276MOL0     H37206   0.481   8.907   4.991 -0.9583 -0.7448 -2.9460
  276MOL0     H37207   0.533   9.036   4.780 -1.2794 -0.5202  0.0167
  276MOL0     H37208   0.689   8.957   4.777 -0.0688  0.6404  2.9710
  276MOL0     H37209   0.606   8.764   4.688  1.6812  0.9887  0.6851
  276MOL0     H37210   0.538   8.891   4.595 -0.1064  0.9246  1.1392
  276MOL0     H37211   0.386   8.593   4.673  1.3230 -0.3979  2.0673
  276MOL0     H37212   0.122   8.504   4.690 -4.2883 -1.1807 -2.0177
  276MOL0     H37213   0.031   8.595   4.798 -1.8022  2.0639 -0.0400
  276MOL0     H37214  -0.033   8.767   4.620 -2.0314 -0.5572 -1.0214
  276MOL0     H37215  -0.091   8.593   4.605  1.0592 -0.4381 -1.7298
  276MOL0     H37216   0.072   8.573   4.410  2.2628  0.8618 -0.7369
  276MOL0     H37217   0.119   8.746   4.442 -0.8679  0.5127 -0.7845
  276MOL0     H37218  -0.050   8.729   4.275 -0.8794  1.6495 -0.1541
  276MOL0     H37219  -0.130   8.791   4.419 -1.9058 -1.2325  0.3904
  276MOL0     H37220  -0.316   8.790   4.261  1.2399  1.3726  0.9030
  276MOL0     H37221  -0.614   8.965   4.347 -0.5361 -0.3375 -0.0913
  276MOL0     H37222  -0.453   8.978   4.284 -1.0197  2.3331  1.9054
  276MOL0     H37223  -0.579   8.883   4.196 -3.2799 -1.3058  2.5029
  276MOL0     H37224  -0.883   8.955   4.592 -1.2879  1.2604  0.4996
  276MOL0     H37225  -1.084   9.028   4.711 -1.0662 -0.7693 -2.2787
  276MOL0     H37226  -1.434   8.910   4.791  0.1330 -0.9212  0.0613
  276MOL0     H37227  -1.347   8.799   4.691  0.8628 -0.4110 -0.4238
  276MOL0     H37228  -1.339   8.667   4.944 -0.9183  2.7256  2.3777
  276MOL0     H37229  -1.499   8.732   4.938  0.8795 -2.7675  0.6596
  276MOL0     H37230  -1.376   8.578   4.714 -0.0168  1.4730 -0.3573
  276MOL0     H37231  -1.545   8.634   4.723 -0.1308 -0.0344 -0.3983
  276MOL0     H37232  -1.459   8.459   4.940 -0.3387  0.2350  0.9657
  276MOL0     H37233  -1.611   8.493   4.883  1.5381 -0.2555  0.7260
  276MOL0     H37234  -1.581   8.382   4.656 -1.6496 -2.1831  1.4612
  276MOL0     H37235  -1.576   8.272   4.788 -1.4280 -0.4596 -0.6350
  276MOL0     H37236  -1.339   8.385   4.629  3.1871 -1.2525  1.8028
  276MOL0     H37237  -1.318   8.296   4.783  0.4653 -0.8858 -0.2589
  276MOL0     H37238  -1.304   8.159   4.561  0.8200 -2.5429  2.5589
  276MOL0     H37239  -1.470   8.180   4.551  0.2423  1.6139  0.5460
  276MOL0     H37240  -1.410   7.958   4.655  2.9394  0.7157 -1.8741
  276MOL0     H37241  -1.473   8.059   4.790 -0.4397 -0.3710 -0.2051
  276MOL0     H37242  -1.140   8.632   4.854 -0.6225 -0.1107 -1.6689
  276MOL0     H37243  -0.920   8.561   4.763  1.0021  0.3938  0.8282
  276MOL0     H37244  -0.567   8.558   4.613 -0.5469 -3.0882 -2.5224
  276MOL0     H37245  -0.358   8.477   4.566 -0.0168  1.4651  1.2137
  276MOL0     H37246   1.194   8.912   5.541  0.0271 -2.5384  1.1906
  276MOL0     H37247   1.233   9.017   5.748 -1.0377 -0.9601  4.3242
  276MOL0     H37248   1.042   9.018   6.287 -2.4478  0.0020  0.6392
  276MOL0     H37249   1.011   9.169   6.483  0.8251  0.4845 -0.2692
  276MOL0     H37250   0.889   9.374   6.624  0.9412 -0.1005 -0.0433
  276MOL0     H37251   1.067   9.329   6.624  2.0645  0.5372  1.2068
  276MOL0     H37252   0.927   9.593   6.648  1.0577 -1.5336 -5.3440
  276MOL0     H37253   1.104   9.571   6.654 -1.2421  0.0510 -1.0134
  276MOL0     H37254   1.097   9.487   6.874 -1.3350 -1.2858  0.9086
  276MOL0     H37255   0.924   9.432   6.860  0.9981 -1.1294  0.2739
  276MOL0     H37256   0.864   9.687   6.865 -0.2280 -2.0240 -1.1215
  276MOL0     H37257   1.029   9.724   6.907 -1.9637  0.7611 -0.0455
  276MOL0     H37258   0.908   9.607   7.276 -0.7320 -0.6435  0.3122
  276MOL0     H37259   1.019   9.502   6.221  1.3199  0.1859  1.5642
  276MOL0     H37260   1.021   9.353   6.024  2.8576  1.0358  0.0501
  277MOL0     O37261   0.971   1.951   0.938 -0.1436 -0.8639 -0.0994
  277MOL0     C37262   0.907   2.049   0.906 -0.5020  0.2567 -0.9791
  277MOL0     O37263   0.769   2.051   0.899 -0.3942  0.0198 -1.2224
  277MOL0     C37264   0.709   1.925   0.926 -0.4742 -0.1590 -1.1288
  277MOL0     C37265   0.736   1.870   1.051  0.8564 -0.0843 -0.0408
  277MOL0     C37266   0.689   1.739   1.078  1.0620  0.1260  0.8975
  277MOL0     C37267   0.606   1.677   0.988 -0.6880 -0.0118 -0.5908
  277MOL0     O37268   0.546   1.560   1.011 -0.4684 -0.0065 -0.1644
  277MOL0     C37269   0.473   1.546   1.126  0.3469 -1.7680  0.0779
  277MOL0     C37270   0.402   1.409   1.112  0.8052  0.5755  0.3691
  277MOL0     C37271   0.289   1.408   1.010  0.6896  0.3568 -0.0988
  277MOL0     C37272   0.159   1.485   1.054 -0.4578  0.2114 -0.7774
  277MOL0     C37273   0.047   1.477   0.945 -0.7004 -0.7288  0.1869
  277MOL0     C37274  -0.020   1.344   0.940 -0.5620 -0.5014 -0.2989
  277MOL0     C37275  -0.136   1.366   0.854  0.5595  0.1057 -0.3946
  277MOL0     C37276  -0.213   1.236   0.843  0.1962  0.2412 -0.3509
  277MOL0     N37277  -0.324   1.241   0.757  0.2549 -0.6180 -0.0462
  277MOL0     C37278  -0.461   1.228   0.786 -0.4725  0.3316  0.0639
  277MOL0     C37279  -0.519   1.214   0.660 -0.1766  0.1616 -0.8227
  277MOL0     C37280  -0.659   1.187   0.625 -1.0087  0.9691 -0.2511
  277MOL0     C37281  -0.729   1.309   0.565 -0.3725  0.0192 -0.1225
  277MOL0     C37282  -0.663   1.344   0.430 -0.7463  0.3882  0.8692
  277MOL0     C37283  -0.738   1.459   0.349 -0.5138  0.0905  0.3182
  277MOL0     O37284  -0.766   1.570   0.432 -0.4778 -0.3304 -0.5080
  277MOL0     C37285  -0.891   1.619   0.416  1.2337 -0.3266 -0.6908
  277MOL0     C37286  -0.928   1.716   0.321 -0.7132  0.2507  0.5487
  277MOL0     C37287  -1.053   1.755   0.287 -0.2098 -0.8084  0.1105
  277MOL0     C37288  -1.062   1.868   0.182  1.0994 -0.2020 -0.1567
  277MOL0     C37289  -1.157   1.695   0.353 -0.2054 -0.6690 -0.6892
  277MOL0     C37290  -1.299   1.714   0.332  1.0805 -0.4416 -0.2165
  277MOL0     O37291  -1.385   1.625   0.388 -0.2634 -0.3160  0.6757
  277MOL0     C37292  -1.516   1.614   0.348  0.1303  0.0182 -0.3552
  277MOL0     C37293  -1.576   1.660   0.222 -0.1367 -0.3419 -0.1648
  277MOL0     C37294  -1.709   1.660   0.196 -0.4887 -0.7262 -1.1406
  277MOL0     C37295  -1.800   1.599   0.291  0.9836  0.2537 -0.2306
  277MOL0     O37296  -1.936   1.585   0.271 -0.3539 -0.2711 -0.1343
  277MOL0     C37297  -2.005   1.676   0.188 -0.4356  0.4923 -0.1420
  277MOL0     C37298  -2.157   1.667   0.216  0.1300 -0.0097  0.1831
  277MOL0     C37299  -2.234   1.759   0.120  0.0069  0.1113  0.2300
  277MOL0     C37300  -2.387   1.734   0.115  0.1493 -0.1556 -0.4284
  277MOL0     C37301  -2.435   1.591   0.089 -0.2656  0.2499  0.2429
  277MOL0     C37302  -2.372   1.535  -0.046  1.0436 -0.6023  0.1708
  277MOL0     C37303  -2.411   1.387  -0.056  0.2032  0.0884 -0.1453
  277MOL0     C37304  -2.354   1.324  -0.186  0.0434  0.1136 -0.1025
  277MOL0    Cl37305  -2.449   1.172  -0.216 -0.1249 -0.5582  0.2078
  277MOL0     C37306  -1.739   1.537   0.403 -0.2696 -0.9193  0.3593
  277MOL0     C37307  -1.600   1.546   0.430 -0.0060 -0.0788  0.8222
  277MOL0     O37308  -1.332   1.811   0.263  0.0804  0.0858 -0.0438
  277MOL0     C37309  -1.132   1.595   0.457 -0.1869 -0.2464  0.3611
  277MOL0     C37310  -1.001   1.558   0.477 -1.4051 -0.7794  0.1291
  277MOL0     N37311  -0.418   1.224   0.564  0.2992  0.3908 -0.3223
  277MOL0     N37312  -0.310   1.252   0.626  0.0680  0.1126 -0.4231
  277MOL0     C37313   0.591   1.730   0.857  0.3135 -0.0511 -0.5484
  277MOL0     C37314   0.647   1.854   0.824 -0.8172  0.0141 -0.2272
  277MOL0     C37315   0.976   2.176   0.885  0.9573 -0.2569  0.0534
  277MOL0     C37316   0.909   2.296   0.886 -0.6318  0.2362 -0.2595
  277MOL0     C37317   0.975   2.413   0.864  0.1317 -1.4464  0.2360
  277MOL0     C37318   1.108   2.418   0.832 -0.4774 -0.2646 -0.2430
  277MOL0     O37319   1.163   2.540   0.793  0.1535 -0.8696 -1.0082
  277MOL0     C37320   1.297   2.551   0.738 -0.3444 -0.4409  0.5149
  277MOL0     C37321   1.365   2.685   0.760 -0.3282 -0.7989 -0.5113
  277MOL0     C37322   1.405   2.677   0.908 -1.1436  0.2947  0.5475
  277MOL0     C37323   1.468   2.800   0.958  0.0399  0.9723  0.6675
  277MOL0     C37324   1.613   2.794   0.939  0.0844 -0.1019 -0.2945
  277MOL0     C37325   1.736   2.789   0.919 -0.0405  0.1875 -0.0200
  277MOL0     C37326   1.186   2.290   0.839 -0.3143  0.1401  0.3456
  277MOL0     C37327   1.122   2.173   0.865 -0.2327  0.3574 -0.1065
  277MOL0     H37328   0.804   1.912   1.124  2.2014  1.2663 -1.9763
  277MOL0     H37329   0.710   1.691   1.174 -2.2719 -0.4257  1.4462
  277MOL0     H37330   0.537   1.557   1.214  0.9133  1.6029 -0.5926
  277MOL0     H37331   0.394   1.621   1.134  1.3886 -0.0923 -3.2632
  277MOL0     H37332   0.479   1.336   1.086  0.5215  0.5400 -0.3961
  277MOL0     H37333   0.370   1.380   1.213  0.3392  0.3998  0.1727
  277MOL0     H37334   0.320   1.456   0.917  3.1040  0.3952  0.6595
  277MOL0     H37335   0.269   1.307   0.975 -2.9022  1.5074 -1.9338
  277MOL0     H37336   0.128   1.436   1.146  0.2147 -2.2656 -1.7868
  277MOL0     H37337   0.184   1.588   1.083 -3.2579  0.5569  0.7019
  277MOL0     H37338  -0.039   1.542   0.961 -1.0822 -1.1424 -0.1374
  277MOL0     H37339   0.092   1.492   0.846 -0.9122 -3.5613 -0.4482
  277MOL0     H37340   0.045   1.270   0.893  0.2855  0.9610 -1.5188
  277MOL0     H37341  -0.051   1.314   1.041 -3.3964 -1.5106 -1.3786
  277MOL0     H37342  -0.203   1.439   0.900  0.3191 -0.8476  0.8071
  277MOL0     H37343  -0.114   1.401   0.752 -0.4047 -1.8739 -1.3463
  277MOL0     H37344  -0.242   1.216   0.947 -1.3944 -2.3500 -1.2027
  277MOL0     H37345  -0.141   1.160   0.809  2.0111  2.5098 -1.8798
  277MOL0     H37346  -0.505   1.218   0.884 -1.1644  0.2217 -0.2539
  277MOL0     H37347  -0.659   1.107   0.550 -1.6602  1.2420 -0.5473
  277MOL0     H37348  -0.705   1.142   0.713 -1.7917  0.5613 -0.8593
  277MOL0     H37349  -0.722   1.390   0.638  1.7153  1.2081 -1.5556
  277MOL0     H37350  -0.836   1.288   0.555 -0.0358 -1.0670 -2.0119
  277MOL0     H37351  -0.656   1.254   0.368 -0.5125 -1.6572  3.6756
  277MOL0     H37352  -0.561   1.381   0.449 -1.1311  2.5752 -0.8799
  277MOL0     H37353  -0.825   1.407   0.308 -0.1327 -1.3719  1.2853
  277MOL0     H37354  -0.688   1.488   0.257  0.3084 -2.8025 -0.2482
  277MOL0     H37355  -0.841   1.761   0.275 -0.2409  0.1739  1.3495
  277MOL0     H37356  -0.964   1.907   0.154  0.8399  0.4043 -0.2276
  277MOL0     H37357  -1.107   1.833   0.088  0.0703 -1.7886  0.8829
  277MOL0     H37358  -1.125   1.951   0.214 -1.5137 -1.6010 -1.3511
  277MOL0     H37359  -1.515   1.693   0.138 -1.4248  0.7521 -0.7055
  277MOL0     H37360  -1.758   1.685   0.103 -1.3524 -1.9285 -1.0545
  277MOL0     H37361  -1.960   1.776   0.194 -2.1443  1.2302  1.0774
  277MOL0     H37362  -1.988   1.634   0.088  1.3847 -2.3485  1.2369
  277MOL0     H37363  -2.188   1.564   0.196 -0.0903  0.4561 -2.0440
  277MOL0     H37364  -2.168   1.697   0.321  3.1968  0.3726  0.4870
  277MOL0     H37365  -2.191   1.749   0.020 -2.5379 -1.7036 -0.7832
  277MOL0     H37366  -2.225   1.862   0.156 -1.1593  0.2848  0.0645
  277MOL0     H37367  -2.418   1.760   0.217  3.8821 -3.5806  1.9040
  277MOL0     H37368  -2.436   1.792   0.037 -4.1735  1.2818  2.9592
  277MOL0     H37369  -2.542   1.581   0.072 -0.6595 -2.6907  3.3877
  277MOL0     H37370  -2.405   1.527   0.173  2.0862 -0.5652 -1.1219
  277MOL0     H37371  -2.409   1.590  -0.133  0.4569 -2.3958 -0.7663
  277MOL0     H37372  -2.263   1.546  -0.044  0.7847  2.9184  1.2997
  277MOL0     H37373  -2.517   1.362  -0.054  0.5827 -1.7125  2.2705
  277MOL0     H37374  -2.360   1.338   0.028  0.5631 -1.3044 -1.1370
  277MOL0     H37375  -2.249   1.323  -0.156 -0.9000  4.2261  4.7736
  277MOL0     H37376  -2.360   1.382  -0.279  4.0574 -2.5554 -2.3706
  277MOL0     H37377  -1.794   1.470   0.468  1.7200 -1.2204  1.8447
  277MOL0     H37378  -1.576   1.485   0.517 -0.8462 -0.5029  0.7684
  277MOL0     H37379  -1.210   1.547   0.515  0.3408 -1.6255 -0.0259
  277MOL0     H37380  -0.968   1.494   0.558  2.4792  1.3143  0.4544
  277MOL0     H37381   0.526   1.688   0.781 -0.7984  3.6432 -1.8633
  277MOL0     H37382   0.623   1.907   0.732 -1.0087  2.0172  0.9114
  277MOL0     H37383   0.803   2.301   0.913 -0.5511 -1.3019  0.4784
  277MOL0     H37384   0.915   2.501   0.882 -1.8343 -2.7224  0.1775
  277MOL0     H37385   1.356   2.472   0.785  0.1729 -0.8355 -0.7539
  277MOL0     H37386   1.286   2.514   0.636  2.2992 -0.1150  0.0482
  277MOL0     H37387   1.302   2.770   0.730  0.0761 -0.7831 -1.3426
  277MOL0     H37388   1.462   2.684   0.709 -0.4838 -0.1445 -0.8381
  277MOL0     H37389   1.464   2.585   0.908 -4.2679 -1.8197  0.2013
  277MOL0     H37390   1.310   2.669   0.961 -2.4699  1.6513 -1.4798
  277MOL0     H37391   1.455   2.812   1.066  0.7380  2.9478  0.5777
  277MOL0     H37392   1.419   2.880   0.901 -1.7154 -1.6344 -1.7950
  277MOL0     H37393   1.843   2.786   0.907 -0.3429 -1.7257 -3.1575
  277MOL0     H37394   1.291   2.270   0.819 -0.6192 -1.7417  0.4449
  277MOL0     H37395   1.184   2.084   0.875  0.1364  0.5055 -0.9679
  278MOL0     O37396   9.673   9.125   3.685 -0.6044  0.4970 -0.3136
  278MOL0     C37397   9.780   9.180   3.646 -0.4157 -1.0104  0.2259
  278MOL0     O37398   9.792   9.316   3.623  0.4247 -0.9440 -0.4021
  278MOL0     C37399   9.681   9.396   3.644 -0.4084  1.1513 -0.2369
  278MOL0     C37400   9.551   9.363   3.597  0.1777  0.3613 -0.9000
  278MOL0     C37401   9.443   9.443   3.627  0.0542 -0.3742 -0.7318
  278MOL0     C37402   9.456   9.557   3.703  0.2923 -0.5830  0.3728
  278MOL0     O37403   9.331   9.616   3.725 -0.2780  0.3112 -0.2792
  278MOL0     C37404   9.336   9.748   3.679 -0.8460  0.4516  0.1273
  278MOL0     C37405   9.202   9.807   3.648  0.5980 -0.7379 -0.3793
  278MOL0     C37406   9.095   9.789   3.760  0.3598 -0.2032  0.0975
  278MOL0     C37407   8.968   9.846   3.695  0.3281  0.5454 -0.1340
  278MOL0     C37408   8.854   9.820   3.789  0.5650  0.0036 -0.6291
  278MOL0     C37409   8.725   9.911   3.779 -0.2293  0.7009 -0.9512
  278MOL0     C37410   8.618   9.883   3.885  0.1922  0.2801 -0.6451
  278MOL0     C37411   8.560   9.739   3.874  0.5183 -0.6173  0.1902
  278MOL0     N37412   8.562   9.687   3.738  1.2402  0.2714  0.5715
  278MOL0     C37413   8.590   9.551   3.699 -0.2476 -0.2109 -0.3950
  278MOL0     C37414   8.566   9.559   3.565  0.5977  0.0236 -0.1296
  278MOL0     C37415   8.603   9.438   3.485 -0.2192 -0.7786 -0.2146
  278MOL0     C37416   8.731   9.451   3.394 -0.1062  0.4916 -0.5056
  278MOL0     C37417   8.838   9.549   3.457 -0.5790 -0.1643  0.2416
  278MOL0     C37418   8.911   9.474   3.572  0.4361  0.2702  0.4460
  278MOL0     O37419   8.950   9.345   3.532  0.2575 -0.1172 -0.3774
  278MOL0     C37420   9.052   9.328   3.435  0.0264 -0.4337  0.2704
  278MOL0     C37421   9.065   9.198   3.381 -0.7491 -0.2646  0.3128
  278MOL0     C37422   9.164   9.163   3.290 -0.3630 -0.4712 -0.2485
  278MOL0     C37423   9.158   9.026   3.250  0.2049  0.2405  0.2776
  278MOL0     C37424   9.275   9.252   3.261 -0.7741 -1.0318 -0.8935
  278MOL0     C37425   9.387   9.219   3.165 -0.2261 -0.4260 -0.6896
  278MOL0     O37426   9.464   9.321   3.125 -0.1466 -0.7003 -0.1202
  278MOL0     C37427   9.582   9.296   3.058 -0.1786 -0.5307  0.7653
  278MOL0     C37428   9.579   9.294   2.919  0.3613 -0.4874 -0.0587
  278MOL0     C37429   9.695   9.243   2.855 -0.1793 -0.6757  0.3213
  278MOL0     C37430   9.811   9.200   2.919  0.0808 -0.4100  0.0385
  278MOL0     O37431   9.921   9.175   2.843  0.0241  1.2030  0.1854
  278MOL0     C37432  10.040   9.206   2.915  0.3158  0.5474 -0.9866
  278MOL0     C37433  10.148   9.234   2.822  0.5307 -0.0691  0.0992
  278MOL0     C37434  10.284   9.239   2.882 -0.9419 -0.2863  0.4589
  278MOL0     C37435  10.396   9.276   2.789  0.9022 -0.4863 -0.8332
  278MOL0     C37436  10.537   9.265   2.854  0.2891  0.0804 -0.4026
  278MOL0     C37437  10.650   9.304   2.755  0.5735 -0.2440  0.4362
  278MOL0     C37438  10.774   9.218   2.780  0.3764  0.4645  0.3176
  278MOL0     C37439  10.843   9.224   2.916 -1.1334  1.0049 -1.0731
  278MOL0    Cl37440  11.002   9.118   2.933 -0.1783 -0.2933  0.1609
  278MOL0     C37441   9.802   9.187   3.061 -0.9269 -0.7134 -0.3084
  278MOL0     C37442   9.685   9.226   3.127 -0.1596 -0.4142  0.0240
  278MOL0     O37443   9.397   9.103   3.129  0.1203 -0.1644 -0.5813
  278MOL0     C37444   9.258   9.382   3.309 -0.2197 -0.0076  0.6004
  278MOL0     C37445   9.147   9.419   3.389 -0.7684  0.0560 -0.0082
  278MOL0     N37446   8.518   9.675   3.519 -1.3077 -0.4801  0.3632
  278MOL0     N37447   8.500   9.742   3.632 -0.7473  0.4442 -0.1569
  278MOL0     C37448   9.581   9.597   3.747 -0.0611 -0.7219 -0.8343
  278MOL0     C37449   9.693   9.511   3.719 -1.1048 -0.0340 -0.0951
  278MOL0     C37450   9.908   9.101   3.635 -0.0855 -0.0580 -0.7631
  278MOL0     C37451  10.030   9.171   3.601 -0.1710  0.4401  0.2283
  278MOL0     C37452  10.145   9.097   3.577 -1.0523  0.1311  0.3438
  278MOL0     C37453  10.146   8.954   3.591 -0.2376  0.1352  0.0415
  278MOL0     O37454  10.255   8.874   3.571 -0.3662 -0.3349  0.2865
  278MOL0     C37455  10.385   8.930   3.564 -0.5503 -0.7833 -0.5769
  278MOL0     C37456  10.494   8.824   3.593  0.3108  0.4818 -0.1945
  278MOL0     C37457  10.511   8.818   3.749  0.4112 -0.4261  0.4718
  278MOL0     C37458  10.626   8.727   3.789 -0.4479  0.8854 -0.2854
  278MOL0     C37459  10.646   8.714   3.934  0.7088  0.5505  0.1115
  278MOL0     C37460  10.667   8.707   4.055 -0.4914 -0.2386 -0.4624
  278MOL0     C37461  10.025   8.890   3.623  0.4650 -0.1170 -0.4158
  278MOL0     C37462   9.910   8.964   3.649  0.9585  1.0359 -1.1192
  278MOL0     H37463   9.539   9.279   3.530  1.4211  0.3416 -1.1171
  278MOL0     H37464   9.344   9.419   3.590 -0.1024  0.7920 -1.1304
  278MOL0     H37465   9.378   9.797   3.767  3.0613 -3.8091  1.0360
  278MOL0     H37466   9.402   9.764   3.594  0.4824 -0.0909  1.0188
  278MOL0     H37467   9.203   9.913   3.620 -0.3344 -0.2595  1.2714
  278MOL0     H37468   9.159   9.762   3.558 -1.7244  0.8956 -0.1608
  278MOL0     H37469   9.088   9.682   3.782  1.1537 -0.6246 -1.5411
  278MOL0     H37470   9.121   9.842   3.853  0.5974 -1.4227  0.7519
  278MOL0     H37471   8.973   9.952   3.670 -1.6160  1.0081  1.1613
  278MOL0     H37472   8.954   9.792   3.601 -0.0788 -0.8463  0.6922
  278MOL0     H37473   8.835   9.713   3.799 -1.8711  0.3383 -1.0443
  278MOL0     H37474   8.892   9.850   3.887  1.3356  0.7526 -1.1350
  278MOL0     H37475   8.754  10.016   3.787 -2.4934  1.4509 -1.6126
  278MOL0     H37476   8.677   9.895   3.682 -0.4063 -1.4603 -0.5534
  278MOL0     H37477   8.638   9.900   3.991  0.6733 -1.9467 -0.3392
  278MOL0     H37478   8.534   9.950   3.864 -0.2010 -0.0104 -0.0039
  278MOL0     H37479   8.458   9.756   3.911  0.8125  0.4353  0.5362
  278MOL0     H37480   8.617   9.678   3.945  4.7654  3.2163  0.5158
  278MOL0     H37481   8.637   9.472   3.756  1.7360  0.3236 -1.2145
  278MOL0     H37482   8.623   9.359   3.558 -0.9807 -1.4101 -0.6754
  278MOL0     H37483   8.520   9.400   3.424 -0.2924  1.7021 -1.7991
  278MOL0     H37484   8.698   9.504   3.304 -1.9905  1.6468  0.8168
  278MOL0     H37485   8.760   9.348   3.371  0.4842  0.9732 -2.0424
  278MOL0     H37486   8.803   9.650   3.483  0.3346  0.1344  0.3601
  278MOL0     H37487   8.905   9.581   3.377 -1.0688 -0.2588 -0.2161
  278MOL0     H37488   8.850   9.466   3.662 -1.9781  1.1482 -1.0260
  278MOL0     H37489   8.982   9.543   3.619 -1.5629  1.3642  2.0555
  278MOL0     H37490   8.990   9.122   3.400 -2.9416  1.7193  0.1914
  278MOL0     H37491   9.238   8.965   3.292  0.6068 -0.8582 -1.9386
  278MOL0     H37492   9.062   8.981   3.276 -0.8284  2.3718  0.4129
  278MOL0     H37493   9.166   8.999   3.145  0.9398 -3.2232  1.1013
  278MOL0     H37494   9.482   9.316   2.874 -1.5753  0.0848  3.9578
  278MOL0     H37495   9.682   9.249   2.748  2.2853  0.3500  0.0081
  278MOL0     H37496  10.029   9.287   2.987  1.5854  1.7362 -2.0552
  278MOL0     H37497  10.077   9.117   2.967  3.7063  0.9888 -2.3622
  278MOL0     H37498  10.146   9.160   2.742  4.6389  1.6907 -1.8901
  278MOL0     H37499  10.131   9.335   2.784  0.1724  0.7418  2.2324
  278MOL0     H37500  10.314   9.142   2.924 -2.4227  0.2372  2.9607
  278MOL0     H37501  10.269   9.306   2.968 -1.2756  0.5707 -0.2480
  278MOL0     H37502  10.389   9.211   2.702  0.8805 -0.5094 -0.8138
  278MOL0     H37503  10.376   9.378   2.755 -1.8235 -1.1370 -1.3659
  278MOL0     H37504  10.532   9.156   2.864 -0.2341  0.0695 -0.7564
  278MOL0     H37505  10.557   9.315   2.949 -0.1340  3.6700 -2.0495
  278MOL0     H37506  10.615   9.296   2.651 -0.3277 -1.8955  0.8390
  278MOL0     H37507  10.664   9.412   2.770 -1.0536  0.0420  0.1797
  278MOL0     H37508  10.852   9.237   2.705 -0.3770 -1.0393 -0.9168
  278MOL0     H37509  10.747   9.114   2.757 -0.0842  0.2456  1.7673
  278MOL0     H37510  10.773   9.195   2.995  0.7806 -1.4636 -0.1671
  278MOL0     H37511  10.872   9.328   2.932 -4.7945  2.0236  0.0528
  278MOL0     H37512   9.889   9.163   3.121 -0.0325 -0.1139 -1.3371
  278MOL0     H37513   9.660   9.208   3.231 -1.9928  3.5421  0.4343
  278MOL0     H37514   9.312   9.467   3.267  1.3857 -1.3695 -0.1777
  278MOL0     H37515   9.150   9.523   3.420 -1.0231 -0.4046  1.6716
  278MOL0     H37516   9.583   9.684   3.812 -0.5073 -0.4473 -1.1760
  278MOL0     H37517   9.788   9.535   3.765 -0.3930  0.0991 -1.6121
  278MOL0     H37518  10.033   9.280   3.597  3.4432  0.4954  0.9246
  278MOL0     H37519  10.236   9.148   3.548 -1.9164  2.1778  1.0450
  278MOL0     H37520  10.408   8.971   3.465  3.0229 -0.3369  0.3144
  278MOL0     H37521  10.392   9.016   3.631  1.1666  0.6807 -2.5079
  278MOL0     H37522  10.586   8.854   3.542  0.1562  1.5336  0.1108
  278MOL0     H37523  10.460   8.728   3.555  2.0623  0.0099 -0.6266
  278MOL0     H37524  10.415   8.781   3.788 -0.7965  1.2530 -0.7472
  278MOL0     H37525  10.526   8.918   3.789  1.0619 -0.1330 -0.4788
  278MOL0     H37526  10.708   8.768   3.729 -0.7042  0.8970 -0.6305
  278MOL0     H37527  10.607   8.633   3.735  2.5236  0.3123 -0.5423
  278MOL0     H37528  10.696   8.693   4.157  0.5543  2.9036 -0.2220
  278MOL0     H37529  10.023   8.782   3.635 -0.5451 -0.2807 -1.7495
  278MOL0     H37530   9.828   8.898   3.674  1.2518  1.2449  0.5367
  279MOL0     O37531   7.699   7.576   8.893  0.2768  0.2342  0.5763
  279MOL0     C37532   7.703   7.456   8.913  0.2619  0.9665  0.3436
  279MOL0     O37533   7.602   7.384   8.974  0.4416 -0.0520  0.2147
  279MOL0     C37534   7.481   7.444   8.992  0.4296  0.2683 -0.7006
  279MOL0     C37535   7.469   7.570   9.055 -1.0001 -1.0195  0.3408
  279MOL0     C37536   7.343   7.622   9.085  0.6886 -0.3525  1.2614
  279MOL0     C37537   7.229   7.542   9.070  0.1235  0.2948 -0.1714
  279MOL0     O37538   7.113   7.596   9.119  0.1305  0.9701 -0.4705
  279MOL0     C37539   6.997   7.509   9.138  0.3971 -0.3416 -0.8725
  279MOL0     C37540   6.877   7.608   9.153  0.1047  0.3834  0.2749
  279MOL0     C37541   6.884   7.683   9.285 -0.4037 -0.4474  0.4663
  279MOL0     C37542   6.750   7.743   9.307 -0.6777  0.2612 -0.5324
  279MOL0     C37543   6.721   7.788   9.458  0.1078  0.0065  0.0878
  279MOL0     C37544   6.814   7.904   9.483  0.2085  0.3604 -0.2436
  279MOL0     C37545   6.767   8.021   9.580 -0.2016 -0.4084  0.6287
  279MOL0     C37546   6.750   7.991   9.730 -0.0655  0.4481 -0.0159
  279MOL0     N37547   6.887   7.987   9.789  0.1544  0.2365 -0.6731
  279MOL0     C37548   6.979   8.092   9.787 -0.7358 -0.6200 -0.7420
  279MOL0     C37549   7.091   8.035   9.840 -0.6305 -0.4566  0.8321
  279MOL0     C37550   7.226   8.107   9.846 -0.1629 -0.4070  0.2151
  279MOL0     C37551   7.322   8.023   9.936  0.5561  1.3525 -0.1826
  279MOL0     C37552   7.475   8.043   9.911  0.3753 -1.0440 -0.3526
  279MOL0     C37553   7.537   8.176   9.964  0.8879  0.0603 -0.5113
  279MOL0     O37554   7.496   8.270   9.867 -0.1572  0.1761  0.0749
  279MOL0     C37555   7.537   8.401   9.877  0.2622  0.2011  0.5689
  279MOL0     C37556   7.470   8.506   9.805 -0.1525  0.6056  0.0669
  279MOL0     C37557   7.520   8.633   9.797  0.1358 -0.4985 -0.0897
  279MOL0     C37558   7.443   8.728   9.701  0.4252  0.1029 -0.1712
  279MOL0     C37559   7.623   8.675   9.876 -0.1552 -0.5211  0.4048
  279MOL0     C37560   7.683   8.808   9.888  0.4241  0.5032 -0.5508
  279MOL0     O37561   7.823   8.832   9.888  0.2815 -0.1246  0.6015
  279MOL0     C37562   7.915   8.739   9.841  0.3127  0.0070  0.3550
  279MOL0     C37563   8.024   8.696   9.922  0.1660  0.1210  0.6925
  279MOL0     C37564   8.106   8.595   9.875  0.9669 -0.3955  0.3535
  279MOL0     C37565   8.083   8.539   9.753  0.2771 -0.3503  0.7516
  279MOL0     O37566   8.145   8.430   9.704 -0.0150 -0.3608 -0.3120
  279MOL0     C37567   8.219   8.354   9.799 -0.6852 -0.8558  0.1769
  279MOL0     C37568   8.239   8.217   9.731 -0.5042 -0.5037  0.7213
  279MOL0     C37569   8.347   8.126   9.796 -0.1866  0.0036 -0.8339
  279MOL0     C37570   8.479   8.166   9.758 -0.4019 -0.3074  0.8674
  279MOL0     C37571   8.576   8.067   9.813 -0.5472  0.3971 -0.2372
  279MOL0     C37572   8.557   8.027   9.959  0.6458  0.4944  0.0576
  279MOL0     C37573   8.693   7.975  10.019 -0.2257 -0.1790 -0.7652
  279MOL0     C37574   8.674   7.912  10.159  0.0605  0.6454 -0.3802
  279MOL0    Cl37575   8.595   7.754  10.151  0.1709 -0.3603 -0.0750
  279MOL0     C37576   7.981   8.584   9.669  0.2526 -0.2040  0.3012
  279MOL0     C37577   7.904   8.691   9.710  0.8198  1.0864 -0.7426
  279MOL0     O37578   7.599   8.889   9.935 -0.7317  0.1836  0.2227
  279MOL0     C37579   7.673   8.575   9.961 -0.0920 -0.0268  0.5315
  279MOL0     C37580   7.636   8.443   9.966 -0.7262  0.0507  0.0042
  279MOL0     N37581   7.070   7.900   9.867  0.0751 -0.3813 -0.6019
  279MOL0     N37582   6.954   7.870   9.828 -0.2882  0.0276 -0.2037
  279MOL0     C37583   7.244   7.417   9.020  0.2189 -0.1845  0.2570
  279MOL0     C37584   7.366   7.366   8.972  1.1325 -0.5600 -0.1218
  279MOL0     C37585   7.823   7.380   8.868 -0.4673 -0.8042 -0.6493
  279MOL0     C37586   7.828   7.239   8.881 -0.1005 -0.7368  0.8653
  279MOL0     C37587   7.939   7.176   8.830  0.6996 -0.2715  0.1290
  279MOL0     C37588   8.036   7.244   8.759 -0.6709  0.1524 -1.4228
  279MOL0     O37589   8.146   7.186   8.696  0.4336  0.1206  0.0018
  279MOL0     C37590   8.179   7.047   8.721  0.5983 -1.2515  0.2131
  279MOL0     C37591   8.321   7.025   8.667 -0.2638 -0.0559  0.1142
  279MOL0     C37592   8.439   7.096   8.732  0.2975  0.4478 -0.1770
  279MOL0     C37593   8.564   7.082   8.645 -0.0627  0.5397  0.1910
  279MOL0     C37594   8.684   7.158   8.674 -0.7576 -0.0399 -0.0133
  279MOL0     C37595   8.778   7.230   8.677 -0.5305 -0.8389 -0.6230
  279MOL0     C37596   8.020   7.379   8.746  0.9791  0.0249  0.5828
  279MOL0     C37597   7.914   7.449   8.794  0.3158 -0.3142  0.6054
  279MOL0     H37598   7.561   7.627   9.068  0.1077 -2.5517 -0.4774
  279MOL0     H37599   7.342   7.721   9.130 -0.6924 -0.0833  0.6950
  279MOL0     H37600   6.968   7.451   9.050 -1.7657 -1.2664  0.3738
  279MOL0     H37601   7.010   7.439   9.220 -2.1014  1.5970  1.3586
  279MOL0     H37602   6.866   7.680   9.072  2.1091 -1.4120 -1.7169
  279MOL0     H37603   6.791   7.541   9.151 -2.1357  3.0820 -0.3795
  279MOL0     H37604   6.910   7.618   9.369 -1.0844  0.2902  1.2691
  279MOL0     H37605   6.965   7.757   9.283 -2.2222  1.8119  2.7723
  279MOL0     H37606   6.731   7.825   9.237  0.0195  0.2966 -0.6906
  279MOL0     H37607   6.666   7.674   9.294 -0.8885 -0.3843  3.2173
  279MOL0     H37608   6.621   7.826   9.478  0.5252  0.2395  1.9502
  279MOL0     H37609   6.734   7.708   9.532  3.1701  0.7415  0.5273
  279MOL0     H37610   6.901   7.861   9.532 -0.7102 -0.3518  0.8104
  279MOL0     H37611   6.845   7.958   9.393 -2.2654  0.6081 -1.0383
  279MOL0     H37612   6.835   8.105   9.562 -2.0081  0.7667 -1.2336
  279MOL0     H37613   6.674   8.064   9.539  1.7336  3.0881 -0.5430
  279MOL0     H37614   6.699   7.895   9.741 -0.1925  0.5318  0.1219
  279MOL0     H37615   6.681   8.068   9.766 -3.8803 -1.2482 -3.0733
  279MOL0     H37616   6.975   8.196   9.755  1.5356 -0.4397 -0.5989
  279MOL0     H37617   7.272   8.109   9.746  0.4113  1.1654  0.4845
  279MOL0     H37618   7.212   8.208   9.886 -2.4985  0.2593 -1.9988
  279MOL0     H37619   7.308   7.921   9.899  0.3259  0.5979  1.8349
  279MOL0     H37620   7.281   8.029  10.037 -0.5740 -4.7402  0.0899
  279MOL0     H37621   7.512   8.039   9.808  1.2760  0.5166 -0.1194
  279MOL0     H37622   7.526   7.964   9.967 -0.5714 -1.8107 -0.5474
  279MOL0     H37623   7.646   8.173   9.970  0.9115  0.5610 -0.6291
  279MOL0     H37624   7.496   8.212  10.059  3.1197 -0.0829  0.5619
  279MOL0     H37625   7.385   8.494   9.738  0.2918  1.1806 -0.6100
  279MOL0     H37626   7.444   8.827   9.748 -2.1133  0.1995 -0.1620
  279MOL0     H37627   7.486   8.741   9.601  2.2627 -0.9643  0.4310
  279MOL0     H37628   7.334   8.718   9.700  0.5319 -1.7112 -2.8336
  279MOL0     H37629   8.047   8.721  10.026  0.9506 -1.8622  1.0325
  279MOL0     H37630   8.177   8.559   9.948  0.3952 -0.4403  0.8988
  279MOL0     H37631   8.313   8.410   9.811 -1.4458  0.1785  1.4567
  279MOL0     H37632   8.165   8.327   9.890 -1.3575  0.5479  0.2049
  279MOL0     H37633   8.145   8.161   9.736  0.1217 -2.3042 -3.3798
  279MOL0     H37634   8.255   8.228   9.623 -1.2539  1.6924  0.7835
  279MOL0     H37635   8.331   8.022   9.768 -0.2287 -0.6034  1.2945
  279MOL0     H37636   8.329   8.138   9.903 -1.6974  0.5840 -1.1314
  279MOL0     H37637   8.477   8.151   9.649 -1.5723  2.8220  0.3487
  279MOL0     H37638   8.513   8.268   9.777  2.4221 -1.0269  0.0573
  279MOL0     H37639   8.677   8.107   9.798  1.0289 -2.7129  1.0358
  279MOL0     H37640   8.571   7.979   9.748 -0.0095 -0.4114  0.7861
  279MOL0     H37641   8.506   8.100  10.023  0.7843  0.7842 -0.1631
  279MOL0     H37642   8.492   7.939   9.953 -1.4734  1.7178  2.6750
  279MOL0     H37643   8.761   8.059  10.036 -1.9350  1.1155 -0.0146
  279MOL0     H37644   8.749   7.907   9.954  2.3375  2.2408 -1.2628
  279MOL0     H37645   8.600   7.974  10.211 -0.5090 -0.3490  0.0169
  279MOL0     H37646   8.761   7.922  10.224  0.4343 -0.2124 -0.7414
  279MOL0     H37647   7.956   8.537   9.574 -0.4501 -0.0416  0.4001
  279MOL0     H37648   7.824   8.730   9.648  0.3800  0.9018 -0.3046
  279MOL0     H37649   7.734   8.601  10.047  0.8969  0.0405 -0.1735
  279MOL0     H37650   7.690   8.376  10.031  0.6117  0.5883 -0.5143
  279MOL0     H37651   7.154   7.355   9.021  0.6030 -0.9561  4.1857
  279MOL0     H37652   7.381   7.270   8.925 -1.6222 -0.2437 -1.8974
  279MOL0     H37653   7.741   7.195   8.929 -1.1118  0.2815  0.0238
  279MOL0     H37654   7.950   7.069   8.846  2.4438  0.2362  2.8226
  279MOL0     H37655   8.169   7.037   8.829 -1.6167  1.5638  0.4108
  279MOL0     H37656   8.096   6.996   8.671  0.1802 -0.9183  0.5539
  279MOL0     H37657   8.312   7.061   8.564 -2.8606  0.4807  0.4787
  279MOL0     H37658   8.342   6.917   8.666  5.1713  0.6984 -1.0922
  279MOL0     H37659   8.460   7.051   8.830 -0.4524  2.4675  0.9824
  279MOL0     H37660   8.416   7.202   8.749 -0.4832  0.2353  0.1513
  279MOL0     H37661   8.539   7.120   8.546 -1.1606  0.2762  0.3483
  279MOL0     H37662   8.593   6.978   8.633 -1.7745  0.2265 -1.8651
  279MOL0     H37663   8.861   7.297   8.672  0.2719 -1.8421 -0.9459
  279MOL0     H37664   8.094   7.442   8.697  0.7532  0.6735  1.0557
  279MOL0     H37665   7.912   7.557   8.779  1.2155 -0.2707  0.7400
  280MOL0     O37666   5.505   6.109   6.660 -1.3526 -0.7571  0.2539
  280MOL0     C37667   5.475   6.170   6.763 -0.1373  0.0810 -0.2175
  280MOL0     O37668   5.352   6.187   6.808 -0.0009  0.6059  0.3466
  280MOL0     C37669   5.254   6.117   6.742  0.6248  0.1671  0.5433
  280MOL0     C37670   5.220   6.158   6.618 -0.8553 -0.3406 -0.1104
  280MOL0     C37671   5.100   6.109   6.560 -0.5227  0.2194  0.0634
  280MOL0     C37672   5.026   6.009   6.626  0.9677  0.4532  0.1723
  280MOL0     O37673   4.902   5.953   6.588  0.2792 -0.2516 -0.0622
  280MOL0     C37674   4.849   5.990   6.458 -0.5804 -0.2945 -0.8982
  280MOL0     C37675   4.715   5.931   6.417 -0.3333 -0.4801  0.0254
  280MOL0     C37676   4.734   5.787   6.393  0.1870 -0.2392 -0.0291
  280MOL0     C37677   4.637   5.694   6.469  0.4552  0.1618 -0.2237
  280MOL0     C37678   4.484   5.720   6.435 -0.3126 -0.6817  0.5492
  280MOL0     C37679   4.450   5.695   6.291 -0.3351  0.1479 -0.8511
  280MOL0     C37680   4.324   5.609   6.274 -0.1613  1.0534 -0.4093
  280MOL0     C37681   4.193   5.672   6.320 -0.4719 -0.7205 -0.1728
  280MOL0     N37682   4.076   5.608   6.260 -0.5558  0.0529  0.1641
  280MOL0     C37683   4.048   5.474   6.273 -0.2086 -0.1435  0.3345
  280MOL0     C37684   3.929   5.462   6.211  0.5386  0.6396 -0.4293
  280MOL0     C37685   3.850   5.333   6.216  0.1152  0.2188  0.8798
  280MOL0     C37686   3.721   5.339   6.144  0.1178  0.1317 -0.3014
  280MOL0     C37687   3.723   5.322   5.996 -0.3341  0.9267  0.1429
  280MOL0     C37688   3.590   5.292   5.933  0.2535  0.0770  0.6749
  280MOL0     O37689   3.518   5.413   5.934  0.9059  0.4599  0.0171
  280MOL0     C37690   3.390   5.401   5.878 -0.7348  1.1169  0.0662
  280MOL0     C37691   3.335   5.517   5.820  0.1117  0.0357  0.1317
  280MOL0     C37692   3.203   5.512   5.761  0.3769 -0.0533  0.5139
  280MOL0     C37693   3.157   5.640   5.671  0.3548 -0.1185  0.2615
  280MOL0     C37694   3.136   5.391   5.759 -0.0515  0.3844  0.0803
  280MOL0     C37695   3.018   5.361   5.686 -0.1136 -0.0889 -0.0774
  280MOL0     O37696   3.021   5.361   5.551 -1.2759  0.1730 -0.3867
  280MOL0     C37697   2.912   5.330   5.478  0.5596 -0.1122 -0.1607
  280MOL0     C37698   2.814   5.231   5.501  0.9934 -0.1702 -0.1781
  280MOL0     C37699   2.726   5.190   5.399 -0.4635  0.2475  0.2034
  280MOL0     C37700   2.736   5.239   5.268 -0.7564  0.2251 -0.4563
  280MOL0     O37701   2.666   5.206   5.156  0.0338 -0.6337  0.2989
  280MOL0     C37702   2.633   5.066   5.129  0.0874  0.2662  0.1104
  280MOL0     C37703   2.564   5.058   4.997 -0.0331  1.0093 -0.1740
  280MOL0     C37704   2.425   5.120   4.989  0.0026 -0.1203  0.5714
  280MOL0     C37705   2.362   5.066   4.859  0.0328 -0.2279  0.7791
  280MOL0     C37706   2.224   5.135   4.850  0.9184 -0.4376  0.1429
  280MOL0     C37707   2.163   5.115   4.709  0.9570 -0.5645  0.1088
  280MOL0     C37708   2.017   5.150   4.735  1.0372 -0.5074 -0.1798
  280MOL0     C37709   1.943   5.130   4.607 -0.0264  0.6539  0.1518
  280MOL0    Cl37710   1.941   4.949   4.566  0.0176 -0.0211  0.1602
  280MOL0     C37711   2.846   5.328   5.248  0.2257 -0.6113 -0.3636
  280MOL0     C37712   2.916   5.381   5.350 -0.2869 -0.6189  0.4055
  280MOL0     O37713   2.928   5.325   5.760  0.1684 -0.0800  0.2189
  280MOL0     C37714   3.194   5.277   5.823  0.7832  0.1904  0.6303
  280MOL0     C37715   3.311   5.288   5.894 -0.5209 -0.2709 -0.1665
  280MOL0     N37716   3.884   5.586   6.165  0.0810 -0.0964  0.1900
  280MOL0     N37717   3.975   5.666   6.202  0.6420 -0.2764  0.1851
  280MOL0     C37718   5.069   5.967   6.746 -0.0025 -0.6360 -0.6308
  280MOL0     C37719   5.186   6.026   6.813  0.8783  0.3439 -0.5347
  280MOL0     C37720   5.584   6.222   6.846  0.1395 -0.0741  0.0440
  280MOL0     C37721   5.716   6.188   6.827 -0.3586 -1.1555 -0.2184
  280MOL0     C37722   5.814   6.244   6.914 -0.3737 -0.5861  0.4966
  280MOL0     C37723   5.783   6.321   7.027  0.4970  0.3279 -1.1031
  280MOL0     O37724   5.875   6.376   7.111 -0.2734  0.0730 -0.1009
  280MOL0     C37725   5.997   6.302   7.133  0.1019  0.4766 -0.8510
  280MOL0     C37726   6.121   6.369   7.070  0.3636 -0.4932  0.5297
  280MOL0     C37727   6.147   6.515   7.120  0.1217  0.5917 -0.1567
  280MOL0     C37728   6.278   6.575   7.058 -0.4754  0.1940  0.1926
  280MOL0     C37729   6.401   6.508   7.111  0.5498  0.0868  0.2848
  280MOL0     C37730   6.483   6.441   7.160  0.6837  0.6184  1.0841
  280MOL0     C37731   5.644   6.358   7.038 -0.1264 -0.3707  0.2044
  280MOL0     C37732   5.546   6.308   6.954  0.3718  0.0979 -0.6945
  280MOL0     H37733   5.270   6.236   6.562  4.2833 -1.8940  1.7561
  280MOL0     H37734   5.072   6.138   6.459  1.9275  2.4156 -0.0833
  280MOL0     H37735   4.837   6.098   6.462  2.0324  0.0755 -1.0608
  280MOL0     H37736   4.923   5.971   6.379  3.4748 -0.3125  2.5639
  280MOL0     H37737   4.643   5.955   6.496 -2.5318  3.2694 -2.7722
  280MOL0     H37738   4.675   5.991   6.335 -3.3225  0.5615  2.0446
  280MOL0     H37739   4.713   5.764   6.288  0.3693  0.3384 -0.1992
  280MOL0     H37740   4.837   5.754   6.411  0.4841  1.3478  1.5629
  280MOL0     H37741   4.670   5.590   6.456  2.0432  0.3358  1.8986
  280MOL0     H37742   4.652   5.709   6.577 -1.2841 -2.7781  0.5549
  280MOL0     H37743   4.419   5.656   6.495 -0.9035  0.5757  1.2677
  280MOL0     H37744   4.467   5.820   6.475 -2.5948 -0.7573 -0.0814
  280MOL0     H37745   4.438   5.787   6.233 -1.3484  0.4411 -0.2135
  280MOL0     H37746   4.531   5.633   6.251  4.2555  0.9132  5.7439
  280MOL0     H37747   4.315   5.585   6.168 -0.0703 -0.4167 -0.1024
  280MOL0     H37748   4.343   5.520   6.334  0.5083  1.3414 -0.1833
  280MOL0     H37749   4.203   5.779   6.300 -0.3971 -0.1885  2.3625
  280MOL0     H37750   4.186   5.667   6.429 -0.7217  0.7923 -0.0956
  280MOL0     H37751   4.107   5.396   6.319  0.0669  0.6422  1.3737
  280MOL0     H37752   3.916   5.268   6.158  0.8740  2.2362 -0.6313
  280MOL0     H37753   3.834   5.291   6.316 -0.8132  0.5890  0.8985
  280MOL0     H37754   3.663   5.430   6.163 -2.8197 -1.7023  0.1697
  280MOL0     H37755   3.669   5.253   6.187  0.0294 -0.0701 -0.8077
  280MOL0     H37756   3.772   5.225   5.977 -2.4680 -0.4533  1.2570
  280MOL0     H37757   3.778   5.404   5.949 -1.0766  3.1107  2.8208
  280MOL0     H37758   3.544   5.211   5.990 -2.5192 -1.6549 -3.4725
  280MOL0     H37759   3.610   5.266   5.828 -0.6167 -1.1896  0.8021
  280MOL0     H37760   3.401   5.595   5.783 -1.0073  0.0824 -1.8746
  280MOL0     H37761   3.047   5.639   5.671  0.3090  1.1690 -1.0544
  280MOL0     H37762   3.208   5.730   5.708  1.1288 -0.1566 -0.6837
  280MOL0     H37763   3.184   5.617   5.568 -0.6371 -2.4169  0.4627
  280MOL0     H37764   2.819   5.176   5.595  0.7715 -1.3904 -0.8638
  280MOL0     H37765   2.665   5.101   5.413  2.4465 -1.9560  0.1324
  280MOL0     H37766   2.715   4.995   5.136 -0.9452 -0.7972  3.7570
  280MOL0     H37767   2.561   5.033   5.205  2.1134 -1.8835  1.2108
  280MOL0     H37768   2.635   5.085   4.918 -0.5836  0.8022 -0.7455
  280MOL0     H37769   2.545   4.951   4.985 -0.9536  1.2988 -1.5313
  280MOL0     H37770   2.428   5.228   5.006  1.1603 -0.3241  1.9032
  280MOL0     H37771   2.366   5.083   5.073  1.2200 -1.1499  1.0108
  280MOL0     H37772   2.408   5.103   4.767 -0.9670 -1.5531 -0.3137
  280MOL0     H37773   2.356   4.958   4.846 -0.1340 -0.0851 -0.5237
  280MOL0     H37774   2.219   5.241   4.874  1.3191 -0.2387 -0.6235
  280MOL0     H37775   2.160   5.078   4.918  0.4559 -1.9592 -1.4567
  280MOL0     H37776   2.207   5.175   4.628 -3.1473 -0.0767 -2.0395
  280MOL0     H37777   2.180   5.014   4.672  0.8174 -0.0639 -1.3931
  280MOL0     H37778   2.012   5.254   4.769  0.0342 -0.6312  0.0733
  280MOL0     H37779   1.960   5.095   4.810  0.7722  0.3285  0.2408
  280MOL0     H37780   1.980   5.175   4.514 -0.9873 -2.1897 -1.7599
  280MOL0     H37781   1.841   5.169   4.611 -0.0453  0.5572  0.6854
  280MOL0     H37782   2.859   5.372   5.150 -1.4012  1.1241  0.1335
  280MOL0     H37783   2.989   5.458   5.329  0.7976 -2.1334 -1.6845
  280MOL0     H37784   3.146   5.180   5.829  1.5504 -0.2975 -0.7857
  280MOL0     H37785   3.337   5.204   5.958 -1.4894 -0.0181  0.5850
  280MOL0     H37786   5.015   5.884   6.790 -0.3855 -0.3506 -0.5597
  280MOL0     H37787   5.215   6.010   6.917 -4.1018  0.4319  1.1219
  280MOL0     H37788   5.743   6.130   6.740 -0.0189 -0.5214 -0.5439
  280MOL0     H37789   5.920   6.222   6.900 -0.3038 -1.0958  1.6680
  280MOL0     H37790   6.025   6.292   7.238  2.3416  1.7030 -1.2450
  280MOL0     H37791   5.991   6.198   7.100 -0.6453 -0.0301  0.7749
  280MOL0     H37792   6.094   6.372   6.964  1.3573  1.3732  0.2880
  280MOL0     H37793   6.202   6.296   7.080  1.2832  0.4312  0.0082
  280MOL0     H37794   6.156   6.515   7.229  1.7788  0.7343 -0.2718
  280MOL0     H37795   6.062   6.579   7.096 -2.1711 -0.8908  3.1964
  280MOL0     H37796   6.288   6.676   7.100 -1.2991  0.6669 -0.7065
  280MOL0     H37797   6.264   6.567   6.949 -4.4644  1.3127  0.4921
  280MOL0     H37798   6.558   6.383   7.211  0.1764 -0.0523  1.0931
  280MOL0     H37799   5.619   6.425   7.120  0.3744 -1.2881  1.1250
  280MOL0     H37800   5.444   6.334   6.980  0.1717 -2.6161  1.8004
  281MOL0     O37801   7.791   7.890   9.870 -0.0602  0.6232 -0.2151
  281MOL0     C37802   7.879   7.957   9.911  0.4695  0.7080  0.1961
  281MOL0     O37803   7.925   8.068   9.847 -0.5733 -0.4850  0.3369
  281MOL0     C37804   7.868   8.115   9.734 -0.3769 -0.0297 -0.6668
  281MOL0     C37805   7.859   8.028   9.625  1.3729 -0.0856  0.8640
  281MOL0     C37806   7.831   8.075   9.498 -0.6020  0.5104  0.3067
  281MOL0     C37807   7.788   8.210   9.483  0.4003 -0.7430  0.0942
  281MOL0     O37808   7.747   8.246   9.353 -1.1580 -0.2214 -0.3014
  281MOL0     C37809   7.822   8.361   9.307 -0.4054 -0.4792  0.0115
  281MOL0     C37810   7.876   8.345   9.162 -0.0423  1.0082 -0.8263
  281MOL0     C37811   7.994   8.250   9.131  0.3942 -0.5071  0.1483
  281MOL0     C37812   8.113   8.288   9.217  0.3148  0.7125 -0.2037
  281MOL0     C37813   8.191   8.418   9.193  0.6740  0.3474 -0.6301
  281MOL0     C37814   8.298   8.461   9.301 -0.0078 -0.7484 -0.6178
  281MOL0     C37815   8.399   8.353   9.327 -0.4268  0.8976 -0.1399
  281MOL0     C37816   8.467   8.296   9.204  0.2104  0.4678  0.4805
  281MOL0     N37817   8.577   8.390   9.164 -0.6436 -0.6997  0.2990
  281MOL0     C37818   8.548   8.503   9.091 -0.9085  0.6625  0.2483
  281MOL0     C37819   8.662   8.573   9.106  0.0358 -0.8344 -1.3199
  281MOL0     C37820   8.675   8.722   9.066  0.7261 -0.7623 -0.3488
  281MOL0     C37821   8.789   8.784   9.131  0.0048 -0.6403 -0.7771
  281MOL0     C37822   8.919   8.730   9.086 -0.2211  0.1860 -0.2144
  281MOL0     C37823   9.031   8.828   9.129  0.1453 -0.4739 -0.2292
  281MOL0     O37824   9.168   8.804   9.077  0.0396  0.6117  0.7061
  281MOL0     C37825   9.207   8.870   8.969 -0.8717  0.2073  0.2232
  281MOL0     C37826   9.129   8.915   8.869  0.1209 -0.1369 -0.1555
  281MOL0     C37827   9.186   8.979   8.755 -0.1765 -0.0273 -0.5744
  281MOL0     C37828   9.103   9.010   8.638  0.7336 -0.1801 -0.7756
  281MOL0     C37829   9.327   9.002   8.751 -0.2888 -0.2885 -0.9583
  281MOL0     C37830   9.395   9.084   8.649  0.6033 -0.8910  0.8178
  281MOL0     O37831   9.516   9.144   8.684  0.2375  0.5780 -1.2857
  281MOL0     C37832   9.603   9.199   8.600  0.1468 -0.2814  0.2258
  281MOL0     C37833   9.713   9.127   8.557  0.7517  1.5086  0.5213
  281MOL0     C37834   9.801   9.194   8.467 -0.6572 -0.0623 -0.4061
  281MOL0     C37835   9.787   9.332   8.434  0.6082 -0.0811 -0.0151
  281MOL0     O37836   9.872   9.392   8.351  0.6386  0.3364 -0.0921
  281MOL0     C37837  10.000   9.425   8.404  0.0358  0.4403  0.3744
  281MOL0     C37838  10.043   9.549   8.336 -0.9759  0.9019  0.5935
  281MOL0     C37839  10.155   9.624   8.404 -0.7783 -0.0306  0.0036
  281MOL0     C37840  10.199   9.749   8.334 -0.2062  0.0049  0.2818
  281MOL0     C37841  10.270   9.849   8.420  0.3476 -0.6160 -1.4543
  281MOL0     C37842  10.302   9.979   8.347  0.4896  1.0661 -0.6472
  281MOL0     C37843  10.177  10.068   8.321 -0.9113 -0.3136 -0.1881
  281MOL0     C37844  10.230  10.190   8.248  0.3280 -0.1612 -0.5769
  281MOL0    Cl37845  10.098  10.309   8.252 -0.2557 -0.0048 -0.4293
  281MOL0     C37846   9.679   9.399   8.473 -0.0014  0.2644 -0.1303
  281MOL0     C37847   9.585   9.330   8.556 -0.3323  0.1525  0.0682
  281MOL0     O37848   9.346   9.095   8.535 -0.1430 -0.2842  0.0114
  281MOL0     C37849   9.408   8.939   8.854  0.3468 -1.0368  0.6162
  281MOL0     C37850   9.349   8.869   8.960  0.0965 -0.0683  0.2977
  281MOL0     N37851   8.765   8.491   9.158 -0.2169 -0.3028  0.4255
  281MOL0     N37852   8.706   8.381   9.198  0.4725 -0.5688  0.3598
  281MOL0     C37853   7.778   8.291   9.596  0.2903 -0.1540  0.1715
  281MOL0     C37854   7.827   8.250   9.720  0.1082  0.8287 -0.2266
  281MOL0     C37855   7.955   7.906  10.025  0.7991 -1.1959 -0.3936
  281MOL0     C37856   7.887   7.837  10.127  0.2658 -0.5425 -0.7990
  281MOL0     C37857   7.952   7.792  10.242  0.5962 -0.0820 -0.1622
  281MOL0     C37858   8.092   7.806  10.241  0.4293  0.9386  0.3712
  281MOL0     O37859   8.173   7.756  10.337 -0.4002  0.5523 -0.2283
  281MOL0     C37860   8.139   7.632  10.409 -0.4178 -0.2116 -0.3700
  281MOL0     C37861   8.245   7.591  10.498  0.3586  0.1211  1.0471
  281MOL0     C37862   8.378   7.560  10.420 -0.3454 -0.3397  0.7470
  281MOL0     C37863   8.481   7.499  10.523  1.5029  0.0409  0.2926
  281MOL0     C37864   8.499   7.570  10.645  0.2060  0.0296 -0.6402
  281MOL0     C37865   8.521   7.647  10.737  0.0192 -0.2593  0.0744
  281MOL0     C37866   8.160   7.877  10.144  0.6853  0.5959 -0.5200
  281MOL0     C37867   8.091   7.926  10.030  0.2240 -0.4497  0.4599
  281MOL0     H37868   7.895   7.927   9.636  1.6561  0.1553  2.3294
  281MOL0     H37869   7.836   8.018   9.406  2.4702  4.0965 -2.0551
  281MOL0     H37870   7.754   8.447   9.304 -0.9113 -0.8922 -0.6547
  281MOL0     H37871   7.904   8.392   9.372 -0.1748 -1.5980  0.2677
  281MOL0     H37872   7.795   8.309   9.097 -0.9569  0.9890  0.2857
  281MOL0     H37873   7.900   8.447   9.132 -0.5525  2.1167  2.1745
  281MOL0     H37874   7.955   8.150   9.151 -0.8823  0.2768  1.8186
  281MOL0     H37875   8.027   8.262   9.027  0.0665  5.5374  0.3755
  281MOL0     H37876   8.090   8.292   9.324  1.1226 -1.3738  0.1083
  281MOL0     H37877   8.179   8.202   9.204  3.4352  2.8843 -0.0190
  281MOL0     H37878   8.234   8.416   9.092  2.3144  2.5749 -0.0600
  281MOL0     H37879   8.115   8.495   9.175  0.2709 -0.8062 -5.2706
  281MOL0     H37880   8.353   8.551   9.271  2.0722 -2.1550 -1.1874
  281MOL0     H37881   8.252   8.490   9.396  0.5818 -1.3869 -0.1274
  281MOL0     H37882   8.469   8.388   9.403  0.6378 -2.4672  0.5694
  281MOL0     H37883   8.342   8.273   9.376 -0.2938  1.6063  1.2206
  281MOL0     H37884   8.397   8.277   9.122 -0.3828 -0.9625  1.2643
  281MOL0     H37885   8.513   8.197   9.213  1.3861  0.5830 -2.9543
  281MOL0     H37886   8.456   8.520   9.036 -0.1113  0.7510 -1.0805
  281MOL0     H37887   8.681   8.743   8.959 -2.4615  1.9525 -0.1608
  281MOL0     H37888   8.587   8.770   9.110  1.1353  0.5485 -0.9331
  281MOL0     H37889   8.791   8.773   9.240  1.5728  0.3529 -0.6806
  281MOL0     H37890   8.782   8.892   9.115 -1.5367 -0.2493  1.9187
  281MOL0     H37891   8.929   8.725   8.977  0.3730 -1.1034 -0.1070
  281MOL0     H37892   8.946   8.629   9.116  0.8607  0.6861  0.5651
  281MOL0     H37893   9.042   8.824   9.237 -0.1841  2.3509 -0.0281
  281MOL0     H37894   9.000   8.927   9.097  0.8225 -1.0074 -2.7802
  281MOL0     H37895   9.022   8.924   8.885  0.0484  0.4742 -0.9438
  281MOL0     H37896   8.996   8.996   8.656  0.2597  0.5458 -2.7763
  281MOL0     H37897   9.106   9.117   8.613 -0.9710 -0.0061 -0.3863
  281MOL0     H37898   9.130   8.955   8.548  0.4523 -0.0415 -0.9448
  281MOL0     H37899   9.731   9.024   8.585  1.6613  1.8540  1.2713
  281MOL0     H37900   9.889   9.141   8.434  0.0151 -1.8114  3.6105
  281MOL0     H37901   9.998   9.438   8.512  2.0626 -1.9450  0.7932
  281MOL0     H37902  10.067   9.342   8.380 -2.7055 -1.2033 -2.4171
  281MOL0     H37903  10.082   9.521   8.237 -0.6818  2.5684  0.2105
  281MOL0     H37904   9.957   9.616   8.326  0.9685  3.4766 -0.0746
  281MOL0     H37905  10.242   9.558   8.401 -2.2807 -2.1274  0.1370
  281MOL0     H37906  10.139   9.647   8.510 -0.1686  2.7525 -0.4494
  281MOL0     H37907  10.273   9.722   8.258 -0.9939  2.0932 -1.3310
  281MOL0     H37908  10.117   9.795   8.278  1.8668  2.5111 -0.9200
  281MOL0     H37909  10.366   9.801   8.443 -1.2765 -3.2306  0.5492
  281MOL0     H37910  10.208   9.856   8.510 -3.0894 -1.4197 -3.5661
  281MOL0     H37911  10.357  10.038   8.421 -0.3572  1.2280 -0.1272
  281MOL0     H37912  10.358   9.966   8.254  1.4064  0.0892  0.0303
  281MOL0     H37913  10.133  10.100   8.416 -0.3938  2.1224 -0.6945
  281MOL0     H37914  10.113  10.019   8.247  0.4648 -1.9334 -0.3774
  281MOL0     H37915  10.267  10.172   8.147  3.5727  0.2084  0.4329
  281MOL0     H37916  10.313  10.244   8.294  1.1093 -0.9831 -0.9847
  281MOL0     H37917   9.660   9.494   8.425  1.0408  0.1720 -0.7673
  281MOL0     H37918   9.500   9.384   8.595 -1.8582 -1.5218 -0.7998
  281MOL0     H37919   9.516   8.937   8.850  0.3500 -0.0563  0.0314
  281MOL0     H37920   9.411   8.825   9.037  0.8355 -2.2972 -1.4481
  281MOL0     H37921   7.756   8.396   9.580  1.8064 -0.2079 -2.7730
  281MOL0     H37922   7.829   8.304   9.814 -3.3919 -1.6863  1.5325
  281MOL0     H37923   7.782   7.814  10.114 -0.4145  2.1832 -0.7766
  281MOL0     H37924   7.900   7.754  10.329 -1.2766  1.7866 -0.3938
  281MOL0     H37925   8.051   7.646  10.473  2.0061  0.9766  2.9558
  281MOL0     H37926   8.110   7.557  10.335  3.9461 -2.0146 -0.5370
  281MOL0     H37927   8.213   7.502  10.552 -1.7198 -0.0160 -0.3198
  281MOL0     H37928   8.265   7.675  10.566  2.5852  0.6492 -0.1488
  281MOL0     H37929   8.433   7.638  10.367  1.4658 -0.6659  2.0715
  281MOL0     H37930   8.355   7.482  10.346 -1.6828 -0.2158  1.0035
  281MOL0     H37931   8.573   7.494  10.464  0.8978 -0.3872 -0.6282
  281MOL0     H37932   8.441   7.398  10.533  0.7881  0.2193 -0.5934
  281MOL0     H37933   8.541   7.716  10.816 -4.1056  1.6239 -0.2814
  281MOL0     H37934   8.268   7.883  10.155  0.4226  0.4495  3.2024
  281MOL0     H37935   8.142   7.971   9.945 -3.8458 -1.8889 -3.1141
  282MOL0     O37936  11.082   4.103   0.243  0.4075  0.2228 -0.2312
  282MOL0     C37937  11.159   4.112   0.339  0.2356 -0.1512 -0.5473
  282MOL0     O37938  11.124   4.090   0.467 -0.5720  0.4848 -0.2257
  282MOL0     C37939  10.991   4.107   0.513 -0.8660  0.0820  0.6582
  282MOL0     C37940  10.886   4.185   0.448 -0.0977 -0.2859  0.6754
  282MOL0     C37941  10.760   4.196   0.506 -0.5085 -1.0285 -0.4037
  282MOL0     C37942  10.739   4.140   0.635  0.1108 -0.0991  0.2166
  282MOL0     O37943  10.611   4.166   0.682 -0.2075  0.2340  0.3105
  282MOL0     C37944  10.563   4.078   0.786  0.7198 -0.9722  0.6334
  282MOL0     C37945  10.420   4.126   0.820 -0.1253 -0.2197  0.3905
  282MOL0     C37946  10.337   4.033   0.905 -0.1709  0.2391  0.3791
  282MOL0     C37947  10.245   3.945   0.810  0.4706 -0.2739  0.7107
  282MOL0     C37948  10.150   3.856   0.897  0.0464 -0.4185  0.2949
  282MOL0     C37949  10.048   3.942   0.968  0.0051  0.1236  0.6902
  282MOL0     C37950   9.922   3.852   1.006 -0.3109  0.4800 -0.1140
  282MOL0     C37951   9.843   3.928   1.104  0.8921 -0.1651 -0.5919
  282MOL0     N37952   9.757   4.034   1.059 -0.0267 -0.9150  0.1955
  282MOL0     C37953   9.629   4.017   1.013  0.9044 -0.6626 -0.7781
  282MOL0     C37954   9.581   4.138   1.009 -0.3427 -0.6549  0.0350
  282MOL0     C37955   9.445   4.157   0.954 -0.8356  0.8935  0.0652
  282MOL0     C37956   9.438   4.283   0.874  0.1817 -0.3405 -0.1832
  282MOL0     C37957   9.405   4.415   0.948 -0.3502 -0.1591 -0.3637
  282MOL0     C37958   9.251   4.419   0.947  0.2153  0.2624 -0.4386
  282MOL0     O37959   9.207   4.481   1.073  0.7432 -0.2298  0.2646
  282MOL0     C37960   9.229   4.616   1.094  0.0729  0.2564  0.3054
  282MOL0     C37961   9.237   4.714   0.995  0.1125 -0.5030 -0.4373
  282MOL0     C37962   9.271   4.850   1.030  0.2229 -0.0837 -0.7578
  282MOL0     C37963   9.282   4.962   0.931  0.6021  0.5644  0.4853
  282MOL0     C37964   9.291   4.880   1.170  0.2492 -0.4964  0.2519
  282MOL0     C37965   9.301   5.015   1.214  0.4877  0.4699 -0.1660
  282MOL0     O37966   9.413   5.039   1.293 -0.1583 -0.5115 -0.0734
  282MOL0     C37967   9.437   5.160   1.358  0.1672  0.2494  0.0732
  282MOL0     C37968   9.570   5.178   1.391  0.1816 -0.3888 -0.4815
  282MOL0     C37969   9.606   5.291   1.476 -0.0948  0.1231 -0.2049
  282MOL0     C37970   9.508   5.399   1.495  0.0343  0.5084 -0.0679
  282MOL0     O37971   9.539   5.527   1.540 -0.1777  0.6522 -0.2175
  282MOL0     C37972   9.680   5.575   1.547 -0.2443 -0.6484 -0.6656
  282MOL0     C37973   9.723   5.583   1.694 -0.3529  0.2017  0.1440
  282MOL0     C37974   9.757   5.446   1.752 -1.3100  0.1401  0.8410
  282MOL0     C37975   9.794   5.462   1.901 -0.0689  0.2665  1.0116
  282MOL0     C37976   9.857   5.335   1.946 -0.1119  0.0903 -0.1611
  282MOL0     C37977   9.898   5.353   2.103  0.1779  0.1491 -0.9835
  282MOL0     C37978   9.956   5.213   2.148 -0.0919 -0.2547 -0.1375
  282MOL0     C37979  10.002   5.226   2.297  0.7297  0.1481  0.0266
  282MOL0    Cl37980   9.870   5.278   2.413  0.1239  0.4151 -0.0422
  282MOL0     C37981   9.367   5.365   1.467 -0.3071 -0.3302 -0.9349
  282MOL0     C37982   9.336   5.251   1.399 -0.0270 -0.8063 -0.1902
  282MOL0     O37983   9.242   5.108   1.159 -0.5219  0.5616  0.2479
  282MOL0     C37984   9.292   4.785   1.272 -0.2386  0.2310  0.4802
  282MOL0     C37985   9.264   4.652   1.228 -0.4668 -1.3804  0.0879
  282MOL0     N37986   9.680   4.234   1.045  1.1269  0.1529  0.2576
  282MOL0     N37987   9.773   4.167   1.095  0.8548 -0.9479 -0.1594
  282MOL0     C37988  10.830   4.056   0.700  0.2061 -0.3678 -0.2800
  282MOL0     C37989  10.960   4.051   0.638  0.0815 -0.7588 -0.8626
  282MOL0     C37990  11.303   4.132   0.298 -0.0384  0.6481  0.1779
  282MOL0     C37991  11.353   4.103   0.170  0.0890  0.7109  0.0238
  282MOL0     C37992  11.476   4.128   0.134  0.2216  0.4926 -0.4762
  282MOL0     C37993  11.561   4.185   0.226  0.3575 -0.5336  0.3648
  282MOL0     O37994  11.690   4.213   0.195  0.1556 -0.0582 -0.1466
  282MOL0     C37995  11.774   4.099   0.226  0.4855 -0.4867  0.1036
  282MOL0     C37996  11.879   4.075   0.112 -0.9401 -0.8806  0.2653
  282MOL0     C37997  11.976   4.190   0.113 -0.9425  0.0029 -0.2024
  282MOL0     C37998  12.057   4.216   0.245  0.5945  0.5825  0.0116
  282MOL0     C37999  12.132   4.089   0.280  0.3688  0.1697 -0.0719
  282MOL0     C38000  12.195   3.987   0.297 -0.0783 -0.6348  0.6224
  282MOL0     C38001  11.515   4.229   0.352  0.1901  0.0794  1.3267
  282MOL0     C38002  11.380   4.203   0.383 -0.3562 -0.9064 -0.5336
  282MOL0     H38003  10.896   4.224   0.347 -3.0042 -0.1480  0.3382
  282MOL0     H38004  10.679   4.254   0.462  0.5535 -1.2211 -2.7081
  282MOL0     H38005  10.545   3.974   0.758  0.1291 -1.5309  2.9434
  282MOL0     H38006  10.624   4.079   0.876 -2.2409 -1.2429  2.7700
  282MOL0     H38007  10.435   4.215   0.882  4.6052 -1.1310  0.9677
  282MOL0     H38008  10.362   4.144   0.729  1.1028  3.0847  0.1364
  282MOL0     H38009  10.391   3.963   0.969 -0.9455 -1.1263 -0.4148
  282MOL0     H38010  10.269   4.105   0.952 -1.3371  0.4058 -1.4577
  282MOL0     H38011  10.177   4.002   0.746  3.0926 -1.1433 -3.2018
  282MOL0     H38012  10.299   3.882   0.739  0.2379 -0.9138  1.0917
  282MOL0     H38013  10.102   3.788   0.825  3.4705 -0.6840 -2.0065
  282MOL0     H38014  10.207   3.802   0.973  0.0972  2.8824  2.7770
  282MOL0     H38015  10.104   3.967   1.058  1.6605  0.6865 -0.4665
  282MOL0     H38016  10.024   4.035   0.915  3.0068 -0.3074 -1.6887
  282MOL0     H38017   9.870   3.814   0.917  0.1029 -1.3475  0.3810
  282MOL0     H38018   9.956   3.757   1.050 -1.5441 -0.7102 -1.6044
  282MOL0     H38019   9.920   3.978   1.163  1.8454 -1.3671 -0.7802
  282MOL0     H38020   9.784   3.866   1.171  1.1883 -0.8480 -0.9541
  282MOL0     H38021   9.580   3.924   0.983  2.9051 -1.0489 -3.1509
  282MOL0     H38022   9.430   4.074   0.885 -0.7935 -1.5919  2.8544
  282MOL0     H38023   9.376   4.151   1.039 -0.5830  2.0016  0.3700
  282MOL0     H38024   9.366   4.260   0.794  0.9471 -2.8926 -0.2213
  282MOL0     H38025   9.537   4.298   0.828 -0.8045  1.9660 -1.7299
  282MOL0     H38026   9.452   4.500   0.899  0.5763  0.5983  1.7425
  282MOL0     H38027   9.443   4.412   1.050  1.5990 -0.0122 -1.0389
  282MOL0     H38028   9.217   4.315   0.947  0.2444  0.2109 -2.3266
  282MOL0     H38029   9.210   4.461   0.855 -2.2276  1.4620  1.1018
  282MOL0     H38030   9.215   4.693   0.891  1.4328 -1.5951 -0.5375
  282MOL0     H38031   9.186   5.012   0.918  0.5881  0.5917  0.6823
  282MOL0     H38032   9.356   5.041   0.946  2.2972 -1.0953  1.2280
  282MOL0     H38033   9.320   4.913   0.841  1.0015  0.8844  0.4789
  282MOL0     H38034   9.645   5.104   1.366  1.4111  1.1917 -1.7128
  282MOL0     H38035   9.709   5.309   1.507  0.0890  0.1404 -0.8116
  282MOL0     H38036   9.752   5.522   1.485  0.3838  0.7864 -1.1992
  282MOL0     H38037   9.679   5.674   1.501 -2.0508 -0.9604 -1.3966
  282MOL0     H38038   9.805   5.654   1.710 -0.5329  0.4770 -0.1291
  282MOL0     H38039   9.633   5.616   1.747  0.3066  1.5801  0.4697
  282MOL0     H38040   9.839   5.399   1.698 -1.1111  1.9351 -0.5063
  282MOL0     H38041   9.670   5.379   1.749 -0.6620 -0.7060  0.7237
  282MOL0     H38042   9.859   5.549   1.915  0.1810  0.0239  1.3692
  282MOL0     H38043   9.700   5.488   1.952 -0.5116  0.0117  0.3335
  282MOL0     H38044   9.944   5.330   1.879 -0.7150 -0.0969 -0.9369
  282MOL0     H38045   9.798   5.243   1.945 -0.9351  0.4908  2.6133
  282MOL0     H38046   9.959   5.443   2.119  1.4981 -1.1606  2.2300
  282MOL0     H38047   9.803   5.367   2.156 -0.5178 -1.4539 -1.7558
  282MOL0     H38048  10.042   5.196   2.082  1.1547  2.5390  0.6309
  282MOL0     H38049   9.878   5.136   2.147 -0.4655 -0.1432 -5.1238
  282MOL0     H38050  10.082   5.301   2.300  1.0686 -0.2217  0.4385
  282MOL0     H38051  10.042   5.132   2.336  0.3607  0.6629  1.7391
  282MOL0     H38052   9.286   5.437   1.471 -1.7858 -1.9625  1.5951
  282MOL0     H38053   9.233   5.229   1.372 -0.6412  0.2577  1.1716
  282MOL0     H38054   9.311   4.808   1.376 -1.6988  1.2033  0.5604
  282MOL0     H38055   9.269   4.571   1.300  1.3326 -2.6938 -1.4001
  282MOL0     H38056  10.793   4.006   0.788  0.1067 -1.3937 -0.8897
  282MOL0     H38057  11.045   4.009   0.693 -0.2021  1.9425  1.9385
  282MOL0     H38058  11.283   4.059   0.100  0.0792 -1.8492  1.5361
  282MOL0     H38059  11.513   4.095   0.038 -2.0529 -0.4044 -1.1060
  282MOL0     H38060  11.832   4.118   0.317 -0.0363  1.0636  0.1428
  282MOL0     H38061  11.717   4.006   0.225  1.7361 -1.3014 -1.8869
  282MOL0     H38062  11.817   4.071   0.022 -0.3502 -1.3802 -0.1283
  282MOL0     H38063  11.923   3.976   0.126 -2.6488 -1.7057  0.0536
  282MOL0     H38064  11.923   4.283   0.086 -2.2974 -0.7253 -0.1230
  282MOL0     H38065  12.057   4.171   0.042  1.3257 -1.8766  2.6637
  282MOL0     H38066  11.991   4.250   0.325  2.3725  1.0471  1.3533
  282MOL0     H38067  12.130   4.296   0.232  1.3111  0.1863  1.3764
  282MOL0     H38068  12.245   3.892   0.301 -2.3104 -1.9162  0.1901
  282MOL0     H38069  11.574   4.284   0.425  1.3278 -0.8040  1.0993
  282MOL0     H38070  11.345   4.238   0.480 -1.5690 -0.9141 -0.9496
  283MOL0     O38071  11.331   2.385   5.880 -0.3932  0.7779 -0.5394
  283MOL0     C38072  11.316   2.261   5.873 -0.7758  0.1442  0.1691
  283MOL0     O38073  11.204   2.197   5.831  0.0400 -0.4595 -0.0982
  283MOL0     C38074  11.109   2.274   5.767  0.0201 -0.3555  0.0619
  283MOL0     C38075  10.985   2.255   5.819  0.4935  0.4324  0.0985
  283MOL0     C38076  10.874   2.326   5.785 -0.1698  0.1254  0.5407
  283MOL0     C38077  10.891   2.432   5.694 -0.4811 -0.4103  0.2100
  283MOL0     O38078  10.774   2.502   5.671 -0.4141  0.1574  0.3919
  283MOL0     C38079  10.784   2.647   5.658 -0.6524  0.4080 -0.0120
  283MOL0     C38080  10.844   2.730   5.772  0.4837  0.6650 -0.0460
  283MOL0     C38081  10.842   2.877   5.735  0.1293 -0.0238 -0.3332
  283MOL0     C38082  10.717   2.956   5.741 -0.2697 -0.4708 -0.5351
  283MOL0     C38083  10.754   3.102   5.686 -0.1461 -0.4127 -0.2531
  283MOL0     C38084  10.765   3.106   5.531  0.0458  0.6016  0.1168
  283MOL0     C38085  10.735   3.243   5.472 -0.0690 -0.2325  0.9145
  283MOL0     C38086  10.733   3.249   5.309  0.0357  0.4955  0.1140
  283MOL0     N38087  10.857   3.240   5.236 -1.0198  0.0430 -1.0566
  283MOL0     C38088  10.886   3.152   5.139 -0.4750  0.4641 -0.1604
  283MOL0     C38089  11.003   3.186   5.087 -0.4724 -1.1158  0.9618
  283MOL0     C38090  11.052   3.122   4.961  0.1986  0.7693  0.0961
  283MOL0     C38091  10.951   3.136   4.837  0.0561  0.5359 -0.3621
  283MOL0     C38092  10.957   3.015   4.737 -0.3474  0.0147 -0.8803
  283MOL0     C38093  11.082   3.002   4.656  0.8693  0.0539 -0.2864
  283MOL0     O38094  11.175   2.920   4.727  0.1363  0.0688  0.4407
  283MOL0     C38095  11.301   2.945   4.696 -0.9597 -0.1877  0.5098
  283MOL0     C38096  11.384   3.003   4.794 -1.0384  0.3102  0.0045
  283MOL0     C38097  11.516   3.054   4.764  0.2942  0.1799 -0.0619
  283MOL0     C38098  11.584   3.139   4.870  0.1341 -0.4532 -0.1558
  283MOL0     C38099  11.570   3.034   4.635  0.5666 -0.5453  1.0019
  283MOL0     C38100  11.699   3.092   4.588 -0.1927  0.9214 -0.2650
  283MOL0     O38101  11.794   3.096   4.681 -0.2317  0.3508 -0.0030
  283MOL0     C38102  11.886   3.197   4.679  0.5234  0.2497  0.5423
  283MOL0     C38103  11.871   3.324   4.745  0.2817 -0.0865  0.2151
  283MOL0     C38104  11.963   3.428   4.734  0.7004  0.5968  0.7396
  283MOL0     C38105  12.075   3.413   4.649  0.2122 -0.4954 -0.3689
  283MOL0     O38106  12.162   3.516   4.623 -0.9460  0.0964 -0.2371
  283MOL0     C38107  12.108   3.650   4.613 -0.1326 -0.2688 -0.3877
  283MOL0     C38108  12.203   3.730   4.513 -0.0053  0.4946  0.2792
  283MOL0     C38109  12.185   3.681   4.363  0.2348 -0.2654  0.1467
  283MOL0     C38110  12.296   3.741   4.269  0.5761 -0.0461 -0.4617
  283MOL0     C38111  12.238   3.744   4.133  0.2231 -0.5789  1.2476
  283MOL0     C38112  12.337   3.811   4.042 -0.1527 -0.5128 -0.7132
  283MOL0     C38113  12.327   3.809   3.890  0.3583 -0.3722  0.5077
  283MOL0     C38114  12.334   3.663   3.833 -0.4941  0.2876  1.2550
  283MOL0    Cl38115  12.396   3.701   3.668  0.0462  0.3446  0.2790
  283MOL0     C38116  12.092   3.288   4.589 -0.0288 -0.8372 -0.4899
  283MOL0     C38117  12.006   3.186   4.611  0.2092  0.5639 -0.8550
  283MOL0     O38118  11.709   3.127   4.472  0.1756 -0.2498 -0.2775
  283MOL0     C38119  11.483   2.972   4.534 -0.2229 -0.3886  0.6103
  283MOL0     C38120  11.356   2.928   4.569  0.0427  0.2972 -0.1484
  283MOL0     N38121  11.058   3.285   5.168  0.4442  0.6175 -0.1505
  283MOL0     N38122  10.965   3.316   5.256  0.4625 -0.6943  0.3503
  283MOL0     C38123  11.012   2.460   5.635  0.1127 -0.5971  0.6248
  283MOL0     C38124  11.120   2.380   5.674 -1.2730  0.7835 -0.0095
  283MOL0     C38125  11.434   2.182   5.910  0.3481 -0.5686 -1.3353
  283MOL0     C38126  11.533   2.230   6.001  0.7488  0.4071 -0.1337
  283MOL0     C38127  11.628   2.143   6.064  0.4267  0.5068 -0.1605
  283MOL0     C38128  11.636   2.012   6.032  0.5907 -0.0315  0.2474
  283MOL0     O38129  11.730   1.911   6.057 -0.6480 -1.2819 -0.0292
  283MOL0     C38130  11.817   1.931   6.170 -0.0566  0.1714 -0.8268
  283MOL0     C38131  11.944   1.845   6.143  0.3693 -0.5583 -0.1059
  283MOL0     C38132  11.901   1.694   6.141  0.2753 -0.0730  0.5506
  283MOL0     C38133  12.001   1.585   6.110 -0.1161  0.6632 -0.0523
  283MOL0     C38134  12.003   1.561   5.963 -0.3181  0.2697  0.3147
  283MOL0     C38135  12.009   1.530   5.840 -0.0495 -0.9847  0.3632
  283MOL0     C38136  11.544   1.969   5.936 -0.6167 -0.1317 -0.0494
  283MOL0     C38137  11.451   2.050   5.874  0.2184 -0.5118  0.2225
  283MOL0     H38138  10.977   2.186   5.903 -1.5616  1.3488  0.7150
  283MOL0     H38139  10.773   2.312   5.823 -1.0712  3.8716 -0.0003
  283MOL0     H38140  10.841   2.666   5.566 -2.7616  1.6500 -1.1571
  283MOL0     H38141  10.683   2.683   5.640 -1.5307 -0.6165  2.4321
  283MOL0     H38142  10.790   2.724   5.867 -1.5186 -2.7060 -1.2411
  283MOL0     H38143  10.950   2.705   5.782  0.2088  0.0201  1.5554
  283MOL0     H38144  10.906   2.923   5.810  0.4632  0.5647 -0.9725
  283MOL0     H38145  10.893   2.889   5.639  6.0145 -3.5676  1.8081
  283MOL0     H38146  10.630   2.910   5.693  1.4695 -0.8047 -3.5964
  283MOL0     H38147  10.690   2.971   5.846  3.6549  0.9555  0.4383
  283MOL0     H38148  10.682   3.177   5.722  1.8982 -0.4032  4.4789
  283MOL0     H38149  10.845   3.142   5.731 -0.1718  0.9688 -1.3547
  283MOL0     H38150  10.867   3.073   5.510  0.0582 -0.2856  1.4273
  283MOL0     H38151  10.692   3.029   5.503  1.1396 -0.9421  1.3275
  283MOL0     H38152  10.639   3.276   5.513 -0.8684 -1.0857 -0.2071
  283MOL0     H38153  10.808   3.320   5.498  1.9227 -1.2054 -1.4438
  283MOL0     H38154  10.677   3.335   5.271 -2.4914 -0.5636  1.2392
  283MOL0     H38155  10.675   3.162   5.278 -0.9613  1.5063 -0.9922
  283MOL0     H38156  10.821   3.077   5.094 -0.5691  1.0351 -0.9896
  283MOL0     H38157  11.144   3.175   4.937 -0.1300  0.8247 -1.0725
  283MOL0     H38158  11.079   3.018   4.982 -0.4085  0.3847 -0.9465
  283MOL0     H38159  10.974   3.229   4.786  0.3441 -0.2103 -1.6272
  283MOL0     H38160  10.846   3.141   4.869  0.0162 -2.2430  0.2336
  283MOL0     H38161  10.866   3.014   4.676 -2.3137 -1.9665  1.8184
  283MOL0     H38162  10.945   2.922   4.795  0.5780  0.0748 -0.5866
  283MOL0     H38163  11.120   3.100   4.627 -0.6159  0.5918 -0.4569
  283MOL0     H38164  11.050   2.946   4.567 -0.0328 -1.0634  0.7112
  283MOL0     H38165  11.342   3.045   4.886  1.0353  2.2707  0.1530
  283MOL0     H38166  11.677   3.105   4.917 -0.6290 -0.7985  1.1561
  283MOL0     H38167  11.619   3.231   4.822  2.7073  0.5377  3.2353
  283MOL0     H38168  11.520   3.161   4.956  1.3596 -1.2184  0.9982
  283MOL0     H38169  11.790   3.357   4.809  0.6149 -0.9848  1.1289
  283MOL0     H38170  11.937   3.527   4.771 -0.6935  1.2287 -1.6856
  283MOL0     H38171  12.002   3.652   4.587 -0.0867  1.0812 -0.5259
  283MOL0     H38172  12.126   3.699   4.709  0.2627  2.6811 -1.8572
  283MOL0     H38173  12.176   3.836   4.520 -0.2530  0.3383  2.2720
  283MOL0     H38174  12.306   3.715   4.547  0.3265  0.7060 -0.6128
  283MOL0     H38175  12.087   3.703   4.322  0.7445 -0.0153 -0.9742
  283MOL0     H38176  12.207   3.574   4.356 -0.0781 -0.2720 -0.9152
  283MOL0     H38177  12.318   3.837   4.317  1.3935  0.4722 -1.8354
  283MOL0     H38178  12.391   3.687   4.269 -0.3481 -1.7503 -0.7932
  283MOL0     H38179  12.144   3.799   4.131  1.0445  0.8782  1.1423
  283MOL0     H38180  12.230   3.641   4.097  1.0463 -0.3443  0.3529
  283MOL0     H38181  12.335   3.916   4.073 -1.3084 -0.3350 -1.3197
  283MOL0     H38182  12.432   3.774   4.079 -0.4470  1.7381  2.7751
  283MOL0     H38183  12.417   3.862   3.857  0.3366 -0.6499 -0.0093
  283MOL0     H38184  12.238   3.864   3.859  0.6629  1.2332  2.3419
  283MOL0     H38185  12.238   3.612   3.835 -0.7925  0.5806 -1.4392
  283MOL0     H38186  12.401   3.607   3.899 -1.7278 -2.3133  0.4565
  283MOL0     H38187  12.185   3.271   4.535  2.6091  2.7295  2.4361
  283MOL0     H38188  12.033   3.083   4.590 -0.2600  0.1979  0.2516
  283MOL0     H38189  11.508   2.948   4.431 -2.2958  0.6632 -0.2081
  283MOL0     H38190  11.291   2.876   4.499  0.9696 -0.1924 -0.6638
  283MOL0     H38191  11.043   2.540   5.568 -0.8843  0.0609  0.9426
  283MOL0     H38192  11.222   2.389   5.637 -2.3104  1.1124 -3.0768
  283MOL0     H38193  11.521   2.331   6.040  2.1221  0.0417  1.3357
  283MOL0     H38194  11.702   2.184   6.132 -0.2200  1.8832 -0.2494
  283MOL0     H38195  11.842   2.037   6.178 -1.6673  0.5369 -0.2216
  283MOL0     H38196  11.788   1.900   6.271  2.7899 -0.9890 -0.2811
  283MOL0     H38197  12.017   1.857   6.224  1.8036 -2.9594 -0.9095
  283MOL0     H38198  11.988   1.880   6.049 -0.1902 -1.4392 -0.7095
  283MOL0     H38199  11.815   1.679   6.076 -2.1353  0.9974  3.2363
  283MOL0     H38200  11.864   1.673   6.242 -1.7210  2.3288  0.4216
  283MOL0     H38201  11.960   1.495   6.157 -1.3009  1.2949  0.1708
  283MOL0     H38202  12.103   1.610   6.141  1.1109 -0.0552 -3.0704
  283MOL0     H38203  11.996   1.520   5.734 -0.2999  0.1159  0.2762
  283MOL0     H38204  11.547   1.868   5.896 -0.8768 -1.0495  2.1277
  283MOL0     H38205  11.387   2.011   5.796  0.8962  0.5355 -0.8913
  284MOL0     O38206   8.592   7.205  10.414  0.6498  0.2054  0.3619
  284MOL0     C38207   8.549   7.187  10.303 -0.4462 -0.1502 -0.5096
  284MOL0     O38208   8.626   7.157  10.204 -0.5383  0.7110  0.3908
  284MOL0     C38209   8.746   7.225  10.190 -0.1436  0.6780  0.3104
  284MOL0     C38210   8.828   7.160  10.096 -0.4307 -1.0471 -0.8570
  284MOL0     C38211   8.950   7.218  10.052 -0.4076  0.6935  0.0366
  284MOL0     C38212   8.993   7.340  10.102  0.1840 -0.1918 -0.0837
  284MOL0     O38213   9.097   7.411  10.053 -0.3829  0.4683  0.1857
  284MOL0     C38214   9.202   7.452  10.147  0.1237  0.0926 -0.3044
  284MOL0     C38215   9.277   7.326  10.214  0.2525 -0.1380 -0.2814
  284MOL0     C38216   9.400   7.365  10.303  0.1650 -0.0731 -0.8888
  284MOL0     C38217   9.464   7.231  10.348  0.6855 -0.5877 -0.1645
  284MOL0     C38218   9.585   7.241  10.446 -0.8844 -0.0741  0.0060
  284MOL0     C38219   9.713   7.313  10.389 -0.5806 -0.1098  0.4736
  284MOL0     C38220   9.829   7.329  10.483  0.2980  0.8728 -0.0286
  284MOL0     C38221   9.880   7.207  10.553  0.0709  0.5579 -0.0319
  284MOL0     N38222   9.985   7.241  10.644 -0.6326  0.0695 -0.1417
  284MOL0     C38223   9.978   7.272  10.772  0.0665  0.1574  0.0287
  284MOL0     C38224  10.106   7.287  10.813  0.5811 -0.3767 -0.0930
  284MOL0     C38225  10.155   7.325  10.954  0.1434  0.3283 -0.3205
  284MOL0     C38226  10.303   7.383  10.963 -0.2254 -0.1320 -1.1111
  284MOL0     C38227  10.336   7.525  10.911  1.2609 -0.2593  0.3073
  284MOL0     C38228  10.464   7.578  10.970 -0.6917  0.4147 -1.2782
  284MOL0     O38229  10.442   7.600  11.112  0.6706  0.7972  0.4639
  284MOL0     C38230  10.556   7.611  11.180 -0.0903  0.2134  0.8549
  284MOL0     C38231  10.613   7.742  11.179  0.2676  0.6310 -0.7809
  284MOL0     C38232  10.744   7.769  11.222  0.0012  0.7530 -0.7054
  284MOL0     C38233  10.785   7.907  11.195 -0.9137 -0.6944 -0.4716
  284MOL0     C38234  10.815   7.673  11.302 -0.2790  0.3268  0.0269
  284MOL0     C38235  10.947   7.699  11.360  0.0326  0.5738  0.2106
  284MOL0     O38236  11.011   7.808  11.315  0.0282 -0.1684  0.5010
  284MOL0     C38237  11.148   7.810  11.330 -0.3504 -0.1336  0.3726
  284MOL0     C38238  11.201   7.828  11.453  0.3093  0.2123  1.1957
  284MOL0     C38239  11.334   7.843  11.463 -0.0910  0.7890  0.2952
  284MOL0     C38240  11.421   7.839  11.350 -0.1070 -0.0898  0.8729
  284MOL0     O38241  11.561   7.852  11.371  0.1919  0.0837 -0.0634
  284MOL0     C38242  11.641   7.754  11.297 -0.4530  0.6716  0.3997
  284MOL0     C38243  11.784   7.742  11.349 -0.2432  0.1765  0.4083
  284MOL0     C38244  11.785   7.678  11.490  0.3211  0.8057 -1.0624
  284MOL0     C38245  11.884   7.561  11.492  0.1963  0.4925  0.3469
  284MOL0     C38246  11.926   7.508  11.630  0.4990 -0.2603  0.5979
  284MOL0     C38247  12.029   7.598  11.695  0.8514 -0.6209 -1.1470
  284MOL0     C38248  12.079   7.540  11.827 -0.5784 -0.3404 -0.9589
  284MOL0     C38249  12.209   7.607  11.874 -0.6014 -0.1226  0.0983
  284MOL0    Cl38250  12.334   7.548  11.769  0.7091 -0.1533  0.3511
  284MOL0     C38251  11.361   7.842  11.225 -0.5346 -0.1892 -0.3569
  284MOL0     C38252  11.223   7.814  11.214 -0.0157 -0.0412 -0.6257
  284MOL0     O38253  10.992   7.611  11.435  0.1972 -0.4041  0.6365
  284MOL0     C38254  10.741   7.542  11.318 -0.3260 -0.6189  0.3434
  284MOL0     C38255  10.616   7.511  11.257  0.6650  0.4899  0.0358
  284MOL0     N38256  10.179   7.260  10.701 -0.3768  0.7126  0.0849
  284MOL0     N38257  10.107   7.254  10.598 -0.5337  0.3488 -0.0735
  284MOL0     C38258   8.911   7.402  10.204 -0.3709  0.2153  1.0020
  284MOL0     C38259   8.789   7.345  10.242 -0.3154 -0.2168  0.0149
  284MOL0     C38260   8.401   7.193  10.288  0.1755 -1.1011 -0.4048
  284MOL0     C38261   8.344   7.216  10.158 -0.9879 -0.0485  0.2962
  284MOL0     C38262   8.201   7.228  10.147  0.3150 -0.0401 -0.2435
  284MOL0     C38263   8.125   7.235  10.267 -0.9952  0.2602  0.8877
  284MOL0     O38264   7.990   7.274  10.240 -0.6091  0.0894 -0.0678
  284MOL0     C38265   7.884   7.264  10.337 -0.4169  0.4868  0.1799
  284MOL0     C38266   7.758   7.336  10.299  0.2222 -0.3664 -0.1344
  284MOL0     C38267   7.641   7.252  10.355  0.7898 -0.4541  0.3589
  284MOL0     C38268   7.618   7.266  10.511 -0.8752  0.3217  0.4608
  284MOL0     C38269   7.480   7.276  10.546  0.6393  0.3672  0.9377
  284MOL0     C38270   7.363   7.283  10.577 -0.1780  0.3471  0.4226
  284MOL0     C38271   8.187   7.207  10.393 -0.6427  0.0384 -0.1308
  284MOL0     C38272   8.321   7.190  10.403 -0.0847 -0.5010 -1.2387
  284MOL0     H38273   8.798   7.067  10.049 -2.4514 -0.6262 -0.4885
  284MOL0     H38274   9.011   7.184   9.969  1.3891 -1.0635  1.9209
  284MOL0     H38275   9.278   7.501  10.085  2.4240  0.9281  2.9410
  284MOL0     H38276   9.161   7.529  10.212  0.8115  1.1542 -1.0857
  284MOL0     H38277   9.211   7.265  10.276 -0.1668 -0.5302 -1.0999
  284MOL0     H38278   9.302   7.261  10.130 -3.3451  0.9301 -2.4432
  284MOL0     H38279   9.480   7.423  10.255  0.1972 -0.1359 -0.9116
  284MOL0     H38280   9.373   7.436  10.381  2.0125 -0.6200  0.3221
  284MOL0     H38281   9.382   7.170  10.387 -3.2985  0.8909 -5.1311
  284MOL0     H38282   9.505   7.172  10.266  2.2524 -1.5034  1.1938
  284MOL0     H38283   9.543   7.301  10.527  0.5257  3.5267 -1.6821
  284MOL0     H38284   9.616   7.143  10.484 -0.0143  1.4346  3.6717
  284MOL0     H38285   9.757   7.257  10.306  1.0605 -0.1413  1.3347
  284MOL0     H38286   9.693   7.410  10.343  0.2200 -0.8813 -1.6415
  284MOL0     H38287   9.915   7.373  10.432 -0.4082  0.8717 -1.2398
  284MOL0     H38288   9.805   7.402  10.561  0.4370 -1.4635  2.3660
  284MOL0     H38289   9.918   7.135  10.480  1.2833 -1.1058  2.1260
  284MOL0     H38290   9.800   7.154  10.605 -0.3722  0.8744 -0.3875
  284MOL0     H38291   9.893   7.273  10.839 -0.4056 -1.5696 -0.5030
  284MOL0     H38292  10.086   7.393  11.004 -0.9683 -0.0209 -1.3386
  284MOL0     H38293  10.167   7.229  11.005  4.6645  0.5765 -0.5000
  284MOL0     H38294  10.374   7.314  10.917  1.4002  1.2201 -0.7478
  284MOL0     H38295  10.332   7.386  11.069 -0.5870  1.6726 -1.0245
  284MOL0     H38296  10.260   7.597  10.944  0.8673 -0.8663  0.7491
  284MOL0     H38297  10.345   7.536  10.803  0.1843 -0.0897  0.2172
  284MOL0     H38298  10.489   7.669  10.914  1.6520 -0.2956 -1.4996
  284MOL0     H38299  10.547   7.508  10.954  2.4982  3.4081  0.7038
  284MOL0     H38300  10.562   7.822  11.127  0.4848  2.5569  1.7895
  284MOL0     H38301  10.877   7.914  11.137 -0.3778  0.3526  0.4670
  284MOL0     H38302  10.707   7.951  11.132 -2.5946 -3.1293 -0.2724
  284MOL0     H38303  10.796   7.967  11.286 -3.0681 -0.5161 -0.2632
  284MOL0     H38304  11.135   7.830  11.539 -0.2884  1.3231  0.7312
  284MOL0     H38305  11.385   7.850  11.559  1.9142 -1.0130 -0.5688
  284MOL0     H38306  11.597   7.655  11.310 -0.8859  0.6331 -1.0934
  284MOL0     H38307  11.645   7.772  11.189 -0.4080 -2.1991 -0.1439
  284MOL0     H38308  11.838   7.681  11.276  1.0020  0.1443  1.3168
  284MOL0     H38309  11.832   7.839  11.365 -1.1160  0.4640  1.3741
  284MOL0     H38310  11.689   7.645  11.530  0.9058  0.0769 -0.1876
  284MOL0     H38311  11.818   7.754  11.561  0.5240 -0.0184 -0.2501
  284MOL0     H38312  11.839   7.482  11.432 -1.8941  1.5904  0.3422
  284MOL0     H38313  11.971   7.588  11.432 -0.2546 -0.0504 -0.5728
  284MOL0     H38314  11.970   7.411  11.606 -0.6349 -0.3199 -1.4465
  284MOL0     H38315  11.852   7.476  11.704  1.9061 -2.4870  1.1451
  284MOL0     H38316  12.113   7.613  11.627 -0.3054 -0.2023 -2.5323
  284MOL0     H38317  11.984   7.697  11.704 -1.2313 -1.5093 -1.1869
  284MOL0     H38318  12.092   7.432  11.839  0.8451  0.0480  1.6707
  284MOL0     H38319  11.997   7.554  11.897 -1.6714 -1.4519 -1.9613
  284MOL0     H38320  12.242   7.577  11.973  0.7937 -0.7398 -0.5234
  284MOL0     H38321  12.194   7.715  11.883  2.1615  0.4158 -0.7416
  284MOL0     H38322  11.421   7.847  11.135  0.2696 -2.2859  0.0135
  284MOL0     H38323  11.162   7.808  11.124  0.0770  1.7064 -0.8275
  284MOL0     H38324  10.784   7.461  11.376 -0.1266  0.0201  1.0937
  284MOL0     H38325  10.565   7.416  11.265 -1.0245  1.1100 -2.1154
  284MOL0     H38326   8.932   7.504  10.235  0.5625  0.3243  0.0463
  284MOL0     H38327   8.731   7.406  10.311  1.5421 -1.1835  2.6083
  284MOL0     H38328   8.401   7.216  10.066 -2.8007 -1.2687 -0.9061
  284MOL0     H38329   8.168   7.236  10.044 -0.4648 -0.1657 -0.0137
  284MOL0     H38330   7.869   7.158  10.360  0.4973 -0.3854 -2.7560
  284MOL0     H38331   7.921   7.311  10.428  0.7941 -1.7195  0.9220
  284MOL0     H38332   7.759   7.330  10.190  1.6070 -0.3673 -0.1377
  284MOL0     H38333   7.737   7.437  10.335 -3.2173 -1.9124  2.7765
  284MOL0     H38334   7.659   7.146  10.336  2.6718 -0.9008  3.8101
  284MOL0     H38335   7.550   7.285  10.304  1.2067  1.6941  0.8965
  284MOL0     H38336   7.656   7.362  10.547  1.5150 -0.3128 -0.2332
  284MOL0     H38337   7.670   7.190  10.570  1.0121  1.0890 -0.1680
  284MOL0     H38338   7.264   7.294  10.616 -0.9777  1.4498 -1.7313
  284MOL0     H38339   8.136   7.195  10.488  1.2806 -1.4668  0.7812
  284MOL0     H38340   8.357   7.172  10.504 -1.0004 -0.3791 -0.8714
  285MOL0     O38341   5.292   3.229  10.073 -0.8274 -0.3334  0.0667
  285MOL0     C38342   5.328   3.274   9.962 -0.5375  0.5009 -0.3290
  285MOL0     O38343   5.241   3.327   9.872  0.5933 -0.1379  0.2967
  285MOL0     C38344   5.099   3.342   9.874 -0.3053 -0.3926 -0.0318
  285MOL0     C38345   5.016   3.344   9.755  1.2772  0.4478  0.7570
  285MOL0     C38346   4.876   3.356   9.758 -0.2225 -0.0984  0.4264
  285MOL0     C38347   4.818   3.360   9.884 -0.1007 -0.4540  0.1698
  285MOL0     O38348   4.684   3.358   9.879 -0.6214  0.0223 -0.7555
  285MOL0     C38349   4.617   3.329   9.999  0.9330  0.3044  0.2605
  285MOL0     C38350   4.470   3.323   9.954  0.1522 -0.0473  0.1705
  285MOL0     C38351   4.385   3.228  10.037 -0.2345  0.3854  0.1173
  285MOL0     C38352   4.242   3.217   9.995 -0.6505  0.7934 -0.2242
  285MOL0     C38353   4.151   3.326  10.041  0.0385 -0.4058  0.2585
  285MOL0     C38354   4.142   3.459   9.965  0.3586  0.0743  0.5178
  285MOL0     C38355   4.136   3.457   9.811 -0.1568  0.2435 -0.4336
  285MOL0     C38356   4.076   3.350   9.730  0.0584 -0.0275 -0.0078
  285MOL0     N38357   3.946   3.383   9.675 -0.4326 -0.0300 -0.1668
  285MOL0     C38358   3.834   3.299   9.679  0.5197  0.1377 -0.4070
  285MOL0     C38359   3.728   3.371   9.625  0.2449 -0.5022 -0.1062
  285MOL0     C38360   3.584   3.334   9.597 -0.4651  0.3436 -1.5800
  285MOL0     C38361   3.525   3.361   9.457 -0.0094 -0.3006 -0.3679
  285MOL0     C38362   3.497   3.507   9.420 -0.4007  0.1917 -0.3868
  285MOL0     C38363   3.442   3.514   9.267 -0.2963 -0.7188 -0.0663
  285MOL0     O38364   3.339   3.419   9.245  0.0277  0.5619 -0.2869
  285MOL0     C38365   3.226   3.464   9.183  0.5326  0.1440  0.5803
  285MOL0     C38366   3.218   3.524   9.052 -0.3872  0.2615 -0.1841
  285MOL0     C38367   3.094   3.559   8.991  0.3068 -0.2010  0.3380
  285MOL0     C38368   3.095   3.598   8.843  0.0543  0.2659  0.2939
  285MOL0     C38369   2.972   3.542   9.063 -0.0816 -0.7157 -0.7951
  285MOL0     C38370   2.836   3.589   9.026  0.6682  0.8943 -0.3371
  285MOL0     O38371   2.735   3.545   9.104 -0.1106  0.4926 -0.6217
  285MOL0     C38372   2.611   3.562   9.045 -0.1287  0.6379 -0.1455
  285MOL0     C38373   2.535   3.663   9.093 -0.0709 -0.2005 -0.4227
  285MOL0     C38374   2.406   3.679   9.044 -0.5196 -0.5016  0.1084
  285MOL0     C38375   2.355   3.603   8.939 -0.1905  1.0140 -0.5890
  285MOL0     O38376   2.230   3.633   8.879 -0.0409 -0.2831  0.4489
  285MOL0     C38377   2.112   3.641   8.970  0.8178 -0.0514 -0.2970
  285MOL0     C38378   2.110   3.517   9.066  0.0481  0.2146 -0.4590
  285MOL0     C38379   1.972   3.454   9.102 -0.0184  0.2600  0.2803
  285MOL0     C38380   1.978   3.310   9.162 -0.5148 -0.7822 -0.0802
  285MOL0     C38381   1.864   3.294   9.265  0.3143 -0.3939  0.9578
  285MOL0     C38382   1.860   3.385   9.391 -0.4150  0.1716 -0.0924
  285MOL0     C38383   1.981   3.375   9.483  0.5145 -0.0657 -0.4487
  285MOL0     C38384   1.965   3.468   9.605 -0.2318 -0.3325 -0.2212
  285MOL0    Cl38385   1.817   3.415   9.700 -0.4402 -0.1574  0.4603
  285MOL0     C38386   2.432   3.503   8.887  0.3296  0.2568  0.4457
  285MOL0     C38387   2.559   3.480   8.941  0.2643  0.0821 -0.6997
  285MOL0     O38388   2.821   3.673   8.936  0.5607  0.1630  0.7555
  285MOL0     C38389   2.983   3.466   9.179  0.3064 -0.1164 -0.3216
  285MOL0     C38390   3.104   3.438   9.243  0.2525  0.5916 -0.7183
  285MOL0     N38391   3.782   3.498   9.598  0.1303 -0.3058  0.1778
  285MOL0     N38392   3.907   3.504   9.631 -0.8291  0.1819  0.4887
  285MOL0     C38393   4.898   3.357  10.000  0.2535 -0.5462 -1.3429
  285MOL0     C38394   5.040   3.359   9.997  2.2846  0.1123  0.7905
  285MOL0     C38395   5.459   3.233   9.896 -0.4854  0.3278 -0.4618
  285MOL0     C38396   5.553   3.156   9.963 -0.4323  0.6778 -0.6357
  285MOL0     C38397   5.665   3.110   9.892 -0.6387 -0.3062  0.5077
  285MOL0     C38398   5.697   3.152   9.757  0.7421 -1.2174 -0.6197
  285MOL0     O38399   5.806   3.106   9.699  0.2818 -0.4336  1.0488
  285MOL0     C38400   5.783   3.033   9.579  0.1621  0.1356  0.0521
  285MOL0     C38401   5.895   2.926   9.562 -0.7308 -0.8486 -0.6026
  285MOL0     C38402   6.037   2.985   9.569  0.5112 -0.6393 -0.0739
  285MOL0     C38403   6.149   2.890   9.535  0.5198 -0.1953  0.4478
  285MOL0     C38404   6.122   2.787   9.438  0.6938  0.1723  0.0286
  285MOL0     C38405   6.105   2.697   9.360 -0.4014  0.4011 -0.8770
  285MOL0     C38406   5.604   3.237   9.699 -0.0847 -0.1149 -0.4810
  285MOL0     C38407   5.481   3.264   9.757 -0.2309 -0.6035  0.2939
  285MOL0     H38408   5.061   3.324   9.658 -1.6842  0.2084 -0.7046
  285MOL0     H38409   4.810   3.347   9.672 -0.9748 -2.6535  1.1693
  285MOL0     H38410   4.643   3.227  10.031 -0.0008 -0.6131 -1.7416
  285MOL0     H38411   4.622   3.400  10.082  0.2821 -0.3120  0.8424
  285MOL0     H38412   4.439   3.426   9.973  4.5519  1.2777  1.1121
  285MOL0     H38413   4.454   3.303   9.848  0.4710  0.7553 -0.0286
  285MOL0     H38414   4.416   3.125  10.017 -1.2505 -0.1657  1.2411
  285MOL0     H38415   4.388   3.250  10.144 -0.2729  3.0448 -0.3732
  285MOL0     H38416   4.235   3.196   9.888 -3.7742 -0.2042  0.0813
  285MOL0     H38417   4.200   3.123  10.030  2.3426 -1.8222 -2.9355
  285MOL0     H38418   4.049   3.288  10.054 -0.6501  1.1101 -0.5178
  285MOL0     H38419   4.181   3.358  10.141 -0.4699  0.0629  0.2644
  285MOL0     H38420   4.049   3.508   9.994 -1.0859  0.0137 -3.4151
  285MOL0     H38421   4.219   3.530   9.997  1.0063 -0.0128 -0.7904
  285MOL0     H38422   4.105   3.555   9.771 -3.1455 -0.4412 -0.0437
  285MOL0     H38423   4.242   3.441   9.789 -0.8957 -3.2013 -2.1398
  285MOL0     H38424   4.079   3.255   9.786  2.2085  0.5458  0.9774
  285MOL0     H38425   4.140   3.342   9.642 -0.0177  1.7519 -0.2612
  285MOL0     H38426   3.833   3.192   9.696  1.5349  0.3509  1.1773
  285MOL0     H38427   3.597   3.228   9.619  0.0711  0.8494  0.8778
  285MOL0     H38428   3.530   3.397   9.668  0.1231 -0.4065 -0.4305
  285MOL0     H38429   3.430   3.306   9.460  0.7994 -1.8071 -1.2296
  285MOL0     H38430   3.597   3.319   9.385 -1.1119 -2.7770 -0.1453
  285MOL0     H38431   3.585   3.572   9.418  0.6577 -1.2096 -0.9651
  285MOL0     H38432   3.428   3.559   9.487  1.8438  2.2151  0.4845
  285MOL0     H38433   3.528   3.484   9.207  0.8279  0.4063  0.9161
  285MOL0     H38434   3.402   3.614   9.247 -1.6272 -1.3119 -0.4801
  285MOL0     H38435   3.308   3.550   8.998 -1.5660 -0.8829 -2.9022
  285MOL0     H38436   3.094   3.707   8.843  2.2983  0.3401 -0.6726
  285MOL0     H38437   3.186   3.574   8.787 -1.1203 -0.6294 -1.3222
  285MOL0     H38438   3.003   3.562   8.795 -2.4728  1.5510  3.8079
  285MOL0     H38439   2.572   3.735   9.166 -2.6477  0.8217 -0.0372
  285MOL0     H38440   2.345   3.755   9.093 -0.2761 -0.3816  0.2271
  285MOL0     H38441   2.124   3.731   9.031  2.4984 -1.1615  1.0895
  285MOL0     H38442   2.017   3.657   8.917  1.6699 -0.3350 -2.0018
  285MOL0     H38443   2.160   3.429   9.024 -1.7537 -1.8039  1.3622
  285MOL0     H38444   2.165   3.547   9.156 -0.6065  0.9481 -0.3004
  285MOL0     H38445   1.916   3.456   9.008  0.5612 -0.5757 -0.1000
  285MOL0     H38446   1.932   3.530   9.170 -0.3611  0.3181  0.0165
  285MOL0     H38447   1.978   3.234   9.083  0.1671 -2.4996  1.4874
  285MOL0     H38448   2.074   3.292   9.211 -1.5508 -0.0436  2.3936
  285MOL0     H38449   1.871   3.189   9.296  3.0547 -0.3207  0.8220
  285MOL0     H38450   1.768   3.313   9.215 -1.7727 -2.7876  3.6610
  285MOL0     H38451   1.850   3.490   9.360 -0.1193 -0.7280 -3.6830
  285MOL0     H38452   1.774   3.353   9.450 -1.7163  0.5144 -1.7211
  285MOL0     H38453   2.075   3.372   9.428  0.3842 -1.2305 -0.6283
  285MOL0     H38454   1.986   3.276   9.530  1.0489 -0.5874 -1.5636
  285MOL0     H38455   1.958   3.572   9.570 -0.6913  0.6396  2.5124
  285MOL0     H38456   2.056   3.474   9.666 -0.5910  1.7445  0.2004
  285MOL0     H38457   2.403   3.439   8.804  3.7347  0.1268 -0.7723
  285MOL0     H38458   2.611   3.399   8.891  0.5765 -0.3292  0.2749
  285MOL0     H38459   2.896   3.449   9.240  0.1745  2.5636  0.3450
  285MOL0     H38460   3.104   3.391   9.341 -2.1525  0.0066 -0.9320
  285MOL0     H38461   4.845   3.374  10.093 -2.7462 -1.2456 -2.7842
  285MOL0     H38462   5.104   3.362  10.085  1.2737 -2.4802  1.7416
  285MOL0     H38463   5.536   3.122  10.064 -5.7018 -3.5024 -2.4164
  285MOL0     H38464   5.738   3.040   9.931 -1.8854 -0.2634  3.1370
  285MOL0     H38465   5.693   2.974   9.600  0.2571 -0.0029  0.0705
  285MOL0     H38466   5.774   3.106   9.498 -0.2638  1.2252  1.0457
  285MOL0     H38467   5.879   2.886   9.461 -4.0494 -3.0252  0.6324
  285MOL0     H38468   5.885   2.841   9.630  0.7062 -0.2369  0.4156
  285MOL0     H38469   6.048   3.013   9.674 -0.9982 -0.2622  0.0037
  285MOL0     H38470   6.040   3.079   9.513 -3.2825 -0.6000 -0.4987
  285MOL0     H38471   6.180   2.827   9.619 -1.3946  1.0690  2.1952
  285MOL0     H38472   6.238   2.944   9.502  0.6223  0.2288  1.3776
  285MOL0     H38473   6.088   2.619   9.288 -0.2017  0.0576 -0.5565
  285MOL0     H38474   5.627   3.265   9.596 -0.8990  0.8947 -0.3972
  285MOL0     H38475   5.411   3.332   9.708  0.8555 -0.4989 -1.1637
  286MOL0     O38476   1.981   5.699   1.886  0.5425 -0.1471 -0.8593
  286MOL0     C38477   1.947   5.593   1.834 -0.6765  0.8811 -0.3127
  286MOL0     O38478   1.815   5.559   1.808 -0.2721  0.0792 -0.2646
  286MOL0     C38479   1.723   5.635   1.868 -1.1552 -0.6409  0.8643
  286MOL0     C38480   1.714   5.677   1.999  0.1124 -0.1207 -0.3660
  286MOL0     C38481   1.596   5.730   2.053 -0.4466  0.1558 -0.0195
  286MOL0     C38482   1.486   5.750   1.976 -0.9614  0.0993  0.6361
  286MOL0     O38483   1.358   5.783   2.022 -0.7083  0.3140 -0.5570
  286MOL0     C38484   1.362   5.815   2.158  1.5644 -0.0310 -0.6781
  286MOL0     C38485   1.221   5.862   2.192 -0.0303  0.0943 -0.2019
  286MOL0     C38486   1.217   5.900   2.339 -0.4159 -0.0327 -0.5805
  286MOL0     C38487   1.281   6.032   2.371 -0.0222 -0.3809 -0.6942
  286MOL0     C38488   1.198   6.154   2.331 -0.1197 -0.7175 -0.0738
  286MOL0     C38489   1.228   6.282   2.396  0.2464  0.4868 -0.5400
  286MOL0     C38490   1.161   6.388   2.318 -0.3880  0.1865 -0.3491
  286MOL0     C38491   1.235   6.429   2.185  0.5707 -0.6485 -0.8214
  286MOL0     N38492   1.154   6.492   2.090  0.0411  0.5029 -0.2391
  286MOL0     C38493   1.162   6.626   2.052 -0.7045  0.5339  0.7026
  286MOL0     C38494   1.071   6.650   1.952 -1.1576 -0.2764 -0.3199
  286MOL0     C38495   1.029   6.781   1.886  0.4293  0.8142  0.7243
  286MOL0     C38496   0.918   6.860   1.964  0.6875 -0.4755  0.3848
  286MOL0     C38497   0.940   7.016   1.935 -0.9754 -0.5703  0.0802
  286MOL0     C38498   0.930   7.051   1.789  0.5131  0.9182 -0.4460
  286MOL0     O38499   0.967   7.182   1.756  0.2493  0.1775 -0.0123
  286MOL0     C38500   0.887   7.286   1.786 -0.5065 -0.0165 -0.8289
  286MOL0     C38501   0.935   7.410   1.760 -0.2314  0.1185  0.1048
  286MOL0     C38502   0.864   7.531   1.788 -0.5415  0.0399  0.4480
  286MOL0     C38503   0.938   7.654   1.744 -0.0513  0.0015  0.4225
  286MOL0     C38504   0.736   7.527   1.851  0.3973  0.4832 -0.3387
  286MOL0     C38505   0.652   7.646   1.885 -0.1682  0.4091 -0.5625
  286MOL0     O38506   0.528   7.613   1.956 -0.0901  0.1741 -0.0563
  286MOL0     C38507   0.420   7.694   1.969  0.1958 -0.9490  0.8218
  286MOL0     C38508   0.300   7.618   1.984 -0.3049  0.4834  0.2390
  286MOL0     C38509   0.180   7.680   2.009  0.1952 -0.6110  0.0468
  286MOL0     C38510   0.183   7.823   2.025  0.5125  0.4253  0.0357
  286MOL0     O38511   0.066   7.888   2.038  0.5494 -0.4438 -0.0879
  286MOL0     C38512  -0.024   7.832   2.129  0.2414 -0.3866 -0.3495
  286MOL0     C38513  -0.160   7.894   2.132 -0.7860 -0.0708  0.6798
  286MOL0     C38514  -0.229   7.847   2.263  0.1800  0.1042  0.0014
  286MOL0     C38515  -0.377   7.845   2.261 -1.1084  0.1364 -0.3296
  286MOL0     C38516  -0.435   7.805   2.401 -0.4556  0.4744 -0.0220
  286MOL0     C38517  -0.585   7.792   2.383 -0.4585  0.0067  1.5426
  286MOL0     C38518  -0.664   7.800   2.512  0.0627  0.1001 -0.2565
  286MOL0     C38519  -0.806   7.736   2.488  0.2140 -0.1037  0.2595
  286MOL0    Cl38520  -0.908   7.828   2.367 -0.5508  0.2033  0.0657
  286MOL0     C38521   0.297   7.897   2.003  0.4272  0.2781 -0.4477
  286MOL0     C38522   0.422   7.836   1.992  1.4786 -0.2428 -0.6081
  286MOL0     O38523   0.681   7.758   1.839  0.4826 -0.3626 -0.9830
  286MOL0     C38524   0.685   7.394   1.879  0.0531 -0.1217  0.5191
  286MOL0     C38525   0.761   7.277   1.848 -0.7648  0.4570 -0.0339
  286MOL0     N38526   1.019   6.514   1.939  0.3508 -0.3765  0.3591
  286MOL0     N38527   1.069   6.421   2.005 -0.3272 -0.0823 -0.0637
  286MOL0     C38528   1.494   5.724   1.837 -0.6263 -0.0002 -0.3024
  286MOL0     C38529   1.610   5.665   1.789  0.2881 -1.0803  0.1365
  286MOL0     C38530   2.055   5.499   1.795 -0.1058  0.3402  0.0986
  286MOL0     C38531   2.028   5.365   1.749 -0.5213 -0.3228  0.7153
  286MOL0     C38532   2.131   5.272   1.738  0.3737  0.9730 -0.0879
  286MOL0     C38533   2.262   5.302   1.778 -0.0377 -0.0656  0.0815
  286MOL0     O38534   2.347   5.197   1.764  0.2193 -0.4328  0.3475
  286MOL0     C38535   2.490   5.228   1.781  0.2120  0.1193  0.1092
  286MOL0     C38536   2.570   5.109   1.738 -0.8784 -0.3220 -0.1269
  286MOL0     C38537   2.722   5.127   1.717 -0.4995  0.3279 -0.7125
  286MOL0     C38538   2.797   5.204   1.832 -0.3824  0.3901  0.5232
  286MOL0     C38539   2.940   5.188   1.798 -0.3804 -0.3561 -0.3855
  286MOL0     C38540   3.046   5.153   1.757 -0.9163 -0.0378  0.0935
  286MOL0     C38541   2.286   5.426   1.826 -0.5291 -0.0760 -0.1572
  286MOL0     C38542   2.185   5.523   1.837 -0.5675 -0.2409 -0.5977
  286MOL0     H38543   1.800   5.659   2.063  1.2800  4.1456 -0.4117
  286MOL0     H38544   1.600   5.730   2.162  0.4957  0.2100 -0.0486
  286MOL0     H38545   1.387   5.730   2.222  1.1904 -0.1842 -0.7262
  286MOL0     H38546   1.427   5.898   2.188 -0.3767  0.9419  1.0863
  286MOL0     H38547   1.198   5.948   2.129  2.3039  1.4930  0.6976
  286MOL0     H38548   1.145   5.788   2.169  1.8999 -1.5655 -1.6347
  286MOL0     H38549   1.119   5.899   2.386  0.5422 -1.5503  1.5875
  286MOL0     H38550   1.279   5.830   2.396  0.6441  1.1818 -0.1975
  286MOL0     H38551   1.306   6.040   2.478 -0.5636 -0.7917 -0.5330
  286MOL0     H38552   1.380   6.040   2.327  0.0282 -1.2128 -0.7493
  286MOL0     H38553   1.198   6.166   2.222  0.7814  0.7585  0.0712
  286MOL0     H38554   1.095   6.127   2.357  0.2192 -2.0132 -0.0234
  286MOL0     H38555   1.193   6.262   2.497  1.6432  0.0107 -0.1218
  286MOL0     H38556   1.334   6.309   2.401 -0.0575  1.9278 -1.2986
  286MOL0     H38557   1.065   6.345   2.287 -0.3021  1.1980 -2.1127
  286MOL0     H38558   1.137   6.478   2.375 -0.9187  1.4071 -2.3917
  286MOL0     H38559   1.286   6.342   2.143 -0.0657 -0.9503 -0.9783
  286MOL0     H38560   1.309   6.505   2.212 -1.8265  0.8311  2.1925
  286MOL0     H38561   1.228   6.696   2.102 -0.9867  2.5692 -1.6426
  286MOL0     H38562   1.118   6.843   1.873  0.6841  0.5393  1.1195
  286MOL0     H38563   0.991   6.759   1.786  2.0001  3.4718 -0.5452
  286MOL0     H38564   0.935   6.826   2.067 -0.9130 -0.8878  0.5373
  286MOL0     H38565   0.821   6.829   1.924  0.4895  2.3832 -1.6900
  286MOL0     H38566   1.039   7.048   1.969  0.3082 -0.7318 -3.1284
  286MOL0     H38567   0.876   7.079   1.997  2.0123  2.9251 -0.0167
  286MOL0     H38568   0.831   7.028   1.748  0.3701 -0.5654  0.6577
  286MOL0     H38569   0.996   6.989   1.729  2.0465  2.8262 -0.8527
  286MOL0     H38570   1.030   7.403   1.708 -2.0234 -2.1502 -3.2477
  286MOL0     H38571   1.040   7.621   1.725  0.2256  2.0807 -2.3643
  286MOL0     H38572   0.891   7.683   1.649  1.6736  0.3513 -0.3591
  286MOL0     H38573   0.937   7.738   1.814 -4.7026  0.4539  0.1472
  286MOL0     H38574   0.288   7.511   1.981 -1.3544  0.5975  0.0866
  286MOL0     H38575   0.095   7.617   2.035  0.8542 -1.6180 -0.1579
  286MOL0     H38576  -0.053   7.729   2.105  2.1232 -0.7750 -1.1277
  286MOL0     H38577   0.023   7.840   2.227  2.6703 -1.5648 -1.3561
  286MOL0     H38578  -0.144   8.002   2.138  1.0137 -0.2226 -0.5728
  286MOL0     H38579  -0.217   7.884   2.039 -1.1840  1.1509  0.7809
  286MOL0     H38580  -0.184   7.905   2.344 -0.6949  0.6977  0.0722
  286MOL0     H38581  -0.200   7.744   2.284 -1.5307 -0.1355  1.4039
  286MOL0     H38582  -0.414   7.940   2.223 -1.2414  1.0468  1.8757
  286MOL0     H38583  -0.416   7.772   2.190 -0.4772  2.2983 -3.0824
  286MOL0     H38584  -0.413   7.881   2.476 -1.1178  1.8752 -1.1931
  286MOL0     H38585  -0.392   7.709   2.431 -1.0427  0.5019  0.9572
  286MOL0     H38586  -0.606   7.871   2.311  0.9272  0.2949  1.4196
  286MOL0     H38587  -0.614   7.706   2.321 -0.9360  1.2471 -0.0386
  286MOL0     H38588  -0.693   7.901   2.539 -3.1776 -0.2807 -1.8785
  286MOL0     H38589  -0.620   7.753   2.600 -2.2232  0.2845  1.0658
  286MOL0     H38590  -0.870   7.728   2.576  0.8591  0.6002  0.8051
  286MOL0     H38591  -0.796   7.632   2.456 -0.8333  0.4198 -2.0027
  286MOL0     H38592   0.288   8.005   2.004 -2.8800  0.1457  1.5101
  286MOL0     H38593   0.506   7.902   1.978 -0.5975  2.6487 -0.3330
  286MOL0     H38594   0.588   7.366   1.918 -0.2560 -3.3299 -2.1540
  286MOL0     H38595   0.730   7.178   1.881 -0.8777 -0.5231 -2.8499
  286MOL0     H38596   1.403   5.739   1.780 -0.3213 -0.4691 -0.9309
  286MOL0     H38597   1.601   5.614   1.694  0.4140 -0.9174  0.0388
  286MOL0     H38598   1.928   5.337   1.717 -0.0728 -1.4262  0.2489
  286MOL0     H38599   2.119   5.173   1.696 -0.3381  0.5498  1.0487
  286MOL0     H38600   2.519   5.308   1.713  2.2154 -0.6627 -0.0161
  286MOL0     H38601   2.513   5.253   1.886 -0.6576  2.2689 -0.1554
  286MOL0     H38602   2.527   5.072   1.645  2.1997  1.0103 -2.2522
  286MOL0     H38603   2.547   5.036   1.817 -1.9247 -0.4813 -0.5636
  286MOL0     H38604   2.737   5.182   1.624 -0.8235  0.4519 -0.6935
  286MOL0     H38605   2.768   5.028   1.702 -0.4715 -0.0684  1.6427
  286MOL0     H38606   2.773   5.184   1.936  1.5549 -0.0823  0.9175
  286MOL0     H38607   2.776   5.311   1.821  1.3124  0.6542 -0.6424
  286MOL0     H38608   3.132   5.113   1.707 -0.4197 -2.1777  2.4308
  286MOL0     H38609   2.390   5.450   1.842 -0.0981  0.1942 -2.8793
  286MOL0     H38610   2.218   5.620   1.874  4.4415 -1.8114 -0.2575
  287MOL0     O38611   8.338   4.651   7.331  0.6360  0.0647 -0.2166
  287MOL0     C38612   8.436   4.633   7.259  0.2518 -0.8574  0.1924
  287MOL0     O38613   8.433   4.588   7.131  0.1750  0.3783 -0.7433
  287MOL0     C38614   8.310   4.571   7.068  0.9265  0.1578 -1.0783
  287MOL0     C38615   8.307   4.600   6.933 -0.1926  0.0840 -0.2264
  287MOL0     C38616   8.185   4.571   6.858 -0.3291  0.2338 -0.1394
  287MOL0     C38617   8.078   4.522   6.927 -0.0000 -0.1632  0.0296
  287MOL0     O38618   7.981   4.483   6.846  0.2007 -0.5010 -0.8403
  287MOL0     C38619   7.850   4.473   6.909 -0.0779  0.9859  0.0800
  287MOL0     C38620   7.749   4.507   6.807  0.0237  0.0048 -0.1621
  287MOL0     C38621   7.688   4.373   6.753  0.2652 -0.2133  0.1340
  287MOL0     C38622   7.563   4.406   6.673 -0.6939 -0.6259 -0.2569
  287MOL0     C38623   7.491   4.276   6.644 -0.4432 -0.0914  0.3316
  287MOL0     C38624   7.351   4.292   6.597  0.6960  0.0517  0.2049
  287MOL0     C38625   7.330   4.384   6.470 -0.1438  0.2710 -0.6016
  287MOL0     C38626   7.181   4.385   6.421 -0.5527 -0.2961 -0.2291
  287MOL0     N38627   7.147   4.263   6.352 -0.7816 -0.3762  0.1198
  287MOL0     C38628   7.080   4.159   6.408  0.1841 -0.5735 -0.6324
  287MOL0     C38629   7.076   4.064   6.308 -0.3843 -0.0151 -0.2687
  287MOL0     C38630   7.047   3.920   6.324  0.6012  1.1574 -0.4220
  287MOL0     C38631   6.952   3.884   6.431 -0.9702  0.1396  0.2628
  287MOL0     C38632   6.817   3.932   6.411  0.9602  0.1846 -0.0510
  287MOL0     C38633   6.718   3.881   6.517  0.0931 -0.0785  0.0245
  287MOL0     O38634   6.592   3.938   6.480 -0.4999  0.2537  0.2616
  287MOL0     C38635   6.485   3.925   6.570  0.1079  0.7644  0.3693
  287MOL0     C38636   6.355   3.965   6.528  0.1968 -0.2814 -0.6132
  287MOL0     C38637   6.241   3.950   6.611  0.0576  0.0475 -0.9682
  287MOL0     C38638   6.114   4.006   6.552 -0.0121  0.1317  0.2365
  287MOL0     C38639   6.253   3.876   6.730 -0.4235 -0.1356  0.0578
  287MOL0     C38640   6.130   3.847   6.819  0.3728 -0.6265 -0.5727
  287MOL0     O38641   6.005   3.883   6.770  0.0312  0.3828 -0.1789
  287MOL0     C38642   5.892   3.843   6.831  0.9478  0.2332 -0.5720
  287MOL0     C38643   5.786   3.931   6.845 -0.1806 -0.4780 -0.3824
  287MOL0     C38644   5.660   3.893   6.890  0.6454  0.7030 -0.8668
  287MOL0     C38645   5.631   3.764   6.945  0.0630  0.2309  0.3675
  287MOL0     O38646   5.505   3.738   6.986 -1.3447  0.5578 -0.3897
  287MOL0     C38647   5.458   3.604   7.011  0.0097 -0.0337  0.6703
  287MOL0     C38648   5.318   3.575   6.952 -1.2162 -0.0665  0.4062
  287MOL0     C38649   5.196   3.659   6.994  0.6070  0.1216 -0.3978
  287MOL0     C38650   5.161   3.632   7.141 -0.0780 -0.3770 -0.8100
  287MOL0     C38651   5.039   3.713   7.184 -0.6124 -0.4279  0.4428
  287MOL0     C38652   5.073   3.859   7.209  0.0788 -0.3234 -0.4904
  287MOL0     C38653   5.167   3.878   7.328  0.4116  0.0347  0.6775
  287MOL0     C38654   5.189   4.020   7.381  0.3890 -0.0262 -0.2263
  287MOL0    Cl38655   5.275   4.052   7.537  0.3946  0.6679  0.0964
  287MOL0     C38656   5.741   3.678   6.942 -0.3616 -0.1623  0.0021
  287MOL0     C38657   5.870   3.718   6.880  0.4948  0.7750 -0.6947
  287MOL0     O38658   6.154   3.799   6.929  0.3069 -0.0988 -0.3657
  287MOL0     C38659   6.386   3.843   6.771  0.3995  0.1780 -1.0304
  287MOL0     C38660   6.498   3.865   6.695 -0.2966  0.1774 -0.9613
  287MOL0     N38661   7.138   4.123   6.195 -0.1888 -0.3276  0.0312
  287MOL0     N38662   7.181   4.242   6.224 -0.6223 -0.4572 -0.0320
  287MOL0     C38663   8.087   4.486   7.060  0.0389 -0.0554  0.8076
  287MOL0     C38664   8.201   4.504   7.134 -0.4431 -0.4167  0.7447
  287MOL0     C38665   8.564   4.647   7.330  0.5045 -0.0231 -0.0544
  287MOL0     C38666   8.585   4.605   7.463 -0.2883 -0.7361  0.7500
  287MOL0     C38667   8.710   4.600   7.524  0.2728  0.6320  0.3612
  287MOL0     C38668   8.814   4.651   7.455 -0.4244  0.6380 -0.1204
  287MOL0     O38669   8.944   4.640   7.507 -0.5573 -0.4909  0.2025
  287MOL0     C38670   9.034   4.758   7.499  0.4081 -0.0618  0.3348
  287MOL0     C38671   9.162   4.717   7.424 -0.2832 -0.3631  0.3493
  287MOL0     C38672   9.279   4.818   7.447  0.3647  0.0135  0.2260
  287MOL0     C38673   9.417   4.768   7.395  0.7639 -0.2177  0.5998
  287MOL0     C38674   9.535   4.841   7.442  0.8861 -0.1678  0.4451
  287MOL0     C38675   9.633   4.902   7.466  0.7952 -0.3771  0.6625
  287MOL0     C38676   8.796   4.703   7.331  1.3058 -0.3844 -0.0270
  287MOL0     C38677   8.673   4.708   7.264  0.3726 -0.1525 -0.0747
  287MOL0     H38678   8.399   4.633   6.885 -0.0192  0.9880  0.6697
  287MOL0     H38679   8.169   4.593   6.753  0.7506 -1.8450 -0.7995
  287MOL0     H38680   7.837   4.370   6.943 -0.6730  1.5036  1.5223
  287MOL0     H38681   7.828   4.538   6.994 -0.4660  0.1463  0.6290
  287MOL0     H38682   7.658   4.556   6.846  0.5259 -0.3947  1.6139
  287MOL0     H38683   7.801   4.570   6.735  0.2700  0.5813  0.5082
  287MOL0     H38684   7.759   4.318   6.690  0.3760 -1.1447  1.0321
  287MOL0     H38685   7.651   4.306   6.831  0.6281  0.0386  0.5290
  287MOL0     H38686   7.498   4.469   6.735 -0.4215 -0.1843 -0.4158
  287MOL0     H38687   7.600   4.456   6.583  1.1882  0.9326  1.2796
  287MOL0     H38688   7.551   4.228   6.566 -2.6558  0.8819 -2.1272
  287MOL0     H38689   7.478   4.209   6.729  2.0157 -0.5034  0.4454
  287MOL0     H38690   7.319   4.190   6.573  3.4692  0.0144 -4.6921
  287MOL0     H38691   7.278   4.329   6.670  0.2199  1.0755 -0.7640
  287MOL0     H38692   7.358   4.487   6.495  1.1553 -0.4673  1.2765
  287MOL0     H38693   7.397   4.358   6.388  1.0616  4.3248 -1.1637
  287MOL0     H38694   7.158   4.468   6.354 -1.0268 -0.0869  0.1801
  287MOL0     H38695   7.108   4.400   6.501  1.2483  2.8567  0.9678
  287MOL0     H38696   7.048   4.155   6.512 -2.2745 -1.4971 -1.3402
  287MOL0     H38697   7.019   3.875   6.229 -0.7001 -2.1378  1.3389
  287MOL0     H38698   7.143   3.871   6.345 -0.0149 -1.4119 -2.9459
  287MOL0     H38699   6.983   3.930   6.525 -1.4322  2.8212 -0.8083
  287MOL0     H38700   6.961   3.776   6.447 -1.7011  0.5355  4.4352
  287MOL0     H38701   6.784   3.903   6.311 -0.6874  3.1049 -0.4547
  287MOL0     H38702   6.816   4.041   6.420 -3.0014  0.3315 -0.2937
  287MOL0     H38703   6.748   3.903   6.620 -6.2876  4.6435  1.4955
  287MOL0     H38704   6.711   3.774   6.493  2.0392 -0.1055 -0.5902
  287MOL0     H38705   6.356   4.003   6.426 -0.0076  1.2113 -0.0726
  287MOL0     H38706   6.059   4.060   6.629 -1.2060  0.3501 -0.7514
  287MOL0     H38707   6.144   4.071   6.469  0.8148 -0.9874 -0.3685
  287MOL0     H38708   6.051   3.927   6.511 -0.2743  0.3100  0.2964
  287MOL0     H38709   5.791   4.034   6.812 -4.2217 -0.2065 -0.6380
  287MOL0     H38710   5.578   3.962   6.874 -0.8039 -0.2112  1.9001
  287MOL0     H38711   5.521   3.519   6.982 -0.4782 -0.0912 -0.2689
  287MOL0     H38712   5.448   3.582   7.117 -2.1906 -2.0639  0.1349
  287MOL0     H38713   5.322   3.598   6.845 -3.6626  0.6950  0.4115
  287MOL0     H38714   5.296   3.470   6.969 -0.0028 -0.6672 -1.4248
  287MOL0     H38715   5.107   3.648   6.931 -0.0600 -0.7615  0.6646
  287MOL0     H38716   5.230   3.763   6.986 -3.7706  1.9467  1.4549
  287MOL0     H38717   5.133   3.526   7.149 -0.3967 -0.1765  1.2992
  287MOL0     H38718   5.240   3.650   7.215 -1.8514  1.5654  0.7167
  287MOL0     H38719   5.002   3.668   7.276 -3.2636 -0.3865 -0.4961
  287MOL0     H38720   4.963   3.709   7.105 -0.9328 -0.0584  0.7296
  287MOL0     H38721   5.088   3.916   7.117 -4.7077 -4.9346 -4.8540
  287MOL0     H38722   4.983   3.911   7.243 -0.0844 -1.4262  0.8402
  287MOL0     H38723   5.266   3.839   7.301  0.6004 -0.3628  1.8934
  287MOL0     H38724   5.148   3.810   7.412 -0.4456  1.1526  1.4168
  287MOL0     H38725   5.089   4.065   7.391 -0.1665 -0.4620 -2.9783
  287MOL0     H38726   5.237   4.067   7.295  1.2271 -1.0255 -0.3155
  287MOL0     H38727   5.721   3.578   6.980  1.9112  0.3306  2.8426
  287MOL0     H38728   5.942   3.638   6.870  1.0850  1.4986 -2.5349
  287MOL0     H38729   6.402   3.784   6.861 -0.1852  1.3530 -0.1258
  287MOL0     H38730   6.592   3.829   6.735 -0.7463  0.3612  0.2968
  287MOL0     H38731   8.006   4.445   7.119  0.1966  1.1667  1.9247
  287MOL0     H38732   8.203   4.466   7.235 -1.8365 -3.4194 -0.2175
  287MOL0     H38733   8.493   4.566   7.506 -1.7998  0.9110 -0.7872
  287MOL0     H38734   8.721   4.551   7.621 -2.5962 -1.1940 -0.0859
  287MOL0     H38735   8.987   4.852   7.467  2.3216  0.6952 -0.4307
  287MOL0     H38736   9.070   4.782   7.599  0.7801  2.5430 -0.3326
  287MOL0     H38737   9.132   4.709   7.319 -1.9061 -0.4617  0.7937
  287MOL0     H38738   9.204   4.624   7.465 -1.0223  0.4240  3.1008
  287MOL0     H38739   9.286   4.844   7.552 -2.3361 -0.7995  0.6961
  287MOL0     H38740   9.252   4.905   7.387 -0.0819  1.2295  2.1320
  287MOL0     H38741   9.418   4.784   7.287 -0.5549  3.1651  0.9540
  287MOL0     H38742   9.422   4.663   7.426 -1.5624  0.4662  3.8439
  287MOL0     H38743   9.720   4.963   7.459  0.2532  0.4806  1.2132
  287MOL0     H38744   8.879   4.756   7.286  2.0540  0.5109  2.3048
  287MOL0     H38745   8.656   4.761   7.171 -3.1636  0.4770  0.7861
  288MOL0     O38746   9.583   2.786   8.485  0.3398 -0.3951  0.5190
  288MOL0     C38747   9.622   2.881   8.542  0.1394  0.7568 -0.0522
  288MOL0     O38748   9.542   2.994   8.562  0.5386  0.2184 -0.1059
  288MOL0     C38749   9.431   3.002   8.478 -0.1092 -0.6189  0.1080
  288MOL0     C38750   9.322   2.928   8.509 -0.1117  0.3323 -0.4722
  288MOL0     C38751   9.216   2.929   8.421  0.5166  1.2325 -0.9297
  288MOL0     C38752   9.215   3.018   8.303 -0.5059  0.2131 -0.3714
  288MOL0     O38753   9.109   3.026   8.216 -0.1158 -0.0906 -0.3972
  288MOL0     C38754   8.981   2.979   8.269 -0.5354 -0.2615 -1.1468
  288MOL0     C38755   8.864   3.029   8.185 -0.0407  0.4019 -1.1982
  288MOL0     C38756   8.732   2.971   8.238  0.4207 -0.2075  0.7612
  288MOL0     C38757   8.609   3.004   8.153 -0.1748 -0.0325  0.9555
  288MOL0     C38758   8.481   2.953   8.222  0.0400 -0.0820  0.1827
  288MOL0     C38759   8.352   3.018   8.164 -0.1026  0.5503  0.1521
  288MOL0     C38760   8.223   2.935   8.181 -0.3960  0.4835 -0.6224
  288MOL0     C38761   8.199   2.882   8.321  0.4751 -0.6035 -0.2242
  288MOL0     N38762   8.066   2.825   8.328 -0.7022 -0.5739 -0.2899
  288MOL0     C38763   7.951   2.899   8.329 -1.3484 -0.3597 -0.3676
  288MOL0     C38764   7.857   2.802   8.315 -0.2114 -0.0762 -0.0034
  288MOL0     C38765   7.711   2.818   8.320 -0.6962 -0.3332 -0.0999
  288MOL0     C38766   7.666   2.898   8.442 -0.0626  0.1283  0.1812
  288MOL0     C38767   7.510   2.893   8.463  0.1660 -0.1099 -0.8832
  288MOL0     C38768   7.474   2.942   8.606  0.1097  0.0771 -0.6268
  288MOL0     O38769   7.490   3.085   8.620 -0.1954  0.4403  0.0576
  288MOL0     C38770   7.398   3.143   8.710  0.9570  0.1404  0.3549
  288MOL0     C38771   7.356   3.082   8.837 -1.0741  0.9631  0.5454
  288MOL0     C38772   7.256   3.121   8.917  0.2647 -0.3754 -0.0742
  288MOL0     C38773   7.209   3.035   9.034 -0.5822 -0.2385  0.9883
  288MOL0     C38774   7.205   3.253   8.884  1.1216  0.2298 -0.3470
  288MOL0     C38775   7.099   3.327   8.963 -0.4318 -0.2084 -0.0513
  288MOL0     O38776   7.049   3.273   9.070 -0.0592  0.1170  0.3739
  288MOL0     C38777   6.939   3.329   9.129 -0.2195 -0.1385 -0.1009
  288MOL0     C38778   6.948   3.412   9.236 -0.2083  0.1599  0.4116
  288MOL0     C38779   6.846   3.479   9.282  0.7953 -0.1334 -0.6626
  288MOL0     C38780   6.720   3.458   9.237  0.3160  0.3045 -0.3172
  288MOL0     O38781   6.599   3.528   9.261  0.4054  0.6179 -0.0301
  288MOL0     C38782   6.605   3.661   9.324  0.2569  0.6181  1.2824
  288MOL0     C38783   6.492   3.751   9.289  0.1745 -0.1232 -1.1552
  288MOL0     C38784   6.355   3.702   9.330  0.3295 -0.6942 -0.2060
  288MOL0     C38785   6.249   3.820   9.319 -0.6248 -0.3173 -0.0388
  288MOL0     C38786   6.100   3.781   9.345  0.3740 -0.2844  0.1714
  288MOL0     C38787   5.996   3.898   9.316  0.2774  0.2343 -0.2954
  288MOL0     C38788   5.856   3.850   9.353 -0.3173 -0.2985  1.5958
  288MOL0     C38789   5.766   3.970   9.324  0.5764 -0.7183  0.2113
  288MOL0    Cl38790   5.600   3.938   9.386 -0.4358  0.1938 -0.2266
  288MOL0     C38791   6.702   3.353   9.138 -0.4953 -1.1371  0.2472
  288MOL0     C38792   6.812   3.305   9.074  0.3570  0.4264 -1.0078
  288MOL0     O38793   7.060   3.432   8.921 -0.1504 -0.4080  1.1366
  288MOL0     C38794   7.235   3.307   8.764 -0.6346 -0.8605  0.3774
  288MOL0     C38795   7.332   3.265   8.682  0.0526  1.4321 -0.1747
  288MOL0     N38796   7.908   2.680   8.295  0.0777 -0.0778  0.3355
  288MOL0     N38797   8.038   2.699   8.308  0.4899 -0.2874 -0.1298
  288MOL0     C38798   9.332   3.088   8.281  0.2459  0.2100  0.2639
  288MOL0     C38799   9.443   3.088   8.364  1.0481  0.1402 -0.2308
  288MOL0     C38800   9.742   2.887   8.631  0.0473 -0.5946  0.6399
  288MOL0     C38801   9.784   3.007   8.693  0.2546  0.2326  0.4484
  288MOL0     C38802   9.902   3.007   8.764  0.5914 -0.4563 -0.3887
  288MOL0     C38803   9.980   2.899   8.768 -0.2602  0.4869  0.3536
  288MOL0     O38804  10.085   2.917   8.855 -0.8664  0.6152 -0.4214
  288MOL0     C38805  10.180   2.817   8.859  0.0550  0.1240 -0.1079
  288MOL0     C38806  10.273   2.814   8.739  0.0121 -0.9311 -0.4992
  288MOL0     C38807  10.337   2.943   8.726  0.3500  0.5305 -0.4464
  288MOL0     C38808  10.468   2.911   8.645  0.2297  0.4456 -0.2562
  288MOL0     C38809  10.547   3.026   8.598  0.0758  0.4214  0.5701
  288MOL0     C38810  10.610   3.124   8.570  0.1534  0.2371  0.5779
  288MOL0     C38811   9.946   2.779   8.708  0.3834 -1.0276  0.0221
  288MOL0     C38812   9.823   2.777   8.633 -0.5644  0.1675 -0.1185
  288MOL0     H38813   9.317   2.853   8.587  1.2237 -0.3678 -1.0234
  288MOL0     H38814   9.126   2.875   8.450  0.2033  2.5469  0.7121
  288MOL0     H38815   8.966   2.871   8.262  0.7610 -0.6496  1.0390
  288MOL0     H38816   8.962   3.017   8.370  0.9826 -1.3579 -0.3979
  288MOL0     H38817   8.862   3.138   8.198 -0.5626  0.1563  1.5451
  288MOL0     H38818   8.871   3.005   8.079 -0.5064 -4.7887 -0.2828
  288MOL0     H38819   8.726   2.863   8.252 -1.9094 -0.3432 -0.7804
  288MOL0     H38820   8.720   3.015   8.337  0.1204 -1.3066  1.2280
  288MOL0     H38821   8.599   3.111   8.132  0.8188 -0.3830 -1.6492
  288MOL0     H38822   8.609   2.943   8.063 -3.1040 -1.9006  2.0617
  288MOL0     H38823   8.474   2.844   8.223 -0.4086 -0.0511  0.5286
  288MOL0     H38824   8.484   2.989   8.326  0.0228  1.4396 -0.3128
  288MOL0     H38825   8.345   3.116   8.213 -2.0284  0.7729 -0.5200
  288MOL0     H38826   8.358   3.025   8.055  1.3964 -1.0781  0.0900
  288MOL0     H38827   8.147   3.000   8.137  0.5732  1.7409 -0.5040
  288MOL0     H38828   8.231   2.848   8.116 -0.0660 -2.8715  3.4694
  288MOL0     H38829   8.206   2.962   8.395  0.0958 -1.6371  0.9623
  288MOL0     H38830   8.274   2.811   8.357  0.5277 -0.3571  0.1534
  288MOL0     H38831   7.941   3.005   8.352  1.8086 -0.2819  1.3257
  288MOL0     H38832   7.665   2.865   8.233  1.2277 -0.2523 -1.1292
  288MOL0     H38833   7.658   2.722   8.329 -0.0021 -0.6178  1.0414
  288MOL0     H38834   7.699   3.003   8.436  1.3134 -0.0021  3.3214
  288MOL0     H38835   7.702   2.853   8.535 -0.5584  2.8583  1.8213
  288MOL0     H38836   7.490   2.786   8.454  1.0038 -0.4064  0.3747
  288MOL0     H38837   7.458   2.959   8.394 -0.6644  1.4078  1.0936
  288MOL0     H38838   7.536   2.895   8.682 -2.1244  0.8209  1.7687
  288MOL0     H38839   7.377   2.900   8.633  0.3438  0.5781  1.0742
  288MOL0     H38840   7.416   2.993   8.851  0.3874  1.4032 -2.2668
  288MOL0     H38841   7.100   3.024   9.024 -0.4611 -1.2614  0.6354
  288MOL0     H38842   7.255   2.936   9.029 -0.7261 -0.3593 -4.8575
  288MOL0     H38843   7.230   3.089   9.126 -2.6612  1.1405  0.7166
  288MOL0     H38844   7.049   3.420   9.274  0.0057 -1.2782  0.2241
  288MOL0     H38845   6.872   3.540   9.369 -1.1722 -3.1693  2.3195
  288MOL0     H38846   6.586   3.648   9.432 -2.8026  0.6306  0.8463
  288MOL0     H38847   6.703   3.707   9.313  1.9014 -2.4665  1.9711
  288MOL0     H38848   6.516   3.850   9.328  2.0221 -1.6093  1.8201
  288MOL0     H38849   6.490   3.752   9.180  0.4481 -1.8121 -1.2059
  288MOL0     H38850   6.351   3.671   9.435  1.0552  0.1486  0.0748
  288MOL0     H38851   6.313   3.617   9.274 -1.2147 -0.5179  0.6393
  288MOL0     H38852   6.269   3.903   9.387 -2.7610  0.0189  0.2622
  288MOL0     H38853   6.255   3.861   9.218  2.5496 -1.4797 -0.4271
  288MOL0     H38854   6.091   3.762   9.452 -0.2144 -1.4183 -0.0551
  288MOL0     H38855   6.076   3.686   9.296  1.2843 -1.1589  1.3556
  288MOL0     H38856   6.014   3.987   9.377 -0.8277  0.3173 -0.0758
  288MOL0     H38857   5.986   3.922   9.210 -0.5067 -1.2157 -0.5720
  288MOL0     H38858   5.849   3.825   9.459  0.1698 -4.2229  0.8395
  288MOL0     H38859   5.817   3.763   9.300 -1.3397  0.1079  1.6497
  288MOL0     H38860   5.753   3.986   9.217 -0.5574 -0.0944  0.4222
  288MOL0     H38861   5.797   4.063   9.373 -0.3043 -0.4179  0.2297
  288MOL0     H38862   6.609   3.340   9.084 -1.1065  1.7707  0.4470
  288MOL0     H38863   6.791   3.248   8.984 -1.5605  0.7765 -0.8317
  288MOL0     H38864   7.186   3.397   8.729 -0.6049 -0.7889  0.5180
  288MOL0     H38865   7.359   3.310   8.587  0.7553  0.2164 -0.5735
  288MOL0     H38866   9.328   3.168   8.207  1.3860 -0.3686 -0.4507
  288MOL0     H38867   9.521   3.162   8.345  0.1121  0.8809 -1.3004
  288MOL0     H38868   9.723   3.097   8.694 -3.2089 -1.8820 -0.6493
  288MOL0     H38869   9.939   3.088   8.826 -0.1607 -1.4533  1.4391
  288MOL0     H38870  10.255   2.831   8.937 -0.6128  1.0993  0.3969
  288MOL0     H38871  10.135   2.718   8.869 -1.4383  0.7295 -0.5985
  288MOL0     H38872  10.220   2.807   8.644  1.2479 -0.2627 -1.2651
  288MOL0     H38873  10.334   2.723   8.746  1.4653  0.0797  0.7543
  288MOL0     H38874  10.371   2.985   8.821 -0.0307  1.4370 -0.7061
  288MOL0     H38875  10.279   3.021   8.676 -3.0129 -0.3172  1.8113
  288MOL0     H38876  10.445   2.862   8.550 -1.1881 -4.0492  2.1134
  288MOL0     H38877  10.537   2.842   8.692 -0.9076  1.6376  3.4942
  288MOL0     H38878  10.665   3.212   8.542 -1.4837  0.9929 -0.4138
  288MOL0     H38879  10.002   2.688   8.696 -2.1149 -2.4433 -1.9347
  288MOL0     H38880   9.789   2.683   8.591 -3.1678  1.7731 -1.9333
  289MOL0     O38881   7.726   8.766  10.942  0.1181  0.5706 -0.2349
  289MOL0     C38882   7.731   8.891  10.927  0.0385  0.6623 -0.0248
  289MOL0     O38883   7.655   8.970  10.840  0.3864 -0.4770 -0.3176
  289MOL0     C38884   7.579   8.892  10.757  0.0355 -0.9746  0.3987
  289MOL0     C38885   7.638   8.801  10.663 -0.3938  0.0747 -0.2758
  289MOL0     C38886   7.553   8.732  10.579 -0.0816  0.2358  0.0765
  289MOL0     C38887   7.416   8.745  10.577 -0.0709  0.1902 -0.2340
  289MOL0     O38888   7.325   8.665  10.504 -0.2934  0.2755  0.7857
  289MOL0     C38889   7.389   8.595  10.387 -0.5675  0.0325  1.0934
  289MOL0     C38890   7.278   8.555  10.295  0.8840  0.2732 -0.6792
  289MOL0     C38891   7.340   8.492  10.158 -0.7709  0.2810  0.8875
  289MOL0     C38892   7.231   8.446  10.061  0.4799  0.0236 -0.3114
  289MOL0     C38893   7.090   8.380  10.108  0.2717 -0.4801 -0.2624
  289MOL0     C38894   7.090   8.244  10.177  0.0972 -0.1274 -0.5253
  289MOL0     C38895   6.950   8.184  10.171  0.6301  0.3845 -1.0251
  289MOL0     C38896   6.958   8.032  10.172  0.4301  0.7968  0.4441
  289MOL0     N38897   6.829   7.961  10.155  0.4778 -0.3022 -0.0684
  289MOL0     C38898   6.724   8.006  10.069 -0.8082  0.1816  0.0133
  289MOL0     C38899   6.615   7.935  10.084  0.0999  0.0839 -0.6726
  289MOL0     C38900   6.484   7.940  10.004 -0.7765 -0.3580 -1.0057
  289MOL0     C38901   6.459   7.810   9.938 -0.2640 -0.1937 -0.2948
  289MOL0     C38902   6.360   7.814   9.827  0.1452 -0.6337 -0.1159
  289MOL0     C38903   6.333   7.670   9.772  0.3992 -0.3801 -0.5321
  289MOL0     O38904   6.449   7.624   9.708 -0.4643  0.9804  0.7640
  289MOL0     C38905   6.443   7.505   9.644 -0.5211  0.3652  0.2340
  289MOL0     C38906   6.547   7.464   9.568  0.6480  1.4876  0.1601
  289MOL0     C38907   6.547   7.356   9.471  0.9888  0.3173 -0.5425
  289MOL0     C38908   6.681   7.333   9.400 -0.8368 -0.7040  0.1874
  289MOL0     C38909   6.423   7.272   9.460  0.0126 -0.4079  0.0432
  289MOL0     C38910   6.412   7.165   9.366  0.1325  0.0651 -0.7136
  289MOL0     O38911   6.296   7.094   9.376  0.3092  0.5575 -0.0871
  289MOL0     C38912   6.258   7.000   9.286  0.6213  0.5534 -0.5069
  289MOL0     C38913   6.345   6.911   9.224  0.8600 -1.3414  0.4416
  289MOL0     C38914   6.299   6.812   9.133 -0.5736 -0.4498 -0.8435
  289MOL0     C38915   6.161   6.778   9.129 -0.8157  1.2625  0.4579
  289MOL0     O38916   6.111   6.659   9.067  0.2596 -0.0559 -0.9896
  289MOL0     C38917   6.203   6.543   9.053 -1.1174  0.0520 -0.2008
  289MOL0     C38918   6.147   6.403   9.105  0.3873 -0.5822  0.2746
  289MOL0     C38919   6.006   6.372   9.072  0.3671 -0.4988 -0.4640
  289MOL0     C38920   5.982   6.328   8.932 -0.0473 -1.0916 -0.1044
  289MOL0     C38921   5.831   6.297   8.911  1.2696  0.6944 -0.1936
  289MOL0     C38922   5.799   6.287   8.760 -0.2642  0.3986  0.3690
  289MOL0     C38923   5.643   6.272   8.751  0.3040  0.1269 -0.2545
  289MOL0     C38924   5.601   6.125   8.765  1.1905 -0.4465  0.2511
  289MOL0    Cl38925   5.673   6.015   8.645 -0.0104  0.1240  0.4021
  289MOL0     C38926   6.073   6.864   9.194  0.5204  0.2359  0.7890
  289MOL0     C38927   6.119   6.971   9.277 -0.2813 -0.8625  0.6225
  289MOL0     O38928   6.497   7.143   9.283  0.1531  0.4673  0.3711
  289MOL0     C38929   6.318   7.311   9.541 -1.0955 -0.6150  0.6474
  289MOL0     C38930   6.328   7.424   9.626 -0.7724  0.5627  0.2838
  289MOL0     N38931   6.646   7.833  10.180  0.3741 -0.4957  0.9125
  289MOL0     N38932   6.764   7.861  10.225 -0.1801 -0.5053 -0.3687
  289MOL0     C38933   7.354   8.829  10.680  0.0709 -0.1363 -0.1067
  289MOL0     C38934   7.443   8.899  10.767  0.6014  0.1846  0.7013
  289MOL0     C38935   7.828   8.954  11.008  0.3516 -0.0294  0.1668
  289MOL0     C38936   7.924   8.885  11.077  0.0660  0.3572  0.6550
  289MOL0     C38937   8.006   8.941  11.169 -0.3540 -0.1228 -0.1282
  289MOL0     C38938   7.992   9.069  11.208  1.3837 -0.2678  0.0231
  289MOL0     O38939   8.060   9.139  11.308  0.2420  0.9363 -1.2003
  289MOL0     C38940   8.194   9.115  11.326 -0.6623  0.2156  0.6304
  289MOL0     C38941   8.256   9.188  11.446 -0.1512  0.5848 -0.5416
  289MOL0     C38942   8.401   9.135  11.463  0.3885  0.2799  0.4383
  289MOL0     C38943   8.481   9.221  11.561  0.1058 -0.1211 -0.6288
  289MOL0     C38944   8.619   9.190  11.559 -0.3507 -0.2699 -0.1015
  289MOL0     C38945   8.733   9.146  11.542  0.5771 -0.5526 -0.3414
  289MOL0     C38946   7.897   9.152  11.141 -0.8222  0.2123  0.2084
  289MOL0     C38947   7.824   9.092  11.037 -0.3559  0.4360 -0.3760
  289MOL0     H38948   7.745   8.783  10.668 -0.0088  1.6206 -1.7052
  289MOL0     H38949   7.606   8.668  10.509 -1.1105 -0.8558  0.2742
  289MOL0     H38950   7.452   8.662  10.329  0.4046 -1.4526  0.3683
  289MOL0     H38951   7.451   8.509  10.415  2.5162  2.0991  0.9780
  289MOL0     H38952   7.207   8.485  10.341  0.6206 -0.1044 -1.6487
  289MOL0     H38953   7.216   8.641  10.267 -1.1026 -0.2553  1.6939
  289MOL0     H38954   7.409   8.563  10.110 -0.2661 -1.9303 -1.9161
  289MOL0     H38955   7.397   8.404  10.189  1.0382  1.0531 -0.0801
  289MOL0     H38956   7.197   8.527   9.996 -1.6821 -0.5706 -0.0037
  289MOL0     H38957   7.271   8.364  10.000  0.4020  0.2658 -0.6936
  289MOL0     H38958   7.035   8.453  10.167 -0.5574 -2.0933  1.0478
  289MOL0     H38959   7.027   8.377  10.019 -0.8475  1.3162  0.4167
  289MOL0     H38960   7.158   8.188  10.111  0.3064 -1.0141  0.4049
  289MOL0     H38961   7.132   8.247  10.278 -0.7043 -0.5037 -0.1691
  289MOL0     H38962   6.890   8.218  10.256  0.6746 -0.2104 -0.7496
  289MOL0     H38963   6.894   8.214  10.083 -0.9845 -0.0850 -0.1912
  289MOL0     H38964   7.001   7.998  10.266  0.6550  0.7582  0.3272
  289MOL0     H38965   7.022   8.000  10.089 -0.1316  0.9973 -0.0801
  289MOL0     H38966   6.735   8.081   9.992 -1.6070  2.0925  1.6788
  289MOL0     H38967   6.405   7.977  10.070  0.8121  1.0217  0.2032
  289MOL0     H38968   6.487   8.020   9.929 -2.2184  1.6393  0.9409
  289MOL0     H38969   6.433   7.731  10.010 -0.2436  0.4650  0.4437
  289MOL0     H38970   6.552   7.782   9.887  0.2214  1.4106 -0.3301
  289MOL0     H38971   6.395   7.867   9.738  0.5608  0.5498  0.7402
  289MOL0     H38972   6.271   7.864   9.865 -0.3810 -1.2453 -0.5243
  289MOL0     H38973   6.242   7.674   9.712 -1.3945 -2.6695  1.8392
  289MOL0     H38974   6.311   7.593   9.846 -1.2472 -0.3167 -0.9281
  289MOL0     H38975   6.640   7.517   9.588  1.4598  0.0721  0.2475
  289MOL0     H38976   6.722   7.233   9.415 -2.3922 -1.5608 -0.9942
  289MOL0     H38977   6.678   7.365   9.296 -0.1160  0.3578  0.4746
  289MOL0     H38978   6.760   7.393   9.447  2.2235 -2.2828 -2.5505
  289MOL0     H38979   6.452   6.910   9.241  0.6724 -2.0523  1.7234
  289MOL0     H38980   6.382   6.758   9.089  1.1578 -1.1741  2.9097
  289MOL0     H38981   6.222   6.524   8.947  1.2518  3.1526 -0.4811
  289MOL0     H38982   6.300   6.557   9.101 -0.6071  0.2359 -1.2525
  289MOL0     H38983   6.208   6.324   9.061  1.0035 -1.1981  2.1772
  289MOL0     H38984   6.161   6.415   9.212 -0.4635  1.0463  0.2484
  289MOL0     H38985   5.951   6.464   9.089 -0.9329 -1.6732  2.3567
  289MOL0     H38986   5.960   6.300   9.141 -3.0019 -0.3066 -2.2941
  289MOL0     H38987   6.012   6.409   8.866  1.1590 -0.8790  0.6665
  289MOL0     H38988   6.048   6.244   8.907 -0.3454 -1.6496  0.9295
  289MOL0     H38989   5.768   6.377   8.952  4.0603  3.0541 -0.1856
  289MOL0     H38990   5.797   6.211   8.969  0.0939  0.6882 -0.8612
  289MOL0     H38991   5.834   6.373   8.702  1.0087  0.1425  0.7411
  289MOL0     H38992   5.849   6.203   8.712  3.4741  2.0578  1.0523
  289MOL0     H38993   5.615   6.312   8.653 -2.4693  0.9261  0.7644
  289MOL0     H38994   5.588   6.330   8.826 -0.7637 -0.5837 -0.4668
  289MOL0     H38995   5.492   6.111   8.762  0.9905 -0.0899  3.1695
  289MOL0     H38996   5.628   6.087   8.864 -1.2344 -0.3606  1.0284
  289MOL0     H38997   5.969   6.836   9.181  0.6539  0.2152 -0.2649
  289MOL0     H38998   6.045   7.040   9.315  1.4294  0.6228  1.4439
  289MOL0     H38999   6.229   7.250   9.534 -1.4611  0.1356 -3.0851
  289MOL0     H39000   6.231   7.451   9.666 -2.0012  0.4415 -2.4080
  289MOL0     H39001   7.247   8.843  10.676  0.3746  3.8747  1.0896
  289MOL0     H39002   7.384   8.962  10.833  0.4666  0.3805  0.3937
  289MOL0     H39003   7.946   8.783  11.047  1.3717  1.5005 -2.7696
  289MOL0     H39004   8.086   8.878  11.205 -0.7767  0.7913  2.7368
  289MOL0     H39005   8.207   9.007  11.323 -0.8485  0.2069 -0.5309
  289MOL0     H39006   8.254   9.150  11.241  1.8196 -2.0168  1.3489
  289MOL0     H39007   8.207   9.179  11.544 -1.6383  0.3274 -1.2707
  289MOL0     H39008   8.259   9.296  11.430  0.4499  0.6595  0.0618
  289MOL0     H39009   8.456   9.125  11.369 -0.9332 -1.4557 -0.2100
  289MOL0     H39010   8.397   9.034  11.503  4.1698 -0.3857 -0.5479
  289MOL0     H39011   8.443   9.199  11.662  1.4935 -2.6832 -0.5726
  289MOL0     H39012   8.467   9.324  11.527 -2.0304 -1.3319 -3.8671
  289MOL0     H39013   8.827   9.096  11.538  2.5078  2.4419  2.6670
  289MOL0     H39014   7.876   9.255  11.165 -1.5040  0.0367  0.3756
  289MOL0     H39015   7.761   9.156  10.977  0.9068  3.9484  1.7767
  290MOL0     O39016   5.968  11.083   9.552  0.1230  0.6767 -0.4690
  290MOL0     C39017   5.959  10.987   9.630  0.1846 -0.4397  0.8581
  290MOL0     O39018   5.848  10.915   9.664 -0.4319 -0.0874  0.1049
  290MOL0     C39019   5.731  10.939   9.603 -0.0348  0.1109 -0.0387
  290MOL0     C39020   5.719  10.915   9.466  0.8041  0.3093  0.0579
  290MOL0     C39021   5.604  10.929   9.398 -0.5041 -0.9095  1.3404
  290MOL0     C39022   5.497  10.973   9.465  0.6807  0.2184 -0.0629
  290MOL0     O39023   5.391  11.009   9.387 -0.3159 -0.2960 -0.1639
  290MOL0     C39024   5.304  10.891   9.368  1.3403 -0.1123  0.5735
  290MOL0     C39025   5.201  10.911   9.254 -0.5364  0.3505 -0.0512
  290MOL0     C39026   5.272  10.918   9.115  0.6414 -0.3391 -0.6272
  290MOL0     C39027   5.286  10.773   9.055  0.4183 -0.3198 -1.0996
  290MOL0     C39028   5.357  10.771   8.921  0.2046  1.0320  0.3452
  290MOL0     C39029   5.508  10.816   8.935 -0.3625  0.4609 -1.2773
  290MOL0     C39030   5.598  10.796   8.810  0.1371  0.7890  0.7914
  290MOL0     C39031   5.621  10.648   8.768  0.3768  0.2437  0.2390
  290MOL0     N39032   5.633  10.550   8.879 -0.0776  0.1868 -0.0202
  290MOL0     C39033   5.729  10.567   8.982 -0.4095 -0.0935  0.8092
  290MOL0     C39034   5.708  10.467   9.066  0.1247 -0.7647 -0.4619
  290MOL0     C39035   5.786  10.435   9.198 -0.3386 -0.4121  0.3157
  290MOL0     C39036   5.731  10.513   9.326 -0.0803 -0.1737  0.3926
  290MOL0     C39037   5.574  10.521   9.336 -1.2052  0.0189 -0.0416
  290MOL0     C39038   5.532  10.581   9.471 -0.2077  0.3835 -0.2368
  290MOL0     O39039   5.388  10.581   9.484  0.3971  0.2203  0.6248
  290MOL0     C39040   5.327  10.610   9.600 -0.5614 -0.3528 -0.8058
  290MOL0     C39041   5.410  10.629   9.714  0.6267  0.2830  0.7854
  290MOL0     C39042   5.362  10.647   9.835 -0.2017 -0.5588 -0.2600
  290MOL0     C39043   5.459  10.689   9.949 -0.3020  0.4697  0.1756
  290MOL0     C39044   5.218  10.655   9.856 -0.8016 -0.0424 -0.3401
  290MOL0     C39045   5.158  10.657   9.981  0.1060  0.5498 -0.0461
  290MOL0     O39046   5.037  10.584   9.998 -0.1813 -0.5120 -0.0798
  290MOL0     C39047   4.981  10.570  10.120 -0.4004  0.8673  0.1500
  290MOL0     C39048   5.054  10.552  10.235  0.3412  0.2078 -0.3146
  290MOL0     C39049   4.991  10.543  10.362 -0.0748 -0.1946  1.0260
  290MOL0     C39050   4.851  10.550  10.368 -0.4738 -1.0197  0.8058
  290MOL0     O39051   4.779  10.557  10.477 -0.7481 -0.0440  0.0317
  290MOL0     C39052   4.834  10.517  10.607  0.6163  1.2617 -0.5096
  290MOL0     C39053   4.721  10.547  10.712 -0.0941  0.9451 -0.5721
  290MOL0     C39054   4.777  10.506  10.850  0.0112 -1.2276  0.7718
  290MOL0     C39055   4.656  10.513  10.957 -1.0872  1.3165  0.5469
  290MOL0     C39056   4.719  10.460  11.083 -0.3226 -0.3019 -0.4916
  290MOL0     C39057   4.613  10.463  11.193  0.1309 -0.5310 -0.4106
  290MOL0     C39058   4.676  10.449  11.329 -0.1879  0.3363 -0.6572
  290MOL0     C39059   4.563  10.429  11.421  0.4774  0.2029 -0.2243
  290MOL0    Cl39060   4.650  10.405  11.583 -0.3003 -0.1335 -0.1917
  290MOL0     C39061   4.778  10.571  10.255 -0.3099  0.9335 -0.4889
  290MOL0     C39062   4.845  10.571  10.128  0.4635  0.0219 -0.4146
  290MOL0     O39063   5.214  10.721  10.067 -0.4262  0.6993 -0.3900
  290MOL0     C39064   5.135  10.639   9.746 -0.3675  0.1141 -0.5697
  290MOL0     C39065   5.186  10.616   9.623 -0.7017 -0.1599  0.2683
  290MOL0     N39066   5.605  10.388   9.022 -0.3687  0.1413  0.4914
  290MOL0     N39067   5.568  10.432   8.905 -0.1143 -0.9837 -0.1514
  290MOL0     C39068   5.504  11.006   9.605  0.6075  0.3383 -0.7529
  290MOL0     C39069   5.624  10.987   9.679  0.4069 -0.2990 -0.0618
  290MOL0     C39070   6.082  10.948   9.701  0.0244 -0.5091  0.2257
  290MOL0     C39071   6.078  10.843   9.785  0.0975  0.0409  0.4133
  290MOL0     C39072   6.198  10.792   9.835 -0.7146  0.0134  0.3633
  290MOL0     C39073   6.321  10.849   9.817  0.2765  0.7884 -0.6869
  290MOL0     O39074   6.437  10.808   9.884 -0.2045 -0.3012  0.2868
  290MOL0     C39075   6.428  10.780  10.025 -0.4428 -0.4906  0.1201
  290MOL0     C39076   6.330  10.862  10.115 -0.1540  1.3985 -0.0978
  290MOL0     C39077   6.387  10.997  10.150  0.3821  0.5552 -0.7371
  290MOL0     C39078   6.519  11.027  10.223  0.7765 -0.7246  0.0087
  290MOL0     C39079   6.513  10.986  10.362  0.2786  0.1503  0.0794
  290MOL0     C39080   6.499  10.960  10.484  0.5424 -0.7447  0.5469
  290MOL0     C39081   6.326  10.962   9.740 -0.1501  0.0253 -0.5003
  290MOL0     C39082   6.205  11.010   9.679  0.9123 -0.9484 -0.4645
  290MOL0     H39083   5.807  10.900   9.404  0.8102  2.7142 -0.6422
  290MOL0     H39084   5.590  10.924   9.290  0.7387 -0.3064  1.1263
  290MOL0     H39085   5.365  10.800   9.367 -0.3749 -1.3035 -0.5947
  290MOL0     H39086   5.238  10.894   9.454  0.8521 -0.2219  0.2056
  290MOL0     H39087   5.128  10.830   9.254 -1.0564  0.8081  0.3545
  290MOL0     H39088   5.148  11.003   9.282  0.7287  1.5501 -1.4310
  290MOL0     H39089   5.205  10.972   9.048 -1.2425  2.2850  3.0320
  290MOL0     H39090   5.372  10.963   9.118  0.5805 -0.1870 -0.8685
  290MOL0     H39091   5.348  10.711   9.120 -1.3716 -1.1624 -0.1128
  290MOL0     H39092   5.193  10.716   9.050 -0.1213  0.3865  0.4052
  290MOL0     H39093   5.351  10.665   8.893  1.3012  0.9073  0.5458
  290MOL0     H39094   5.303  10.833   8.849  1.9779  1.7316 -0.4329
  290MOL0     H39095   5.507  10.923   8.959 -0.1698  0.4171 -1.0632
  290MOL0     H39096   5.547  10.771   9.027 -2.2287  1.0101 -0.1789
  290MOL0     H39097   5.569  10.851   8.720 -1.3763  0.2603  0.9365
  290MOL0     H39098   5.698  10.829   8.838  0.8308  0.9208 -1.6257
  290MOL0     H39099   5.721  10.643   8.725  0.7390  1.3798  0.8869
  290MOL0     H39100   5.537  10.626   8.702  0.2282 -0.0374  0.5199
  290MOL0     H39101   5.797  10.650   8.973 -3.2257  2.2187 -1.1200
  290MOL0     H39102   5.793  10.327   9.215  0.8154 -0.9343 -2.8957
  290MOL0     H39103   5.876  10.487   9.163 -1.0839 -0.6717 -2.1199
  290MOL0     H39104   5.772  10.614   9.321 -1.0659  0.1840 -2.4651
  290MOL0     H39105   5.771  10.455   9.410  2.1245  1.7769  0.7826
  290MOL0     H39106   5.529  10.422   9.327 -0.7642 -0.1549 -0.4036
  290MOL0     H39107   5.532  10.581   9.254 -2.4908  1.9272  1.9045
  290MOL0     H39108   5.576  10.680   9.486  0.0507  0.3386 -0.6841
  290MOL0     H39109   5.570  10.514   9.549  0.3086  0.8897 -0.0485
  290MOL0     H39110   5.518  10.630   9.712  0.6367  1.9973  0.9491
  290MOL0     H39111   5.558  10.668   9.907  0.0997 -3.3338  2.5830
  290MOL0     H39112   5.431  10.791   9.975 -3.6152 -0.8253  2.2422
  290MOL0     H39113   5.452  10.635  10.043  0.0570  2.8115  1.6271
  290MOL0     H39114   5.160  10.530  10.229  0.7401  2.2759 -1.8376
  290MOL0     H39115   5.050  10.513  10.448 -1.7767 -2.8600  1.3869
  290MOL0     H39116   4.843  10.408  10.603  0.4328  1.2702 -1.6284
  290MOL0     H39117   4.925  10.574  10.630  3.0912 -2.0872 -1.2394
  290MOL0     H39118   4.692  10.650  10.691 -0.5421  0.5811 -1.8482
  290MOL0     H39119   4.634  10.484  10.691  1.9676 -1.2695 -3.2339
  290MOL0     H39120   4.846  10.584  10.885 -1.3444  1.2953 -1.7718
  290MOL0     H39121   4.822  10.406  10.844  1.9921 -0.2891 -1.4784
  290MOL0     H39122   4.627  10.616  10.974  1.4193  1.7223  3.2687
  290MOL0     H39123   4.564  10.457  10.936 -0.0946 -0.3078  0.3251
  290MOL0     H39124   4.805  10.524  11.103  1.8848 -3.0544 -0.4666
  290MOL0     H39125   4.760  10.359  11.072 -0.2349 -0.4265  0.8236
  290MOL0     H39126   4.558  10.557  11.190  0.1822 -0.4473 -4.1243
  290MOL0     H39127   4.532  10.392  11.172  0.6647 -1.3770  0.3109
  290MOL0     H39128   4.734  10.534  11.367 -1.0030  0.2711  0.7932
  290MOL0     H39129   4.753  10.371  11.333 -1.2976 -0.8034 -0.7099
  290MOL0     H39130   4.527  10.328  11.398 -3.1132  0.7546  2.0534
  290MOL0     H39131   4.496  10.516  11.428  4.2393  3.4462 -1.2839
  290MOL0     H39132   4.670  10.580  10.258 -0.5601 -1.4958 -0.9117
  290MOL0     H39133   4.774  10.576  10.046 -0.5993 -1.8956  0.3210
  290MOL0     H39134   5.029  10.631   9.767 -0.3413  1.5198  0.1724
  290MOL0     H39135   5.122  10.605   9.535  1.1913  2.0158 -1.5197
  290MOL0     H39136   5.419  11.051   9.654  0.8235 -1.3148  1.2787
  290MOL0     H39137   5.632  11.005   9.786 -0.1587 -2.0728  0.3232
  290MOL0     H39138   5.997  10.779   9.817  1.5331 -0.6414  2.9903
  290MOL0     H39139   6.196  10.698   9.890  1.1992 -0.8032 -0.8830
  290MOL0     H39140   6.387  10.679  10.020 -0.2104 -0.5130 -2.1287
  290MOL0     H39141   6.530  10.771  10.064  0.2056 -0.9486 -1.5894
  290MOL0     H39142   6.300  10.798  10.199  0.7121 -0.2870 -1.0163
  290MOL0     H39143   6.237  10.879  10.060 -1.2174 -2.0522  0.4104
  290MOL0     H39144   6.302  11.039  10.204 -1.1819 -1.5939 -1.3916
  290MOL0     H39145   6.394  11.048  10.053 -1.1805  3.3518  0.4964
  290MOL0     H39146   6.543  11.134  10.223  3.9991 -1.3257  1.3278
  290MOL0     H39147   6.603  10.976  10.174  1.9256  0.0699  1.0753
  290MOL0     H39148   6.513  10.938  10.588  1.1328 -3.1152  0.0424
  290MOL0     H39149   6.417  11.022   9.744  0.7793 -1.3845  0.0194
  290MOL0     H39150   6.206  11.101   9.620 -2.3730 -1.2448 -1.2094
  291MOL0     O39151   8.447   9.180   1.406 -0.3937 -0.0151 -0.0325
  291MOL0     C39152   8.472   9.135   1.294 -0.0429  0.2213 -0.2180
  291MOL0     O39153   8.407   9.039   1.229 -0.0820  0.1328 -0.0246
  291MOL0     C39154   8.303   8.967   1.293  0.0537 -0.4058 -1.2677
  291MOL0     C39155   8.235   8.886   1.202 -0.5272  1.2007 -0.7390
  291MOL0     C39156   8.137   8.796   1.235  0.0096  0.3694 -0.6707
  291MOL0     C39157   8.093   8.788   1.374 -0.1109  0.4275 -0.2061
  291MOL0     O39158   7.995   8.709   1.425  0.2959  0.2697  0.0854
  291MOL0     C39159   7.879   8.708   1.345  0.8166 -0.0248 -0.0774
  291MOL0     C39160   7.803   8.838   1.357  0.0498  0.6112  0.6204
  291MOL0     C39161   7.678   8.849   1.262  0.6552 -0.3167 -0.1911
  291MOL0     C39162   7.570   8.749   1.276 -0.7361 -0.5945  0.0944
  291MOL0     C39163   7.469   8.796   1.174 -0.4033  0.2824 -0.2636
  291MOL0     C39164   7.343   8.730   1.174  0.2134 -0.2813 -1.0666
  291MOL0     C39165   7.351   8.580   1.172  0.3818 -0.7699  0.7224
  291MOL0     C39166   7.373   8.530   1.028 -0.5158  0.7151  0.0588
  291MOL0     N39167   7.507   8.483   0.997  0.4475 -0.4354  0.2790
  291MOL0     C39168   7.603   8.552   0.917  0.9705 -0.9513 -0.0249
  291MOL0     C39169   7.703   8.463   0.894 -0.2747  0.2843 -0.2527
  291MOL0     C39170   7.831   8.486   0.811 -1.8429  0.2712 -1.0118
  291MOL0     C39171   7.953   8.496   0.904 -0.9537  0.0855 -0.2677
  291MOL0     C39172   8.082   8.507   0.814 -0.1768  0.4658  0.2444
  291MOL0     C39173   8.207   8.523   0.891 -0.9405 -0.9966 -0.0232
  291MOL0     O39174   8.318   8.521   0.794 -0.2722 -0.4794 -0.3835
  291MOL0     C39175   8.414   8.609   0.827 -0.7485  0.2027  0.6246
  291MOL0     C39176   8.452   8.627   0.963 -0.0567  0.2348 -0.3053
  291MOL0     C39177   8.579   8.685   1.003  0.2461  0.0769 -0.4228
  291MOL0     C39178   8.598   8.704   1.151 -0.6655 -0.1489  0.0244
  291MOL0     C39179   8.653   8.757   0.896  0.7018 -0.6893  0.1666
  291MOL0     C39180   8.778   8.830   0.916 -0.3730  1.1372 -0.5880
  291MOL0     O39181   8.818   8.913   0.820  0.0261 -0.3952 -0.1445
  291MOL0     C39182   8.920   9.001   0.854 -0.3260  0.5278  0.0563
  291MOL0     C39183   8.931   9.082   0.970  0.1688  0.7517 -1.2263
  291MOL0     C39184   9.027   9.175   0.985  0.1614 -0.2205 -1.4728
  291MOL0     C39185   9.116   9.206   0.885  0.5266 -0.4040 -0.2834
  291MOL0     O39186   9.203   9.310   0.907 -0.2722 -1.0002 -0.1862
  291MOL0     C39187   9.325   9.330   0.829  0.1743  0.2704  0.1016
  291MOL0     C39188   9.304   9.425   0.710 -0.4163  0.0856  0.3220
  291MOL0     C39189   9.423   9.415   0.609 -0.8094 -0.3797  0.6087
  291MOL0     C39190   9.418   9.539   0.513 -0.6127  0.4514  0.3988
  291MOL0     C39191   9.513   9.533   0.400  0.0661  0.6571  0.4744
  291MOL0     C39192   9.439   9.492   0.272 -0.0453  0.0512 -0.3881
  291MOL0     C39193   9.531   9.537   0.151  0.1021  0.0293  0.8217
  291MOL0     C39194   9.469   9.525   0.008  0.2086  0.8821  0.3698
  291MOL0    Cl39195   9.413   9.357  -0.023 -0.2791 -0.3806 -0.6574
  291MOL0     C39196   9.102   9.130   0.762 -0.2986  0.7380  0.6463
  291MOL0     C39197   9.000   9.036   0.748  0.3241  0.9390  0.4934
  291MOL0     O39198   8.842   8.808   1.010  0.0045  0.9733  0.6391
  291MOL0     C39199   8.591   8.758   0.770 -0.6859 -0.0248 -0.0475
  291MOL0     C39200   8.491   8.673   0.730 -0.3118 -0.1618  0.2400
  291MOL0     N39201   7.667   8.343   0.953  0.9255  0.2532  0.1071
  291MOL0     N39202   7.555   8.358   1.007  0.2543  0.3355  0.1315
  291MOL0     C39203   8.170   8.854   1.473 -0.3647 -0.5449  0.2924
  291MOL0     C39204   8.277   8.941   1.436 -0.1817  0.2279 -0.8129
  291MOL0     C39205   8.563   9.222   1.213  0.2337 -0.1423 -0.9940
  291MOL0     C39206   8.668   9.286   1.278 -0.7707  0.1616 -0.0392
  291MOL0     C39207   8.759   9.366   1.212 -0.2400 -0.5586 -0.2543
  291MOL0     C39208   8.757   9.360   1.074 -0.1896  0.2558  0.9102
  291MOL0     O39209   8.851   9.420   0.994 -0.3439 -0.2204  0.4651
  291MOL0     C39210   8.948   9.506   1.034 -1.3896 -0.9353 -0.7445
  291MOL0     C39211   8.909   9.651   1.079 -0.0528 -0.1099  0.2957
  291MOL0     C39212   9.037   9.715   1.146  0.3886  0.2460  0.2407
  291MOL0     C39213   9.023   9.854   1.179 -0.5639 -0.8293 -0.3983
  291MOL0     C39214   9.130   9.906   1.268  0.3581 -0.1086  0.4544
  291MOL0     C39215   9.231   9.918   1.332 -0.1483 -0.8014  0.4507
  291MOL0     C39216   8.656   9.295   1.005  0.1472 -0.5373  0.7520
  291MOL0     C39217   8.557   9.221   1.073  0.5521 -0.3729  1.0241
  291MOL0     H39218   8.270   8.890   1.100  0.6553 -1.5993 -0.5381
  291MOL0     H39219   8.110   8.734   1.150  2.2079 -2.3480  0.4536
  291MOL0     H39220   7.910   8.682   1.243  1.5948  0.2098  0.0975
  291MOL0     H39221   7.809   8.633   1.383 -2.3783  2.2558 -1.0086
  291MOL0     H39222   7.760   8.843   1.458  0.3604  0.4546  0.7599
  291MOL0     H39223   7.868   8.925   1.350  0.2568  0.6271  2.2274
  291MOL0     H39224   7.637   8.946   1.291 -1.3432 -0.7946 -1.2391
  291MOL0     H39225   7.711   8.860   1.158  0.2265  0.2934 -0.2686
  291MOL0     H39226   7.612   8.649   1.258 -1.3323 -0.5516 -1.6769
  291MOL0     H39227   7.536   8.754   1.380  1.4539  3.7531  0.8593
  291MOL0     H39228   7.442   8.902   1.181 -2.7959 -0.2576 -0.4774
  291MOL0     H39229   7.506   8.775   1.073 -1.0241 -2.2006 -0.0349
  291MOL0     H39230   7.301   8.760   1.270  3.8742  1.9238  0.0408
  291MOL0     H39231   7.280   8.769   1.094 -2.2831 -0.4882  0.6960
  291MOL0     H39232   7.431   8.527   1.225  1.6102 -1.3943 -1.5894
  291MOL0     H39233   7.249   8.554   1.203 -2.1276  5.9678 -0.1450
  291MOL0     H39234   7.347   8.599   0.947 -0.8954 -1.6946 -1.9612
  291MOL0     H39235   7.312   8.440   1.025 -1.3540  1.2257  0.9147
  291MOL0     H39236   7.593   8.657   0.889 -1.2353 -1.7022 -2.4532
  291MOL0     H39237   7.843   8.413   0.730 -0.6442 -0.3341 -0.3260
  291MOL0     H39238   7.820   8.584   0.764 -2.6357  0.4248 -0.5157
  291MOL0     H39239   7.949   8.405   0.964 -4.0309 -0.2409 -0.7872
  291MOL0     H39240   7.940   8.577   0.977  3.9543 -0.5280  1.6580
  291MOL0     H39241   8.076   8.593   0.747  0.8061  2.2794  2.3232
  291MOL0     H39242   8.085   8.423   0.744  0.7771  1.3483 -0.8234
  291MOL0     H39243   8.223   8.445   0.965  0.5167 -0.9718 -0.2716
  291MOL0     H39244   8.198   8.617   0.946 -0.2645 -1.0379  0.1629
  291MOL0     H39245   8.408   8.569   1.043  1.0303 -0.0600  0.0879
  291MOL0     H39246   8.685   8.649   1.189 -1.3334 -1.9091 -0.8738
  291MOL0     H39247   8.613   8.809   1.179  4.8863 -0.6523  0.0956
  291MOL0     H39248   8.518   8.661   1.213  1.7109  1.2247  4.5371
  291MOL0     H39249   8.864   9.058   1.052  1.5519 -1.0839 -0.5741
  291MOL0     H39250   9.036   9.230   1.078  0.6457  0.1728 -1.7543
  291MOL0     H39251   9.406   9.376   0.885 -0.1891  0.6893  0.2948
  291MOL0     H39252   9.355   9.232   0.791 -2.0974 -0.3925 -0.1888
  291MOL0     H39253   9.206   9.398   0.670 -0.7353  1.1111  0.3801
  291MOL0     H39254   9.301   9.530   0.739  1.6504  0.8792 -1.9620
  291MOL0     H39255   9.425   9.325   0.546 -5.2996 -0.5130  0.3787
  291MOL0     H39256   9.516   9.415   0.667 -0.7435 -2.4310  0.5763
  291MOL0     H39257   9.316   9.553   0.476 -0.8070  1.3617  1.2151
  291MOL0     H39258   9.449   9.628   0.569  0.4294  0.5337 -0.2796
  291MOL0     H39259   9.589   9.458   0.424 -1.7362 -1.3778  0.1272
  291MOL0     H39260   9.553   9.634   0.393  1.6613 -0.0250 -1.1882
  291MOL0     H39261   9.401   9.389   0.266 -2.8942  0.9781  0.5998
  291MOL0     H39262   9.353   9.557   0.261  0.9498  1.6002  0.6281
  291MOL0     H39263   9.628   9.489   0.137  0.1377  0.5816 -1.0496
  291MOL0     H39264   9.559   9.643   0.154  0.4600  0.1488 -2.6046
  291MOL0     H39265   9.537   9.552  -0.073 -0.1750  2.2532  0.4779
  291MOL0     H39266   9.384   9.593  -0.003  0.3779  1.1902  0.8613
  291MOL0     H39267   9.159   9.149   0.671  0.4969 -1.3157  0.6704
  291MOL0     H39268   8.989   8.990   0.651 -0.5970  3.5852 -0.7659
  291MOL0     H39269   8.639   8.822   0.696  2.9974  0.5357  2.5886
  291MOL0     H39270   8.460   8.647   0.629 -2.0191  0.3565  0.5902
  291MOL0     H39271   8.160   8.849   1.581  2.9381 -1.2678  0.6670
  291MOL0     H39272   8.348   8.974   1.510 -0.4524 -3.8917  1.6442
  291MOL0     H39273   8.679   9.283   1.386  0.9574 -2.3212 -0.2115
  291MOL0     H39274   8.829   9.423   1.273 -0.8726 -0.7741  0.7005
  291MOL0     H39275   8.992   9.470   1.127  0.0595  1.9330 -0.1956
  291MOL0     H39276   9.031   9.511   0.962  1.5390  2.2108  2.4355
  291MOL0     H39277   8.831   9.650   1.155  0.7340  1.8510  1.2166
  291MOL0     H39278   8.885   9.712   0.991  3.1985  0.5018 -0.3158
  291MOL0     H39279   9.125   9.713   1.082  0.5735 -0.2255  0.5072
  291MOL0     H39280   9.071   9.667   1.238  0.8912 -1.0539 -0.5927
  291MOL0     H39281   8.938   9.865   1.248 -0.7684 -1.3766 -0.5609
  291MOL0     H39282   9.017   9.917   1.090  0.8739  1.2916  0.8996
  291MOL0     H39283   9.320   9.917   1.391 -0.8263 -0.4334  1.5017
  291MOL0     H39284   8.654   9.295   0.897 -1.7374 -0.5332  0.7564
  291MOL0     H39285   8.496   9.153   1.015  1.6427  0.5115 -1.3100
  292MOL0     O39286   0.196   9.044   1.003 -0.8079  0.3106 -0.1999
  292MOL0     C39287   0.208   9.102   0.898  0.1273 -0.3437 -1.0134
  292MOL0     O39288   0.168   9.062   0.771 -0.0648  0.2790  1.0321
  292MOL0     C39289   0.109   8.938   0.750  0.5919 -0.7631 -0.0194
  292MOL0     C39290   0.120   8.828   0.832 -0.0245 -0.5191 -0.7412
  292MOL0     C39291   0.063   8.707   0.793 -0.0696  0.1367  0.0208
  292MOL0     C39292  -0.015   8.702   0.677  0.3501 -0.1499  0.4093
  292MOL0     O39293  -0.090   8.588   0.636 -0.3687 -0.3121  0.2839
  292MOL0     C39294  -0.032   8.459   0.656 -0.7621 -0.1868  0.5402
  292MOL0     C39295  -0.073   8.355   0.546  0.2384  0.6767 -0.6869
  292MOL0     C39296  -0.029   8.396   0.404  0.1388  0.2569 -1.2880
  292MOL0     C39297   0.125   8.404   0.392  0.4516 -0.1690 -0.4581
  292MOL0     C39298   0.166   8.412   0.242  0.2724 -0.4797  0.5705
  292MOL0     C39299   0.309   8.467   0.217  0.3843  0.0551 -0.2927
  292MOL0     C39300   0.308   8.616   0.232  0.2318 -0.6644  0.1505
  292MOL0     C39301   0.446   8.669   0.204 -0.1549  0.0896  0.5037
  292MOL0     N39302   0.441   8.814   0.185 -0.1108 -0.0135  0.8303
  292MOL0     C39303   0.397   8.904   0.274  1.0926 -0.2516  0.7556
  292MOL0     C39304   0.384   9.021   0.214  0.4669 -0.4791 -0.0155
  292MOL0     C39305   0.344   9.148   0.282  0.1987  0.3401 -0.4482
  292MOL0     C39306   0.187   9.138   0.276  0.2593  0.0839 -0.2881
  292MOL0     C39307   0.112   9.250   0.342  0.4981  0.0004 -1.1140
  292MOL0     C39308  -0.035   9.259   0.300  1.1593 -0.1702 -0.5319
  292MOL0     O39309  -0.107   9.138   0.323  1.4659  0.0889 -0.2001
  292MOL0     C39310  -0.242   9.134   0.330  0.2646  0.7129  0.0473
  292MOL0     C39311  -0.302   9.056   0.429  0.3930  0.1197 -0.7711
  292MOL0     C39312  -0.441   9.049   0.457 -1.3371 -0.3283  0.3857
  292MOL0     C39313  -0.497   8.959   0.563 -0.3589  0.4141 -0.3899
  292MOL0     C39314  -0.524   9.124   0.372 -0.3306 -0.5238 -0.3348
  292MOL0     C39315  -0.668   9.142   0.403 -1.0139 -0.6131  0.6571
  292MOL0     O39316  -0.712   9.274   0.378 -0.3899 -0.1851 -0.3185
  292MOL0     C39317  -0.843   9.313   0.414 -1.3369 -1.2161  0.3493
  292MOL0     C39318  -0.879   9.325   0.549  0.0750  0.4178  0.1821
  292MOL0     C39319  -1.003   9.387   0.579 -0.2866  0.1583  0.4458
  292MOL0     C39320  -1.085   9.452   0.487  0.2051 -0.3695  1.4073
  292MOL0     O39321  -1.199   9.524   0.525  0.4780  0.4679 -0.3119
  292MOL0     C39322  -1.326   9.476   0.476 -0.5447  0.7493 -0.0637
  292MOL0     C39323  -1.362   9.343   0.540 -0.4554  0.8245 -0.5792
  292MOL0     C39324  -1.485   9.261   0.489 -0.1464 -0.0762 -0.0380
  292MOL0     C39325  -1.552   9.312   0.356  0.0427 -1.0498 -0.1610
  292MOL0     C39326  -1.633   9.210   0.290  0.7645  0.0886  0.8117
  292MOL0     C39327  -1.742   9.160   0.383 -1.0188  0.3600  0.3352
  292MOL0     C39328  -1.854   9.070   0.304 -0.0772 -0.1283  0.1571
  292MOL0     C39329  -1.899   8.961   0.397 -0.3089 -0.6016 -0.0329
  292MOL0    Cl39330  -1.971   9.040   0.525 -0.0017  0.1073  0.5267
  292MOL0     C39331  -1.053   9.424   0.348 -0.0521 -0.6818  0.4829
  292MOL0     C39332  -0.927   9.363   0.312 -0.3504 -0.0454  1.0502
  292MOL0     O39333  -0.736   9.054   0.443 -0.1245  0.6284 -0.1462
  292MOL0     C39334  -0.471   9.203   0.265 -0.3913 -0.2607  0.5000
  292MOL0     C39335  -0.329   9.207   0.249  0.0144  0.7889  0.0226
  292MOL0     N39336   0.418   9.006   0.084 -0.1097  0.4891 -0.7097
  292MOL0     N39337   0.449   8.884   0.067  1.0721  1.1670 -0.2803
  292MOL0     C39338  -0.032   8.810   0.599 -1.0155 -0.9733 -0.2053
  292MOL0     C39339   0.029   8.937   0.641 -0.3118 -0.1034 -0.2897
  292MOL0     C39340   0.314   9.204   0.897  0.4998 -0.8099  1.7494
  292MOL0     C39341   0.395   9.225   0.782 -0.4666  0.4553  0.1504
  292MOL0     C39342   0.483   9.329   0.773 -0.4214 -0.4973 -0.3639
  292MOL0     C39343   0.505   9.415   0.883  0.0600  0.7612  0.1718
  292MOL0     O39344   0.585   9.516   0.871 -0.9618 -0.5975 -0.0797
  292MOL0     C39345   0.676   9.555   0.975  0.5159  0.0760 -0.1622
  292MOL0     C39346   0.817   9.505   0.959 -0.6077  0.1796  0.0834
  292MOL0     C39347   0.830   9.354   0.995 -0.0846 -0.0462 -0.3845
  292MOL0     C39348   0.982   9.314   1.027  1.1899 -0.5662 -0.4188
  292MOL0     C39349   1.058   9.308   0.904  0.4114 -0.2507  0.3723
  292MOL0     C39350   1.127   9.317   0.803  0.4360  0.8102  0.3948
  292MOL0     C39351   0.430   9.390   1.000  0.2247  0.3825  0.2064
  292MOL0     C39352   0.328   9.287   1.003  0.3572 -0.2605  0.0467
  292MOL0     H39353   0.189   8.830   0.915  0.5718 -1.2650 -1.2051
  292MOL0     H39354   0.073   8.621   0.858  3.5821  0.1276 -0.3517
  292MOL0     H39355   0.077   8.469   0.665 -0.6615 -0.4993 -0.2679
  292MOL0     H39356  -0.071   8.425   0.753 -2.4073  0.9224  0.3052
  292MOL0     H39357  -0.035   8.254   0.565 -0.9142  0.1815 -0.9563
  292MOL0     H39358  -0.181   8.346   0.554  0.5512 -3.3795  2.0060
  292MOL0     H39359  -0.070   8.314   0.344  3.6567 -0.3501 -3.1367
  292MOL0     H39360  -0.084   8.484   0.371  0.7338  0.1645 -2.5803
  292MOL0     H39361   0.152   8.500   0.435  0.9965  0.2485 -1.6769
  292MOL0     H39362   0.180   8.331   0.452  0.7315  0.7640  0.4281
  292MOL0     H39363   0.146   8.316   0.195 -1.2132  0.0506  0.0455
  292MOL0     H39364   0.097   8.475   0.185  2.1003 -0.8957 -2.3059
  292MOL0     H39365   0.383   8.432   0.290  1.6304  0.6655 -1.2286
  292MOL0     H39366   0.336   8.427   0.119  0.9979  0.2378 -0.2010
  292MOL0     H39367   0.241   8.661   0.159  1.1021 -0.4783 -0.5486
  292MOL0     H39368   0.270   8.638   0.332  1.6425  0.9700  0.3616
  292MOL0     H39369   0.493   8.623   0.116  0.5033  4.0366 -1.4654
  292MOL0     H39370   0.518   8.648   0.283  1.0502  3.1706  0.3841
  292MOL0     H39371   0.363   8.897   0.377  1.6797  0.6046  1.0179
  292MOL0     H39372   0.375   9.138   0.386 -0.4923 -2.8209 -0.4445
  292MOL0     H39373   0.393   9.231   0.230  2.9063 -1.2920 -0.6831
  292MOL0     H39374   0.153   9.042   0.316  1.7804 -1.5902 -2.7025
  292MOL0     H39375   0.153   9.136   0.172 -0.8799  1.6568  0.0150
  292MOL0     H39376   0.158   9.349   0.339  1.8069 -0.2229  3.8454
  292MOL0     H39377   0.114   9.233   0.450 -1.8130  1.4686 -0.7462
  292MOL0     H39378  -0.038   9.283   0.193  2.4728 -0.0523 -0.5645
  292MOL0     H39379  -0.081   9.339   0.358 -0.6292 -2.1034  0.8934
  292MOL0     H39380  -0.240   8.985   0.484 -1.8550 -2.1042 -0.9331
  292MOL0     H39381  -0.405   8.910   0.597 -0.9067 -2.8788 -3.1406
  292MOL0     H39382  -0.547   9.006   0.648  0.2593 -1.1829  0.9274
  292MOL0     H39383  -0.561   8.879   0.526  0.3930 -2.0019  3.0485
  292MOL0     H39384  -0.823   9.286   0.633 -0.7906  1.4081  1.2594
  292MOL0     H39385  -1.032   9.394   0.684  2.6305 -2.1307  1.5550
  292MOL0     H39386  -1.401   9.550   0.506  0.6406  0.9720  2.6467
  292MOL0     H39387  -1.333   9.467   0.367  0.9510  1.3716 -0.2394
  292MOL0     H39388  -1.271   9.285   0.524 -0.6822  0.8668 -2.1353
  292MOL0     H39389  -1.384   9.345   0.648 -2.0307  2.0342 -0.8748
  292MOL0     H39390  -1.558   9.241   0.568 -0.2194  1.5611  0.3258
  292MOL0     H39391  -1.443   9.164   0.459  0.7140  1.0493 -2.7935
  292MOL0     H39392  -1.607   9.406   0.371  0.7984 -0.3866 -1.3465
  292MOL0     H39393  -1.480   9.335   0.276  1.2706  1.5417  1.5655
  292MOL0     H39394  -1.587   9.120   0.248 -0.0882 -0.6858  1.4956
  292MOL0     H39395  -1.685   9.243   0.200 -2.2350 -3.6571  0.9086
  292MOL0     H39396  -1.699   9.096   0.459 -3.3810  1.5356  2.8172
  292MOL0     H39397  -1.793   9.243   0.434  0.0741  1.2454  0.0351
  292MOL0     H39398  -1.801   9.033   0.216 -0.6110  1.6624 -0.9766
  292MOL0     H39399  -1.946   9.121   0.273 -0.2272 -1.1321 -1.1718
  292MOL0     H39400  -1.815   8.904   0.436 -0.4901 -0.1478  1.0550
  292MOL0     H39401  -1.971   8.898   0.345  1.8904 -1.8852 -1.6975
  292MOL0     H39402  -1.126   9.455   0.275  0.6736  0.1360  0.0799
  292MOL0     H39403  -0.883   9.367   0.213  2.7373  0.8468  2.3468
  292MOL0     H39404  -0.541   9.267   0.213 -1.2225 -1.5185  0.0013
  292MOL0     H39405  -0.295   9.262   0.162 -2.3170 -1.7738 -2.7064
  292MOL0     H39406  -0.089   8.805   0.506 -0.9214  1.5291 -0.4627
  292MOL0     H39407   0.028   9.032   0.588  1.4812  0.2928  0.3065
  292MOL0     H39408   0.372   9.166   0.693  0.9039  0.3757 -0.1789
  292MOL0     H39409   0.539   9.333   0.679  0.9149 -5.1022  0.0096
  292MOL0     H39410   0.682   9.664   0.981  1.9652 -0.0490  1.5323
  292MOL0     H39411   0.644   9.514   1.071  1.3460 -2.5996 -0.9500
  292MOL0     H39412   0.892   9.558   1.019  4.0139 -4.5746 -0.7467
  292MOL0     H39413   0.839   9.515   0.853 -0.7347  2.1727  0.2116
  292MOL0     H39414   0.783   9.291   0.920 -1.0241  2.0528 -1.6683
  292MOL0     H39415   0.767   9.327   1.080 -0.0562  0.3693 -0.2252
  292MOL0     H39416   0.978   9.210   1.059  2.3831 -0.8950 -1.2798
  292MOL0     H39417   1.023   9.385   1.099  0.0073 -0.5366  0.2503
  292MOL0     H39418   1.181   9.318   0.711 -1.9399  1.2564 -1.0712
  292MOL0     H39419   0.435   9.460   1.082 -1.5198 -0.7673  1.3552
  292MOL0     H39420   0.259   9.288   1.087  2.5679  1.4031  1.9676
  293MOL0     O39421   2.755   0.923   1.907 -0.3936 -0.2693  0.0051
  293MOL0     C39422   2.692   0.874   2.002  0.1402  0.4294 -0.0854
  293MOL0     O39423   2.752   0.800   2.107 -0.1321  0.0039 -0.4016
  293MOL0     C39424   2.877   0.760   2.076 -0.1909  0.8731  0.3290
  293MOL0     C39425   2.982   0.843   2.115  0.8425  0.4871  0.3713
  293MOL0     C39426   3.115   0.814   2.079  0.1129  0.4148 -0.0712
  293MOL0     C39427   3.148   0.702   2.003  0.4498 -0.3217  0.0142
  293MOL0     O39428   3.277   0.683   1.962  1.4524 -0.4778 -0.5335
  293MOL0     C39429   3.381   0.714   2.066  0.9728  0.0646 -0.0347
  293MOL0     C39430   3.498   0.619   2.030 -0.1545  0.4291 -0.3547
  293MOL0     C39431   3.616   0.658   2.114  0.3052 -0.2703 -0.5615
  293MOL0     C39432   3.738   0.581   2.093 -0.3175  0.3872  0.1979
  293MOL0     C39433   3.821   0.597   2.219 -0.1862 -0.2703  0.7712
  293MOL0     C39434   3.943   0.510   2.206  0.7449 -0.3998  0.2072
  293MOL0     C39435   4.035   0.523   2.331  0.0516 -0.7419 -0.2818
  293MOL0     C39436   4.091   0.667   2.352 -0.9789  0.3104 -0.3253
  293MOL0     N39437   4.202   0.701   2.263 -0.3101 -0.4384 -0.1065
  293MOL0     C39438   4.342   0.726   2.293  0.1588  0.1152 -0.4955
  293MOL0     C39439   4.400   0.800   2.193  0.6317 -1.0618  0.1257
  293MOL0     C39440   4.529   0.877   2.194 -0.1667  0.5027 -0.1257
  293MOL0     C39441   4.632   0.800   2.269  0.9221 -0.0573  0.1898
  293MOL0     C39442   4.662   0.871   2.406  0.9031  0.5952  0.6248
  293MOL0     C39443   4.753   0.787   2.486 -0.1293  0.0330 -0.3418
  293MOL0     O39444   4.869   0.755   2.413 -0.1120  0.0387 -0.5938
  293MOL0     C39445   4.959   0.697   2.498 -0.6998 -0.1309  0.1683
  293MOL0     C39446   5.077   0.776   2.518 -0.8066 -0.1483  0.5582
  293MOL0     C39447   5.189   0.736   2.586  0.3998  0.0455 -0.0585
  293MOL0     C39448   5.320   0.822   2.600 -0.1363  0.7292 -0.1666
  293MOL0     C39449   5.163   0.624   2.668 -0.6285  0.3237  0.1409
  293MOL0     C39450   5.250   0.586   2.788 -0.3608 -0.6416  0.4274
  293MOL0     O39451   5.205   0.480   2.853 -0.8681  0.8004 -0.0017
  293MOL0     C39452   5.244   0.460   2.984 -0.0705  0.8066  0.1553
  293MOL0     C39453   5.258   0.566   3.079 -0.0311  0.3532 -0.0035
  293MOL0     C39454   5.295   0.543   3.212  0.2876  0.3464 -0.2826
  293MOL0     C39455   5.310   0.407   3.251 -0.5575 -0.6186  1.1883
  293MOL0     O39456   5.319   0.390   3.385 -0.8159 -0.4105  0.0515
  293MOL0     C39457   5.214   0.319   3.445 -0.0432 -0.0048 -0.8731
  293MOL0     C39458   5.270   0.183   3.492  0.6795  0.0845  0.4721
  293MOL0     C39459   5.162   0.085   3.549 -0.4618 -0.8485  0.0815
  293MOL0     C39460   5.103  -0.006   3.442  0.4597 -0.5153 -0.0482
  293MOL0     C39461   5.013  -0.101   3.517 -0.0651  0.0246 -0.2523
  293MOL0     C39462   4.927  -0.180   3.415 -0.6524 -0.1224  0.2684
  293MOL0     C39463   4.860  -0.295   3.474  1.0609 -0.4368 -0.2507
  293MOL0     C39464   4.762  -0.352   3.365 -0.0871  0.4019 -0.2750
  293MOL0    Cl39465   4.605  -0.277   3.379  0.3957 -0.2256 -0.0983
  293MOL0     C39466   5.303   0.299   3.158 -0.5938 -0.6231  1.0470
  293MOL0     C39467   5.270   0.328   3.025 -0.3060 -0.3411  0.6509
  293MOL0     O39468   5.349   0.658   2.826  0.1111 -0.3564 -0.1794
  293MOL0     C39469   5.059   0.534   2.641  0.2709 -0.6856 -1.1214
  293MOL0     C39470   4.957   0.572   2.557  0.4899 -0.0919 -0.7337
  293MOL0     N39471   4.301   0.802   2.091 -0.1362 -0.2049 -1.3658
  293MOL0     N39472   4.192   0.745   2.135  0.4704 -0.5334 -0.0209
  293MOL0     C39473   3.050   0.623   1.955 -0.7435 -0.0417 -0.9307
  293MOL0     C39474   2.915   0.642   1.991  0.1805 -0.2915  0.0254
  293MOL0     C39475   2.536   0.881   2.013  0.0101 -0.0842  0.0098
  293MOL0     C39476   2.464   0.813   2.114 -0.2119 -0.9006  0.7936
  293MOL0     C39477   2.321   0.839   2.115  1.2906 -0.0809 -0.2094
  293MOL0     C39478   2.254   0.923   2.025 -0.2129  0.3651 -0.6005
  293MOL0     O39479   2.113   0.920   2.034 -0.8212  0.1648 -0.1941
  293MOL0     C39480   2.043   1.027   1.983 -0.0376  0.0360  0.2163
  293MOL0     C39481   1.943   1.073   2.093 -0.0635 -0.0911 -0.0173
  293MOL0     C39482   1.909   1.217   2.095  0.4949  0.9111  0.3779
  293MOL0     C39483   1.834   1.265   1.967 -0.9778 -0.2507 -0.3935
  293MOL0     C39484   1.797   1.407   1.982  0.2244  0.7542  0.0918
  293MOL0     C39485   1.754   1.520   1.972 -0.0221  0.0233 -0.1847
  293MOL0     C39486   2.326   0.981   1.925  0.7096  0.2607  0.3789
  293MOL0     C39487   2.460   0.960   1.921  0.5139 -0.1006  0.7639
  293MOL0     H39488   2.942   0.919   2.181 -0.2918  0.0660  0.1853
  293MOL0     H39489   3.189   0.883   2.118  1.5446 -1.3961  0.5442
  293MOL0     H39490   3.407   0.820   2.056 -2.2975  1.1383  1.4977
  293MOL0     H39491   3.343   0.703   2.168 -0.4722 -0.4142 -0.6026
  293MOL0     H39492   3.477   0.514   2.055  1.5424  0.0477 -0.4488
  293MOL0     H39493   3.521   0.631   1.924 -1.7162  3.3711 -0.4693
  293MOL0     H39494   3.635   0.764   2.092 -3.8012  0.5712 -0.9136
  293MOL0     H39495   3.585   0.647   2.218  1.7586 -2.3335 -0.2950
  293MOL0     H39496   3.712   0.475   2.084  1.6821 -0.0168 -1.5623
  293MOL0     H39497   3.777   0.611   1.996  3.2814  0.6368  1.5821
  293MOL0     H39498   3.845   0.702   2.237 -2.5243  0.2078  1.4571
  293MOL0     H39499   3.757   0.563   2.301 -2.0249  0.8226 -0.1315
  293MOL0     H39500   3.917   0.406   2.187  0.3149 -0.6098  1.7398
  293MOL0     H39501   4.006   0.563   2.134  1.6857 -0.3964  1.0131
  293MOL0     H39502   3.972   0.491   2.415  0.3503 -0.8309 -0.0893
  293MOL0     H39503   4.115   0.449   2.342  1.2015  0.6386  1.1452
  293MOL0     H39504   4.129   0.666   2.455 -1.7830  1.5445 -0.0014
  293MOL0     H39505   4.014   0.742   2.336 -1.4530  0.3959  2.0581
  293MOL0     H39506   4.388   0.711   2.390  0.6113 -2.6269 -1.0411
  293MOL0     H39507   4.552   0.900   2.090  0.6820 -0.7486 -0.2374
  293MOL0     H39508   4.509   0.967   2.254  2.9095 -0.9905  3.5841
  293MOL0     H39509   4.726   0.809   2.214  1.7846 -0.4364  1.5402
  293MOL0     H39510   4.603   0.695   2.277  1.5820 -0.1799  1.3609
  293MOL0     H39511   4.566   0.878   2.458 -0.1306  1.4513 -1.3004
  293MOL0     H39512   4.698   0.970   2.378 -1.8571  1.5670  0.2153
  293MOL0     H39513   4.708   0.695   2.525  0.1209 -0.6384 -1.5891
  293MOL0     H39514   4.773   0.847   2.576 -0.8914  0.8088 -0.6754
  293MOL0     H39515   5.085   0.863   2.454 -3.4480 -0.2554 -0.0189
  293MOL0     H39516   5.401   0.749   2.607 -1.9186 -1.5474 -1.5741
  293MOL0     H39517   5.332   0.884   2.510 -1.2441  1.9092  0.4707
  293MOL0     H39518   5.312   0.875   2.695  1.0830 -1.0378  0.9974
  293MOL0     H39519   5.243   0.672   3.063 -3.7858 -0.0433  0.0140
  293MOL0     H39520   5.281   0.632   3.273  0.0804 -1.0296  1.7532
  293MOL0     H39521   5.170   0.368   3.533 -1.7755  3.4518 -3.3959
  293MOL0     H39522   5.130   0.307   3.376 -0.1171 -1.6833 -0.5370
  293MOL0     H39523   5.315   0.133   3.406 -0.6464 -2.2400  1.0385
  293MOL0     H39524   5.350   0.195   3.565  0.4267 -2.0246  1.1865
  293MOL0     H39525   5.082   0.149   3.587  2.1448  1.4638  2.0862
  293MOL0     H39526   5.209   0.037   3.635  0.0847 -0.3150  0.0904
  293MOL0     H39527   5.047   0.050   3.366 -1.7422 -0.6235  1.4056
  293MOL0     H39528   5.180  -0.055   3.381  2.7881  3.0153 -0.2655
  293MOL0     H39529   4.948  -0.039   3.578 -0.5236  0.3441 -1.0451
  293MOL0     H39530   5.067  -0.177   3.573 -1.5806  0.7196  2.2999
  293MOL0     H39531   4.856  -0.105   3.378  3.1875  2.3524 -2.8469
  293MOL0     H39532   4.983  -0.217   3.329 -0.6435 -0.2718  0.3393
  293MOL0     H39533   4.795  -0.271   3.559 -1.1261  1.0819 -2.2126
  293MOL0     H39534   4.940  -0.363   3.504  1.8678  0.1473 -1.0301
  293MOL0     H39535   4.766  -0.460   3.378  4.1553  0.6829  3.5471
  293MOL0     H39536   4.802  -0.331   3.265 -0.1913  1.1375 -0.1676
  293MOL0     H39537   5.305   0.196   3.191  0.9899 -1.2247 -0.7562
  293MOL0     H39538   5.267   0.249   2.951 -0.1837 -0.5473  0.8649
  293MOL0     H39539   5.023   0.460   2.711 -1.5573  0.8072 -0.3858
  293MOL0     H39540   4.876   0.500   2.549  0.5036 -0.0089 -1.7621
  293MOL0     H39541   3.057   0.550   1.875 -1.2498  1.0717 -2.0303
  293MOL0     H39542   2.838   0.580   1.946  1.9620 -1.6103 -1.3873
  293MOL0     H39543   2.520   0.745   2.177 -0.0585 -0.5193  1.0751
  293MOL0     H39544   2.260   0.793   2.193  0.4149  0.4628 -0.5648
  293MOL0     H39545   2.116   1.108   1.974  1.3233 -1.2610 -0.7852
  293MOL0     H39546   2.002   0.999   1.886  1.5672 -3.4032  0.3879
  293MOL0     H39547   1.997   1.058   2.187  0.3736 -0.7008 -0.3614
  293MOL0     H39548   1.856   1.008   2.085 -2.2102  2.5745  0.0853
  293MOL0     H39549   2.001   1.275   2.103  1.1727 -0.3815  2.4602
  293MOL0     H39550   1.835   1.248   2.169  0.5094  3.3877 -0.5416
  293MOL0     H39551   1.750   1.200   1.941  1.4235 -3.5102 -0.6357
  293MOL0     H39552   1.899   1.265   1.880 -0.2853 -2.1677  0.0588
  293MOL0     H39553   1.719   1.616   1.939  2.1082  0.9723  0.1400
  293MOL0     H39554   2.282   1.042   1.847  1.0523 -1.4261 -1.2025
  293MOL0     H39555   2.512   1.004   1.837 -0.5625 -1.5590 -0.7194
  294MOL0     O39556   2.601   3.675   8.121 -0.3230 -0.5956 -0.3662
  294MOL0     C39557   2.640   3.616   8.023 -0.4570  0.1264  0.1302
  294MOL0     O39558   2.573   3.600   7.906  0.2149 -0.2856  0.4516
  294MOL0     C39559   2.449   3.650   7.909  0.3068  1.1227 -0.0937
  294MOL0     C39560   2.428   3.785   7.878  1.2532  0.5667  0.6657
  294MOL0     C39561   2.302   3.842   7.904 -0.3198 -0.3167  0.0057
  294MOL0     C39562   2.199   3.769   7.956  0.1939  0.0467 -0.9178
  294MOL0     O39563   2.076   3.826   7.969  0.5965  0.0112  0.6305
  294MOL0     C39564   1.958   3.771   8.026  0.1113  0.6701  0.6269
  294MOL0     C39565   1.841   3.877   8.016 -0.9625  0.4767  0.8721
  294MOL0     C39566   1.802   3.905   7.874 -0.6299 -0.1064 -0.0771
  294MOL0     C39567   1.664   3.988   7.858 -0.0372  0.2745 -0.8139
  294MOL0     C39568   1.615   4.000   7.718 -0.4618 -0.8065  0.2488
  294MOL0     C39569   1.467   4.030   7.710 -0.3816 -0.4171  0.1927
  294MOL0     C39570   1.418   4.040   7.560 -0.7220 -0.4134  1.1336
  294MOL0     C39571   1.280   4.112   7.548  0.4371 -0.0163 -0.0010
  294MOL0     N39572   1.238   4.147   7.413 -0.7242 -0.6766 -0.0261
  294MOL0     C39573   1.208   4.057   7.320  0.5465 -0.0397  0.4115
  294MOL0     C39574   1.150   4.142   7.219  0.2373  0.3929  0.3269
  294MOL0     C39575   1.078   4.105   7.095  0.2112 -0.2874 -0.0951
  294MOL0     C39576   0.946   4.181   7.092  0.3836 -0.5599 -0.1947
  294MOL0     C39577   0.942   4.299   7.006  0.3470 -0.7999  1.2368
  294MOL0     C39578   0.811   4.370   7.000 -1.3454 -0.6293 -0.0302
  294MOL0     O39579   0.721   4.288   6.930 -0.8494  0.1074  0.2861
  294MOL0     C39580   0.599   4.348   6.896 -0.8035  0.5375 -0.4508
  294MOL0     C39581   0.568   4.483   6.895 -0.6715 -0.4531  0.7012
  294MOL0     C39582   0.439   4.537   6.866  0.7500 -0.2841 -0.3434
  294MOL0     C39583   0.412   4.682   6.873 -0.0774  0.3224 -0.8854
  294MOL0     C39584   0.335   4.439   6.841  0.1532 -1.1979  0.0491
  294MOL0     C39585   0.194   4.473   6.847  0.2325  0.3193  0.0817
  294MOL0     O39586   0.106   4.375   6.892 -0.6341  0.2988  0.2454
  294MOL0     C39587  -0.033   4.390   6.857 -0.7231  0.4554  0.0899
  294MOL0     C39588  -0.127   4.403   6.952  0.2199  0.7119  0.0359
  294MOL0     C39589  -0.269   4.397   6.920  0.4209  0.1880  0.7805
  294MOL0     C39590  -0.304   4.391   6.783 -0.4099 -0.2781 -0.2089
  294MOL0     O39591  -0.429   4.401   6.740  0.7658 -0.2565 -0.6662
  294MOL0     C39592  -0.536   4.351   6.828 -0.3461 -0.4972  0.2388
  294MOL0     C39593  -0.643   4.279   6.750  0.1393  0.5586 -0.4030
  294MOL0     C39594  -0.750   4.209   6.845 -0.6465  0.2299 -0.5848
  294MOL0     C39595  -0.820   4.304   6.945 -0.5225 -0.6344 -0.5179
  294MOL0     C39596  -0.915   4.402   6.859  0.1464  0.0422 -0.3875
  294MOL0     C39597  -0.981   4.497   6.957  0.5325 -0.8720  0.5758
  294MOL0     C39598  -1.098   4.573   6.886  0.5972  1.7499 -0.8230
  294MOL0     C39599  -1.056   4.689   6.806 -0.5117  0.0222  0.3792
  294MOL0    Cl39600  -1.203   4.800   6.764 -0.3411 -0.0913  0.1956
  294MOL0     C39601  -0.211   4.377   6.685 -0.5131  0.4301  0.4832
  294MOL0     C39602  -0.079   4.375   6.727  0.1763  0.0454  0.4217
  294MOL0     O39603   0.160   4.589   6.820 -0.3452 -0.3990 -1.0847
  294MOL0     C39604   0.370   4.308   6.828  0.2677 -0.0588 -0.2922
  294MOL0     C39605   0.498   4.261   6.849 -0.4473  0.8103  0.0340
  294MOL0     N39606   1.157   4.271   7.265 -0.2703 -0.5253  0.4092
  294MOL0     N39607   1.216   4.273   7.378 -0.4481 -0.5745 -0.0987
  294MOL0     C39608   2.218   3.631   7.988 -1.0898  0.4185  0.4630
  294MOL0     C39609   2.344   3.576   7.965 -0.1739 -0.0319  0.0580
  294MOL0     C39610   2.776   3.561   8.021  0.5155  0.2406 -0.1075
  294MOL0     C39611   2.835   3.484   7.914 -0.3950 -0.0132 -1.1616
  294MOL0     C39612   2.972   3.435   7.921  0.4548 -0.5452  0.6727
  294MOL0     C39613   3.055   3.471   8.023  0.1759  0.2903 -0.2536
  294MOL0     O39614   3.175   3.417   8.035 -0.9001  0.0336 -0.1545
  294MOL0     C39615   3.267   3.458   7.928 -0.4085 -0.6346 -0.2539
  294MOL0     C39616   3.363   3.341   7.907  0.3719  0.5034 -0.2394
  294MOL0     C39617   3.406   3.293   7.765 -1.4649 -0.2916 -0.0093
  294MOL0     C39618   3.517   3.183   7.765  0.2678  0.3491 -0.4785
  294MOL0     C39619   3.647   3.219   7.824 -0.3927 -0.2319  0.2904
  294MOL0     C39620   3.752   3.250   7.870 -0.0495 -0.9614 -0.0682
  294MOL0     C39621   2.994   3.535   8.127 -0.5719 -0.7954 -0.8336
  294MOL0     C39622   2.863   3.580   8.126  0.1024 -0.3601 -0.4593
  294MOL0     H39623   2.503   3.844   7.827 -1.5269  2.1372 -1.9459
  294MOL0     H39624   2.283   3.944   7.870 -2.7210 -0.2918  1.2046
  294MOL0     H39625   1.942   3.681   7.966 -1.1680  1.0438  0.3786
  294MOL0     H39626   1.975   3.750   8.132 -1.4288  6.2178  2.2978
  294MOL0     H39627   1.750   3.852   8.070 -0.5462  1.2526  1.9867
  294MOL0     H39628   1.868   3.972   8.063 -0.2804  0.1767  1.1036
  294MOL0     H39629   1.873   3.967   7.817 -0.9375  0.8632  0.5586
  294MOL0     H39630   1.796   3.811   7.820 -3.2322 -0.6706  1.0370
  294MOL0     H39631   1.585   3.943   7.918  0.6124  1.4134  0.9499
  294MOL0     H39632   1.687   4.087   7.898 -3.1837  1.3133 -1.2988
  294MOL0     H39633   1.682   4.073   7.671  0.5750 -2.1150 -0.3473
  294MOL0     H39634   1.638   3.906   7.667  0.3346  0.1462 -1.2188
  294MOL0     H39635   1.408   3.957   7.765 -1.4331 -0.3946 -0.8639
  294MOL0     H39636   1.448   4.127   7.757 -0.1698  0.0297 -0.6217
  294MOL0     H39637   1.491   4.095   7.500 -0.5236 -1.2166  0.6261
  294MOL0     H39638   1.406   3.938   7.524  0.6790 -0.6328  1.2408
  294MOL0     H39639   1.288   4.195   7.619  3.1173  0.1370 -0.3860
  294MOL0     H39640   1.208   4.038   7.585 -1.7454  0.7612 -2.4150
  294MOL0     H39641   1.229   3.951   7.321 -2.6704 -0.7722  1.7934
  294MOL0     H39642   1.131   4.116   7.000 -0.6326  0.3478 -0.5070
  294MOL0     H39643   1.050   3.999   7.093  1.0340 -0.4973 -1.3259
  294MOL0     H39644   0.915   4.213   7.191  3.5743 -1.4701  1.2203
  294MOL0     H39645   0.863   4.127   7.046 -1.7081  1.6559  0.7506
  294MOL0     H39646   0.964   4.276   6.901 -2.1365 -1.5281  0.7999
  294MOL0     H39647   1.003   4.374   7.057  0.6895 -0.7021  0.6976
  294MOL0     H39648   0.838   4.463   6.950 -3.0620  0.8083  1.5661
  294MOL0     H39649   0.778   4.400   7.100  0.1757 -1.1220  0.6628
  294MOL0     H39650   0.644   4.553   6.928 -2.2657  1.8830 -0.3270
  294MOL0     H39651   0.364   4.707   6.969  0.6524  0.3831 -0.5267
  294MOL0     H39652   0.504   4.741   6.865 -0.2647  0.4938 -1.8288
  294MOL0     H39653   0.349   4.713   6.789 -2.3099  0.9485  0.9188
  294MOL0     H39654  -0.101   4.420   7.056 -1.5473 -2.5118  1.1476
  294MOL0     H39655  -0.339   4.399   7.003  0.7710 -0.9252  1.1072
  294MOL0     H39656  -0.503   4.275   6.899 -0.9299 -0.3678  0.6514
  294MOL0     H39657  -0.581   4.437   6.878  1.7334  0.8240 -0.0246
  294MOL0     H39658  -0.674   4.341   6.665 -0.5133 -0.1848 -0.7216
  294MOL0     H39659  -0.590   4.189   6.718 -1.4561 -0.6995  0.3416
  294MOL0     H39660  -0.698   4.137   6.909 -0.8166 -1.4134 -2.1916
  294MOL0     H39661  -0.825   4.164   6.779  0.3952 -2.1398 -0.2477
  294MOL0     H39662  -0.875   4.236   7.010  0.1061 -1.4629 -0.8368
  294MOL0     H39663  -0.740   4.352   7.002  0.1206  1.1087 -2.7521
  294MOL0     H39664  -0.994   4.335   6.822 -2.6750  2.1919  1.3777
  294MOL0     H39665  -0.863   4.462   6.784  2.0989  1.4008  1.9325
  294MOL0     H39666  -1.021   4.449   7.046 -0.1468 -1.8335 -0.2169
  294MOL0     H39667  -0.917   4.571   7.005  0.9639 -1.0621  0.3025
  294MOL0     H39668  -1.153   4.606   6.975 -0.9296 -1.9278 -0.2314
  294MOL0     H39669  -1.178   4.513   6.841 -2.3132  4.1696  0.7517
  294MOL0     H39670  -1.008   4.656   6.714 -5.2975 -1.8585 -1.7814
  294MOL0     H39671  -0.984   4.743   6.867 -0.9627  2.3087 -0.9958
  294MOL0     H39672  -0.246   4.373   6.583  1.8758 -1.1806 -0.3494
  294MOL0     H39673  -0.008   4.358   6.647 -0.2448 -1.3796  0.3246
  294MOL0     H39674   0.293   4.235   6.807 -0.1840 -1.1680  4.2631
  294MOL0     H39675   0.517   4.155   6.833 -0.7334  0.8690 -0.7165
  294MOL0     H39676   2.139   3.572   8.033 -0.6687 -1.1645 -0.7637
  294MOL0     H39677   2.372   3.473   7.986  2.4641  0.6490  0.2283
  294MOL0     H39678   2.762   3.466   7.835 -1.0937  0.4047 -0.6252
  294MOL0     H39679   3.013   3.388   7.832  1.6662 -1.0830  1.4924
  294MOL0     H39680   3.218   3.488   7.835  0.6248 -1.4974 -1.1035
  294MOL0     H39681   3.327   3.538   7.972  0.4651 -1.7971  0.7401
  294MOL0     H39682   3.325   3.249   7.953 -0.0139 -0.6918 -2.7738
  294MOL0     H39683   3.451   3.383   7.956  1.2679 -0.9309 -0.5835
  294MOL0     H39684   3.451   3.375   7.709 -0.7557 -0.9639 -0.4441
  294MOL0     H39685   3.322   3.253   7.706 -0.3628 -1.2214 -0.9994
  294MOL0     H39686   3.541   3.158   7.662 -1.3390 -1.3694 -0.4821
  294MOL0     H39687   3.486   3.089   7.813 -1.3852  0.0050 -2.1482
  294MOL0     H39688   3.845   3.282   7.914 -0.8029 -0.8074  1.4617
  294MOL0     H39689   3.068   3.555   8.205 -1.5792  1.3332 -0.3657
  294MOL0     H39690   2.831   3.626   8.219  0.1830 -2.7212  0.8418
  295MOL0     O39691   9.318  11.174   7.965  0.3201  0.5493 -0.2927
  295MOL0     C39692   9.422  11.228   7.935 -0.0166 -0.7169 -0.7591
  295MOL0     O39693   9.433  11.353   7.882 -0.6216  0.1588  0.7123
  295MOL0     C39694   9.313  11.426   7.850  0.6295  0.1139  1.0168
  295MOL0     C39695   9.317  11.557   7.882  0.2581 -0.8646  0.2228
  295MOL0     C39696   9.210  11.642   7.865  0.3011  0.5656 -0.2996
  295MOL0     C39697   9.090  11.590   7.807  0.5874  0.7760  0.8620
  295MOL0     O39698   8.976  11.666   7.795  0.1156 -0.2512  0.6727
  295MOL0     C39699   8.854  11.608   7.823 -0.7300 -0.1699 -0.0166
  295MOL0     C39700   8.784  11.722   7.893 -0.0058  0.2776  0.1651
  295MOL0     C39701   8.651  11.690   7.956  0.1006  0.2981  0.5756
  295MOL0     C39702   8.585  11.811   8.038  0.0213 -0.3374  0.3406
  295MOL0     C39703   8.427  11.777   8.057 -0.8493 -0.4387 -0.1165
  295MOL0     C39704   8.352  11.904   8.093 -0.3835  0.4991  0.4548
  295MOL0     C39705   8.404  11.951   8.240 -0.2116  0.3210 -0.5083
  295MOL0     C39706   8.377  12.096   8.254  0.0637 -0.3208 -0.3301
  295MOL0     N39707   8.384  12.150   8.394 -0.8364 -0.2979  0.1792
  295MOL0     C39708   8.275  12.180   8.469 -0.1249  0.0061 -0.6937
  295MOL0     C39709   8.323  12.181   8.599  0.6395  0.2308 -0.0111
  295MOL0     C39710   8.253  12.195   8.729 -0.3352  0.3315 -0.0969
  295MOL0     C39711   8.307  12.325   8.794  0.4725  0.3922  0.7835
  295MOL0     C39712   8.250  12.333   8.940 -1.0252  1.0756  0.0220
  295MOL0     C39713   8.097  12.360   8.942 -0.9916 -0.1480 -0.1740
  295MOL0     O39714   8.058  12.483   8.870  0.0181  0.4184 -0.4337
  295MOL0     C39715   7.936  12.466   8.806 -0.5869 -0.0264 -0.1047
  295MOL0     C39716   7.926  12.461   8.671 -0.3661  0.6072 -0.2077
  295MOL0     C39717   7.808  12.450   8.612  0.6281 -0.4853  0.0838
  295MOL0     C39718   7.799  12.460   8.461 -0.3832  0.8421  0.1939
  295MOL0     C39719   7.686  12.443   8.690  0.6547 -0.3552  0.3030
  295MOL0     C39720   7.550  12.421   8.627 -0.6153 -0.8850 -0.3637
  295MOL0     O39721   7.474  12.527   8.619  0.3302  0.0644  0.1276
  295MOL0     C39722   7.349  12.513   8.567  0.2542 -0.3282  0.0059
  295MOL0     C39723   7.321  12.459   8.438  0.1241 -1.0572 -0.2449
  295MOL0     C39724   7.186  12.448   8.393  0.7674 -0.4982  0.6790
  295MOL0     C39725   7.083  12.514   8.470  0.6456 -0.2788  0.4109
  295MOL0     O39726   6.953  12.524   8.432 -0.1771 -0.0216 -0.7999
  295MOL0     C39727   6.912  12.420   8.344 -0.0621  0.3530  0.2804
  295MOL0     C39728   6.762  12.431   8.322  1.2039 -0.4449 -0.1857
  295MOL0     C39729   6.695  12.399   8.456 -0.3856 -0.2023  0.0919
  295MOL0     C39730   6.541  12.425   8.419 -0.1661  0.0007 -0.2415
  295MOL0     C39731   6.461  12.379   8.547  0.1324 -0.6134  0.0433
  295MOL0     C39732   6.309  12.395   8.527 -0.5536 -0.2825  0.2174
  295MOL0     C39733   6.230  12.406   8.662 -0.4892  0.8558 -0.3850
  295MOL0     C39734   6.103  12.480   8.639  0.9756 -0.5622 -0.6286
  295MOL0    Cl39735   5.981  12.385   8.569  0.6809 -0.1883  0.0696
  295MOL0     C39736   7.119  12.581   8.584 -0.3671 -0.0828  0.1715
  295MOL0     C39737   7.243  12.574   8.638  0.9124  0.2708 -0.1568
  295MOL0     O39738   7.512  12.307   8.592  0.0008  0.5396 -0.0623
  295MOL0     C39739   7.697  12.460   8.832 -0.0668  0.0384 -0.4159
  295MOL0     C39740   7.823  12.465   8.891 -1.0519 -0.6513  0.6315
  295MOL0     N39741   8.455  12.141   8.602 -0.5757  0.6531 -0.2834
  295MOL0     N39742   8.487  12.122   8.480 -0.8758  0.0484 -0.8318
  295MOL0     C39743   9.082  11.458   7.764 -0.4615 -0.4445  0.0884
  295MOL0     C39744   9.192  11.374   7.779 -0.4207 -0.2232  0.0430
  295MOL0     C39745   9.548  11.161   7.979  1.2578 -0.0185 -0.7007
  295MOL0     C39746   9.542  11.029   8.048  0.0028 -0.5455 -0.5100
  295MOL0     C39747   9.664  10.958   8.073 -0.3847  0.4473 -0.5437
  295MOL0     C39748   9.784  11.020   8.029  0.6685  0.5053  1.3093
  295MOL0     O39749   9.910  10.958   8.031  0.2798  0.4818 -0.1879
  295MOL0     C39750   9.913  10.819   8.025  0.0734 -0.7177  0.7525
  295MOL0     C39751  10.067  10.785   8.057  0.2357  0.4238 -0.2947
  295MOL0     C39752  10.090  10.632   8.026 -0.6356  0.7953 -0.3466
  295MOL0     C39753  10.208  10.602   7.932 -0.3566  0.2721 -1.0988
  295MOL0     C39754  10.316  10.570   8.033  0.2908  0.3895  0.4281
  295MOL0     C39755  10.391  10.528   8.112 -0.2435  0.5144  0.5384
  295MOL0     C39756   9.791  11.148   7.965  0.2764  0.0724 -0.8230
  295MOL0     C39757   9.669  11.219   7.946 -0.2744 -0.5759  0.2816
  295MOL0     H39758   9.403  11.599   7.934 -1.9981  0.9150  2.8189
  295MOL0     H39759   9.204  11.744   7.902  2.4211  0.2528  1.0209
  295MOL0     H39760   8.802  11.567   7.736 -1.5294 -1.2251  0.9327
  295MOL0     H39761   8.868  11.526   7.894  0.5682  0.7136  0.7884
  295MOL0     H39762   8.846  11.749   7.979 -0.9797  0.8324  0.7077
  295MOL0     H39763   8.766  11.807   7.826  2.4299 -0.1573 -1.1767
  295MOL0     H39764   8.592  11.658   7.869  0.0942  0.7916  0.3950
  295MOL0     H39765   8.655  11.603   8.023  1.0627  0.5048  0.7935
  295MOL0     H39766   8.630  11.837   8.134  0.9459 -0.0655 -0.1536
  295MOL0     H39767   8.590  11.898   7.971 -1.7569 -0.5516 -0.1227
  295MOL0     H39768   8.387  11.727   7.968  1.5061 -2.9905  0.1357
  295MOL0     H39769   8.422  11.703   8.137  1.4719 -2.1932 -1.4493
  295MOL0     H39770   8.381  11.986   8.027  0.3838 -0.1681 -0.0658
  295MOL0     H39771   8.245  11.885   8.090  0.0169 -1.9225 -1.7191
  295MOL0     H39772   8.339  11.909   8.317 -1.1811  2.2549 -0.2080
  295MOL0     H39773   8.512  11.942   8.253 -0.6792 -2.3544  3.0902
  295MOL0     H39774   8.274  12.100   8.219  0.2654 -2.9581 -1.5142
  295MOL0     H39775   8.434  12.153   8.180 -1.2784  0.3690 -0.8645
  295MOL0     H39776   8.174  12.191   8.431  0.1184 -1.3362 -1.8367
  295MOL0     H39777   8.144  12.198   8.717 -0.5228  1.8575  1.4936
  295MOL0     H39778   8.279  12.105   8.784  0.4030  0.1681 -0.7010
  295MOL0     H39779   8.270  12.408   8.733  1.6745  1.4032  1.3828
  295MOL0     H39780   8.416  12.330   8.790  0.4746  0.5259  0.9526
  295MOL0     H39781   8.300  12.415   8.992  2.0745 -0.6525 -0.0045
  295MOL0     H39782   8.285  12.242   8.991 -0.9000  1.2941  0.3280
  295MOL0     H39783   8.070  12.361   9.047  1.7653 -1.7847  0.6560
  295MOL0     H39784   8.059  12.272   8.888 -0.8331  0.0936 -0.6839
  295MOL0     H39785   8.019  12.448   8.617  0.1386  1.8943  0.3106
  295MOL0     H39786   7.866  12.381   8.428 -0.3875  1.5491 -1.6730
  295MOL0     H39787   7.707  12.439   8.405 -0.5887  0.7680  0.5562
  295MOL0     H39788   7.838  12.559   8.434 -1.4584  2.0485  2.7277
  295MOL0     H39789   7.406  12.425   8.381  1.2653  0.1082  0.6925
  295MOL0     H39790   7.177  12.423   8.288  1.6794  2.6379 -0.2401
  295MOL0     H39791   6.962  12.450   8.251  3.7345 -0.1613  1.9977
  295MOL0     H39792   6.942  12.324   8.387 -1.0402 -1.3054 -2.4895
  295MOL0     H39793   6.743  12.533   8.287  2.7410  0.8465  2.3999
  295MOL0     H39794   6.725  12.354   8.254 -1.4932  0.3899  0.1953
  295MOL0     H39795   6.722  12.467   8.538 -0.8332 -2.3285  2.1067
  295MOL0     H39796   6.709  12.295   8.485  0.1369  0.0530  0.7992
  295MOL0     H39797   6.522  12.532   8.405  0.6531 -0.0709 -2.1201
  295MOL0     H39798   6.502  12.380   8.327  1.3017 -0.4927 -0.6370
  295MOL0     H39799   6.498  12.446   8.625  2.5404  0.3176 -1.7837
  295MOL0     H39800   6.490  12.280   8.584 -1.9343 -1.8173 -1.3440
  295MOL0     H39801   6.291  12.493   8.482 -3.3867 -0.0392  1.6246
  295MOL0     H39802   6.273  12.318   8.458 -0.2100 -0.6676  0.4642
  295MOL0     H39803   6.299  12.454   8.732  2.7321 -0.0548 -2.7047
  295MOL0     H39804   6.196  12.311   8.704 -1.4782  1.2139 -0.3434
  295MOL0     H39805   6.120  12.569   8.578 -1.0766  0.2419 -0.1107
  295MOL0     H39806   6.066  12.497   8.740 -1.1356 -3.0729 -0.8522
  295MOL0     H39807   7.039  12.618   8.648 -1.4745  2.6369 -2.5592
  295MOL0     H39808   7.266  12.623   8.732 -0.6338 -1.7319  1.3618
  295MOL0     H39809   7.609  12.455   8.896  1.5316 -3.0816  1.8000
  295MOL0     H39810   7.830  12.490   8.997 -0.8148  0.3184  0.3940
  295MOL0     H39811   8.992  11.407   7.732  1.1363 -3.3813 -0.1000
  295MOL0     H39812   9.181  11.274   7.737  0.5795  0.3466 -1.6734
  295MOL0     H39813   9.451  10.977   8.074 -1.4870  0.7986 -2.6637
  295MOL0     H39814   9.652  10.868   8.133 -1.4862  0.3597 -0.8728
  295MOL0     H39815   9.847  10.769   8.096 -1.3805 -0.9582 -0.7030
  295MOL0     H39816   9.881  10.774   7.930  1.6469 -0.4137  0.0491
  295MOL0     H39817  10.081  10.809   8.163 -0.8314 -1.9254  0.4239
  295MOL0     H39818  10.133  10.842   7.990  1.7178  1.3807  1.8623
  295MOL0     H39819  10.005  10.591   7.970  1.3264 -4.1368 -0.1566
  295MOL0     H39820  10.086  10.582   8.123 -1.8255  0.1242 -0.7154
  295MOL0     H39821  10.231  10.689   7.870 -0.2937 -0.2985 -1.8853
  295MOL0     H39822  10.186  10.513   7.872  0.0174  0.1685 -1.0853
  295MOL0     H39823  10.455  10.483   8.186  0.1576 -2.1287 -1.2765
  295MOL0     H39824   9.888  11.182   7.930  3.0269 -3.4480  2.4423
  295MOL0     H39825   9.669  11.313   7.893 -0.8128 -0.3498  0.6765
  296MOL0     O39826   7.449   6.334  10.626  0.9813  0.0165  0.5987
  296MOL0     C39827   7.442   6.402  10.520  0.4997  0.6096 -0.6189
  296MOL0     O39828   7.328   6.421  10.454 -1.1449 -1.0625 -0.4340
  296MOL0     C39829   7.211   6.374  10.508 -0.5387  0.4943  0.5552
  296MOL0     C39830   7.186   6.239  10.519 -0.0180 -0.6938  0.2818
  296MOL0     C39831   7.064   6.186  10.543  0.4049 -0.7917  0.1223
  296MOL0     C39832   6.965   6.279  10.576 -0.1152 -0.5788  0.1618
  296MOL0     O39833   6.832   6.245  10.603 -0.1068 -0.0210  0.3943
  296MOL0     C39834   6.791   6.131  10.537 -0.1988 -0.3173  0.6726
  296MOL0     C39835   6.646   6.134  10.525  0.5996  0.6135  0.1208
  296MOL0     C39836   6.574   6.044  10.626 -0.8927 -0.1467  0.1961
  296MOL0     C39837   6.434   6.045  10.588 -0.0847 -0.3551 -0.4894
  296MOL0     C39838   6.341   5.976  10.687 -0.1130  0.9186  0.1075
  296MOL0     C39839   6.372   5.827  10.709 -1.4137 -0.1946 -0.3092
  296MOL0     C39840   6.259   5.780  10.809 -0.1560  0.8655 -0.2244
  296MOL0     C39841   6.277   5.626  10.813 -0.6310  0.2702 -0.0137
  296MOL0     N39842   6.182   5.567  10.913  0.9013 -0.3816  0.1847
  296MOL0     C39843   6.219   5.527  11.042  0.8162 -0.5698  0.2059
  296MOL0     C39844   6.103   5.472  11.086 -0.3888  0.3311  0.0421
  296MOL0     C39845   6.083   5.434  11.225 -0.5839 -0.7009  0.3387
  296MOL0     C39846   6.153   5.295  11.227  0.6834  0.0382 -0.4413
  296MOL0     C39847   6.182   5.245  11.374  0.1953  0.4788 -0.3449
  296MOL0     C39848   6.058   5.281  11.466 -0.0669  0.2475 -0.4667
  296MOL0     O39849   6.077   5.404  11.534 -0.5054  0.1048 -0.1563
  296MOL0     C39850   6.162   5.426  11.640 -0.0258  1.1368  0.2751
  296MOL0     C39851   6.257   5.337  11.691  0.0569 -0.1313 -0.1480
  296MOL0     C39852   6.318   5.378  11.818 -0.5522  0.5301 -0.2357
  296MOL0     C39853   6.403   5.279  11.891  0.1111  0.4426 -0.2035
  296MOL0     C39854   6.301   5.504  11.870  0.4692  0.1155  0.7452
  296MOL0     C39855   6.369   5.556  11.987 -0.3186 -0.3128  0.6143
  296MOL0     O39856   6.502   5.556  11.983 -0.2984 -0.4396  0.0296
  296MOL0     C39857   6.584   5.575  12.090 -0.3526 -0.6306  0.0037
  296MOL0     C39858   6.705   5.626  12.059 -0.2177 -0.8197  0.9915
  296MOL0     C39859   6.794   5.656  12.155  1.1272  0.4917 -0.8917
  296MOL0     C39860   6.764   5.631  12.295 -0.3314  0.7781  0.2468
  296MOL0     O39861   6.858   5.657  12.396 -0.1835  0.1385  0.6932
  296MOL0     C39862   7.000   5.679  12.362  0.4372 -1.2217 -0.4711
  296MOL0     C39863   7.088   5.686  12.487  0.4062 -0.4950 -0.1231
  296MOL0     C39864   7.234   5.730  12.468 -0.0027 -0.2017 -0.0982
  296MOL0     C39865   7.320   5.735  12.594  0.3397  0.2605 -0.5400
  296MOL0     C39866   7.465   5.754  12.545 -0.1373 -1.0105 -0.6573
  296MOL0     C39867   7.571   5.799  12.655  0.6777  0.1693 -0.1424
  296MOL0     C39868   7.711   5.763  12.601 -0.2335  0.3190 -0.6399
  296MOL0     C39869   7.766   5.870  12.521  0.6898 -0.0751  0.1604
  296MOL0    Cl39870   7.808   6.023  12.609 -0.0115  0.0056 -0.0037
  296MOL0     C39871   6.646   5.570  12.334 -0.5368 -0.4011 -0.7927
  296MOL0     C39872   6.548   5.548  12.232 -0.7789  0.4313  0.6265
  296MOL0     O39873   6.305   5.610  12.074 -0.0406  0.1980  0.1057
  296MOL0     C39874   6.209   5.592  11.804  0.0340  0.3241  0.2994
  296MOL0     C39875   6.138   5.556  11.694 -0.8732  0.3934  0.3140
  296MOL0     N39876   6.001   5.499  10.995  0.3304 -0.5578 -0.3743
  296MOL0     N39877   6.050   5.553  10.892  0.1462 -0.0078  0.8063
  296MOL0     C39878   6.992   6.415  10.579  0.7090  0.3089 -0.1237
  296MOL0     C39879   7.114   6.465  10.542 -0.4543  0.7128  0.1033
  296MOL0     C39880   7.557   6.448  10.441 -0.1398 -0.8693  0.5912
  296MOL0     C39881   7.680   6.481  10.507  0.4607 -0.0012  0.3615
  296MOL0     C39882   7.797   6.502  10.446 -0.0690 -0.2454 -0.1215
  296MOL0     C39883   7.793   6.506  10.298 -0.2462 -0.2517 -0.5050
  296MOL0     O39884   7.908   6.524  10.225 -0.5624  0.0200  0.5296
  296MOL0     C39885   8.033   6.562  10.279  0.6592  0.0574  0.0180
  296MOL0     C39886   8.035   6.703  10.331 -0.1720 -0.3626  0.3753
  296MOL0     C39887   8.017   6.796  10.202 -0.3187  0.1817  0.2760
  296MOL0     C39888   7.938   6.917  10.244 -0.0012 -0.1773  0.4068
  296MOL0     C39889   7.803   6.883  10.285  0.3375 -0.4505 -0.0542
  296MOL0     C39890   7.698   6.870  10.349  0.4753 -0.0082  0.0977
  296MOL0     C39891   7.678   6.476  10.225  0.0203  0.5902 -0.0604
  296MOL0     C39892   7.563   6.441  10.302 -0.6888  0.4206  0.6591
  296MOL0     H39893   7.259   6.178  10.467  1.3251  3.0130 -2.5613
  296MOL0     H39894   7.058   6.079  10.526  3.0088 -0.7007 -2.1395
  296MOL0     H39895   6.835   6.140  10.437 -0.6760 -0.5333  0.4407
  296MOL0     H39896   6.828   6.036  10.577 -0.7559 -0.5092  0.7391
  296MOL0     H39897   6.613   6.238  10.532  0.1273  0.6658 -2.0415
  296MOL0     H39898   6.622   6.092  10.427  0.0220  2.5865 -0.6322
  296MOL0     H39899   6.623   5.948  10.610 -1.4095 -0.2201 -1.0548
  296MOL0     H39900   6.587   6.083  10.728 -2.1457  1.9937 -0.4064
  296MOL0     H39901   6.401   6.149  10.580 -0.4400 -0.1081  2.9062
  296MOL0     H39902   6.426   5.994  10.491  1.1354  0.4627 -1.0346
  296MOL0     H39903   6.360   6.025  10.783  2.2535  1.2645 -0.4694
  296MOL0     H39904   6.240   5.990  10.649 -0.3683 -1.2030 -0.1458
  296MOL0     H39905   6.368   5.766  10.618 -0.4736 -1.6071  0.5649
  296MOL0     H39906   6.473   5.819  10.751 -0.5627 -0.2691 -2.2440
  296MOL0     H39907   6.272   5.813  10.912 -0.5172 -3.2212  1.3329
  296MOL0     H39908   6.158   5.785  10.765 -0.5886  0.3880  0.6894
  296MOL0     H39909   6.379   5.605  10.846  0.0296 -0.3321 -2.3129
  296MOL0     H39910   6.260   5.590  10.711  2.0056 -0.2380 -0.3505
  296MOL0     H39911   6.312   5.544  11.096  0.1431  1.6569  0.7625
  296MOL0     H39912   6.119   5.511  11.293 -1.3494 -1.2009  1.3373
  296MOL0     H39913   5.979   5.415  11.251 -0.2125  0.8011  3.3143
  296MOL0     H39914   6.251   5.303  11.180 -0.5200 -1.3672 -3.3906
  296MOL0     H39915   6.093   5.224  11.170 -3.0380  0.2542  2.7825
  296MOL0     H39916   6.272   5.297  11.407 -0.1099  0.5749  0.3435
  296MOL0     H39917   6.201   5.138  11.370  2.7064  0.8823 -0.9033
  296MOL0     H39918   6.044   5.200  11.539 -4.4599 -0.0511 -1.3627
  296MOL0     H39919   5.965   5.278  11.408  1.4928  0.2205 -3.0855
  296MOL0     H39920   6.268   5.233  11.662  2.7403  0.1968 -0.5917
  296MOL0     H39921   6.469   5.222  11.825 -0.9143  2.0639 -2.7960
  296MOL0     H39922   6.453   5.326  11.975 -0.3529 -1.7258  1.3713
  296MOL0     H39923   6.334   5.205  11.933 -2.5820  2.0260 -1.5316
  296MOL0     H39924   6.721   5.675  11.963 -0.7760  1.2657  1.8956
  296MOL0     H39925   6.884   5.697  12.109  0.1298  1.4650 -2.0547
  296MOL0     H39926   7.035   5.597  12.298  0.6832 -1.0157 -0.6029
  296MOL0     H39927   7.010   5.770  12.303 -0.2630  0.6795  2.1652
  296MOL0     H39928   7.039   5.755  12.556 -1.6064 -1.6251 -0.3350
  296MOL0     H39929   7.089   5.583  12.523 -1.0262 -0.2029  0.8186
  296MOL0     H39930   7.237   5.830  12.423 -1.2132 -0.6289 -1.2100
  296MOL0     H39931   7.292   5.666  12.401 -0.8582 -1.0325 -0.0752
  296MOL0     H39932   7.281   5.810  12.663 -1.4165 -1.0060 -0.0889
  296MOL0     H39933   7.316   5.635  12.640  1.5810  0.8637  0.9540
  296MOL0     H39934   7.464   5.831  12.467  0.4626  1.1032  1.3113
  296MOL0     H39935   7.511   5.665  12.500  3.3119  1.5696 -2.7340
  296MOL0     H39936   7.556   5.904  12.683  0.5673  0.2101 -0.3500
  296MOL0     H39937   7.547   5.735  12.741 -1.4295  0.7183 -0.2518
  296MOL0     H39938   7.705   5.663  12.556 -1.2240 -0.2215  0.6187
  296MOL0     H39939   7.783   5.753  12.683 -0.7176  2.3243  0.0843
  296MOL0     H39940   7.691   5.900  12.446  0.4119 -0.7940  0.1335
  296MOL0     H39941   7.858   5.834  12.473  0.2615 -1.6826  0.4781
  296MOL0     H39942   6.616   5.564  12.438 -0.1923 -1.1305 -0.7312
  296MOL0     H39943   6.446   5.518  12.254 -0.2313 -1.0153  1.2942
  296MOL0     H39944   6.203   5.696  11.835  0.6110  1.1059 -2.0189
  296MOL0     H39945   6.081   5.632  11.642 -1.7583 -0.1813  0.4338
  296MOL0     H39946   6.914   6.481  10.616 -1.3132 -1.0927 -1.6848
  296MOL0     H39947   7.130   6.572  10.546  3.2149  0.2704  0.9486
  296MOL0     H39948   7.698   6.464  10.612  0.2027  1.5209  0.6869
  296MOL0     H39949   7.885   6.513  10.508  0.6866 -3.9667 -0.3177
  296MOL0     H39950   8.056   6.511  10.374  2.1424  0.3117 -0.1717
  296MOL0     H39951   8.119   6.551  10.212 -0.3577 -1.5228 -1.0582
  296MOL0     H39952   8.128   6.724  10.384  0.0061  2.4159 -0.8896
  296MOL0     H39953   7.952   6.722  10.401 -0.4769  0.0041 -0.0828
  296MOL0     H39954   7.963   6.746  10.122  1.2512  2.4374 -2.3894
  296MOL0     H39955   8.113   6.833  10.167 -1.1936  1.1783 -1.1775
  296MOL0     H39956   7.941   6.978  10.154  1.2975 -3.7259 -2.2171
  296MOL0     H39957   7.995   6.966  10.323 -2.5430 -0.0548  2.2834
  296MOL0     H39958   7.603   6.866  10.399 -0.7987 -0.3967 -2.2030
  296MOL0     H39959   7.671   6.472  10.117  1.9839  3.6750 -0.4326
  296MOL0     H39960   7.479   6.405  10.243 -0.8000 -1.5327  1.9179
  297MOL0     O39961   7.788   2.577   5.212  0.7072  0.0749  0.2350
  297MOL0     C39962   7.900   2.635   5.222 -0.0428 -0.1075  0.1371
  297MOL0     O39963   7.914   2.761   5.272 -1.4283  0.2243 -0.3115
  297MOL0     C39964   7.821   2.844   5.335  0.7111  0.0275 -0.3738
  297MOL0     C39965   7.698   2.801   5.381  0.0893 -0.0728 -0.1719
  297MOL0     C39966   7.613   2.898   5.443 -0.2053 -0.1179  0.1639
  297MOL0     C39967   7.651   3.033   5.460 -0.4665 -0.2146 -1.0518
  297MOL0     O39968   7.575   3.125   5.533  0.1430 -0.6046  0.3550
  297MOL0     C39969   7.437   3.126   5.504 -0.7138  0.3518  0.0730
  297MOL0     C39970   7.389   3.264   5.459  0.0562 -0.1992 -0.6868
  297MOL0     C39971   7.418   3.373   5.568 -1.2338  0.2834 -0.4586
  297MOL0     C39972   7.326   3.491   5.540 -0.0487 -0.7606  0.1673
  297MOL0     C39973   7.211   3.487   5.636  0.4998 -0.0681 -0.3064
  297MOL0     C39974   7.143   3.627   5.630  0.2861 -0.1816 -0.5950
  297MOL0     C39975   7.031   3.636   5.737  0.0004  0.7921  0.1842
  297MOL0     C39976   6.953   3.774   5.755  0.5558  0.4117 -0.1269
  297MOL0     N39977   6.855   3.774   5.860  0.6398  0.3138 -0.0578
  297MOL0     C39978   6.713   3.781   5.848 -0.0821  0.6457 -0.0132
  297MOL0     C39979   6.666   3.790   5.970 -0.4406 -0.0884  0.0769
  297MOL0     C39980   6.536   3.836   6.026 -0.5885 -0.3012 -0.2506
  297MOL0     C39981   6.502   3.764   6.157 -0.1528 -0.2924 -0.7045
  297MOL0     C39982   6.371   3.802   6.211 -0.0934 -0.9438 -0.6080
  297MOL0     C39983   6.317   3.733   6.330  0.5859  0.5498 -0.2010
  297MOL0     O39984   6.293   3.595   6.310  0.0255  0.4233  0.3501
  297MOL0     C39985   6.236   3.532   6.422 -0.7342  0.0865  0.8571
  297MOL0     C39986   6.228   3.392   6.419  0.4778 -0.3397 -0.0977
  297MOL0     C39987   6.156   3.311   6.509 -0.6984  0.5553  0.1814
  297MOL0     C39988   6.176   3.161   6.494  0.2566  0.1099 -0.1928
  297MOL0     C39989   6.079   3.380   6.608 -1.1171 -0.1045 -0.2085
  297MOL0     C39990   5.994   3.304   6.712  0.6852  0.4939  0.7220
  297MOL0     O39991   5.925   3.389   6.802  0.2864  0.8092  1.0508
  297MOL0     C39992   5.835   3.332   6.887  0.7928 -0.8342 -0.2034
  297MOL0     C39993   5.870   3.326   7.029  0.0109 -0.0653  0.1411
  297MOL0     C39994   5.772   3.271   7.117 -0.2193  0.1775  0.0478
  297MOL0     C39995   5.635   3.256   7.073 -0.3067  0.2566  0.3653
  297MOL0     O39996   5.530   3.221   7.158  0.4435  0.7215 -0.4733
  297MOL0     C39997   5.548   3.167   7.292  0.2541  0.2240  0.0302
  297MOL0     C39998   5.430   3.112   7.360  1.3561  0.5678 -0.1788
  297MOL0     C39999   5.305   3.199   7.394  0.0420 -0.1882 -0.6216
  297MOL0     C40000   5.195   3.182   7.291  0.0177  0.4433 -0.8997
  297MOL0     C40001   5.061   3.244   7.331 -0.5511 -1.0730 -0.3155
  297MOL0     C40002   4.943   3.196   7.249  0.4346  1.5595  0.8274
  297MOL0     C40003   4.802   3.244   7.276  0.6471 -0.4909 -0.3640
  297MOL0     C40004   4.783   3.400   7.286 -0.2309  0.0716 -1.2674
  297MOL0    Cl40005   4.875   3.464   7.435 -0.0810  0.1814 -0.0024
  297MOL0     C40006   5.608   3.258   6.938 -0.4649  0.3664 -0.7722
  297MOL0     C40007   5.706   3.290   6.849  0.0868 -0.0033  0.0218
  297MOL0     O40008   5.989   3.183   6.712  0.4864  0.0605  0.3139
  297MOL0     C40009   6.081   3.512   6.608 -0.5941 -0.6918 -0.4266
  297MOL0     C40010   6.161   3.589   6.524 -0.5809  0.1257  0.3391
  297MOL0     N40011   6.776   3.787   6.055 -0.0592  0.1104  0.3726
  297MOL0     N40012   6.882   3.768   5.993 -0.9360  0.1512  0.5068
  297MOL0     C40013   7.772   3.073   5.410  0.2208 -0.5586  0.4340
  297MOL0     C40014   7.853   2.984   5.343 -1.1089  0.5280  0.1047
  297MOL0     C40015   8.022   2.558   5.196  0.4953 -0.2352 -0.9103
  297MOL0     C40016   8.024   2.417   5.190 -0.8687  0.2772  0.4538
  297MOL0     C40017   8.135   2.340   5.163 -0.0078  0.2818 -0.2205
  297MOL0     C40018   8.258   2.407   5.160 -0.1399  0.6183  0.8859
  297MOL0     O40019   8.375   2.338   5.147 -0.2164  0.5615  0.3516
  297MOL0     C40020   8.388   2.263   5.024 -0.8901 -0.3282 -0.0160
  297MOL0     C40021   8.534   2.270   4.962 -0.1848 -0.0603 -0.7995
  297MOL0     C40022   8.642   2.201   5.048  0.1499 -0.1763  0.9438
  297MOL0     C40023   8.770   2.159   4.984  0.2755  0.1798 -0.4473
  297MOL0     C40024   8.871   2.149   5.085  0.8189 -0.2470  0.1459
  297MOL0     C40025   8.954   2.139   5.170  0.0843 -0.0898 -0.0307
  297MOL0     C40026   8.265   2.549   5.171  0.1968  0.0943  0.0420
  297MOL0     C40027   8.151   2.622   5.195  0.9307 -0.5068 -0.8763
  297MOL0     H40028   7.669   2.697   5.384  4.1030 -1.3230  0.8450
  297MOL0     H40029   7.528   2.862   5.502  1.3631  0.5365  3.0077
  297MOL0     H40030   7.415   3.043   5.435 -1.8265  0.8510 -0.1853
  297MOL0     H40031   7.377   3.095   5.589  0.6574  0.9329  1.2960
  297MOL0     H40032   7.437   3.289   5.363  0.2176 -0.9774 -0.8119
  297MOL0     H40033   7.282   3.245   5.454  0.2663 -3.3153  2.8335
  297MOL0     H40034   7.408   3.339   5.672  0.1972 -1.3293 -0.7901
  297MOL0     H40035   7.524   3.400   5.565 -1.3684  1.3730  2.0759
  297MOL0     H40036   7.382   3.584   5.553 -0.2807 -0.4771 -0.8138
  297MOL0     H40037   7.287   3.495   5.438 -3.4709 -1.2047  1.3131
  297MOL0     H40038   7.129   3.418   5.611 -0.1798  1.4605 -2.6481
  297MOL0     H40039   7.241   3.471   5.740 -0.7763  0.1909  0.1260
  297MOL0     H40040   7.218   3.701   5.661  0.4224  0.4747 -2.3963
  297MOL0     H40041   7.107   3.650   5.529 -1.2235 -0.0354 -0.0538
  297MOL0     H40042   6.962   3.559   5.701  1.5924 -1.3645  1.5237
  297MOL0     H40043   7.080   3.615   5.832 -0.3483  2.7450  0.8410
  297MOL0     H40044   6.895   3.800   5.666  0.2871  0.2533  0.0014
  297MOL0     H40045   7.032   3.850   5.760  0.2814  0.8984 -2.0189
  297MOL0     H40046   6.663   3.795   5.753 -0.4016 -0.5768 -0.0409
  297MOL0     H40047   6.549   3.943   6.044  1.8934 -0.8005  1.2820
  297MOL0     H40048   6.457   3.816   5.952 -1.6917  2.3643  0.1025
  297MOL0     H40049   6.584   3.797   6.222 -0.7923  1.1616 -0.5996
  297MOL0     H40050   6.505   3.659   6.128  0.3587  0.0098 -1.7896
  297MOL0     H40051   6.294   3.796   6.133  0.9810 -0.1961 -1.7705
  297MOL0     H40052   6.378   3.907   6.240  1.3545 -1.7472  2.2942
  297MOL0     H40053   6.229   3.780   6.375 -1.6227 -4.5423  1.5086
  297MOL0     H40054   6.394   3.727   6.407 -0.0125 -1.3873  0.3125
  297MOL0     H40055   6.281   3.353   6.333  0.7022 -0.3185  0.0315
  297MOL0     H40056   6.214   3.122   6.589 -1.7968 -0.8015  0.3079
  297MOL0     H40057   6.086   3.105   6.466  1.9959 -3.5492  0.8290
  297MOL0     H40058   6.243   3.142   6.410 -1.1480  1.5500 -1.7072
  297MOL0     H40059   5.965   3.366   7.062  0.2227  0.6119 -1.2331
  297MOL0     H40060   5.804   3.256   7.220  0.2077  0.2120 -0.0794
  297MOL0     H40061   5.625   3.089   7.296  0.6114  0.5165 -0.8095
  297MOL0     H40062   5.579   3.252   7.353 -0.7212  1.2970 -0.9111
  297MOL0     H40063   5.386   3.024   7.312 -2.8713  1.3983  1.7426
  297MOL0     H40064   5.451   3.074   7.460  0.1761 -2.0408 -0.8323
  297MOL0     H40065   5.339   3.303   7.396 -1.5426  0.3534  0.1852
  297MOL0     H40066   5.273   3.160   7.491  2.2298 -3.0135 -0.9165
  297MOL0     H40067   5.227   3.234   7.200 -3.3338 -0.7355 -2.9135
  297MOL0     H40068   5.185   3.073   7.287 -1.7862  0.6078 -3.7258
  297MOL0     H40069   5.071   3.352   7.323 -0.5982 -1.0796 -0.4763
  297MOL0     H40070   5.035   3.212   7.432 -1.4715 -1.3130 -0.6144
  297MOL0     H40071   4.963   3.219   7.144  2.2399 -1.9760  0.2394
  297MOL0     H40072   4.941   3.087   7.244  0.4336  1.5721 -4.1825
  297MOL0     H40073   4.778   3.203   7.375 -2.6364  2.0868  0.1117
  297MOL0     H40074   4.721   3.213   7.209 -2.3495  3.2637  1.1422
  297MOL0     H40075   4.678   3.425   7.302 -0.4485 -1.8814  0.8734
  297MOL0     H40076   4.814   3.459   7.199  2.0831 -0.3392 -0.7881
  297MOL0     H40077   5.513   3.214   6.909 -1.0622  0.3033  1.1346
  297MOL0     H40078   5.685   3.288   6.742  1.5142 -1.7448 -0.2819
  297MOL0     H40079   6.010   3.564   6.672  0.1420  0.4730 -0.5275
  297MOL0     H40080   6.168   3.696   6.542  0.9640  0.2830 -0.9087
  297MOL0     H40081   7.814   3.171   5.433  1.8776 -1.3557  0.9596
  297MOL0     H40082   7.956   3.011   5.322 -1.2927  1.7981  0.7679
  297MOL0     H40083   7.939   2.351   5.205 -0.6447 -0.0102  0.4729
  297MOL0     H40084   8.131   2.232   5.151  4.6788  0.1075 -2.9025
  297MOL0     H40085   8.364   2.157   5.041 -1.7174 -0.0789  0.4207
  297MOL0     H40086   8.319   2.299   4.948 -1.1371 -0.6652  0.0456
  297MOL0     H40087   8.567   2.374   4.950  4.9746 -1.4515 -0.9254
  297MOL0     H40088   8.530   2.231   4.860  0.8314 -0.3947 -0.7257
  297MOL0     H40089   8.594   2.108   5.082 -0.2544 -0.3149  0.0322
  297MOL0     H40090   8.678   2.265   5.129  1.7830  0.9847 -0.6157
  297MOL0     H40091   8.812   2.220   4.903  1.0637 -0.5198 -0.5707
  297MOL0     H40092   8.743   2.060   4.945 -1.4263  0.2757  0.3847
  297MOL0     H40093   9.028   2.098   5.235 -1.7672 -0.0656  2.2228
  297MOL0     H40094   8.360   2.595   5.147  1.0165 -1.6422 -0.1535
  297MOL0     H40095   8.169   2.727   5.213 -0.5145 -0.3317 -0.3386
  298MOL0     O40096   1.642   6.218   8.389 -0.0722 -0.2362 -0.7680
  298MOL0     C40097   1.699   6.310   8.445  0.2205  0.0764 -0.5325
  298MOL0     O40098   1.639   6.420   8.499  0.1908 -0.5667  0.1253
  298MOL0     C40099   1.500   6.418   8.505  0.3526  0.0371  0.2440
  298MOL0     C40100   1.430   6.469   8.400 -1.2510  0.6081 -0.0075
  298MOL0     C40101   1.297   6.468   8.383  0.7996 -0.1123  0.3743
  298MOL0     C40102   1.220   6.410   8.490 -1.3382  0.4242  0.3638
  298MOL0     O40103   1.086   6.401   8.464 -0.0213 -0.9967 -0.0640
  298MOL0     C40104   1.051   6.294   8.370 -0.4526  0.3511  0.8616
  298MOL0     C40105   0.904   6.294   8.343 -0.2605 -0.2275  0.2619
  298MOL0     C40106   0.827   6.291   8.465 -0.6393  0.1779 -0.4330
  298MOL0     C40107   0.680   6.281   8.437  0.6407 -0.3855  1.0485
  298MOL0     C40108   0.612   6.419   8.411  0.8862 -0.3626 -0.2359
  298MOL0     C40109   0.462   6.404   8.375 -0.5678  0.5842  0.0376
  298MOL0     C40110   0.398   6.535   8.315  0.1169  0.1270 -0.0705
  298MOL0     C40111   0.241   6.516   8.275 -0.1646 -0.1242  0.0068
  298MOL0     N40112   0.181   6.640   8.231 -0.3704  0.3113 -0.2026
  298MOL0     C40113   0.239   6.737   8.162  0.0816  0.0430  0.7911
  298MOL0     C40114   0.151   6.843   8.177  0.1197 -0.3091 -0.4943
  298MOL0     C40115   0.171   6.989   8.131 -0.6372 -0.1317 -0.1523
  298MOL0     C40116   0.148   7.026   7.985 -0.0501  0.5562  0.2654
  298MOL0     C40117   0.027   7.102   7.947 -0.6196  0.2496  0.0062
  298MOL0     C40118   0.042   7.136   7.790 -0.2026 -0.9088  0.2813
  298MOL0     O40119  -0.069   7.218   7.745  0.0746 -0.3036 -0.5324
  298MOL0     C40120  -0.048   7.349   7.712  0.1405  0.4092 -0.2109
  298MOL0     C40121   0.061   7.423   7.756 -0.0534 -0.0957 -0.2081
  298MOL0     C40122   0.087   7.549   7.696 -0.0979 -0.3060 -0.3226
  298MOL0     C40123   0.219   7.616   7.716  0.1564  0.5228 -0.0122
  298MOL0     C40124  -0.010   7.603   7.613 -0.2506 -0.1776 -0.3114
  298MOL0     C40125  -0.015   7.741   7.551 -0.8323  0.1157 -0.4046
  298MOL0     O40126   0.072   7.833   7.606  0.6852  0.1534  0.0718
  298MOL0     C40127   0.124   7.944   7.532 -0.2093 -0.2070 -0.3799
  298MOL0     C40128   0.044   8.052   7.511  0.3420 -0.7910  0.5247
  298MOL0     C40129   0.085   8.157   7.433 -0.6121 -0.2689  0.3747
  298MOL0     C40130   0.219   8.163   7.383 -0.1205 -0.2881  0.6162
  298MOL0     O40131   0.258   8.280   7.316 -0.6442 -0.0283  0.6000
  298MOL0     C40132   0.400   8.298   7.285 -0.8801 -0.0101  1.1284
  298MOL0     C40133   0.434   8.445   7.281 -0.1351 -0.2718  0.2027
  298MOL0     C40134   0.475   8.493   7.413 -0.0783  0.6661 -0.1255
  298MOL0     C40135   0.539   8.634   7.433  0.6162 -0.8659  0.9543
  298MOL0     C40136   0.421   8.735   7.419 -0.0969 -0.3248  0.4387
  298MOL0     C40137   0.487   8.871   7.416 -0.3649  0.7597 -0.1488
  298MOL0     C40138   0.545   8.905   7.272  0.5492 -0.3376  0.2535
  298MOL0     C40139   0.557   9.048   7.236 -0.3066 -0.6038 -0.1650
  298MOL0    Cl40140   0.630   9.141   7.362  0.0440  0.4407 -0.0005
  298MOL0     C40141   0.304   8.052   7.415  1.0130  0.3844  0.3413
  298MOL0     C40142   0.255   7.947   7.492 -0.7711  0.5584  0.0387
  298MOL0     O40143  -0.087   7.766   7.452  0.1943 -0.7233 -0.6705
  298MOL0     C40144  -0.122   7.527   7.573 -0.1169  0.3552 -1.0511
  298MOL0     C40145  -0.136   7.395   7.618 -0.1985 -0.9586  0.0747
  298MOL0     N40146   0.036   6.799   8.247 -1.1043  0.0338  0.7723
  298MOL0     N40147   0.061   6.681   8.265  0.2146  0.3638 -0.3674
  298MOL0     C40148   1.277   6.354   8.597 -0.9079  0.3236 -0.9155
  298MOL0     C40149   1.424   6.362   8.602  0.6418 -0.2073 -0.9567
  298MOL0     C40150   1.844   6.292   8.467  0.4774  0.5940  0.1799
  298MOL0     C40151   1.895   6.163   8.499 -0.6191  0.9785  0.1608
  298MOL0     C40152   2.033   6.158   8.535 -0.5393 -0.3120  0.1041
  298MOL0     C40153   2.116   6.267   8.519  0.6785 -0.8978  0.8868
  298MOL0     O40154   2.254   6.248   8.529 -0.1521 -0.4824 -0.2184
  298MOL0     C40155   2.345   6.357   8.534 -0.2915  0.5001  0.1001
  298MOL0     C40156   2.484   6.292   8.542  0.4203 -0.5405  0.3058
  298MOL0     C40157   2.594   6.390   8.594  0.3000 -0.3698  0.6349
  298MOL0     C40158   2.719   6.318   8.623  0.0280 -0.1409  0.4229
  298MOL0     C40159   2.805   6.414   8.694 -0.4779  0.1926  0.8130
  298MOL0     C40160   2.875   6.505   8.738  0.3833  0.7233  0.7212
  298MOL0     C40161   2.059   6.390   8.490  0.7527  0.0874 -0.8485
  298MOL0     C40162   1.925   6.407   8.463 -1.1292 -0.0946 -0.3506
  298MOL0     H40163   1.484   6.519   8.320  2.7994 -2.5270  0.4690
  298MOL0     H40164   1.247   6.497   8.291 -1.2999  1.6127  1.9405
  298MOL0     H40165   1.105   6.302   8.274  0.3765 -1.7862  1.0849
  298MOL0     H40166   1.079   6.201   8.420 -1.7742 -0.4859  0.1212
  298MOL0     H40167   0.881   6.391   8.299  0.8490 -0.0529  0.0332
  298MOL0     H40168   0.880   6.213   8.273  1.3286 -0.9320  0.4924
  298MOL0     H40169   0.868   6.207   8.522 -0.4551  0.7686  0.3269
  298MOL0     H40170   0.844   6.385   8.518 -0.4688  0.8688 -1.6639
  298MOL0     H40171   0.660   6.214   8.353  2.1571  0.4109 -0.0104
  298MOL0     H40172   0.622   6.245   8.523 -0.5943 -1.3673 -0.1615
  298MOL0     H40173   0.617   6.480   8.502 -0.4761 -0.4039 -0.1188
  298MOL0     H40174   0.673   6.471   8.336 -0.1750  0.9695 -0.2085
  298MOL0     H40175   0.452   6.327   8.298  1.4398  1.4631 -1.1721
  298MOL0     H40176   0.404   6.367   8.460 -0.5796 -1.0163 -0.6414
  298MOL0     H40177   0.415   6.611   8.393  1.7515 -1.2733  1.0139
  298MOL0     H40178   0.448   6.555   8.219  2.6392  0.5497  1.2421
  298MOL0     H40179   0.189   6.475   8.362  0.7820  2.5028  1.9482
  298MOL0     H40180   0.236   6.441   8.195  1.4015  0.3327 -0.5637
  298MOL0     H40181   0.337   6.748   8.118 -0.1506 -0.2954  0.1893
  298MOL0     H40182   0.105   7.048   8.195  0.3286  1.2468 -0.3910
  298MOL0     H40183   0.276   7.007   8.158 -0.4878 -1.0217 -0.0817
  298MOL0     H40184   0.150   6.937   7.921 -2.0088  1.9070 -1.8618
  298MOL0     H40185   0.233   7.091   7.961 -0.3607  1.4767  1.5391
  298MOL0     H40186   0.000   7.192   8.003  1.0220  1.5621 -1.2465
  298MOL0     H40187  -0.058   7.034   7.960  1.1543 -2.4391 -1.5936
  298MOL0     H40188   0.030   7.043   7.734  0.0782 -1.4221  1.0474
  298MOL0     H40189   0.143   7.172   7.768 -0.2687  0.9721  2.6499
  298MOL0     H40190   0.127   7.378   7.829  0.4236  2.4818  1.0952
  298MOL0     H40191   0.223   7.668   7.811 -0.2068 -1.4536  1.1387
  298MOL0     H40192   0.299   7.541   7.724 -0.3631 -0.0130  0.2403
  298MOL0     H40193   0.248   7.673   7.627 -0.6136 -0.2817 -0.8006
  298MOL0     H40194  -0.062   8.062   7.533 -0.2606 -0.3939 -2.2163
  298MOL0     H40195   0.023   8.243   7.411  2.5415  1.6640 -1.8909
  298MOL0     H40196   0.457   8.255   7.367 -1.2394  4.0789  3.7676
  298MOL0     H40197   0.433   8.273   7.183 -0.4326  2.1916  0.6976
  298MOL0     H40198   0.518   8.465   7.214 -1.7371  2.9137 -1.0330
  298MOL0     H40199   0.351   8.505   7.241 -0.3285 -0.7413 -0.1155
  298MOL0     H40200   0.548   8.420   7.450  1.6509  0.7167 -3.0851
  298MOL0     H40201   0.392   8.485   7.483  1.5553 -1.5357  1.7061
  298MOL0     H40202   0.586   8.654   7.530  1.9086 -2.3777  0.6995
  298MOL0     H40203   0.613   8.646   7.353 -1.6788  0.5532 -1.0773
  298MOL0     H40204   0.344   8.725   7.495 -1.4625  2.3547 -0.4844
  298MOL0     H40205   0.368   8.716   7.325  0.3033  0.1693  0.1063
  298MOL0     H40206   0.403   8.934   7.447 -2.9562 -3.3027  1.9990
  298MOL0     H40207   0.563   8.891   7.492 -0.9759  2.1305  0.1365
  298MOL0     H40208   0.476   8.861   7.199  2.5550 -0.7630 -1.5133
  298MOL0     H40209   0.638   8.847   7.267 -0.1325 -1.4724  0.3095
  298MOL0     H40210   0.461   9.098   7.220 -0.3976 -0.5313  0.5562
  298MOL0     H40211   0.620   9.059   7.148 -0.1511  1.6806  0.1734
  298MOL0     H40212   0.410   8.043   7.392  0.6819  1.5891 -1.9354
  298MOL0     H40213   0.322   7.866   7.518 -0.1130  0.6416 -1.2899
  298MOL0     H40214  -0.185   7.563   7.493  0.2546  2.3946 -0.4894
  298MOL0     H40215  -0.215   7.332   7.581  0.3940 -0.9011 -1.3737
  298MOL0     H40216   1.214   6.302   8.668  0.1560 -2.2524 -1.7391
  298MOL0     H40217   1.470   6.297   8.676 -0.2287 -1.2823 -1.3236
  298MOL0     H40218   1.839   6.070   8.498  3.7614 -1.9298 -0.6951
  298MOL0     H40219   2.081   6.064   8.561  2.2358  1.1123  0.5300
  298MOL0     H40220   2.340   6.418   8.443 -2.0622 -4.0130 -3.2350
  298MOL0     H40221   2.333   6.418   8.623  0.3354  4.2880 -2.2050
  298MOL0     H40222   2.507   6.256   8.441 -0.5983 -1.3925  0.3529
  298MOL0     H40223   2.487   6.205   8.608  0.1657 -0.9820 -0.2530
  298MOL0     H40224   2.554   6.442   8.681 -1.6834 -1.1865  0.2809
  298MOL0     H40225   2.611   6.472   8.523  2.7423  3.6310  5.2731
  298MOL0     H40226   2.764   6.287   8.529 -2.9786 -0.8365 -0.9276
  298MOL0     H40227   2.694   6.227   8.678 -1.0833 -1.0689 -1.5124
  298MOL0     H40228   2.947   6.569   8.784 -0.9372  1.5760  1.6465
  298MOL0     H40229   2.124   6.477   8.498  2.6129 -1.2265 -0.9610
  298MOL0     H40230   1.875   6.497   8.430 -0.7077  1.1823  2.2558
  299MOL0     O40231   1.567   2.432   3.844  0.3941 -0.8894 -0.3013
  299MOL0     C40232   1.623   2.525   3.903  0.0466 -0.2649 -0.6132
  299MOL0     O40233   1.577   2.586   4.016 -0.5158 -0.5724  0.3180
  299MOL0     C40234   1.449   2.550   4.038 -0.3056 -0.3356 -0.4551
  299MOL0     C40235   1.343   2.633   3.993 -0.2455  0.8096 -0.2650
  299MOL0     C40236   1.217   2.615   4.034  0.7487  0.8093  0.6312
  299MOL0     C40237   1.177   2.491   4.103 -0.3913 -0.2440 -1.0201
  299MOL0     O40238   1.057   2.447   4.143 -0.8247 -0.3976 -0.2805
  299MOL0     C40239   0.950   2.492   4.057 -0.2861  0.0181 -0.7175
  299MOL0     C40240   0.815   2.457   4.109  0.0128 -0.4332  0.0026
  299MOL0     C40241   0.700   2.516   4.035  0.3048 -0.8754  0.3285
  299MOL0     C40242   0.663   2.669   4.085 -0.0519 -0.9178  0.1492
  299MOL0     C40243   0.538   2.723   4.026  0.4476  0.7041 -0.2902
  299MOL0     C40244   0.490   2.848   4.097  0.9445 -0.7723  0.0862
  299MOL0     C40245   0.353   2.881   4.035  0.2921 -0.7298  0.6339
  299MOL0     C40246   0.291   2.997   4.122 -0.1349 -0.0961  0.3778
  299MOL0     N40247   0.172   3.053   4.066 -0.0115  0.9020 -0.6362
  299MOL0     C40248   0.054   2.992   4.091 -0.6392 -0.6481  0.1407
  299MOL0     C40249  -0.039   3.082   4.043 -0.1612 -0.7637 -0.6156
  299MOL0     C40250  -0.191   3.059   4.032 -0.5833  1.0969  0.2667
  299MOL0     C40251  -0.246   3.068   4.176 -0.1977  0.5984 -0.3614
  299MOL0     C40252  -0.397   3.068   4.172  0.3676  0.6271  0.3806
  299MOL0     C40253  -0.462   3.108   4.301 -0.5802  0.3967  0.1912
  299MOL0     O40254  -0.601   3.121   4.279 -0.6747  0.3093 -0.6739
  299MOL0     C40255  -0.679   3.154   4.377 -0.0129 -0.1505  0.2245
  299MOL0     C40256  -0.818   3.140   4.356  0.4184 -0.2300 -0.1705
  299MOL0     C40257  -0.912   3.180   4.463 -1.2092  1.0486 -0.0749
  299MOL0     C40258  -1.054   3.199   4.432  0.6391 -0.1240  0.6082
  299MOL0     C40259  -0.862   3.230   4.589 -0.4300  0.3272 -0.6841
  299MOL0     C40260  -0.946   3.291   4.702 -0.3864 -0.6747  0.4356
  299MOL0     O40261  -1.081   3.287   4.711  0.0050  0.4448  0.4456
  299MOL0     C40262  -1.138   3.387   4.783  0.2575 -0.2854  0.5691
  299MOL0     C40263  -1.203   3.349   4.906  0.2039  0.9629 -0.9450
  299MOL0     C40264  -1.286   3.436   4.977  0.2329 -0.3199 -0.1386
  299MOL0     C40265  -1.296   3.575   4.924 -0.3139 -0.2565  0.0026
  299MOL0     O40266  -1.366   3.674   4.982 -0.2114 -0.4915  0.0440
  299MOL0     C40267  -1.417   3.657   5.107  0.6764 -0.3201  0.8495
  299MOL0     C40268  -1.516   3.754   5.145 -0.2870  0.0044  0.0595
  299MOL0     C40269  -1.460   3.891   5.170 -0.2596  0.0497  0.9908
  299MOL0     C40270  -1.542   3.989   5.248  0.1313 -0.8114 -0.2113
  299MOL0     C40271  -1.496   4.131   5.276 -0.2975  0.1849  0.7417
  299MOL0     C40272  -1.588   4.216   5.359 -1.0157 -0.0228 -0.1728
  299MOL0     C40273  -1.705   4.258   5.272  0.3887 -0.5308 -0.4073
  299MOL0     C40274  -1.781   4.363   5.349  0.2423  0.4484  0.6473
  299MOL0    Cl40275  -1.864   4.282   5.481  0.0946  0.4266  0.4801
  299MOL0     C40276  -1.220   3.613   4.808 -0.7193 -0.4314  0.7411
  299MOL0     C40277  -1.152   3.514   4.736  0.3385 -1.8180 -0.4423
  299MOL0     O40278  -0.873   3.355   4.779  0.1947 -0.2348 -0.2993
  299MOL0     C40279  -0.725   3.220   4.608  0.3234 -0.6915  0.3167
  299MOL0     C40280  -0.637   3.193   4.506 -0.5934 -0.3793 -0.0639
  299MOL0     N40281   0.025   3.196   4.001 -0.5066 -0.7764 -0.3224
  299MOL0     N40282   0.150   3.180   4.022 -0.0862  0.7333 -0.7088
  299MOL0     C40283   1.283   2.413   4.149  0.0027  0.1397 -0.9590
  299MOL0     C40284   1.419   2.443   4.124  0.0752 -0.6793  0.5931
  299MOL0     C40285   1.767   2.543   3.862 -0.1915 -0.8310 -0.2495
  299MOL0     C40286   1.809   2.482   3.737 -0.2377 -0.2954  0.8091
  299MOL0     C40287   1.945   2.484   3.690 -0.3266 -0.3188 -0.2790
  299MOL0     C40288   2.041   2.561   3.760  0.0721  0.3011  1.1423
  299MOL0     O40289   2.176   2.546   3.731  0.3058 -0.7191  0.3462
  299MOL0     C40290   2.221   2.607   3.610  0.5377  0.0517 -0.5872
  299MOL0     C40291   2.163   2.745   3.594 -1.0308 -0.8262  0.3080
  299MOL0     C40292   2.234   2.823   3.488 -0.1297  0.3770  0.8084
  299MOL0     C40293   2.144   2.943   3.448 -0.1771  0.5591 -0.1903
  299MOL0     C40294   2.030   2.901   3.367  0.4031  0.2844  0.0636
  299MOL0     C40295   1.950   2.850   3.288 -1.5437  0.1184  0.5279
  299MOL0     C40296   2.000   2.624   3.878  0.6567 -0.3912 -0.1093
  299MOL0     C40297   1.865   2.632   3.922  1.1486  0.0423  0.2962
  299MOL0     H40298   1.367   2.721   3.935 -0.8224  0.3447 -1.2289
  299MOL0     H40299   1.144   2.692   4.013 -0.0204  0.1474  0.8131
  299MOL0     H40300   0.945   2.601   4.052  0.0242  0.2829  2.4240
  299MOL0     H40301   0.976   2.442   3.963  1.2922 -0.0189 -0.2923
  299MOL0     H40302   0.800   2.350   4.126 -0.8976 -0.2394  0.4746
  299MOL0     H40303   0.798   2.506   4.205 -1.8274 -0.3941 -0.3081
  299MOL0     H40304   0.725   2.508   3.929 -2.3649 -0.3437 -0.3977
  299MOL0     H40305   0.610   2.455   4.042 -0.5883 -0.5488 -4.6224
  299MOL0     H40306   0.641   2.660   4.191 -0.1527 -1.9268  0.0540
  299MOL0     H40307   0.755   2.728   4.081 -0.8457  0.8903  3.9095
  299MOL0     H40308   0.554   2.743   3.920  1.9713 -0.7728 -0.3760
  299MOL0     H40309   0.456   2.651   4.033  0.8876  0.2113 -0.1088
  299MOL0     H40310   0.466   2.836   4.203 -1.6750  2.3644  0.0218
  299MOL0     H40311   0.557   2.934   4.091  0.7731 -0.5456  1.1135
  299MOL0     H40312   0.364   2.916   3.932 -1.2569 -0.0542  0.6660
  299MOL0     H40313   0.286   2.794   4.041 -1.3177  0.4662  0.6035
  299MOL0     H40314   0.362   3.081   4.122 -2.7532  2.3101 -1.4183
  299MOL0     H40315   0.277   2.960   4.224 -0.0764  0.6514  0.6681
  299MOL0     H40316   0.036   2.891   4.127 -1.1096 -1.4649 -2.2407
  299MOL0     H40317  -0.228   3.126   3.953  2.6093  1.3611 -1.1451
  299MOL0     H40318  -0.210   2.959   3.991 -0.6095  0.5655  1.5320
  299MOL0     H40319  -0.215   3.162   4.222 -2.7421  0.1275  2.6511
  299MOL0     H40320  -0.213   2.983   4.237 -1.9057  1.2581  1.6126
  299MOL0     H40321  -0.442   2.973   4.143 -1.8644  1.1956  1.6786
  299MOL0     H40322  -0.433   3.143   4.101  0.9290 -0.5567 -1.2024
  299MOL0     H40323  -0.431   3.206   4.338 -0.8442  0.9339 -0.9709
  299MOL0     H40324  -0.427   3.028   4.366 -0.0836 -1.3023 -2.0586
  299MOL0     H40325  -0.851   3.089   4.266  0.1818 -1.3580  0.5288
  299MOL0     H40326  -1.065   3.153   4.334  1.9251  1.2994 -0.2410
  299MOL0     H40327  -1.122   3.149   4.503  0.8643  0.4500  1.2448
  299MOL0     H40328  -1.086   3.303   4.417  1.5968 -0.1094 -1.5810
  299MOL0     H40329  -1.199   3.249   4.948 -0.7345  1.7249  1.0830
  299MOL0     H40330  -1.330   3.399   5.068 -1.6846 -0.4594 -1.0720
  299MOL0     H40331  -1.463   3.557   5.114 -1.1965  0.1809 -2.3335
  299MOL0     H40332  -1.331   3.660   5.175  0.2234 -0.0543  1.4190
  299MOL0     H40333  -1.586   3.761   5.060  1.0845  3.2365 -0.9279
  299MOL0     H40334  -1.566   3.719   5.235 -2.6609  1.4448 -0.6026
  299MOL0     H40335  -1.442   3.933   5.071 -1.2984 -0.4635  0.5716
  299MOL0     H40336  -1.371   3.885   5.234 -1.8368 -2.5366  3.1565
  299MOL0     H40337  -1.643   4.003   5.208 -0.1255 -1.9491  0.0099
  299MOL0     H40338  -1.563   3.948   5.347 -0.7671  2.2296  0.9711
  299MOL0     H40339  -1.481   4.182   5.181  0.5444 -2.0158 -0.3746
  299MOL0     H40340  -1.395   4.139   5.317 -0.0284  3.2430 -0.2257
  299MOL0     H40341  -1.627   4.143   5.431 -0.0635 -2.6731 -2.1892
  299MOL0     H40342  -1.535   4.302   5.402 -2.9531  2.3194 -2.2216
  299MOL0     H40343  -1.766   4.173   5.243 -2.3722  0.6144  1.5492
  299MOL0     H40344  -1.670   4.309   5.182  1.6365 -1.7124 -0.6286
  299MOL0     H40345  -1.860   4.398   5.282 -1.2191 -1.8523  1.0374
  299MOL0     H40346  -1.721   4.446   5.386 -0.1640  1.0309  0.0101
  299MOL0     H40347  -1.209   3.714   4.771  0.9049 -1.5178 -2.0695
  299MOL0     H40348  -1.116   3.546   4.639 -2.7345  1.4656 -0.7250
  299MOL0     H40349  -0.673   3.244   4.700 -0.0318 -2.7224  1.0972
  299MOL0     H40350  -0.534   3.202   4.539 -1.8124  0.0784  4.3110
  299MOL0     H40351   1.263   2.331   4.216 -1.7811  1.7061  0.5388
  299MOL0     H40352   1.501   2.382   4.159  0.5690  0.0228  0.6917
  299MOL0     H40353   1.734   2.424   3.684 -0.2294  1.2044 -0.9114
  299MOL0     H40354   1.978   2.426   3.605  0.6131 -0.4103  0.1315
  299MOL0     H40355   2.330   2.607   3.619  0.5012 -0.5668 -0.0738
  299MOL0     H40356   2.180   2.551   3.525 -2.9180 -1.2322  1.7110
  299MOL0     H40357   2.178   2.808   3.682  1.2787 -3.0232  1.5905
  299MOL0     H40358   2.055   2.740   3.575 -0.8867  1.5819 -1.8584
  299MOL0     H40359   2.235   2.761   3.398  2.2555 -1.6339  2.0989
  299MOL0     H40360   2.335   2.860   3.511 -0.3519  2.3466 -0.9896
  299MOL0     H40361   2.209   3.013   3.394 -1.6271  2.4268  0.3664
  299MOL0     H40362   2.103   2.993   3.536 -1.1999  1.9903 -1.4294
  299MOL0     H40363   1.880   2.811   3.216 -0.7997 -1.2469  0.5035
  299MOL0     H40364   2.081   2.658   3.942  0.7440 -1.4855  0.3848
  299MOL0     H40365   1.858   2.696   4.010 -2.1594  1.4096 -0.8044
  300MOL0     O40366  10.097   2.667   9.596  0.0564  0.3201  0.5410
  300MOL0     C40367  10.148   2.557   9.595 -0.5126 -0.0716 -0.0831
  300MOL0     O40368  10.086   2.438   9.532  0.0310  0.1934 -0.7448
  300MOL0     C40369   9.967   2.444   9.469 -0.8022  0.2313  1.2634
  300MOL0     C40370   9.870   2.351   9.503  0.5510  0.0790  0.9629
  300MOL0     C40371   9.747   2.348   9.428 -0.8256  0.3008 -0.4917
  300MOL0     C40372   9.724   2.444   9.326 -1.3477 -0.3083 -0.5514
  300MOL0     O40373   9.607   2.463   9.260  0.2770 -0.5070  0.1427
  300MOL0     C40374   9.495   2.469   9.342 -0.4171  0.6605  0.3956
  300MOL0     C40375   9.391   2.583   9.292  0.1263 -0.2089  0.1511
  300MOL0     C40376   9.424   2.710   9.371 -0.8259  0.2932  0.3850
  300MOL0     C40377   9.364   2.828   9.292 -0.7620 -0.3060 -0.5418
  300MOL0     C40378   9.406   2.936   9.389  0.6904  0.0169  0.6498
  300MOL0     C40379   9.377   3.074   9.328  0.9100  0.4667 -0.5078
  300MOL0     C40380   9.227   3.095   9.298 -0.3807  0.8386  0.2707
  300MOL0     C40381   9.197   3.234   9.343 -0.2387  0.0436 -0.5158
  300MOL0     N40382   9.213   3.239   9.491  0.7190  0.3451  0.9309
  300MOL0     C40383   9.172   3.151   9.585 -0.1729  0.3314 -0.1775
  300MOL0     C40384   9.203   3.206   9.709 -0.1876  0.0384 -0.5088
  300MOL0     C40385   9.178   3.150   9.847  0.1619 -0.1504 -0.7211
  300MOL0     C40386   9.149   3.272   9.946  0.4068  0.8075  0.2942
  300MOL0     C40387   8.997   3.321   9.931  0.2441  0.8062  0.0914
  300MOL0     C40388   8.984   3.447  10.018  0.0224 -0.1530  0.3212
  300MOL0     O40389   8.974   3.425  10.154 -0.3288  0.1125 -0.1040
  300MOL0     C40390   9.021   3.525  10.243  0.5130 -0.4195 -0.0146
  300MOL0     C40391   9.078   3.487  10.358 -0.6974 -1.0418 -0.1103
  300MOL0     C40392   9.149   3.585  10.439 -0.1315  0.3886 -0.6459
  300MOL0     C40393   9.220   3.520  10.565  0.2848 -0.7823  1.1980
  300MOL0     C40394   9.146   3.721  10.403 -0.0929 -0.4286  0.2684
  300MOL0     C40395   9.207   3.834  10.476 -0.0866  0.0242 -0.2841
  300MOL0     O40396   9.156   3.960  10.446 -0.4633 -0.5068 -0.0218
  300MOL0     C40397   9.224   4.066  10.508  0.0084 -0.2833  0.0433
  300MOL0     C40398   9.358   4.095  10.457  1.1801  0.6605  0.5179
  300MOL0     C40399   9.430   4.186  10.519 -0.0182 -0.8202 -0.4846
  300MOL0     C40400   9.384   4.266  10.623  0.9851  0.6412 -0.1697
  300MOL0     O40401   9.468   4.360  10.668  0.4334 -0.1182  0.4358
  300MOL0     C40402   9.414   4.463  10.755 -0.6957  0.2799 -1.3386
  300MOL0     C40403   9.539   4.552  10.786  0.2839  0.0823 -0.3469
  300MOL0     C40404   9.493   4.674  10.860  0.3523 -0.1726 -1.7708
  300MOL0     C40405   9.390   4.759  10.800  0.1288  0.4759  0.5081
  300MOL0     C40406   9.384   4.898  10.855  0.2963  0.3433  0.8245
  300MOL0     C40407   9.507   4.985  10.809 -0.0676  0.3270  0.2668
  300MOL0     C40408   9.493   5.117  10.880  0.2874 -0.3565 -0.7042
  300MOL0     C40409   9.570   5.232  10.813 -1.0979  0.3447 -0.4190
  300MOL0    Cl40410   9.552   5.385  10.888  0.1033 -0.1474  0.0995
  300MOL0     C40411   9.255   4.240  10.678  0.1961 -0.0633  1.1351
  300MOL0     C40412   9.177   4.141  10.611 -0.4241 -0.7997 -0.0098
  300MOL0     O40413   9.291   3.816  10.568  0.2355  0.0236  0.2729
  300MOL0     C40414   9.070   3.753  10.284 -1.5066 -0.4221 -0.4302
  300MOL0     C40415   9.009   3.659  10.212  0.1196  0.7938  0.5503
  300MOL0     N40416   9.261   3.326   9.688 -0.7177  0.0911 -0.3744
  300MOL0     N40417   9.252   3.348   9.561 -0.4019  0.5516  0.3903
  300MOL0     C40418   9.824   2.527   9.289 -0.1434 -0.4295  0.4270
  300MOL0     C40419   9.944   2.534   9.358 -0.3051 -1.0314  0.0816
  300MOL0     C40420  10.281   2.549   9.659  0.2933  0.2689 -0.2753
  300MOL0     C40421  10.353   2.660   9.705 -0.5413  0.1667  0.1028
  300MOL0     C40422  10.483   2.655   9.748 -0.2702  0.4970 -0.0597
  300MOL0     C40423  10.539   2.535   9.761 -0.7415 -0.0398  0.2172
  300MOL0     O40424  10.664   2.540   9.827  1.0138 -0.4180  0.8495
  300MOL0     C40425  10.722   2.417   9.873 -0.3059  0.2198 -0.4713
  300MOL0     C40426  10.805   2.341   9.767 -0.6773  0.4275  0.5544
  300MOL0     C40427  10.925   2.424   9.714 -0.2950  0.3203  0.6212
  300MOL0     C40428  11.048   2.426   9.796 -0.3463 -0.0201  0.4962
  300MOL0     C40429  11.159   2.506   9.743 -0.0929  0.2373  0.4378
  300MOL0     C40430  11.251   2.564   9.697 -0.2156 -0.7057 -0.2981
  300MOL0     C40431  10.467   2.418   9.730 -0.3553 -0.3423 -0.4913
  300MOL0     C40432  10.339   2.426   9.671 -0.5083  0.9982  0.5214
  300MOL0     H40433   9.876   2.282   9.587  0.4003 -2.2973 -0.8959
  300MOL0     H40434   9.665   2.287   9.465  1.0915 -1.1808  1.5965
  300MOL0     H40435   9.440   2.374   9.337  1.0491 -0.4507  3.1021
  300MOL0     H40436   9.523   2.480   9.447  1.1075 -0.3901  0.1427
  300MOL0     H40437   9.398   2.591   9.183 -4.3768  0.3780 -0.2903
  300MOL0     H40438   9.286   2.553   9.299  0.1870 -1.0163 -1.7034
  300MOL0     H40439   9.380   2.703   9.471 -3.7052  1.4991 -0.6815
  300MOL0     H40440   9.532   2.725   9.370 -1.2964  4.9589 -0.8652
  300MOL0     H40441   9.412   2.839   9.195  2.0085  1.0045  0.8556
  300MOL0     H40442   9.255   2.820   9.302 -0.4826 -1.5986  2.5304
  300MOL0     H40443   9.351   2.925   9.483  2.0723 -1.2669  1.3590
  300MOL0     H40444   9.515   2.934   9.404  1.3463  1.0935 -3.0724
  300MOL0     H40445   9.413   3.147   9.402  2.0616 -2.1463  1.6745
  300MOL0     H40446   9.443   3.087   9.241  3.1051 -0.0842  1.0031
  300MOL0     H40447   9.214   3.080   9.190  0.3849 -1.6892  0.4514
  300MOL0     H40448   9.159   3.021   9.341  1.7400 -2.3313 -1.3371
  300MOL0     H40449   9.099   3.268   9.310 -0.4449  1.7879  1.6547
  300MOL0     H40450   9.271   3.306   9.305 -1.1720  1.7801  0.8488
  300MOL0     H40451   9.113   3.062   9.564  0.5027 -0.1360 -0.1187
  300MOL0     H40452   9.097   3.076   9.842  1.8496 -2.1023 -0.5506
  300MOL0     H40453   9.264   3.097   9.887 -1.5542 -3.0244 -0.5701
  300MOL0     H40454   9.221   3.354   9.945  1.0123  0.2940  0.3341
  300MOL0     H40455   9.161   3.233  10.048 -1.1908  0.3954  0.3507
  300MOL0     H40456   8.932   3.240   9.964  0.3481 -0.6909 -2.9722
  300MOL0     H40457   8.973   3.352   9.828  0.3246  1.1602  0.1758
  300MOL0     H40458   8.896   3.506   9.990  0.1303  0.2736  0.8912
  300MOL0     H40459   9.068   3.512   9.993 -0.0996 -0.6795 -1.6954
  300MOL0     H40460   9.073   3.380  10.374 -1.8689 -0.7897  1.4821
  300MOL0     H40461   9.269   3.423  10.550 -0.7930 -0.8880 -2.9934
  300MOL0     H40462   9.302   3.590  10.580  0.5691 -0.8923  0.2282
  300MOL0     H40463   9.150   3.528  10.648 -1.3377  2.2042 -0.2983
  300MOL0     H40464   9.381   4.043  10.365 -2.9970 -1.9871  0.6935
  300MOL0     H40465   9.531   4.203  10.482  1.5354 -1.9846  2.8008
  300MOL0     H40466   9.328   4.509  10.707  0.3376  2.9169 -0.8168
  300MOL0     H40467   9.375   4.417  10.847 -0.2506  1.6737 -0.4168
  300MOL0     H40468   9.612   4.492  10.840 -1.5284 -1.9553 -0.0162
  300MOL0     H40469   9.592   4.593  10.699  0.3720  0.1147 -0.2764
  300MOL0     H40470   9.589   4.724  10.875  0.2403  0.1021 -1.9731
  300MOL0     H40471   9.450   4.622  10.947  0.2145 -0.1701 -1.8379
  300MOL0     H40472   9.409   4.759  10.692 -0.6680 -1.7554  0.3095
  300MOL0     H40473   9.293   4.707  10.800  1.5045 -2.5433 -2.4665
  300MOL0     H40474   9.389   4.898  10.965  3.0270  0.9576  0.7671
  300MOL0     H40475   9.290   4.938  10.818 -0.4880 -1.1461  1.0926
  300MOL0     H40476   9.606   4.945  10.830  1.7672  3.8521 -0.8991
  300MOL0     H40477   9.506   5.004  10.701 -0.0453  0.0219  0.2118
  300MOL0     H40478   9.507   5.102  10.987 -0.4762  0.3558 -0.4884
  300MOL0     H40479   9.388   5.149  10.875  0.1733 -0.7082 -0.5597
  300MOL0     H40480   9.534   5.248  10.711  2.9048 -0.1973 -2.0896
  300MOL0     H40481   9.675   5.203  10.819 -0.9772  0.7730 -0.3922
  300MOL0     H40482   9.216   4.300  10.759 -1.7713  2.3129 -1.3685
  300MOL0     H40483   9.070   4.123  10.623 -0.3306 -1.3432  0.0482
  300MOL0     H40484   9.054   3.858  10.264  3.0838  1.2139  2.8806
  300MOL0     H40485   8.956   3.696  10.125  2.0661  0.8739 -0.6688
  300MOL0     H40486   9.795   2.580   9.199 -1.2039 -0.0199  0.9970
  300MOL0     H40487  10.019   2.605   9.324 -0.7434 -0.9150 -0.6537
  300MOL0     H40488  10.300   2.755   9.710  0.4137  0.7422 -0.5005
  300MOL0     H40489  10.536   2.747   9.769  0.0948  1.0247 -2.8845
  300MOL0     H40490  10.804   2.453   9.937 -0.2765  0.5581 -0.6954
  300MOL0     H40491  10.665   2.358   9.945 -0.6119  0.9125 -0.1352
  300MOL0     H40492  10.736   2.322   9.684 -0.1013  2.8027 -0.5480
  300MOL0     H40493  10.846   2.245   9.799 -0.0648  0.9972  1.5205
  300MOL0     H40494  10.892   2.524   9.682 -1.3635 -0.1927  0.0350
  300MOL0     H40495  10.960   2.375   9.623 -1.0364 -0.6849  0.8654
  300MOL0     H40496  11.073   2.325   9.830  0.3136  0.3637  1.1785
  300MOL0     H40497  11.023   2.475   9.891  0.0035 -2.4607  1.9450
  300MOL0     H40498  11.329   2.623   9.652 -0.1302  0.8404  1.7494
  300MOL0     H40499  10.525   2.328   9.747 -0.2829 -0.3361 -0.7053
  300MOL0     H40500  10.290   2.332   9.646 -0.7718 -0.0045  4.1596
  301MOL0     O40501   0.554   4.494   5.707  0.2825 -0.1572  0.0053
  301MOL0     C40502   0.596   4.486   5.588  0.7790  1.0314 -1.1666
  301MOL0     O40503   0.519   4.488   5.472  0.5341 -0.4935 -0.4978
  301MOL0     C40504   0.387   4.527   5.472 -0.1718  0.2203 -0.2874
  301MOL0     C40505   0.311   4.482   5.362 -0.3643 -0.1639 -0.2046
  301MOL0     C40506   0.184   4.536   5.338 -0.5319  0.4452 -0.2057
  301MOL0     C40507   0.127   4.630   5.428 -0.1553  0.4886  0.1376
  301MOL0     O40508  -0.000   4.672   5.404  0.2225  0.0296 -0.0464
  301MOL0     C40509  -0.033   4.760   5.301  1.2822 -0.4376  0.9490
  301MOL0     C40510  -0.009   4.902   5.351 -0.6048 -0.3068 -0.8623
  301MOL0     C40511  -0.040   5.011   5.251 -0.1105 -0.7906 -0.5600
  301MOL0     C40512  -0.034   5.150   5.318 -0.8530  0.1175 -0.1176
  301MOL0     C40513  -0.158   5.230   5.308 -0.3725  1.0067  0.1490
  301MOL0     C40514  -0.148   5.368   5.381 -0.2818 -0.7800  1.0457
  301MOL0     C40515  -0.280   5.445   5.394 -0.0652 -1.0614  0.4477
  301MOL0     C40516  -0.350   5.469   5.264  0.8718  0.0025  0.6594
  301MOL0     N40517  -0.471   5.555   5.283 -0.0629 -0.5442 -0.0764
  301MOL0     C40518  -0.559   5.602   5.189  0.2850  0.0734 -0.5774
  301MOL0     C40519  -0.650   5.675   5.254  0.6794 -0.0925 -1.1100
  301MOL0     C40520  -0.775   5.745   5.200 -0.6853  0.2820  0.8653
  301MOL0     C40521  -0.905   5.729   5.286  0.6068 -0.2675 -0.4505
  301MOL0     C40522  -1.000   5.838   5.229  0.2944 -0.4602 -0.6342
  301MOL0     C40523  -1.138   5.824   5.294 -0.0168  0.4832  0.6222
  301MOL0     O40524  -1.217   5.923   5.229  0.4592  0.4195  0.6334
  301MOL0     C40525  -1.304   5.989   5.307  0.3969 -1.4879 -0.3813
  301MOL0     C40526  -1.439   5.995   5.269  0.3326  0.6712 -0.5904
  301MOL0     C40527  -1.545   6.035   5.350  0.8701  0.1357 -0.3966
  301MOL0     C40528  -1.689   6.039   5.288  0.3524 -0.1522 -0.5751
  301MOL0     C40529  -1.508   6.099   5.470  0.7339  0.0603  0.8316
  301MOL0     C40530  -1.614   6.171   5.547  0.0354 -0.0446 -0.5060
  301MOL0     O40531  -1.568   6.281   5.617 -0.7063  0.1792  0.0256
  301MOL0     C40532  -1.658   6.360   5.679  0.6336 -0.9615  0.2327
  301MOL0     C40533  -1.671   6.362   5.818  0.7045 -0.6665 -0.3736
  301MOL0     C40534  -1.756   6.466   5.876  0.3613 -0.7371  0.3799
  301MOL0     C40535  -1.812   6.573   5.804 -0.1364  0.4000 -0.1939
  301MOL0     O40536  -1.891   6.667   5.861  0.3488  0.8658 -0.6511
  301MOL0     C40537  -1.881   6.678   6.008  0.2707  0.2873  0.2127
  301MOL0     C40538  -1.989   6.772   6.062 -0.7736  0.0607 -0.4493
  301MOL0     C40539  -1.966   6.920   6.027 -0.7168  0.2550 -0.0475
  301MOL0     C40540  -2.097   6.992   6.032  0.5692 -0.6481 -0.8687
  301MOL0     C40541  -2.083   7.141   6.027  0.5045  0.2387  0.1089
  301MOL0     C40542  -2.204   7.220   6.094 -0.3039 -0.1009  0.1642
  301MOL0     C40543  -2.339   7.202   6.029 -1.0890 -1.2944 -0.2913
  301MOL0     C40544  -2.339   7.191   5.880 -0.1517  0.4792 -0.4332
  301MOL0    Cl40545  -2.502   7.141   5.834 -0.2984 -0.0809  0.2892
  301MOL0     C40546  -1.790   6.569   5.671  1.1962  0.5995 -1.0769
  301MOL0     C40547  -1.721   6.470   5.610 -0.7833 -0.6589  0.1630
  301MOL0     O40548  -1.726   6.138   5.544  0.0035 -0.1104  0.1520
  301MOL0     C40549  -1.371   6.102   5.516  0.1443  0.8370 -0.5578
  301MOL0     C40550  -1.267   6.046   5.431 -0.1018  0.0465  0.2750
  301MOL0     N40551  -0.623   5.686   5.390 -0.4347 -0.3573  0.2492
  301MOL0     N40552  -0.521   5.602   5.405 -0.3581 -0.2809  0.3026
  301MOL0     C40553   0.203   4.675   5.538 -0.3667  0.3596  0.7967
  301MOL0     C40554   0.333   4.628   5.560  0.1300  0.2107 -0.1052
  301MOL0     C40555   0.742   4.486   5.566 -0.4821  0.4448 -0.7756
  301MOL0     C40556   0.827   4.512   5.676  0.2462 -0.0563  0.2940
  301MOL0     C40557   0.963   4.514   5.658  0.0941 -0.0433 -0.8032
  301MOL0     C40558   1.017   4.501   5.524 -0.3271 -0.9472 -0.2910
  301MOL0     O40559   1.141   4.526   5.478 -0.1299  0.2566  0.1250
  301MOL0     C40560   1.229   4.587   5.567  0.1118 -0.1828 -0.4296
  301MOL0     C40561   1.360   4.634   5.491 -0.0197 -0.2960  0.6744
  301MOL0     C40562   1.426   4.518   5.415  0.6396  0.6105 -1.0198
  301MOL0     C40563   1.552   4.552   5.327  0.3521 -0.5216  1.0561
  301MOL0     C40564   1.525   4.521   5.181 -0.3197  0.3866 -0.6071
  301MOL0     C40565   1.521   4.490   5.067  0.0061  0.2896  0.0001
  301MOL0     C40566   0.925   4.463   5.416 -0.9329 -0.3504  0.7393
  301MOL0     C40567   0.796   4.459   5.432  0.0954 -0.5892  0.0075
  301MOL0     H40568   0.351   4.409   5.292  0.2904  1.6401 -1.8351
  301MOL0     H40569   0.129   4.501   5.252  3.4734 -2.1162 -2.0212
  301MOL0     H40570   0.010   4.734   5.204 -0.7555  2.3121 -0.8612
  301MOL0     H40571  -0.139   4.754   5.275  0.7733  1.0997  2.4589
  301MOL0     H40572  -0.057   4.923   5.447  0.0265 -0.8034 -0.4267
  301MOL0     H40573   0.097   4.912   5.375 -0.6142 -2.1079  0.1263
  301MOL0     H40574   0.030   5.018   5.167  0.8983  0.9739  0.3555
  301MOL0     H40575  -0.141   5.001   5.211 -0.3751  1.1094 -0.4633
  301MOL0     H40576  -0.004   5.134   5.422  2.0913  2.4366 -0.4824
  301MOL0     H40577   0.050   5.195   5.264  0.2221  1.6704  2.6341
  301MOL0     H40578  -0.201   5.248   5.209 -0.2018  1.2160  0.1115
  301MOL0     H40579  -0.230   5.166   5.360  2.7417  0.3098  4.0850
  301MOL0     H40580  -0.116   5.354   5.485 -4.8307 -1.5372  2.5365
  301MOL0     H40581  -0.078   5.432   5.326 -3.1722 -0.6138 -2.7916
  301MOL0     H40582  -0.346   5.396   5.466  0.1504 -0.5145  1.0200
  301MOL0     H40583  -0.257   5.538   5.446 -0.8218 -1.4580  1.5130
  301MOL0     H40584  -0.388   5.371   5.232  0.1720  0.2729  0.6357
  301MOL0     H40585  -0.275   5.497   5.188  0.4792 -1.8951 -0.4914
  301MOL0     H40586  -0.567   5.575   5.085  2.2996 -0.6448 -0.5805
  301MOL0     H40587  -0.746   5.848   5.221  1.3315 -0.5223  2.2291
  301MOL0     H40588  -0.789   5.723   5.093  0.0195 -0.3423  0.8986
  301MOL0     H40589  -0.880   5.747   5.391 -1.3544  2.5411 -0.3510
  301MOL0     H40590  -0.945   5.632   5.258  0.2203 -1.0436  2.4620
  301MOL0     H40591  -1.010   5.820   5.122 -1.0810  1.1692 -0.8250
  301MOL0     H40592  -0.966   5.941   5.240 -3.0004  0.4879  3.4185
  301MOL0     H40593  -1.128   5.833   5.402 -2.4940  1.3397  0.8372
  301MOL0     H40594  -1.177   5.723   5.277 -2.4681  1.3704  0.6012
  301MOL0     H40595  -1.471   5.969   5.169  0.4686 -0.2784 -0.3958
  301MOL0     H40596  -1.755   5.983   5.355 -0.6705  2.1970  0.5109
  301MOL0     H40597  -1.731   6.140   5.280  1.5529  0.2305 -2.8195
  301MOL0     H40598  -1.679   5.994   5.189  1.3080 -2.4640  0.5039
  301MOL0     H40599  -1.643   6.275   5.876  2.2080  1.8395  3.0259
  301MOL0     H40600  -1.786   6.457   5.980 -0.9218  2.6144  0.4058
  301MOL0     H40601  -1.911   6.584   6.056 -3.3351 -0.1127 -2.3935
  301MOL0     H40602  -1.780   6.706   6.036 -0.6409  3.6415  0.6085
  301MOL0     H40603  -2.089   6.741   6.030 -0.1439 -1.5834 -0.8984
  301MOL0     H40604  -1.990   6.774   6.171 -0.1787 -0.4779 -0.4283
  301MOL0     H40605  -1.920   6.930   5.928  0.4510 -0.1363  0.4365
  301MOL0     H40606  -1.897   6.965   6.099  0.1431  2.5893 -2.1584
  301MOL0     H40607  -2.181   6.958   5.971 -1.7795  0.1087  1.7319
  301MOL0     H40608  -2.129   6.974   6.135  0.5930 -4.4105 -1.3816
  301MOL0     H40609  -2.062   7.174   5.925 -1.7109  3.1627  0.4849
  301MOL0     H40610  -2.001   7.167   6.094  0.3966 -0.7921  0.6572
  301MOL0     H40611  -2.197   7.190   6.199 -0.2120  2.4416  0.9504
  301MOL0     H40612  -2.197   7.329   6.096  0.8456 -0.1689  1.0358
  301MOL0     H40613  -2.404   7.284   6.062  2.4580  2.0181 -0.8171
  301MOL0     H40614  -2.379   7.110   6.074 -1.3126 -0.5533  1.0690
  301MOL0     H40615  -2.262   7.119   5.852  0.9866  0.0798  3.1356
  301MOL0     H40616  -2.314   7.283   5.828  2.3847  1.8866  2.8908
  301MOL0     H40617  -1.841   6.649   5.619  2.4537  3.1797  1.4267
  301MOL0     H40618  -1.687   6.487   5.508 -1.5402  3.0584  0.3939
  301MOL0     H40619  -1.337   6.150   5.607  2.2332 -0.8394 -0.3760
  301MOL0     H40620  -1.162   6.043   5.459 -0.2642 -4.5972  1.0840
  301MOL0     H40621   0.170   4.730   5.626 -0.8235 -1.2065  1.6415
  301MOL0     H40622   0.400   4.668   5.636 -1.2853 -0.9618  1.8500
  301MOL0     H40623   0.788   4.537   5.774 -0.3084  3.2901 -0.6702
  301MOL0     H40624   1.017   4.538   5.749 -2.7329  0.5631  0.8375
  301MOL0     H40625   1.176   4.675   5.604 -3.2443 -1.4182 -1.8901
  301MOL0     H40626   1.258   4.517   5.647 -0.2807 -1.4275 -1.3451
  301MOL0     H40627   1.415   4.681   5.573 -2.9515  0.3014  2.4633
  301MOL0     H40628   1.322   4.704   5.416 -1.3985 -2.3200 -0.6036
  301MOL0     H40629   1.353   4.471   5.347 -1.1245 -0.0036  1.1915
  301MOL0     H40630   1.461   4.443   5.487 -1.7472 -1.7197 -2.0775
  301MOL0     H40631   1.637   4.485   5.343  2.9293  1.4008 -2.9374
  301MOL0     H40632   1.583   4.656   5.339  0.4330 -0.3187 -0.6837
  301MOL0     H40633   1.516   4.461   4.964 -0.3813 -0.4618  0.2241
  301MOL0     H40634   0.980   4.434   5.327  0.0958 -1.2647  1.6618
  301MOL0     H40635   0.732   4.447   5.345 -0.1927 -0.9669  0.2667
  302MOL0     O40636   5.136   3.161  11.392 -0.2045 -0.0277 -0.3488
  302MOL0     C40637   5.225   3.090  11.353  0.4500 -0.0442  0.0239
  302MOL0     O40638   5.313   3.121  11.259 -0.4495  0.2054 -0.0742
  302MOL0     C40639   5.327   3.255  11.213  0.1472 -0.2076 -0.7997
  302MOL0     C40640   5.458   3.296  11.180  0.2445 -0.0468  0.2130
  302MOL0     C40641   5.485   3.423  11.120 -0.1521 -0.0322 -0.3186
  302MOL0     C40642   5.373   3.512  11.096  0.3012 -0.0971  0.6732
  302MOL0     O40643   5.390   3.629  11.035  0.3598 -0.1861  0.5442
  302MOL0     C40644   5.486   3.721  11.093  0.6369  0.5901 -0.0863
  302MOL0     C40645   5.441   3.870  11.084 -0.8391  0.2165 -0.3068
  302MOL0     C40646   5.310   3.903  11.150  0.4449 -0.6007 -0.2098
  302MOL0     C40647   5.311   4.056  11.183 -0.5325  0.1524  0.1702
  302MOL0     C40648   5.314   4.162  11.062  0.5412  0.1261 -0.5270
  302MOL0     C40649   5.203   4.136  10.950 -0.1688 -0.1126 -0.4666
  302MOL0     C40650   5.055   4.133  11.010 -0.8381  0.6410  0.2426
  302MOL0     C40651   4.978   4.082  10.887 -0.1836  0.7695 -0.5533
  302MOL0     N40652   4.865   3.993  10.933  0.0678 -0.3698 -0.0332
  302MOL0     C40653   4.755   4.022  11.007 -0.1700 -0.2762 -0.4278
  302MOL0     C40654   4.669   3.910  10.983  0.3575 -0.3542  0.1614
  302MOL0     C40655   4.533   3.889  11.041 -0.1184 -0.2273 -0.1511
  302MOL0     C40656   4.418   3.964  10.973 -1.1899 -0.2939  1.1155
  302MOL0     C40657   4.433   4.112  10.976 -0.0060 -0.8216 -0.7695
  302MOL0     C40658   4.310   4.192  10.915  0.3419 -0.1328  0.3845
  302MOL0     O40659   4.198   4.183  11.006  0.8653  0.7546 -0.2792
  302MOL0     C40660   4.066   4.160  10.973  0.4278  0.3668  1.0167
  302MOL0     C40661   3.979   4.144  11.075 -0.5764 -0.2405 -0.3484
  302MOL0     C40662   3.840   4.123  11.058  0.7135  0.0375 -0.1912
  302MOL0     C40663   3.753   4.118  11.181 -0.6972  1.7851 -0.0607
  302MOL0     C40664   3.789   4.106  10.925 -0.2228 -0.3072 -0.3878
  302MOL0     C40665   3.654   4.066  10.890  0.1217  0.1676  0.2390
  302MOL0     O40666   3.628   4.033  10.762  0.1674  1.0298 -0.6562
  302MOL0     C40667   3.501   4.047  10.722  0.1738 -0.1168  0.1627
  302MOL0     C40668   3.443   3.937  10.651 -0.9067 -0.1931 -0.4387
  302MOL0     C40669   3.309   3.927  10.620  0.5048  0.7201  0.1605
  302MOL0     C40670   3.230   4.034  10.647 -0.6796  0.2740  0.2517
  302MOL0     O40671   3.098   4.025  10.613 -0.3547  0.1983 -0.4383
  302MOL0     C40672   3.008   4.118  10.682  0.4750 -0.8072 -0.1320
  302MOL0     C40673   2.863   4.088  10.657  0.8053 -0.1611  1.2504
  302MOL0     C40674   2.781   4.207  10.700 -0.7358  0.2983 -0.6177
  302MOL0     C40675   2.637   4.207  10.653  0.5494  0.7297 -0.4739
  302MOL0     C40676   2.546   4.288  10.754  0.4600 -0.0834  0.0718
  302MOL0     C40677   2.397   4.298  10.715 -0.7066  1.2807  0.0264
  302MOL0     C40678   2.320   4.389  10.819  0.2278  0.6188  0.2716
  302MOL0     C40679   2.177   4.420  10.791 -0.8164  0.0437 -0.8615
  302MOL0    Cl40680   2.083   4.272  10.783 -0.1066  0.5576  0.2116
  302MOL0     C40681   3.293   4.145  10.705  0.4396 -0.1077  0.1617
  302MOL0     C40682   3.421   4.158  10.742 -0.3971  1.0025 -0.3507
  302MOL0     O40683   3.576   4.049  10.981  0.7637  0.0384 -0.2421
  302MOL0     C40684   3.877   4.137  10.823 -0.2017  0.7077  0.1272
  302MOL0     C40685   4.007   4.170  10.841 -0.1656  0.3880  0.3286
  302MOL0     N40686   4.740   3.820  10.911  0.0170 -0.5801 -0.2316
  302MOL0     N40687   4.858   3.867  10.887 -0.2379  0.2877 -0.0867
  302MOL0     C40688   5.242   3.470  11.134  0.0154  0.4669 -0.6586
  302MOL0     C40689   5.220   3.344  11.184  0.4759 -0.7267 -0.7507
  302MOL0     C40690   5.232   2.949  11.423 -0.0513 -0.9996 -0.3686
  302MOL0     C40691   5.171   2.936  11.554  0.2217 -0.3590 -0.1697
  302MOL0     C40692   5.176   2.807  11.614 -1.2342  1.0898 -0.4334
  302MOL0     C40693   5.247   2.698  11.549  0.2403  0.2399 -1.1347
  302MOL0     O40694   5.234   2.573  11.616 -0.2170 -0.1243 -0.4277
  302MOL0     C40695   5.290   2.459  11.554  0.1729  0.4221 -0.4519
  302MOL0     C40696   5.255   2.334  11.636  0.2011 -0.7578  0.0433
  302MOL0     C40697   5.111   2.303  11.660  0.9092 -0.3160 -1.1538
  302MOL0     C40698   5.044   2.265  11.527  0.2326  1.2824  1.4100
  302MOL0     C40699   4.910   2.203  11.541  0.9775 -0.2101 -0.1571
  302MOL0     C40700   4.795   2.157  11.529  0.3286  0.1391 -0.3384
  302MOL0     C40701   5.316   2.716  11.424  0.5523 -0.6471 -0.1058
  302MOL0     C40702   5.303   2.848  11.367  0.2719  1.1288  0.2665
  302MOL0     H40703   5.537   3.223  11.199 -0.7769 -0.8185  1.6908
  302MOL0     H40704   5.583   3.457  11.089  0.6180 -1.5821  0.2976
  302MOL0     H40705   5.498   3.686  11.195 -1.2299  0.1540  0.0168
  302MOL0     H40706   5.578   3.709  11.034  0.3793  0.8980 -0.5623
  302MOL0     H40707   5.527   3.930  11.115 -0.3083  0.2483 -1.7635
  302MOL0     H40708   5.441   3.909  10.982  0.3439  1.4420  0.1180
  302MOL0     H40709   5.232   3.889  11.074 -0.5810  4.6380 -0.5472
  302MOL0     H40710   5.286   3.844  11.238 -3.5195 -2.3992 -2.2161
  302MOL0     H40711   5.222   4.075  11.243 -0.0213  0.3437  0.8865
  302MOL0     H40712   5.399   4.078  11.245  0.9684 -0.9689 -1.4343
  302MOL0     H40713   5.296   4.264  11.096  0.2115  0.5134 -1.8253
  302MOL0     H40714   5.414   4.157  11.018  0.5289 -0.4067 -0.4978
  302MOL0     H40715   5.214   4.214  10.873 -1.7639  0.2720 -0.3359
  302MOL0     H40716   5.231   4.041  10.903 -1.1573 -0.1404 -1.0189
  302MOL0     H40717   5.040   4.069  11.097 -2.1595  0.7630  0.1280
  302MOL0     H40718   5.030   4.235  11.042 -1.6395  2.4438 -5.1027
  302MOL0     H40719   5.031   4.021  10.813  1.1823  2.1656 -0.7894
  302MOL0     H40720   4.948   4.173  10.834 -1.6134  1.4002  1.2496
  302MOL0     H40721   4.726   4.111  11.062  0.1889  0.9366 -2.0992
  302MOL0     H40722   4.514   3.782  11.028  0.5094 -0.5842  1.5566
  302MOL0     H40723   4.530   3.917  11.147 -5.0499  1.1872 -0.4171
  302MOL0     H40724   4.330   3.933  11.031 -0.9108  0.3105  1.8728
  302MOL0     H40725   4.403   3.927  10.871  3.1652 -1.5025  0.7115
  302MOL0     H40726   4.515   4.145  10.911 -0.5829 -2.5884 -2.4817
  302MOL0     H40727   4.458   4.154  11.074  2.2510 -0.5868 -1.3762
  302MOL0     H40728   4.290   4.155  10.814  3.8428  0.9883 -0.8604
  302MOL0     H40729   4.344   4.296  10.904 -0.5338  0.1722  0.4846
  302MOL0     H40730   4.022   4.139  11.174 -1.1512 -2.9810 -0.1394
  302MOL0     H40731   3.691   4.208  11.184 -0.9050  1.6954 -1.2138
  302MOL0     H40732   3.687   4.031  11.182  2.1481 -0.5769  2.2346
  302MOL0     H40733   3.813   4.119  11.273  0.3864 -0.0436 -0.6944
  302MOL0     H40734   3.500   3.848  10.628 -0.6818 -1.2240  3.3561
  302MOL0     H40735   3.264   3.851  10.556  0.2013  1.1257 -0.1146
  302MOL0     H40736   3.026   4.118  10.790  1.6874 -2.3592 -0.3021
  302MOL0     H40737   3.024   4.217  10.637 -0.3751 -2.6454 -5.0653
  302MOL0     H40738   2.838   4.070  10.552 -2.9753  2.0667  1.5451
  302MOL0     H40739   2.836   4.003  10.720  0.8062 -2.6596 -1.8875
  302MOL0     H40740   2.815   4.301  10.655  0.7614  0.3880  0.6321
  302MOL0     H40741   2.782   4.215  10.809 -0.3315 -0.0054 -0.5976
  302MOL0     H40742   2.622   4.240  10.550 -1.4623 -1.8086 -1.1012
  302MOL0     H40743   2.599   4.105  10.662 -1.2859  1.3830 -0.4220
  302MOL0     H40744   2.578   4.392  10.765 -0.5015  0.3264 -0.8648
  302MOL0     H40745   2.562   4.243  10.853  1.9368  2.3250  1.0293
  302MOL0     H40746   2.396   4.337  10.613 -4.0493  0.9341 -0.1754
  302MOL0     H40747   2.351   4.199  10.712 -0.9377  1.3466  0.9601
  302MOL0     H40748   2.365   4.488  10.831 -1.6485  1.4195  0.9598
  302MOL0     H40749   2.323   4.344  10.919 -1.9087  2.1349  1.1058
  302MOL0     H40750   2.175   4.459  10.689 -1.9477 -0.8165 -1.1836
  302MOL0     H40751   2.137   4.495  10.860  1.4327  0.3806  0.2060
  302MOL0     H40752   3.231   4.232  10.724  0.4713 -0.1934  0.6962
  302MOL0     H40753   3.456   4.251  10.786 -0.8268  0.7020  0.6584
  302MOL0     H40754   3.841   4.149  10.721  1.5627  0.8571 -0.5198
  302MOL0     H40755   4.066   4.190  10.752 -1.9253  0.2799 -0.8954
  302MOL0     H40756   5.166   3.543  11.109  0.5324  1.1302 -0.3429
  302MOL0     H40757   5.115   3.316  11.180  0.3958 -0.7435  0.8077
  302MOL0     H40758   5.126   3.019  11.608 -2.0358 -1.3347 -0.4191
  302MOL0     H40759   5.137   2.784  11.713 -0.0290 -0.1339 -0.2066
  302MOL0     H40760   5.259   2.450  11.449 -2.2813  1.6276  0.1001
  302MOL0     H40761   5.399   2.475  11.555  0.2580  0.0163 -1.3440
  302MOL0     H40762   5.305   2.334  11.734 -0.9343  1.1021  0.6738
  302MOL0     H40763   5.303   2.247  11.591  0.8047 -0.7901  0.7370
  302MOL0     H40764   5.049   2.386  11.695 -0.8136 -0.3727 -3.7450
  302MOL0     H40765   5.110   2.228  11.740  3.3909 -0.8102 -1.5022
  302MOL0     H40766   5.095   2.182  11.477 -1.0691  0.6441  1.0950
  302MOL0     H40767   5.047   2.344  11.453 -1.0855 -0.8172 -1.0317
  302MOL0     H40768   4.704   2.111  11.499  0.5810  0.7276 -2.1139
  302MOL0     H40769   5.356   2.639  11.359  1.0678  0.5654 -1.2792
  302MOL0     H40770   5.348   2.867  11.270  1.1257  1.3195  0.6927
  303MOL0     O40771   3.552  10.475  10.244 -0.3441  0.2216  0.6519
  303MOL0     C40772   3.656  10.415  10.235  0.4042  0.2053 -0.2251
  303MOL0     O40773   3.684  10.308  10.167  0.6822 -0.1308 -0.0486
  303MOL0     C40774   3.583  10.255  10.081 -0.8437  1.0607  0.4218
  303MOL0     C40775   3.445  10.236  10.115  0.7030 -0.5714  0.1248
  303MOL0     C40776   3.354  10.164  10.035  0.1748  0.3758  0.1868
  303MOL0     C40777   3.401  10.105   9.918 -0.1415 -0.3602  0.4475
  303MOL0     O40778   3.300  10.048   9.843  0.4091 -0.8340 -0.4370
  303MOL0     C40779   3.337   9.964   9.737 -0.3655  0.7426  0.1751
  303MOL0     C40780   3.216   9.887   9.679 -0.2409  0.1693 -0.0345
  303MOL0     C40781   3.159   9.790   9.781  0.5862  0.1585 -0.0418
  303MOL0     C40782   3.078   9.683   9.701 -0.7628 -0.4042 -0.0414
  303MOL0     C40783   3.022   9.569   9.786 -0.2315 -1.0113  0.3072
  303MOL0     C40784   2.946   9.613   9.919 -0.4135 -0.7622  0.2033
  303MOL0     C40785   2.874   9.488   9.982 -0.1108 -0.8144 -0.3499
  303MOL0     C40786   2.723   9.513   9.997  0.3088 -0.0257  0.0805
  303MOL0     N40787   2.656   9.408  10.081  0.0432 -0.3144 -0.3217
  303MOL0     C40788   2.614   9.291  10.026  0.4895  0.1616  0.3152
  303MOL0     C40789   2.514   9.248  10.110 -0.6959  0.1158  0.3597
  303MOL0     C40790   2.425   9.131  10.094  0.1715 -0.5958 -0.1178
  303MOL0     C40791   2.450   9.056   9.961  0.4752 -0.4417 -0.1096
  303MOL0     C40792   2.375   8.926   9.953  0.1973 -0.0025  0.1027
  303MOL0     C40793   2.399   8.854   9.815 -0.0384  0.0740  0.1925
  303MOL0     O40794   2.316   8.918   9.711 -0.3440  0.2620  0.1767
  303MOL0     C40795   2.181   8.893   9.698 -0.8428  1.3760  0.5121
  303MOL0     C40796   2.113   8.791   9.761  0.2749  0.0523  0.0470
  303MOL0     C40797   1.979   8.759   9.724  0.9767 -0.1955  0.2763
  303MOL0     C40798   1.909   8.657   9.809  0.0706  0.5558  0.4060
  303MOL0     C40799   1.914   8.831   9.622  1.4794 -0.6809 -0.2061
  303MOL0     C40800   1.776   8.806   9.570 -0.1719 -0.0484  0.8980
  303MOL0     O40801   1.718   8.917   9.513 -0.0315  0.2808 -0.0675
  303MOL0     C40802   1.588   8.920   9.469  0.6296  0.4427  0.5938
  303MOL0     C40803   1.500   8.810   9.456  0.1816 -0.1553  0.2570
  303MOL0     C40804   1.361   8.825   9.424  0.2334 -1.2611  0.6669
  303MOL0     C40805   1.305   8.956   9.405  0.1607 -0.0655 -0.0088
  303MOL0     O40806   1.172   8.984   9.386  0.3456  0.0001  0.1676
  303MOL0     C40807   1.102   8.879   9.310 -0.0446  0.2212 -0.1462
  303MOL0     C40808   0.974   8.953   9.256 -0.2764  0.1975 -0.4608
  303MOL0     C40809   0.875   8.974   9.375  0.0644 -0.2382 -0.1460
  303MOL0     C40810   0.735   9.001   9.331  0.3671 -0.2768  0.7307
  303MOL0     C40811   0.639   9.038   9.442  0.0749 -0.3663 -0.6007
  303MOL0     C40812   0.496   9.065   9.380 -0.2254 -0.3672 -0.0162
  303MOL0     C40813   0.388   9.097   9.475  0.5151  0.5827  0.2552
  303MOL0     C40814   0.246   9.106   9.409 -0.1456 -0.4497 -0.4815
  303MOL0    Cl40815   0.260   9.207   9.264 -0.2895 -0.0160  0.5345
  303MOL0     C40816   1.396   9.066   9.414  0.4364  0.0195 -0.3823
  303MOL0     C40817   1.529   9.043   9.448  0.2026 -0.4463  0.1819
  303MOL0     O40818   1.725   8.694   9.582  0.2181  0.0283 -0.2225
  303MOL0     C40819   1.987   8.932   9.558 -0.4967 -0.3173  0.5292
  303MOL0     C40820   2.119   8.959   9.592  0.8265  0.2937 -0.2918
  303MOL0     N40821   2.514   9.332  10.217 -0.3668  0.3429  0.6302
  303MOL0     N40822   2.606   9.416  10.205 -0.3136 -0.4201  0.2665
  303MOL0     C40823   3.535  10.115   9.877  0.0334 -0.2658 -0.1056
  303MOL0     C40824   3.625  10.181   9.965 -0.4150 -0.2207  0.2527
  303MOL0     C40825   3.767  10.463  10.322 -0.0124 -1.4943 -0.8952
  303MOL0     C40826   3.891  10.409  10.302  0.0750  0.2964 -0.1722
  303MOL0     C40827   4.001  10.458  10.375 -0.3686  0.0734 -0.2179
  303MOL0     C40828   3.993  10.554  10.470 -0.0424  0.5370  0.0800
  303MOL0     O40829   4.105  10.586  10.537 -0.1744 -0.3088 -0.6725
  303MOL0     C40830   4.084  10.612  10.681 -0.2879 -0.6982 -0.3783
  303MOL0     C40831   4.206  10.581  10.766 -0.4624  0.5358 -0.7334
  303MOL0     C40832   4.345  10.654  10.729  0.3706 -0.0713 -0.0593
  303MOL0     C40833   4.354  10.796  10.782  0.1539 -0.5231  0.0947
  303MOL0     C40834   4.486  10.857  10.761 -0.2057 -0.3519  0.3455
  303MOL0     C40835   4.598  10.905  10.753 -0.2657 -0.1515 -0.0534
  303MOL0     C40836   3.862  10.612  10.496 -0.6243 -0.8243 -0.3718
  303MOL0     C40837   3.751  10.570  10.424  0.3910  0.1583 -1.0621
  303MOL0     H40838   3.405  10.271  10.209  1.2161 -0.5140  0.3258
  303MOL0     H40839   3.252  10.137  10.064 -0.3680 -0.4958 -2.3009
  303MOL0     H40840   3.378  10.036   9.665  2.2020 -1.5335 -0.8209
  303MOL0     H40841   3.416   9.893   9.761  0.1966  1.0868 -0.6063
  303MOL0     H40842   3.147   9.966   9.649  0.6092  0.8781 -0.1769
  303MOL0     H40843   3.249   9.837   9.588  0.2104  0.8313 -0.2420
  303MOL0     H40844   3.238   9.731   9.828  2.5910  0.0065 -3.3455
  303MOL0     H40845   3.101   9.842   9.859  1.2230  2.3635 -0.9600
  303MOL0     H40846   3.007   9.732   9.633  1.7735  0.8041 -1.9915
  303MOL0     H40847   3.154   9.646   9.632  0.4813 -0.5894  1.3734
  303MOL0     H40848   2.944   9.522   9.726 -1.6859  0.5226  0.9399
  303MOL0     H40849   3.100   9.497   9.813 -0.1140  0.0706  3.1707
  303MOL0     H40850   3.002   9.664   9.998 -2.3429  0.6034  0.7769
  303MOL0     H40851   2.871   9.686   9.888  0.7214  0.4712  0.2661
  303MOL0     H40852   2.879   9.404   9.912 -1.2904 -2.1916  1.1225
  303MOL0     H40853   2.929   9.478  10.075  1.2434  0.0963 -1.0296
  303MOL0     H40854   2.676   9.517   9.898  0.9552 -2.5285 -0.3879
  303MOL0     H40855   2.716   9.612  10.043  0.9126  0.5507 -1.0343
  303MOL0     H40856   2.651   9.255   9.931 -1.5289 -0.1358 -0.3935
  303MOL0     H40857   2.443   9.062  10.176  0.4019  0.3853  0.6710
  303MOL0     H40858   2.322   9.167  10.105  0.3515 -0.4847  1.4417
  303MOL0     H40859   2.555   9.025   9.962  0.6384  0.0442 -1.1003
  303MOL0     H40860   2.422   9.119   9.877 -0.0997 -1.2676 -0.5579
  303MOL0     H40861   2.266   8.935   9.955  0.0644 -1.5577  0.9756
  303MOL0     H40862   2.412   8.870  10.039 -0.0212  1.0740  0.9210
  303MOL0     H40863   2.381   8.746   9.820  1.4228 -0.2473 -0.7494
  303MOL0     H40864   2.506   8.857   9.790 -0.3867 -2.0704 -1.9549
  303MOL0     H40865   2.153   8.752   9.854  1.3689  0.0508 -0.4074
  303MOL0     H40866   1.803   8.670   9.830 -0.3061  3.0354 -2.2186
  303MOL0     H40867   1.917   8.551   9.783  1.5330 -0.0078  2.8287
  303MOL0     H40868   1.976   8.655   9.895  3.2030  0.6547 -1.8328
  303MOL0     H40869   1.546   8.712   9.467  1.0785  0.0275 -1.4800
  303MOL0     H40870   1.304   8.734   9.432  0.8711 -1.7382 -0.0556
  303MOL0     H40871   1.169   8.853   9.227 -2.9537  2.8520 -3.6406
  303MOL0     H40872   1.076   8.795   9.375 -1.8694  0.9935  0.1694
  303MOL0     H40873   0.997   9.046   9.203  2.6490 -0.0841  0.1385
  303MOL0     H40874   0.937   8.888   9.177  1.9422 -0.7519 -0.7936
  303MOL0     H40875   0.918   9.061   9.424  0.3158 -0.0395 -0.7112
  303MOL0     H40876   0.875   8.886   9.440  2.0185 -1.7793 -2.0659
  303MOL0     H40877   0.734   9.078   9.253 -1.0328  0.5536  1.5223
  303MOL0     H40878   0.686   8.919   9.276  3.1582 -0.0214 -2.4517
  303MOL0     H40879   0.669   9.136   9.482 -2.2625 -0.1368  0.7951
  303MOL0     H40880   0.639   8.965   9.524  0.6425 -0.8664 -1.0375
  303MOL0     H40881   0.517   9.151   9.316 -2.5258  2.2933  2.5147
  303MOL0     H40882   0.462   8.978   9.322 -0.0971 -0.4722  0.0673
  303MOL0     H40883   0.414   9.181   9.540 -2.2001  0.5529  1.5240
  303MOL0     H40884   0.385   9.014   9.546 -1.7278  1.3649  1.1513
  303MOL0     H40885   0.179   9.162   9.475 -1.0294  0.4449 -2.0608
  303MOL0     H40886   0.201   9.009   9.384  0.4541 -0.4348 -1.6918
  303MOL0     H40887   1.357   9.164   9.389  1.8593  0.2724 -1.7372
  303MOL0     H40888   1.601   9.123   9.460  1.5310 -1.2763 -1.6465
  303MOL0     H40889   1.950   8.997   9.479  2.1494 -1.7080 -2.0684
  303MOL0     H40890   2.170   9.038   9.538  0.5736  1.0698  0.5806
  303MOL0     H40891   3.563  10.099   9.773 -2.1355 -2.3798 -0.4425
  303MOL0     H40892   3.732  10.194   9.950 -0.4482 -0.2255  0.0153
  303MOL0     H40893   3.910  10.334  10.226  2.1509 -2.2536  2.6303
  303MOL0     H40894   4.099  10.414  10.358  1.1921  2.6361  1.4118
  303MOL0     H40895   4.067  10.718  10.701  1.1665 -0.6112  0.6186
  303MOL0     H40896   4.003  10.547  10.714  0.7161 -1.2895  1.0191
  303MOL0     H40897   4.224  10.474  10.756 -0.6670  0.5869 -1.7203
  303MOL0     H40898   4.193  10.583  10.875  2.2764 -1.4089 -0.2543
  303MOL0     H40899   4.367  10.672  10.624  0.9264  2.4345  0.4321
  303MOL0     H40900   4.425  10.600  10.781 -0.0175 -0.9692 -0.3737
  303MOL0     H40901   4.334  10.791  10.889  0.1716 -1.3794  0.0692
  303MOL0     H40902   4.273  10.853  10.736  1.2511  0.0394 -1.2291
  303MOL0     H40903   4.689  10.961  10.754 -0.4122  0.1695 -1.6539
  303MOL0     H40904   3.853  10.696  10.564  1.6829 -0.9471  0.1554
  303MOL0     H40905   3.658  10.626  10.425 -0.0960 -0.6222  0.7756
  304MOL0     O40906   0.245   1.618   1.543  0.5349  0.4878 -0.1314
  304MOL0     C40907   0.162   1.527   1.528  0.2159 -0.5801 -0.3266
  304MOL0     O40908   0.195   1.397   1.535 -0.4218  0.2375  0.0697
  304MOL0     C40909   0.312   1.376   1.599 -0.1275  1.1516 -0.4326
  304MOL0     C40910   0.434   1.409   1.536  0.5951  0.2536  0.2123
  304MOL0     C40911   0.555   1.388   1.601 -0.4762  0.9320  0.3210
  304MOL0     C40912   0.557   1.338   1.731  0.4423 -1.4825  0.2996
  304MOL0     O40913   0.683   1.332   1.774  0.4029  0.0588 -1.2754
  304MOL0     C40914   0.721   1.234   1.868  0.4290 -0.6960 -0.2619
  304MOL0     C40915   0.718   1.097   1.794 -0.5262 -0.4112  0.2853
  304MOL0     C40916   0.846   1.017   1.795  1.0971  0.7510 -0.5691
  304MOL0     C40917   0.950   1.053   1.687 -0.6118 -0.1440  0.4355
  304MOL0     C40918   1.077   0.970   1.680  1.3480  0.2063  0.2166
  304MOL0     C40919   1.151   1.014   1.551  0.4885 -0.0074  0.7646
  304MOL0     C40920   1.239   0.911   1.485 -0.7324 -1.7589 -0.9486
  304MOL0     C40921   1.299   0.946   1.356 -0.5256 -0.3280  0.1642
  304MOL0     N40922   1.209   0.924   1.233  0.5143  0.1128 -0.7777
  304MOL0     C40923   1.122   0.819   1.209  0.0452 -0.5676 -0.4039
  304MOL0     C40924   1.058   0.851   1.094 -1.1487  0.0070 -0.2158
  304MOL0     C40925   0.959   0.761   1.019 -0.2684 -0.9303  0.1335
  304MOL0     C40926   0.810   0.805   1.039 -0.7120  0.1709 -0.3391
  304MOL0     C40927   0.702   0.712   0.982 -0.2989 -0.1706  0.1572
  304MOL0     C40928   0.572   0.801   0.977  0.0201  0.4729 -0.3906
  304MOL0     O40929   0.478   0.721   0.893  0.4167  0.2074  0.2981
  304MOL0     C40930   0.352   0.766   0.850 -0.7342  1.0963  0.3918
  304MOL0     C40931   0.287   0.710   0.738 -0.2541  0.1114  0.6302
  304MOL0     C40932   0.154   0.741   0.713  0.2255  0.5466  0.2187
  304MOL0     C40933   0.095   0.676   0.588 -0.2187  0.2154 -0.6513
  304MOL0     C40934   0.080   0.812   0.810 -0.2299 -0.0728 -0.4598
  304MOL0     C40935  -0.067   0.832   0.793 -0.2398 -0.3931 -0.7790
  304MOL0     O40936  -0.139   0.735   0.730  0.0926 -0.3999  0.2717
  304MOL0     C40937  -0.262   0.757   0.669 -0.6748  0.6705 -0.4224
  304MOL0     C40938  -0.342   0.874   0.666  0.3976 -0.0547 -0.4398
  304MOL0     C40939  -0.455   0.878   0.590 -0.4382 -0.6938 -0.5791
  304MOL0     C40940  -0.501   0.763   0.505  0.8607 -0.1012 -1.1482
  304MOL0     O40941  -0.613   0.772   0.432 -0.7567  0.3922 -0.3024
  304MOL0     C40942  -0.704   0.662   0.438 -0.5357 -0.2492  0.6418
  304MOL0     C40943  -0.847   0.711   0.400  0.0586 -0.0376 -0.1790
  304MOL0     C40944  -0.958   0.620   0.433  0.6817 -0.2030 -0.5838
  304MOL0     C40945  -1.082   0.681   0.355 -0.0589  0.0603 -0.6668
  304MOL0     C40946  -1.207   0.598   0.386 -0.6321  0.0606 -0.2730
  304MOL0     C40947  -1.338   0.668   0.367 -0.0230 -0.3982 -0.1489
  304MOL0     C40948  -1.455   0.584   0.330  0.0678  0.0810  0.8116
  304MOL0     C40949  -1.583   0.658   0.363  0.0843  0.1685  0.3636
  304MOL0    Cl40950  -1.718   0.576   0.280  0.5298  0.3046 -0.1831
  304MOL0     C40951  -0.424   0.644   0.521 -0.1925  0.7873  0.1821
  304MOL0     C40952  -0.308   0.641   0.601 -0.3651 -0.7986 -0.2754
  304MOL0     O40953  -0.114   0.929   0.859  0.1781 -0.4970 -0.4123
  304MOL0     C40954   0.146   0.869   0.917 -0.3903  0.2005  0.0604
  304MOL0     C40955   0.280   0.842   0.938  0.1792 -0.3033 -0.4809
  304MOL0     N40956   1.116   0.971   1.048 -0.0804  0.3019  0.1033
  304MOL0     N40957   1.209   1.011   1.131  0.4529 -0.5950 -0.1853
  304MOL0     C40958   0.436   1.320   1.807 -0.3083  0.4315 -0.4703
  304MOL0     C40959   0.316   1.348   1.740  0.0720  0.2789 -0.6509
  304MOL0     C40960   0.020   1.571   1.500  0.0587  0.5057  0.5096
  304MOL0     C40961  -0.067   1.497   1.425 -0.0234 -0.6110 -0.7416
  304MOL0     C40962  -0.194   1.541   1.390  0.7871 -0.0710 -0.1620
  304MOL0     C40963  -0.239   1.663   1.428 -0.6947  0.4162 -0.7417
  304MOL0     O40964  -0.365   1.706   1.415  0.2737 -0.8277  0.4611
  304MOL0     C40965  -0.475   1.622   1.452 -0.2504 -0.0591 -0.1758
  304MOL0     C40966  -0.610   1.685   1.407  1.0742 -0.1420  0.2710
  304MOL0     C40967  -0.645   1.810   1.478 -0.1977  0.6302 -0.0490
  304MOL0     C40968  -0.738   1.791   1.604  0.1002  0.0830  0.7111
  304MOL0     C40969  -0.876   1.750   1.559  0.3774 -0.1042 -0.2335
  304MOL0     C40970  -0.994   1.731   1.528  0.1138  0.1616 -0.2980
  304MOL0     C40971  -0.144   1.743   1.502  0.8718 -0.1887  0.5106
  304MOL0     C40972  -0.023   1.697   1.535 -0.0852 -0.3516  0.1811
  304MOL0     H40973   0.434   1.442   1.432 -1.5461  0.7522  0.3102
  304MOL0     H40974   0.656   1.406   1.566 -0.5266  3.8917  1.4162
  304MOL0     H40975   0.824   1.256   1.898 -0.2873  0.4001  1.5528
  304MOL0     H40976   0.663   1.236   1.960  0.3750 -0.1206 -0.3034
  304MOL0     H40977   0.641   1.033   1.839 -0.8834  0.4887  0.9870
  304MOL0     H40978   0.687   1.116   1.691  0.1172 -1.7112 -0.1627
  304MOL0     H40979   0.887   1.019   1.896  0.1461 -2.1545 -0.0388
  304MOL0     H40980   0.832   0.911   1.773  2.7422 -0.1389  2.1411
  304MOL0     H40981   0.894   1.046   1.593  1.5945 -0.3052 -0.9211
  304MOL0     H40982   0.974   1.159   1.703  0.3672 -0.3080  0.1152
  304MOL0     H40983   1.141   0.977   1.769 -0.1347  0.6277  1.2922
  304MOL0     H40984   1.055   0.863   1.674  0.5778  0.4183 -4.6494
  304MOL0     H40985   1.085   1.051   1.472  2.8372  0.9612 -0.8602
  304MOL0     H40986   1.214   1.101   1.570 -0.5133  0.2520  3.2333
  304MOL0     H40987   1.330   0.903   1.545 -1.6384 -1.2199  0.5488
  304MOL0     H40988   1.195   0.812   1.475  0.2726 -2.1409 -1.8326
  304MOL0     H40989   1.393   0.892   1.343  0.2414  1.0184  0.0404
  304MOL0     H40990   1.322   1.052   1.359 -0.7222 -0.1189 -2.6809
  304MOL0     H40991   1.103   0.740   1.280 -0.3118 -0.1526 -0.0283
  304MOL0     H40992   0.977   0.766   0.911  1.5620 -1.6737  0.3744
  304MOL0     H40993   0.982   0.657   1.043  2.9347 -0.3144  0.1945
  304MOL0     H40994   0.799   0.907   1.001 -0.7126  0.4204  0.3240
  304MOL0     H40995   0.787   0.812   1.146  1.3878  2.3793  0.0518
  304MOL0     H40996   0.685   0.624   1.044 -0.6233  0.3736  0.8593
  304MOL0     H40997   0.736   0.675   0.885 -2.4537 -2.1827  0.0882
  304MOL0     H40998   0.596   0.896   0.930  2.4561  1.0662  1.7705
  304MOL0     H40999   0.537   0.816   1.080  0.9604 -0.5073  0.1084
  304MOL0     H41000   0.338   0.658   0.657 -1.8558 -0.5547  0.0092
  304MOL0     H41001   0.024   0.598   0.616 -0.3606  1.5473  3.2784
  304MOL0     H41002   0.041   0.750   0.529 -1.5248  1.4269  1.9104
  304MOL0     H41003   0.171   0.651   0.513 -1.2781  2.1863 -2.4972
  304MOL0     H41004  -0.307   0.957   0.726 -2.4524  0.8667  0.0815
  304MOL0     H41005  -0.521   0.963   0.582 -0.9250 -1.1680 -1.8315
  304MOL0     H41006  -0.673   0.592   0.360  0.9670  2.5637 -1.4716
  304MOL0     H41007  -0.692   0.607   0.532 -2.1480 -1.6765  0.0571
  304MOL0     H41008  -0.870   0.802   0.455  1.5898  1.0946 -1.3193
  304MOL0     H41009  -0.851   0.731   0.293 -1.1131 -2.2997 -0.6364
  304MOL0     H41010  -0.973   0.632   0.541  2.0471  0.9214 -0.4927
  304MOL0     H41011  -0.941   0.513   0.414 -1.3560 -0.6880  0.0129
  304MOL0     H41012  -1.106   0.781   0.391 -1.4046 -0.2757 -0.5666
  304MOL0     H41013  -1.058   0.679   0.248 -1.1251 -0.7672 -0.9011
  304MOL0     H41014  -1.195   0.576   0.493 -0.2494  3.0147  0.3800
  304MOL0     H41015  -1.201   0.508   0.323  2.8127  0.8553 -1.2733
  304MOL0     H41016  -1.355   0.734   0.453  2.4079  0.6923 -0.4160
  304MOL0     H41017  -1.328   0.745   0.290  1.2760 -0.6749 -0.2837
  304MOL0     H41018  -1.450   0.487   0.381  0.8119  0.5200  1.5909
  304MOL0     H41019  -1.457   0.549   0.226  1.3345 -0.7279  1.0367
  304MOL0     H41020  -1.588   0.758   0.319 -0.1689  0.2224  0.5078
  304MOL0     H41021  -1.598   0.665   0.471  1.6101  0.9232  0.5377
  304MOL0     H41022  -0.450   0.560   0.457 -1.6973  1.7807 -0.5841
  304MOL0     H41023  -0.248   0.552   0.615 -1.5729 -1.5692  0.2006
  304MOL0     H41024   0.092   0.928   0.989 -2.2667 -0.0021 -1.1179
  304MOL0     H41025   0.331   0.860   1.033  1.0818  0.4227 -1.0822
  304MOL0     H41026   0.445   1.284   1.909  1.1334 -0.7754 -0.9792
  304MOL0     H41027   0.222   1.340   1.793  1.1008  1.0616  1.4172
  304MOL0     H41028  -0.046   1.395   1.393 -1.8829 -0.2846 -3.2749
  304MOL0     H41029  -0.255   1.474   1.330  0.6030  0.2121 -0.2914
  304MOL0     H41030  -0.466   1.530   1.394 -0.6143  0.4355 -1.0290
  304MOL0     H41031  -0.471   1.610   1.561 -1.6148  2.4969  0.2265
  304MOL0     H41032  -0.676   1.599   1.417  4.7251 -3.0622  1.3746
  304MOL0     H41033  -0.605   1.701   1.299 -0.2162 -0.0894  0.1920
  304MOL0     H41034  -0.686   1.873   1.399  1.4103 -0.1961 -1.5898
  304MOL0     H41035  -0.559   1.866   1.516  0.8256 -1.2858  0.5694
  304MOL0     H41036  -0.739   1.888   1.655 -1.0835  1.1585 -1.2511
  304MOL0     H41037  -0.686   1.726   1.676  2.4333 -0.2203 -1.1377
  304MOL0     H41038  -1.093   1.699   1.503  0.5803 -3.6868  1.9758
  304MOL0     H41039  -0.197   1.836   1.523 -1.4221 -0.5027 -3.0501
  304MOL0     H41040   0.047   1.767   1.578 -1.6289  0.8519  0.8149
  305MOL0     O41041   5.479   8.442   2.677  0.1590  0.1481 -0.1532
  305MOL0     C41042   5.574   8.470   2.753 -0.6419  0.5773 -0.3679
  305MOL0     O41043   5.575   8.565   2.854  0.2778 -0.1977  0.0921
  305MOL0     C41044   5.478   8.661   2.874 -0.8735  0.7022  0.0117
  305MOL0     C41045   5.412   8.728   2.771  0.0707  0.9051  0.3455
  305MOL0     C41046   5.302   8.807   2.801  0.2111  0.4801 -0.9860
  305MOL0     C41047   5.270   8.851   2.938  0.2912 -0.5788  0.2565
  305MOL0     O41048   5.164   8.925   2.977  0.1345 -0.0235  0.6079
  305MOL0     C41049   5.099   9.013   2.877 -0.2899  0.0665  0.0266
  305MOL0     C41050   4.959   9.044   2.936  0.1437 -0.0401  0.2771
  305MOL0     C41051   4.862   9.055   2.823 -0.8282  0.6955 -0.0973
  305MOL0     C41052   4.721   9.074   2.887 -0.1256  0.7918 -0.0081
  305MOL0     C41053   4.686   9.218   2.912  1.3679  0.2293  0.2064
  305MOL0     C41054   4.533   9.255   2.911  0.5463 -0.1951 -0.0644
  305MOL0     C41055   4.524   9.405   2.924 -0.3682  0.4572  1.1054
  305MOL0     C41056   4.380   9.444   2.919 -0.0518  0.5381  1.0859
  305MOL0     N41057   4.296   9.378   3.024  0.4578 -0.2003  0.0515
  305MOL0     C41058   4.194   9.285   3.009  0.4144 -0.5210  0.0944
  305MOL0     C41059   4.133   9.275   3.123  0.0372  0.0205 -0.2276
  305MOL0     C41060   4.009   9.203   3.167 -0.4972 -0.4923 -0.0583
  305MOL0     C41061   3.888   9.248   3.084  1.4258  0.2932 -0.6061
  305MOL0     C41062   3.768   9.156   3.095  0.0571  0.7565  0.8238
  305MOL0     C41063   3.648   9.229   3.033 -0.2726  0.4021  0.3778
  305MOL0     O41064   3.524   9.157   3.052  0.2412  0.1874 -0.0866
  305MOL0     C41065   3.401   9.222   3.013  0.5162 -0.4993  0.1162
  305MOL0     C41066   3.279   9.182   3.073 -1.0530 -0.1637  0.8045
  305MOL0     C41067   3.158   9.220   3.028  0.5987 -1.1769 -0.2685
  305MOL0     C41068   3.043   9.149   3.093 -0.2271  0.3977  0.0167
  305MOL0     C41069   3.142   9.323   2.936 -0.1893  0.6367  0.4924
  305MOL0     C41070   3.015   9.375   2.884 -0.0525 -0.2274 -0.8744
  305MOL0     O41071   2.908   9.382   2.972  0.0170 -0.8218 -0.2457
  305MOL0     C41072   2.790   9.413   2.911  0.0028 -0.1812 -0.4929
  305MOL0     C41073   2.737   9.333   2.804 -0.9556  0.0172 -0.1517
  305MOL0     C41074   2.623   9.364   2.742  0.0679 -0.6646 -0.2000
  305MOL0     C41075   2.547   9.472   2.776  0.0087  0.2157 -1.0369
  305MOL0     O41076   2.428   9.494   2.699 -0.2791  0.2354  0.5214
  305MOL0     C41077   2.380   9.626   2.700 -0.2048  0.1694 -0.0720
  305MOL0     C41078   2.267   9.635   2.807  0.3899 -0.9378 -0.2815
  305MOL0     C41079   2.184   9.766   2.801  0.1292  0.2923  0.8302
  305MOL0     C41080   2.266   9.897   2.781 -0.2257  0.1044  0.0463
  305MOL0     C41081   2.172  10.022   2.795  0.2936  0.9579  0.6249
  305MOL0     C41082   2.252  10.146   2.753  0.7038  0.1724  0.4557
  305MOL0     C41083   2.162  10.263   2.766  0.4484  0.7037  0.3134
  305MOL0     C41084   2.233  10.392   2.736  0.5294 -0.8655 -0.0109
  305MOL0    Cl41085   2.317  10.383   2.567 -0.0912 -0.2673 -0.1775
  305MOL0     C41086   2.583   9.535   2.895  0.7634  0.0225 -0.5835
  305MOL0     C41087   2.699   9.507   2.963 -0.8783 -0.6800  1.3442
  305MOL0     O41088   3.016   9.428   2.776  0.3158 -0.0802  0.0469
  305MOL0     C41089   3.267   9.372   2.878 -1.0343  0.7007 -0.1072
  305MOL0     C41090   3.392   9.320   2.923 -0.7526 -0.3774 -0.3494
  305MOL0     N41091   4.204   9.358   3.214 -0.1086  0.2868  0.1217
  305MOL0     N41092   4.296   9.425   3.149  0.6274 -0.1807 -0.6528
  305MOL0     C41093   5.341   8.788   3.037 -1.5467 -0.1192 -0.0921
  305MOL0     C41094   5.454   8.702   3.001  0.0366 -0.1209  0.3306
  305MOL0     C41095   5.692   8.384   2.736 -0.2485  0.4518  1.1288
  305MOL0     C41096   5.808   8.418   2.795  0.2286 -0.1813  1.1037
  305MOL0     C41097   5.935   8.351   2.772  0.8504 -0.4582  0.8733
  305MOL0     C41098   5.945   8.247   2.677  0.2675  0.8511 -0.9720
  305MOL0     O41099   6.061   8.177   2.653 -0.5473 -0.3471  0.3927
  305MOL0     C41100   6.146   8.175   2.764 -0.5571  0.1727 -0.1940
  305MOL0     C41101   6.251   8.073   2.733 -0.6663 -0.5840 -0.1231
  305MOL0     C41102   6.355   8.064   2.851  0.0280 -0.1362 -0.3474
  305MOL0     C41103   6.478   7.976   2.823  0.8686 -0.5417  0.5263
  305MOL0     C41104   6.573   8.045   2.745 -0.1767 -0.1686  0.9315
  305MOL0     C41105   6.661   8.099   2.677 -0.1550 -0.7411  0.9430
  305MOL0     C41106   5.825   8.212   2.612  1.0482 -0.1956 -0.8374
  305MOL0     C41107   5.701   8.271   2.643 -0.0106 -0.2383  0.3651
  305MOL0     H41108   5.431   8.693   2.670  1.7618  2.6583  0.0094
  305MOL0     H41109   5.244   8.833   2.713 -2.4544 -1.9106 -0.0735
  305MOL0     H41110   5.148   9.109   2.857 -0.2464 -0.6630 -4.3561
  305MOL0     H41111   5.098   8.968   2.777  3.3444  0.4063 -0.2998
  305MOL0     H41112   4.919   8.962   2.997  0.6564  0.0410  0.7321
  305MOL0     H41113   4.984   9.123   3.008  0.7121  1.4815 -1.5038
  305MOL0     H41114   4.896   9.139   2.763  0.0732 -0.6451 -1.5579
  305MOL0     H41115   4.876   8.959   2.772  2.2883  0.4910  0.9569
  305MOL0     H41116   4.646   9.039   2.816  3.1042 -0.6373 -2.9842
  305MOL0     H41117   4.716   9.003   2.971 -0.0456  0.9048  0.0930
  305MOL0     H41118   4.734   9.243   3.007  1.9730  1.7181 -0.4579
  305MOL0     H41119   4.733   9.285   2.840  2.9690  1.0380  1.9191
  305MOL0     H41120   4.496   9.228   2.812 -2.0339  2.0903  0.1390
  305MOL0     H41121   4.478   9.196   2.985 -1.0460  2.6218  1.1516
  305MOL0     H41122   4.575   9.434   3.016 -1.2302  2.7222  0.9226
  305MOL0     H41123   4.578   9.454   2.842  2.0019 -4.2804 -0.6005
  305MOL0     H41124   4.341   9.417   2.820  1.3871  3.2943 -0.3423
  305MOL0     H41125   4.367   9.552   2.927  0.2824  0.5324  1.7442
  305MOL0     H41126   4.155   9.230   2.924 -0.0850 -2.4534  1.5298
  305MOL0     H41127   4.028   9.096   3.154  5.3030  0.3365 -1.1220
  305MOL0     H41128   3.987   9.222   3.273  1.0235 -0.3110  0.2457
  305MOL0     H41129   3.914   9.277   2.981  1.5812  1.1769 -0.3233
  305MOL0     H41130   3.862   9.344   3.130 -2.8396 -0.0411 -1.8947
  305MOL0     H41131   3.752   9.135   3.201 -0.2131 -0.5450  0.5449
  305MOL0     H41132   3.781   9.059   3.045 -1.2618  0.3058  1.3199
  305MOL0     H41133   3.668   9.250   2.927 -1.2589  0.8104  0.2635
  305MOL0     H41134   3.630   9.330   3.070 -1.0568 -0.2471  1.8583
  305MOL0     H41135   3.297   9.099   3.140  1.8934  0.1044  0.4773
  305MOL0     H41136   2.955   9.133   3.030 -0.5165  0.4971  0.3907
  305MOL0     H41137   3.086   9.059   3.138 -2.0713  0.2069  1.5374
  305MOL0     H41138   2.997   9.198   3.180 -3.5504 -1.0081 -0.8037
  305MOL0     H41139   2.792   9.244   2.776  0.1208  0.0543  1.6815
  305MOL0     H41140   2.601   9.297   2.659 -2.0692 -0.9357  0.5175
  305MOL0     H41141   2.461   9.699   2.711  1.2748 -1.2721 -0.9256
  305MOL0     H41142   2.337   9.664   2.607  1.0359 -0.2897 -0.8651
  305MOL0     H41143   2.185   9.563   2.793 -2.1052  1.1018  2.5428
  305MOL0     H41144   2.314   9.620   2.904 -0.1870  1.1093  0.3627
  305MOL0     H41145   2.120   9.770   2.890  2.4536  1.5605  2.5486
  305MOL0     H41146   2.117   9.751   2.717 -0.4136 -0.8458  1.4410
  305MOL0     H41147   2.356   9.904   2.842  1.0892  0.6980 -1.8800
  305MOL0     H41148   2.308   9.898   2.680  2.2926 -0.2437  1.0409
  305MOL0     H41149   2.130  10.015   2.896  0.4239 -2.2326  0.5584
  305MOL0     H41150   2.083  10.007   2.734  2.0677 -0.1070 -1.8907
  305MOL0     H41151   2.346  10.157   2.807  1.0491 -0.4997  0.0139
  305MOL0     H41152   2.277  10.119   2.649 -3.0621  3.2801 -1.5220
  305MOL0     H41153   2.134  10.276   2.870  1.4623  1.0547  0.5539
  305MOL0     H41154   2.085  10.250   2.689  1.9054  3.2126 -1.7272
  305MOL0     H41155   2.310  10.428   2.805  1.0759 -0.2665 -0.9033
  305MOL0     H41156   2.149  10.463   2.744  2.8670  1.8829  2.5825
  305MOL0     H41157   2.516   9.602   2.948  0.8357  0.3455 -0.9004
  305MOL0     H41158   2.729   9.573   3.044 -1.8393  2.6708 -0.8079
  305MOL0     H41159   3.258   9.433   2.789 -2.9997  1.5353  0.6093
  305MOL0     H41160   3.478   9.370   2.880 -1.9857  0.8222 -1.4895
  305MOL0     H41161   5.328   8.821   3.140 -0.5690  0.5320 -0.1690
  305MOL0     H41162   5.503   8.651   3.083 -3.2365 -1.0518  1.9166
  305MOL0     H41163   5.809   8.501   2.864  0.1862 -0.4646  1.4503
  305MOL0     H41164   6.013   8.393   2.835  2.3755 -1.1091 -0.5070
  305MOL0     H41165   6.191   8.271   2.787  0.9626 -0.5077 -0.1952
  305MOL0     H41166   6.095   8.137   2.854  0.2439 -0.1706  0.1247
  305MOL0     H41167   6.294   8.098   2.636 -2.2958  0.6482 -0.5804
  305MOL0     H41168   6.206   7.974   2.722  1.4135 -1.7156  1.0003
  305MOL0     H41169   6.306   8.017   2.937  2.4894 -0.0576  1.2059
  305MOL0     H41170   6.389   8.163   2.883  1.1420 -0.2138 -1.1976
  305MOL0     H41171   6.444   7.882   2.779 -0.5136  0.6455 -1.0653
  305MOL0     H41172   6.519   7.950   2.921 -0.0028 -5.4824 -0.1437
  305MOL0     H41173   6.727   8.145   2.606 -1.8319 -1.0312 -0.9172
  305MOL0     H41174   5.822   8.125   2.548 -1.4504  0.0011 -1.0778
  305MOL0     H41175   5.605   8.241   2.603 -0.3997  2.9170 -1.3915
  306MOL0     O41176   6.276  11.146   7.681  0.1276 -0.7323  0.4935
  306MOL0     C41177   6.334  11.246   7.723 -0.5997 -1.1630 -0.3316
  306MOL0     O41178   6.281  11.347   7.808  0.3927  0.1936  0.2636
  306MOL0     C41179   6.154  11.348   7.870 -0.0074 -0.5062  0.6662
  306MOL0     C41180   6.128  11.448   7.966  0.0193  0.3271 -0.3393
  306MOL0     C41181   6.005  11.452   8.029 -0.7038 -0.5141 -0.1453
  306MOL0     C41182   5.897  11.362   8.003  0.2997  0.6568 -0.2802
  306MOL0     O41183   5.773  11.370   8.058 -0.4059 -0.4988  0.2296
  306MOL0     C41184   5.723  11.492   8.092  0.3015  0.2228  0.5734
  306MOL0     C41185   5.578  11.473   8.140  0.2497 -0.1017  0.5968
  306MOL0     C41186   5.512  11.600   8.177  0.3896 -0.0748  0.7215
  306MOL0     C41187   5.365  11.591   8.208  0.6587 -0.3965 -0.2276
  306MOL0     C41188   5.338  11.551   8.357 -0.1781  0.0463 -0.1414
  306MOL0     C41189   5.206  11.605   8.414  0.0924 -0.2372 -0.4650
  306MOL0     C41190   5.166  11.546   8.547  0.3696 -0.6358  0.9689
  306MOL0     C41191   5.254  11.589   8.667  0.5960 -0.3582 -0.2763
  306MOL0     N41192   5.240  11.729   8.699 -1.1057  0.2869  0.2364
  306MOL0     C41193   5.125  11.805   8.710 -0.8302  0.1579  0.0122
  306MOL0     C41194   5.165  11.911   8.773 -0.2324 -0.3758  0.2367
  306MOL0     C41195   5.095  12.032   8.831 -0.2372  0.5958 -1.1149
  306MOL0     C41196   5.128  12.160   8.748 -0.4845 -0.2237 -0.5569
  306MOL0     C41197   5.061  12.286   8.819  0.2312 -0.1000  0.0169
  306MOL0     C41198   5.044  12.385   8.703  0.3085  0.6567  0.3620
  306MOL0     O41199   4.939  12.338   8.626  0.4361 -0.6538  0.0923
  306MOL0     C41200   4.901  12.407   8.511 -0.6435  0.6202  0.8366
  306MOL0     C41201   4.892  12.543   8.500  0.0981 -0.0431 -0.8269
  306MOL0     C41202   4.863  12.608   8.383 -0.7001  0.4182  0.2911
  306MOL0     C41203   4.893  12.755   8.385  0.2748  0.5273  0.1477
  306MOL0     C41204   4.839  12.526   8.272  1.0781 -0.1562  0.3867
  306MOL0     C41205   4.816  12.596   8.139 -0.2026  0.7215  0.0929
  306MOL0     O41206   4.846  12.516   8.030 -1.0312  0.4787  1.3324
  306MOL0     C41207   4.836  12.568   7.907 -0.2031 -0.0850  0.7251
  306MOL0     C41208   4.939  12.551   7.816  0.6117  0.7687  0.0059
  306MOL0     C41209   4.927  12.597   7.685 -0.0150  1.0618 -0.2784
  306MOL0     C41210   4.805  12.652   7.636  0.1480 -0.6888  0.7806
  306MOL0     O41211   4.810  12.701   7.509 -0.7039  0.4033  0.1752
  306MOL0     C41212   4.843  12.842   7.499 -0.2174  0.4212 -0.9771
  306MOL0     C41213   4.858  12.871   7.353 -0.1141 -0.1812  0.2267
  306MOL0     C41214   4.953  12.768   7.280  0.5910  0.6632  0.5350
  306MOL0     C41215   5.015  12.824   7.147 -0.4706  0.0090 -0.9503
  306MOL0     C41216   5.104  12.719   7.092 -0.2811  0.2234 -0.4760
  306MOL0     C41217   5.190  12.771   6.982  0.0124  0.2152 -0.2116
  306MOL0     C41218   5.254  12.650   6.910  0.0176 -0.0244  0.2511
  306MOL0     C41219   5.384  12.693   6.838  0.1230  0.2195  0.1994
  306MOL0    Cl41220   5.375  12.834   6.728  0.3390  0.2952 -0.1114
  306MOL0     C41221   4.694  12.664   7.722 -0.9514 -0.0306  0.6175
  306MOL0     C41222   4.717  12.605   7.850  0.1783 -0.3537  0.1185
  306MOL0     O41223   4.765  12.712   8.126 -0.1576 -0.0170 -0.8786
  306MOL0     C41224   4.829  12.391   8.277  0.7666 -0.1243 -0.0744
  306MOL0     C41225   4.856  12.331   8.408  0.5437 -0.7119  0.7525
  306MOL0     N41226   5.298  11.896   8.804  0.3909  0.3373 -0.1758
  306MOL0     N41227   5.340  11.787   8.761  0.6028 -0.0530  0.6377
  306MOL0     C41228   5.925  11.263   7.908 -0.3851 -0.5449  0.1829
  306MOL0     C41229   6.052  11.258   7.841 -0.1417  0.1185 -0.6597
  306MOL0     C41230   6.470  11.258   7.668  1.1477 -0.3164 -0.2058
  306MOL0     C41231   6.539  11.159   7.603  0.0596 -0.0273  0.0827
  306MOL0     C41232   6.677  11.166   7.571  0.1554  0.0395 -0.0302
  306MOL0     C41233   6.749  11.274   7.604  0.6084 -1.7530 -0.3849
  306MOL0     O41234   6.887  11.283   7.585  0.2602  0.5194 -0.0352
  306MOL0     C41235   6.915  11.340   7.461  0.3450  0.0769  0.2809
  306MOL0     C41236   7.070  11.324   7.437 -0.8224 -0.0800  0.2050
  306MOL0     C41237   7.138  11.439   7.355  0.3157  0.0414 -0.0109
  306MOL0     C41238   7.296  11.437   7.361  0.0129 -0.6412 -0.5130
  306MOL0     C41239   7.355  11.335   7.289 -0.2395 -0.4651  0.1428
  306MOL0     C41240   7.396  11.254   7.214  0.1507  1.4560  0.0276
  306MOL0     C41241   6.674  11.387   7.656 -0.8850  0.1363 -0.3731
  306MOL0     C41242   6.541  11.378   7.689 -0.6902  0.6687 -0.6609
  306MOL0     H41243   6.209  11.508   8.007  2.9774 -1.4117 -3.1037
  306MOL0     H41244   5.997  11.526   8.109 -0.8035 -0.2537 -0.3945
  306MOL0     H41245   5.768  11.554   8.170  0.0319  0.1922  0.7562
  306MOL0     H41246   5.729  11.551   8.000  0.0921  0.0275  0.4328
  306MOL0     H41247   5.524  11.420   8.061 -1.5608  0.3716  1.4764
  306MOL0     H41248   5.573  11.409   8.229  1.7927 -0.1327  0.6852
  306MOL0     H41249   5.565  11.642   8.263 -0.4132  0.7846  0.8090
  306MOL0     H41250   5.532  11.673   8.098  2.6253 -1.4607 -0.0753
  306MOL0     H41251   5.332  11.695   8.211 -0.1693 -0.6536  3.0611
  306MOL0     H41252   5.303  11.536   8.136 -4.7174  3.2655  1.0139
  306MOL0     H41253   5.330  11.442   8.353  0.3079 -0.0851  1.7093
  306MOL0     H41254   5.426  11.578   8.416 -0.4572  0.2460  0.1853
  306MOL0     H41255   5.218  11.712   8.433 -1.3307  0.1279 -1.4107
  306MOL0     H41256   5.120  11.598   8.346 -1.3353  2.5897  0.8808
  306MOL0     H41257   5.063  11.577   8.567 -0.0905 -1.2247 -0.3953
  306MOL0     H41258   5.166  11.438   8.532 -3.8498 -0.4301 -2.2414
  306MOL0     H41259   5.353  11.557   8.634  0.7449 -0.8547  0.6282
  306MOL0     H41260   5.229  11.525   8.752 -0.7008 -0.5601 -0.7868
  306MOL0     H41261   5.032  11.782   8.659 -0.8527 -1.0661  0.5605
  306MOL0     H41262   4.990  12.005   8.842 -0.3605  1.0779 -1.0787
  306MOL0     H41263   5.130  12.026   8.934 -1.9700 -2.3320 -0.5872
  306MOL0     H41264   5.089  12.144   8.647 -1.0670  2.0462 -0.7349
  306MOL0     H41265   5.235  12.185   8.746 -0.8949  1.7311  0.4916
  306MOL0     H41266   5.133  12.313   8.897 -1.2797 -0.8984  1.7620
  306MOL0     H41267   4.969  12.259   8.872  0.6916 -0.4621  0.6466
  306MOL0     H41268   5.136  12.390   8.644  1.5285  0.2411  2.1205
  306MOL0     H41269   5.026  12.486   8.743 -0.6970  1.1023 -1.1528
  306MOL0     H41270   4.905  12.592   8.595 -3.5081 -1.8187  0.7562
  306MOL0     H41271   4.941  12.778   8.481  2.1761 -1.0282 -0.3478
  306MOL0     H41272   4.949  12.793   8.299 -0.6631  0.5370 -0.4636
  306MOL0     H41273   4.798  12.809   8.377  0.5334  0.9787  0.0657
  306MOL0     H41274   5.033  12.500   7.836  0.3761 -0.0971 -0.9804
  306MOL0     H41275   5.021  12.585   7.631  1.1735 -0.6637  1.9923
  306MOL0     H41276   4.768  12.907   7.546 -0.0434  0.3370 -0.5799
  306MOL0     H41277   4.939  12.857   7.549 -1.1561  3.1176  0.1934
  306MOL0     H41278   4.753  12.864   7.321 -1.4283 -0.8734  4.2057
  306MOL0     H41279   4.907  12.967   7.336  2.8345 -1.9772 -2.6135
  306MOL0     H41280   4.897  12.677   7.256 -0.2275  0.8304  1.7207
  306MOL0     H41281   5.034  12.750   7.351  1.4222  4.5014  0.7634
  306MOL0     H41282   4.932  12.847   7.080 -2.9730  0.7100  2.1572
  306MOL0     H41283   5.068  12.917   7.169 -2.4123  0.8284  0.5243
  306MOL0     H41284   5.047  12.635   7.052  4.1197 -0.8815 -5.6151
  306MOL0     H41285   5.171  12.679   7.169 -0.7036 -2.0130 -1.1818
  306MOL0     H41286   5.123  12.833   6.921  0.6279  1.1790  0.0660
  306MOL0     H41287   5.268  12.839   7.017 -0.8342  1.2294 -0.2473
  306MOL0     H41288   5.177  12.611   6.844  1.5535 -0.0115 -1.6495
  306MOL0     H41289   5.272  12.566   6.979 -3.1580 -0.0468  1.1920
  306MOL0     H41290   5.427  12.611   6.779 -1.8813  2.0632 -4.3427
  306MOL0     H41291   5.462  12.714   6.912 -1.6423  0.5558  2.0247
  306MOL0     H41292   4.613  12.704   7.661  2.3115  2.9773 -2.1515
  306MOL0     H41293   4.627  12.600   7.910  2.6716  0.5084  4.3281
  306MOL0     H41294   4.790  12.337   8.191 -1.2397  0.4586  0.4298
  306MOL0     H41295   4.864  12.223   8.421 -2.1346 -1.1618 -0.5667
  306MOL0     H41296   5.843  11.197   7.879 -0.9641 -0.7498  2.1493
  306MOL0     H41297   6.064  11.178   7.769 -3.1036 -1.0079 -0.0602
  306MOL0     H41298   6.480  11.069   7.586  2.2700 -1.2179 -1.9224
  306MOL0     H41299   6.732  11.084   7.527  1.2127 -0.1481  1.5637
  306MOL0     H41300   6.860  11.288   7.383 -1.0603  0.8856  0.7046
  306MOL0     H41301   6.879  11.444   7.456 -1.9612 -0.6152  1.1565
  306MOL0     H41302   7.099  11.234   7.381  0.4323 -0.8327  1.9474
  306MOL0     H41303   7.120  11.321   7.535  0.0360  2.5802 -0.0924
  306MOL0     H41304   7.100  11.533   7.396  0.5478 -0.8723  2.4637
  306MOL0     H41305   7.116  11.416   7.250  1.0391 -1.4679  0.1307
  306MOL0     H41306   7.327  11.425   7.465 -0.6990  0.3183 -0.1716
  306MOL0     H41307   7.330  11.538   7.338  0.5773 -0.0684  2.4777
  306MOL0     H41308   7.425  11.180   7.142  1.3831  0.7807  1.1722
  306MOL0     H41309   6.737  11.471   7.686  0.0849 -0.5815 -0.3504
  306MOL0     H41310   6.490  11.451   7.750 -1.6141 -0.1605 -0.4125
  307MOL0     O41311  10.238   5.627   5.636 -0.0185  0.0048  0.4198
  307MOL0     C41312  10.198   5.517   5.614  0.1688  0.4571 -0.1089
  307MOL0     O41313  10.073   5.470   5.634 -0.2603 -0.7515 -0.2625
  307MOL0     C41314   9.979   5.558   5.686 -0.3206  0.1162  0.1593
  307MOL0     C41315   9.911   5.538   5.807  0.6255  0.1131 -0.7421
  307MOL0     C41316   9.808   5.629   5.860 -0.2515 -0.6279 -0.1382
  307MOL0     C41317   9.788   5.749   5.787 -0.0227 -0.0974 -0.7646
  307MOL0     O41318   9.696   5.833   5.842  0.3442  0.4725 -0.2265
  307MOL0     C41319   9.608   5.908   5.759 -0.5375  0.0001 -0.1534
  307MOL0     C41320   9.476   5.936   5.833 -1.2112 -0.1684  0.6358
  307MOL0     C41321   9.374   5.820   5.797  0.6559 -0.5980 -0.1394
  307MOL0     C41322   9.402   5.683   5.849  0.1739  0.5520  0.7572
  307MOL0     C41323   9.281   5.586   5.832 -0.5832 -0.1417 -0.9819
  307MOL0     C41324   9.271   5.513   5.695  0.3470  0.5693  0.0878
  307MOL0     C41325   9.146   5.427   5.696  0.0376 -0.5633  0.4243
  307MOL0     C41326   9.123   5.357   5.558 -1.6427 -0.2489 -0.6924
  307MOL0     N41327   9.092   5.465   5.462  0.2680  0.7003 -0.4828
  307MOL0     C41328   8.961   5.498   5.437  0.4600 -0.1006 -0.1857
  307MOL0     C41329   8.957   5.577   5.324  0.6871 -0.5581 -0.1672
  307MOL0     C41330   8.840   5.627   5.251  0.5638  0.2353  0.6778
  307MOL0     C41331   8.839   5.783   5.237  0.6459  0.2093  0.5500
  307MOL0     C41332   8.765   5.845   5.364 -0.3296 -0.8074  0.5756
  307MOL0     C41333   8.611   5.838   5.343  0.0655  0.5614  0.5970
  307MOL0     O41334   8.570   5.895   5.214 -0.7044  0.2355  0.5580
  307MOL0     C41335   8.457   5.960   5.194  0.4707 -0.6495 -0.4750
  307MOL0     C41336   8.464   6.065   5.112 -0.4703  0.4168  0.2918
  307MOL0     C41337   8.349   6.133   5.073  0.2896  0.0510 -0.9244
  307MOL0     C41338   8.369   6.249   4.982  0.2563  0.4846 -0.6464
  307MOL0     C41339   8.222   6.089   5.124 -0.0729  0.0046 -0.0003
  307MOL0     C41340   8.090   6.139   5.086 -0.2038  0.6551 -0.2212
  307MOL0     O41341   7.990   6.109   5.168  0.1382  0.2618  0.0764
  307MOL0     C41342   7.863   6.159   5.142  0.1685 -0.3719  0.1339
  307MOL0     C41343   7.833   6.287   5.085  0.6062 -0.3735  0.6185
  307MOL0     C41344   7.703   6.334   5.066  0.4672  0.3323  0.7643
  307MOL0     C41345   7.591   6.260   5.112  0.0098  0.4445  0.8132
  307MOL0     O41346   7.469   6.318   5.118 -0.1018 -0.1445 -0.0648
  307MOL0     C41347   7.358   6.244   5.089  0.0437 -1.0680 -1.6371
  307MOL0     C41348   7.247   6.345   5.060 -0.5167 -0.7303  0.7883
  307MOL0     C41349   7.109   6.289   5.030 -0.1723  0.4036 -0.8507
  307MOL0     C41350   7.026   6.301   5.159  0.0137 -0.2962  0.1856
  307MOL0     C41351   6.884   6.252   5.122  1.2207 -0.7460  0.1584
  307MOL0     C41352   6.784   6.262   5.236  0.0454 -0.4675 -0.5651
  307MOL0     C41353   6.643   6.230   5.186  0.0225  0.0358  0.4169
  307MOL0     C41354   6.598   6.326   5.083 -0.0012  0.5404  0.6223
  307MOL0    Cl41355   6.442   6.273   5.025  0.0568 -0.1434  0.1201
  307MOL0     C41356   7.624   6.130   5.164  1.3767 -0.0388  0.4375
  307MOL0     C41357   7.753   6.083   5.179  0.0796  0.2590  0.3162
  307MOL0     O41358   8.083   6.197   4.976  0.9105 -0.4567 -0.2881
  307MOL0     C41359   8.217   5.978   5.211  0.3343 -0.8397 -0.3319
  307MOL0     C41360   8.333   5.914   5.237  0.4329 -0.5574 -0.8851
  307MOL0     N41361   9.086   5.603   5.303 -0.0933 -0.2171  0.4441
  307MOL0     N41362   9.170   5.543   5.385 -0.3403 -0.3504  0.5075
  307MOL0     C41363   9.855   5.765   5.668  0.0032  0.4036  0.4405
  307MOL0     C41364   9.947   5.675   5.619 -0.9994 -0.4854  0.1001
  307MOL0     C41365  10.300   5.413   5.580 -0.0255  0.2263 -0.5472
  307MOL0     C41366  10.434   5.450   5.561  0.2745 -0.1561  0.0190
  307MOL0     C41367  10.529   5.362   5.523 -0.2131  0.5950  0.3430
  307MOL0     C41368  10.495   5.224   5.501 -0.7236  0.0116 -0.8501
  307MOL0     O41369  10.578   5.120   5.453  0.0316 -0.3754 -0.3691
  307MOL0     C41370  10.688   5.168   5.379 -0.7400 -0.4691 -0.0061
  307MOL0     C41371  10.757   5.046   5.332 -0.2332  0.1095 -0.2930
  307MOL0     C41372  10.866   5.073   5.237  0.6145  0.0049  0.1650
  307MOL0     C41373  10.949   4.948   5.220  0.4500  0.0152  0.0850
  307MOL0     C41374  11.034   4.958   5.100  0.1881  0.5375  1.4784
  307MOL0     C41375  11.087   4.939   4.986  0.6065  0.4786  0.2426
  307MOL0     C41376  10.372   5.187   5.542  0.3342 -0.3925  0.0793
  307MOL0     C41377  10.270   5.278   5.571  0.0181 -0.0466 -0.9002
  307MOL0     H41378   9.918   5.449   5.868 -2.5985  1.1762  1.4464
  307MOL0     H41379   9.738   5.624   5.943 -0.2462 -1.4264 -0.1783
  307MOL0     H41380   9.658   6.003   5.739  1.5410 -1.2691 -1.2529
  307MOL0     H41381   9.583   5.871   5.659 -1.2673  4.1791 -1.7479
  307MOL0     H41382   9.495   5.930   5.941 -0.8410  0.0991  0.5882
  307MOL0     H41383   9.441   6.040   5.825 -0.0810  0.3857  2.2684
  307MOL0     H41384   9.286   5.859   5.849  0.8971  3.3587 -2.2601
  307MOL0     H41385   9.355   5.810   5.689  1.3011  1.1218 -0.4565
  307MOL0     H41386   9.491   5.642   5.801  0.9598  1.9882  0.9182
  307MOL0     H41387   9.425   5.692   5.956  0.3353 -2.0554  1.0068
  307MOL0     H41388   9.296   5.510   5.910  2.6625  1.6019  0.2615
  307MOL0     H41389   9.183   5.628   5.857 -0.6808 -1.8210  1.8990
  307MOL0     H41390   9.267   5.580   5.608  2.2020 -1.6793 -1.8725
  307MOL0     H41391   9.349   5.436   5.696 -1.8826 -1.9255 -2.1081
  307MOL0     H41392   9.164   5.356   5.776  2.1362  1.3100  1.7081
  307MOL0     H41393   9.063   5.493   5.723  2.3184  2.0531  1.4674
  307MOL0     H41394   9.032   5.297   5.563 -0.6117 -1.7801  2.5668
  307MOL0     H41395   9.213   5.302   5.529 -0.1771  0.1641  2.6015
  307MOL0     H41396   8.865   5.457   5.466 -0.5782 -0.5713 -3.7695
  307MOL0     H41397   8.869   5.599   5.149 -2.3891  2.8060 -1.0365
  307MOL0     H41398   8.748   5.575   5.277  1.1112 -1.5301 -0.6906
  307MOL0     H41399   8.772   5.806   5.153 -0.0231  0.2952  1.0923
  307MOL0     H41400   8.946   5.800   5.226  1.5784 -2.7827  3.5117
  307MOL0     H41401   8.794   5.951   5.372  0.6869 -1.0426  0.2196
  307MOL0     H41402   8.787   5.793   5.457 -0.5726 -0.8759  0.5955
  307MOL0     H41403   8.556   5.894   5.419 -3.0980  0.8785 -1.7213
  307MOL0     H41404   8.578   5.734   5.351 -0.9445  0.8558  0.4874
  307MOL0     H41405   8.561   6.100   5.077  0.0093 -2.9844 -2.1948
  307MOL0     H41406   8.468   6.294   4.986 -0.1589  1.2909  1.8505
  307MOL0     H41407   8.348   6.217   4.879  0.9104 -0.7589 -0.4086
  307MOL0     H41408   8.301   6.331   5.006  1.0672  0.5993  1.4198
  307MOL0     H41409   7.918   6.354   5.072 -0.1214  1.2808  3.6426
  307MOL0     H41410   7.697   6.430   5.016 -0.0471 -0.6613 -1.1632
  307MOL0     H41411   7.373   6.172   5.009  2.9370 -2.5753  0.1228
  307MOL0     H41412   7.327   6.202   5.185  2.1311  1.5452  0.3471
  307MOL0     H41413   7.241   6.410   5.148 -0.7792 -1.2194  1.1346
  307MOL0     H41414   7.273   6.417   4.982 -0.9589  0.0486  1.3402
  307MOL0     H41415   7.105   6.184   5.000 -0.9123 -0.0846  0.8242
  307MOL0     H41416   7.063   6.347   4.949 -0.3915 -1.6459 -2.2800
  307MOL0     H41417   7.063   6.246   5.246  0.4049  2.2837  1.7659
  307MOL0     H41418   7.024   6.408   5.182  0.9653 -0.3189  0.3910
  307MOL0     H41419   6.900   6.146   5.098 -1.8683 -0.4560 -4.5830
  307MOL0     H41420   6.854   6.305   5.031  0.9091 -1.7708 -0.3546
  307MOL0     H41421   6.805   6.175   5.299 -1.4581 -0.5220 -0.1087
  307MOL0     H41422   6.787   6.361   5.283  0.1075 -1.0331  0.6442
  307MOL0     H41423   6.571   6.237   5.269 -0.7046 -1.6854 -0.0225
  307MOL0     H41424   6.650   6.128   5.149  1.6671  0.1114  0.4513
  307MOL0     H41425   6.661   6.315   4.994  1.5798 -0.0873  1.7726
  307MOL0     H41426   6.609   6.430   5.115  1.3263  0.8651 -0.7690
  307MOL0     H41427   7.549   6.072   5.216  1.0485 -0.5333 -0.5642
  307MOL0     H41428   7.758   5.983   5.220 -5.9128 -1.7181 -2.6290
  307MOL0     H41429   8.122   5.935   5.242 -0.2084 -0.7910 -1.8396
  307MOL0     H41430   8.341   5.824   5.296  2.3764  0.8405  1.1671
  307MOL0     H41431   9.841   5.857   5.613  0.9824  0.8061  0.8226
  307MOL0     H41432  10.002   5.696   5.528 -0.8489  0.8894  0.4873
  307MOL0     H41433  10.467   5.553   5.575  5.0480 -1.0420 -2.4825
  307MOL0     H41434  10.625   5.397   5.487 -0.5247 -0.6014 -1.8450
  307MOL0     H41435  10.649   5.230   5.298 -0.2295 -0.5953 -0.3564
  307MOL0     H41436  10.764   5.229   5.429 -0.7072 -2.6398  2.8430
  307MOL0     H41437  10.693   4.970   5.287  0.8633 -1.3743  0.5326
  307MOL0     H41438  10.790   4.998   5.425 -0.8594 -2.4527 -1.3010
  307MOL0     H41439  10.927   5.147   5.292  2.4055  0.0359 -1.7429
  307MOL0     H41440  10.827   5.103   5.140  0.2590  1.7351  0.7942
  307MOL0     H41441  10.886   4.858   5.216  0.6336 -0.1110  0.0238
  307MOL0     H41442  11.015   4.926   5.305 -0.9424 -0.5350  1.0677
  307MOL0     H41443  11.143   4.920   4.897  0.3261 -3.1699  0.6925
  307MOL0     H41444  10.350   5.084   5.517 -0.2611  0.5049 -3.6778
  307MOL0     H41445  10.163   5.261   5.562 -0.2090  1.8089 -2.1431
  308MOL0     O41446   6.762   3.426   7.504  0.7185  0.0616  0.2147
  308MOL0     C41447   6.808   3.414   7.621  0.2527  0.0962  0.4018
  308MOL0     O41448   6.742   3.393   7.730  0.1735 -0.0585 -0.5711
  308MOL0     C41449   6.603   3.357   7.729 -0.3057 -0.3464  0.2197
  308MOL0     C41450   6.566   3.230   7.790  0.2973 -0.9269  0.4740
  308MOL0     C41451   6.441   3.172   7.768 -1.3001 -0.7233 -0.2261
  308MOL0     C41452   6.349   3.231   7.671 -0.4612  0.1087  1.0206
  308MOL0     O41453   6.242   3.172   7.608  1.4796  0.1753  0.7925
  308MOL0     C41454   6.237   3.030   7.604  0.5345 -0.5892  0.3783
  308MOL0     C41455   6.110   2.989   7.530  0.3487 -0.7159  0.0328
  308MOL0     C41456   5.981   3.005   7.624  0.1160 -0.1834  0.0439
  308MOL0     C41457   5.855   2.999   7.521  0.6841  0.4779  0.0387
  308MOL0     C41458   5.832   2.850   7.479 -0.3728 -0.4551 -0.0599
  308MOL0     C41459   5.691   2.806   7.521  0.3442 -0.2179 -1.0104
  308MOL0     C41460   5.664   2.667   7.487  0.3193 -0.1522 -0.3583
  308MOL0     C41461   5.613   2.641   7.341 -0.1929  0.0127 -0.3550
  308MOL0     N41462   5.470   2.614   7.329  0.2868 -0.0355  0.0290
  308MOL0     C41463   5.370   2.701   7.368  0.4919  0.0255 -1.0921
  308MOL0     C41464   5.259   2.621   7.353 -1.1248 -0.1340  0.2953
  308MOL0     C41465   5.132   2.655   7.416 -0.5603  0.3706  0.0544
  308MOL0     C41466   5.077   2.800   7.374  0.2124 -0.1770 -0.5983
  308MOL0     C41467   4.922   2.796   7.368  0.0131 -0.0742 -0.0671
  308MOL0     C41468   4.849   2.716   7.482 -0.5406  0.3647 -0.2174
  308MOL0     O41469   4.714   2.767   7.497  0.1604  0.1930 -0.1445
  308MOL0     C41470   4.651   2.762   7.620  0.4928  0.0700  0.0617
  308MOL0     C41471   4.537   2.830   7.640  0.5389 -0.2598  0.9016
  308MOL0     C41472   4.466   2.825   7.753 -0.1792 -0.0351  0.3395
  308MOL0     C41473   4.330   2.895   7.753 -0.2823 -0.5823  0.0461
  308MOL0     C41474   4.520   2.735   7.857  1.2715  0.3116 -0.6278
  308MOL0     C41475   4.429   2.702   7.974  0.1975  0.1859  1.0660
  308MOL0     O41476   4.484   2.682   8.095  0.4388 -0.0016 -0.9051
  308MOL0     C41477   4.607   2.730   8.132 -0.2952  0.3644 -0.6411
  308MOL0     C41478   4.698   2.637   8.177 -0.0741 -0.2321 -1.3532
  308MOL0     C41479   4.829   2.671   8.219  0.1812  0.6344  0.9673
  308MOL0     C41480   4.857   2.811   8.222 -0.3836 -0.5937  0.2501
  308MOL0     O41481   4.983   2.840   8.266 -0.7523  0.1569 -0.6631
  308MOL0     C41482   5.002   2.988   8.296 -0.4817 -0.8239 -0.9504
  308MOL0     C41483   5.145   3.004   8.363 -0.5934 -0.4323  0.1802
  308MOL0     C41484   5.256   2.951   8.267  0.1107 -0.2375  0.5684
  308MOL0     C41485   5.379   2.938   8.347 -0.4327 -0.1679  0.4852
  308MOL0     C41486   5.501   2.946   8.261  0.9563  0.9679  0.5148
  308MOL0     C41487   5.632   2.904   8.320 -1.0528  0.2627  0.0237
  308MOL0     C41488   5.756   2.970   8.260 -0.1607 -0.0218 -0.4923
  308MOL0     C41489   5.883   2.885   8.288 -0.1767 -0.0921 -0.2102
  308MOL0    Cl41490   5.960   2.893   8.447 -0.4190 -0.0207  0.2610
  308MOL0     C41491   4.758   2.913   8.181  0.0953  0.4553  0.4390
  308MOL0     C41492   4.635   2.871   8.136 -0.4303 -0.6089 -0.0246
  308MOL0     O41493   4.308   2.677   7.947 -0.4945 -0.4217  0.0901
  308MOL0     C41494   4.625   2.659   7.840  0.1026  0.9020 -0.2256
  308MOL0     C41495   4.697   2.681   7.723 -0.2495  0.4597 -0.5944
  308MOL0     N41496   5.298   2.498   7.304 -0.1865 -0.2371  0.3227
  308MOL0     N41497   5.430   2.494   7.291 -0.3675  0.6823 -0.1597
  308MOL0     C41498   6.384   3.349   7.616  0.0118 -0.6686 -0.0987
  308MOL0     C41499   6.510   3.415   7.647  0.9454  0.4202 -0.1139
  308MOL0     C41500   6.954   3.448   7.645 -0.5655  0.2807  0.5630
  308MOL0     C41501   7.003   3.452   7.774  0.3406 -0.2860  0.0947
  308MOL0     C41502   7.141   3.485   7.806  0.4009 -0.7339  0.4203
  308MOL0     C41503   7.231   3.518   7.703 -0.1559 -0.4061  0.3949
  308MOL0     O41504   7.362   3.548   7.724 -0.6878  0.0115  0.4432
  308MOL0     C41505   7.432   3.652   7.651  0.7210  0.3922  0.3387
  308MOL0     C41506   7.487   3.740   7.766  0.4646 -0.0769  0.0804
  308MOL0     C41507   7.583   3.845   7.704  0.2215  0.4291  0.8425
  308MOL0     C41508   7.607   3.958   7.809 -0.1632 -0.0639 -1.0420
  308MOL0     C41509   7.620   4.085   7.746  0.9550 -0.4638  0.3623
  308MOL0     C41510   7.638   4.176   7.664 -0.1746 -0.4735  0.4061
  308MOL0     C41511   7.191   3.503   7.573  0.3897  0.8436  0.6425
  308MOL0     C41512   7.061   3.469   7.544  0.2403  0.7568 -0.7219
  308MOL0     H41513   6.643   3.173   7.842  1.0502 -1.9692 -1.6395
  308MOL0     H41514   6.436   3.073   7.811  1.7390 -1.7706 -2.0245
  308MOL0     H41515   6.313   3.001   7.532 -0.8200 -3.2038 -0.1224
  308MOL0     H41516   6.244   2.990   7.706 -4.1339  1.3067  1.7138
  308MOL0     H41517   6.105   3.051   7.441  1.5090 -1.2095 -0.4009
  308MOL0     H41518   6.118   2.885   7.497 -1.5691  0.3197 -4.4425
  308MOL0     H41519   5.987   2.921   7.694 -0.4155 -0.2196  0.0469
  308MOL0     H41520   5.987   3.095   7.686 -2.8169 -0.4639  0.8931
  308MOL0     H41521   5.763   3.036   7.567  0.3113  3.1634 -2.5394
  308MOL0     H41522   5.864   3.065   7.434 -3.2626  1.3061  0.0660
  308MOL0     H41523   5.830   2.846   7.369 -1.4385  1.7064 -0.1717
  308MOL0     H41524   5.907   2.781   7.518  2.1372  0.8357 -2.2463
  308MOL0     H41525   5.688   2.814   7.630 -1.3467 -0.4866 -1.0048
  308MOL0     H41526   5.618   2.875   7.477  0.1523  0.8878  0.9214
  308MOL0     H41527   5.759   2.613   7.496  0.1635 -0.5389 -0.9926
  308MOL0     H41528   5.593   2.625   7.559 -0.6574 -1.0043 -1.7751
  308MOL0     H41529   5.664   2.550   7.309 -0.1571 -0.9385  2.1790
  308MOL0     H41530   5.647   2.724   7.278  2.0093 -0.4194  0.1690
  308MOL0     H41531   5.376   2.802   7.406  1.4490 -0.6710  0.7339
  308MOL0     H41532   5.056   2.579   7.395 -1.5005  0.5712  2.4427
  308MOL0     H41533   5.145   2.662   7.524  2.3236  0.2400 -0.2069
  308MOL0     H41534   5.122   2.843   7.284  0.3788 -0.7863 -0.8117
  308MOL0     H41535   5.109   2.868   7.454  0.4189 -0.0099 -0.8205
  308MOL0     H41536   4.888   2.771   7.267  1.8613 -2.7381 -0.1439
  308MOL0     H41537   4.893   2.899   7.388  1.5646  0.0965  1.5047
  308MOL0     H41538   4.907   2.729   7.574  0.3422 -1.4173 -0.4890
  308MOL0     H41539   4.841   2.610   7.459 -1.0991  0.8104 -2.2630
  308MOL0     H41540   4.494   2.891   7.561 -3.4155 -1.0854  2.1787
  308MOL0     H41541   4.318   2.971   7.831 -0.7584 -0.6657  0.0593
  308MOL0     H41542   4.331   2.940   7.653  0.5313 -0.0042  0.2996
  308MOL0     H41543   4.248   2.826   7.774  0.8611 -1.3103  2.4785
  308MOL0     H41544   4.672   2.534   8.199 -2.2792  0.7093  0.7757
  308MOL0     H41545   4.905   2.598   8.243 -2.3151 -2.1940  0.8023
  308MOL0     H41546   5.002   3.042   8.201  2.2502 -1.0938 -1.1833
  308MOL0     H41547   4.920   3.020   8.361 -0.0769  0.3379 -0.9822
  308MOL0     H41548   5.158   3.110   8.388 -0.8617  0.7073 -3.7815
  308MOL0     H41549   5.142   2.944   8.454 -2.7588  2.4547  2.2109
  308MOL0     H41550   5.264   3.019   8.181 -1.9782  1.6119  1.7214
  308MOL0     H41551   5.242   2.850   8.228  2.7240 -1.5280  2.6838
  308MOL0     H41552   5.379   3.009   8.430 -0.1856 -0.7541  0.9965
  308MOL0     H41553   5.381   2.836   8.387  0.5804 -0.6009 -0.5969
  308MOL0     H41554   5.518   3.051   8.234 -2.4784  0.9398 -2.7482
  308MOL0     H41555   5.480   2.884   8.173 -1.4450 -0.1590  1.7867
  308MOL0     H41556   5.626   2.942   8.423  2.8766  3.4617 -0.6694
  308MOL0     H41557   5.646   2.796   8.311 -0.2743  0.4807 -1.6271
  308MOL0     H41558   5.759   3.075   8.290 -0.9441 -0.2303  0.3477
  308MOL0     H41559   5.741   2.969   8.151  1.5657  0.2583 -0.7666
  308MOL0     H41560   5.960   2.920   8.219  0.2189  1.8539  1.1216
  308MOL0     H41561   5.855   2.781   8.268  1.4262 -0.8939  1.3799
  308MOL0     H41562   4.769   3.021   8.181 -0.5389  0.5213  0.8677
  308MOL0     H41563   4.556   2.943   8.118 -0.7468 -1.0294 -0.3354
  308MOL0     H41564   4.628   2.568   7.900 -1.0666  0.7208 -0.4261
  308MOL0     H41565   4.783   2.616   7.712  0.3331  1.4538 -2.3813
  308MOL0     H41566   6.326   3.390   7.534  1.0138 -1.4676 -1.2484
  308MOL0     H41567   6.538   3.502   7.589 -1.1268  3.1697  2.7123
  308MOL0     H41568   6.955   3.421   7.866  1.6053 -1.1508  0.5006
  308MOL0     H41569   7.169   3.465   7.909 -2.5911 -0.4037  1.4071
  308MOL0     H41570   7.510   3.607   7.589  0.1872 -1.7750  1.1471
  308MOL0     H41571   7.361   3.704   7.587  2.4991  1.6879 -0.6284
  308MOL0     H41572   7.541   3.669   7.829  0.3292  0.9369  1.3860
  308MOL0     H41573   7.401   3.787   7.814  0.6637 -1.4991  1.9162
  308MOL0     H41574   7.529   3.882   7.617  1.4671 -2.8950 -1.5410
  308MOL0     H41575   7.679   3.807   7.670  1.2952  3.0682  0.6669
  308MOL0     H41576   7.692   3.946   7.876 -1.8149  1.3281  1.4440
  308MOL0     H41577   7.522   3.960   7.878  2.3998 -1.5802  2.4117
  308MOL0     H41578   7.651   4.249   7.587 -1.2033 -1.6091 -0.8874
  308MOL0     H41579   7.277   3.505   7.506  2.1674  1.4377  2.8051
  308MOL0     H41580   7.035   3.459   7.439 -2.5220  4.8637 -0.6330
  309MOL0     O41581  10.885   1.178   1.781  0.6997  0.1132  0.1487
  309MOL0     C41582  10.969   1.271   1.784  0.0670  0.4901 -0.4643
  309MOL0     O41583  10.941   1.408   1.796 -0.3450  0.9784 -0.8590
  309MOL0     C41584  10.809   1.438   1.799  0.1044 -0.0028 -0.6126
  309MOL0     C41585  10.760   1.522   1.899 -0.5007  0.9085 -0.8839
  309MOL0     C41586  10.618   1.556   1.911 -0.2787  0.1674  1.0994
  309MOL0     C41587  10.534   1.490   1.813 -0.2753 -0.1858  0.0849
  309MOL0     O41588  10.403   1.515   1.807  0.8709  0.4661  0.1267
  309MOL0     C41589  10.334   1.507   1.931 -0.2003 -0.9484 -0.3845
  309MOL0     C41590  10.192   1.553   1.907  0.5685  0.1447 -0.0251
  309MOL0     C41591  10.173   1.676   1.820 -0.1943  0.9824  0.0674
  309MOL0     C41592  10.030   1.723   1.837 -0.4790 -0.7563  0.5724
  309MOL0     C41593  10.000   1.856   1.774 -0.1359 -0.7958  0.3360
  309MOL0     C41594   9.855   1.895   1.774 -1.3140 -0.2953 -0.5064
  309MOL0     C41595   9.849   2.048   1.785 -0.3731 -0.0077 -0.9223
  309MOL0     C41596   9.854   2.097   1.931  1.0478 -1.7055 -0.3750
  309MOL0     N41597   9.830   2.244   1.933 -0.4584  0.2920  0.4948
  309MOL0     C41598   9.928   2.339   1.900  0.3577 -0.2087  1.1824
  309MOL0     C41599   9.857   2.458   1.895 -0.8681 -0.5845  0.3615
  309MOL0     C41600   9.910   2.588   1.834  0.0248  0.2502  0.0003
  309MOL0     C41601   9.922   2.567   1.683 -0.2559  0.2931  0.6928
  309MOL0     C41602  10.049   2.495   1.635  0.5273 -1.2025  0.5536
  309MOL0     C41603  10.068   2.493   1.474  0.4069  0.6021 -0.0917
  309MOL0     O41604   9.937   2.464   1.427  0.0021 -0.4348 -0.4223
  309MOL0     C41605   9.888   2.335   1.414 -0.2713  0.1777 -0.5522
  309MOL0     C41606   9.950   2.214   1.450  0.1640 -0.2297 -0.3360
  309MOL0     C41607   9.886   2.094   1.422  0.2943 -0.2647 -0.1530
  309MOL0     C41608   9.961   1.972   1.455  0.4756  0.1736 -0.0667
  309MOL0     C41609   9.755   2.087   1.357  1.3083  0.1212  0.2363
  309MOL0     C41610   9.667   1.965   1.351  0.7694 -0.4415  0.2179
  309MOL0     O41611   9.559   1.988   1.273 -0.4198  0.4735 -0.6376
  309MOL0     C41612   9.484   1.876   1.238  0.1130 -0.2375  0.6952
  309MOL0     C41613   9.359   1.855   1.302  0.2922  0.5527 -0.8984
  309MOL0     C41614   9.291   1.735   1.262  0.0268 -0.7669  0.3676
  309MOL0     C41615   9.328   1.654   1.160 -0.1678  0.5186  0.7513
  309MOL0     O41616   9.255   1.537   1.134  0.0356  0.2295 -0.3540
  309MOL0     C41617   9.263   1.486   1.006  0.1355  0.3113  0.8287
  309MOL0     C41618   9.152   1.389   0.976  0.9283  0.2372 -0.1846
  309MOL0     C41619   9.022   1.452   0.999  0.3056  0.5004  0.2369
  309MOL0     C41620   8.905   1.372   0.960  0.6644  0.5162 -0.1674
  309MOL0     C41621   8.778   1.449   0.977 -0.0407  0.0143  0.5015
  309MOL0     C41622   8.723   1.538   0.857  0.4302  0.3702  0.6812
  309MOL0     C41623   8.608   1.480   0.769 -0.4123  0.1246 -0.1373
  309MOL0     C41624   8.641   1.356   0.694 -1.2790 -0.3546 -0.5069
  309MOL0    Cl41625   8.491   1.293   0.608 -0.5588  0.0088 -0.0393
  309MOL0     C41626   9.456   1.684   1.098 -0.2044 -0.7468 -0.0679
  309MOL0     C41627   9.533   1.786   1.141  0.3006  0.0116  0.0663
  309MOL0     O41628   9.706   1.857   1.391 -0.8193  0.5070  0.1669
  309MOL0     C41629   9.695   2.213   1.314 -0.5633  0.2712 -0.1187
  309MOL0     C41630   9.771   2.328   1.351 -0.4613 -0.0253  1.3534
  309MOL0     N41631   9.727   2.429   1.925 -0.2582 -0.3833 -0.4583
  309MOL0     N41632   9.712   2.308   1.954  0.0156  0.2389  0.0441
  309MOL0     C41633  10.584   1.413   1.708 -0.1844 -0.4025 -1.0496
  309MOL0     C41634  10.725   1.399   1.693 -0.4631 -0.2751 -0.0385
  309MOL0     C41635  11.111   1.233   1.769  0.0171  0.2297 -0.3713
  309MOL0     C41636  11.207   1.316   1.713  0.0728  0.7191  0.5420
  309MOL0     C41637  11.341   1.269   1.733 -0.5302  0.4817 -0.1810
  309MOL0     C41638  11.378   1.145   1.788 -0.5801 -0.1559  0.6451
  309MOL0     O41639  11.512   1.121   1.796  0.7117 -0.0672 -0.4049
  309MOL0     C41640  11.564   1.001   1.853  0.5731  0.0629 -0.1336
  309MOL0     C41641  11.625   0.912   1.745 -0.0436 -0.2052  0.1681
  309MOL0     C41642  11.777   0.947   1.735  0.1953 -0.0377  0.6678
  309MOL0     C41643  11.861   0.865   1.633 -0.4624 -0.5205 -0.2564
  309MOL0     C41644  11.879   0.741   1.700 -0.6478 -0.0060 -0.2764
  309MOL0     C41645  11.924   0.647   1.762  0.5228  0.7804 -0.0749
  309MOL0     C41646  11.272   1.062   1.822  1.2230 -0.1349 -0.4609
  309MOL0     C41647  11.137   1.109   1.825  0.8118  0.8064 -0.1008
  309MOL0     H41648  10.832   1.566   1.967  0.0447  1.8338 -2.0180
  309MOL0     H41649  10.573   1.623   1.985 -1.1051 -0.4848  1.1978
  309MOL0     H41650  10.335   1.409   1.980  1.9849 -1.0420 -0.5014
  309MOL0     H41651  10.376   1.585   1.997  0.8457 -0.8863 -1.0918
  309MOL0     H41652  10.151   1.474   1.843  1.2995  0.8707 -1.4151
  309MOL0     H41653  10.135   1.553   2.001  0.8953 -0.2984  0.1796
  309MOL0     H41654  10.247   1.752   1.846 -0.8239  1.3045  0.9457
  309MOL0     H41655  10.188   1.659   1.713  0.2253  0.3785  0.2142
  309MOL0     H41656   9.968   1.652   1.781 -1.9420  2.3533 -2.0188
  309MOL0     H41657  10.003   1.720   1.943  0.3987 -2.9601  0.7828
  309MOL0     H41658  10.044   1.934   1.837 -4.7200  1.6283  0.9574
  309MOL0     H41659  10.047   1.861   1.675  1.5892 -0.0218  1.1484
  309MOL0     H41660   9.807   1.858   1.683  1.6216 -0.0778 -2.2517
  309MOL0     H41661   9.808   1.856   1.865  0.0501 -0.1511  0.2797
  309MOL0     H41662   9.933   2.095   1.732  0.4240  0.2868  0.5487
  309MOL0     H41663   9.757   2.080   1.736 -2.1758 -3.7717 -0.4157
  309MOL0     H41664   9.951   2.074   1.977  0.7635 -0.2960  1.0375
  309MOL0     H41665   9.773   2.051   1.988  1.9098 -3.0197 -0.1740
  309MOL0     H41666  10.034   2.327   1.879  0.2972  2.2994 -1.2433
  309MOL0     H41667   9.840   2.669   1.857  1.4264  1.4117  0.2485
  309MOL0     H41668  10.008   2.608   1.877  0.3829 -0.9864 -0.1936
  309MOL0     H41669   9.933   2.667   1.641  1.1158  0.0821  0.4909
  309MOL0     H41670   9.828   2.522   1.650  1.0618 -0.2244 -2.8206
  309MOL0     H41671  10.041   2.397   1.682  0.5585 -0.2516  2.6200
  309MOL0     H41672  10.132   2.548   1.683  0.4292  2.0767 -2.4400
  309MOL0     H41673  10.152   2.432   1.438  0.0079  1.5866 -2.9254
  309MOL0     H41674  10.095   2.592   1.434 -2.1039  0.2374 -3.0903
  309MOL0     H41675  10.038   2.206   1.513 -1.1051 -0.8775  1.4413
  309MOL0     H41676   9.914   1.887   1.505 -0.2003 -0.3245 -1.4767
  309MOL0     H41677   9.998   1.929   1.362 -0.8853 -1.1509 -0.0358
  309MOL0     H41678  10.058   1.998   1.498 -0.3597  1.7540  0.9506
  309MOL0     H41679   9.335   1.917   1.387 -1.6017 -1.0105 -0.2123
  309MOL0     H41680   9.208   1.682   1.308 -0.0356 -1.1938 -0.2280
  309MOL0     H41681   9.241   1.566   0.934  1.5061 -0.1686 -0.1823
  309MOL0     H41682   9.357   1.432   0.988 -1.5124 -2.9494  1.2374
  309MOL0     H41683   9.159   1.356   0.872  1.4631  2.8588 -1.0771
  309MOL0     H41684   9.163   1.305   1.044  1.1206  0.7604  0.4475
  309MOL0     H41685   9.020   1.548   0.947  0.3554 -0.4667 -1.6396
  309MOL0     H41686   9.013   1.488   1.102 -1.5538  2.8392 -0.6455
  309MOL0     H41687   8.910   1.343   0.855  0.3821  1.9316 -0.5919
  309MOL0     H41688   8.893   1.293   1.034 -0.2173  1.2336  0.4780
  309MOL0     H41689   8.792   1.513   1.065  0.9778  1.0430 -0.3781
  309MOL0     H41690   8.704   1.374   1.004 -0.2906  0.1627  0.2274
  309MOL0     H41691   8.698   1.637   0.894  2.4722  0.0922  3.0594
  309MOL0     H41692   8.798   1.559   0.780 -0.2052  1.7859  0.4278
  309MOL0     H41693   8.571   1.550   0.693 -1.0236 -1.9448 -1.8354
  309MOL0     H41694   8.523   1.458   0.835  1.8860 -2.1266  2.3134
  309MOL0     H41695   8.664   1.272   0.761 -2.8759 -1.0351 -0.7626
  309MOL0     H41696   8.724   1.361   0.623  0.5713 -0.9888  1.5098
  309MOL0     H41697   9.495   1.627   1.014 -0.0607 -2.1583  0.9303
  309MOL0     H41698   9.628   1.820   1.100  0.5060  0.8495  1.1751
  309MOL0     H41699   9.594   2.212   1.274 -1.5487  2.1787  2.0892
  309MOL0     H41700   9.732   2.428   1.333  0.1421  0.5807  3.2049
  309MOL0     H41701  10.514   1.368   1.639  0.1368 -0.5563 -1.2754
  309MOL0     H41702  10.776   1.347   1.612  1.2591  0.1825  0.7117
  309MOL0     H41703  11.181   1.415   1.678 -0.9839  0.9392  1.8815
  309MOL0     H41704  11.422   1.338   1.713  2.3383 -1.1273  4.2815
  309MOL0     H41705  11.641   1.022   1.927 -0.8118  2.1758  0.8063
  309MOL0     H41706  11.487   0.937   1.900 -1.6280  0.8774 -2.4171
  309MOL0     H41707  11.564   0.927   1.655 -0.7617 -0.7812  0.5477
  309MOL0     H41708  11.624   0.809   1.781 -0.4746  0.2137  1.4094
  309MOL0     H41709  11.823   0.947   1.834 -1.4099  2.8508  1.5413
  309MOL0     H41710  11.795   1.048   1.697  0.5341 -0.7649 -1.2525
  309MOL0     H41711  11.956   0.918   1.618 -0.7323 -0.1160 -0.5546
  309MOL0     H41712  11.821   0.845   1.533 -2.9402  0.8911  0.3876
  309MOL0     H41713  11.943   0.567   1.831 -1.2863  0.2831 -0.1005
  309MOL0     H41714  11.282   0.957   1.846  1.5008 -0.2750 -1.1804
  309MOL0     H41715  11.062   1.039   1.859  2.7494 -1.8891 -1.0275
  310MOL0     O41716  11.167   1.975   6.114  0.7031  0.0143 -0.0346
  310MOL0     C41717  11.273   1.913   6.116  0.4712  0.6095  0.2894
  310MOL0     O41718  11.300   1.810   6.029 -0.0903  0.1374  0.3451
  310MOL0     C41719  11.217   1.777   5.926  0.7175  0.0226  0.3782
  310MOL0     C41720  11.239   1.653   5.856  0.1155 -0.4847  0.5377
  310MOL0     C41721  11.161   1.613   5.742 -0.4258 -0.5625  0.2226
  310MOL0     C41722  11.062   1.700   5.700  0.0572 -0.4139  1.4697
  310MOL0     O41723  10.973   1.679   5.592 -0.8269 -1.0998 -0.1446
  310MOL0     C41724  10.975   1.560   5.515  0.0474 -0.2578  0.1508
  310MOL0     C41725  10.878   1.588   5.399  0.6580  0.4215 -0.4229
  310MOL0     C41726  10.816   1.461   5.336  0.0159 -0.0872  0.2479
  310MOL0     C41727  10.748   1.370   5.433 -0.1390 -0.2941 -0.1496
  310MOL0     C41728  10.681   1.248   5.369  0.5612 -0.6087  0.1798
  310MOL0     C41729  10.629   1.152   5.470 -0.4834  0.1454 -0.1074
  310MOL0     C41730  10.590   1.016   5.402  1.2265 -0.3737  0.3348
  310MOL0     C41731  10.493   1.021   5.278 -0.7715  0.7908 -0.5458
  310MOL0     N41732  10.442   0.886   5.248 -0.0307  0.6178 -0.4461
  310MOL0     C41733  10.336   0.815   5.310  0.6234 -0.4714  0.1429
  310MOL0     C41734  10.314   0.708   5.233 -0.2308  0.2281 -0.3784
  310MOL0     C41735  10.195   0.607   5.246 -0.5733  0.3900  0.3417
  310MOL0     C41736  10.067   0.679   5.212  0.3444  0.0948 -0.0999
  310MOL0     C41737   9.941   0.583   5.200  0.3099 -0.4991 -0.0263
  310MOL0     C41738   9.809   0.659   5.220 -0.3637 -0.2097 -0.6007
  310MOL0     O41739   9.789   0.763   5.122 -0.3525 -0.7607 -0.4333
  310MOL0     C41740   9.667   0.800   5.081 -1.3446  0.0521 -0.3332
  310MOL0     C41741   9.650   0.910   4.996  0.1734  0.6235 -0.6438
  310MOL0     C41742   9.530   0.958   4.961  0.5982  0.6889  0.1679
  310MOL0     C41743   9.526   1.101   4.895 -0.1377  0.0084  0.4316
  310MOL0     C41744   9.411   0.888   5.001  0.1272  0.6277  0.1502
  310MOL0     C41745   9.268   0.931   4.977 -0.0177 -1.4196 -0.3936
  310MOL0     O41746   9.171   0.838   5.007 -1.0619 -0.2583 -0.2036
  310MOL0     C41747   9.036   0.868   5.011 -0.0544 -0.6745  0.2374
  310MOL0     C41748   8.959   0.920   4.907 -0.0397  0.0068 -0.0666
  310MOL0     C41749   8.826   0.951   4.917  0.2456 -1.0676  0.2789
  310MOL0     C41750   8.760   0.923   5.037  1.0248  1.0932 -0.1805
  310MOL0     O41751   8.622   0.941   5.048 -0.2560  0.4321 -0.3071
  310MOL0     C41752   8.545   0.838   4.995 -0.4148  0.4946 -0.4170
  310MOL0     C41753   8.402   0.878   4.969 -0.8722  0.2851 -0.9683
  310MOL0     C41754   8.288   0.788   5.014 -0.3827  0.7408  0.2935
  310MOL0     C41755   8.158   0.853   5.023 -0.3997  0.0287  0.5640
  310MOL0     C41756   8.051   0.746   5.043  0.3493 -0.3653 -0.1451
  310MOL0     C41757   7.904   0.810   5.046  0.0951  0.0542 -0.1866
  310MOL0     C41758   7.813   0.710   5.116  0.6438  0.3533  0.0178
  310MOL0     C41759   7.675   0.761   5.147 -0.1550  0.3097  0.0387
  310MOL0    Cl41760   7.673   0.865   5.285  0.2433 -0.0894 -0.2068
  310MOL0     C41761   8.832   0.858   5.137  0.1663 -0.5894 -0.1215
  310MOL0     C41762   8.968   0.833   5.125  0.6721  0.5980 -0.7077
  310MOL0     O41763   9.244   1.045   4.939  0.1786  0.7430 -0.4667
  310MOL0     C41764   9.430   0.770   5.076 -0.2148 -0.2289  0.0675
  310MOL0     C41765   9.555   0.732   5.122  0.1833 -0.6330 -0.0247
  310MOL0     N41766  10.408   0.710   5.128  0.2082 -0.2038 -0.3514
  310MOL0     N41767  10.485   0.812   5.140  0.2682  0.2761 -0.6254
  310MOL0     C41768  11.046   1.824   5.748  0.8410 -1.3244 -0.0367
  310MOL0     C41769  11.129   1.864   5.852  1.1287 -0.2640  0.0656
  310MOL0     C41770  11.355   1.959   6.227 -0.4869 -0.1591  0.0628
  310MOL0     C41771  11.463   1.886   6.272 -0.3233  0.2671  0.6655
  310MOL0     C41772  11.543   1.921   6.389  0.8165  0.5399 -0.2203
  310MOL0     C41773  11.511   2.038   6.462 -0.4941 -1.5237  0.3736
  310MOL0     O41774  11.580   2.076   6.564 -0.2350  0.0576  0.0405
  310MOL0     C41775  11.502   2.079   6.684 -0.4711 -0.7280  0.5543
  310MOL0     C41776  11.492   2.218   6.746  0.4103 -1.2957 -0.3845
  310MOL0     C41777  11.415   2.221   6.881  0.1151 -1.0343 -0.2646
  310MOL0     C41778  11.404   2.358   6.953 -0.2744  0.6700 -0.0263
  310MOL0     C41779  11.340   2.454   6.860  0.5845  0.5848 -0.9817
  310MOL0     C41780  11.281   2.530   6.784  0.9670 -0.2494  0.4206
  310MOL0     C41781  11.407   2.115   6.419 -0.2427  0.6247 -0.2118
  310MOL0     C41782  11.330   2.075   6.301 -0.5270  0.9624 -0.3773
  310MOL0     H41783  11.305   1.579   5.902  0.1312 -1.5595 -1.1338
  310MOL0     H41784  11.164   1.516   5.695 -1.0723  0.0677 -1.1802
  310MOL0     H41785  11.072   1.534   5.472 -0.4893 -1.7924 -0.1851
  310MOL0     H41786  10.952   1.475   5.580 -0.2377  0.2315  0.7038
  310MOL0     H41787  10.794   1.647   5.437  0.7392  0.7141 -0.6888
  310MOL0     H41788  10.928   1.649   5.323  1.9435  1.4473  1.1740
  310MOL0     H41789  10.745   1.497   5.261  1.6257 -0.2563 -1.4060
  310MOL0     H41790  10.899   1.402   5.298  0.1502  0.7617 -0.8292
  310MOL0     H41791  10.817   1.332   5.509 -2.0186 -0.2225  1.6759
  310MOL0     H41792  10.666   1.428   5.477  1.1128  1.5567 -0.1428
  310MOL0     H41793  10.601   1.289   5.306 -0.9770 -2.5865  0.7482
  310MOL0     H41794  10.755   1.205   5.302 -1.9224  1.0148 -4.0250
  310MOL0     H41795  10.705   1.127   5.545  0.3898 -0.2695 -1.1110
  310MOL0     H41796  10.538   1.190   5.519 -2.0407 -0.5205 -2.3339
  310MOL0     H41797  10.686   0.967   5.383  1.6362 -0.1203  1.6256
  310MOL0     H41798  10.547   0.956   5.483  0.5631  1.3230  1.2910
  310MOL0     H41799  10.562   1.047   5.197  0.6995  1.1093  0.7565
  310MOL0     H41800  10.418   1.099   5.294 -1.6447 -0.5578  2.6787
  310MOL0     H41801  10.286   0.833   5.405  0.2627  2.1569 -0.4797
  310MOL0     H41802  10.217   0.519   5.184 -1.4232 -2.3913  3.6369
  310MOL0     H41803  10.194   0.566   5.348 -1.3859 -1.9301 -0.5270
  310MOL0     H41804  10.089   0.721   5.113 -0.7348 -1.4567 -1.0297
  310MOL0     H41805  10.051   0.761   5.283 -0.8565  1.7852 -2.2298
  310MOL0     H41806   9.954   0.520   5.288  1.2724  1.0218  0.9563
  310MOL0     H41807   9.937   0.525   5.107 -0.6788 -2.2559  1.0429
  310MOL0     H41808   9.816   0.702   5.320  0.2579 -0.9962 -0.2907
  310MOL0     H41809   9.729   0.584   5.211 -1.0189  0.5083 -0.8419
  310MOL0     H41810   9.737   0.968   4.968  0.5111 -0.4594 -1.9599
  310MOL0     H41811   9.461   1.110   4.808  0.0080  4.4449  0.5574
  310MOL0     H41812   9.508   1.173   4.976 -0.0597  1.0010 -0.4099
  310MOL0     H41813   9.620   1.128   4.846 -1.2500  1.9989 -0.7446
  310MOL0     H41814   9.005   0.966   4.820 -0.2423  0.8244  0.2410
  310MOL0     H41815   8.772   0.992   4.833 -0.4142 -0.7711  0.8399
  310MOL0     H41816   8.592   0.807   4.901  0.6266  3.1643 -0.8831
  310MOL0     H41817   8.540   0.756   5.067  0.6200 -2.0494 -3.0371
  310MOL0     H41818   8.400   0.976   5.018  3.9651  0.7706 -1.2673
  310MOL0     H41819   8.383   0.904   4.864  1.0456 -1.9856 -1.9646
  310MOL0     H41820   8.315   0.742   5.109  0.6962  0.1257 -0.2940
  310MOL0     H41821   8.288   0.701   4.948  1.7307  0.7516  0.2340
  310MOL0     H41822   8.157   0.914   5.114 -0.6122 -0.6299  1.0079
  310MOL0     H41823   8.139   0.924   4.942  1.1919 -1.0386 -0.8076
  310MOL0     H41824   8.064   0.693   5.138 -2.1099 -2.2972 -0.7851
  310MOL0     H41825   8.065   0.663   4.974  0.1034 -1.0823  0.6501
  310MOL0     H41826   7.900   0.902   5.104 -2.1654  0.5818 -1.0563
  310MOL0     H41827   7.857   0.834   4.950  0.0922 -0.1113 -0.2274
  310MOL0     H41828   7.856   0.676   5.211  1.9052  1.7006 -0.0394
  310MOL0     H41829   7.802   0.625   5.048  0.9945  1.1610 -1.0649
  310MOL0     H41830   7.600   0.684   5.167 -0.2988  0.5304  0.3625
  310MOL0     H41831   7.633   0.811   5.059 -1.2714 -3.3414 -1.6680
  310MOL0     H41832   8.781   0.824   5.227 -2.0057  3.6619  0.4795
  310MOL0     H41833   9.006   0.787   5.216  2.2858 -1.0999 -2.1481
  310MOL0     H41834   9.343   0.718   5.113  0.6511 -1.5211  0.3547
  310MOL0     H41835   9.550   0.658   5.201  1.2816  0.9096  1.5632
  310MOL0     H41836  10.973   1.893   5.709  0.7068 -0.7444  1.1714
  310MOL0     H41837  11.108   1.968   5.875  0.1511 -0.1381 -1.2640
  310MOL0     H41838  11.495   1.796   6.220 -0.4800  0.1466  0.7766
  310MOL0     H41839  11.619   1.851   6.423 -0.3726  0.1528  1.7750
  310MOL0     H41840  11.400   2.042   6.671 -0.9013  1.1008 -1.9517
  310MOL0     H41841  11.556   2.009   6.749  1.0784  0.2442  0.3868
  310MOL0     H41842  11.459   2.299   6.680  1.1781 -1.5197 -1.0494
  310MOL0     H41843  11.596   2.250   6.759 -0.1420  0.6521 -0.4697
  310MOL0     H41844  11.459   2.148   6.950  1.8931 -0.5134 -0.8072
  310MOL0     H41845  11.312   2.192   6.857 -0.6252  0.5116  0.8455
  310MOL0     H41846  11.497   2.404   6.989 -1.6752  0.7491  4.0650
  310MOL0     H41847  11.346   2.327   7.040 -1.5521 -0.7284 -1.3158
  310MOL0     H41848  11.238   2.597   6.713 -1.7417  0.3019  2.4310
  310MOL0     H41849  11.392   2.206   6.476 -1.4231  0.2198  0.1499
  310MOL0     H41850  11.257   2.147   6.267 -0.7735  0.9645  0.1471
  311MOL0     O41851   9.338   1.690   0.606 -0.3609 -0.4609 -0.4573
  311MOL0     C41852   9.347   1.577   0.651  0.8330 -0.0190 -0.0341
  311MOL0     O41853   9.241   1.491   0.654  0.6290  0.7545  0.1505
  311MOL0     C41854   9.123   1.512   0.580 -0.0533 -0.3308  0.2769
  311MOL0     C41855   9.064   1.396   0.545 -1.2767 -0.2278 -1.1016
  311MOL0     C41856   8.938   1.392   0.477  0.1402  0.9071  0.1277
  311MOL0     C41857   8.871   1.507   0.447 -0.2476 -0.3188  0.0092
  311MOL0     O41858   8.746   1.506   0.393 -0.3348 -0.0650  0.2331
  311MOL0     C41859   8.685   1.626   0.334 -0.9128  1.0495  0.0344
  311MOL0     C41860   8.540   1.629   0.371  0.7464  0.3063 -0.5700
  311MOL0     C41861   8.465   1.712   0.271  0.0929  0.3519  0.2661
  311MOL0     C41862   8.356   1.792   0.337  0.5324 -0.2203 -0.6854
  311MOL0     C41863   8.234   1.716   0.400 -0.0325 -0.5652 -0.2692
  311MOL0     C41864   8.136   1.818   0.476  0.1269  0.2291  0.0023
  311MOL0     C41865   8.204   1.894   0.592 -0.3070 -0.2658 -0.3236
  311MOL0     C41866   8.104   1.974   0.678 -0.2403 -0.4858 -0.8339
  311MOL0     N41867   8.148   1.942   0.811  0.5084 -0.6212 -0.1269
  311MOL0     C41868   8.110   1.834   0.879  0.1724  0.4780  0.1609
  311MOL0     C41869   8.157   1.863   1.000  0.2449  0.2421  0.6793
  311MOL0     C41870   8.136   1.770   1.116 -0.2657  0.2017 -0.9350
  311MOL0     C41871   8.262   1.754   1.217 -0.1036  0.4497  0.3184
  311MOL0     C41872   8.325   1.615   1.211  0.2106 -0.1704  0.6515
  311MOL0     C41873   8.405   1.589   1.079  0.8268  0.1332 -0.5144
  311MOL0     O41874   8.388   1.446   1.050  0.2030 -0.3728  0.9801
  311MOL0     C41875   8.264   1.423   0.998 -0.0059 -0.4344 -0.7511
  311MOL0     C41876   8.235   1.463   0.872 -0.4172 -0.2622 -0.7578
  311MOL0     C41877   8.104   1.444   0.815 -0.4373 -0.6691  0.1147
  311MOL0     C41878   8.081   1.514   0.684  0.3476 -0.5427  0.0627
  311MOL0     C41879   8.008   1.365   0.888 -0.1059 -0.1980 -0.1450
  311MOL0     C41880   7.873   1.338   0.839  0.2070 -0.5811  0.2305
  311MOL0     O41881   7.840   1.384   0.717 -0.4546  0.5184 -0.2032
  311MOL0     C41882   7.703   1.395   0.699 -0.6616  0.0769  0.5503
  311MOL0     C41883   7.622   1.501   0.745  0.5879  0.0028  1.1219
  311MOL0     C41884   7.485   1.500   0.731 -0.0995  0.2491 -0.5515
  311MOL0     C41885   7.422   1.407   0.649  0.7988 -0.1615  0.2751
  311MOL0     O41886   7.279   1.404   0.648  0.6403  0.2629  0.1718
  311MOL0     C41887   7.225   1.271   0.670  0.6945 -0.0088  0.2665
  311MOL0     C41888   7.125   1.292   0.783  0.8067 -0.6329 -0.7801
  311MOL0     C41889   7.011   1.379   0.744 -0.0899 -0.4313  0.0498
  311MOL0     C41890   6.894   1.371   0.840 -0.9603  0.3157  0.4144
  311MOL0     C41891   6.803   1.497   0.862  0.7602  0.1261 -0.3735
  311MOL0     C41892   6.849   1.608   0.958  0.3553  0.1462  0.4497
  311MOL0     C41893   6.980   1.691   0.922  0.4637 -0.0115  0.6796
  311MOL0     C41894   6.974   1.841   0.975  0.2090 -0.1193  0.9646
  311MOL0    Cl41895   7.008   1.846   1.146 -0.0941  0.4496 -0.4361
  311MOL0     C41896   7.502   1.309   0.595  0.7506  0.0792 -0.4727
  311MOL0     C41897   7.636   1.301   0.627  0.3862  0.2980  1.0562
  311MOL0     O41898   7.790   1.282   0.911  0.0898  0.5149 -1.2876
  311MOL0     C41899   8.052   1.310   1.005 -0.0271 -0.0604 -0.0867
  311MOL0     C41900   8.175   1.341   1.068  0.2923  0.0071  0.1542
  311MOL0     N41901   8.233   1.978   0.999 -0.1102  0.2110 -0.5153
  311MOL0     N41902   8.218   2.026   0.882 -0.1028  0.0837 -0.1384
  311MOL0     C41903   8.937   1.628   0.483  0.5451 -0.3640  0.6619
  311MOL0     C41904   9.063   1.632   0.545  0.1999  0.5729  0.2402
  311MOL0     C41905   9.474   1.523   0.696  0.1561  0.2359 -0.7061
  311MOL0     C41906   9.497   1.386   0.704  0.5296 -0.5398  0.3821
  311MOL0     C41907   9.623   1.340   0.744  0.2313 -0.3987  0.3297
  311MOL0     C41908   9.730   1.429   0.787  0.2353 -0.5085 -0.5214
  311MOL0     O41909   9.830   1.372   0.858 -0.1472  0.4019  0.7077
  311MOL0     C41910   9.940   1.466   0.890 -0.3008 -0.0154 -0.6466
  311MOL0     C41911  10.079   1.407   0.907 -0.3033 -0.2803  0.2418
  311MOL0     C41912  10.117   1.313   0.788 -0.4109 -0.4796 -0.4339
  311MOL0     C41913  10.272   1.326   0.756 -0.4721 -0.5851 -0.3027
  311MOL0     C41914  10.344   1.260   0.859 -0.9358  0.1716  0.0484
  311MOL0     C41915  10.425   1.222   0.947 -0.5835 -0.4837  0.3331
  311MOL0     C41916   9.695   1.568   0.778  0.2251  0.9999  0.3094
  311MOL0     C41917   9.568   1.611   0.729 -0.0151 -0.7055  0.0602
  311MOL0     H41918   9.120   1.304   0.564  0.6714  0.7783 -1.6714
  311MOL0     H41919   8.894   1.297   0.448  1.4642 -0.4762  2.3643
  311MOL0     H41920   8.733   1.718   0.368  1.8791  0.2434 -1.3614
  311MOL0     H41921   8.692   1.615   0.225 -3.7526 -2.0079 -0.0191
  311MOL0     H41922   8.502   1.529   0.348  3.3421 -1.3430  1.7679
  311MOL0     H41923   8.529   1.657   0.476 -2.7260  4.8003 -1.7978
  311MOL0     H41924   8.538   1.784   0.230 -0.0993  1.2964  1.5446
  311MOL0     H41925   8.421   1.658   0.186  1.2731  2.6750 -1.9841
  311MOL0     H41926   8.407   1.837   0.423 -1.3574 -1.5179  1.1902
  311MOL0     H41927   8.325   1.869   0.266 -2.1183  0.3503  0.9477
  311MOL0     H41928   8.182   1.673   0.313 -2.7770 -2.2685  2.0336
  311MOL0     H41929   8.256   1.631   0.466 -0.9255  0.0402  0.8427
  311MOL0     H41930   8.110   1.894   0.401  1.6912  1.4768  0.6813
  311MOL0     H41931   8.050   1.758   0.509  1.5105 -2.5486 -1.1267
  311MOL0     H41932   8.269   1.825   0.646  0.7263 -0.6136 -1.9771
  311MOL0     H41933   8.277   1.961   0.546 -0.0948  1.0317  1.7651
  311MOL0     H41934   7.999   1.950   0.663 -0.5997  0.1657  0.5042
  311MOL0     H41935   8.113   2.081   0.656 -1.4282 -0.8200 -3.2485
  311MOL0     H41936   8.046   1.751   0.850 -1.0247  1.7217 -0.9375
  311MOL0     H41937   8.054   1.825   1.163 -0.2486 -0.2189 -0.4068
  311MOL0     H41938   8.100   1.674   1.078 -1.3593  0.2354 -0.0310
  311MOL0     H41939   8.227   1.768   1.319 -2.0182 -1.4261 -0.0040
  311MOL0     H41940   8.341   1.828   1.202 -0.8271  1.8056  2.7521
  311MOL0     H41941   8.247   1.540   1.230 -1.4182  1.6779  1.7446
  311MOL0     H41942   8.406   1.601   1.283  0.4250  3.0221  1.1617
  311MOL0     H41943   8.510   1.611   1.100  1.3340 -2.0897 -0.4112
  311MOL0     H41944   8.378   1.661   1.002  3.0648  2.5219  0.7668
  311MOL0     H41945   8.317   1.504   0.814  1.2259 -2.2675  0.0117
  311MOL0     H41946   8.097   1.445   0.599  3.5020 -2.0867  1.7221
  311MOL0     H41947   7.986   1.566   0.670  0.9830 -0.0011 -3.0238
  311MOL0     H41948   8.152   1.596   0.691  0.9110 -1.0061 -0.0850
  311MOL0     H41949   7.659   1.579   0.811 -0.9118  1.7894 -0.0603
  311MOL0     H41950   7.440   1.568   0.803 -0.6025  0.1186 -0.7325
  311MOL0     H41951   7.164   1.234   0.587 -2.5254  1.5661  1.7390
  311MOL0     H41952   7.300   1.199   0.704 -1.2814 -2.1672  0.3066
  311MOL0     H41953   7.090   1.196   0.823 -0.1243  0.6879  1.7771
  311MOL0     H41954   7.168   1.338   0.872 -0.8306 -1.1878  0.3321
  311MOL0     H41955   6.977   1.340   0.647  1.1551  3.0538 -1.9912
  311MOL0     H41956   7.043   1.482   0.726  2.6667 -0.8846  1.8074
  311MOL0     H41957   6.826   1.292   0.808 -0.9202  0.5584 -0.2783
  311MOL0     H41958   6.939   1.341   0.935  1.1606 -0.6049 -0.8099
  311MOL0     H41959   6.710   1.451   0.896  1.1245  0.6511  1.4996
  311MOL0     H41960   6.775   1.546   0.769 -3.5619  0.6612  0.9700
  311MOL0     H41961   6.764   1.676   0.971 -2.1845 -2.3711 -1.5628
  311MOL0     H41962   6.860   1.555   1.054 -2.4581  1.3864  1.5611
  311MOL0     H41963   6.994   1.689   0.814 -2.2004  0.1988  0.2799
  311MOL0     H41964   7.066   1.641   0.968  0.3044 -0.2190  0.7493
  311MOL0     H41965   6.879   1.891   0.956 -0.1890 -1.6343 -1.4153
  311MOL0     H41966   7.065   1.888   0.936  1.2185 -2.2264  0.6325
  311MOL0     H41967   7.446   1.240   0.533  0.7085 -1.6342  1.3862
  311MOL0     H41968   7.694   1.230   0.570  0.2565  0.1446  1.1154
  311MOL0     H41969   7.985   1.246   1.062 -0.6544 -0.0362 -0.7821
  311MOL0     H41970   8.195   1.290   1.162  2.2134 -0.8840 -0.6799
  311MOL0     H41971   8.887   1.723   0.467  2.9419  0.5491 -2.5049
  311MOL0     H41972   9.104   1.726   0.582 -1.4694  1.5988 -0.3836
  311MOL0     H41973   9.418   1.314   0.683 -1.2466  0.5149  2.9169
  311MOL0     H41974   9.642   1.235   0.767  0.4436 -0.0614  1.7781
  311MOL0     H41975   9.950   1.534   0.805  0.8673 -1.6239 -1.8547
  311MOL0     H41976   9.925   1.525   0.981  1.7359 -0.2473 -0.0965
  311MOL0     H41977  10.088   1.357   1.004  1.6228 -0.3437  0.0814
  311MOL0     H41978  10.141   1.497   0.903 -3.3265  1.9250 -2.1562
  311MOL0     H41979  10.076   1.348   0.693  2.6564  0.8276 -1.4073
  311MOL0     H41980  10.079   1.212   0.805 -1.9837  0.0987 -0.3887
  311MOL0     H41981  10.317   1.425   0.750  0.6152 -1.1450 -4.7867
  311MOL0     H41982  10.302   1.283   0.660  2.7069  3.2894 -1.3196
  311MOL0     H41983  10.497   1.185   1.017  0.0123 -0.2012 -0.1154
  311MOL0     H41984   9.752   1.643   0.832 -3.1827  3.1621  1.1933
  311MOL0     H41985   9.540   1.716   0.726  0.8612 -0.4512  0.5818
  312MOL0     O41986   7.690  10.696   8.617 -0.3828  0.8154 -0.3966
  312MOL0     C41987   7.726  10.576   8.616  0.3975  0.1311 -0.0467
  312MOL0     O41988   7.650  10.469   8.644  0.5646  0.2679 -0.1585
  312MOL0     C41989   7.512  10.481   8.663 -0.9975  0.3839 -0.1981
  312MOL0     C41990   7.446  10.593   8.709 -0.6110  0.4165 -0.7970
  312MOL0     C41991   7.308  10.585   8.732  0.6750 -0.0321 -0.1081
  312MOL0     C41992   7.242  10.461   8.701  0.6707  0.7916  0.5044
  312MOL0     O41993   7.102  10.448   8.719 -0.2796 -0.2603 -0.1006
  312MOL0     C41994   7.046  10.502   8.836  0.7269  0.3368 -0.4483
  312MOL0     C41995   6.898  10.476   8.845 -0.1346  0.0722  1.1584
  312MOL0     C41996   6.820  10.561   8.947 -0.0621 -0.4221  0.8413
  312MOL0     C41997   6.684  10.485   8.938  0.8907 -0.5246  0.1878
  312MOL0     C41998   6.561  10.562   9.008 -0.8390  0.4511  0.3095
  312MOL0     C41999   6.548  10.707   8.946  0.3679 -0.0921 -0.5216
  312MOL0     C42000   6.423  10.769   9.009 -0.2393  0.4943  0.1486
  312MOL0     C42001   6.395  10.918   8.990 -0.8230  0.7450 -0.2137
  312MOL0     N42002   6.501  11.003   9.060  0.0303  0.4309  0.1405
  312MOL0     C42003   6.538  11.000   9.192 -0.4644 -0.3534 -1.0215
  312MOL0     C42004   6.627  11.102   9.210  0.2760  0.7240 -0.0898
  312MOL0     C42005   6.719  11.115   9.331 -0.1359 -0.5165  0.1853
  312MOL0     C42006   6.649  11.155   9.469 -0.0512  0.9099  0.3884
  312MOL0     C42007   6.610  11.295   9.463 -0.0106 -0.3443  0.3083
  312MOL0     C42008   6.531  11.330   9.576  0.3963  0.1478 -0.1134
  312MOL0     O42009   6.632  11.335   9.679  0.1206 -0.2246 -0.2877
  312MOL0     C42010   6.581  11.346   9.809  0.2727 -0.3973  0.1243
  312MOL0     C42011   6.444  11.371   9.848 -0.3017 -0.1036  0.0220
  312MOL0     C42012   6.410  11.394   9.983  0.5360 -0.7346 -0.5317
  312MOL0     C42013   6.265  11.402  10.020  0.3040 -0.2089 -0.2807
  312MOL0     C42014   6.502  11.407  10.083 -0.2799  0.5098  0.4506
  312MOL0     C42015   6.481  11.443  10.222  0.1834  0.4896 -0.0851
  312MOL0     O42016   6.562  11.379  10.311  0.3660  0.0441  0.8474
  312MOL0     C42017   6.572  11.422  10.439  0.2254 -0.2977  0.4245
  312MOL0     C42018   6.594  11.563  10.466 -0.9361 -0.0271  0.2511
  312MOL0     C42019   6.595  11.611  10.598 -0.1642  0.2579 -0.3941
  312MOL0     C42020   6.589  11.524  10.709  0.6575 -0.9121 -0.5675
  312MOL0     O42021   6.607  11.568  10.831  0.3395 -0.8518  0.8897
  312MOL0     C42022   6.505  11.538  10.922 -0.2308  0.3210  0.9262
  312MOL0     C42023   6.496  11.651  11.030 -0.4621  0.2466 -0.2063
  312MOL0     C42024   6.591  11.633  11.150  0.6259  0.5834 -0.1204
  312MOL0     C42025   6.589  11.749  11.250 -0.5075  1.0035 -0.2419
  312MOL0     C42026   6.685  11.712  11.370 -0.3192  0.3949  0.6701
  312MOL0     C42027   6.714  11.831  11.447 -0.2948 -0.0434  0.0906
  312MOL0     C42028   6.798  11.818  11.579  0.1093 -0.1090  0.0434
  312MOL0     C42029   6.812  11.936  11.678 -0.0560 -0.4090  0.1137
  312MOL0    Cl42030   6.924  11.880  11.814  0.2217  0.0151 -0.1214
  312MOL0     C42031   6.560  11.388  10.688  0.2362 -0.1236  1.0393
  312MOL0     C42032   6.553  11.339  10.550 -0.3368  0.8037 -0.8343
  312MOL0     O42033   6.397  11.530  10.249  0.9466 -0.0504 -0.0229
  312MOL0     C42034   6.639  11.389  10.046 -0.4637  0.2112  0.1012
  312MOL0     C42035   6.678  11.362   9.909  0.6554  0.0230  0.0768
  312MOL0     N42036   6.639  11.165   9.088 -0.0270 -0.6685 -0.1164
  312MOL0     N42037   6.568  11.108   9.001 -0.0549  0.3109  0.3403
  312MOL0     C42038   7.313  10.348   8.657  0.3832  0.6994  0.3260
  312MOL0     C42039   7.442  10.363   8.628  0.1809  0.0489 -0.8156
  312MOL0     C42040   7.865  10.551   8.593 -1.4998  1.1607 -0.7751
  312MOL0     C42041   7.922  10.435   8.644 -0.1955 -0.2821  0.1236
  312MOL0     C42042   8.059  10.417   8.638 -0.1610  0.0989 -0.4409
  312MOL0     C42043   8.152  10.501   8.574 -0.8819 -0.3485  0.4177
  312MOL0     O42044   8.284  10.474   8.546 -0.0165 -0.0279 -0.1260
  312MOL0     C42045   8.341  10.346   8.562 -0.7848  0.3727 -0.4535
  312MOL0     C42046   8.311  10.252   8.448  0.3520 -0.1806  0.5609
  312MOL0     C42047   8.423  10.149   8.411  0.4345 -0.2808  0.1257
  312MOL0     C42048   8.450  10.058   8.533  0.2433 -0.2750  1.0974
  312MOL0     C42049   8.560   9.972   8.509  0.1716 -0.1331 -1.4342
  312MOL0     C42050   8.662   9.910   8.510 -0.0673  0.2013 -0.2209
  312MOL0     C42051   8.092  10.610   8.515  0.7033 -0.8328 -0.6188
  312MOL0     C42052   7.951  10.640   8.519  0.0978  0.4426 -1.1145
  312MOL0     H42053   7.501  10.684   8.731  2.2848 -1.1629 -0.9455
  312MOL0     H42054   7.262  10.676   8.768  2.0295  0.6387  0.0116
  312MOL0     H42055   7.102  10.459   8.919  1.5770  2.2775  0.0546
  312MOL0     H42056   7.060  10.611   8.839  1.0149  0.3853 -2.4311
  312MOL0     H42057   6.861  10.494   8.744  1.1252 -0.5728  0.5628
  312MOL0     H42058   6.902  10.368   8.861  3.3656 -0.6725 -3.0226
  312MOL0     H42059   6.878  10.577   9.038  3.3809 -0.5874 -1.1637
  312MOL0     H42060   6.797  10.660   8.906  2.9781  1.6483  3.6553
  312MOL0     H42061   6.658  10.466   8.833  1.0873  1.7346 -0.3164
  312MOL0     H42062   6.700  10.391   8.993 -1.7008 -0.5553  1.0549
  312MOL0     H42063   6.471  10.504   8.988 -0.6155  0.7436 -1.8400
  312MOL0     H42064   6.584  10.576   9.114  0.7726  1.8268 -0.1613
  312MOL0     H42065   6.635  10.766   8.976  0.2438  0.8014 -1.8505
  312MOL0     H42066   6.552  10.702   8.837 -3.4945 -1.8828 -0.7595
  312MOL0     H42067   6.335  10.721   8.966 -1.3424  2.2163  0.4071
  312MOL0     H42068   6.441  10.747   9.115 -0.3904 -0.1715  0.0394
  312MOL0     H42069   6.297  10.931   9.039  0.4375  0.7103  2.5378
  312MOL0     H42070   6.397  10.939   8.883  2.7558 -1.2524 -0.7003
  312MOL0     H42071   6.493  10.940   9.270  0.5627  1.0248  0.7091
  312MOL0     H42072   6.781  11.028   9.355  1.2518  0.6629  1.0267
  312MOL0     H42073   6.795  11.190   9.310  0.9595 -0.0636  4.6905
  312MOL0     H42074   6.710  11.137   9.559 -3.8276  1.2420  3.2769
  312MOL0     H42075   6.558  11.094   9.477  1.8461 -2.2266 -0.0431
  312MOL0     H42076   6.554  11.320   9.372 -0.5284 -0.8057  0.4962
  312MOL0     H42077   6.694  11.364   9.471 -1.5513  1.5322  1.0394
  312MOL0     H42078   6.450  11.260   9.600 -1.3693  2.6249  1.8178
  312MOL0     H42079   6.481  11.427   9.564  0.7331  0.3646  0.2297
  312MOL0     H42080   6.368  11.369   9.771  0.0493  0.8979 -0.3655
  312MOL0     H42081   6.202  11.364   9.939  0.6168  2.4978 -1.8884
  312MOL0     H42082   6.235  11.356  10.115 -0.4658  0.1871 -0.3287
  312MOL0     H42083   6.241  11.508  10.018  1.6353  0.3346  3.5457
  312MOL0     H42084   6.594  11.636  10.386 -0.2700  1.1906  1.3109
  312MOL0     H42085   6.607  11.718  10.604  1.3745  0.1608 -1.2574
  312MOL0     H42086   6.413  11.515  10.869 -0.0857  1.9544 -0.1102
  312MOL0     H42087   6.543  11.445  10.966  2.1588  0.0119 -1.5116
  312MOL0     H42088   6.534  11.745  10.989  0.3960 -0.6521 -1.5421
  312MOL0     H42089   6.397  11.661  11.076 -0.0830  0.5403  0.5687
  312MOL0     H42090   6.695  11.630  11.117  0.6059 -1.0948 -0.1425
  312MOL0     H42091   6.572  11.537  11.200 -0.6160  1.3443  0.9515
  312MOL0     H42092   6.631  11.836  11.199 -1.4025  1.0295 -0.9417
  312MOL0     H42093   6.488  11.768  11.288 -1.4802 -0.9676 -1.6699
  312MOL0     H42094   6.780  11.684  11.323  0.1405  1.6132  0.8321
  312MOL0     H42095   6.648  11.632  11.435  1.4484 -0.5736  0.5564
  312MOL0     H42096   6.765  11.892  11.372  1.6864 -0.2873  1.1854
  312MOL0     H42097   6.620  11.881  11.469 -0.5160  0.7055 -2.2160
  312MOL0     H42098   6.895  11.777  11.548  0.8194 -0.0734  2.0638
  312MOL0     H42099   6.751  11.744  11.644  1.2136 -0.2690  0.6970
  312MOL0     H42100   6.715  11.966  11.718 -0.2930  0.3288 -0.9709
  312MOL0     H42101   6.851  12.024  11.625 -2.0590 -0.1752 -1.0776
  312MOL0     H42102   6.539  11.322  10.771 -0.7555  0.4715  1.2933
  312MOL0     H42103   6.542  11.233  10.530  1.7369  0.0533  1.4026
  312MOL0     H42104   6.715  11.410  10.120 -1.8367  1.5689  1.1819
  312MOL0     H42105   6.781  11.355   9.875  1.6393 -0.6021  2.9305
  312MOL0     H42106   7.281  10.245   8.646  1.8375  0.1855  0.5980
  312MOL0     H42107   7.491  10.278   8.582 -1.0676 -0.3197 -1.5095
  312MOL0     H42108   7.859  10.360   8.690 -1.9892  0.2730 -1.3129
  312MOL0     H42109   8.105  10.346   8.706  0.3502  0.5465 -0.3167
  312MOL0     H42110   8.448  10.366   8.554 -0.5489 -0.6513 -0.0458
  312MOL0     H42111   8.325  10.298   8.659  1.2451 -1.2951 -0.8727
  312MOL0     H42112   8.285  10.311   8.360  0.9659 -0.6819  0.0268
  312MOL0     H42113   8.222  10.196   8.478 -0.5193 -0.3419 -2.0360
  312MOL0     H42114   8.521  10.192   8.385  0.3268 -0.8575 -1.3303
  312MOL0     H42115   8.393  10.099   8.318 -0.2283  1.3170 -0.5656
  312MOL0     H42116   8.357  10.018   8.574 -1.8089  3.5471  0.6725
  312MOL0     H42117   8.486  10.135   8.602  0.4275  4.4072 -3.5578
  312MOL0     H42118   8.757   9.860   8.504  1.5361  2.7092  2.1954
  312MOL0     H42119   8.138  10.696   8.467 -3.9116  0.2407 -3.8330
  312MOL0     H42120   7.917  10.738   8.489 -0.6894  1.0163  1.4192
  313MOL0     O42121   7.572   2.417   8.740  0.2630 -0.1366  0.7738
  313MOL0     C42122   7.654   2.454   8.652 -0.9617 -0.2389  0.2454
  313MOL0     O42123   7.630   2.448   8.513  0.0064 -0.1509  0.1745
  313MOL0     C42124   7.501   2.425   8.468 -0.4167 -0.1821  0.6239
  313MOL0     C42125   7.483   2.308   8.400 -0.9829 -0.0597  0.6324
  313MOL0     C42126   7.354   2.273   8.356 -0.1510  0.1067 -0.1661
  313MOL0     C42127   7.243   2.350   8.388  0.2530 -0.4865  0.2971
  313MOL0     O42128   7.121   2.307   8.352 -0.1849 -0.2895 -0.2660
  313MOL0     C42129   7.011   2.333   8.448 -0.6070  0.1253  1.0465
  313MOL0     C42130   6.913   2.222   8.449  0.4849 -0.3288  0.7991
  313MOL0     C42131   6.796   2.259   8.547  0.3621  0.0042  0.3014
  313MOL0     C42132   6.681   2.337   8.483 -0.1535  0.2147  0.0420
  313MOL0     C42133   6.591   2.409   8.585  0.0719  0.0191 -0.9401
  313MOL0     C42134   6.478   2.496   8.517  0.7789  0.1254 -0.7116
  313MOL0     C42135   6.381   2.554   8.633  0.8358  0.2739  0.1410
  313MOL0     C42136   6.254   2.606   8.578  0.7004 -0.2656 -0.6383
  313MOL0     N42137   6.162   2.496   8.545 -0.1754 -0.2172 -0.4781
  313MOL0     C42138   6.085   2.432   8.635 -0.1508 -0.4232  0.5912
  313MOL0     C42139   6.004   2.344   8.569  0.0465 -0.9112  0.2278
  313MOL0     C42140   5.892   2.266   8.628  0.0359 -0.5976  0.1090
  313MOL0     C42141   5.779   2.358   8.687  0.6448  0.2175  0.0342
  313MOL0     C42142   5.711   2.458   8.582 -0.2517  0.4112 -0.6504
  313MOL0     C42143   5.737   2.606   8.612 -0.8247 -0.8336 -0.0461
  313MOL0     O42144   5.674   2.645   8.738 -0.5221 -0.2518  0.8828
  313MOL0     C42145   5.541   2.665   8.747  0.2410  0.2069  0.4755
  313MOL0     C42146   5.448   2.667   8.643 -0.1048  0.4359  0.4588
  313MOL0     C42147   5.316   2.692   8.660  0.8963 -0.2345 -0.4193
  313MOL0     C42148   5.230   2.668   8.543  0.4134  0.2308 -0.8949
  313MOL0     C42149   5.272   2.743   8.778  0.6560 -0.0532  0.1027
  313MOL0     C42150   5.131   2.786   8.799 -0.0332  0.1128  0.3817
  313MOL0     O42151   5.060   2.827   8.688  0.6587  0.8246 -0.3754
  313MOL0     C42152   4.922   2.836   8.694  0.0310  0.0197 -0.6085
  313MOL0     C42153   4.847   2.893   8.805  0.1466  0.2446 -0.2979
  313MOL0     C42154   4.705   2.905   8.790 -0.1091  0.0800 -0.2816
  313MOL0     C42155   4.647   2.867   8.672  0.0472  0.1974 -0.5457
  313MOL0     O42156   4.512   2.874   8.662 -0.0540 -0.0771 -0.3097
  313MOL0     C42157   4.453   2.822   8.540 -0.2553 -0.9810 -0.6385
  313MOL0     C42158   4.295   2.828   8.559 -0.2716 -0.1582  1.0009
  313MOL0     C42159   4.221   2.720   8.480  0.9212 -0.0444  0.4382
  313MOL0     C42160   4.085   2.703   8.532  0.3916 -0.1207  0.5619
  313MOL0     C42161   4.075   2.585   8.636 -0.7666 -0.0041 -0.0534
  313MOL0     C42162   3.930   2.545   8.657 -0.5058 -0.3319 -0.4624
  313MOL0     C42163   3.931   2.438   8.772  0.4293 -0.0042  0.6172
  313MOL0     C42164   3.779   2.392   8.801 -0.4631  0.6734  1.0176
  313MOL0    Cl42165   3.681   2.489   8.914 -0.5334  0.5210  0.4353
  313MOL0     C42166   4.719   2.821   8.563 -0.0203  0.4173 -0.0382
  313MOL0     C42167   4.858   2.802   8.577  0.4818 -0.1001  0.3996
  313MOL0     O42168   5.090   2.782   8.914  0.1610 -0.6969  0.4780
  313MOL0     C42169   5.363   2.754   8.891 -0.2709 -0.6782 -0.5930
  313MOL0     C42170   5.504   2.717   8.868  0.1687 -0.8448 -0.1107
  313MOL0     N42171   6.030   2.363   8.435  0.1670  0.0495 -0.3179
  313MOL0     N42172   6.113   2.469   8.423 -0.4651 -0.1396 -0.6386
  313MOL0     C42173   7.265   2.470   8.450  0.5641  0.6668 -0.6923
  313MOL0     C42174   7.388   2.505   8.494 -0.1210 -0.1001  0.0787
  313MOL0     C42175   7.788   2.516   8.692  0.2248 -0.6065 -0.7015
  313MOL0     C42176   7.855   2.603   8.603 -0.5745 -0.9117  0.0012
  313MOL0     C42177   7.959   2.686   8.644 -0.2192 -1.0852 -0.7672
  313MOL0     C42178   8.015   2.684   8.770  0.1919  0.9574 -0.0211
  313MOL0     O42179   8.107   2.763   8.818 -0.6920 -0.3501 -0.0202
  313MOL0     C42180   8.143   2.880   8.747 -0.0992  0.6815 -0.7010
  313MOL0     C42181   8.269   2.939   8.821  0.0581  0.6862  0.2432
  313MOL0     C42182   8.403   2.867   8.791  0.3927 -0.1530 -1.0130
  313MOL0     C42183   8.532   2.935   8.843  0.4290  0.0142 -0.5258
  313MOL0     C42184   8.544   3.057   8.768  0.0544  0.4680  0.5144
  313MOL0     C42185   8.544   3.148   8.697 -0.2347 -0.6893  0.5374
  313MOL0     C42186   7.941   2.613   8.869 -0.2438 -0.2250 -0.1086
  313MOL0     C42187   7.835   2.528   8.829 -0.0778 -1.6037  0.9036
  313MOL0     H42188   7.560   2.240   8.365  1.2896  2.2144  0.9278
  313MOL0     H42189   7.334   2.183   8.297  0.5561 -0.8805  1.0515
  313MOL0     H42190   7.051   2.340   8.550  3.8141 -0.4943 -0.4117
  313MOL0     H42191   6.968   2.431   8.426 -0.2373  0.6282  2.4487
  313MOL0     H42192   6.873   2.213   8.348  0.1745  0.6762  0.8225
  313MOL0     H42193   6.973   2.132   8.464  0.2269 -1.4144 -3.4192
  313MOL0     H42194   6.755   2.169   8.594  0.2999  0.4475  1.1146
  313MOL0     H42195   6.841   2.318   8.627  1.3000  1.8171 -1.4842
  313MOL0     H42196   6.729   2.415   8.423 -0.2758  0.5223  0.3396
  313MOL0     H42197   6.632   2.268   8.414  0.6020 -0.3334  0.0494
  313MOL0     H42198   6.552   2.330   8.650  1.1278 -0.0322 -0.3470
  313MOL0     H42199   6.660   2.468   8.646  0.3185  1.0566 -2.1875
  313MOL0     H42200   6.510   2.587   8.465 -2.9303  1.3586 -1.1786
  313MOL0     H42201   6.419   2.430   8.452  0.1964  0.0279 -0.0993
  313MOL0     H42202   6.353   2.472   8.700 -0.4361  0.2701 -0.3701
  313MOL0     H42203   6.428   2.625   8.702  1.4191  0.1049 -0.0765
  313MOL0     H42204   6.279   2.662   8.488  1.2480 -1.3065 -1.1468
  313MOL0     H42205   6.202   2.675   8.645 -0.0374 -0.0522 -1.4246
  313MOL0     H42206   6.082   2.450   8.742  1.1409 -0.6858  0.6868
  313MOL0     H42207   5.841   2.203   8.555  2.5388 -0.0591 -2.2574
  313MOL0     H42208   5.934   2.204   8.708  0.7041 -1.1141 -0.6358
  313MOL0     H42209   5.813   2.416   8.773 -3.3601  1.3195  1.0799
  313MOL0     H42210   5.697   2.294   8.719 -1.0746  1.6091 -1.3819
  313MOL0     H42211   5.602   2.448   8.590 -0.1895  0.9676  1.7249
  313MOL0     H42212   5.747   2.439   8.481 -2.4471 -0.9002 -1.2566
  313MOL0     H42213   5.716   2.674   8.528  3.4098  2.7082  1.3895
  313MOL0     H42214   5.846   2.614   8.616 -0.7155 -1.9093 -0.4670
  313MOL0     H42215   5.487   2.647   8.544 -0.1498  1.2447  0.2736
  313MOL0     H42216   5.280   2.612   8.464  1.6958  0.1747 -0.0720
  313MOL0     H42217   5.147   2.608   8.581  0.2239 -0.7894 -2.7943
  313MOL0     H42218   5.191   2.764   8.510 -0.4077  1.5315  3.3167
  313MOL0     H42219   4.899   2.904   8.899 -1.3196  0.5374  0.5046
  313MOL0     H42220   4.643   2.938   8.873 -0.3731  2.1713 -1.2353
  313MOL0     H42221   4.472   2.884   8.452 -3.6233  0.8395 -0.2444
  313MOL0     H42222   4.472   2.715   8.544 -0.4954 -1.0033 -0.0008
  313MOL0     H42223   4.270   2.815   8.665  1.0285  1.0086  1.4795
  313MOL0     H42224   4.263   2.931   8.544  1.3120  0.8194  3.6815
  313MOL0     H42225   4.268   2.621   8.487  1.3130  0.1973  1.3563
  313MOL0     H42226   4.219   2.744   8.373  1.5426 -1.1699  0.1580
  313MOL0     H42227   4.043   2.784   8.593 -0.0012 -2.1937  3.2548
  313MOL0     H42228   4.013   2.688   8.451  0.2722 -1.1611  0.8477
  313MOL0     H42229   4.140   2.609   8.721  4.1799 -0.2546 -3.3318
  313MOL0     H42230   4.132   2.497   8.606  4.4831  2.6985  0.7312
  313MOL0     H42231   3.872   2.635   8.681  0.3529  0.2469 -0.5183
  313MOL0     H42232   3.892   2.500   8.565 -0.4165 -2.2012  0.3751
  313MOL0     H42233   3.958   2.489   8.865  0.0299  0.3914  0.5210
  313MOL0     H42234   3.991   2.349   8.752  1.4455  0.5326  1.2225
  313MOL0     H42235   3.795   2.302   8.861 -0.7838  0.4528  0.7708
  313MOL0     H42236   3.730   2.363   8.708 -0.3601  0.0642  1.1491
  313MOL0     H42237   4.671   2.770   8.481 -0.5231 -2.1843  1.7373
  313MOL0     H42238   4.928   2.774   8.499  0.1802  1.0156 -0.2833
  313MOL0     H42239   5.331   2.788   8.989  0.5331 -1.0521 -0.1823
  313MOL0     H42240   5.576   2.721   8.950 -1.0504  0.7730  0.9165
  313MOL0     H42241   7.182   2.537   8.473 -0.6568 -1.9010  3.3757
  313MOL0     H42242   7.406   2.602   8.540 -1.5518 -0.0271  0.5199
  313MOL0     H42243   7.822   2.598   8.500  2.2028 -1.5718 -0.9491
  313MOL0     H42244   7.986   2.755   8.564 -1.1480 -1.2808 -1.2647
  313MOL0     H42245   8.167   2.852   8.643 -1.1572  0.3214 -0.8599
  313MOL0     H42246   8.064   2.955   8.735  1.0959  1.5873 -4.4718
  313MOL0     H42247   8.261   2.959   8.928  0.8936  3.4912 -0.1420
  313MOL0     H42248   8.278   3.044   8.791  3.6682  0.4859  0.2953
  313MOL0     H42249   8.411   2.818   8.693 -2.2351 -3.2506  0.1316
  313MOL0     H42250   8.397   2.775   8.850 -3.0602  0.3330 -0.4113
  313MOL0     H42251   8.619   2.869   8.830  0.6326 -0.0873  1.1092
  313MOL0     H42252   8.513   2.943   8.950 -2.1656 -2.4556 -0.6840
  313MOL0     H42253   8.550   3.240   8.642 -0.4958 -1.3148 -0.5621
  313MOL0     H42254   7.969   2.625   8.973 -1.2730 -0.3532  0.1908
  313MOL0     H42255   7.762   2.488   8.898  0.2651  0.4277  2.5641
  314MOL0     O42256   8.660   0.171   5.557  1.1765  0.4875  0.5793
  314MOL0     C42257   8.708   0.283   5.546 -1.0498  0.1212  1.2415
  314MOL0     O42258   8.645   0.394   5.504  0.1205  0.1184 -0.5777
  314MOL0     C42259   8.507   0.397   5.475 -0.2345 -0.5800  0.4472
  314MOL0     C42260   8.472   0.520   5.419  0.1279 -0.3451 -0.5273
  314MOL0     C42261   8.341   0.538   5.368  0.4466  0.7521  0.1936
  314MOL0     C42262   8.242   0.447   5.389  0.2949 -1.2339 -0.0784
  314MOL0     O42263   8.121   0.495   5.344  0.1590 -0.6363 -0.2224
  314MOL0     C42264   8.006   0.427   5.403 -0.6387  0.3480 -0.2201
  314MOL0     C42265   7.958   0.323   5.309  0.2418 -0.0943  0.5636
  314MOL0     C42266   7.858   0.236   5.380  0.1408  0.1452 -0.6092
  314MOL0     C42267   7.742   0.319   5.436 -0.2058  0.2338  0.1357
  314MOL0     C42268   7.629   0.227   5.462 -0.1051  0.4910  0.3285
  314MOL0     C42269   7.499   0.304   5.503 -0.0019 -0.4878  0.3286
  314MOL0     C42270   7.376   0.209   5.488 -0.0084  0.0316  0.3524
  314MOL0     C42271   7.390   0.076   5.565 -0.3735 -0.6290  1.0590
  314MOL0     N42272   7.256   0.018   5.593  0.8122 -0.0857  0.1017
  314MOL0     C42273   7.158   0.086   5.659  0.2064  0.1663  0.4193
  314MOL0     C42274   7.047   0.021   5.607  0.0139 -0.4517  0.8816
  314MOL0     C42275   6.914   0.034   5.670 -0.1073  0.5223  0.4520
  314MOL0     C42276   6.845  -0.104   5.688  0.6844  0.1273 -0.6429
  314MOL0     C42277   6.714  -0.073   5.762  0.5899 -0.5888 -0.3972
  314MOL0     C42278   6.625  -0.183   5.802  0.7269  0.1934 -0.3310
  314MOL0     O42279   6.498  -0.120   5.813  0.1464  0.3914 -0.2284
  314MOL0     C42280   6.389  -0.196   5.842  0.1215 -0.1953  0.4227
  314MOL0     C42281   6.271  -0.125   5.866  0.4324  0.2902 -0.4042
  314MOL0     C42282   6.151  -0.184   5.907 -0.1057 -1.3157 -0.4971
  314MOL0     C42283   6.032  -0.096   5.915 -0.3004 -0.7764 -0.4882
  314MOL0     C42284   6.151  -0.323   5.925 -0.7619 -0.3754 -0.7186
  314MOL0     C42285   6.032  -0.393   5.958  1.3406  0.4838 -0.1019
  314MOL0     O42286   6.026  -0.522   5.928 -0.1091  0.2040 -0.6680
  314MOL0     C42287   5.931  -0.599   5.998 -0.2873 -0.9782 -0.7428
  314MOL0     C42288   5.806  -0.600   5.945 -0.3818  0.1847  0.0332
  314MOL0     C42289   5.705  -0.672   6.009  0.4836 -0.0819  0.0157
  314MOL0     C42290   5.732  -0.741   6.128 -0.6789  0.4472  0.5243
  314MOL0     O42291   5.627  -0.802   6.197  0.2360 -0.2551 -0.0368
  314MOL0     C42292   5.559  -0.908   6.130 -0.6991 -0.1660 -0.2029
  314MOL0     C42293   5.642  -1.040   6.147  0.4958 -0.3269  0.3104
  314MOL0     C42294   5.692  -1.059   6.284 -1.1840 -0.3195  0.3254
  314MOL0     C42295   5.581  -1.057   6.394  0.6701 -0.1355 -0.0801
  314MOL0     C42296   5.621  -1.082   6.545  0.0900  0.2720  0.2965
  314MOL0     C42297   5.537  -1.019   6.657 -0.7890 -0.2724 -0.2337
  314MOL0     C42298   5.386  -1.010   6.637 -0.0863 -0.5745  0.7235
  314MOL0     C42299   5.319  -1.140   6.663 -0.9432 -0.6539  0.2120
  314MOL0    Cl42300   5.135  -1.141   6.637  0.0247 -0.4589  0.6536
  314MOL0     C42301   5.861  -0.730   6.187 -0.0927 -0.3276  0.4453
  314MOL0     C42302   5.966  -0.681   6.109 -0.8121  0.1825  0.1056
  314MOL0     O42303   5.958  -0.331   6.040 -0.1302  0.6056  0.0922
  314MOL0     C42304   6.263  -0.397   5.896 -0.5114 -0.3921 -0.4623
  314MOL0     C42305   6.383  -0.339   5.853  0.6740 -0.4409  0.7628
  314MOL0     N42306   7.085  -0.077   5.518 -0.4491  0.5059  0.7447
  314MOL0     N42307   7.210  -0.091   5.519  0.4209  0.0286  0.0041
  314MOL0     C42308   8.276   0.324   5.440  0.3777 -0.7258 -0.6899
  314MOL0     C42309   8.402   0.295   5.492  0.2546  0.2689  0.1790
  314MOL0     C42310   8.852   0.290   5.576  0.4404 -0.3852 -0.2135
  314MOL0     C42311   8.941   0.388   5.522  0.2702  0.3502  0.1190
  314MOL0     C42312   9.074   0.399   5.554  0.9917 -0.0761  0.0125
  314MOL0     C42313   9.131   0.312   5.652  0.3002  0.3236  0.9561
  314MOL0     O42314   9.265   0.313   5.682  0.8326 -0.1900 -0.3208
  314MOL0     C42315   9.366   0.354   5.588 -0.2331 -0.0501  0.3353
  314MOL0     C42316   9.465   0.247   5.588  0.0533  1.0466 -0.2119
  314MOL0     C42317   9.590   0.295   5.502  0.1955  0.2553  0.4677
  314MOL0     C42318   9.725   0.219   5.531 -0.3452 -0.2632  0.6756
  314MOL0     C42319   9.834   0.253   5.441  0.0531  0.2628 -0.4600
  314MOL0     C42320   9.927   0.256   5.362 -1.4441  0.5853 -0.4414
  314MOL0     C42321   9.050   0.209   5.693  0.2579 -0.4208  0.9242
  314MOL0     C42322   8.915   0.199   5.657 -0.6856  0.2644 -1.2955
  314MOL0     H42323   8.551   0.594   5.411  0.8456 -0.7220  2.1796
  314MOL0     H42324   8.316   0.627   5.311 -0.3408  0.1585 -0.4126
  314MOL0     H42325   8.033   0.387   5.501  2.1422  2.1096 -0.1388
  314MOL0     H42326   7.930   0.505   5.415 -0.6328  1.0380 -3.5203
  314MOL0     H42327   7.908   0.367   5.222 -0.7162 -2.1173  0.0243
  314MOL0     H42328   8.039   0.263   5.266 -0.5502 -0.3102 -0.6869
  314MOL0     H42329   7.812   0.161   5.315 -3.2655  1.8582 -0.3972
  314MOL0     H42330   7.914   0.183   5.458  0.5786  0.7061 -0.5306
  314MOL0     H42331   7.773   0.357   5.534 -1.6954 -3.6558  2.3470
  314MOL0     H42332   7.708   0.405   5.378 -0.0445 -0.1085 -0.4835
  314MOL0     H42333   7.602   0.170   5.372  1.4526 -0.7522  0.5845
  314MOL0     H42334   7.663   0.151   5.533  0.5127  2.1986  1.9320
  314MOL0     H42335   7.504   0.336   5.607 -1.4723  1.4061 -0.1215
  314MOL0     H42336   7.481   0.395   5.445 -1.2173 -1.5688 -1.0769
  314MOL0     H42337   7.282   0.249   5.527 -1.6951 -0.6783 -2.6347
  314MOL0     H42338   7.364   0.184   5.382 -1.6770  0.8077  0.3333
  314MOL0     H42339   7.451   0.093   5.654  1.6103  0.6208 -0.4506
  314MOL0     H42340   7.465   0.024   5.505  3.8262  2.3080  3.2620
  314MOL0     H42341   7.165   0.164   5.734  0.6745 -0.4488  1.0316
  314MOL0     H42342   6.928   0.074   5.771 -0.2005  2.5868 -0.3046
  314MOL0     H42343   6.850   0.114   5.631  1.4052  3.3018  3.2118
  314MOL0     H42344   6.911  -0.171   5.744 -0.5691 -1.0453 -0.5078
  314MOL0     H42345   6.823  -0.158   5.595  0.7474 -1.8101  0.4086
  314MOL0     H42346   6.657  -0.020   5.685  0.0261 -2.1770 -1.1137
  314MOL0     H42347   6.730  -0.010   5.850  0.4696  1.3487 -1.6950
  314MOL0     H42348   6.664  -0.226   5.895  1.6148  0.2530 -0.6669
  314MOL0     H42349   6.617  -0.260   5.724 -2.2097  0.4934 -0.4459
  314MOL0     H42350   6.267  -0.017   5.858  0.6949  0.3607  0.2985
  314MOL0     H42351   5.957  -0.121   5.839  1.0867 -1.5454 -1.6492
  314MOL0     H42352   5.998  -0.091   6.019 -1.7383  1.0504 -0.9735
  314MOL0     H42353   6.051   0.011   5.899 -0.1168 -0.6287  0.6474
  314MOL0     H42354   5.790  -0.553   5.848  0.4904 -2.5548 -1.5548
  314MOL0     H42355   5.607  -0.674   5.962  1.2401  0.6141 -1.7015
  314MOL0     H42356   5.462  -0.932   6.176  0.3462 -2.7751  0.8397
  314MOL0     H42357   5.539  -0.880   6.027 -0.5444  3.3309  0.6118
  314MOL0     H42358   5.576  -1.122   6.117  1.2583 -1.0378  0.5438
  314MOL0     H42359   5.732  -1.032   6.084  2.0667 -1.6412  2.2694
  314MOL0     H42360   5.758  -0.974   6.301  0.3634 -1.7102  1.5911
  314MOL0     H42361   5.753  -1.149   6.280 -1.2819 -0.3413 -1.4893
  314MOL0     H42362   5.523  -0.964   6.391  1.2461  0.3673  2.2116
  314MOL0     H42363   5.519  -1.140   6.360  0.9229 -0.3100 -0.1184
  314MOL0     H42364   5.725  -1.052   6.559  0.2072 -0.3600  0.7837
  314MOL0     H42365   5.622  -1.191   6.554  1.6449 -0.0569 -2.5944
  314MOL0     H42366   5.568  -1.060   6.753 -0.6106 -3.8115 -1.6591
  314MOL0     H42367   5.566  -0.913   6.645 -0.1599 -0.3207  0.7746
  314MOL0     H42368   5.356  -0.990   6.534 -1.1264 -1.0172  0.9333
  314MOL0     H42369   5.348  -0.932   6.704  1.8910  0.1849  1.0378
  314MOL0     H42370   5.341  -1.163   6.768  0.5934  3.4275  0.9652
  314MOL0     H42371   5.371  -1.218   6.605 -1.1848 -1.3553  0.9128
  314MOL0     H42372   5.872  -0.769   6.288  2.0870  2.2978  1.3263
  314MOL0     H42373   6.069  -0.683   6.141 -0.2148 -1.0456 -1.7291
  314MOL0     H42374   6.260  -0.505   5.886  1.2509 -0.3802 -1.8934
  314MOL0     H42375   6.475  -0.394   5.837  0.6497 -0.5020  0.8300
  314MOL0     H42376   8.214   0.234   5.440  0.4755 -1.3775  6.2378
  314MOL0     H42377   8.409   0.195   5.531 -1.4410  0.1977  0.3884
  314MOL0     H42378   8.895   0.457   5.453 -1.9005  2.1716  3.1202
  314MOL0     H42379   9.137   0.478   5.513  2.1350  0.0097  1.7971
  314MOL0     H42380   9.324   0.357   5.488 -0.6202 -2.2131  0.3757
  314MOL0     H42381   9.402   0.451   5.623 -0.8126  0.3031 -0.0478
  314MOL0     H42382   9.430   0.152   5.548  2.0654 -0.2931  1.0515
  314MOL0     H42383   9.491   0.224   5.692 -1.2860 -4.7438 -0.8266
  314MOL0     H42384   9.605   0.403   5.515 -1.4607  0.4681  0.7785
  314MOL0     H42385   9.566   0.295   5.395 -2.9673  1.7271  1.0697
  314MOL0     H42386   9.709   0.112   5.519 -1.2325 -0.0355 -0.4693
  314MOL0     H42387   9.759   0.248   5.630 -0.7127  2.0091  0.1981
  314MOL0     H42388  10.012   0.238   5.300  0.2645  0.0492  1.8843
  314MOL0     H42389   9.101   0.140   5.759  3.8036 -1.5193 -2.6255
  314MOL0     H42390   8.862   0.115   5.700  0.3856  0.9311  1.5468
  315MOL0     O42391   3.664  10.108   7.330  0.6389 -0.3065 -0.0341
  315MOL0     C42392   3.776  10.135   7.284 -0.0748 -0.0088 -0.4254
  315MOL0     O42393   3.794  10.195   7.162  0.1326  0.2024 -0.4260
  315MOL0     C42394   3.693  10.232   7.085 -0.1214 -0.4948  1.2565
  315MOL0     C42395   3.558  10.253   7.113  0.3302 -0.7545 -0.1258
  315MOL0     C42396   3.467  10.311   7.024  0.2662  0.3217 -0.7064
  315MOL0     C42397   3.511  10.357   6.902  0.7502 -0.2311  0.1489
  315MOL0     O42398   3.409  10.399   6.825 -0.0671  0.3124 -0.0271
  315MOL0     C42399   3.452  10.499   6.727 -0.4657 -0.0646  1.1822
  315MOL0     C42400   3.439  10.453   6.581 -0.2231 -0.3319 -0.3423
  315MOL0     C42401   3.298  10.411   6.561  0.7491  0.7156  0.1924
  315MOL0     C42402   3.272  10.403   6.410 -0.1077  0.3660  0.3259
  315MOL0     C42403   3.128  10.354   6.367  0.6279  0.2347  0.0772
  315MOL0     C42404   3.113  10.200   6.409 -0.0504  0.1559  0.1672
  315MOL0     C42405   2.965  10.141   6.397  0.0039  0.2245 -0.1317
  315MOL0     C42406   2.969   9.989   6.433 -0.6086  0.6415 -0.8984
  315MOL0     N42407   2.832   9.941   6.442  0.2492  0.5201 -0.3768
  315MOL0     C42408   2.747   9.921   6.333  0.2165  0.7195  0.2325
  315MOL0     C42409   2.625   9.901   6.396  1.1703 -0.1274 -0.2996
  315MOL0     C42410   2.504   9.868   6.310  0.1151 -0.9158  0.8097
  315MOL0     C42411   2.392   9.819   6.391 -0.9070  0.0108  0.3171
  315MOL0     C42412   2.285   9.760   6.311  0.9636  0.3390 -0.2314
  315MOL0     C42413   2.204   9.857   6.214 -0.4059 -0.2068 -0.1778
  315MOL0     O42414   2.286   9.898   6.101  0.0715  0.0897 -0.3286
  315MOL0     C42415   2.210   9.934   5.990  1.9397  1.2398  0.2312
  315MOL0     C42416   2.084   9.992   5.996 -0.5818  0.3327  0.0157
  315MOL0     C42417   2.022  10.007   5.872  0.0466  0.1943 -1.0491
  315MOL0     C42418   1.885  10.070   5.889 -0.5224  0.6240 -0.5513
  315MOL0     C42419   2.085   9.986   5.749 -0.1517 -0.3474  0.5407
  315MOL0     C42420   2.028  10.017   5.619 -0.8603  0.8272 -0.1979
  315MOL0     O42421   2.101   9.968   5.508 -0.3294 -0.3287  0.2782
  315MOL0     C42422   2.042   9.923   5.397 -0.6702  0.4301 -0.4371
  315MOL0     C42423   2.121   9.904   5.286  0.4121 -0.3568 -0.2121
  315MOL0     C42424   2.078   9.845   5.163 -0.0019  1.2839  0.4942
  315MOL0     C42425   1.944   9.787   5.167  0.0867 -0.2626 -0.5635
  315MOL0     O42426   1.906   9.718   5.064  0.8633  0.2183 -0.5429
  315MOL0     C42427   1.760   9.693   5.039  0.3566 -0.6094 -0.2761
  315MOL0     C42428   1.733   9.630   4.911 -0.1152 -0.4644  0.4189
  315MOL0     C42429   1.587   9.582   4.893  0.2992  1.2743  0.8653
  315MOL0     C42430   1.564   9.439   4.922  0.4067  0.4037 -0.7969
  315MOL0     C42431   1.419   9.386   4.941  0.6681 -0.0755  0.2063
  315MOL0     C42432   1.345   9.343   4.811  0.0587  0.2238 -0.2003
  315MOL0     C42433   1.296   9.457   4.727 -0.2475 -0.1748  1.1781
  315MOL0     C42434   1.213   9.407   4.605  0.0218 -0.4665  0.8097
  315MOL0    Cl42435   1.143   9.544   4.505 -0.7733  0.1048 -0.1983
  315MOL0     C42436   1.867   9.807   5.270 -0.4219 -0.0839 -0.9744
  315MOL0     C42437   1.906   9.883   5.386  0.2515  0.3868 -0.2361
  315MOL0     O42438   1.912  10.069   5.614  0.1845 -0.5623 -0.3945
  315MOL0     C42439   2.209   9.919   5.747 -0.5541 -0.5626  0.2768
  315MOL0     C42440   2.262   9.896   5.870 -0.4232  0.5496 -0.2919
  315MOL0     N42441   2.636   9.905   6.532 -0.1586  0.8900 -0.4535
  315MOL0     N42442   2.754   9.927   6.551 -0.5274 -0.0359  0.2238
  315MOL0     C42443   3.640  10.327   6.862  0.1117  0.6716 -0.0472
  315MOL0     C42444   3.728  10.263   6.953 -0.1662  0.8515 -0.2600
  315MOL0     C42445   3.895  10.080   7.351 -1.0068 -0.2303 -0.0431
  315MOL0     C42446   3.885  10.013   7.470  0.3222  0.4212  0.2039
  315MOL0     C42447   3.994   9.960   7.535  0.2728  0.1180 -0.5609
  315MOL0     C42448   4.125   9.980   7.490  0.1807 -0.2927 -1.2002
  315MOL0     O42449   4.226   9.927   7.569 -0.7263 -0.3207  0.3676
  315MOL0     C42450   4.351   9.993   7.547  0.7024  0.0419  0.3359
  315MOL0     C42451   4.453   9.978   7.659 -0.1237 -0.9194  0.1281
  315MOL0     C42452   4.395   9.979   7.798 -1.1246 -0.4757 -0.7496
  315MOL0     C42453   4.506   9.954   7.902  0.5424  0.1974 -1.5565
  315MOL0     C42454   4.438   9.957   8.036 -0.5228 -0.2497 -0.1065
  315MOL0     C42455   4.385   9.976   8.148 -0.7431  0.4673 -0.2906
  315MOL0     C42456   4.136  10.035   7.358  0.6743 -0.1572  0.5093
  315MOL0     C42457   4.021  10.092   7.297 -0.3744 -0.6570  0.4974
  315MOL0     H42458   3.517  10.218   7.207  3.2171 -2.2436  0.6912
  315MOL0     H42459   3.360  10.318   7.043 -0.0551 -2.4413 -1.1785
  315MOL0     H42460   3.388  10.587   6.732 -3.8908 -2.2997  0.5509
  315MOL0     H42461   3.552  10.539   6.749  0.0652 -1.5581  1.6591
  315MOL0     H42462   3.452  10.541   6.517  1.6674  0.4241  0.9778
  315MOL0     H42463   3.511  10.375   6.556 -1.6034 -1.8030  0.1054
  315MOL0     H42464   3.268  10.314   6.602 -1.0932  0.2957 -1.9426
  315MOL0     H42465   3.226  10.483   6.602  1.2218 -0.0357  2.5053
  315MOL0     H42466   3.282  10.497   6.355  1.6640 -0.6762 -1.2395
  315MOL0     H42467   3.344  10.335   6.363 -1.5070  0.3849 -1.9774
  315MOL0     H42468   3.047  10.407   6.417  1.1899  0.5933  0.6203
  315MOL0     H42469   3.112  10.362   6.259 -0.0993 -2.7747 -0.1370
  315MOL0     H42470   3.185  10.140   6.351 -2.0599 -1.9887 -0.2690
  315MOL0     H42471   3.137  10.177   6.513  2.9651 -0.2850 -0.5461
  315MOL0     H42472   2.892  10.202   6.451 -0.4345  3.2916 -3.6889
  315MOL0     H42473   2.931  10.158   6.294  2.6532  3.9405 -0.6154
  315MOL0     H42474   3.009   9.965   6.531 -0.3056 -4.4021 -2.0019
  315MOL0     H42475   3.034   9.937   6.362  1.2419  0.4950  0.8425
  315MOL0     H42476   2.785   9.928   6.232 -0.5231 -0.6512 -0.1590
  315MOL0     H42477   2.471   9.958   6.258  0.4218  0.2529  2.5404
  315MOL0     H42478   2.530   9.802   6.227 -0.2027  1.1344 -1.0315
  315MOL0     H42479   2.351   9.897   6.456  0.5030 -0.8425  2.3279
  315MOL0     H42480   2.437   9.745   6.457  1.8805  1.3136  0.0401
  315MOL0     H42481   2.208   9.719   6.377  1.5258 -3.0504 -1.4855
  315MOL0     H42482   2.322   9.684   6.242  0.5196 -0.0901 -0.0054
  315MOL0     H42483   2.167   9.947   6.265 -0.4467  1.5811 -3.1285
  315MOL0     H42484   2.120   9.801   6.170  2.2235 -2.0337 -3.3224
  315MOL0     H42485   2.032  10.009   6.090  0.0516 -0.2514  0.4889
  315MOL0     H42486   1.864  10.097   5.993 -2.5608  0.6052 -0.9022
  315MOL0     H42487   1.884  10.163   5.832 -0.9396 -0.8325 -3.0710
  315MOL0     H42488   1.811   9.997   5.855 -0.6440 -0.4348  1.7353
  315MOL0     H42489   2.218   9.951   5.276 -0.9696  2.8490  0.2988
  315MOL0     H42490   2.146   9.822   5.081 -1.0152  0.1069 -0.0467
  315MOL0     H42491   1.729   9.608   5.100  1.2285 -2.0830 -1.8212
  315MOL0     H42492   1.697   9.783   5.043 -0.1054 -0.9316 -0.2517
  315MOL0     H42493   1.755   9.693   4.825 -0.7820  0.7860  1.1363
  315MOL0     H42494   1.803   9.545   4.912  1.5412  0.8417 -0.2097
  315MOL0     H42495   1.570   9.592   4.785  2.2632  0.1369  0.4025
  315MOL0     H42496   1.523   9.653   4.946 -0.5154  1.1838  0.0255
  315MOL0     H42497   1.610   9.392   4.835  1.3597 -2.0510  0.9467
  315MOL0     H42498   1.620   9.410   5.011 -2.6444 -3.1699  0.2441
  315MOL0     H42499   1.369   9.477   4.978  3.8408  1.7104  0.4476
  315MOL0     H42500   1.413   9.311   5.020  2.6684 -0.8417 -0.3148
  315MOL0     H42501   1.414   9.276   4.759  0.7085  1.1861 -0.6152
  315MOL0     H42502   1.264   9.276   4.842 -1.2225  0.8363 -2.0518
  315MOL0     H42503   1.385   9.505   4.685 -0.8012  1.1529  1.4675
  315MOL0     H42504   1.234   9.530   4.780 -2.1819 -2.4921  2.3071
  315MOL0     H42505   1.121   9.363   4.644 -1.9641 -0.9544 -3.7980
  315MOL0     H42506   1.281   9.349   4.542 -0.7661  0.5392 -1.0429
  315MOL0     H42507   1.767   9.766   5.277 -1.1392  1.7240  0.5700
  315MOL0     H42508   1.837   9.900   5.467  2.3965 -0.1843  1.8294
  315MOL0     H42509   2.270   9.902   5.659 -0.7784  2.7346 -0.6249
  315MOL0     H42510   2.357   9.845   5.885 -0.7734 -0.0772 -0.1863
  315MOL0     H42511   3.660  10.350   6.758 -4.0375 -1.1153 -1.4862
  315MOL0     H42512   3.832  10.248   6.928 -0.7504  0.5022 -2.7250
  315MOL0     H42513   3.784   9.993   7.505  1.0375 -1.5107  1.2718
  315MOL0     H42514   3.986   9.917   7.634 -3.2349  0.2043 -0.6795
  315MOL0     H42515   4.396   9.965   7.451  0.4319 -5.8209  1.5593
  315MOL0     H42516   4.321  10.097   7.561 -1.9051 -0.6650  0.5784
  315MOL0     H42517   4.529  10.056   7.658 -2.8323  1.9152  1.0370
  315MOL0     H42518   4.497   9.879   7.642 -0.3728 -1.3380  1.7865
  315MOL0     H42519   4.321   9.899   7.793 -0.0999 -1.4523 -0.6357
  315MOL0     H42520   4.338  10.070   7.821 -0.6758 -0.0380 -1.3317
  315MOL0     H42521   4.575  10.039   7.908 -0.6368  1.0967  2.2156
  315MOL0     H42522   4.555   9.862   7.868  3.9356  0.7493  1.2641
  315MOL0     H42523   4.342   9.973   8.246  2.0289  2.9629  1.1906
  315MOL0     H42524   4.235  10.055   7.319  1.1834 -0.8557  1.3914
  315MOL0     H42525   4.022  10.146   7.203  2.9799 -2.0120 -0.3935
  316MOL0     O42526   3.105  10.692   4.888 -0.3388 -0.0103  0.2897
  316MOL0     C42527   3.162  10.588   4.911 -0.7205  0.3748 -0.5168
  316MOL0     O42528   3.108  10.478   4.973  0.0779 -0.0768 -0.5782
  316MOL0     C42529   2.967  10.480   4.982 -0.1523  0.0549  1.1375
  316MOL0     C42530   2.893  10.568   5.063  0.3312 -0.4603  0.2278
  316MOL0     C42531   2.754  10.549   5.080 -0.0580  0.2605 -0.3743
  316MOL0     C42532   2.688  10.465   4.998  0.3321  0.6249  0.3092
  316MOL0     O42533   2.553  10.477   4.981 -0.4388  0.0983 -0.3130
  316MOL0     C42534   2.490  10.599   5.009  0.9080  0.9321 -0.8699
  316MOL0     C42535   2.350  10.604   4.957  0.0556 -0.5000 -0.1068
  316MOL0     C42536   2.353  10.607   4.795  0.0212  0.2566 -0.4797
  316MOL0     C42537   2.214  10.633   4.740  0.2232  0.0430 -0.2354
  316MOL0     C42538   2.184  10.509   4.668  0.3495 -0.9483  0.7928
  316MOL0     C42539   2.055  10.536   4.585  0.2750  0.9074 -0.8894
  316MOL0     C42540   2.023  10.430   4.464  0.1643 -0.6088 -0.0019
  316MOL0     C42541   1.982  10.303   4.535 -0.2904 -0.2079  0.5770
  316MOL0     N42542   1.926  10.201   4.439 -0.5410  0.3119  0.3481
  316MOL0     C42543   2.004  10.153   4.330 -0.4932 -0.4089 -0.7432
  316MOL0     C42544   1.917  10.089   4.251 -0.0207 -0.6325 -0.0227
  316MOL0     C42545   1.941  10.016   4.124  0.3350 -1.3493  0.0333
  316MOL0     C42546   2.061   9.924   4.122  0.0461 -0.2936  0.4632
  316MOL0     C42547   2.092   9.859   3.983  0.1834 -0.2704 -1.1696
  316MOL0     C42548   1.984   9.778   3.907  1.0464 -0.2977  0.6822
  316MOL0     O42549   1.932   9.686   3.997 -0.5897  0.5716  0.0669
  316MOL0     C42550   1.838   9.595   3.959 -0.8250 -0.5982 -0.4572
  316MOL0     C42551   1.796   9.499   4.053 -0.6743 -0.6298  0.2861
  316MOL0     C42552   1.675   9.420   4.041  0.8019  0.1762  0.4710
  316MOL0     C42553   1.626   9.331   4.154 -0.4497 -1.1014  0.3031
  316MOL0     C42554   1.595   9.433   3.927  0.1116 -0.7590  0.8790
  316MOL0     C42555   1.470   9.362   3.899  0.5497 -1.0159  0.3858
  316MOL0     O42556   1.395   9.405   3.795  0.9667 -0.1544 -0.5049
  316MOL0     C42557   1.294   9.320   3.755  0.2946  0.4406 -0.0449
  316MOL0     C42558   1.176   9.315   3.818 -0.5076  0.6838 -0.6092
  316MOL0     C42559   1.067   9.254   3.763  0.1876 -0.2153  1.1790
  316MOL0     C42560   1.074   9.194   3.638  1.0036  0.0554  1.1217
  316MOL0     O42561   0.961   9.143   3.587  0.5056  0.3213  0.6108
  316MOL0     C42562   0.947   9.129   3.444 -0.4611 -0.8240  0.4962
  316MOL0     C42563   0.916   9.264   3.377 -0.1258  0.0238 -0.4527
  316MOL0     C42564   0.791   9.334   3.425 -0.5781  0.1840 -0.0180
  316MOL0     C42565   0.656   9.256   3.431 -0.6122  0.5844  0.0394
  316MOL0     C42566   0.553   9.352   3.378 -0.0882 -0.6362 -0.7256
  316MOL0     C42567   0.418   9.297   3.390  0.2144  0.1065  0.2923
  316MOL0     C42568   0.303   9.394   3.343  0.2570  0.4086  0.1954
  316MOL0     C42569   0.287   9.421   3.193  0.4698  0.4910  0.1676
  316MOL0    Cl42570   0.305   9.273   3.080 -0.1264 -0.0952  0.3697
  316MOL0     C42571   1.196   9.185   3.579  0.3634  0.8143  0.1482
  316MOL0     C42572   1.311   9.249   3.640 -0.2342  0.7617  0.8154
  316MOL0     O42573   1.439   9.263   3.964 -0.1639  0.4078 -0.4073
  316MOL0     C42574   1.652   9.520   3.828 -0.5680 -0.3405  0.0762
  316MOL0     C42575   1.762   9.605   3.844  0.1606 -0.2012  0.0269
  316MOL0     N42576   1.789  10.095   4.317  0.4767 -0.1960 -0.0041
  316MOL0     N42577   1.795  10.175   4.422 -0.5194 -0.2884 -0.1047
  316MOL0     C42578   2.757  10.376   4.920 -0.9610 -0.3046 -0.1191
  316MOL0     C42579   2.895  10.384   4.903  0.2543 -0.0443  0.2351
  316MOL0     C42580   3.314  10.584   4.916  0.7836 -0.1270  0.8702
  316MOL0     C42581   3.387  10.486   4.973  0.5689  0.3125 -0.7294
  316MOL0     C42582   3.528  10.477   4.960 -0.1551  0.1027  0.2617
  316MOL0     C42583   3.603  10.590   4.914  0.1896  0.2974 -0.1628
  316MOL0     O42584   3.741  10.575   4.893  0.3330  0.6893  0.4451
  316MOL0     C42585   3.808  10.457   4.938  0.1106 -0.1160  0.1325
  316MOL0     C42586   3.955  10.481   4.916 -0.8574  0.5678  0.1122
  316MOL0     C42587   4.039  10.358   4.952 -0.0248 -0.3023  0.9258
  316MOL0     C42588   4.041  10.243   4.841 -0.2772 -0.3351 -0.3552
  316MOL0     C42589   4.074  10.123   4.918  0.4363 -1.0544  1.2813
  316MOL0     C42590   4.115  10.017   4.954 -0.4680  0.4158  0.4581
  316MOL0     C42591   3.527  10.696   4.865 -0.2531 -0.2822  0.5745
  316MOL0     C42592   3.390  10.694   4.860  0.1498  0.4475  0.4876
  316MOL0     H42593   2.935  10.646   5.125  1.0818 -1.2108  0.6811
  316MOL0     H42594   2.699  10.608   5.152 -1.6773 -3.1783  1.4327
  316MOL0     H42595   2.484  10.609   5.118 -1.8389 -1.7203 -0.6306
  316MOL0     H42596   2.542  10.685   4.967  0.5964  1.0265 -1.0692
  316MOL0     H42597   2.294  10.517   4.991  0.2039  0.0240  1.5474
  316MOL0     H42598   2.309  10.694   5.003  1.6139  0.3428 -0.2884
  316MOL0     H42599   2.405  10.699   4.768 -3.1298  1.3019 -3.5171
  316MOL0     H42600   2.418  10.529   4.754  2.0659  1.5505  0.1057
  316MOL0     H42601   2.143  10.651   4.822  0.0208 -0.7477 -0.2284
  316MOL0     H42602   2.204  10.724   4.681 -3.6066  0.5450  0.9518
  316MOL0     H42603   2.263  10.479   4.599  1.2705  2.7401  0.0274
  316MOL0     H42604   2.174  10.425   4.737  1.7274 -2.3737 -0.6544
  316MOL0     H42605   1.971  10.530   4.656  2.4196 -0.0099  1.7564
  316MOL0     H42606   2.051  10.635   4.539 -0.0816  1.0280 -0.6061
  316MOL0     H42607   1.939  10.474   4.409  1.4578  0.4353 -1.2192
  316MOL0     H42608   2.111  10.431   4.399 -1.8252 -2.1851 -2.9776
  316MOL0     H42609   1.899  10.325   4.603 -3.4591  0.3850 -3.1344
  316MOL0     H42610   2.071  10.261   4.584  0.9784  0.4773 -1.0229
  316MOL0     H42611   2.110  10.169   4.319 -0.5317  1.1870  0.7447
  316MOL0     H42612   1.849   9.964   4.094 -1.5649  1.9777 -0.3621
  316MOL0     H42613   1.943  10.094   4.048  0.5975 -0.8376  0.5600
  316MOL0     H42614   2.036   9.844   4.192 -3.8458  0.7447  0.5070
  316MOL0     H42615   2.150   9.976   4.160 -1.8026  0.6235  3.9279
  316MOL0     H42616   2.165   9.780   4.001  0.1953  0.2129  1.1987
  316MOL0     H42617   2.134   9.929   3.910  2.1951  1.2092  1.2478
  316MOL0     H42618   2.032   9.725   3.825 -3.4065 -3.0382 -0.5019
  316MOL0     H42619   1.915   9.851   3.862  3.2629  1.5892  0.1799
  316MOL0     H42620   1.860   9.510   4.140  3.1973 -0.3560 -2.3202
  316MOL0     H42621   1.628   9.227   4.123  2.2134 -1.6572  2.0166
  316MOL0     H42622   1.693   9.329   4.240  0.3915 -1.4823 -0.3417
  316MOL0     H42623   1.529   9.361   4.194 -0.5582  0.2562 -0.8698
  316MOL0     H42624   1.155   9.349   3.919 -1.4081 -1.6604  0.0554
  316MOL0     H42625   0.968   9.264   3.808  0.9781  1.3025  2.6853
  316MOL0     H42626   1.035   9.075   3.409 -0.4709 -0.7009  0.2830
  316MOL0     H42627   0.857   9.068   3.430  0.3014 -2.9766  3.8448
  316MOL0     H42628   1.001   9.329   3.402  0.3780 -1.4397  2.0542
  316MOL0     H42629   0.905   9.246   3.270 -4.8226 -0.4250 -0.1037
  316MOL0     H42630   0.772   9.416   3.356 -4.9374 -2.7345 -2.7935
  316MOL0     H42631   0.809   9.383   3.521 -0.7531 -0.1730  0.1989
  316MOL0     H42632   0.654   9.169   3.365 -2.2870  0.3512  0.3309
  316MOL0     H42633   0.634   9.228   3.534  0.5054 -1.9360 -0.3498
  316MOL0     H42634   0.580   9.366   3.273 -2.3040 -1.7419 -1.5133
  316MOL0     H42635   0.565   9.444   3.436  0.0528 -0.5589 -0.8773
  316MOL0     H42636   0.413   9.208   3.326  2.7521 -1.0240  1.5536
  316MOL0     H42637   0.393   9.247   3.484 -2.4481 -0.5075 -0.6522
  316MOL0     H42638   0.322   9.488   3.397 -2.1956  0.8901  0.3407
  316MOL0     H42639   0.205   9.353   3.368  0.0309 -0.2329 -1.6116
  316MOL0     H42640   0.368   9.491   3.172  0.6829  0.0558 -0.5023
  316MOL0     H42641   0.192   9.474   3.179  0.2069  1.2035  3.8012
  316MOL0     H42642   1.218   9.131   3.487  0.6960  0.6735  0.3086
  316MOL0     H42643   1.409   9.240   3.594 -0.8967  1.5679 -0.8376
  316MOL0     H42644   1.593   9.540   3.739  1.5148 -1.5741 -1.7061
  316MOL0     H42645   1.793   9.671   3.764 -1.3164 -0.7181 -1.0184
  316MOL0     H42646   2.701  10.305   4.860 -0.5350  0.3392 -1.3056
  316MOL0     H42647   2.951  10.319   4.836  0.4930  0.6650 -0.2673
  316MOL0     H42648   3.338  10.403   5.023 -0.9873  0.7856 -1.4112
  316MOL0     H42649   3.569  10.381   4.988 -0.9925 -0.3099  0.0975
  316MOL0     H42650   3.796  10.454   5.047  0.4303 -1.8165  0.1534
  316MOL0     H42651   3.772  10.363   4.895 -1.0754  0.4676 -0.2053
  316MOL0     H42652   3.983  10.563   4.982 -3.8932  0.2985  1.9427
  316MOL0     H42653   3.975  10.509   4.812  1.5643 -1.9663 -0.2087
  316MOL0     H42654   4.004  10.316   5.046 -1.6099 -1.8398 -0.2848
  316MOL0     H42655   4.146  10.381   4.955  0.3510 -1.3726 -1.6341
  316MOL0     H42656   4.109  10.256   4.757  0.1035  1.5594  0.2019
  316MOL0     H42657   3.939  10.228   4.805 -0.9703  1.5620  0.6828
  316MOL0     H42658   4.146   9.917   4.978  0.4114  1.0070  1.9046
  316MOL0     H42659   3.578  10.783   4.825 -1.0655  0.6580  1.5289
  316MOL0     H42660   3.344  10.759   4.787  2.4279  1.1528 -0.3807
  317MOL0     O42661  10.424  10.167   7.239  0.1074  0.2350  0.3999
  317MOL0     C42662  10.362  10.060   7.238 -0.0036  0.2634  0.0393
  317MOL0     O42663  10.243  10.041   7.307 -0.0830  0.1306  0.2904
  317MOL0     C42664  10.188  10.132   7.402 -0.7365  0.0518  0.9724
  317MOL0     C42665  10.066  10.098   7.434  0.2775  0.8259 -0.0404
  317MOL0     C42666   9.998  10.189   7.516 -0.3822 -0.0796 -0.9246
  317MOL0     C42667  10.057  10.302   7.580 -0.0522  0.8678  0.0833
  317MOL0     O42668   9.987  10.392   7.662  0.6801 -0.3638 -0.3169
  317MOL0     C42669   9.844  10.396   7.652  0.8885  0.3484 -0.1346
  317MOL0     C42670   9.788  10.525   7.709  0.5986 -0.6676  1.0196
  317MOL0     C42671   9.631  10.514   7.718 -0.0531 -0.5549 -0.6622
  317MOL0     C42672   9.575  10.633   7.791  0.4699 -0.2207 -0.3764
  317MOL0     C42673   9.431  10.658   7.764  0.5629 -0.4539  0.4703
  317MOL0     C42674   9.377  10.779   7.845  0.1186 -0.0937 -1.0941
  317MOL0     C42675   9.267  10.866   7.779 -0.3014  0.3747 -0.1172
  317MOL0     C42676   9.127  10.819   7.821  0.2814 -0.2150 -0.1091
  317MOL0     N42677   9.013  10.881   7.747  0.0437 -0.3234  0.3398
  317MOL0     C42678   8.965  10.835   7.631  0.8498  0.3586  0.2007
  317MOL0     C42679   8.897  10.939   7.570  0.2420  1.0086 -0.4017
  317MOL0     C42680   8.840  10.922   7.433 -0.6387 -0.4458 -0.2357
  317MOL0     C42681   8.691  10.942   7.430  0.0085 -0.8928  0.5439
  317MOL0     C42682   8.654  10.956   7.285  0.8641  0.8752  0.1504
  317MOL0     C42683   8.505  10.983   7.257 -0.0254 -1.0830 -0.1158
  317MOL0     O42684   8.498  11.129   7.270  0.1228  1.0574 -0.5177
  317MOL0     C42685   8.380  11.203   7.249 -0.0853  0.0413 -0.0532
  317MOL0     C42686   8.400  11.340   7.284  0.3294  0.3707  0.7434
  317MOL0     C42687   8.294  11.440   7.271  0.6031 -0.0818  0.9162
  317MOL0     C42688   8.326  11.584   7.318 -0.8800  0.1541  0.0698
  317MOL0     C42689   8.169  11.391   7.213 -0.2012  0.2458 -0.2130
  317MOL0     C42690   8.058  11.489   7.178  0.0858 -0.2214  0.5451
  317MOL0     O42691   7.942  11.434   7.149  0.2197  0.7288  0.1613
  317MOL0     C42692   7.828  11.501   7.106  0.6921  0.3031 -0.4245
  317MOL0     C42693   7.839  11.599   6.999 -0.2759  0.8437 -0.3541
  317MOL0     C42694   7.725  11.655   6.954  0.0310 -0.2268  0.0020
  317MOL0     C42695   7.605  11.624   7.011 -0.4632  0.4245 -0.7554
  317MOL0     O42696   7.496  11.677   6.948 -0.2024  0.2540  0.9493
  317MOL0     C42697   7.371  11.670   7.008  0.0127 -0.1325 -0.5688
  317MOL0     C42698   7.265  11.756   6.936  0.9636 -0.3640  0.7219
  317MOL0     C42699   7.125  11.739   6.997  0.1811 -0.8860 -0.2463
  317MOL0     C42700   7.004  11.772   6.902 -0.1648  0.9234  1.1981
  317MOL0     C42701   6.869  11.782   6.965  0.1225  0.9071 -0.0616
  317MOL0     C42702   6.814  11.643   7.005 -0.2879  1.7908 -0.2630
  317MOL0     C42703   6.709  11.645   7.115  0.0518  0.3807  0.3279
  317MOL0     C42704   6.708  11.505   7.179  0.1418  0.3153  0.1233
  317MOL0    Cl42705   6.603  11.397   7.084  0.2816  0.1072 -0.0541
  317MOL0     C42706   7.595  11.534   7.123  0.1465  0.5103  0.3435
  317MOL0     C42707   7.707  11.475   7.176  0.3529  0.0540  0.2669
  317MOL0     O42708   8.078  11.610   7.186 -0.2027  0.4667  0.2636
  317MOL0     C42709   8.161  11.253   7.186  0.4333  0.6444  0.0980
  317MOL0     C42710   8.259  11.157   7.198 -0.2696 -0.2073  1.2671
  317MOL0     N42711   8.915  11.047   7.647  0.6816  0.2134  0.1104
  317MOL0     N42712   8.975  11.007   7.757  0.7146  0.4016 -1.1753
  317MOL0     C42713  10.195  10.320   7.559  0.3584 -0.1565 -0.4342
  317MOL0     C42714  10.264  10.236   7.464 -0.4291 -0.5700 -0.2755
  317MOL0     C42715  10.420   9.954   7.160 -0.1823 -0.1481  0.1692
  317MOL0     C42716  10.524   9.982   7.066  0.2127  0.1687  0.1167
  317MOL0     C42717  10.607   9.887   6.999  0.1728 -0.0638  0.9988
  317MOL0     C42718  10.565   9.755   7.024  0.4737  0.1640  0.1718
  317MOL0     O42719  10.656   9.667   6.976 -0.1462  0.3730 -0.2399
  317MOL0     C42720  10.644   9.531   7.010  0.3403  0.6920  0.1663
  317MOL0     C42721  10.772   9.465   6.957 -1.4529  0.1533  0.9803
  317MOL0     C42722  10.914   9.503   7.032  0.7215  0.3736  1.0065
  317MOL0     C42723  10.888   9.502   7.185  0.3875 -1.3246  0.6283
  317MOL0     C42724  11.013   9.485   7.271 -0.3138  0.7447  0.2792
  317MOL0     C42725  11.122   9.475   7.333 -0.1755 -0.4900  0.0038
  317MOL0     C42726  10.454   9.725   7.103 -0.3796 -0.0607 -0.0303
  317MOL0     C42727  10.382   9.817   7.174 -0.0073 -0.6047 -0.7227
  317MOL0     H42728  10.009  10.014   7.393 -1.2328  2.0188 -0.4564
  317MOL0     H42729   9.894  10.167   7.537  0.5803 -0.6624  5.0512
  317MOL0     H42730   9.819  10.381   7.546  1.1428 -2.5081  0.1291
  317MOL0     H42731   9.796  10.314   7.706  1.0519 -0.2180 -0.8248
  317MOL0     H42732   9.823  10.547   7.811 -0.0062  0.3509  1.0306
  317MOL0     H42733   9.807  10.611   7.644 -0.9992 -2.3995 -1.9064
  317MOL0     H42734   9.578  10.499   7.623 -0.8294  1.8882 -0.6735
  317MOL0     H42735   9.623  10.425   7.782  5.4207  0.8409  2.6347
  317MOL0     H42736   9.585  10.618   7.899 -0.7694 -1.5395 -0.3999
  317MOL0     H42737   9.629  10.722   7.760 -1.0451  1.1709  0.7946
  317MOL0     H42738   9.420  10.684   7.659 -0.3348 -0.7497  0.4800
  317MOL0     H42739   9.367  10.570   7.783  1.1443 -0.4501  2.8140
  317MOL0     H42740   9.339  10.745   7.942 -0.4364 -2.8559 -2.1681
  317MOL0     H42741   9.459  10.850   7.860 -0.7322  0.4996  1.4022
  317MOL0     H42742   9.279  10.969   7.813 -1.6402  1.0847 -1.6577
  317MOL0     H42743   9.277  10.869   7.670  1.1244 -0.9020 -0.0695
  317MOL0     H42744   9.109  10.846   7.926  0.5097  1.2772 -0.4318
  317MOL0     H42745   9.126  10.711   7.803  0.4075 -0.3752  0.7930
  317MOL0     H42746   8.984  10.741   7.581 -1.0076 -0.1964  0.4928
  317MOL0     H42747   8.882  11.005   7.377 -1.9203 -1.1444 -2.3663
  317MOL0     H42748   8.862  10.826   7.386 -0.7767 -0.8400  0.4808
  317MOL0     H42749   8.681  11.038   7.483  0.5379  0.8585 -2.3381
  317MOL0     H42750   8.638  10.853   7.464 -0.6408 -1.3537 -1.5483
  317MOL0     H42751   8.685  10.864   7.236  0.2791  0.3508  0.7522
  317MOL0     H42752   8.715  11.042   7.254  2.2338  0.5826  1.8969
  317MOL0     H42753   8.448  10.933   7.336  0.0964 -1.8521 -0.5050
  317MOL0     H42754   8.473  10.964   7.154  0.5411  0.2825 -0.5697
  317MOL0     H42755   8.497  11.371   7.322 -0.6687  2.7655  1.5689
  317MOL0     H42756   8.245  11.629   7.376 -0.5731 -0.0280  0.6423
  317MOL0     H42757   8.402  11.575   7.396 -0.7931 -1.0718 -0.1359
  317MOL0     H42758   8.357  11.647   7.234 -1.1591  0.2300  0.0230
  317MOL0     H42759   7.940  11.611   6.959  0.2876 -2.1662 -0.1062
  317MOL0     H42760   7.735  11.723   6.870 -0.6451 -1.1006 -0.8085
  317MOL0     H42761   7.334  11.567   7.016 -0.5715 -0.1095 -2.5121
  317MOL0     H42762   7.386  11.707   7.110 -1.5479  0.2661 -0.4596
  317MOL0     H42763   7.304  11.858   6.928  2.4200 -1.0651 -3.4678
  317MOL0     H42764   7.250  11.728   6.832 -2.1732  0.1469  0.9364
  317MOL0     H42765   7.128  11.802   7.086  0.5099  0.9306 -1.4860
  317MOL0     H42766   7.108  11.634   7.024 -1.9846 -0.7823 -0.9891
  317MOL0     H42767   7.006  11.873   6.859 -3.0020  0.9078  0.7899
  317MOL0     H42768   7.003  11.698   6.822 -2.4784  1.0074  1.0787
  317MOL0     H42769   6.786  11.815   6.901  0.1745 -1.2874 -1.3796
  317MOL0     H42770   6.885  11.849   7.050  1.2065 -0.4718  0.8779
  317MOL0     H42771   6.776  11.598   6.913 -1.0518 -0.5628  1.1096
  317MOL0     H42772   6.890  11.573   7.041 -2.8438 -1.5925 -0.9935
  317MOL0     H42773   6.613  11.656   7.064 -0.1982  0.7067  0.8692
  317MOL0     H42774   6.725  11.726   7.186 -0.5998  3.0956 -2.4244
  317MOL0     H42775   6.654  11.503   7.274  0.0985  1.6632  0.1484
  317MOL0     H42776   6.805  11.455   7.188 -0.0133 -0.1455 -0.6277
  317MOL0     H42777   7.496  11.511   7.162  0.4637  0.1464  0.9440
  317MOL0     H42778   7.693  11.400   7.252 -0.1919 -0.9811 -0.8129
  317MOL0     H42779   8.064  11.224   7.147 -0.2165  0.8398  1.5161
  317MOL0     H42780   8.240  11.054   7.173 -1.0276  0.4344 -0.9678
  317MOL0     H42781  10.232  10.411   7.605 -0.2998 -0.4378  0.6830
  317MOL0     H42782  10.365  10.269   7.442 -0.2162 -1.1574 -0.2108
  317MOL0     H42783  10.552  10.085   7.048  1.6502 -0.1259  0.5029
  317MOL0     H42784  10.696   9.904   6.938  0.6150 -0.5279  1.5029
  317MOL0     H42785  10.617   9.521   7.116  0.3064 -0.9336  0.0297
  317MOL0     H42786  10.564   9.480   6.956 -0.7825  1.0447  1.4403
  317MOL0     H42787  10.776   9.492   6.851 -1.2108  0.3594  1.0401
  317MOL0     H42788  10.764   9.356   6.949  0.1844  0.0980 -0.5314
  317MOL0     H42789  10.940   9.604   6.999  1.4091 -0.2870 -0.5898
  317MOL0     H42790  10.994   9.434   7.003  1.8583  1.7089  0.8923
  317MOL0     H42791  10.813   9.426   7.210 -0.3788 -0.8595 -0.1758
  317MOL0     H42792  10.846   9.600   7.208 -1.1425 -1.8065  0.0260
  317MOL0     H42793  11.221   9.474   7.376 -1.1362  1.1510  2.4773
  317MOL0     H42794  10.419   9.625   7.130  0.0947  0.7999  4.4970
  317MOL0     H42795  10.306   9.780   7.242 -0.0324  0.7095  0.0108
  318MOL0     O42796   2.350   6.495   6.907  0.5790 -0.0284 -0.0666
  318MOL0     C42797   2.380   6.437   7.010 -0.2798 -0.6376  0.5260
  318MOL0     O42798   2.302   6.427   7.124  0.0033  0.2476 -0.5165
  318MOL0     C42799   2.174   6.405   7.101  0.3377 -0.0963 -0.3927
  318MOL0     C42800   2.085   6.509   7.095 -0.9061 -1.2716 -0.5723
  318MOL0     C42801   1.952   6.496   7.076  0.3205  0.8712  0.0048
  318MOL0     C42802   1.894   6.372   7.059 -0.0328  1.2505 -0.3441
  318MOL0     O42803   1.757   6.358   7.055  0.3737 -0.8767 -0.1874
  318MOL0     C42804   1.702   6.274   6.962 -0.8175  0.1242  0.3103
  318MOL0     C42805   1.551   6.299   6.963  0.8566  0.1943  0.0788
  318MOL0     C42806   1.532   6.433   6.898  0.4493 -0.4509  0.5350
  318MOL0     C42807   1.380   6.488   6.879  0.3848  0.3545  0.4496
  318MOL0     C42808   1.300   6.430   6.760 -0.7472 -0.1777  0.5364
  318MOL0     C42809   1.153   6.471   6.779 -0.5377 -0.4523  0.2380
  318MOL0     C42810   1.070   6.428   6.652 -0.3078  0.9269 -0.4397
  318MOL0     C42811   1.121   6.470   6.512 -0.0007 -0.6143  0.4182
  318MOL0     N42812   1.010   6.533   6.430 -0.3322 -0.0614 -0.2854
  318MOL0     C42813   0.994   6.667   6.404 -0.3517 -0.2533  0.0722
  318MOL0     C42814   0.871   6.678   6.353  0.0899  0.5194  0.5232
  318MOL0     C42815   0.815   6.811   6.309  0.6414  0.3652 -0.2924
  318MOL0     C42816   0.661   6.821   6.303 -0.1769  0.4787 -0.7074
  318MOL0     C42817   0.606   6.887   6.430  0.7035  0.2251  0.7396
  318MOL0     C42818   0.461   6.910   6.409 -0.7298 -0.4736 -0.7549
  318MOL0     O42819   0.407   6.786   6.430  0.6284 -0.2255  0.2399
  318MOL0     C42820   0.272   6.767   6.418  0.1154  1.4115  0.6278
  318MOL0     C42821   0.186   6.869   6.377  1.0713  0.1338 -0.7563
  318MOL0     C42822   0.053   6.861   6.352  0.3030 -0.2982  0.8937
  318MOL0     C42823  -0.012   6.986   6.312  0.0423  0.4067  0.5243
  318MOL0     C42824  -0.017   6.737   6.364 -0.1689  0.6703 -0.0568
  318MOL0     C42825  -0.157   6.707   6.327  1.0787  0.1794 -0.2790
  318MOL0     O42826  -0.198   6.578   6.329 -0.5342 -0.0676 -0.1476
  318MOL0     C42827  -0.325   6.558   6.280 -0.0706 -0.0516  0.1680
  318MOL0     C42828  -0.335   6.517   6.143  0.6207  0.3158 -0.2957
  318MOL0     C42829  -0.459   6.496   6.089  0.3685 -0.5105 -0.2399
  318MOL0     C42830  -0.573   6.528   6.162 -0.1097  0.3508  0.3271
  318MOL0     O42831  -0.701   6.504   6.112  0.2087  0.7609  0.2145
  318MOL0     C42832  -0.729   6.590   5.997 -0.0852  0.6798  0.6993
  318MOL0     C42833  -0.851   6.546   5.915 -0.3959  0.4540 -0.1818
  318MOL0     C42834  -0.820   6.408   5.845 -0.5365 -0.0386 -0.3056
  318MOL0     C42835  -0.953   6.331   5.824 -0.3281 -0.5454 -0.6179
  318MOL0     C42836  -0.932   6.210   5.735  0.1171 -1.2495  0.0610
  318MOL0     C42837  -0.856   6.100   5.792  0.0807  0.9178 -0.6376
  318MOL0     C42838  -0.843   5.991   5.690  0.8978 -0.8740  0.4520
  318MOL0     C42839  -0.818   5.845   5.743 -0.0696  0.1633 -0.8367
  318MOL0    Cl42840  -0.933   5.809   5.863  0.5731  0.5343 -0.3503
  318MOL0     C42841  -0.570   6.570   6.298 -0.4639 -0.3522  0.0325
  318MOL0     C42842  -0.446   6.579   6.359 -0.5605  0.4179 -0.1600
  318MOL0     O42843  -0.227   6.799   6.271 -0.5185  0.0108  0.6630
  318MOL0     C42844   0.065   6.631   6.404  1.3512 -0.6478  0.1281
  318MOL0     C42845   0.203   6.644   6.426 -0.7011 -0.4813 -0.0625
  318MOL0     N42846   0.806   6.551   6.351 -0.3888  0.5659 -0.4017
  318MOL0     N42847   0.898   6.470   6.399 -0.0265  0.1873  0.4930
  318MOL0     C42848   1.979   6.262   7.059  0.3739  0.2095 -0.5793
  318MOL0     C42849   2.118   6.279   7.081  0.6288  0.4919  1.3129
  318MOL0     C42850   2.519   6.403   7.016 -0.1313 -0.1076  0.1766
  318MOL0     C42851   2.591   6.375   7.136  0.1895  0.2278 -0.2434
  318MOL0     C42852   2.726   6.347   7.135 -0.0797  1.1398 -0.2965
  318MOL0     C42853   2.802   6.338   7.020  0.3866 -0.6747 -0.0960
  318MOL0     O42854   2.936   6.306   7.026 -0.3446 -0.3354  0.5915
  318MOL0     C42855   2.976   6.182   6.957 -0.3455  0.3240  0.0685
  318MOL0     C42856   3.110   6.199   6.893  0.0416 -0.0231  0.3360
  318MOL0     C42857   3.225   6.204   6.993  1.0096 -0.1187  0.1087
  318MOL0     C42858   3.346   6.242   6.904  0.2751  0.7752 -0.6861
  318MOL0     C42859   3.469   6.199   6.975  1.5151  1.0299  0.0540
  318MOL0     C42860   3.563   6.165   7.034  0.6787  0.3996 -0.4482
  318MOL0     C42861   2.742   6.370   6.901 -0.6503  0.0720  0.5831
  318MOL0     C42862   2.599   6.400   6.897 -0.5756  0.9112 -0.4442
  318MOL0     H42863   2.130   6.608   7.093  2.0690 -2.3241  2.7565
  318MOL0     H42864   1.891   6.586   7.068 -0.7784  0.0656 -1.1082
  318MOL0     H42865   1.748   6.300   6.866 -0.3427  1.0909  0.7916
  318MOL0     H42866   1.708   6.167   6.986  0.2617  0.0878 -0.0591
  318MOL0     H42867   1.506   6.215   6.909  1.0841 -0.0331  0.2396
  318MOL0     H42868   1.506   6.300   7.063  2.3487  0.6763  0.7732
  318MOL0     H42869   1.589   6.512   6.947 -0.1583  2.1232 -2.5595
  318MOL0     H42870   1.574   6.432   6.797 -1.4607 -1.3036 -0.2895
  318MOL0     H42871   1.331   6.462   6.973  0.8772 -0.8014  0.4068
  318MOL0     H42872   1.376   6.593   6.849  2.5044  0.5653  0.7860
  318MOL0     H42873   1.342   6.467   6.665  0.7762  3.5467  2.4503
  318MOL0     H42874   1.322   6.323   6.761  2.1381  0.3101  0.1378
  318MOL0     H42875   1.105   6.423   6.865  0.7111 -0.6248  0.8508
  318MOL0     H42876   1.148   6.580   6.791  1.7330 -0.4873  2.0405
  318MOL0     H42877   1.054   6.319   6.652 -3.5794  1.3059 -0.6271
  318MOL0     H42878   0.969   6.462   6.677  0.2983  1.5215  1.3713
  318MOL0     H42879   1.166   6.382   6.466  0.6191  0.2693 -0.7329
  318MOL0     H42880   1.209   6.534   6.505  0.9014 -1.9327 -0.8214
  318MOL0     H42881   1.070   6.742   6.424  0.6042 -1.5929  1.6799
  318MOL0     H42882   0.860   6.894   6.364  0.9519 -0.3122  0.4957
  318MOL0     H42883   0.839   6.814   6.203  2.8141  0.1915  0.1506
  318MOL0     H42884   0.618   6.723   6.280 -0.0223  0.8009 -2.4821
  318MOL0     H42885   0.644   6.887   6.217  1.7005 -0.1983 -1.6624
  318MOL0     H42886   0.657   6.983   6.440  0.6047  0.1145  2.5126
  318MOL0     H42887   0.616   6.821   6.516 -3.7371 -0.9503  0.5719
  318MOL0     H42888   0.439   6.939   6.305 -0.0621 -2.6968 -1.5727
  318MOL0     H42889   0.424   6.978   6.486  1.2025 -2.0290  1.7040
  318MOL0     H42890   0.224   6.968   6.351 -1.9840  1.0012 -2.3577
  318MOL0     H42891   0.036   7.078   6.346 -0.7891  0.7202  0.8547
  318MOL0     H42892  -0.019   7.005   6.204 -0.7771  0.4618  0.5838
  318MOL0     H42893  -0.114   6.998   6.348 -0.4611  1.6472 -1.1676
  318MOL0     H42894  -0.251   6.489   6.081 -0.4431 -3.7458 -0.1784
  318MOL0     H42895  -0.463   6.449   5.991  1.9852  1.2652 -1.2141
  318MOL0     H42896  -0.744   6.695   6.025 -1.1676  1.0859 -1.2512
  318MOL0     H42897  -0.643   6.585   5.931  0.9844 -1.2635  2.1300
  318MOL0     H42898  -0.928   6.544   5.992  0.1455  2.1158  0.4440
  318MOL0     H42899  -0.879   6.622   5.842 -0.9271  0.5452  0.1104
  318MOL0     H42900  -0.748   6.353   5.907  1.1713  0.5587 -1.6812
  318MOL0     H42901  -0.765   6.428   5.753  1.9156 -2.0949  0.5938
  318MOL0     H42902  -1.001   6.301   5.918 -2.4127  0.8206 -1.1878
  318MOL0     H42903  -1.036   6.383   5.775 -0.1403 -1.6292 -2.1670
  318MOL0     H42904  -0.882   6.240   5.642  1.5387 -0.5890  1.0062
  318MOL0     H42905  -1.034   6.179   5.712  0.6711 -1.3651 -2.5542
  318MOL0     H42906  -0.755   6.125   5.827  0.9440 -1.2343 -1.3936
  318MOL0     H42907  -0.912   6.065   5.879 -2.4079  0.8993 -2.1673
  318MOL0     H42908  -0.760   6.024   5.626  2.4600 -2.3046  1.6695
  318MOL0     H42909  -0.933   5.977   5.631  1.3288  1.2575 -0.8153
  318MOL0     H42910  -0.719   5.842   5.790 -0.8188  1.1454  0.9280
  318MOL0     H42911  -0.828   5.769   5.666 -2.2338 -0.9036  0.4149
  318MOL0     H42912  -0.665   6.578   6.349  1.0586  1.1595  2.8517
  318MOL0     H42913  -0.460   6.614   6.461 -2.0445 -0.0837 -0.1757
  318MOL0     H42914   0.030   6.529   6.420 -1.2660 -0.4811 -3.3178
  318MOL0     H42915   0.262   6.558   6.456  1.5729  2.3071  4.6693
  318MOL0     H42916   1.941   6.164   7.033  0.5190 -0.9286  2.9492
  318MOL0     H42917   2.169   6.183   7.082 -2.8444 -1.5442  0.1520
  318MOL0     H42918   2.533   6.362   7.227 -0.4595  1.6778 -0.4176
  318MOL0     H42919   2.768   6.320   7.232 -0.5887  3.1131  0.5242
  318MOL0     H42920   2.975   6.099   7.028 -2.0782  0.7020  0.5490
  318MOL0     H42921   2.897   6.149   6.890  0.3499 -0.1219 -0.5349
  318MOL0     H42922   3.097   6.296   6.844  1.6211 -0.3889 -0.8890
  318MOL0     H42923   3.129   6.124   6.815 -2.1078  0.3929 -0.6558
  318MOL0     H42924   3.228   6.113   7.053 -0.4468 -1.0564 -1.1685
  318MOL0     H42925   3.213   6.291   7.059 -0.1390  2.5464 -3.3028
  318MOL0     H42926   3.346   6.348   6.877  0.9138  1.1957  0.8443
  318MOL0     H42927   3.344   6.181   6.813 -0.0117  1.8553 -1.4151
  318MOL0     H42928   3.655   6.139   7.081 -0.6591  2.2120  3.6796
  318MOL0     H42929   2.801   6.360   6.811 -2.4583 -1.7334 -0.5163
  318MOL0     H42930   2.552   6.414   6.800 -0.5967  1.5279 -0.3495
  319MOL0     O42931   0.931   8.252   1.743  0.1887 -0.2910 -0.4125
  319MOL0     C42932   0.915   8.167   1.655  0.8247 -0.4897  0.8057
  319MOL0     O42933   0.797   8.139   1.584 -0.4643  0.2677  0.2155
  319MOL0     C42934   0.678   8.187   1.628  0.0774 -0.0613  0.3061
  319MOL0     C42935   0.595   8.085   1.671 -0.3573 -0.3683  0.2378
  319MOL0     C42936   0.466   8.135   1.711 -0.5343  0.2837  0.1167
  319MOL0     C42937   0.413   8.266   1.712 -0.2204  0.0594 -0.2322
  319MOL0     O42938   0.277   8.282   1.729 -0.2103  0.0688 -0.3455
  319MOL0     C42939   0.226   8.387   1.816  1.0103  1.2167  0.5315
  319MOL0     C42940   0.067   8.386   1.798 -0.2502  0.7975  0.3966
  319MOL0     C42941  -0.002   8.252   1.830 -0.6220  0.2255 -0.7481
  319MOL0     C42942  -0.158   8.269   1.797 -0.0632  0.3219 -0.0660
  319MOL0     C42943  -0.256   8.160   1.838  0.0736  0.2525  0.6399
  319MOL0     C42944  -0.378   8.157   1.743 -0.4826  0.2199  0.2061
  319MOL0     C42945  -0.472   8.271   1.788  0.1123  0.3796  0.2801
  319MOL0     C42946  -0.558   8.307   1.674  0.1433 -0.2427 -1.5440
  319MOL0     N42947  -0.667   8.208   1.647 -1.3912  0.4287  0.7042
  319MOL0     C42948  -0.797   8.238   1.680 -0.4914 -0.0068  0.9161
  319MOL0     C42949  -0.863   8.129   1.627 -0.7916  0.2776 -0.1536
  319MOL0     C42950  -1.012   8.107   1.636  0.8037 -0.0570 -0.4273
  319MOL0     C42951  -1.097   8.225   1.581 -0.9532  0.1267 -0.1301
  319MOL0     C42952  -1.255   8.221   1.601 -0.4882  0.0652  0.6053
  319MOL0     C42953  -1.294   8.255   1.750 -0.7207  0.7515  0.0939
  319MOL0     O42954  -1.438   8.261   1.752 -0.0312  1.0229 -0.3883
  319MOL0     C42955  -1.496   8.142   1.738  1.0496  0.3909 -0.2298
  319MOL0     C42956  -1.623   8.154   1.677  0.1710  0.3552 -1.0210
  319MOL0     C42957  -1.724   8.060   1.696  0.2677 -0.1642  0.0513
  319MOL0     C42958  -1.851   8.089   1.619  0.6658  0.4097  0.2636
  319MOL0     C42959  -1.697   7.938   1.763  0.3369 -0.8363 -0.1811
  319MOL0     C42960  -1.789   7.817   1.767 -1.2027  0.1458 -0.1244
  319MOL0     O42961  -1.727   7.700   1.759 -0.0239  0.0361 -0.0508
  319MOL0     C42962  -1.810   7.595   1.727  0.2836 -0.0654  0.5175
  319MOL0     C42963  -1.823   7.542   1.602 -0.1515  0.1211  0.7308
  319MOL0     C42964  -1.916   7.442   1.571  0.7796 -0.4673  0.5888
  319MOL0     C42965  -2.011   7.408   1.668 -0.1663 -0.2758 -1.5040
  319MOL0     O42966  -2.115   7.317   1.648  0.5863  0.0128  0.0261
  319MOL0     C42967  -2.236   7.380   1.595 -0.9330  0.2573 -0.3041
  319MOL0     C42968  -2.347   7.405   1.702  0.3344  0.0299 -0.3150
  319MOL0     C42969  -2.362   7.284   1.796 -0.8840  0.9506  0.6016
  319MOL0     C42970  -2.481   7.312   1.893  0.6633 -0.8804 -0.9576
  319MOL0     C42971  -2.532   7.188   1.966 -0.6809  0.1350 -0.4262
  319MOL0     C42972  -2.577   7.230   2.112 -0.2410  0.0860 -0.0540
  319MOL0     C42973  -2.684   7.345   2.107 -0.3403 -0.3219  0.4965
  319MOL0     C42974  -2.825   7.269   2.088 -0.2332  0.3691 -0.2365
  319MOL0    Cl42975  -2.964   7.392   2.061 -0.0005 -0.4423  0.0913
  319MOL0     C42976  -1.997   7.458   1.802  0.0152  0.0546  0.7585
  319MOL0     C42977  -1.893   7.546   1.826  0.1027  0.4269 -0.3510
  319MOL0     O42978  -1.908   7.840   1.771  0.1236  0.9221  0.9989
  319MOL0     C42979  -1.568   7.928   1.818  0.1555  1.0564 -0.7999
  319MOL0     C42980  -1.476   8.028   1.813 -0.3649  0.4064 -0.4662
  319MOL0     N42981  -0.771   8.053   1.545 -0.8628 -0.0750 -0.4589
  319MOL0     N42982  -0.654   8.105   1.563 -0.0663 -0.0335  0.0194
  319MOL0     C42983   0.502   8.355   1.647  0.9578 -0.0202  0.2255
  319MOL0     C42984   0.631   8.317   1.610 -0.1361  0.5051  0.8099
  319MOL0     C42985   1.032   8.089   1.612 -0.1580 -0.5180 -0.3869
  319MOL0     C42986   1.165   8.133   1.639  0.0326  0.1474 -0.5184
  319MOL0     C42987   1.281   8.065   1.604 -0.1396  0.9164  1.2800
  319MOL0     C42988   1.255   7.938   1.548 -0.5729 -0.0341 -0.0313
  319MOL0     O42989   1.363   7.852   1.524 -0.3512  0.8068  0.3796
  319MOL0     C42990   1.341   7.708   1.502 -0.3132 -0.1109 -0.3102
  319MOL0     C42991   1.480   7.640   1.505  0.5196  0.0239  0.0077
  319MOL0     C42992   1.458   7.486   1.494 -0.3677  0.3561  0.4313
  319MOL0     C42993   1.588   7.403   1.474 -0.7442  0.1052 -0.6604
  319MOL0     C42994   1.691   7.426   1.576 -0.4331 -0.6258  0.0667
  319MOL0     C42995   1.782   7.445   1.652  0.1721  0.9180 -0.0789
  319MOL0     C42996   1.127   7.889   1.523  0.7596  0.8856 -0.6740
  319MOL0     C42997   1.013   7.967   1.556  0.3170  0.3691  0.4358
  319MOL0     H42998   0.640   7.988   1.686  2.2152  0.5246 -1.0783
  319MOL0     H42999   0.396   8.058   1.742  0.1224 -0.3850 -0.0183
  319MOL0     H43000   0.245   8.361   1.920  1.6919  2.2069  0.6770
  319MOL0     H43001   0.264   8.488   1.798  0.5436  1.1014 -1.3551
  319MOL0     H43002   0.030   8.456   1.873  0.9475  1.7278  0.1504
  319MOL0     H43003   0.043   8.419   1.697 -3.2124  0.6395  0.9705
  319MOL0     H43004   0.036   8.170   1.768 -0.6189  0.5261 -1.1439
  319MOL0     H43005   0.017   8.217   1.932  1.1467  0.9197 -0.8072
  319MOL0     H43006  -0.189   8.365   1.841  0.0415  1.2094 -1.8537
  319MOL0     H43007  -0.172   8.281   1.690  1.3444 -3.0287 -0.7632
  319MOL0     H43008  -0.199   8.067   1.846  2.3299  1.2138 -2.3312
  319MOL0     H43009  -0.275   8.187   1.942 -0.5013  0.4610  0.4855
  319MOL0     H43010  -0.347   8.163   1.639 -0.3899  4.5432  0.3033
  319MOL0     H43011  -0.416   8.057   1.765 -0.4422 -0.0727 -1.0269
  319MOL0     H43012  -0.540   8.235   1.865 -1.0676 -2.9582 -2.0891
  319MOL0     H43013  -0.430   8.364   1.827  1.5610  1.0452 -2.5906
  319MOL0     H43014  -0.506   8.335   1.581  1.9348  2.7301  0.1905
  319MOL0     H43015  -0.613   8.393   1.713 -0.7017 -1.8690  1.0845
  319MOL0     H43016  -0.840   8.327   1.726  1.3766  2.5516 -1.8938
  319MOL0     H43017  -1.033   8.015   1.580 -3.5730 -0.6250  1.7661
  319MOL0     H43018  -1.038   8.093   1.741  2.5074 -1.6668 -0.1610
  319MOL0     H43019  -1.076   8.235   1.474 -2.3732  3.4231 -0.2214
  319MOL0     H43020  -1.062   8.318   1.627  0.6436 -0.8731  0.7534
  319MOL0     H43021  -1.294   8.122   1.575 -2.0561  0.8470 -0.1393
  319MOL0     H43022  -1.303   8.295   1.536 -1.9200 -0.9287  0.4822
  319MOL0     H43023  -1.267   8.360   1.762 -0.0181  0.7456 -1.1938
  319MOL0     H43024  -1.255   8.189   1.828  0.1039 -0.6428 -1.4154
  319MOL0     H43025  -1.647   8.250   1.634 -0.9156 -0.1296 -1.5250
  319MOL0     H43026  -1.943   8.086   1.678 -1.2354 -2.2791 -2.5606
  319MOL0     H43027  -1.860   8.186   1.571 -0.5585  1.2426  2.0520
  319MOL0     H43028  -1.857   8.005   1.549  1.8233  1.4722 -1.1532
  319MOL0     H43029  -1.753   7.560   1.521  0.8561 -4.9307  0.1467
  319MOL0     H43030  -1.917   7.398   1.472 -0.1465  0.7082  0.0445
  319MOL0     H43031  -2.214   7.466   1.531 -1.1414  0.2090 -0.4398
  319MOL0     H43032  -2.264   7.307   1.518  0.4671 -0.8119  0.1463
  319MOL0     H43033  -2.329   7.489   1.768 -0.7741  1.2255 -1.4786
  319MOL0     H43034  -2.444   7.420   1.654 -0.7113 -1.2566  1.2692
  319MOL0     H43035  -2.265   7.273   1.845 -0.7221 -0.0775  0.0786
  319MOL0     H43036  -2.373   7.198   1.729  0.0048  1.2989 -0.0115
  319MOL0     H43037  -2.445   7.391   1.959  2.4770 -1.1935 -1.5319
  319MOL0     H43038  -2.567   7.352   1.838 -0.9726 -3.9729 -0.9061
  319MOL0     H43039  -2.465   7.108   2.001 -0.6396  0.6145  0.6290
  319MOL0     H43040  -2.612   7.137   1.911 -0.8240 -0.4631  0.3077
  319MOL0     H43041  -2.616   7.150   2.175 -1.4098  0.5456 -0.1562
  319MOL0     H43042  -2.490   7.265   2.167 -1.0460  0.8192  0.7858
  319MOL0     H43043  -2.668   7.416   2.026  0.8533 -1.6035 -0.4243
  319MOL0     H43044  -2.680   7.401   2.201  2.3315 -0.2013  0.3826
  319MOL0     H43045  -2.838   7.201   2.173  1.0536 -0.5476 -0.7254
  319MOL0     H43046  -2.818   7.209   1.997  0.5845  4.0006 -2.7803
  319MOL0     H43047  -2.073   7.438   1.877 -1.4000  0.4793 -0.5261
  319MOL0     H43048  -1.874   7.598   1.920  0.1676  0.0346 -0.1469
  319MOL0     H43049  -1.546   7.833   1.866 -3.5004 -0.3641 -1.6053
  319MOL0     H43050  -1.384   8.021   1.871 -0.4018 -0.4669 -0.4998
  319MOL0     H43051   0.470   8.457   1.631 -0.1992 -0.1574  1.5195
  319MOL0     H43052   0.701   8.387   1.565 -2.4359  2.5838  0.2460
  319MOL0     H43053   1.159   8.226   1.696  1.5503 -0.9098  1.4869
  319MOL0     H43054   1.376   8.112   1.628 -1.6128  2.4654  4.8019
  319MOL0     H43055   1.285   7.659   1.582  4.7992 -4.2771  1.2832
  319MOL0     H43056   1.295   7.696   1.403 -3.0788  1.3377  0.6891
  319MOL0     H43057   1.529   7.681   1.593  2.6407  0.1576 -1.1471
  319MOL0     H43058   1.545   7.674   1.423  0.8786 -0.8168 -0.0655
  319MOL0     H43059   1.402   7.476   1.400  0.8203  1.9927 -0.5055
  319MOL0     H43060   1.410   7.453   1.587  0.3821 -0.0762  0.6692
  319MOL0     H43061   1.626   7.416   1.373 -0.7036  1.0852 -0.5280
  319MOL0     H43062   1.558   7.299   1.492  2.0973 -0.7711 -0.4627
  319MOL0     H43063   1.858   7.450   1.727  1.2772  1.9269 -1.2183
  319MOL0     H43064   1.111   7.783   1.505  0.2881  0.2394  2.7545
  319MOL0     H43065   0.909   7.938   1.543  0.2163  0.6218  0.6749
  320MOL0     O43066   9.714   9.076   6.531  0.4342  0.0492 -0.4822
  320MOL0     C43067   9.758   9.151   6.439 -0.1402 -0.1566 -0.4604
  320MOL0     O43068   9.731   9.283   6.425  0.3621  0.0727  0.7557
  320MOL0     C43069   9.672   9.353   6.526  0.3810 -0.8294 -0.5601
  320MOL0     C43070   9.715   9.347   6.655  0.0481  0.0545 -0.1049
  320MOL0     C43071   9.645   9.422   6.752 -0.1441  0.0168  0.5253
  320MOL0     C43072   9.524   9.496   6.722 -0.3210 -0.2989 -0.3383
  320MOL0     O43073   9.437   9.561   6.811 -0.5786  0.1939 -0.2162
  320MOL0     C43074   9.490   9.576   6.946  0.0769 -0.1640 -0.5471
  320MOL0     C43075   9.388   9.660   7.021  0.1050 -0.1753 -0.9246
  320MOL0     C43076   9.362   9.611   7.161 -0.5167  0.3986  0.6422
  320MOL0     C43077   9.285   9.716   7.240 -0.1532 -0.2786 -1.3538
  320MOL0     C43078   9.136   9.736   7.200  0.5068 -0.3414 -0.5551
  320MOL0     C43079   9.054   9.614   7.233 -1.5049 -0.8418 -0.9142
  320MOL0     C43080   8.914   9.664   7.259  0.9758  0.1271 -0.2817
  320MOL0     C43081   8.810   9.551   7.278 -0.4450 -0.4468 -0.0502
  320MOL0     N43082   8.676   9.597   7.307  0.4268 -0.3322 -0.5744
  320MOL0     C43083   8.612   9.679   7.215  0.0829 -0.3798 -0.2628
  320MOL0     C43084   8.508   9.739   7.277 -0.4677  0.6168 -0.8502
  320MOL0     C43085   8.417   9.838   7.208  0.1121  0.7304 -0.5906
  320MOL0     C43086   8.267   9.832   7.253  0.5331 -0.6094 -0.3513
  320MOL0     C43087   8.194   9.940   7.173 -0.6867 -0.7486  0.5672
  320MOL0     C43088   8.046   9.937   7.193  1.0153  0.3103  0.7184
  320MOL0     O43089   7.992  10.007   7.073  0.1946  0.4523 -0.3512
  320MOL0     C43090   7.859  10.020   7.067  1.3883 -0.0087  0.6966
  320MOL0     C43091   7.762   9.949   7.151  0.2267 -0.4637  0.4289
  320MOL0     C43092   7.625   9.972   7.142  0.1842  0.0598 -0.5700
  320MOL0     C43093   7.543   9.910   7.257  0.6238 -0.4225  0.8887
  320MOL0     C43094   7.573  10.040   7.034 -0.7383 -0.4295  0.4716
  320MOL0     C43095   7.428  10.061   7.015  0.2182  0.2510 -0.2788
  320MOL0     O43096   7.380  10.174   6.956  0.5617 -0.1664  0.3221
  320MOL0     C43097   7.260  10.188   6.891  0.5350 -0.4350  0.1530
  320MOL0     C43098   7.161  10.087   6.878  0.3860  0.9062  0.1208
  320MOL0     C43099   7.044  10.108   6.803  0.8835  0.0575 -0.5549
  320MOL0     C43100   7.010  10.237   6.760  0.5214 -0.3310 -0.5744
  320MOL0     O43101   6.886  10.258   6.697  0.0597 -0.2044 -0.0311
  320MOL0     C43102   6.775  10.166   6.728  0.2805  0.0932  0.4313
  320MOL0     C43103   6.637  10.220   6.690  0.0187 -0.6423  0.2849
  320MOL0     C43104   6.633  10.289   6.553  0.1269 -0.1336 -0.5895
  320MOL0     C43105   6.488  10.318   6.505 -0.6878 -0.2213  0.3134
  320MOL0     C43106   6.480  10.365   6.353  0.3188  0.1734 -0.9762
  320MOL0     C43107   6.340  10.363   6.304  0.8346 -0.3000 -0.0809
  320MOL0     C43108   6.275  10.495   6.296 -0.4116  0.2795  0.4280
  320MOL0     C43109   6.221  10.530   6.433  0.1395 -0.3182  0.2114
  320MOL0    Cl43110   6.140  10.694   6.421 -0.6555 -0.1660  0.0133
  320MOL0     C43111   7.108  10.337   6.780  0.1906 -0.0094  0.0510
  320MOL0     C43112   7.228  10.311   6.837 -0.2749  0.5235  0.3823
  320MOL0     O43113   7.358   9.973   7.073  0.2078 -0.3607  0.4696
  320MOL0     C43114   7.660  10.098   6.940 -0.0156 -0.1360  0.2306
  320MOL0     C43115   7.797  10.084   6.961 -0.9454 -0.1998 -0.3183
  320MOL0     N43116   8.508   9.685   7.407  0.2186 -0.2834  0.0577
  320MOL0     N43117   8.608   9.605   7.427  0.3101 -0.8282  0.3460
  320MOL0     C43118   9.480   9.486   6.593 -0.8505 -0.7432  1.1022
  320MOL0     C43119   9.555   9.426   6.487  0.2072 -0.5184 -0.2743
  320MOL0     C43120   9.808   9.085   6.320  0.8900  0.3942  0.2414
  320MOL0     C43121   9.801   8.945   6.302  0.2137 -0.5423  0.0661
  320MOL0     C43122   9.828   8.879   6.185 -1.0763 -0.5181  1.1227
  320MOL0     C43123   9.866   8.961   6.068  0.2694  0.6945  0.1898
  320MOL0     O43124   9.890   8.912   5.939  0.2410 -0.1658 -0.3752
  320MOL0     C43125   9.898   8.770   5.911  0.0564  0.1281 -0.7249
  320MOL0     C43126  10.023   8.701   5.970  0.0291  1.0982 -0.4244
  320MOL0     C43127  10.149   8.756   5.904 -0.8770 -0.0078 -0.7007
  320MOL0     C43128  10.161   8.740   5.749  0.1650  0.1169  0.6368
  320MOL0     C43129  10.268   8.812   5.678 -0.4776  0.8809 -0.2536
  320MOL0     C43130  10.375   8.833   5.626 -0.7240  0.0043 -0.1657
  320MOL0     C43131   9.887   9.099   6.088  0.0617 -0.1749  0.3103
  320MOL0     C43132   9.848   9.159   6.206  0.6563 -0.2140 -0.7979
  320MOL0     H43133   9.798   9.289   6.693  2.1207  2.1973 -1.1699
  320MOL0     H43134   9.693   9.440   6.847 -1.6634  2.7709  0.8806
  320MOL0     H43135   9.499   9.475   6.989  2.1730 -0.3390 -1.2517
  320MOL0     H43136   9.583   9.632   6.964 -1.0221  1.5726 -0.0497
  320MOL0     H43137   9.429   9.762   7.021  1.0910 -0.5349 -2.1500
  320MOL0     H43138   9.301   9.667   6.955 -0.0512  0.3495 -0.6635
  320MOL0     H43139   9.300   9.522   7.151 -0.6758  0.6507 -1.0736
  320MOL0     H43140   9.463   9.591   7.196 -0.8531 -0.6876  1.0069
  320MOL0     H43141   9.278   9.691   7.346  0.1824  2.9743 -0.4528
  320MOL0     H43142   9.346   9.807   7.232  1.6539 -1.2644  0.3498
  320MOL0     H43143   9.103   9.821   7.259  2.0220  0.0015 -0.1609
  320MOL0     H43144   9.124   9.752   7.092  1.8872 -2.1548 -1.0380
  320MOL0     H43145   9.047   9.547   7.147 -2.6164  0.2260 -1.6801
  320MOL0     H43146   9.101   9.559   7.316  1.5769  1.1926 -1.1393
  320MOL0     H43147   8.921   9.725   7.350  1.5567 -0.7542  0.2746
  320MOL0     H43148   8.882   9.717   7.168 -1.6577 -1.0492 -0.1217
  320MOL0     H43149   8.840   9.476   7.353  2.8934 -1.9258 -2.5782
  320MOL0     H43150   8.801   9.505   7.179 -0.2754  2.3979 -1.4948
  320MOL0     H43151   8.651   9.692   7.114  2.0441  0.8219  0.5961
  320MOL0     H43152   8.458   9.938   7.225  0.8465  0.0953  1.6398
  320MOL0     H43153   8.418   9.821   7.100 -0.5151 -0.1814 -0.4619
  320MOL0     H43154   8.253   9.831   7.361  2.7616 -1.5591 -0.0355
  320MOL0     H43155   8.219   9.739   7.221  0.7321 -1.0649  0.6555
  320MOL0     H43156   8.217   9.919   7.068 -2.5917  0.3631 -0.1271
  320MOL0     H43157   8.228  10.039   7.205 -0.4036 -0.6082 -0.1550
  320MOL0     H43158   8.027   9.998   7.281 -1.2955  3.0769 -1.4927
  320MOL0     H43159   8.006   9.835   7.203 -1.5764  1.3454  1.8623
  320MOL0     H43160   7.793   9.880   7.229  3.7290 -0.2335 -0.5894
  320MOL0     H43161   7.602   9.880   7.344 -0.4099 -2.8019  0.8232
  320MOL0     H43162   7.461   9.978   7.282  0.3105  0.4333 -2.0649
  320MOL0     H43163   7.508   9.815   7.216 -0.4199  0.1059  0.4985
  320MOL0     H43164   7.192   9.988   6.910  1.8767  1.2487 -0.2103
  320MOL0     H43165   6.982  10.021   6.782  0.8754  0.2640 -1.4593
  320MOL0     H43166   6.771  10.073   6.671 -0.9428  1.0771 -1.1561
  320MOL0     H43167   6.780  10.133   6.832 -2.1153  2.9079  1.5848
  320MOL0     H43168   6.566  10.137   6.698 -2.7858  1.7959  3.8597
  320MOL0     H43169   6.615  10.286   6.774  0.4425  1.3109 -1.0536
  320MOL0     H43170   6.692  10.226   6.486 -2.4587 -0.4267 -2.7606
  320MOL0     H43171   6.677  10.390   6.549 -2.1764  0.9032 -1.5468
  320MOL0     H43172   6.430  10.226   6.521 -1.9928  0.3271 -1.0300
  320MOL0     H43173   6.433  10.377   6.580 -1.2739 -0.5642  0.1630
  320MOL0     H43174   6.522  10.283   6.295 -2.8088 -1.6361 -0.9157
  320MOL0     H43175   6.524  10.461   6.322 -3.1665  1.4815 -2.4040
  320MOL0     H43176   6.355  10.320   6.205 -1.1545 -3.0641  0.6930
  320MOL0     H43177   6.271  10.296   6.356  1.0981  0.4348  1.2601
  320MOL0     H43178   6.192  10.490   6.225  0.8602  0.7780 -1.1268
  320MOL0     H43179   6.342  10.569   6.253 -0.6310 -0.3160 -1.0070
  320MOL0     H43180   6.304  10.551   6.501 -1.2967  0.6655  1.7598
  320MOL0     H43181   6.165  10.449   6.480  0.9990 -0.9724  0.1419
  320MOL0     H43182   7.072  10.436   6.751 -0.6358 -0.0147  0.9770
  320MOL0     H43183   7.295  10.395   6.853 -1.2881  1.2839  0.7657
  320MOL0     H43184   7.627  10.158   6.856  0.3624 -0.3219 -0.0513
  320MOL0     H43185   7.867  10.130   6.892 -0.3932 -0.7822 -0.1516
  320MOL0     H43186   9.393   9.542   6.561 -0.0974  1.1734  2.2634
  320MOL0     H43187   9.528   9.443   6.383 -0.1330  2.1180  0.1795
  320MOL0     H43188   9.780   8.880   6.386 -2.7366 -2.7886 -2.1759
  320MOL0     H43189   9.828   8.771   6.193  1.1398 -0.6098  0.5576
  320MOL0     H43190   9.807   8.729   5.955 -0.4123  1.9370  0.0672
  320MOL0     H43191   9.889   8.747   5.804  2.7393 -2.7849 -0.4784
  320MOL0     H43192  10.018   8.595   5.943 -3.6670  1.3942 -1.4882
  320MOL0     H43193  10.030   8.717   6.078  1.9324  1.0119 -0.5090
  320MOL0     H43194  10.235   8.707   5.950 -1.2171  0.4687  0.4725
  320MOL0     H43195  10.165   8.856   5.946 -1.3625 -1.3270  2.9584
  320MOL0     H43196  10.069   8.770   5.697  0.4200 -0.4426 -0.1704
  320MOL0     H43197  10.160   8.636   5.714 -1.3069  1.8662 -5.8693
  320MOL0     H43198  10.468   8.859   5.580  0.4078  1.5631  2.7278
  320MOL0     H43199   9.942   9.161   6.018  2.1216  1.2490  2.9490
  320MOL0     H43200   9.843   9.267   6.214  0.5386 -0.2684  0.0377
  321MOL0     O43201   7.820  11.067   6.764  0.6507  0.4580 -0.8257
  321MOL0     C43202   7.748  11.166   6.755  0.4181  0.2662  0.2850
  321MOL0     O43203   7.794  11.284   6.708  0.2176 -0.9709  0.2135
  321MOL0     C43204   7.928  11.307   6.704 -0.3018 -0.4183 -0.4395
  321MOL0     C43205   7.999  11.303   6.823  0.3446  0.6983  0.0520
  321MOL0     C43206   8.141  11.324   6.820  0.1456 -0.1876  0.2508
  321MOL0     C43207   8.191  11.364   6.698  0.3798 -0.0425 -0.5639
  321MOL0     O43208   8.326  11.375   6.674  0.6695  0.3297  0.4604
  321MOL0     C43209   8.389  11.467   6.590 -0.3019 -0.9482 -0.2150
  321MOL0     C43210   8.538  11.450   6.623 -0.7908 -0.2747 -0.2959
  321MOL0     C43211   8.640  11.507   6.515 -0.1178  1.1394  0.1739
  321MOL0     C43212   8.775  11.523   6.584 -0.4186  0.4402 -0.1357
  321MOL0     C43213   8.895  11.585   6.503  1.0396  0.0475  0.1408
  321MOL0     C43214   9.018  11.597   6.594  0.0517 -0.1594  0.3929
  321MOL0     C43215   9.001  11.728   6.675 -0.3336  0.4498  0.4546
  321MOL0     C43216   9.098  11.709   6.786 -0.6730  0.2162  0.7793
  321MOL0     N43217   9.099  11.826   6.881 -0.2782  0.3282 -0.4589
  321MOL0     C43218   9.029  11.950   6.861  0.1774 -0.1217  0.1841
  321MOL0     C43219   9.069  12.026   6.965 -0.4447 -0.2865  0.1275
  321MOL0     C43220   9.051  12.168   6.989 -0.0854 -0.3719 -0.4976
  321MOL0     C43221   8.909  12.173   7.056  0.0911 -0.2306  0.5286
  321MOL0     C43222   8.776  12.137   6.985 -0.0526  0.0258  0.2602
  321MOL0     C43223   8.659  12.200   7.053 -0.2265 -0.0530 -0.5820
  321MOL0     O43224   8.613  12.130   7.174  0.5507 -0.6252  0.7967
  321MOL0     C43225   8.473  12.141   7.183 -0.6283  0.8824  0.4476
  321MOL0     C43226   8.397  12.023   7.182  0.5711 -0.1340  0.0130
  321MOL0     C43227   8.251  12.029   7.175  0.6399 -0.9472 -0.2282
  321MOL0     C43228   8.161  11.906   7.188 -0.1838  0.2645  0.5480
  321MOL0     C43229   8.189  12.154   7.167 -0.1929  1.2196  0.3053
  321MOL0     C43230   8.039  12.165   7.152  0.3387  0.4190 -0.1057
  321MOL0     O43231   7.957  12.089   7.234  0.0683  0.0472  0.3540
  321MOL0     C43232   7.825  12.095   7.204  0.3978  0.6412 -0.0573
  321MOL0     C43233   7.755  11.982   7.151 -0.2652  0.5728  0.1308
  321MOL0     C43234   7.616  11.988   7.139 -0.7202 -0.2312  0.6817
  321MOL0     C43235   7.538  12.099   7.174  0.2485  0.2291 -1.1212
  321MOL0     O43236   7.404  12.102   7.142  0.3477  0.0803  0.1067
  321MOL0     C43237   7.359  12.207   7.048 -0.8704 -0.3389 -1.5930
  321MOL0     C43238   7.213  12.173   7.008  0.2786 -0.3647  0.4508
  321MOL0     C43239   7.119  12.156   7.129  0.0347 -0.0839  0.7433
  321MOL0     C43240   6.976  12.152   7.075  1.1134 -0.0217  0.4567
  321MOL0     C43241   6.876  12.134   7.189 -0.2107  0.2471 -0.2007
  321MOL0     C43242   6.733  12.105   7.144  0.2229 -1.2508  0.3503
  321MOL0     C43243   6.635  12.081   7.263 -0.5195 -0.1842 -0.9157
  321MOL0     C43244   6.494  12.083   7.207  0.9787  0.0032  0.0724
  321MOL0    Cl43245   6.368  12.030   7.326  0.0997 -0.1019 -0.2723
  321MOL0     C43246   7.601  12.205   7.234  0.0868  0.7456  0.2162
  321MOL0     C43247   7.745  12.202   7.232  0.6511  0.6640 -0.0217
  321MOL0     O43248   7.994  12.258   7.081 -0.4023 -0.1344  0.2280
  321MOL0     C43249   8.270  12.270   7.167 -0.4343 -0.4150 -0.5683
  321MOL0     C43250   8.406  12.265   7.180  0.8536  0.1005 -1.1031
  321MOL0     N43251   9.154  11.960   7.042  0.1152 -0.1330  1.1198
  321MOL0     N43252   9.171  11.839   6.991  0.3469 -0.3774  0.4335
  321MOL0     C43253   8.113  11.383   6.587  0.8720 -0.2301 -0.4764
  321MOL0     C43254   7.978  11.357   6.588 -1.3192  0.6652 -0.3526
  321MOL0     C43255   7.610  11.157   6.783 -0.1085  0.4530  0.9195
  321MOL0     C43256   7.550  11.036   6.804 -0.3547 -0.2990  0.2216
  321MOL0     C43257   7.419  11.032   6.826  0.1975  0.0820  0.8505
  321MOL0     C43258   7.340  11.138   6.840 -0.0147  0.6249  0.0929
  321MOL0     O43259   7.209  11.106   6.851 -0.0163 -0.0615  0.2208
  321MOL0     C43260   7.126  11.194   6.931 -0.5680  0.1680  0.2164
  321MOL0     C43261   6.996  11.135   6.980  0.4813  0.1144  0.3238
  321MOL0     C43262   6.949  11.203   7.102  0.5461  1.3006  0.1472
  321MOL0     C43263   6.821  11.120   7.152 -0.2683  0.1125  0.3449
  321MOL0     C43264   6.846  11.019   7.251 -0.8710 -0.0146 -0.3812
  321MOL0     C43265   6.885  10.935   7.334 -0.2160  0.6122 -0.4448
  321MOL0     C43266   7.400  11.266   6.830  0.3792 -0.5950 -1.2056
  321MOL0     C43267   7.529  11.273   6.804 -0.9788  0.4502  0.1221
  321MOL0     H43268   7.953  11.276   6.918  0.0751  1.4167  0.1267
  321MOL0     H43269   8.208  11.322   6.905  1.2595 -2.8135 -0.5744
  321MOL0     H43270   8.373  11.438   6.486 -0.6716  0.9771 -0.7398
  321MOL0     H43271   8.364  11.573   6.604  1.4131 -0.6691  1.0752
  321MOL0     H43272   8.575  11.499   6.713 -1.8105 -0.7796  0.4252
  321MOL0     H43273   8.555  11.343   6.641  2.5580  0.1026 -0.6817
  321MOL0     H43274   8.656  11.442   6.428  3.3554 -0.8903  2.0889
  321MOL0     H43275   8.616  11.608   6.479  0.2500  0.4416 -2.2342
  321MOL0     H43276   8.760  11.595   6.665  1.6032  0.7744 -0.0036
  321MOL0     H43277   8.809  11.428   6.627 -0.7304 -0.8311 -2.5497
  321MOL0     H43278   8.924  11.517   6.422  0.1821  1.1264 -1.0983
  321MOL0     H43279   8.872  11.680   6.455  3.9268  0.8187  0.1045
  321MOL0     H43280   9.030  11.514   6.665 -1.9958 -0.8125  0.0271
  321MOL0     H43281   9.111  11.605   6.536 -1.6981 -1.2354 -2.7646
  321MOL0     H43282   9.030  11.812   6.611  2.3486 -1.5868 -1.1832
  321MOL0     H43283   8.896  11.734   6.707 -1.1110  1.0908 -2.0286
  321MOL0     H43284   9.196  11.697   6.741  0.0669  1.7275  1.9270
  321MOL0     H43285   9.071  11.616   6.839 -3.7082 -1.5647 -3.2737
  321MOL0     H43286   8.973  11.984   6.774 -0.2486 -1.5164 -0.1105
  321MOL0     H43287   9.133  12.203   7.052 -0.0213 -1.1885 -0.1051
  321MOL0     H43288   9.039  12.222   6.895 -0.7542 -0.0199 -0.2150
  321MOL0     H43289   8.896  12.273   7.098 -0.5000 -0.5456  1.1214
  321MOL0     H43290   8.913  12.099   7.137 -0.9280  0.7373  1.5013
  321MOL0     H43291   8.769  12.028   6.985 -0.2422  0.0146 -1.2056
  321MOL0     H43292   8.792  12.169   6.881 -0.2739  4.7249  1.4480
  321MOL0     H43293   8.577  12.203   6.981 -1.9559  0.8474  1.3157
  321MOL0     H43294   8.688  12.300   7.086  4.4734 -1.1346 -0.7019
  321MOL0     H43295   8.446  11.927   7.189 -0.6923 -0.7796  0.3898
  321MOL0     H43296   8.211  11.818   7.146 -1.6767 -0.5498  0.4427
  321MOL0     H43297   8.129  11.889   7.291  0.2878 -1.7797  0.4135
  321MOL0     H43298   8.069  11.908   7.129  0.4989  1.2262 -0.5404
  321MOL0     H43299   7.798  11.884   7.132  0.4755  1.0284 -0.5985
  321MOL0     H43300   7.559  11.906   7.098  2.8931 -1.5665 -2.2788
  321MOL0     H43301   7.365  12.303   7.101 -2.9724 -1.8583  1.7743
  321MOL0     H43302   7.422  12.208   6.959 -0.7643 -2.1099 -1.5734
  321MOL0     H43303   7.171  12.253   6.945  0.2606  1.1000  2.2448
  321MOL0     H43304   7.224  12.085   6.944  2.8771  1.1034 -1.3236
  321MOL0     H43305   7.142  12.232   7.204  1.8168 -0.2862  0.4579
  321MOL0     H43306   7.142  12.057   7.169  1.4401 -0.0551  0.0760
  321MOL0     H43307   6.953  12.249   7.030 -2.0535  0.1624  2.1371
  321MOL0     H43308   6.954  12.071   7.006  1.5098  0.7468 -0.5940
  321MOL0     H43309   6.867  12.221   7.256 -2.8643 -0.0292 -0.1071
  321MOL0     H43310   6.912  12.044   7.239 -2.1098 -0.6934 -0.4384
  321MOL0     H43311   6.695  12.182   7.076  1.0998 -1.6075 -0.5628
  321MOL0     H43312   6.724  12.015   7.083 -1.5616  0.1592 -1.6430
  321MOL0     H43313   6.642  12.164   7.334 -2.8859 -1.1758  0.6005
  321MOL0     H43314   6.660  11.989   7.315 -2.3592 -1.5273 -2.2566
  321MOL0     H43315   6.486  12.010   7.126  0.0162 -0.7894  0.8597
  321MOL0     H43316   6.473  12.182   7.166  2.7579  0.3260 -0.1600
  321MOL0     H43317   7.548  12.293   7.270  2.1749  1.1429  2.5130
  321MOL0     H43318   7.797  12.288   7.272  0.3050  1.0922 -0.4777
  321MOL0     H43319   8.210  12.360   7.158 -1.6687 -1.3331 -2.1867
  321MOL0     H43320   8.462  12.358   7.185  2.6781 -0.8869 -2.0672
  321MOL0     H43321   8.156  11.413   6.492  2.1776  0.4791  0.3161
  321MOL0     H43322   7.919  11.359   6.497 -0.6888  0.2786 -0.7759
  321MOL0     H43323   7.602  10.941   6.796  0.4285  0.1383 -0.0227
  321MOL0     H43324   7.376  10.932   6.832  0.7379 -0.3201 -1.0936
  321MOL0     H43325   7.177  11.222   7.024 -2.2966  2.0543  0.6735
  321MOL0     H43326   7.102  11.287   6.878  0.1298  0.4123  0.3187
  321MOL0     H43327   6.998  11.026   6.980 -1.8702 -0.0135 -1.2762
  321MOL0     H43328   6.920  11.170   6.909  2.3214  2.7744 -0.5015
  321MOL0     H43329   6.915  11.297   7.059  0.5699  1.8600  1.3260
  321MOL0     H43330   7.023  11.226   7.179 -0.9608  2.5680  1.2849
  321MOL0     H43331   6.780  11.074   7.061 -0.9572  1.4056 -0.0305
  321MOL0     H43332   6.747  11.188   7.196 -1.5872 -1.9256  1.4054
  321MOL0     H43333   6.927  10.867   7.405  0.2081 -2.2497 -3.2232
  321MOL0     H43334   7.335  11.350   6.853  0.9398 -1.1484  3.3586
  321MOL0     H43335   7.578  11.367   6.779 -0.3545 -0.3112 -1.7602
  322MOL0     O43336   0.060   1.559   5.400  0.4124 -0.0628  0.3385
  322MOL0     C43337   0.169   1.501   5.370  0.7643  0.2288  0.4171
  322MOL0     O43338   0.191   1.400   5.280  0.3437  0.6143  0.1142
  322MOL0     C43339   0.089   1.337   5.212  0.5587 -0.4086 -0.1576
  322MOL0     C43340   0.129   1.259   5.100  0.3651  0.2176 -0.5490
  322MOL0     C43341   0.038   1.213   5.003 -0.3145  0.3652 -0.4470
  322MOL0     C43342  -0.096   1.224   5.035  1.5606 -0.3665  0.2045
  322MOL0     O43343  -0.191   1.178   4.940 -0.0384  0.2555  0.5188
  322MOL0     C43344  -0.329   1.206   4.947  0.7405  0.2950  0.4494
  322MOL0     C43345  -0.414   1.100   4.860 -0.5196  0.0264 -0.0211
  322MOL0     C43346  -0.573   1.089   4.898  0.4401  0.1538  0.4424
  322MOL0     C43347  -0.644   1.200   4.830 -0.2125  0.0976  0.4585
  322MOL0     C43348  -0.775   1.237   4.891  0.5078 -0.0837 -0.0519
  322MOL0     C43349  -0.888   1.131   4.900  0.2592 -0.2131 -0.2010
  322MOL0     C43350  -1.009   1.178   4.971  0.0076  0.2031  0.4167
  322MOL0     C43351  -1.104   1.248   4.869  0.7887 -0.4041 -1.1657
  322MOL0     N43352  -1.236   1.292   4.928 -0.1343  0.3474  0.2207
  322MOL0     C43353  -1.246   1.327   5.065  0.0992  0.8160  0.1434
  322MOL0     C43354  -1.381   1.362   5.074  0.1243  0.5418 -0.4891
  322MOL0     C43355  -1.452   1.390   5.199  0.4069 -0.7500  0.6586
  322MOL0     C43356  -1.471   1.271   5.285  0.0917 -0.9457 -0.6543
  322MOL0     C43357  -1.560   1.169   5.225 -0.9478 -0.3836  0.7164
  322MOL0     C43358  -1.558   1.040   5.313 -1.1533  0.1514  0.0981
  322MOL0     O43359  -1.610   1.058   5.444  0.6458  0.5245  0.2689
  322MOL0     C43360  -1.744   1.089   5.450  0.4538 -0.3629  0.0713
  322MOL0     C43361  -1.782   1.179   5.551  0.6998  0.3131 -0.3015
  322MOL0     C43362  -1.916   1.217   5.567 -0.1649  0.6940 -0.4326
  322MOL0     C43363  -1.952   1.303   5.678 -0.4976  0.3932  0.3226
  322MOL0     C43364  -2.016   1.163   5.479 -0.3437 -0.6720  0.4543
  322MOL0     C43365  -2.159   1.199   5.477 -1.0066 -0.1776  0.0410
  322MOL0     O43366  -2.204   1.210   5.353  0.6076 -0.4742  1.4131
  322MOL0     C43367  -2.328   1.252   5.325  1.1525 -0.6622 -0.7470
  322MOL0     C43368  -2.363   1.385   5.346  1.2484 -0.4279  0.6313
  322MOL0     C43369  -2.489   1.427   5.318  0.4394  0.0650 -0.9995
  322MOL0     C43370  -2.588   1.330   5.287 -0.8268  0.8004  0.6297
  322MOL0     O43371  -2.712   1.379   5.259 -0.1657 -0.0527  0.4285
  322MOL0     C43372  -2.820   1.289   5.220 -0.0605 -0.3513 -0.2843
  322MOL0     C43373  -2.887   1.240   5.348  0.7778 -0.3428  0.6600
  322MOL0     C43374  -3.013   1.170   5.309  0.1347 -0.3380 -0.7113
  322MOL0     C43375  -3.064   1.086   5.429  0.4506  0.8354 -1.1152
  322MOL0     C43376  -3.174   0.992   5.384  0.2070 -0.0308  0.5859
  322MOL0     C43377  -3.244   0.917   5.497 -0.0353  0.0472  0.3980
  322MOL0     C43378  -3.368   0.843   5.452 -0.5470 -0.9966 -0.7792
  322MOL0     C43379  -3.429   0.743   5.562 -0.3838 -0.4394  0.9233
  322MOL0    Cl43380  -3.483   0.849   5.701  0.4095  0.6569 -0.5380
  322MOL0     C43381  -2.558   1.195   5.286  0.8301  0.6906 -1.2330
  322MOL0     C43382  -2.429   1.153   5.303  0.2606  0.1427  0.9507
  322MOL0     O43383  -2.228   1.212   5.580  0.1420 -0.2137 -0.2814
  322MOL0     C43384  -1.973   1.071   5.384 -0.4430  0.1524  0.5981
  322MOL0     C43385  -1.843   1.035   5.364 -0.7886  0.9214 -0.1987
  322MOL0     N43386  -1.444   1.331   4.954  0.4066 -1.0008  0.7293
  322MOL0     N43387  -1.363   1.289   4.873 -0.6092 -0.1224 -0.4719
  322MOL0     C43388  -0.142   1.298   5.144 -0.4113  0.2181 -0.7002
  322MOL0     C43389  -0.050   1.352   5.240 -0.2256 -0.1508 -0.3811
  322MOL0     C43390   0.298   1.553   5.433  0.3886  0.3901  0.7408
  322MOL0     C43391   0.287   1.655   5.538 -0.8880  0.5878  0.7687
  322MOL0     C43392   0.405   1.717   5.585 -0.2041  0.7427 -0.2337
  322MOL0     C43393   0.529   1.697   5.522 -0.0622 -0.4391 -0.3878
  322MOL0     O43394   0.636   1.771   5.555  0.4927 -0.0593  0.4833
  322MOL0     C43395   0.628   1.873   5.657  0.0818  0.3919  0.9789
  322MOL0     C43396   0.769   1.921   5.696  0.4722 -0.6216 -0.3449
  322MOL0     C43397   0.833   1.807   5.766 -0.3561  0.6362 -0.1524
  322MOL0     C43398   0.972   1.849   5.815 -1.0141 -0.6885 -0.5565
  322MOL0     C43399   0.961   1.946   5.924  0.4094 -0.5363  0.3297
  322MOL0     C43400   0.936   2.035   6.005 -0.1135 -0.1769 -0.4680
  322MOL0     C43401   0.538   1.598   5.424  0.0849  0.2326  0.3684
  322MOL0     C43402   0.425   1.523   5.387  0.2189  0.3237 -0.5969
  322MOL0     H43403   0.236   1.256   5.081  0.5979  2.1083  0.2507
  322MOL0     H43404   0.068   1.168   4.909 -1.9776 -0.7076 -0.4962
  322MOL0     H43405  -0.362   1.202   5.051  1.6140  3.5661  0.9951
  322MOL0     H43406  -0.345   1.307   4.906 -0.7430  0.3226  1.0310
  322MOL0     H43407  -0.405   1.139   4.758  1.8344  0.5899  0.3328
  322MOL0     H43408  -0.355   1.007   4.867 -0.4306  0.2093  3.0829
  322MOL0     H43409  -0.614   0.991   4.870  1.1328  0.3505 -1.3292
  322MOL0     H43410  -0.587   1.100   5.006  0.5719 -1.0216  0.5927
  322MOL0     H43411  -0.581   1.288   4.840 -2.7410  2.0398  0.3592
  322MOL0     H43412  -0.654   1.183   4.722 -1.3639  0.5338  0.4809
  322MOL0     H43413  -0.746   1.269   4.991  2.2026 -2.1836  0.1971
  322MOL0     H43414  -0.813   1.319   4.829 -0.4830 -1.4901 -1.4165
  322MOL0     H43415  -0.925   1.093   4.805  0.6468  0.3674 -0.5909
  322MOL0     H43416  -0.845   1.050   4.960  1.3150 -0.3126 -1.0587
  322MOL0     H43417  -1.058   1.093   5.019  2.3949 -0.4984  1.7986
  322MOL0     H43418  -0.968   1.247   5.046 -1.6630 -1.2327  2.7891
  322MOL0     H43419  -1.136   1.185   4.785 -1.8028 -3.8310  2.0667
  322MOL0     H43420  -1.052   1.336   4.828 -0.2567  1.3321  1.0239
  322MOL0     H43421  -1.168   1.330   5.140  0.7016  0.1073 -0.4400
  322MOL0     H43422  -1.388   1.456   5.258  3.1003 -1.2842 -1.4461
  322MOL0     H43423  -1.540   1.452   5.178  1.2804  1.1312  2.2315
  322MOL0     H43424  -1.499   1.302   5.387  3.1867  0.7970 -0.2132
  322MOL0     H43425  -1.374   1.221   5.288  0.5761 -0.1935 -2.7454
  322MOL0     H43426  -1.532   1.136   5.125 -2.5510 -0.4650  0.2576
  322MOL0     H43427  -1.663   1.204   5.214  0.3052  3.2850 -0.5014
  322MOL0     H43428  -1.457   0.999   5.319 -1.9615 -2.1385 -0.8513
  322MOL0     H43429  -1.609   0.951   5.276  0.9596 -2.3639  2.7543
  322MOL0     H43430  -1.701   1.214   5.614  0.6209  2.7285 -1.4178
  322MOL0     H43431  -2.033   1.257   5.736 -1.6244 -2.3481 -3.0743
  322MOL0     H43432  -1.867   1.324   5.744  0.7133 -0.1609 -1.0093
  322MOL0     H43433  -1.990   1.397   5.637  1.6090  1.4712  0.7146
  322MOL0     H43434  -2.286   1.456   5.375  2.9575 -1.3462 -1.4159
  322MOL0     H43435  -2.513   1.533   5.322  2.4507  0.5975 -1.6579
  322MOL0     H43436  -2.892   1.349   5.165  2.0831 -0.5577 -3.6030
  322MOL0     H43437  -2.778   1.214   5.152 -0.1311 -2.2820  1.6967
  322MOL0     H43438  -2.811   1.179   5.396  1.1766 -0.5481 -0.2013
  322MOL0     H43439  -2.906   1.327   5.412  0.3925 -1.0138  1.4711
  322MOL0     H43440  -2.985   1.105   5.226  3.7924  1.7897 -1.3472
  322MOL0     H43441  -3.096   1.234   5.277  0.1153 -0.6193 -1.2365
  322MOL0     H43442  -2.990   1.040   5.496 -0.5315  0.3332 -0.3404
  322MOL0     H43443  -3.111   1.160   5.496  2.9997 -0.4419  2.3744
  322MOL0     H43444  -3.127   0.924   5.312 -1.5799  0.0920 -0.7527
  322MOL0     H43445  -3.246   1.057   5.334  2.0396  1.3436 -0.3938
  322MOL0     H43446  -3.162   0.865   5.547  1.9329  1.5910 -1.0427
  322MOL0     H43447  -3.274   0.996   5.566  2.0187  1.7659 -0.5577
  322MOL0     H43448  -3.340   0.773   5.373  2.4491 -1.7792  0.8169
  322MOL0     H43449  -3.438   0.919   5.414  2.2586  2.5644  0.5883
  322MOL0     H43450  -3.353   0.671   5.591  0.0148 -0.7115 -0.6960
  322MOL0     H43451  -3.514   0.683   5.527  1.3651 -1.9577 -0.9022
  322MOL0     H43452  -2.631   1.116   5.272  0.4977 -0.1486  3.5506
  322MOL0     H43453  -2.414   1.045   5.305 -1.4533 -0.1843 -0.5763
  322MOL0     H43454  -2.038   1.018   5.316 -1.1058  2.2145 -0.4842
  322MOL0     H43455  -1.821   0.967   5.282 -1.6056 -0.8483  0.9927
  322MOL0     H43456  -0.249   1.311   5.152 -0.6688 -1.4608 -0.9762
  322MOL0     H43457  -0.092   1.398   5.329 -1.4736 -2.6789  0.4236
  322MOL0     H43458   0.192   1.691   5.577 -2.3196 -1.4968 -0.5212
  322MOL0     H43459   0.402   1.800   5.655  0.3161  1.0372 -0.5539
  322MOL0     H43460   0.576   1.958   5.611 -1.1674 -0.2600  1.1614
  322MOL0     H43461   0.574   1.840   5.746 -0.1559  0.2047  0.7648
  322MOL0     H43462   0.773   2.007   5.764  1.5410  0.3043 -1.5484
  322MOL0     H43463   0.816   1.941   5.600 -0.3359  0.3655 -0.5569
  322MOL0     H43464   0.846   1.722   5.699  2.1410 -0.8752  2.0199
  322MOL0     H43465   0.780   1.789   5.860  3.1766 -0.7457  1.8048
  322MOL0     H43466   1.034   1.890   5.734 -1.9010 -1.8668 -1.8979
  322MOL0     H43467   1.028   1.761   5.849 -0.5684 -1.2720 -2.6054
  322MOL0     H43468   0.920   2.104   6.085  1.2891 -1.4460  0.9589
  322MOL0     H43469   0.634   1.578   5.376  0.1833 -4.2178  1.9695
  322MOL0     H43470   0.433   1.434   5.324  0.1624 -1.0912  1.3004
  323MOL0     O43471   4.578   4.862   4.451  0.9861 -0.3550 -0.4650
  323MOL0     C43472   4.665   4.774   4.480 -0.7341  0.2882  0.4783
  323MOL0     O43473   4.649   4.646   4.481  0.0520  0.2806  0.0686
  323MOL0     C43474   4.537   4.575   4.462 -0.3071 -0.6177 -0.0539
  323MOL0     C43475   4.403   4.621   4.452  0.4306 -0.0404  0.9854
  323MOL0     C43476   4.291   4.538   4.445 -0.4622 -0.2607 -0.0795
  323MOL0     C43477   4.307   4.399   4.445 -0.2262 -0.7139 -0.7251
  323MOL0     O43478   4.206   4.305   4.432  0.3639 -0.2186 -0.2713
  323MOL0     C43479   4.087   4.315   4.513 -0.0495  0.0871  0.3991
  323MOL0     C43480   3.957   4.369   4.440 -1.4252  0.3141  0.4531
  323MOL0     C43481   3.884   4.239   4.374 -0.7959 -0.1631 -0.4497
  323MOL0     C43482   3.916   4.197   4.225  0.5681 -0.0085 -0.6504
  323MOL0     C43483   3.842   4.067   4.181  0.6821 -0.2580 -0.4333
  323MOL0     C43484   3.863   4.059   4.026  0.2674  0.8716  0.1011
  323MOL0     C43485   3.826   3.910   3.982  0.5194 -0.5924  0.3397
  323MOL0     C43486   3.925   3.807   4.034  0.4579 -0.5088  0.7253
  323MOL0     N43487   3.914   3.688   3.943  0.4787  0.2468  0.6137
  323MOL0     C43488   3.794   3.613   3.920  1.3764 -0.4645 -0.4097
  323MOL0     C43489   3.829   3.533   3.820 -0.3484  0.4673  0.1988
  323MOL0     C43490   3.756   3.429   3.739  0.1818  0.4090  0.1480
  323MOL0     C43491   3.760   3.288   3.813 -0.0765 -0.3527 -0.7923
  323MOL0     C43492   3.713   3.177   3.713 -0.0213  1.1557  0.4576
  323MOL0     C43493   3.679   3.044   3.781 -0.4958  0.0041  0.1267
  323MOL0     O43494   3.803   2.994   3.853  0.5772  0.6013 -0.8550
  323MOL0     C43495   3.925   2.957   3.793 -1.2142  0.3877 -0.4052
  323MOL0     C43496   4.039   2.953   3.869  0.5635 -0.3715  0.0024
  323MOL0     C43497   4.170   2.947   3.822  0.4991 -0.8592 -0.2565
  323MOL0     C43498   4.283   2.946   3.922 -0.7182  0.0677  0.2285
  323MOL0     C43499   4.188   2.922   3.678  0.0888 -0.2960 -0.2056
  323MOL0     C43500   4.322   2.902   3.613 -0.5718  0.7448 -0.1392
  323MOL0     O43501   4.421   2.857   3.692 -1.2192  0.3683  0.1155
  323MOL0     C43502   4.547   2.848   3.641 -0.5981 -0.8838 -0.5169
  323MOL0     C43503   4.612   2.730   3.665  1.2920 -0.3991 -0.6494
  323MOL0     C43504   4.747   2.715   3.619 -0.1854 -0.6685  0.0710
  323MOL0     C43505   4.811   2.819   3.545  0.0162  0.7044 -1.5084
  323MOL0     O43506   4.941   2.810   3.508  0.3437 -0.5778  0.1489
  323MOL0     C43507   4.995   2.674   3.503 -0.1482  0.2736 -0.0894
  323MOL0     C43508   5.081   2.654   3.632  0.0033 -0.4845 -0.8824
  323MOL0     C43509   5.202   2.756   3.648  0.6638  0.7308  1.1507
  323MOL0     C43510   5.265   2.710   3.779 -0.0611 -0.0725  0.7084
  323MOL0     C43511   5.380   2.810   3.817 -0.3984  0.2844 -1.0376
  323MOL0     C43512   5.435   2.771   3.952 -0.1861  0.1672  0.6944
  323MOL0     C43513   5.530   2.882   3.995  0.0031  0.1155  0.1296
  323MOL0     C43514   5.646   2.834   4.099  1.0930 -0.0887  0.3194
  323MOL0    Cl43515   5.765   2.973   4.113  0.4848  0.0388 -0.0016
  323MOL0     C43516   4.746   2.933   3.518  0.4856 -0.1153 -0.1905
  323MOL0     C43517   4.614   2.949   3.563  0.1430  0.2742  0.0897
  323MOL0     O43518   4.333   2.924   3.490  0.9033 -0.5181 -0.5394
  323MOL0     C43519   4.070   2.927   3.601 -0.1319 -0.6850  0.0418
  323MOL0     C43520   3.939   2.944   3.654 -1.0015  0.1797 -0.0251
  323MOL0     N43521   3.961   3.555   3.783  0.1402 -0.1762 -0.5577
  323MOL0     N43522   4.013   3.638   3.866  0.2345 -0.3425 -0.7429
  323MOL0     C43523   4.445   4.347   4.452  0.3622 -0.0054 -1.0608
  323MOL0     C43524   4.557   4.432   4.458 -0.2286 -0.9212  0.3711
  323MOL0     C43525   4.800   4.820   4.509 -0.4586 -0.6004 -0.1062
  323MOL0     C43526   4.904   4.718   4.533  0.8759 -0.6146 -0.5938
  323MOL0     C43527   5.037   4.767   4.541 -0.0352  1.0313 -0.4135
  323MOL0     C43528   5.066   4.902   4.520 -0.2491 -0.3228  0.2351
  323MOL0     O43529   5.196   4.937   4.500 -0.1758  0.3725  0.0330
  323MOL0     C43530   5.233   5.074   4.523 -0.3183  1.5125 -0.7410
  323MOL0     C43531   5.382   5.103   4.518  0.4678 -0.2295  0.0810
  323MOL0     C43532   5.464   5.018   4.615  0.3951  0.4970  0.7796
  323MOL0     C43533   5.613   5.051   4.586 -0.6936  0.4833  0.5530
  323MOL0     C43534   5.673   5.166   4.639 -0.3060  0.2646 -0.2926
  323MOL0     C43535   5.734   5.254   4.695 -0.0775 -0.1275 -0.1922
  323MOL0     C43536   4.967   4.993   4.498  0.0828 -0.0724  0.3890
  323MOL0     C43537   4.831   4.957   4.489  0.0044  0.8913  0.1421
  323MOL0     H43538   4.362   4.721   4.449 -2.3210 -1.0769  1.0708
  323MOL0     H43539   4.193   4.582   4.435 -1.1124 -1.2093  1.7604
  323MOL0     H43540   4.067   4.230   4.579  1.6710 -1.2389 -0.7055
  323MOL0     H43541   4.111   4.391   4.588 -2.1700 -1.8625  3.2733
  323MOL0     H43542   3.889   4.417   4.511  0.4831  0.7039  2.1158
  323MOL0     H43543   3.984   4.433   4.355 -0.6626  1.9367  1.8721
  323MOL0     H43544   3.918   4.154   4.435  3.6532  0.1767 -2.1068
  323MOL0     H43545   3.778   4.263   4.385 -0.5494  0.9702 -0.4669
  323MOL0     H43546   3.895   4.271   4.147  2.2019  1.0833 -0.1249
  323MOL0     H43547   4.021   4.179   4.201  0.7758  2.9301 -2.3879
  323MOL0     H43548   3.881   3.980   4.233 -0.5210 -0.2616  0.5145
  323MOL0     H43549   3.733   4.068   4.196  0.8766 -0.7812  1.0996
  323MOL0     H43550   3.802   4.125   3.964  0.8344  0.4163 -0.9900
  323MOL0     H43551   3.968   4.073   3.999  0.7502 -1.6536  0.4057
  323MOL0     H43552   3.724   3.883   4.011  0.4543 -0.7847 -0.0602
  323MOL0     H43553   3.839   3.913   3.873  1.7572  4.1820  0.3822
  323MOL0     H43554   3.901   3.766   4.132 -2.9396  0.5056  0.4243
  323MOL0     H43555   4.023   3.856   4.033 -0.9739  2.5690 -0.6843
  323MOL0     H43556   3.695   3.638   3.958  1.2307 -0.1831 -0.9687
  323MOL0     H43557   3.652   3.460   3.723  0.1086  2.9342  4.1028
  323MOL0     H43558   3.809   3.429   3.644  1.0920  1.3810  0.6384
  323MOL0     H43559   3.696   3.290   3.902 -0.8793  0.5460 -1.3750
  323MOL0     H43560   3.861   3.260   3.844  1.2288  2.5081 -2.1407
  323MOL0     H43561   3.785   3.174   3.631  2.0999 -1.7233  2.2325
  323MOL0     H43562   3.619   3.210   3.668 -2.2929 -3.6277  1.1005
  323MOL0     H43563   3.634   2.970   3.714 -2.1313  1.4292 -0.3944
  323MOL0     H43564   3.614   3.058   3.868 -1.6897 -0.4946 -0.6724
  323MOL0     H43565   4.013   2.967   3.973 -1.2852  0.8342 -0.5788
  323MOL0     H43566   4.239   2.951   4.023  0.2471  4.3387  0.6555
  323MOL0     H43567   4.364   2.872   3.923 -2.4004 -2.0183 -2.8394
  323MOL0     H43568   4.337   3.039   3.900 -0.2723 -0.3643 -0.5397
  323MOL0     H43569   4.573   2.663   3.741  1.5288  2.1384  1.8597
  323MOL0     H43570   4.806   2.631   3.655  0.0503 -0.9003 -0.8363
  323MOL0     H43571   4.926   2.589   3.493 -1.3228  1.1900  0.1132
  323MOL0     H43572   5.065   2.682   3.419  1.4363  0.8532  1.2371
  323MOL0     H43573   5.015   2.662   3.719 -0.2684 -2.8785 -0.8244
  323MOL0     H43574   5.117   2.551   3.628 -0.4510 -0.7041  0.3836
  323MOL0     H43575   5.159   2.856   3.658  0.8503  1.2133 -1.9900
  323MOL0     H43576   5.280   2.754   3.572  0.3820 -0.3766  0.8702
  323MOL0     H43577   5.193   2.720   3.860  0.1534 -0.3204  0.9331
  323MOL0     H43578   5.291   2.605   3.759 -2.7009 -0.5521 -0.5752
  323MOL0     H43579   5.331   2.907   3.832 -0.9412  0.0125 -1.0272
  323MOL0     H43580   5.453   2.807   3.735  0.1474  2.3023 -0.6874
  323MOL0     H43581   5.345   2.760   4.013 -0.6890  0.6489  0.0590
  323MOL0     H43582   5.494   2.680   3.947 -1.3928 -0.5787 -2.2337
  323MOL0     H43583   5.460   2.956   4.037 -0.5760 -1.8892  3.0327
  323MOL0     H43584   5.573   2.928   3.906 -0.7312 -0.7752 -0.7065
  323MOL0     H43585   5.674   2.737   4.056  0.0100 -1.1090  1.8279
  323MOL0     H43586   5.600   2.828   4.198 -4.4767  2.1139 -1.7108
  323MOL0     H43587   4.783   3.016   3.458  0.0475 -0.0006 -0.3096
  323MOL0     H43588   4.559   3.042   3.549 -0.4440  0.7030  4.0970
  323MOL0     H43589   4.078   2.913   3.493 -2.0980 -0.4653 -0.1732
  323MOL0     H43590   3.858   2.954   3.582 -0.5317  3.5121 -0.2434
  323MOL0     H43591   4.445   4.239   4.449 -2.5960 -0.3011  2.5116
  323MOL0     H43592   4.653   4.384   4.468 -0.4812 -1.4782  0.1437
  323MOL0     H43593   4.869   4.616   4.537 -1.8804  0.2445 -0.9402
  323MOL0     H43594   5.119   4.702   4.572  0.4015  1.1245 -1.3584
  323MOL0     H43595   5.181   5.133   4.446  1.9565  0.3684 -3.3350
  323MOL0     H43596   5.207   5.104   4.625  0.3125  0.7719 -0.3541
  323MOL0     H43597   5.395   5.203   4.560 -1.4121  0.0942 -0.0283
  323MOL0     H43598   5.416   5.094   4.415  2.6843  0.1616  0.7204
  323MOL0     H43599   5.437   4.913   4.604 -1.2457  1.0990 -1.6742
  323MOL0     H43600   5.440   5.048   4.718 -5.5389  0.7441 -0.3416
  323MOL0     H43601   5.638   5.045   4.479 -1.3414 -3.4257  0.4688
  323MOL0     H43602   5.665   4.958   4.611 -0.2210  0.2866 -1.0012
  323MOL0     H43603   5.770   5.347   4.736  0.1646 -0.7921  1.1679
  323MOL0     H43604   4.989   5.097   4.474 -1.5828  0.4507  1.0466
  323MOL0     H43605   4.754   5.033   4.483 -0.2825  0.6391  0.5157
  324MOL0     O43606  10.567   6.212   8.848  0.2211  0.0150  0.5562
  324MOL0     C43607  10.660   6.137   8.842 -0.3929 -1.0496  0.0901
  324MOL0     O43608  10.665   6.039   8.753 -0.7185 -0.4134 -0.5447
  324MOL0     C43609  10.582   6.026   8.644 -0.8079 -0.1774  0.5230
  324MOL0     C43610  10.578   6.126   8.553 -0.4765  0.3449 -0.8038
  324MOL0     C43611  10.522   6.107   8.432  0.9821  0.1494  0.0487
  324MOL0     C43612  10.485   5.982   8.383 -1.1009 -0.3690 -0.3431
  324MOL0     O43613  10.445   5.955   8.252 -0.4262 -0.8504  0.8834
  324MOL0     C43614  10.425   6.059   8.152 -0.5845  0.1887  0.4949
  324MOL0     C43615  10.349   6.000   8.023  0.5496  0.0154  0.3748
  324MOL0     C43616  10.216   5.924   8.054  0.2709 -0.7763 -0.3727
  324MOL0     C43617  10.146   5.875   7.925 -0.4221 -0.0323 -0.1824
  324MOL0     C43618  10.054   5.758   7.944 -0.0714  0.8051  0.0535
  324MOL0     C43619   9.924   5.802   8.014  0.4454  0.2191  0.1190
  324MOL0     C43620   9.833   5.669   8.016 -1.0122  0.3005  0.1402
  324MOL0     C43621   9.695   5.707   8.063  0.3739 -0.5371 -0.1347
  324MOL0     N43622   9.620   5.587   8.061  0.6605 -0.2481  0.5360
  324MOL0     C43623   9.519   5.564   7.972  0.4983  0.6592 -0.6018
  324MOL0     C43624   9.464   5.459   8.035  0.8431 -1.2082  0.4384
  324MOL0     C43625   9.342   5.392   7.976  0.3590 -0.5688  0.0657
  324MOL0     C43626   9.217   5.389   8.062  0.3413 -0.0614  0.3781
  324MOL0     C43627   9.154   5.532   8.069  0.1715 -0.7506  0.7135
  324MOL0     C43628   9.006   5.524   8.105 -0.5182  0.3987 -0.1688
  324MOL0     O43629   8.992   5.500   8.242  0.3047 -0.5202  0.2268
  324MOL0     C43630   8.879   5.461   8.305 -0.5709  0.4448 -0.8512
  324MOL0     C43631   8.895   5.400   8.430 -0.0213  0.8743 -0.2859
  324MOL0     C43632   8.778   5.351   8.499 -0.8396 -0.1341  0.8739
  324MOL0     C43633   8.801   5.278   8.633  0.1540 -0.2645  0.1554
  324MOL0     C43634   8.652   5.367   8.447  0.6606  0.0528  0.1194
  324MOL0     C43635   8.530   5.318   8.515  0.3459  0.4780  0.0988
  324MOL0     O43636   8.410   5.390   8.501  0.0441 -0.8122  0.3868
  324MOL0     C43637   8.290   5.328   8.514  0.3351 -0.6342  0.1644
  324MOL0     C43638   8.256   5.230   8.418 -0.7688  0.1509 -0.0176
  324MOL0     C43639   8.135   5.161   8.425 -0.3952  0.1435  0.8205
  324MOL0     C43640   8.037   5.206   8.518 -0.8352 -0.5630 -1.2783
  324MOL0     O43641   7.913   5.145   8.506  0.0638  0.2734  0.1292
  324MOL0     C43642   7.799   5.181   8.582  0.5416  0.8856 -1.2234
  324MOL0     C43643   7.709   5.273   8.499 -0.2328 -0.5456 -0.0966
  324MOL0     C43644   7.586   5.324   8.575 -0.7984 -0.5389 -0.4708
  324MOL0     C43645   7.475   5.229   8.590  0.2494 -0.3452 -0.1586
  324MOL0     C43646   7.342   5.305   8.597 -0.0429  0.3228  0.1290
  324MOL0     C43647   7.229   5.199   8.632  0.2444 -0.6764  0.6906
  324MOL0     C43648   7.108   5.287   8.683 -0.2272  0.4686  0.2583
  324MOL0     C43649   6.978   5.190   8.700  0.5096  0.9503  0.0008
  324MOL0    Cl43650   6.839   5.276   8.772 -0.3884 -0.0160  0.0171
  324MOL0     C43651   8.075   5.299   8.613 -0.0639  0.2622 -0.8995
  324MOL0     C43652   8.198   5.359   8.611  0.1520  0.2265  0.2026
  324MOL0     O43653   8.530   5.204   8.564 -0.3323 -0.3441 -0.4486
  324MOL0     C43654   8.636   5.432   8.328  0.0135  0.1142  0.5520
  324MOL0     C43655   8.749   5.474   8.257  0.5213 -0.4144 -0.3869
  324MOL0     N43656   9.535   5.407   8.141 -0.3063 -0.5417  0.3234
  324MOL0     N43657   9.622   5.494   8.159 -0.1161 -1.0095 -0.1385
  324MOL0     C43658  10.488   5.881   8.481  0.5989  0.0685 -0.6494
  324MOL0     C43659  10.539   5.897   8.614  0.3544 -0.5434  0.9166
  324MOL0     C43660  10.769   6.151   8.942  0.2464  0.2032 -0.0650
  324MOL0     C43661  10.888   6.079   8.912 -0.3695  0.1631  0.0728
  324MOL0     C43662  10.994   6.073   9.006 -0.5131 -0.1200  0.4186
  324MOL0     C43663  10.991   6.165   9.112  0.4985  1.3046 -0.2228
  324MOL0     O43664  11.098   6.177   9.196 -0.2428  0.2487 -0.2717
  324MOL0     C43665  11.222   6.226   9.155 -0.5870 -0.4623  0.3425
  324MOL0     C43666  11.227   6.373   9.169 -1.2148 -0.5909 -0.0698
  324MOL0     C43667  11.363   6.430   9.132  0.1566 -0.7673  0.0524
  324MOL0     C43668  11.386   6.573   9.185  0.2792  0.8086 -0.1452
  324MOL0     C43669  11.322   6.674   9.101 -0.1112  0.5559 -0.9481
  324MOL0     C43670  11.279   6.765   9.032  0.6859 -0.2281 -0.0387
  324MOL0     C43671  10.876   6.239   9.137 -0.2821 -0.0567  0.8864
  324MOL0     C43672  10.763   6.241   9.054 -0.5684  0.5279 -0.4612
  324MOL0     H43673  10.617   6.224   8.576  0.0059  0.8885 -3.5956
  324MOL0     H43674  10.512   6.200   8.376 -1.5181  0.5298  0.9699
  324MOL0     H43675  10.362   6.146   8.172  0.5861  0.9120  1.1731
  324MOL0     H43676  10.525   6.091   8.121  0.2583 -2.3641  0.3087
  324MOL0     H43677  10.317   6.079   7.954  1.9018  0.8533  0.6482
  324MOL0     H43678  10.426   5.939   7.974  2.4578  1.4605  1.4108
  324MOL0     H43679  10.240   5.834   8.109 -0.2180 -0.1205  0.9615
  324MOL0     H43680  10.144   5.985   8.109  0.0332 -1.3260 -0.0734
  324MOL0     H43681  10.086   5.955   7.883 -1.5738  0.1270  1.6580
  324MOL0     H43682  10.228   5.841   7.861  3.1765  2.2925  2.7538
  324MOL0     H43683  10.038   5.713   7.846 -0.3145 -1.0562  0.9001
  324MOL0     H43684  10.100   5.686   8.014 -3.3268 -0.4261  1.1269
  324MOL0     H43685   9.942   5.836   8.116 -0.4171 -0.4986  0.5291
  324MOL0     H43686   9.872   5.875   7.951  0.3127 -0.0647 -0.1009
  324MOL0     H43687   9.834   5.622   7.918  1.6044 -1.1498  0.7929
  324MOL0     H43688   9.876   5.599   8.089 -0.5708  1.3103  0.8818
  324MOL0     H43689   9.643   5.778   7.999  1.7193  1.5913  1.0165
  324MOL0     H43690   9.689   5.754   8.162  1.7037 -0.1011 -0.2396
  324MOL0     H43691   9.490   5.624   7.886 -0.1712 -2.9662 -3.1816
  324MOL0     H43692   9.312   5.416   7.874  2.5385 -2.2200 -1.0283
  324MOL0     H43693   9.368   5.286   7.965 -1.7980 -1.0919 -0.6543
  324MOL0     H43694   9.237   5.353   8.163 -0.3222  0.4782  0.7081
  324MOL0     H43695   9.149   5.318   8.013  1.3934 -0.2490 -0.8528
  324MOL0     H43696   9.163   5.573   7.968  3.5984  1.1172  1.6206
  324MOL0     H43697   9.200   5.600   8.141 -0.5275  0.7374 -0.1996
  324MOL0     H43698   8.959   5.447   8.043  0.5984 -1.7966  1.5570
  324MOL0     H43699   8.955   5.619   8.087  1.0200  1.5672  1.3353
  324MOL0     H43700   8.995   5.377   8.465 -0.1044  3.7400  2.1740
  324MOL0     H43701   8.909   5.286   8.650 -0.0759 -0.4331  1.8778
  324MOL0     H43702   8.749   5.321   8.718  1.8903  2.4893 -0.0435
  324MOL0     H43703   8.774   5.173   8.617 -0.1095 -0.3115  0.8783
  324MOL0     H43704   8.333   5.183   8.358 -2.7397 -2.8082 -0.4419
  324MOL0     H43705   8.105   5.085   8.354 -1.4830 -1.1331  2.5768
  324MOL0     H43706   7.745   5.086   8.596 -1.4539  1.9490 -1.2438
  324MOL0     H43707   7.813   5.230   8.678 -2.9357  5.2770 -2.5852
  324MOL0     H43708   7.763   5.349   8.442  0.8013 -1.9909 -1.1515
  324MOL0     H43709   7.669   5.213   8.416  0.7583 -2.1808  0.5473
  324MOL0     H43710   7.550   5.409   8.517 -0.0564  0.6958  0.8099
  324MOL0     H43711   7.618   5.357   8.674  4.0500 -0.8523 -1.6900
  324MOL0     H43712   7.475   5.162   8.504 -2.1204 -1.1645  0.4137
  324MOL0     H43713   7.478   5.162   8.677  0.1918 -1.8357 -1.2679
  324MOL0     H43714   7.318   5.362   8.507  1.2448 -0.3361 -0.6782
  324MOL0     H43715   7.353   5.373   8.682 -0.9635 -2.4239  2.5725
  324MOL0     H43716   7.197   5.140   8.546 -3.9509  0.2936  1.3516
  324MOL0     H43717   7.267   5.137   8.715 -0.0117 -0.1954  1.1727
  324MOL0     H43718   7.076   5.367   8.616 -0.4782  0.2784  0.1490
  324MOL0     H43719   7.148   5.332   8.775  0.8105 -0.8719  0.4914
  324MOL0     H43720   7.022   5.115   8.765  2.9253  2.6824  0.5165
  324MOL0     H43721   6.951   5.150   8.602  0.6000  0.1649  0.2968
  324MOL0     H43722   8.013   5.310   8.701 -0.8054 -1.0845 -1.2320
  324MOL0     H43723   8.233   5.426   8.690  2.7561  1.4971 -1.8755
  324MOL0     H43724   8.538   5.455   8.286 -0.6182  0.1228  1.9678
  324MOL0     H43725   8.726   5.525   8.164  0.3235  1.6683  0.7648
  324MOL0     H43726  10.465   5.783   8.442  1.8532  0.1430 -1.6365
  324MOL0     H43727  10.549   5.823   8.692  2.4561 -0.1143  1.1082
  324MOL0     H43728  10.906   6.020   8.824  2.2652 -0.7434  1.1172
  324MOL0     H43729  11.081   6.012   8.983  0.9002  1.6942  0.7019
  324MOL0     H43730  11.302   6.192   9.221 -0.8323  1.7615  1.9052
  324MOL0     H43731  11.237   6.206   9.048 -0.4831 -1.2609  0.5031
  324MOL0     H43732  11.219   6.375   9.278  1.1717 -0.1986  0.1517
  324MOL0     H43733  11.148   6.425   9.114  0.2797  2.7705  0.7020
  324MOL0     H43734  11.383   6.432   9.024  0.8215  0.7284  0.1829
  324MOL0     H43735  11.432   6.366   9.189  2.7847 -0.6187 -2.7097
  324MOL0     H43736  11.494   6.591   9.187  0.5646 -0.5713 -1.5016
  324MOL0     H43737  11.351   6.571   9.289  0.5259 -1.6274 -0.0344
  324MOL0     H43738  11.238   6.852   8.985  2.5996  1.3516  0.9988
  324MOL0     H43739  10.875   6.301   9.226 -1.8618  2.1210 -0.5659
  324MOL0     H43740  10.673   6.301   9.069 -1.8495 -1.5141  0.3709
  325MOL0     O43741   8.799   3.564   7.530  0.4281 -0.1726 -0.9315
  325MOL0     C43742   8.749   3.617   7.633 -0.9356 -0.1740 -0.3123
  325MOL0     O43743   8.826   3.673   7.736  0.5680  0.3806  0.1324
  325MOL0     C43744   8.960   3.690   7.711  0.1940  0.1739  0.0211
  325MOL0     C43745   9.045   3.586   7.725 -0.7585  0.6349 -0.0209
  325MOL0     C43746   9.189   3.603   7.704  0.1582  0.1305 -0.2102
  325MOL0     C43747   9.233   3.732   7.673 -0.5433  0.1847  0.2037
  325MOL0     O43748   9.368   3.740   7.645 -0.1648  0.4491  0.4006
  325MOL0     C43749   9.433   3.860   7.596  0.3068 -0.2619  0.2111
  325MOL0     C43750   9.577   3.841   7.553 -1.0999  0.4215 -0.0867
  325MOL0     C43751   9.634   3.948   7.467  0.0139  0.0261 -0.2343
  325MOL0     C43752   9.790   3.934   7.445  0.1169  0.2218 -0.2421
  325MOL0     C43753   9.852   4.049   7.365 -0.7590  0.2286 -0.8280
  325MOL0     C43754   9.797   4.068   7.223  0.4479  0.5662  0.4833
  325MOL0     C43755   9.831   3.952   7.132  1.5123 -0.3919  0.1240
  325MOL0     C43756   9.856   3.985   6.986 -0.2935 -0.0592  0.0271
  325MOL0     N43757   9.737   4.033   6.904 -0.5750 -0.5030 -1.1503
  325MOL0     C43758   9.654   3.958   6.822  0.5822  0.4390  0.6665
  325MOL0     C43759   9.553   4.044   6.785  0.1118 -0.3617 -0.0697
  325MOL0     C43760   9.427   4.022   6.703  0.0838  0.4368  0.1624
  325MOL0     C43761   9.302   4.057   6.792  0.2514  0.2700 -0.0699
  325MOL0     C43762   9.175   4.003   6.730 -0.2863 -0.0620  0.4247
  325MOL0     C43763   9.079   3.939   6.834  0.7103 -0.3825  0.6511
  325MOL0     O43764   8.962   3.896   6.770 -1.1246 -0.7324  0.2198
  325MOL0     C43765   8.871   3.839   6.853  0.6765 -0.9625 -0.4120
  325MOL0     C43766   8.751   3.810   6.786 -0.2436 -0.2504 -1.0379
  325MOL0     C43767   8.642   3.763   6.863 -1.0699  0.5211 -0.5077
  325MOL0     C43768   8.506   3.771   6.800  0.9515  0.6752  0.4697
  325MOL0     C43769   8.661   3.713   6.997 -1.5639  0.3355 -0.3098
  325MOL0     C43770   8.554   3.656   7.079 -1.3467  0.5699 -0.1736
  325MOL0     O43771   8.455   3.593   7.019  0.3875  0.5629 -0.5662
  325MOL0     C43772   8.379   3.502   7.090  0.0586  0.3505 -0.3760
  325MOL0     C43773   8.256   3.551   7.146  1.0137  1.3114 -0.2371
  325MOL0     C43774   8.172   3.464   7.209  0.8797  0.1559 -0.0481
  325MOL0     C43775   8.191   3.326   7.217 -0.7133  0.2440 -0.7458
  325MOL0     O43776   8.102   3.237   7.277 -0.4402 -0.0578  0.0936
  325MOL0     C43777   7.952   3.254   7.264 -0.7779  0.2151 -0.1158
  325MOL0     C43778   7.887   3.108   7.276 -0.6338  0.0379 -0.2015
  325MOL0     C43779   7.912   3.053   7.416  0.2773  0.9801  0.5172
  325MOL0     C43780   7.812   2.940   7.454  1.2076  0.1046 -0.0645
  325MOL0     C43781   7.866   2.797   7.449  0.0282 -0.2617 -0.2807
  325MOL0     C43782   7.922   2.762   7.311  0.8208  0.5170  0.2913
  325MOL0     C43783   7.926   2.612   7.301  0.2527 -0.6015  0.6309
  325MOL0     C43784   8.037   2.578   7.199 -0.0223 -0.4145 -0.3336
  325MOL0    Cl43785   8.205   2.645   7.233 -0.3929 -0.0681 -0.2429
  325MOL0     C43786   8.315   3.276   7.162 -0.5809 -0.0993 -0.2186
  325MOL0     C43787   8.413   3.373   7.116 -0.3746  0.4293 -1.0751
  325MOL0     O43788   8.561   3.670   7.201  0.2654 -0.2171  0.0870
  325MOL0     C43789   8.788   3.736   7.050  0.4740  1.3610 -0.9855
  325MOL0     C43790   8.892   3.808   6.988  0.5268  0.0329 -0.0301
  325MOL0     N43791   9.582   4.172   6.835 -0.1305  0.7826 -0.5121
  325MOL0     N43792   9.699   4.171   6.901 -0.4703 -0.1645  0.2483
  325MOL0     C43793   9.147   3.844   7.679  0.3356 -0.5904 -0.2716
  325MOL0     C43794   9.013   3.819   7.701 -0.2102  1.3241  0.2620
  325MOL0     C43795   8.596   3.638   7.632 -1.1701  0.0821  0.3319
  325MOL0     C43796   8.534   3.677   7.752 -0.7853  0.5873 -0.3845
  325MOL0     C43797   8.401   3.714   7.754 -0.5312  0.1366  0.0620
  325MOL0     C43798   8.322   3.696   7.640 -0.4530 -0.3962  0.0081
  325MOL0     O43799   8.192   3.730   7.647 -0.2998  0.1880 -0.0352
  325MOL0     C43800   8.107   3.617   7.680  0.3302  0.6039  0.7267
  325MOL0     C43801   7.972   3.650   7.736 -0.9162  0.0835  0.4152
  325MOL0     C43802   7.972   3.721   7.867  0.4239  0.3267  0.1820
  325MOL0     C43803   7.977   3.612   7.970  0.3165  1.0729 -0.4679
  325MOL0     C43804   7.993   3.674   8.101 -0.3844 -0.6433  0.1097
  325MOL0     C43805   7.998   3.736   8.205  0.3971 -0.4094 -0.3527
  325MOL0     C43806   8.387   3.652   7.512 -0.6038  0.3008 -0.8929
  325MOL0     C43807   8.519   3.612   7.521  0.1396 -0.0265  0.4125
  325MOL0     H43808   9.002   3.491   7.755 -1.6142  0.3454 -1.9744
  325MOL0     H43809   9.245   3.510   7.710 -2.2133 -1.5238 -2.1387
  325MOL0     H43810   9.380   3.881   7.503  0.6882 -0.6923 -0.1073
  325MOL0     H43811   9.409   3.940   7.667 -1.2612 -1.6570  1.3415
  325MOL0     H43812   9.639   3.835   7.643  0.9488  3.2465 -1.1303
  325MOL0     H43813   9.591   3.750   7.494 -2.0332  1.2532 -1.6691
  325MOL0     H43814   9.569   3.952   7.379 -1.0941 -1.5957  0.4625
  325MOL0     H43815   9.633   4.041   7.524 -1.3066 -0.5982  0.8265
  325MOL0     H43816   9.836   3.919   7.543  0.7268  2.9972 -0.0255
  325MOL0     H43817   9.800   3.839   7.392 -1.0735 -0.0183 -0.0669
  325MOL0     H43818   9.849   4.138   7.428  3.0656 -2.0597  3.1590
  325MOL0     H43819   9.961   4.034   7.359 -0.3237  1.2997  2.3278
  325MOL0     H43820   9.688   4.076   7.233  0.3235 -1.0831  0.7445
  325MOL0     H43821   9.816   4.165   7.177 -3.2272  1.1486 -0.1518
  325MOL0     H43822   9.923   3.920   7.183  0.6263  1.1598  2.8832
  325MOL0     H43823   9.759   3.870   7.144  4.2496 -2.9996 -0.0037
  325MOL0     H43824   9.901   3.897   6.939 -0.5370 -0.9894  1.4949
  325MOL0     H43825   9.934   4.061   6.978  0.3023 -0.6719 -0.1435
  325MOL0     H43826   9.670   3.856   6.788 -0.4653  0.7266 -0.7921
  325MOL0     H43827   9.418   4.077   6.610  0.9236 -0.0121 -0.1970
  325MOL0     H43828   9.428   3.916   6.677  2.5182  0.0900  1.3327
  325MOL0     H43829   9.294   4.165   6.810 -2.2921  0.3950 -1.5770
  325MOL0     H43830   9.308   4.011   6.892 -1.5713 -0.5143 -0.2790
  325MOL0     H43831   9.208   3.945   6.644  0.4173  1.9705 -0.7489
  325MOL0     H43832   9.124   4.090   6.688 -0.1798  0.0613  0.5504
  325MOL0     H43833   9.050   4.007   6.914  0.8005  0.0075  0.3576
  325MOL0     H43834   9.130   3.856   6.884 -1.7668 -1.6153  1.2528
  325MOL0     H43835   8.740   3.844   6.684 -1.4255 -1.3970 -1.3248
  325MOL0     H43836   8.427   3.807   6.866 -0.0572 -0.1292 -0.2634
  325MOL0     H43837   8.506   3.835   6.712  1.5771 -3.3697 -2.8153
  325MOL0     H43838   8.470   3.671   6.773  0.3971  1.1952 -0.7638
  325MOL0     H43839   8.257   3.659   7.154  2.6378  1.2045  3.2359
  325MOL0     H43840   8.079   3.491   7.257  1.3786  1.0026  0.4646
  325MOL0     H43841   7.915   3.307   7.352 -1.7812 -0.7656  0.0782
  325MOL0     H43842   7.925   3.308   7.173 -3.1142 -2.2090 -0.9822
  325MOL0     H43843   7.780   3.128   7.265 -0.4167  1.9302  0.7401
  325MOL0     H43844   7.935   3.042   7.203  3.3925 -0.8810  2.8846
  325MOL0     H43845   7.887   3.119   7.500  1.5388 -0.7580  2.3471
  325MOL0     H43846   8.014   3.015   7.430 -0.4420 -1.9211 -1.2466
  325MOL0     H43847   7.773   2.952   7.555  1.1578 -5.1137  0.8182
  325MOL0     H43848   7.719   2.949   7.396  0.2659 -0.7599  1.2517
  325MOL0     H43849   7.780   2.733   7.472 -1.0645  1.6720  1.3953
  325MOL0     H43850   7.941   2.784   7.527 -2.1588  1.9644  2.4092
  325MOL0     H43851   7.862   2.807   7.232  2.2939  0.3511 -0.9599
  325MOL0     H43852   8.024   2.800   7.306 -0.1789  3.4179  0.3321
  325MOL0     H43853   7.826   2.575   7.279 -0.2136  1.8375 -2.0031
  325MOL0     H43854   7.957   2.562   7.393 -1.8111  0.2999  1.8888
  325MOL0     H43855   8.010   2.606   7.097  1.0882 -1.2292 -0.8757
  325MOL0     H43856   8.038   2.469   7.200 -0.0508 -0.4549  2.4447
  325MOL0     H43857   8.346   3.172   7.168  2.3571  0.7805  2.6357
  325MOL0     H43858   8.506   3.335   7.074 -1.6237 -3.6879 -0.5877
  325MOL0     H43859   8.808   3.707   7.153  1.0984  1.1611 -1.1603
  325MOL0     H43860   8.985   3.833   7.037  1.0818  1.3903 -1.6808
  325MOL0     H43861   9.192   3.941   7.660  0.7428 -0.8897 -0.8663
  325MOL0     H43862   8.944   3.902   7.714 -2.0464 -0.3421  1.8233
  325MOL0     H43863   8.585   3.699   7.845 -0.9581 -0.2135 -0.0885
  325MOL0     H43864   8.342   3.743   7.840 -1.9506  1.5433 -1.3150
  325MOL0     H43865   8.071   3.558   7.595 -2.2286 -0.8629  2.6575
  325MOL0     H43866   8.164   3.552   7.747  0.6420 -0.3181 -0.3999
  325MOL0     H43867   7.919   3.555   7.742  0.1910 -0.4634  2.6372
  325MOL0     H43868   7.932   3.713   7.656  2.1320 -0.2317 -1.5366
  325MOL0     H43869   7.878   3.777   7.868  0.2527  0.0445  0.5455
  325MOL0     H43870   8.044   3.803   7.874 -1.4818  2.3717 -2.3115
  325MOL0     H43871   8.068   3.554   7.952  0.3048  1.2102 -0.9920
  325MOL0     H43872   7.890   3.546   7.977 -1.0932  2.8821 -0.1932
  325MOL0     H43873   7.982   3.753   8.310 -0.4469  2.2762 -0.8323
  325MOL0     H43874   8.328   3.645   7.422 -0.2016 -0.9407 -1.0803
  325MOL0     H43875   8.563   3.556   7.439 -0.4423 -0.6226  0.4928
  326MOL0     O43876  10.574  11.016   0.875  0.1144 -0.7334  0.4831
  326MOL0     C43877  10.660  11.081   0.827  0.0911  0.2289 -0.1006
  326MOL0     O43878  10.716  11.185   0.890  0.2275 -0.2785 -0.2882
  326MOL0     C43879  10.655  11.251   0.995  0.4202 -0.6702 -0.7981
  326MOL0     C43880  10.693  11.228   1.132 -0.2821  0.0163  0.1780
  326MOL0     C43881  10.622  11.287   1.232  0.1259 -0.5417 -0.1952
  326MOL0     C43882  10.521  11.377   1.204  0.6379  0.0891 -1.1706
  326MOL0     O43883  10.475  11.441   1.320  0.6737 -0.5002 -0.0652
  326MOL0     C43884  10.401  11.571   1.299 -0.5884 -0.2401 -0.5100
  326MOL0     C43885  10.251  11.559   1.290  1.3134 -1.3209 -0.0903
  326MOL0     C43886  10.181  11.697   1.305  0.2302 -0.4627 -0.5182
  326MOL0     C43887  10.035  11.666   1.343 -0.2931  0.2813  0.1458
  326MOL0     C43888   9.939  11.778   1.398 -0.4232  0.8124 -0.3235
  326MOL0     C43889   9.806  11.778   1.328  0.7199  1.1091  0.3989
  326MOL0     C43890   9.714  11.898   1.365 -0.5630 -0.1712  0.2100
  326MOL0     C43891   9.764  12.028   1.293 -0.9054  0.1877  0.5006
  326MOL0     N43892   9.751  12.008   1.147 -0.1933  0.4917  0.0672
  326MOL0     C43893   9.628  11.992   1.088  0.0965 -0.3405 -0.4991
  326MOL0     C43894   9.648  12.011   0.961 -0.3499 -0.3343  0.7550
  326MOL0     C43895   9.547  12.020   0.852 -0.1316 -0.2547  0.7958
  326MOL0     C43896   9.614  11.966   0.716 -0.1974  0.6545 -0.3344
  326MOL0     C43897   9.518  11.973   0.602  1.1657  0.1178 -0.2599
  326MOL0     C43898   9.380  11.914   0.619  0.1397 -0.3544 -0.3766
  326MOL0     O43899   9.319  11.934   0.491 -0.7593  0.3598 -0.1224
  326MOL0     C43900   9.186  11.922   0.475  1.0883 -0.0182 -0.0085
  326MOL0     C43901   9.134  11.952   0.357 -0.4675 -0.1275  0.8215
  326MOL0     C43902   8.994  11.936   0.333  0.7651 -0.3268 -0.1867
  326MOL0     C43903   8.953  11.980   0.193 -0.6302  1.1326  0.2953
  326MOL0     C43904   8.913  11.886   0.437  0.2468  0.6609  0.9901
  326MOL0     C43905   8.762  11.873   0.422  0.2761  0.0506 -0.4539
  326MOL0     O43906   8.711  11.840   0.299 -0.4644  0.4992 -0.0090
  326MOL0     C43907   8.581  11.797   0.288 -0.9415 -0.4016 -0.3916
  326MOL0     C43908   8.482  11.881   0.320 -0.3053 -0.6112  0.0731
  326MOL0     C43909   8.343  11.844   0.336 -0.1581  0.5010 -0.0387
  326MOL0     C43910   8.307  11.711   0.321  0.5059 -0.5042 -0.2076
  326MOL0     O43911   8.177  11.660   0.316 -0.1005  0.1772 -1.2706
  326MOL0     C43912   8.102  11.701   0.434 -0.0342 -0.8363 -0.5626
  326MOL0     C43913   7.979  11.792   0.395 -0.4664  0.8677  0.5963
  326MOL0     C43914   7.889  11.824   0.507 -0.4022 -0.6463  0.4387
  326MOL0     C43915   7.958  11.833   0.639  0.4983  0.3240 -0.0479
  326MOL0     C43916   7.857  11.853   0.752  0.0257 -0.4064 -0.4883
  326MOL0     C43917   7.947  11.873   0.883 -0.3645 -0.3086  0.0743
  326MOL0     C43918   7.869  11.899   1.010 -0.0313 -0.2019 -0.8375
  326MOL0     C43919   7.917  12.012   1.108 -0.4264  0.3660  1.1965
  326MOL0    Cl43920   8.094  11.981   1.133 -0.3024 -0.0247  0.0135
  326MOL0     C43921   8.411  11.628   0.277 -0.2334  0.4564  0.8822
  326MOL0     C43922   8.542  11.663   0.279  0.7376 -0.4539  1.4102
  326MOL0     O43923   8.695  11.894   0.523  0.5984 -0.0643  0.3175
  326MOL0     C43924   8.970  11.840   0.551  1.0575 -0.2495 -0.2694
  326MOL0     C43925   9.106  11.868   0.576  0.8361 -0.2054  0.3458
  326MOL0     N43926   9.781  12.045   0.942  0.2472 -0.5440 -0.2548
  326MOL0     N43927   9.842  12.045   1.053 -0.0413  0.1282  0.2942
  326MOL0     C43928  10.485  11.402   1.076  0.1015  0.1874  0.7283
  326MOL0     C43929  10.550  11.342   0.967 -0.0128  0.9259  0.1532
  326MOL0     C43930  10.740  11.022   0.708  0.8963 -0.0372 -1.0991
  326MOL0     C43931  10.882  11.025   0.704  0.4929 -0.0935 -0.0296
  326MOL0     C43932  10.950  10.980   0.588 -0.0001  0.7367 -0.4773
  326MOL0     C43933  10.878  10.926   0.479 -0.9687  0.6026  0.7976
  326MOL0     O43934  10.942  10.891   0.362 -1.0128 -0.4780  0.6991
  326MOL0     C43935  10.942  10.987   0.257 -0.0143  0.0929  0.3438
  326MOL0     C43936  11.034  11.113   0.289 -0.9263 -0.1875  0.3193
  326MOL0     C43937  11.182  11.082   0.338 -0.4474  0.0144  0.0450
  326MOL0     C43938  11.249  10.975   0.247 -0.2160  0.2009  0.0923
  326MOL0     C43939  11.398  10.987   0.253  0.6275  0.7576  0.1503
  326MOL0     C43940  11.519  11.010   0.268 -0.5891  0.1885 -0.1219
  326MOL0     C43941  10.744  10.919   0.488  0.1081  0.2494  0.2035
  326MOL0     C43942  10.677  10.964   0.599  0.1820 -0.4598 -0.9542
  326MOL0     H43943  10.767  11.152   1.152  1.0457  0.1619 -3.3921
  326MOL0     H43944  10.655  11.272   1.334 -2.1494 -3.2676  0.2392
  326MOL0     H43945  10.431  11.629   1.387  0.2954 -2.1161  0.4925
  326MOL0     H43946  10.445  11.627   1.217  0.4220 -1.1475 -0.6041
  326MOL0     H43947  10.212  11.522   1.195  1.9190  1.6923 -1.6132
  326MOL0     H43948  10.214  11.483   1.359  2.7806 -1.5183  0.5140
  326MOL0     H43949  10.228  11.747   1.390  0.7714  2.3894 -2.3465
  326MOL0     H43950  10.186  11.759   1.216  1.4340  0.8386  0.4130
  326MOL0     H43951   9.998  11.618   1.251 -1.4981 -0.9350  1.2225
  326MOL0     H43952  10.039  11.587   1.419  0.5278 -1.0975 -1.2481
  326MOL0     H43953   9.915  11.769   1.504 -0.1438 -1.0432 -0.3708
  326MOL0     H43954   9.986  11.875   1.382 -1.7815  1.7093  0.8859
  326MOL0     H43955   9.812  11.751   1.222 -0.0845 -2.1656  1.0611
  326MOL0     H43956   9.756  11.691   1.371  0.6811  1.9655  2.1796
  326MOL0     H43957   9.610  11.875   1.340  0.0220  0.2353 -2.9840
  326MOL0     H43958   9.711  11.916   1.473 -4.7396  3.0089 -0.1860
  326MOL0     H43959   9.867  12.050   1.323 -0.6565  1.2756 -1.0418
  326MOL0     H43960   9.696  12.111   1.318 -1.4359  0.2257 -0.9535
  326MOL0     H43961   9.530  11.964   1.126  0.3648  1.6900  1.9847
  326MOL0     H43962   9.467  11.947   0.870 -0.2582 -0.1520  0.6555
  326MOL0     H43963   9.500  12.119   0.852  1.4187  0.6579 -2.9018
  326MOL0     H43964   9.649  11.863   0.727 -0.0503  0.7179 -0.2119
  326MOL0     H43965   9.704  12.024   0.695  0.1452  0.3461  0.2532
  326MOL0     H43966   9.567  11.920   0.520  0.8635 -2.8063  1.3250
  326MOL0     H43967   9.500  12.079   0.584 -3.8283 -0.2279  1.2447
  326MOL0     H43968   9.319  11.960   0.697 -2.1842 -1.4359 -1.4302
  326MOL0     H43969   9.401  11.807   0.629  1.6912 -0.2213 -1.7958
  326MOL0     H43970   9.200  11.976   0.274  1.4059 -1.1679  1.9380
  326MOL0     H43971   9.039  12.013   0.134  1.0542  1.1595  2.5986
  326MOL0     H43972   8.916  11.900   0.129  2.5131 -0.9571  0.8107
  326MOL0     H43973   8.879  12.060   0.203  0.4079  2.2952 -0.8576
  326MOL0     H43974   8.523  11.977   0.349  1.7218 -1.4756  0.2451
  326MOL0     H43975   8.267  11.909   0.379 -0.9250 -0.7749  0.5768
  326MOL0     H43976   8.057  11.609   0.473 -2.5610 -0.5851 -2.6207
  326MOL0     H43977   8.165  11.760   0.501  1.1700 -0.1334 -2.2213
  326MOL0     H43978   8.025  11.881   0.351  0.3755  0.6601  1.0249
  326MOL0     H43979   7.929  11.738   0.315 -0.8666  0.8196  0.8737
  326MOL0     H43980   7.814  11.745   0.513  1.9856 -3.2742 -1.7923
  326MOL0     H43981   7.837  11.919   0.491 -1.1725 -1.0241  0.6313
  326MOL0     H43982   8.005  11.738   0.667  1.0975  0.2720 -1.1450
  326MOL0     H43983   8.035  11.910   0.625 -2.0870  3.0077 -0.6189
  326MOL0     H43984   7.792  11.766   0.770 -0.7750  0.5928  1.7069
  326MOL0     H43985   7.798  11.944   0.733  0.6491  0.5004  1.6510
  326MOL0     H43986   7.998  11.776   0.894 -2.6197 -1.5938 -0.1243
  326MOL0     H43987   8.022  11.950   0.865 -2.1747  2.6908  4.0444
  326MOL0     H43988   7.868  11.810   1.075 -1.9697  1.7209  2.0095
  326MOL0     H43989   7.763  11.923   0.994 -0.8044 -0.1948  3.2209
  326MOL0     H43990   7.863  12.012   1.203 -2.6942 -0.8507 -0.0020
  326MOL0     H43991   7.902  12.104   1.051  3.3388 -0.6908 -1.9449
  326MOL0     H43992   8.379  11.526   0.260  0.0355 -0.2541  4.0160
  326MOL0     H43993   8.617  11.587   0.261  0.4560 -0.5655  0.6522
  326MOL0     H43994   8.906  11.805   0.631 -1.7575  1.7862 -1.4679
  326MOL0     H43995   9.146  11.828   0.669 -1.5239 -2.0574  0.6658
  326MOL0     H43996  10.409  11.478   1.060  0.6429  0.7372  0.7772
  326MOL0     H43997  10.523  11.375   0.867  0.3155 -0.5358 -0.4364
  326MOL0     H43998  10.933  11.064   0.790 -5.1480  0.7961  3.4396
  326MOL0     H43999  11.057  10.985   0.574 -0.1596 -0.4515 -2.4066
  326MOL0     H44000  10.969  10.942   0.161 -0.8501  0.1335  0.0846
  326MOL0     H44001  10.839  11.017   0.235  0.1351 -0.3868 -1.0757
  326MOL0     H44002  10.985  11.175   0.364 -0.5224  1.0819 -0.4367
  326MOL0     H44003  11.047  11.172   0.197  2.6148 -0.7219  0.3409
  326MOL0     H44004  11.177  11.048   0.442 -0.8636  2.2235  0.7936
  326MOL0     H44005  11.237  11.176   0.350 -0.6592 -0.0762  2.0488
  326MOL0     H44006  11.214  10.988   0.144 -0.8943 -0.4048  0.2393
  326MOL0     H44007  11.213  10.877   0.279 -0.9376  0.6998  0.8458
  326MOL0     H44008  11.623  11.033   0.281 -0.4383 -1.7925  3.1926
  326MOL0     H44009  10.703  10.892   0.391  2.4624  0.2020 -0.8377
  326MOL0     H44010  10.571  10.947   0.616  0.3816 -1.7468 -0.9319
  327MOL0     O44011   6.698   3.656   0.161  0.0748  0.0864  0.2956
  327MOL0     C44012   6.671   3.553   0.215 -0.6905  0.6004 -0.3797
  327MOL0     O44013   6.765   3.460   0.239  0.1617  0.1832 -0.4984
  327MOL0     C44014   6.903   3.471   0.236 -0.0135  0.6702  0.1673
  327MOL0     C44015   6.973   3.585   0.221  1.2547 -0.2974  0.5808
  327MOL0     C44016   7.112   3.587   0.229  0.0416 -0.3837  0.4547
  327MOL0     C44017   7.185   3.468   0.224 -0.8775 -0.0621 -0.2597
  327MOL0     O44018   7.321   3.458   0.197 -0.3186  0.3656  0.2224
  327MOL0     C44019   7.397   3.562   0.252 -0.2210 -0.6641 -0.2438
  327MOL0     C44020   7.543   3.542   0.212 -1.7628 -0.0241  0.8874
  327MOL0     C44021   7.634   3.670   0.192  0.0791  0.4780  0.1769
  327MOL0     C44022   7.722   3.715   0.318  0.1063  0.2124  0.1918
  327MOL0     C44023   7.821   3.826   0.291  0.7078  0.6386 -0.0597
  327MOL0     C44024   7.936   3.776   0.199 -0.1490 -0.1095 -0.2595
  327MOL0     C44025   8.049   3.867   0.179 -0.6245  0.5917 -0.1546
  327MOL0     C44026   7.996   4.003   0.119 -0.0462 -0.0670  1.0482
  327MOL0     N44027   8.110   4.059   0.054  0.1509 -0.1908  0.1803
  327MOL0     C44028   8.135   4.057  -0.084  0.3303 -0.8461 -0.2214
  327MOL0     C44029   8.261   4.103  -0.096 -0.4049  0.6167  0.9124
  327MOL0     C44030   8.344   4.133  -0.220  0.5161 -0.3238 -0.2057
  327MOL0     C44031   8.270   4.249  -0.303  0.5823  0.8447 -0.1349
  327MOL0     C44032   8.251   4.371  -0.214 -0.0739 -0.2386  0.5882
  327MOL0     C44033   8.204   4.491  -0.297  0.5154  0.0990 -0.1996
  327MOL0     O44034   8.183   4.613  -0.222 -0.2880 -0.1085 -0.1828
  327MOL0     C44035   8.294   4.696  -0.217 -0.3195 -0.9593 -0.3582
  327MOL0     C44036   8.433   4.680  -0.236  0.6615  0.2575 -0.3903
  327MOL0     C44037   8.516   4.784  -0.229  0.3254 -0.0901  0.4152
  327MOL0     C44038   8.664   4.762  -0.264  0.0482  0.7853  0.1232
  327MOL0     C44039   8.468   4.913  -0.188 -0.2877  0.5438 -0.5350
  327MOL0     C44040   8.569   5.021  -0.157  1.1997  0.7582 -0.3478
  327MOL0     O44041   8.685   4.995  -0.104 -0.2917 -0.0369  0.2286
  327MOL0     C44042   8.773   5.099  -0.086 -0.1403 -0.9926  0.1580
  327MOL0     C44043   8.896   5.095  -0.144  0.4306 -0.0859  0.1796
  327MOL0     C44044   8.981   5.198  -0.150 -0.0430 -0.0257 -0.7549
  327MOL0     C44045   8.948   5.307  -0.081 -0.3702 -0.1952 -0.2601
  327MOL0     O44046   9.017   5.422  -0.086 -0.0109 -0.6292 -0.0671
  327MOL0     C44047   9.154   5.426  -0.144  0.1460  0.7538  0.5817
  327MOL0     C44048   9.242   5.549  -0.093  1.0325  0.3439 -0.2220
  327MOL0     C44049   9.186   5.684  -0.142 -0.5776  0.0567 -0.7816
  327MOL0     C44050   9.256   5.803  -0.069  0.4553  0.1175  0.6332
  327MOL0     C44051   9.403   5.814  -0.095 -0.9393 -0.7784 -0.4925
  327MOL0     C44052   9.437   5.840  -0.237 -0.2688 -0.9073 -0.4797
  327MOL0     C44053   9.582   5.902  -0.252  1.5132  0.1978 -1.4334
  327MOL0     C44054   9.608   5.918  -0.402  0.1669  1.5318 -0.0420
  327MOL0    Cl44055   9.782   5.948  -0.404  0.1835  0.4567 -0.1265
  327MOL0     C44056   8.831   5.316  -0.011  0.2365  0.9511  0.1018
  327MOL0     C44057   8.731   5.211  -0.011 -0.2097 -0.2145 -0.1931
  327MOL0     O44058   8.522   5.130  -0.181 -0.8645  0.7106  0.4303
  327MOL0     C44059   8.333   4.928  -0.165 -0.0216 -0.6745 -0.0155
  327MOL0     C44060   8.244   4.822  -0.182  0.4063  0.0141 -0.2231
  327MOL0     N44061   8.303   4.133   0.033 -1.0023  0.2277 -0.3190
  327MOL0     N44062   8.215   4.099   0.118  0.7256 -0.2911 -0.7077
  327MOL0     C44063   7.105   3.350   0.235  0.0705  0.3020 -0.0082
  327MOL0     C44064   6.966   3.351   0.236  0.1840 -0.8881 -0.0405
  327MOL0     C44065   6.530   3.535   0.256  0.4082  0.5016 -0.4743
  327MOL0     C44066   6.478   3.405   0.282  0.4780 -0.1340  0.3131
  327MOL0     C44067   6.355   3.391   0.346  0.1255  0.6470 -0.1374
  327MOL0     C44068   6.274   3.505   0.382 -0.1910  0.3131 -0.1135
  327MOL0     O44069   6.143   3.498   0.430 -0.0591  0.6207  1.1758
  327MOL0     C44070   6.043   3.476   0.326 -0.0224 -0.8265 -0.1349
  327MOL0     C44071   5.905   3.475   0.391 -0.9755  0.5702  0.0094
  327MOL0     C44072   5.895   3.602   0.475  0.5392 -0.3885  0.1236
  327MOL0     C44073   5.761   3.607   0.560 -0.8077  0.0773  0.4059
  327MOL0     C44074   5.771   3.497   0.664 -0.3516 -0.2291  1.0056
  327MOL0     C44075   5.765   3.396   0.731 -0.0022 -0.7525 -1.6946
  327MOL0     C44076   6.318   3.624   0.344 -0.4637 -0.5948  0.4894
  327MOL0     C44077   6.439   3.642   0.282  0.0139 -0.2188  0.1361
  327MOL0     H44078   6.932   3.684   0.233  1.6003  0.0790 -1.0562
  327MOL0     H44079   7.167   3.681   0.226  0.0908 -0.3386 -3.8018
  327MOL0     H44080   7.371   3.663   0.220 -0.3605 -1.2539 -2.1008
  327MOL0     H44081   7.393   3.554   0.361  0.3921 -0.3113 -0.1897
  327MOL0     H44082   7.594   3.467   0.274  0.3965 -0.1841 -0.9716
  327MOL0     H44083   7.543   3.490   0.116 -0.7071 -1.1477  1.4779
  327MOL0     H44084   7.706   3.658   0.111  1.4086  0.4444  1.3317
  327MOL0     H44085   7.564   3.746   0.156 -1.8404 -1.4296 -0.3348
  327MOL0     H44086   7.659   3.734   0.405 -1.8223 -2.6431 -0.4301
  327MOL0     H44087   7.778   3.623   0.339 -0.8884 -0.4178  0.1491
  327MOL0     H44088   7.763   3.905   0.242 -1.0647 -1.0779 -0.8769
  327MOL0     H44089   7.857   3.853   0.391  0.3777  0.3697  0.1340
  327MOL0     H44090   7.993   3.693   0.240  0.2032  0.7692  1.1089
  327MOL0     H44091   7.890   3.744   0.105 -1.1134 -4.2238  1.3840
  327MOL0     H44092   8.093   3.888   0.277 -0.5853  1.5407 -0.3630
  327MOL0     H44093   8.125   3.824   0.113 -0.0110 -0.0388  0.9439
  327MOL0     H44094   7.969   4.070   0.202 -1.9877 -0.4822  0.7920
  327MOL0     H44095   7.915   4.005   0.046  1.5742  1.7627 -0.7987
  327MOL0     H44096   8.071   4.032  -0.169  0.7167 -1.3737 -0.3675
  327MOL0     H44097   8.443   4.169  -0.191  0.5551 -1.5484  1.3077
  327MOL0     H44098   8.360   4.054  -0.293  1.5477 -1.4104  1.1279
  327MOL0     H44099   8.176   4.211  -0.345  0.5753 -0.3214  0.8466
  327MOL0     H44100   8.323   4.268  -0.397  0.0931  0.4104 -0.5043
  327MOL0     H44101   8.354   4.404  -0.196  0.8860 -1.8372 -1.4974
  327MOL0     H44102   8.193   4.364  -0.121 -1.8417  1.3196 -0.3253
  327MOL0     H44103   8.104   4.460  -0.330 -1.0501  2.0814  2.3208
  327MOL0     H44104   8.278   4.509  -0.376 -0.1641  0.0727 -0.8551
  327MOL0     H44105   8.473   4.582  -0.260  0.3195 -0.2800  1.0714
  327MOL0     H44106   8.663   4.664  -0.314 -1.1283  0.4232  0.8213
  327MOL0     H44107   8.691   4.838  -0.337  1.1443 -0.1272 -0.4648
  327MOL0     H44108   8.723   4.768  -0.172 -2.1970  4.1602  1.5260
  327MOL0     H44109   8.918   5.006  -0.202 -0.9886 -0.6422  0.4474
  327MOL0     H44110   9.073   5.185  -0.207  1.1654 -0.1851  1.1234
  327MOL0     H44111   9.206   5.332  -0.121 -4.5416 -2.8251 -1.6402
  327MOL0     H44112   9.155   5.426  -0.253 -0.3284  3.6412  0.5120
  327MOL0     H44113   9.241   5.545   0.016 -2.0626  0.9374 -0.1114
  327MOL0     H44114   9.345   5.542  -0.128  1.1245 -0.7638  0.2466
  327MOL0     H44115   9.078   5.688  -0.121 -0.2111  3.8354  1.3721
  327MOL0     H44116   9.207   5.704  -0.248  0.3055  1.8436 -0.3058
  327MOL0     H44117   9.205   5.895  -0.096 -2.6296 -2.1568 -2.0877
  327MOL0     H44118   9.250   5.800   0.041 -1.8133  2.1998  0.6353
  327MOL0     H44119   9.463   5.731  -0.056 -1.6478 -1.3982 -0.7123
  327MOL0     H44120   9.439   5.905  -0.045  0.5932 -0.1992 -2.4743
  327MOL0     H44121   9.441   5.748  -0.296  2.1411  0.8344 -3.3565
  327MOL0     H44122   9.370   5.913  -0.283  0.2968 -0.7480 -1.0722
  327MOL0     H44123   9.642   5.824  -0.204  1.9315  1.7525  0.7589
  327MOL0     H44124   9.596   5.998  -0.201  3.2436 -1.2487  1.0228
  327MOL0     H44125   9.555   6.002  -0.448  0.1862  0.1682 -2.7635
  327MOL0     H44126   9.588   5.818  -0.442 -2.7623 -0.5478  5.4651
  327MOL0     H44127   8.807   5.415   0.026 -0.2466  0.7480  0.3450
  327MOL0     H44128   8.640   5.223   0.046 -0.4236  1.3292 -0.8080
  327MOL0     H44129   8.296   5.023  -0.127 -0.6333 -0.8688 -0.1078
  327MOL0     H44130   8.140   4.854  -0.182  0.3793 -0.0723 -0.4650
  327MOL0     H44131   7.156   3.254   0.240 -3.8470 -1.9357  0.6777
  327MOL0     H44132   6.920   3.254   0.252 -2.5891  0.6171  2.0613
  327MOL0     H44133   6.537   3.316   0.264  0.9047 -0.3446  2.4673
  327MOL0     H44134   6.336   3.289   0.376  1.5106 -0.1926 -1.9422
  327MOL0     H44135   6.034   3.558   0.254 -1.2661 -2.0717 -1.4648
  327MOL0     H44136   6.065   3.376   0.287 -0.4594 -0.9260 -0.1329
  327MOL0     H44137   5.893   3.385   0.453 -0.1398 -0.7309 -1.6243
  327MOL0     H44138   5.822   3.465   0.321 -0.8585  0.2362 -0.0854
  327MOL0     H44139   5.894   3.684   0.402 -1.1023 -0.9934 -0.5802
  327MOL0     H44140   5.979   3.621   0.542 -1.3408  1.5462  2.1087
  327MOL0     H44141   5.675   3.585   0.496 -1.3275  0.1283  1.0719
  327MOL0     H44142   5.745   3.711   0.589  1.4849  0.8666 -0.8442
  327MOL0     H44143   5.745   3.297   0.768 -0.9537  0.5781  1.7382
  327MOL0     H44144   6.248   3.707   0.349  1.0570  0.8492 -1.1027
  327MOL0     H44145   6.464   3.740   0.244 -1.4471  0.2235  0.2556
  328MOL0     O44146   6.367   2.797   4.466 -0.0941 -0.8973  0.2569
  328MOL0     C44147   6.392   2.705   4.387  0.1893 -0.2954 -0.2349
  328MOL0     O44148   6.308   2.600   4.374 -0.2124  0.5475 -0.8339
  328MOL0     C44149   6.176   2.605   4.406 -0.3446 -0.2903  0.1468
  328MOL0     C44150   6.131   2.586   4.541 -0.3963  0.8980 -0.4133
  328MOL0     C44151   5.994   2.600   4.569  0.0790  0.5352 -0.0463
  328MOL0     C44152   5.907   2.619   4.461  0.0230  0.0753  0.3396
  328MOL0     O44153   5.775   2.652   4.490 -0.1515 -0.1789  0.2919
  328MOL0     C44154   5.763   2.800   4.492  0.2662 -0.1185  0.7016
  328MOL0     C44155   5.620   2.854   4.523 -0.3353 -0.2488  0.3963
  328MOL0     C44156   5.578   2.833   4.672  0.5136 -0.1946  0.5223
  328MOL0     C44157   5.445   2.880   4.708 -0.0169  0.2817  0.4875
  328MOL0     C44158   5.410   2.860   4.862 -0.2282 -0.1527  0.9312
  328MOL0     C44159   5.299   2.972   4.909  0.1361 -0.1659 -0.3198
  328MOL0     C44160   5.180   2.970   4.812 -0.2581 -0.6432  0.1659
  328MOL0     C44161   5.060   3.052   4.877  0.8705 -0.2850 -0.0757
  328MOL0     N44162   5.006   2.987   5.002  0.5403 -0.1073  0.0091
  328MOL0     C44163   4.963   2.854   5.003  0.0746  0.4376 -0.5540
  328MOL0     C44164   4.943   2.838   5.141  0.2647 -0.5101 -0.3162
  328MOL0     C44165   4.886   2.711   5.214  0.6367 -1.1431  0.8518
  328MOL0     C44166   4.737   2.698   5.179 -0.6068  0.4068  0.6209
  328MOL0     C44167   4.673   2.576   5.258  0.3414  0.7272 -0.0433
  328MOL0     C44168   4.542   2.531   5.194 -1.1412 -0.8890  0.5406
  328MOL0     O44169   4.520   2.402   5.244  0.1954  0.4402 -0.3719
  328MOL0     C44170   4.396   2.344   5.217 -0.9152 -0.0138 -0.3082
  328MOL0     C44171   4.397   2.207   5.217 -0.4698 -0.5871  0.4173
  328MOL0     C44172   4.279   2.132   5.190  0.0889 -0.2367  0.0094
  328MOL0     C44173   4.290   1.982   5.184  0.2502  0.1372 -0.2121
  328MOL0     C44174   4.155   2.202   5.199 -0.1905 -0.0900  0.3738
  328MOL0     C44175   4.020   2.139   5.216 -0.8326  0.1840  0.3922
  328MOL0     O44176   3.936   2.215   5.287 -0.0952 -0.7784 -0.5265
  328MOL0     C44177   3.797   2.219   5.287 -0.2662  0.2149  0.4625
  328MOL0     C44178   3.710   2.187   5.171 -0.7179 -0.2498 -0.6785
  328MOL0     C44179   3.575   2.182   5.193  0.2354  0.3254  0.1464
  328MOL0     C44180   3.515   2.215   5.314 -0.0194  0.8446 -0.1285
  328MOL0     O44181   3.384   2.213   5.340  0.1477  0.2284 -0.1590
  328MOL0     C44182   3.302   2.165   5.237  0.2355 -0.5276  0.0764
  328MOL0     C44183   3.151   2.168   5.283 -0.0277  0.5112 -1.1037
  328MOL0     C44184   3.115   2.302   5.349 -0.4989  0.2555  0.4722
  328MOL0     C44185   2.966   2.294   5.398 -0.2402 -0.8066  0.4616
  328MOL0     C44186   2.909   2.431   5.432 -0.0627 -1.1794 -0.3758
  328MOL0     C44187   2.753   2.431   5.432  0.9563 -0.0145 -0.2256
  328MOL0     C44188   2.691   2.374   5.293 -0.6546 -0.0272 -0.8459
  328MOL0     C44189   2.561   2.432   5.269  0.1201 -0.0362  0.6596
  328MOL0    Cl44190   2.582   2.594   5.207 -0.0267  0.2660 -0.3055
  328MOL0     C44191   3.597   2.243   5.426 -0.2299 -0.2647 -0.3138
  328MOL0     C44192   3.739   2.246   5.410  0.3542 -0.3901  0.5522
  328MOL0     O44193   3.991   2.030   5.161  0.0083 -0.6334 -0.4734
  328MOL0     C44194   4.162   2.346   5.198 -0.7492 -0.8152  0.0540
  328MOL0     C44195   4.276   2.412   5.204 -0.1924  1.3140  0.4847
  328MOL0     N44196   4.959   2.949   5.214 -0.1676  0.1852  0.2803
  328MOL0     N44197   4.991   3.042   5.129  0.0257 -0.1035 -0.8083
  328MOL0     C44198   5.959   2.629   4.329  1.3183  0.4477  0.4791
  328MOL0     C44199   6.097   2.619   4.298  0.5652  0.2295 -0.1983
  328MOL0     C44200   6.524   2.713   4.326 -0.4486 -0.3076 -0.2265
  328MOL0     C44201   6.543   2.642   4.207  0.0529  0.1039 -0.1563
  328MOL0     C44202   6.675   2.647   4.146  0.6230 -0.1114 -0.5885
  328MOL0     C44203   6.778   2.726   4.204  0.0934  0.1249  0.8299
  328MOL0     O44204   6.903   2.728   4.156 -0.6954 -0.7112  0.4508
  328MOL0     C44205   6.955   2.639   4.055  0.1670  0.1048  0.0437
  328MOL0     C44206   7.110   2.655   4.038  0.6772 -0.4968  0.2632
  328MOL0     C44207   7.148   2.796   4.023 -0.2893 -0.2360 -0.1196
  328MOL0     C44208   7.301   2.810   4.017  0.3236  1.4765  0.8545
  328MOL0     C44209   7.339   2.935   3.952  0.1201 -0.1122  0.4726
  328MOL0     C44210   7.393   3.039   3.907  0.2206 -0.0322  0.6182
  328MOL0     C44211   6.750   2.801   4.318  0.3185  0.0789 -0.0004
  328MOL0     C44212   6.625   2.794   4.382  0.0086 -0.6859  0.5022
  328MOL0     H44213   6.202   2.571   4.622 -0.4134  0.3257 -0.5009
  328MOL0     H44214   5.949   2.597   4.668 -1.1495  1.2936 -0.5529
  328MOL0     H44215   5.840   2.842   4.558  0.2565 -0.3796  0.8856
  328MOL0     H44216   5.782   2.827   4.388 -0.6235  1.8669  1.0127
  328MOL0     H44217   5.627   2.962   4.503 -0.6101 -0.6620 -2.2662
  328MOL0     H44218   5.548   2.802   4.459 -1.4063 -1.7197  2.6745
  328MOL0     H44219   5.587   2.732   4.715 -2.7054 -0.6301  0.4460
  328MOL0     H44220   5.651   2.879   4.740  0.3192 -0.2540  0.7750
  328MOL0     H44221   5.426   2.984   4.679  1.9213 -0.0190 -2.2630
  328MOL0     H44222   5.377   2.819   4.648 -1.1501  0.6664  1.3441
  328MOL0     H44223   5.371   2.759   4.883  1.2802 -0.9928 -0.0969
  328MOL0     H44224   5.501   2.856   4.923 -0.3886 -1.5229  1.1280
  328MOL0     H44225   5.263   2.956   5.011 -2.2705 -1.9855 -1.3567
  328MOL0     H44226   5.337   3.073   4.924 -0.2450 -0.4681  4.1811
  328MOL0     H44227   5.194   3.021   4.716 -4.2493  0.0548 -0.2074
  328MOL0     H44228   5.142   2.869   4.796 -3.4290  0.6171 -1.1306
  328MOL0     H44229   4.985   3.060   4.798 -2.2808 -2.6704  2.4134
  328MOL0     H44230   5.082   3.157   4.900  2.5705 -0.7580  0.6299
  328MOL0     H44231   4.956   2.773   4.931  1.3080 -0.2047  0.0151
  328MOL0     H44232   4.934   2.624   5.168 -2.4051 -2.4712 -0.0966
  328MOL0     H44233   4.898   2.724   5.322  1.6477  3.1793  0.4002
  328MOL0     H44234   4.734   2.683   5.071  1.7941 -2.2919  0.7945
  328MOL0     H44235   4.689   2.791   5.209 -0.1537  0.3764  1.4888
  328MOL0     H44236   4.652   2.606   5.361 -0.3536  2.9455 -0.7925
  328MOL0     H44237   4.741   2.490   5.259  0.1042  0.3760 -3.2087
  328MOL0     H44238   4.549   2.527   5.085  0.7368  1.4998  0.4870
  328MOL0     H44239   4.469   2.610   5.215 -0.1994  0.3864 -0.7883
  328MOL0     H44240   4.486   2.158   5.255 -0.7947  0.2357  2.3267
  328MOL0     H44241   4.231   1.936   5.264 -3.6388 -0.1806 -2.9588
  328MOL0     H44242   4.253   1.938   5.091  0.8772 -1.5921  0.3164
  328MOL0     H44243   4.398   1.962   5.189  0.5651  1.3542 -1.6193
  328MOL0     H44244   3.741   2.155   5.072  2.8100  2.0235 -0.4905
  328MOL0     H44245   3.511   2.139   5.116 -0.9648  1.6792  0.3551
  328MOL0     H44246   3.307   2.230   5.150 -3.7129  1.1696  0.8988
  328MOL0     H44247   3.330   2.061   5.215  0.2707 -0.2349 -1.3773
  328MOL0     H44248   3.086   2.150   5.196 -1.0962  1.4527 -0.5338
  328MOL0     H44249   3.142   2.090   5.359 -1.5657  1.2345 -0.4956
  328MOL0     H44250   3.126   2.383   5.276  1.1137 -0.7514 -0.4441
  328MOL0     H44251   3.187   2.334   5.425 -0.1305 -1.3323  0.8213
  328MOL0     H44252   2.906   2.252   5.317  0.2993 -1.9776  0.6446
  328MOL0     H44253   2.961   2.221   5.479 -0.8358 -1.2548  0.0309
  328MOL0     H44254   2.938   2.508   5.360 -1.9230  1.8877  1.8801
  328MOL0     H44255   2.948   2.461   5.530  2.7254 -1.1456 -1.4127
  328MOL0     H44256   2.726   2.359   5.510  0.7833 -0.4432 -0.6740
  328MOL0     H44257   2.713   2.528   5.460 -2.3054 -1.2945 -0.0524
  328MOL0     H44258   2.690   2.264   5.291 -4.1567 -0.1144 -0.0263
  328MOL0     H44259   2.761   2.403   5.214 -0.0850  0.2288 -0.2617
  328MOL0     H44260   2.497   2.443   5.357 -2.3831  0.8772 -1.1615
  328MOL0     H44261   2.507   2.381   5.189  0.2027  1.2129 -0.2149
  328MOL0     H44262   3.552   2.262   5.523  1.0836  0.2853  0.2173
  328MOL0     H44263   3.808   2.277   5.488  2.7258 -1.0285 -1.2139
  328MOL0     H44264   4.072   2.408   5.193  0.4174  0.8519 -2.2378
  328MOL0     H44265   4.271   2.521   5.199  1.2670  1.3922  0.3839
  328MOL0     H44266   5.885   2.655   4.254  0.4873  0.9907  1.4467
  328MOL0     H44267   6.128   2.642   4.196 -3.3996 -0.4149 -1.7522
  328MOL0     H44268   6.461   2.582   4.169  1.1984 -2.7734  1.5476
  328MOL0     H44269   6.693   2.598   4.051 -2.7016  0.6230 -1.7305
  328MOL0     H44270   6.927   2.538   4.088 -2.9901  1.5070  2.2909
  328MOL0     H44271   6.911   2.658   3.957  3.8429 -2.0299 -2.2280
  328MOL0     H44272   7.153   2.593   3.959  3.6654  2.3540 -0.5400
  328MOL0     H44273   7.160   2.622   4.129  1.8790 -1.3669 -0.6945
  328MOL0     H44274   7.110   2.849   4.111 -3.0747 -0.2404 -1.2008
  328MOL0     H44275   7.100   2.843   3.936  0.0112 -1.6017 -1.0570
  328MOL0     H44276   7.332   2.725   3.957  1.1828  1.5021  1.2583
  328MOL0     H44277   7.350   2.819   4.114 -0.3026  3.7759  1.0356
  328MOL0     H44278   7.438   3.125   3.861  1.7185 -0.9631  0.2759
  328MOL0     H44279   6.825   2.868   4.360  1.8413 -1.9216  0.5922
  328MOL0     H44280   6.609   2.842   4.478 -0.3805  0.0913  0.0567
  329MOL0     O44281   9.706   3.640   6.934 -0.2529  0.1097  0.3242
  329MOL0     C44282   9.684   3.539   6.871  0.1075  0.4680 -0.2466
  329MOL0     O44283   9.772   3.447   6.831 -0.0917 -0.0250 -0.7032
  329MOL0     C44284   9.906   3.436   6.849 -0.1557 -0.7458 -0.1405
  329MOL0     C44285   9.958   3.335   6.771  0.1292  0.0727  0.3492
  329MOL0     C44286  10.092   3.317   6.756 -0.3689 -0.5881  0.1677
  329MOL0     C44287  10.177   3.386   6.839 -0.3991  0.8415 -0.4280
  329MOL0     O44288  10.309   3.373   6.831 -0.2157  1.0147  0.0658
  329MOL0     C44289  10.381   3.365   6.953 -0.4177 -0.2039  0.1813
  329MOL0     C44290  10.494   3.252   6.942  0.6269 -0.6187 -0.7537
  329MOL0     C44291  10.445   3.115   7.011  0.1466  1.0429 -0.2987
  329MOL0     C44292  10.543   3.006   7.012 -0.7862  0.0230  0.0887
  329MOL0     C44293  10.555   2.937   6.877  0.6419  0.5287  0.0661
  329MOL0     C44294  10.692   2.862   6.862  0.0670 -1.0764 -0.6734
  329MOL0     C44295  10.705   2.794   6.725 -0.2929 -0.1984 -0.6562
  329MOL0     C44296  10.841   2.715   6.730 -0.3707 -0.6932  0.2234
  329MOL0     N44297  10.956   2.801   6.725 -1.0005  0.2257 -0.4433
  329MOL0     C44298  10.989   2.887   6.621  0.6132 -0.3316  0.2620
  329MOL0     C44299  11.116   2.935   6.655 -0.1090 -0.3370  0.2669
  329MOL0     C44300  11.200   3.037   6.574 -0.2985 -0.5240  0.3153
  329MOL0     C44301  11.201   3.030   6.418 -0.4400  1.1675 -0.6295
  329MOL0     C44302  11.271   2.909   6.362  0.5026 -0.3356  0.8883
  329MOL0     C44303  11.307   2.930   6.218  0.6419  0.9809  0.0900
  329MOL0     O44304  11.397   3.042   6.187  0.0904 -0.3099  0.1303
  329MOL0     C44305  11.531   2.999   6.165  0.7928 -0.5997 -0.6017
  329MOL0     C44306  11.592   3.025   6.046  0.1374 -0.4679 -0.0141
  329MOL0     C44307  11.729   2.987   6.027  0.4124  0.4640 -0.1503
  329MOL0     C44308  11.804   3.024   5.901  0.0099 -0.7516  1.1916
  329MOL0     C44309  11.797   2.914   6.122  0.3275 -0.2536  0.2991
  329MOL0     C44310  11.944   2.858   6.109  0.4917 -0.5645  0.7990
  329MOL0     O44311  12.005   2.841   6.231  0.3991 -0.8044  0.1977
  329MOL0     C44312  12.143   2.816   6.245  0.0981  0.0083  0.1425
  329MOL0     C44313  12.232   2.904   6.181  0.6252  0.4061  0.0139
  329MOL0     C44314  12.371   2.894   6.210 -0.9512 -0.3898  0.1549
  329MOL0     C44315  12.413   2.791   6.299  0.1250 -0.2009 -0.3014
  329MOL0     O44316  12.547   2.801   6.331  0.0218  0.5564  0.5759
  329MOL0     C44317  12.596   2.712   6.429  0.8434  0.1936  0.6777
  329MOL0     C44318  12.741   2.759   6.470  0.4915  0.0620  0.2165
  329MOL0     C44319  12.830   2.765   6.345 -0.2098  0.2918  0.8441
  329MOL0     C44320  12.978   2.763   6.393  0.5559  0.4734 -1.2683
  329MOL0     C44321  13.070   2.706   6.288  1.0501  0.3481  0.3573
  329MOL0     C44322  13.193   2.626   6.350 -0.0927 -0.2329  0.7466
  329MOL0     C44323  13.293   2.728   6.410 -0.5635 -0.7294  0.0248
  329MOL0     C44324  13.411   2.678   6.493  0.4984 -0.4978  0.6455
  329MOL0    Cl44325  13.383   2.517   6.581 -0.3184  0.6028  0.6097
  329MOL0     C44326  12.322   2.698   6.351 -0.9453  0.4828 -0.0942
  329MOL0     C44327  12.190   2.718   6.329 -0.5699 -1.1320  0.4166
  329MOL0     O44328  11.984   2.813   6.001 -0.1925 -0.5219 -0.2302
  329MOL0     C44329  11.727   2.890   6.242 -0.3839 -1.7433 -0.4643
  329MOL0     C44330  11.601   2.937   6.263  0.0063 -0.8260 -0.0440
  329MOL0     N44331  11.153   2.880   6.774 -0.4909  0.4591 -0.0886
  329MOL0     N44332  11.058   2.807   6.819  0.1577  0.5602 -0.5060
  329MOL0     C44333  10.123   3.487   6.920 -1.1358  0.7130 -0.3094
  329MOL0     C44334   9.987   3.513   6.926 -1.0708  0.1891  0.2901
  329MOL0     C44335   9.543   3.533   6.824 -0.2390 -0.7170 -0.6066
  329MOL0     C44336   9.502   3.418   6.770  0.5337  0.1352  0.8189
  329MOL0     C44337   9.369   3.403   6.717 -0.0451 -0.5070  0.2588
  329MOL0     C44338   9.281   3.506   6.725  0.8727 -0.3472  0.0124
  329MOL0     O44339   9.149   3.488   6.679  0.5670  0.1756 -0.3545
  329MOL0     C44340   9.078   3.603   6.633 -0.0587 -0.4814  0.2432
  329MOL0     C44341   8.947   3.571   6.557 -0.1806  0.5511 -0.4055
  329MOL0     C44342   8.871   3.437   6.598 -1.0236 -0.1914  0.3809
  329MOL0     C44343   8.838   3.423   6.746  0.1008  0.0736 -0.0406
  329MOL0     C44344   8.729   3.320   6.773 -0.1481 -0.9066  0.5032
  329MOL0     C44345   8.637   3.246   6.792 -0.0637  0.8720 -1.2522
  329MOL0     C44346   9.318   3.626   6.785  0.5666 -0.0503  0.7054
  329MOL0     C44347   9.447   3.638   6.837  0.3459  1.2874 -0.3243
  329MOL0     H44348   9.903   3.273   6.701  3.9081  0.2837 -3.2264
  329MOL0     H44349  10.129   3.246   6.683 -0.0858  0.4582 -0.7297
  329MOL0     H44350  10.449   3.451   6.962  1.2007 -1.5882  2.3879
  329MOL0     H44351  10.314   3.358   7.039 -1.8449 -2.6510 -1.0260
  329MOL0     H44352  10.517   3.237   6.836  0.1802  1.9202 -1.2762
  329MOL0     H44353  10.585   3.296   6.983 -1.0222  4.7641 -2.0610
  329MOL0     H44354  10.423   3.130   7.117  2.7167 -0.4092  0.5026
  329MOL0     H44355  10.348   3.088   6.966 -0.7873  1.2747  1.4965
  329MOL0     H44356  10.640   3.051   7.034  1.4978 -3.8619 -1.0024
  329MOL0     H44357  10.531   2.931   7.091 -0.2081 -0.1368  0.0290
  329MOL0     H44358  10.476   2.863   6.865  1.8291 -0.8276  0.3467
  329MOL0     H44359  10.541   3.010   6.797 -2.1408 -0.9277 -0.9104
  329MOL0     H44360  10.768   2.941   6.853 -1.2755  0.6477  1.7069
  329MOL0     H44361  10.709   2.797   6.949 -3.5115 -2.0885 -0.5498
  329MOL0     H44362  10.630   2.715   6.712 -0.3871 -0.0451 -1.0648
  329MOL0     H44363  10.700   2.868   6.644  0.6050  0.3426 -0.2265
  329MOL0     H44364  10.843   2.649   6.643  3.6613 -0.8264  0.2375
  329MOL0     H44365  10.846   2.653   6.820 -2.1756  1.7398  2.1680
  329MOL0     H44366  10.932   2.916   6.533  0.3424 -3.6130 -0.7534
  329MOL0     H44367  11.175   3.140   6.602 -1.5104 -1.0923  1.4392
  329MOL0     H44368  11.301   3.029   6.614 -0.5012 -2.0294  0.5875
  329MOL0     H44369  11.255   3.120   6.385 -1.0037  1.7009 -0.1184
  329MOL0     H44370  11.096   3.039   6.390 -1.0709  0.0985  1.2596
  329MOL0     H44371  11.203   2.824   6.371 -1.0784  0.9257  1.3284
  329MOL0     H44372  11.363   2.893   6.419  0.4520 -2.7765  0.3895
  329MOL0     H44373  11.212   2.951   6.168 -0.9365 -2.6967  1.1599
  329MOL0     H44374  11.354   2.834   6.193  3.0240  1.4911  2.1871
  329MOL0     H44375  11.544   3.087   5.972  1.7528  2.2398  1.0381
  329MOL0     H44376  11.900   3.055   5.942  0.3869 -1.2420  0.6962
  329MOL0     H44377  11.807   2.939   5.832 -0.7807  1.5838 -1.9662
  329MOL0     H44378  11.748   3.107   5.857 -3.5860 -2.6113  1.9178
  329MOL0     H44379  12.200   2.999   6.141  1.0157  2.4528  4.0606
  329MOL0     H44380  12.441   2.967   6.170  0.9183 -1.1378  1.9023
  329MOL0     H44381  12.542   2.738   6.520  1.6911  4.8297  0.0988
  329MOL0     H44382  12.589   2.605   6.405  0.1941  0.3680  0.0702
  329MOL0     H44383  12.737   2.861   6.508 -2.5410  0.6841 -1.4484
  329MOL0     H44384  12.773   2.687   6.546  1.6771 -0.2579 -0.5559
  329MOL0     H44385  12.805   2.858   6.294 -0.8602 -0.1036  0.4169
  329MOL0     H44386  12.816   2.676   6.282  3.4883  0.8677 -1.0714
  329MOL0     H44387  13.021   2.859   6.424  1.9968  0.0000 -1.7534
  329MOL0     H44388  12.978   2.688   6.472  1.8198 -0.3825 -2.0507
  329MOL0     H44389  13.102   2.790   6.225  0.1960 -0.8627 -1.8211
  329MOL0     H44390  13.016   2.630   6.231 -2.5449  0.8262  2.8111
  329MOL0     H44391  13.155   2.562   6.430  3.1297  0.8298  3.4304
  329MOL0     H44392  13.245   2.569   6.273  1.7608  0.7466  1.1986
  329MOL0     H44393  13.231   2.791   6.475 -0.8432  0.5859 -1.4427
  329MOL0     H44394  13.331   2.795   6.332 -1.4833  0.3222  0.4423
  329MOL0     H44395  13.422   2.750   6.574  1.0826 -0.3866  0.4712
  329MOL0     H44396  13.502   2.661   6.436 -1.1433 -0.5943 -2.1302
  329MOL0     H44397  12.355   2.605   6.396 -0.6370 -1.7754 -4.4751
  329MOL0     H44398  12.112   2.655   6.372 -1.7412 -1.4156 -1.9561
  329MOL0     H44399  11.769   2.841   6.330 -0.8850  0.6130  1.1748
  329MOL0     H44400  11.568   2.933   6.366  0.5634 -2.6275  0.0972
  329MOL0     H44401  10.195   3.531   6.987 -1.2902  2.1526 -1.0496
  329MOL0     H44402   9.949   3.585   6.997 -2.5874 -1.1390  0.8848
  329MOL0     H44403   9.573   3.336   6.764 -1.4536 -1.5863 -2.2080
  329MOL0     H44404   9.341   3.304   6.682 -0.4598 -0.7559  1.2537
  329MOL0     H44405   9.047   3.634   6.733 -1.5727  0.5993 -0.5138
  329MOL0     H44406   9.141   3.679   6.587  1.9605 -2.2127  0.0069
  329MOL0     H44407   8.959   3.582   6.449  2.1529  2.7053 -0.0357
  329MOL0     H44408   8.894   3.664   6.579  3.0854  1.9636  2.5142
  329MOL0     H44409   8.927   3.348   6.568 -0.8361 -0.0162  0.2080
  329MOL0     H44410   8.776   3.438   6.543 -0.5861 -1.8683 -0.5016
  329MOL0     H44411   8.798   3.517   6.785 -1.1342 -0.7726  0.7882
  329MOL0     H44412   8.932   3.408   6.802 -1.1322 -1.0399  1.8503
  329MOL0     H44413   8.554   3.178   6.792 -0.0779  0.8799 -0.4206
  329MOL0     H44414   9.236   3.692   6.809  2.4992  2.2500  1.3471
  329MOL0     H44415   9.480   3.724   6.893  3.7830 -2.0822  3.5095
  330MOL0     O44416   6.187   2.410   4.066 -0.0240  0.2453  0.0708
  330MOL0     C44417   6.270   2.318   4.075  0.6167  0.9114  0.8116
  330MOL0     O44418   6.244   2.203   4.139  0.9838  0.7366  0.6316
  330MOL0     C44419   6.118   2.177   4.177  0.0612  0.4099 -0.5972
  330MOL0     C44420   6.053   2.063   4.133  0.5599  0.1672 -0.2721
  330MOL0     C44421   5.921   2.034   4.173  0.3218 -0.3428 -0.7733
  330MOL0     C44422   5.844   2.129   4.249  0.1693  0.5890  0.9206
  330MOL0     O44423   5.714   2.112   4.285  0.3135  0.0139  0.4533
  330MOL0     C44424   5.625   2.018   4.216 -0.2475  1.0926 -0.2701
  330MOL0     C44425   5.479   2.036   4.258  0.1784  0.5475  0.2069
  330MOL0     C44426   5.456   2.059   4.404 -0.3229  0.1520 -0.3335
  330MOL0     C44427   5.328   2.003   4.452 -0.1825  0.5899  0.7954
  330MOL0     C44428   5.206   2.076   4.390 -0.3838  0.0152  0.1412
  330MOL0     C44429   5.073   2.056   4.464 -0.0346  0.4844 -1.1444
  330MOL0     C44430   4.959   2.144   4.409 -0.2738  0.0471  0.0161
  330MOL0     C44431   4.843   2.155   4.497 -0.3324  1.1663 -0.5637
  330MOL0     N44432   4.745   2.252   4.438 -0.5178 -0.5822 -0.3776
  330MOL0     C44433   4.648   2.209   4.357  0.6334 -0.0549  0.1930
  330MOL0     C44434   4.565   2.310   4.344  0.4708 -0.8532 -0.2454
  330MOL0     C44435   4.437   2.320   4.286  0.1777 -0.1752  0.6140
  330MOL0     C44436   4.339   2.218   4.337 -0.2432  0.7849 -0.7786
  330MOL0     C44437   4.199   2.259   4.314  0.1067 -0.2111  0.2720
  330MOL0     C44438   4.096   2.165   4.376 -0.9715 -0.0185 -0.7476
  330MOL0     O44439   3.960   2.220   4.361  0.7107 -0.1911 -0.0958
  330MOL0     C44440   3.858   2.141   4.392 -0.1154  0.5159 -0.2365
  330MOL0     C44441   3.862   2.007   4.429 -0.1152  0.0686 -0.3176
  330MOL0     C44442   3.743   1.930   4.455 -0.6542  0.4665  0.4913
  330MOL0     C44443   3.768   1.785   4.510 -0.5408 -0.2779  0.4303
  330MOL0     C44444   3.615   1.986   4.425 -0.1881  0.7566 -0.6412
  330MOL0     C44445   3.496   1.912   4.438  0.0772  0.7131  0.2560
  330MOL0     O44446   3.388   1.983   4.461 -0.2421 -0.2108 -0.1010
  330MOL0     C44447   3.266   1.924   4.469  0.0837 -0.2961 -0.3899
  330MOL0     C44448   3.167   1.970   4.385  0.1826 -0.0507 -0.5361
  330MOL0     C44449   3.039   1.902   4.386  0.7843 -0.1277  0.6358
  330MOL0     C44450   3.010   1.806   4.484  0.1991 -0.3241  0.3906
  330MOL0     O44451   2.887   1.743   4.484  0.3733  0.3299 -0.0674
  330MOL0     C44452   2.793   1.774   4.380  0.1621  1.1180 -0.5949
  330MOL0     C44453   2.656   1.709   4.420 -0.3210 -0.1143 -0.7237
  330MOL0     C44454   2.632   1.700   4.569 -0.2419  0.4979 -1.2213
  330MOL0     C44455   2.476   1.674   4.598 -0.5509 -0.2032  1.5772
  330MOL0     C44456   2.463   1.605   4.734  0.5059 -0.1913  0.2401
  330MOL0     C44457   2.332   1.527   4.738  0.5478 -0.3817  0.6747
  330MOL0     C44458   2.275   1.515   4.880 -0.4538 -0.0579 -0.1263
  330MOL0     C44459   2.139   1.429   4.884 -0.2416 -0.0468 -0.6536
  330MOL0    Cl44460   2.008   1.485   4.771  0.3036 -0.6336  0.0989
  330MOL0     C44461   3.102   1.774   4.581 -0.3635  0.9541  0.3044
  330MOL0     C44462   3.229   1.835   4.573 -0.3368  0.2724 -0.2873
  330MOL0     O44463   3.492   1.788   4.433  0.7101 -0.0705 -0.4270
  330MOL0     C44464   3.616   2.121   4.377 -0.2287  0.7105 -0.1557
  330MOL0     C44465   3.729   2.197   4.371 -0.0509  0.6311 -1.0066
  330MOL0     N44466   4.608   2.409   4.422 -1.2282  0.5567 -0.2261
  330MOL0     N44467   4.717   2.378   4.485 -0.0243 -1.1575 -0.8759
  330MOL0     C44468   5.910   2.245   4.293  0.3108  1.3786  0.3897
  330MOL0     C44469   6.046   2.264   4.257  0.4970 -1.1128  0.1230
  330MOL0     C44470   6.406   2.328   4.029  0.3513  0.8866  0.6031
  330MOL0     C44471   6.509   2.254   4.087 -0.8186  0.5652  1.0847
  330MOL0     C44472   6.634   2.278   4.036  0.2848  0.7912 -0.1796
  330MOL0     C44473   6.666   2.367   3.928 -0.4251 -0.1046  0.0727
  330MOL0     O44474   6.790   2.393   3.879 -0.7955 -0.0592 -0.3236
  330MOL0     C44475   6.895   2.305   3.920 -0.0827  0.1596  0.5896
  330MOL0     C44476   7.023   2.316   3.827 -0.4906  0.9272 -0.2925
  330MOL0     C44477   6.994   2.288   3.689 -0.5183  0.2991 -0.1499
  330MOL0     C44478   6.973   2.141   3.641 -0.2881  0.0990  0.1566
  330MOL0     C44479   7.078   2.124   3.545 -0.9339 -0.1055  0.3265
  330MOL0     C44480   7.169   2.096   3.463 -0.2524 -0.1306 -0.7598
  330MOL0     C44481   6.564   2.445   3.882 -0.1213 -0.1912  0.2592
  330MOL0     C44482   6.431   2.423   3.919  0.5879 -0.2096 -0.6192
  330MOL0     H44483   6.112   2.000   4.068  1.2300 -0.0075  0.4810
  330MOL0     H44484   5.868   1.948   4.134 -0.5253  0.8342 -2.3384
  330MOL0     H44485   5.635   2.021   4.108  0.1477 -0.7169 -0.3118
  330MOL0     H44486   5.654   1.919   4.252 -1.9949 -0.1271 -1.9927
  330MOL0     H44487   5.446   2.129   4.211 -3.2850 -0.3308  0.6335
  330MOL0     H44488   5.419   1.951   4.224 -0.9439  1.2248  0.4421
  330MOL0     H44489   5.533   2.003   4.458  2.1626  2.5019 -1.1999
  330MOL0     H44490   5.463   2.163   4.439  1.3470  0.0319 -0.2352
  330MOL0     H44491   5.328   1.899   4.417  3.5940  1.4604 -2.5878
  330MOL0     H44492   5.311   1.999   4.560  1.9139 -0.9727  1.1184
  330MOL0     H44493   5.227   2.183   4.385  0.1684 -0.1336 -1.6396
  330MOL0     H44494   5.200   2.049   4.284  1.4190  0.4175 -0.0968
  330MOL0     H44495   5.041   1.952   4.454 -0.3404  0.3747  0.7172
  330MOL0     H44496   5.080   2.075   4.571 -1.3604 -2.7216 -0.3931
  330MOL0     H44497   4.985   2.245   4.376 -0.2847  0.8162  2.2258
  330MOL0     H44498   4.932   2.098   4.313  4.2998  0.1669 -1.5865
  330MOL0     H44499   4.883   2.197   4.590  0.2431  0.8944 -0.6853
  330MOL0     H44500   4.799   2.059   4.524  0.3157  0.2349 -2.6678
  330MOL0     H44501   4.632   2.115   4.305 -1.2883  1.0779 -1.3885
  330MOL0     H44502   4.393   2.419   4.303 -1.7767 -0.6045 -1.4072
  330MOL0     H44503   4.460   2.305   4.180  1.7389 -0.9326  1.0302
  330MOL0     H44504   4.347   2.219   4.446  0.7861 -0.1571 -0.8217
  330MOL0     H44505   4.371   2.118   4.306 -1.4712 -0.6373  2.1422
  330MOL0     H44506   4.184   2.251   4.206  1.5205 -1.0334  0.1146
  330MOL0     H44507   4.173   2.358   4.353 -0.0113  0.0702 -0.5044
  330MOL0     H44508   4.125   2.144   4.479 -1.5264  0.0467 -0.5741
  330MOL0     H44509   4.109   2.074   4.317  2.1134 -1.0223  1.2081
  330MOL0     H44510   3.961   1.964   4.437 -0.7574 -1.3654  0.2467
  330MOL0     H44511   3.873   1.770   4.536 -0.3633 -2.4468 -1.2078
  330MOL0     H44512   3.702   1.757   4.592  0.4874  0.6030  1.5803
  330MOL0     H44513   3.743   1.713   4.431  0.0121  1.5109 -1.4864
  330MOL0     H44514   3.192   2.051   4.317  2.6050 -1.7334 -1.8077
  330MOL0     H44515   2.973   1.957   4.320  2.3010 -0.4000 -1.1831
  330MOL0     H44516   2.770   1.881   4.372 -2.6098  0.8751  2.0653
  330MOL0     H44517   2.829   1.727   4.288 -0.0909 -1.7653  0.6775
  330MOL0     H44518   2.572   1.745   4.361  0.6519  2.2118 -0.8040
  330MOL0     H44519   2.671   1.606   4.385 -2.0427 -0.8479  0.5575
  330MOL0     H44520   2.668   1.788   4.622  2.7099 -1.3475  0.1233
  330MOL0     H44521   2.696   1.626   4.619 -0.9117  0.5134 -0.3210
  330MOL0     H44522   2.433   1.774   4.602  0.5541  0.2530  4.7564
  330MOL0     H44523   2.428   1.621   4.515 -0.4243  2.1740 -0.1281
  330MOL0     H44524   2.466   1.678   4.815 -0.2558 -1.6900  1.6821
  330MOL0     H44525   2.540   1.527   4.740 -0.2901 -0.9173  1.5796
  330MOL0     H44526   2.249   1.565   4.677  0.4299 -3.3565 -1.2133
  330MOL0     H44527   2.349   1.426   4.699  0.2539 -1.0488  2.2102
  330MOL0     H44528   2.254   1.618   4.913 -0.7264  0.3219 -1.4057
  330MOL0     H44529   2.351   1.479   4.950 -0.6842  0.8574  0.6208
  330MOL0     H44530   2.104   1.435   4.987  1.0004  1.1482 -0.2722
  330MOL0     H44531   2.143   1.321   4.867  0.2968 -0.1693  0.1885
  330MOL0     H44532   3.079   1.686   4.641 -3.0981  1.0061 -0.5535
  330MOL0     H44533   3.310   1.807   4.640  0.0758 -0.0700 -0.9130
  330MOL0     H44534   3.520   2.166   4.358 -0.9451 -1.8704 -3.4969
  330MOL0     H44535   3.735   2.301   4.341  2.3457  0.9859  0.4277
  330MOL0     H44536   5.853   2.311   4.358 -0.5011  0.4427  0.6618
  330MOL0     H44537   6.084   2.362   4.285 -2.9572  0.4187  0.0347
  330MOL0     H44538   6.476   2.187   4.165 -0.7121  2.2574  2.6611
  330MOL0     H44539   6.715   2.211   4.062  1.0041  0.6117 -2.6420
  330MOL0     H44540   6.924   2.327   4.023 -0.3302 -0.7029  0.8512
  330MOL0     H44541   6.863   2.200   3.912  0.4437 -0.1585  2.2749
  330MOL0     H44542   7.094   2.239   3.860  0.7989  1.9565 -0.5564
  330MOL0     H44543   7.078   2.410   3.830 -1.0346  1.2748 -1.0844
  330MOL0     H44544   7.071   2.339   3.630 -1.3820  1.6974 -0.1153
  330MOL0     H44545   6.903   2.343   3.663  1.6322  3.2802 -2.0467
  330MOL0     H44546   6.877   2.140   3.589 -2.1364  0.4454  3.2955
  330MOL0     H44547   6.968   2.055   3.708  1.0013 -0.7722 -0.8265
  330MOL0     H44548   7.229   2.071   3.378  1.7272  0.4206  0.4108
  330MOL0     H44549   6.583   2.504   3.794  0.0217  2.6369  2.0614
  330MOL0     H44550   6.358   2.493   3.880 -1.0470  0.2711  2.9020
  331MOL0     O44551   5.178   4.312   3.902 -0.1338  0.2420 -0.1607
  331MOL0     C44552   5.163   4.388   3.806  0.5639 -0.3887  0.1182
  331MOL0     O44553   5.037   4.416   3.744  0.8140  0.2136 -0.4959
  331MOL0     C44554   4.927   4.362   3.807  0.7061 -0.5970 -0.3725
  331MOL0     C44555   4.889   4.225   3.789 -0.6445 -0.1054 -0.1464
  331MOL0     C44556   4.771   4.182   3.841 -0.6472  0.0821 -0.0159
  331MOL0     C44557   4.686   4.265   3.914  0.2157 -0.3518 -0.1615
  331MOL0     O44558   4.568   4.207   3.964 -0.7305  0.4639 -0.3325
  331MOL0     C44559   4.548   4.221   4.102  0.1577 -0.3747  0.2331
  331MOL0     C44560   4.546   4.081   4.177  0.1379  0.7193 -0.1045
  331MOL0     C44561   4.683   4.015   4.184  0.4735  0.7297  0.1625
  331MOL0     C44562   4.666   3.870   4.219  0.4921 -0.1823  0.1138
  331MOL0     C44563   4.803   3.793   4.233 -0.4285  0.3297 -0.0968
  331MOL0     C44564   4.777   3.639   4.252  0.2392 -0.5109  0.3230
  331MOL0     C44565   4.669   3.563   4.164  0.0208  0.0469  0.7843
  331MOL0     C44566   4.681   3.408   4.172 -0.1772  0.9485 -0.5541
  331MOL0     N44567   4.675   3.366   4.313 -0.6621  0.3458  1.1293
  331MOL0     C44568   4.566   3.370   4.394  0.6251 -0.1536  0.5999
  331MOL0     C44569   4.614   3.310   4.509 -0.1136  0.3608 -0.5548
  331MOL0     C44570   4.544   3.286   4.638  0.6238 -0.3234 -0.2952
  331MOL0     C44571   4.632   3.262   4.757 -0.1501 -0.3912 -0.5657
  331MOL0     C44572   4.550   3.246   4.876  0.1968  0.9164  0.9289
  331MOL0     C44573   4.626   3.214   5.004  0.2879 -0.0940  0.3430
  331MOL0     O44574   4.527   3.177   5.099 -0.8989 -0.4761 -0.2312
  331MOL0     C44575   4.555   3.090   5.200  0.2286 -0.1358 -0.0872
  331MOL0     C44576   4.445   3.009   5.244 -0.4811 -0.1569  0.1686
  331MOL0     C44577   4.463   2.906   5.331  0.4424 -0.6628 -0.4334
  331MOL0     C44578   4.337   2.829   5.371 -0.2029 -0.7705 -0.2670
  331MOL0     C44579   4.582   2.895   5.410  0.0607 -0.3745  0.6399
  331MOL0     C44580   4.611   2.823   5.540 -0.7487 -0.1401 -0.5631
  331MOL0     O44581   4.519   2.733   5.575  0.1816  0.4849  0.8788
  331MOL0     C44582   4.538   2.675   5.696 -0.6913  0.4926 -0.6613
  331MOL0     C44583   4.611   2.557   5.709  0.2521 -0.7111  1.3655
  331MOL0     C44584   4.601   2.480   5.827  0.2612 -0.1761  0.4881
  331MOL0     C44585   4.531   2.532   5.942  1.2769 -0.0991  0.0618
  331MOL0     O44586   4.506   2.462   6.059 -0.8784  0.0820  0.5790
  331MOL0     C44587   4.596   2.359   6.089 -0.2184 -0.4297 -0.3807
  331MOL0     C44588   4.564   2.320   6.235 -1.1247 -0.3163 -0.0468
  331MOL0     C44589   4.674   2.227   6.305 -1.0187  0.9926 -0.5986
  331MOL0     C44590   4.719   2.110   6.215 -0.6768  1.0841  0.4099
  331MOL0     C44591   4.808   2.007   6.296 -0.7902  0.4459 -0.4215
  331MOL0     C44592   4.815   1.871   6.232 -0.9362 -0.7871 -0.1900
  331MOL0     C44593   4.690   1.788   6.255 -0.3844 -0.7378  0.2477
  331MOL0     C44594   4.726   1.643   6.242 -0.7632 -0.1223  0.1764
  331MOL0    Cl44595   4.833   1.609   6.093  0.3888 -0.4684 -0.1872
  331MOL0     C44596   4.466   2.649   5.927  0.3087  0.2065 -0.0407
  331MOL0     C44597   4.466   2.723   5.806 -0.2955 -0.7638 -0.0840
  331MOL0     O44598   4.718   2.842   5.595  0.1244  0.0779 -0.0088
  331MOL0     C44599   4.693   2.975   5.368 -0.1838 -0.1643 -0.1062
  331MOL0     C44600   4.678   3.073   5.256 -0.5024  0.0468 -0.7077
  331MOL0     N44601   4.747   3.270   4.481 -0.3714 -0.7811 -0.4061
  331MOL0     N44602   4.778   3.309   4.371  0.3161 -0.6623  0.6997
  331MOL0     C44603   4.726   4.398   3.928  0.7547 -0.6097  0.2293
  331MOL0     C44604   4.839   4.446   3.872  0.8442  0.0574  0.6938
  331MOL0     C44605   5.276   4.457   3.752 -0.2781 -0.9200  0.6605
  331MOL0     C44606   5.406   4.434   3.790  0.0228  0.9739 -0.4117
  331MOL0     C44607   5.514   4.501   3.731 -0.7462  1.0910 -0.0196
  331MOL0     C44608   5.496   4.609   3.645 -1.3083  0.6526  0.7929
  331MOL0     O44609   5.616   4.653   3.585 -0.0411 -0.8774 -0.5900
  331MOL0     C44610   5.603   4.774   3.509  0.0146  0.7911  0.3740
  331MOL0     C44611   5.716   4.777   3.407 -0.2640 -0.1435 -0.6565
  331MOL0     C44612   5.717   4.913   3.342  0.6245 -0.4436 -0.0763
  331MOL0     C44613   5.837   4.920   3.243  0.7726 -0.7736  0.6758
  331MOL0     C44614   5.818   5.043   3.162  0.7217 -0.6668  0.1244
  331MOL0     C44615   5.786   5.146   3.101 -0.1692  0.1309  0.2716
  331MOL0     C44616   5.366   4.639   3.602 -0.0018 -0.8174 -0.2403
  331MOL0     C44617   5.257   4.559   3.652 -0.1011 -0.6364  0.2173
  331MOL0     H44618   4.951   4.155   3.735  0.1988  0.5383 -0.0288
  331MOL0     H44619   4.741   4.078   3.832  0.8402 -0.5829  2.0404
  331MOL0     H44620   4.625   4.283   4.149 -0.1085  2.1787 -2.4650
  331MOL0     H44621   4.455   4.275   4.118  2.0379  2.5318  2.4433
  331MOL0     H44622   4.505   4.088   4.278  0.8039 -2.9122  0.5594
  331MOL0     H44623   4.480   4.016   4.119 -0.6418 -1.1460  2.6749
  331MOL0     H44624   4.717   4.003   4.081 -1.0658 -4.7222  0.0038
  331MOL0     H44625   4.755   4.062   4.252  2.2047 -1.4153 -0.0774
  331MOL0     H44626   4.612   3.857   4.313 -1.4620 -1.6627 -1.1327
  331MOL0     H44627   4.606   3.818   4.143  0.2200 -3.4681  2.3789
  331MOL0     H44628   4.849   3.804   4.135  0.2012 -1.6831 -0.0654
  331MOL0     H44629   4.863   3.833   4.316  1.6844 -2.9439  0.1719
  331MOL0     H44630   4.864   3.573   4.260 -0.1715 -1.1985 -0.6291
  331MOL0     H44631   4.742   3.631   4.355 -1.2916  0.4577 -0.0908
  331MOL0     H44632   4.568   3.599   4.186  1.0661  3.1441  1.0350
  331MOL0     H44633   4.686   3.592   4.060 -0.5074  0.0793  0.7058
  331MOL0     H44634   4.769   3.364   4.124  1.4972  0.1156  2.9980
  331MOL0     H44635   4.599   3.357   4.121  0.0293 -1.0295  0.9897
  331MOL0     H44636   4.471   3.418   4.371 -0.2416 -2.2492 -0.4670
  331MOL0     H44637   4.493   3.379   4.664 -0.8160 -1.3939  0.8750
  331MOL0     H44638   4.467   3.210   4.627 -1.8319  2.2158 -1.9136
  331MOL0     H44639   4.715   3.332   4.766  1.9016 -2.9083  2.0404
  331MOL0     H44640   4.677   3.164   4.742 -0.9001 -0.7138 -0.7580
  331MOL0     H44641   4.487   3.159   4.857  0.8036  0.8147 -0.8421
  331MOL0     H44642   4.484   3.334   4.879  0.3806  1.1349 -0.4760
  331MOL0     H44643   4.676   3.306   5.037 -0.7416  0.9413 -0.8533
  331MOL0     H44644   4.702   3.136   4.993  0.1263 -0.1113 -0.8049
  331MOL0     H44645   4.348   3.024   5.199 -1.2478 -5.2010 -0.5006
  331MOL0     H44646   4.285   2.855   5.464 -0.3606 -2.8410  0.2644
  331MOL0     H44647   4.257   2.825   5.296 -2.3495 -1.0133  1.9112
  331MOL0     H44648   4.366   2.724   5.382 -1.1212 -0.8587  1.6598
  331MOL0     H44649   4.672   2.539   5.621 -0.0330 -0.5586  1.1293
  331MOL0     H44650   4.642   2.380   5.831 -3.4846 -1.8530  1.0796
  331MOL0     H44651   4.584   2.276   6.019 -0.4380  0.1327 -1.0347
  331MOL0     H44652   4.702   2.381   6.071 -0.2565 -1.8863 -2.9283
  331MOL0     H44653   4.540   2.406   6.298 -1.5430  0.2746 -0.9925
  331MOL0     H44654   4.472   2.263   6.217 -1.2233  0.0607 -0.7674
  331MOL0     H44655   4.634   2.203   6.404 -0.0395  1.3363 -0.1029
  331MOL0     H44656   4.763   2.286   6.328 -0.0619 -0.7499  0.4069
  331MOL0     H44657   4.632   2.060   6.172 -2.1631  2.7946  1.2761
  331MOL0     H44658   4.771   2.152   6.128 -2.2641  0.4042 -0.9066
  331MOL0     H44659   4.767   2.000   6.397 -3.8924 -1.0371 -1.6483
  331MOL0     H44660   4.907   2.053   6.294 -0.4745 -0.2085 -1.9617
  331MOL0     H44661   4.851   1.889   6.131 -0.2308 -0.4819  0.1088
  331MOL0     H44662   4.897   1.822   6.285 -2.4289 -0.3442  2.7764
  331MOL0     H44663   4.621   1.801   6.171  1.3706  0.6207 -1.0552
  331MOL0     H44664   4.649   1.806   6.355 -0.0963 -1.7703  0.5618
  331MOL0     H44665   4.632   1.588   6.235 -0.5485 -0.2629 -2.8743
  331MOL0     H44666   4.788   1.605   6.324 -0.1667  1.7393  0.6404
  331MOL0     H44667   4.401   2.680   6.008 -3.2407 -1.6352 -1.9481
  331MOL0     H44668   4.395   2.801   5.778 -1.2829 -1.8342 -0.6659
  331MOL0     H44669   4.789   2.972   5.418 -0.9109 -1.5799  1.2876
  331MOL0     H44670   4.768   3.132   5.237 -0.5355  0.2944 -0.0983
  331MOL0     H44671   4.654   4.463   3.977 -0.0352  0.8350 -2.6590
  331MOL0     H44672   4.880   4.546   3.884  1.7191 -0.2044  0.0411
  331MOL0     H44673   5.438   4.356   3.859 -3.7058 -0.4805 -0.0912
  331MOL0     H44674   5.616   4.474   3.755 -0.7660  1.3851  0.4067
  331MOL0     H44675   5.514   4.769   3.446  1.5608 -2.1831 -1.8200
  331MOL0     H44676   5.602   4.863   3.572 -0.9295  1.4249 -0.5133
  331MOL0     H44677   5.696   4.700   3.332 -1.6433  1.2472 -1.7727
  331MOL0     H44678   5.815   4.760   3.451  0.3224  2.0851 -1.0141
  331MOL0     H44679   5.727   4.992   3.417 -2.7187  0.7297 -0.6864
  331MOL0     H44680   5.620   4.931   3.293 -0.2625 -0.9788  1.4036
  331MOL0     H44681   5.862   4.842   3.169  3.0969  0.9823 -0.5247
  331MOL0     H44682   5.926   4.934   3.304  2.1905  0.8532 -1.6004
  331MOL0     H44683   5.785   5.242   3.053  0.7310 -0.1721 -0.3907
  331MOL0     H44684   5.347   4.708   3.520  0.8995 -1.4859 -1.0389
  331MOL0     H44685   5.159   4.583   3.614 -0.0910  0.7842  1.0187
  332MOL0     O44686  10.937   9.976   3.254 -0.7369  0.2296 -0.1951
  332MOL0     C44687  10.825   9.979   3.307 -0.5875  0.0646 -0.7613
  332MOL0     O44688  10.710   9.926   3.263  0.7206  0.2920  0.1673
  332MOL0     C44689  10.695   9.876   3.137 -0.8927 -0.5108 -0.7028
  332MOL0     C44690  10.686   9.738   3.122  0.5408 -0.2021  0.7221
  332MOL0     C44691  10.686   9.692   2.998  1.2146  0.3141 -0.2582
  332MOL0     C44692  10.697   9.769   2.882 -0.4727  0.4723  0.0186
  332MOL0     O44693  10.692   9.712   2.753  0.0688  0.1730 -0.6076
  332MOL0     C44694  10.667   9.797   2.640 -0.9331 -0.3046  0.5158
  332MOL0     C44695  10.618   9.713   2.521  0.0525  0.1180 -0.8838
  332MOL0     C44696  10.508   9.607   2.547 -0.3620 -0.6559 -0.4188
  332MOL0     C44697  10.387   9.690   2.594 -0.2354  0.1410  0.3662
  332MOL0     C44698  10.265   9.700   2.497 -0.1409 -0.3278 -0.2440
  332MOL0     C44699  10.162   9.592   2.504  0.6483 -0.1673  0.1805
  332MOL0     C44700  10.212   9.447   2.499  0.4937 -0.1585  0.3760
  332MOL0     C44701  10.095   9.346   2.513  1.0549  0.0702 -0.3051
  332MOL0     N44702  10.001   9.337   2.404 -0.1070  0.6017  0.7469
  332MOL0     C44703   9.885   9.412   2.396  0.1984 -0.4233 -1.1752
  332MOL0     C44704   9.861   9.437   2.273 -0.7659 -0.8596 -0.1197
  332MOL0     C44705   9.750   9.531   2.207  0.0047  0.4168 -0.0587
  332MOL0     C44706   9.606   9.485   2.259 -0.9093  0.5241 -0.1049
  332MOL0     C44707   9.559   9.364   2.186 -0.0346  0.7418  0.0759
  332MOL0     C44708   9.501   9.409   2.047 -1.0917  0.5235 -0.5587
  332MOL0     O44709   9.414   9.518   2.058  0.5406 -0.5442  0.0792
  332MOL0     C44710   9.321   9.533   1.958 -0.0159  0.7504 -0.0326
  332MOL0     C44711   9.348   9.500   1.823 -0.0370  0.6586 -0.3180
  332MOL0     C44712   9.249   9.537   1.724 -0.3628 -0.7613 -0.0332
  332MOL0     C44713   9.288   9.519   1.576 -0.1921 -0.4543  0.4156
  332MOL0     C44714   9.120   9.595   1.754 -0.2575  0.5610  0.3543
  332MOL0     C44715   9.007   9.609   1.653  0.3542  0.3568 -0.3965
  332MOL0     O44716   8.886   9.601   1.709 -0.0911  0.8554 -0.2218
  332MOL0     C44717   8.785   9.618   1.621  0.2793 -0.3634  0.4319
  332MOL0     C44718   8.681   9.525   1.616 -0.1690 -0.4124 -0.2689
  332MOL0     C44719   8.568   9.534   1.525 -0.5521 -0.0653 -0.3881
  332MOL0     C44720   8.566   9.638   1.431 -0.2749  0.7700 -0.3974
  332MOL0     O44721   8.484   9.646   1.322 -0.2649 -0.1239  0.8740
  332MOL0     C44722   8.398   9.539   1.301  0.1690  0.2314  0.5063
  332MOL0     C44723   8.302   9.596   1.196  0.6696  0.4403  0.6184
  332MOL0     C44724   8.180   9.500   1.175  0.7185 -0.2206  0.3082
  332MOL0     C44725   8.203   9.364   1.107  0.0863 -0.7049  0.9593
  332MOL0     C44726   8.078   9.298   1.042 -0.0439  0.1572  0.1697
  332MOL0     C44727   8.081   9.143   1.006 -0.3023  0.5882  0.2687
  332MOL0     C44728   7.951   9.088   0.945  0.4822 -0.0994  0.0159
  332MOL0     C44729   7.974   8.937   0.910 -0.1492  0.3906  0.8332
  332MOL0    Cl44730   7.818   8.890   0.830  0.0541 -0.4457 -0.5013
  332MOL0     C44731   8.671   9.730   1.445  0.8355 -0.4010  0.5847
  332MOL0     C44732   8.771   9.728   1.543 -0.8532  0.5499 -1.1458
  332MOL0     O44733   9.034   9.610   1.534  0.5791  0.1191  0.0707
  332MOL0     C44734   9.096   9.604   1.897 -0.0732  0.5175  0.1974
  332MOL0     C44735   9.197   9.580   1.993  0.2858  0.3789 -0.5107
  332MOL0     N44736   9.955   9.374   2.200 -0.0135  0.7998  0.0176
  332MOL0     N44737  10.047   9.323   2.278  0.6025 -0.3773 -0.4262
  332MOL0     C44738  10.715   9.909   2.898 -0.4954  0.0056 -0.5798
  332MOL0     C44739  10.722   9.958   3.031  0.3882 -0.4595  0.3264
  332MOL0     C44740  10.823  10.030   3.442 -0.5982  0.6622 -0.1907
  332MOL0     C44741  10.710  10.014   3.530 -0.6466 -0.3881  0.0735
  332MOL0     C44742  10.712  10.074   3.654  0.3433 -0.6075 -0.0745
  332MOL0     C44743  10.827  10.135   3.710 -0.2953  0.3013  0.1108
  332MOL0     O44744  10.828  10.171   3.841  0.1982  0.4124 -0.1114
  332MOL0     C44745  10.738  10.109   3.936 -0.2898  0.9172 -0.2734
  332MOL0     C44746  10.713  10.213   4.026  0.3160 -0.6299  0.4358
  332MOL0     C44747  10.839  10.262   4.115 -0.2308 -0.2206 -0.7714
  332MOL0     C44748  10.822  10.380   4.210  0.6150 -0.3931  0.3271
  332MOL0     C44749  10.843  10.505   4.133 -0.1913 -0.2128 -0.5347
  332MOL0     C44750  10.852  10.611   4.074 -0.1501  0.4773 -0.4104
  332MOL0     C44751  10.937  10.149   3.630 -0.6272  0.2327 -0.7985
  332MOL0     C44752  10.944  10.101   3.496  0.2516  0.5201 -0.3104
  332MOL0     H44753  10.671   9.667   3.203 -3.6555  0.6306  0.8914
  332MOL0     H44754  10.658   9.591   2.968  0.6874  1.5273 -4.6793
  332MOL0     H44755  10.609   9.889   2.642  2.1897  1.7929  1.7475
  332MOL0     H44756  10.769   9.829   2.617 -0.9751  0.4796  1.3782
  332MOL0     H44757  10.587   9.780   2.439 -1.4808 -0.4937 -0.8441
  332MOL0     H44758  10.700   9.652   2.483 -0.7777 -0.1694 -2.2992
  332MOL0     H44759  10.483   9.549   2.457  3.0710  1.2790 -2.8604
  332MOL0     H44760  10.523   9.537   2.630 -0.0387  0.7757  0.7716
  332MOL0     H44761  10.349   9.644   2.685  1.2903  1.2371  1.6040
  332MOL0     H44762  10.426   9.791   2.605 -1.7132  0.8295 -0.3763
  332MOL0     H44763  10.213   9.793   2.524  1.4220 -0.2598  3.1034
  332MOL0     H44764  10.310   9.696   2.398  1.4620  1.3336  0.3509
  332MOL0     H44765  10.105   9.603   2.597 -2.1823 -0.0743 -1.4706
  332MOL0     H44766  10.089   9.610   2.425  1.3590  2.2854 -0.0154
  332MOL0     H44767  10.270   9.434   2.408  2.2057  2.6808  0.9620
  332MOL0     H44768  10.276   9.436   2.587  0.9746 -0.2764  0.0075
  332MOL0     H44769  10.030   9.366   2.600 -1.7169 -3.6183 -1.2535
  332MOL0     H44770  10.133   9.244   2.526  0.1153 -0.0391  2.0873
  332MOL0     H44771   9.823   9.445   2.479  1.3851 -1.2312  0.0840
  332MOL0     H44772   9.790   9.630   2.232  0.9223  0.5100 -1.7696
  332MOL0     H44773   9.754   9.510   2.100  0.2298 -1.2192  0.2452
  332MOL0     H44774   9.537   9.567   2.236 -2.5885 -0.8992 -0.2500
  332MOL0     H44775   9.608   9.456   2.365  1.2354  1.0256  0.0446
  332MOL0     H44776   9.500   9.301   2.252  1.1383  2.0545  2.5506
  332MOL0     H44777   9.646   9.304   2.158 -0.9724  0.8131 -3.4674
  332MOL0     H44778   9.434   9.331   2.009  1.3598 -0.9246 -2.1206
  332MOL0     H44779   9.576   9.434   1.972 -2.2832 -0.6398 -2.2375
  332MOL0     H44780   9.442   9.461   1.786 -0.1636 -2.4844  2.2980
  332MOL0     H44781   9.305   9.613   1.524 -0.6317 -0.2266  0.6719
  332MOL0     H44782   9.382   9.465   1.559  0.2518  0.3533  0.2834
  332MOL0     H44783   9.220   9.460   1.514  0.1881 -0.5590  0.0953
  332MOL0     H44784   8.690   9.444   1.687 -0.5329 -1.2623 -1.1607
  332MOL0     H44785   8.484   9.466   1.534 -3.2628  3.2490  2.1355
  332MOL0     H44786   8.458   9.453   1.270  0.1125  0.6074 -0.6820
  332MOL0     H44787   8.342   9.499   1.387  1.4645 -1.7568  0.4857
  332MOL0     H44788   8.254   9.684   1.239 -1.6005 -0.6583  0.4936
  332MOL0     H44789   8.339   9.628   1.099  0.6596  1.9459  1.0977
  332MOL0     H44790   8.106   9.552   1.113  2.5054 -0.4708 -2.1825
  332MOL0     H44791   8.128   9.475   1.267  1.9617  1.2383  1.4643
  332MOL0     H44792   8.271   9.380   1.023  0.0296  1.6489  1.3085
  332MOL0     H44793   8.235   9.291   1.183 -0.3682 -2.0992 -0.1600
  332MOL0     H44794   8.042   9.346   0.951 -0.1261 -1.9839 -0.9757
  332MOL0     H44795   8.003   9.303   1.121  0.9422 -0.7958  1.2028
  332MOL0     H44796   8.171   9.121   0.949 -0.3404  0.6266  0.1933
  332MOL0     H44797   8.097   9.082   1.095 -0.0293  1.9143  1.1686
  332MOL0     H44798   7.923   9.130   0.848  1.7407 -1.3964 -0.9500
  332MOL0     H44799   7.863   9.095   1.010 -0.0659  1.8341 -0.8547
  332MOL0     H44800   7.990   8.880   1.003 -1.7115  0.4156  1.1503
  332MOL0     H44801   8.049   8.927   0.831 -1.7166  5.1073 -1.6235
  332MOL0     H44802   8.674   9.811   1.371 -0.9371 -0.9735 -0.1708
  332MOL0     H44803   8.851   9.800   1.532 -0.7182  0.4418 -0.8800
  332MOL0     H44804   9.002   9.635   1.942  1.1803  2.2661  1.7376
  332MOL0     H44805   9.169   9.582   2.097 -0.0732 -0.7102 -0.5703
  332MOL0     H44806  10.728   9.985   2.822 -1.7040  2.3120  1.3405
  332MOL0     H44807  10.742  10.063   3.049  3.0202 -0.4651 -1.9804
  332MOL0     H44808  10.615   9.975   3.495 -0.6055  0.2014 -0.7308
  332MOL0     H44809  10.615  10.065   3.702 -0.9220  1.7882 -1.9795
  332MOL0     H44810  10.641  10.076   3.897  0.3864 -2.3734  0.5306
  332MOL0     H44811  10.778  10.016   3.979 -0.5105  0.6776 -0.5801
  332MOL0     H44812  10.641  10.185   4.103 -0.2799 -3.4063 -1.0198
  332MOL0     H44813  10.683  10.292   3.957  1.2572 -1.6826 -1.2419
  332MOL0     H44814  10.928  10.284   4.055  0.1969 -0.3226 -0.1763
  332MOL0     H44815  10.870  10.175   4.174  1.2363 -0.4889 -1.8885
  332MOL0     H44816  10.889  10.384   4.297 -0.5631  2.6838  1.2274
  332MOL0     H44817  10.723  10.364   4.253  1.6596 -1.3719  2.5210
  332MOL0     H44818  10.857  10.708   4.029  2.5582  2.0539  2.7974
  332MOL0     H44819  11.025  10.191   3.678 -1.2133 -0.2044  0.7252
  332MOL0     H44820  11.033  10.118   3.437  0.1678  2.3713  0.0282
  333MOL0     O44821   3.262   0.394   7.260  0.0004  0.4433 -0.0362
  333MOL0     C44822   3.284   0.500   7.316  1.3818 -0.3863  0.2267
  333MOL0     O44823   3.269   0.525   7.455  0.3917 -0.1396  1.1312
  333MOL0     C44824   3.205   0.434   7.540  0.5316 -0.2861  0.1555
  333MOL0     C44825   3.242   0.425   7.674 -0.5204 -0.0716  0.2752
  333MOL0     C44826   3.171   0.339   7.763  0.5296  0.2657 -0.4680
  333MOL0     C44827   3.071   0.256   7.722  1.0830 -0.0978 -1.4454
  333MOL0     O44828   3.003   0.191   7.820 -0.4249  0.4517  0.2524
  333MOL0     C44829   3.012   0.048   7.810  0.0364 -0.3489 -0.9030
  333MOL0     C44830   3.152   0.013   7.882  0.0765  0.0910 -0.2004
  333MOL0     C44831   3.158  -0.127   7.957 -0.0558 -0.3115 -0.2228
  333MOL0     C44832   3.136  -0.233   7.849 -0.4903 -0.4827 -0.5340
  333MOL0     C44833   3.232  -0.335   7.865 -0.7226 -0.4588 -0.4820
  333MOL0     C44834   3.223  -0.463   7.782  0.6345 -0.0274  0.9809
  333MOL0     C44835   3.223  -0.434   7.629 -0.3733 -0.2484  0.2950
  333MOL0     C44836   3.277  -0.553   7.533  0.5421  0.0698  0.5498
  333MOL0     N44837   3.176  -0.658   7.547  0.4013  0.5684 -0.5932
  333MOL0     C44838   3.187  -0.760   7.646  0.6696  0.0106  1.0227
  333MOL0     C44839   3.070  -0.821   7.657 -0.8667  0.0599 -0.0928
  333MOL0     C44840   3.040  -0.919   7.766  1.0890 -0.8503  0.2511
  333MOL0     C44841   3.063  -1.057   7.712  0.9046  0.1186  0.1418
  333MOL0     C44842   2.963  -1.093   7.599 -0.8828 -0.5446  1.0611
  333MOL0     C44843   2.814  -1.061   7.639  0.2196 -0.4754  0.6708
  333MOL0     O44844   2.712  -1.118   7.546 -0.1840  0.3394 -0.1507
  333MOL0     C44845   2.633  -1.039   7.472 -0.5295  0.4647 -0.2365
  333MOL0     C44846   2.518  -1.096   7.410  0.9666  0.2200  0.0309
  333MOL0     C44847   2.441  -1.025   7.315  0.4257  0.0863 -0.3828
  333MOL0     C44848   2.335  -1.106   7.249 -0.9731  0.1970 -0.7592
  333MOL0     C44849   2.481  -0.898   7.269  0.4838 -0.7703  0.0425
  333MOL0     C44850   2.402  -0.828   7.166  0.1493 -0.3533 -0.0146
  333MOL0     O44851   2.270  -0.849   7.163 -0.5791  0.5181  0.3857
  333MOL0     C44852   2.203  -0.784   7.067 -0.2710 -0.2675  0.2184
  333MOL0     C44853   2.086  -0.725   7.097 -0.0050  1.3576  0.3689
  333MOL0     C44854   1.999  -0.670   7.003 -0.2945  0.7207 -0.4647
  333MOL0     C44855   2.027  -0.678   6.868  1.0295 -0.9153 -0.4044
  333MOL0     O44856   1.935  -0.622   6.792  0.9411  0.0099  0.2593
  333MOL0     C44857   1.923  -0.673   6.657 -0.3873  0.6164  0.2064
  333MOL0     C44858   2.024  -0.620   6.557 -0.1341 -0.5933  0.4826
  333MOL0     C44859   1.958  -0.522   6.455  0.2627  0.8912  0.2945
  333MOL0     C44860   1.870  -0.599   6.357  0.8833  0.4961  0.6686
  333MOL0     C44861   1.783  -0.529   6.262 -0.6986 -0.6407  0.0898
  333MOL0     C44862   1.696  -0.617   6.182 -0.1093  0.3580 -0.0703
  333MOL0     C44863   1.651  -0.538   6.059  0.5954  0.5324 -0.1647
  333MOL0     C44864   1.721  -0.581   5.928 -0.0754  0.1577  0.6133
  333MOL0    Cl44865   1.729  -0.760   5.901  0.6183  0.4288  0.1236
  333MOL0     C44866   2.136  -0.757   6.827 -0.4399  0.5435 -0.4216
  333MOL0     C44867   2.228  -0.797   6.928  0.0996  0.3859  0.4322
  333MOL0     O44868   2.460  -0.747   7.093  0.2163  0.5783  0.3423
  333MOL0     C44869   2.599  -0.849   7.325  0.3305  0.0655  0.1489
  333MOL0     C44870   2.678  -0.918   7.418 -0.7719 -0.1367  0.0268
  333MOL0     N44871   2.986  -0.758   7.562  0.7597  0.5523 -0.7038
  333MOL0     N44872   3.045  -0.651   7.514  0.7245 -1.5865 -0.9146
  333MOL0     C44873   3.033   0.256   7.587 -0.1976 -0.3332 -0.8308
  333MOL0     C44874   3.101   0.342   7.498 -0.0943 -0.0359 -0.3152
  333MOL0     C44875   3.348   0.612   7.238 -0.2497 -0.7271 -0.3510
  333MOL0     C44876   3.424   0.595   7.121  0.3801  0.0954 -0.1658
  333MOL0     C44877   3.480   0.700   7.061  0.3336  0.4528  0.2837
  333MOL0     C44878   3.462   0.823   7.112  0.3303 -0.0451  0.5021
  333MOL0     O44879   3.519   0.937   7.058  0.1070  0.0434  0.2377
  333MOL0     C44880   3.592   0.936   6.938 -0.3536  0.5915 -0.4457
  333MOL0     C44881   3.643   1.066   6.883  0.0645  0.0786 -0.4807
  333MOL0     C44882   3.683   1.055   6.732 -0.3788  0.3330  0.0924
  333MOL0     C44883   3.707   1.190   6.668 -0.3628  0.2445  0.5609
  333MOL0     C44884   3.593   1.214   6.573 -0.1247 -0.3587 -0.0281
  333MOL0     C44885   3.509   1.244   6.497  0.3084  0.2547  0.2263
  333MOL0     C44886   3.365   0.846   7.212  0.5250 -0.2170 -0.4182
  333MOL0     C44887   3.315   0.743   7.278  0.5094  0.5744  0.2157
  333MOL0     H44888   3.307   0.502   7.714 -2.9128  1.0068  2.4109
  333MOL0     H44889   3.204   0.357   7.864 -0.5131  0.0868 -0.0779
  333MOL0     H44890   2.939   0.008   7.882 -1.0880  1.7529 -0.8207
  333MOL0     H44891   2.993   0.005   7.712 -0.9708 -0.3417 -0.7189
  333MOL0     H44892   3.229   0.024   7.805  1.5808 -1.1433  1.0275
  333MOL0     H44893   3.174   0.085   7.961  2.9634 -0.4253 -0.3954
  333MOL0     H44894   3.259  -0.134   7.999 -0.0543  0.1971 -0.1290
  333MOL0     H44895   3.093  -0.145   8.043  0.6075 -1.0844  0.1273
  333MOL0     H44896   3.034  -0.273   7.851 -0.8392  0.3137 -1.3997
  333MOL0     H44897   3.158  -0.182   7.755  2.1730  3.6168  1.9863
  333MOL0     H44898   3.330  -0.290   7.852 -0.1104 -0.9257  1.9202
  333MOL0     H44899   3.241  -0.370   7.969  1.1549 -1.7088 -1.0138
  333MOL0     H44900   3.312  -0.522   7.806  0.0149 -2.9670 -2.8730
  333MOL0     H44901   3.137  -0.525   7.806 -0.6566  0.3949 -2.0386
  333MOL0     H44902   3.116  -0.434   7.605 -0.8799 -3.0998  1.9767
  333MOL0     H44903   3.286  -0.351   7.595 -0.5164 -0.0811  0.4399
  333MOL0     H44904   3.379  -0.591   7.541  0.3776 -0.9923 -1.6757
  333MOL0     H44905   3.268  -0.517   7.430  0.3403 -1.0997  0.1468
  333MOL0     H44906   3.281  -0.776   7.697 -0.4966 -1.1186  2.8994
  333MOL0     H44907   3.090  -0.884   7.857 -3.7855  0.7554  2.6743
  333MOL0     H44908   2.934  -0.902   7.785  1.1063 -0.7480  0.2511
  333MOL0     H44909   3.038  -1.136   7.784  2.1435  0.9766  1.5549
  333MOL0     H44910   3.168  -1.060   7.683  1.4522 -0.3661  2.0691
  333MOL0     H44911   2.975  -1.199   7.575  2.4705 -0.6117  2.4640
  333MOL0     H44912   2.975  -1.035   7.506 -1.4248  1.8001  2.3736
  333MOL0     H44913   2.797  -0.953   7.646  1.1833 -0.2071 -0.7892
  333MOL0     H44914   2.799  -1.092   7.743  0.6531  0.3337  0.9821
  333MOL0     H44915   2.493  -1.201   7.427  1.9539 -0.0986 -0.3737
  333MOL0     H44916   2.351  -1.214   7.260 -3.3248 -0.0445  1.1940
  333MOL0     H44917   2.232  -1.077   7.270 -1.0567  1.8335 -3.0255
  333MOL0     H44918   2.353  -1.087   7.143  2.2068  2.4357  0.0613
  333MOL0     H44919   2.042  -0.732   7.196 -1.3629 -0.0751 -0.2955
  333MOL0     H44920   1.904  -0.629   7.037 -1.1974 -0.1203 -1.8940
  333MOL0     H44921   1.925  -0.782   6.644 -0.3531  0.5296  0.9009
  333MOL0     H44922   1.826  -0.634   6.626 -0.7743 -0.1997  0.3839
  333MOL0     H44923   2.093  -0.552   6.608 -1.1794 -0.6346  2.0349
  333MOL0     H44924   2.071  -0.707   6.512 -0.0748 -0.7296  0.8024
  333MOL0     H44925   2.036  -0.468   6.400  0.9451 -1.2263 -0.9258
  333MOL0     H44926   1.899  -0.442   6.500 -0.7071  1.4821 -1.8918
  333MOL0     H44927   1.941  -0.658   6.298  1.4120  0.4954  1.2989
  333MOL0     H44928   1.807  -0.668   6.413  1.3110  1.1974  2.0656
  333MOL0     H44929   1.849  -0.477   6.192 -2.6206 -0.1720 -1.4580
  333MOL0     H44930   1.725  -0.456   6.320 -0.1884  0.2921 -0.5414
  333MOL0     H44931   1.747  -0.708   6.150  4.7525  3.3362 -1.8175
  333MOL0     H44932   1.609  -0.662   6.230 -0.3078  0.9062  0.0992
  333MOL0     H44933   1.663  -0.435   6.093  2.2863 -0.1373  1.4477
  333MOL0     H44934   1.543  -0.551   6.055  0.6265  0.1565  0.1398
  333MOL0     H44935   1.826  -0.551   5.924 -0.6769  2.7804  2.1755
  333MOL0     H44936   1.663  -0.544   5.843 -0.7147 -1.2841  0.3886
  333MOL0     H44937   2.174  -0.764   6.726  2.1172 -0.0710  0.5109
  333MOL0     H44938   2.320  -0.842   6.893  1.9349  3.7737  0.5158
  333MOL0     H44939   2.629  -0.758   7.275  0.5352 -0.5922 -0.9600
  333MOL0     H44940   2.770  -0.869   7.450 -0.1712 -0.0257 -1.7480
  333MOL0     H44941   2.952   0.192   7.555  0.8286 -1.5165 -1.1667
  333MOL0     H44942   3.050   0.346   7.402 -3.5783  2.1572  1.3965
  333MOL0     H44943   3.433   0.500   7.070 -0.4413  0.4975 -1.0975
  333MOL0     H44944   3.540   0.681   6.973 -0.3598  1.6171 -0.4650
  333MOL0     H44945   3.681   0.872   6.947  0.2784  0.7169 -3.9873
  333MOL0     H44946   3.528   0.894   6.860  0.4116 -3.5990  0.9582
  333MOL0     H44947   3.724   1.117   6.936  0.7683 -0.6869 -0.7907
  333MOL0     H44948   3.552   1.126   6.894 -0.9187 -0.9467 -2.4835
  333MOL0     H44949   3.610   0.996   6.677 -0.1420 -0.8164  0.9660
  333MOL0     H44950   3.774   0.994   6.725  0.1358  1.2056 -1.6427
  333MOL0     H44951   3.808   1.196   6.626 -0.9730  1.3380 -0.8375
  333MOL0     H44952   3.706   1.263   6.750  1.1095  1.3214 -0.3380
  333MOL0     H44953   3.422   1.258   6.435  0.6694  1.7748  0.0238
  333MOL0     H44954   3.331   0.944   7.242 -0.0880 -0.6499  0.3360
  333MOL0     H44955   3.238   0.764   7.352 -0.0760  0.9618 -0.4831
  334MOL0     O44956  10.289   4.409   8.264  0.6439  0.4075  0.0952
  334MOL0     C44957  10.251   4.506   8.208  0.0732 -0.4263  0.0451
  334MOL0     O44958  10.123   4.562   8.201  0.2001  0.1386 -0.4818
  334MOL0     C44959  10.000   4.507   8.238  0.8349 -0.1172 -0.0645
  334MOL0     C44960   9.884   4.574   8.186  0.1274 -0.1709  0.5307
  334MOL0     C44961   9.751   4.530   8.212 -1.6475  1.0235 -0.0113
  334MOL0     C44962   9.735   4.416   8.288 -0.1024  0.0620  0.0811
  334MOL0     O44963   9.609   4.370   8.313 -0.2411  0.0408  0.4447
  334MOL0     C44964   9.588   4.233   8.366 -0.4183 -0.0813 -0.5793
  334MOL0     C44965   9.493   4.164   8.285  1.3696  0.1194  0.0386
  334MOL0     C44966   9.356   4.225   8.294  0.6987  0.4165  0.2311
  334MOL0     C44967   9.249   4.145   8.216  0.7486  1.1039  0.0810
  334MOL0     C44968   9.132   4.234   8.174 -0.3251 -0.1298  0.1115
  334MOL0     C44969   8.998   4.167   8.150 -0.4968 -0.0495  0.4669
  334MOL0     C44970   8.884   4.274   8.139  0.6908 -0.2313 -0.5968
  334MOL0     C44971   8.852   4.345   8.280 -0.6414  0.4192  0.2850
  334MOL0     N44972   8.713   4.390   8.280 -0.4193 -0.1737 -0.4057
  334MOL0     C44973   8.669   4.518   8.252 -0.1741 -0.2327 -0.7858
  334MOL0     C44974   8.540   4.517   8.292 -0.2584  0.3308  0.5331
  334MOL0     C44975   8.455   4.639   8.308  0.5228 -0.3006 -0.0211
  334MOL0     C44976   8.330   4.628   8.391 -0.3043  0.1638 -0.3630
  334MOL0     C44977   8.243   4.762   8.371  0.5335 -0.4966  0.7027
  334MOL0     C44978   8.116   4.788   8.436  0.8696  0.1390 -0.4917
  334MOL0     O44979   8.000   4.748   8.351 -0.3450 -0.3296  0.0367
  334MOL0     C44980   7.874   4.764   8.405 -0.1942  0.5060 -0.3935
  334MOL0     C44981   7.773   4.704   8.332 -0.1385 -0.1570  0.7107
  334MOL0     C44982   7.644   4.692   8.376  0.3666 -0.5596 -0.1771
  334MOL0     C44983   7.544   4.609   8.289 -0.3072  0.5169 -0.1869
  334MOL0     C44984   7.611   4.739   8.507  0.1705 -0.5397  1.0034
  334MOL0     C44985   7.485   4.714   8.581  0.7941  1.0379  0.0839
  334MOL0     O44986   7.450   4.774   8.694 -0.5518  0.2376  0.2890
  334MOL0     C44987   7.316   4.789   8.732  0.0343  0.0962  0.8242
  334MOL0     C44988   7.292   4.839   8.859  0.0629  0.3670 -0.6070
  334MOL0     C44989   7.161   4.865   8.913 -0.3837  0.3384  0.2740
  334MOL0     C44990   7.054   4.852   8.825  0.5465 -0.1437  1.1756
  334MOL0     O44991   6.928   4.872   8.886  0.2505 -0.7457  0.0755
  334MOL0     C44992   6.812   4.887   8.793  0.3378  0.2397  0.5222
  334MOL0     C44993   6.679   4.912   8.867  0.6380 -0.2713 -0.1085
  334MOL0     C44994   6.551   4.880   8.784 -0.1415 -0.1973 -0.2449
  334MOL0     C44995   6.547   4.980   8.672  0.0210 -0.7381  0.0497
  334MOL0     C44996   6.421   4.960   8.588  0.0488 -0.1183 -0.1956
  334MOL0     C44997   6.339   5.093   8.567  0.1815  0.2371 -0.6693
  334MOL0     C44998   6.222   5.084   8.461  0.1539  0.1055 -0.2315
  334MOL0     C44999   6.083   5.115   8.515  0.2455 -0.5165 -0.3201
  334MOL0    Cl45000   6.034   5.010   8.656 -0.0502 -0.1549  0.1456
  334MOL0     C45001   7.080   4.795   8.694  0.8672 -0.4504  0.4323
  334MOL0     C45002   7.207   4.765   8.654  0.5869 -0.7022 -0.5291
  334MOL0     O45003   7.428   4.614   8.545  0.0859  0.0992 -0.0349
  334MOL0     C45004   7.707   4.816   8.576  0.5337 -0.8222  0.3339
  334MOL0     C45005   7.830   4.824   8.523 -0.9932  0.5917 -0.4651
  334MOL0     N45006   8.506   4.385   8.313 -0.3052 -0.3910 -0.2584
  334MOL0     N45007   8.609   4.313   8.311 -1.2115  0.5263 -0.0667
  334MOL0     C45008   9.853   4.352   8.342 -0.2030 -0.0044  0.2502
  334MOL0     C45009   9.981   4.401   8.324 -0.6171 -0.1740 -0.4620
  334MOL0     C45010  10.359   4.570   8.135 -0.2080  0.0959  0.8484
  334MOL0     C45011  10.496   4.551   8.153  0.5545 -0.0232  0.7553
  334MOL0     C45012  10.593   4.607   8.067 -0.8111  0.6133  0.4163
  334MOL0     C45013  10.560   4.680   7.956 -0.4117  0.1881  0.5578
  334MOL0     O45014  10.654   4.753   7.876 -0.3543  0.0280  0.2253
  334MOL0     C45015  10.799   4.733   7.903  0.2045 -0.7476  0.4314
  334MOL0     C45016  10.871   4.787   7.773 -0.9509  0.6301  0.7697
  334MOL0     C45017  10.846   4.938   7.755 -0.5044 -0.4015  0.1337
  334MOL0     C45018  10.939   4.999   7.646 -0.5427  0.5586  0.0145
  334MOL0     C45019  10.913   5.139   7.630 -0.3677 -0.0242 -0.4497
  334MOL0     C45020  10.867   5.250   7.622  0.1829  0.4835  0.3559
  334MOL0     C45021  10.420   4.702   7.942 -0.4244 -0.7943  0.1672
  334MOL0     C45022  10.327   4.653   8.025 -0.3802 -0.3317 -0.5557
  334MOL0     H45023   9.895   4.652   8.111 -0.2519 -0.9978 -0.4030
  334MOL0     H45024   9.666   4.586   8.174 -1.4302  1.8116  0.6204
  334MOL0     H45025   9.668   4.162   8.343  0.1132  0.3111  0.0332
  334MOL0     H45026   9.566   4.245   8.472  0.8836  0.1737 -0.3163
  334MOL0     H45027   9.533   4.181   8.185  0.7976  2.2770  0.1130
  334MOL0     H45028   9.488   4.058   8.313 -2.4345 -0.7386 -3.0893
  334MOL0     H45029   9.322   4.260   8.392 -0.3701  1.8454 -0.6038
  334MOL0     H45030   9.360   4.317   8.234  0.1533  0.6658  0.5688
  334MOL0     H45031   9.299   4.120   8.122  1.6500 -0.1862  0.8650
  334MOL0     H45032   9.222   4.063   8.283 -2.5981  0.6297 -1.6174
  334MOL0     H45033   9.125   4.309   8.253  0.6977  1.3290 -1.1027
  334MOL0     H45034   9.145   4.286   8.078 -0.3472 -1.8077 -0.8342
  334MOL0     H45035   9.012   4.116   8.055 -0.9068  3.6093 -1.7447
  334MOL0     H45036   8.976   4.091   8.226 -0.3317 -0.2138  0.3516
  334MOL0     H45037   8.913   4.354   8.070 -0.9667  1.5694  0.6660
  334MOL0     H45038   8.787   4.233   8.107 -0.7165  1.1233  1.6242
  334MOL0     H45039   8.923   4.425   8.300 -0.7960  0.8140 -0.6916
  334MOL0     H45040   8.869   4.264   8.351  1.8732  0.9598  0.3864
  334MOL0     H45041   8.734   4.596   8.213 -1.2476  1.0135 -0.1442
  334MOL0     H45042   8.511   4.713   8.366 -2.3022 -1.1130  4.2058
  334MOL0     H45043   8.430   4.678   8.209 -2.5475 -1.6487  0.1229
  334MOL0     H45044   8.358   4.609   8.495  0.3174  2.7419  0.0035
  334MOL0     H45045   8.284   4.534   8.360  0.9187 -0.8856  0.8847
  334MOL0     H45046   8.218   4.770   8.265 -2.7184  0.7631  1.4430
  334MOL0     H45047   8.311   4.846   8.389 -1.0504  0.7868  0.8860
  334MOL0     H45048   8.103   4.895   8.457  1.6278 -0.0672  1.2209
  334MOL0     H45049   8.115   4.719   8.521 -0.9676  0.2237 -0.4062
  334MOL0     H45050   7.809   4.650   8.245  0.1004 -0.7294  1.1607
  334MOL0     H45051   7.589   4.566   8.199 -2.0319  0.1328 -0.9108
  334MOL0     H45052   7.515   4.521   8.348  1.2893  0.1016  0.0097
  334MOL0     H45053   7.459   4.671   8.257  0.4917  1.8128  0.1326
  334MOL0     H45054   7.383   4.850   8.918 -0.5817 -0.9152  0.7112
  334MOL0     H45055   7.141   4.901   9.013 -2.9372  0.2845 -0.1438
  334MOL0     H45056   6.825   4.971   8.725 -1.2861 -1.1501 -1.6491
  334MOL0     H45057   6.803   4.796   8.733 -0.3374  0.4359  0.3159
  334MOL0     H45058   6.669   4.856   8.961 -2.8005  1.4072  0.6860
  334MOL0     H45059   6.672   5.015   8.904 -2.0447  1.0513 -3.6778
  334MOL0     H45060   6.466   4.889   8.851  0.8965 -0.0903  1.1019
  334MOL0     H45061   6.561   4.783   8.733 -0.6299 -0.8453  0.8559
  334MOL0     H45062   6.554   5.083   8.708  0.4367 -0.9177  0.4933
  334MOL0     H45063   6.641   4.963   8.620  1.5216 -2.1946  2.9793
  334MOL0     H45064   6.359   4.884   8.635 -2.4041  0.4077 -2.3543
  334MOL0     H45065   6.441   4.939   8.482 -1.1350  4.6412 -1.6314
  334MOL0     H45066   6.291   5.123   8.661  0.1274 -3.3556  0.6176
  334MOL0     H45067   6.404   5.173   8.534 -1.5474  0.4899 -3.8234
  334MOL0     H45068   6.213   4.980   8.428 -1.4157 -0.1828  0.9865
  334MOL0     H45069   6.248   5.152   8.380 -2.1564  1.8731  0.4007
  334MOL0     H45070   6.008   5.104   8.436 -0.0469 -0.0972 -0.1089
  334MOL0     H45071   6.082   5.221   8.543  4.0911 -0.4622  0.1562
  334MOL0     H45072   7.003   4.775   8.621  0.2375  5.3812 -0.9639
  334MOL0     H45073   7.212   4.724   8.554 -1.7214  2.3746 -2.0562
  334MOL0     H45074   7.677   4.851   8.674 -1.7492  2.0075 -1.2043
  334MOL0     H45075   7.907   4.875   8.580  0.8710 -1.9489 -0.4834
  334MOL0     H45076   9.836   4.265   8.405 -1.7001 -0.5859 -0.8800
  334MOL0     H45077  10.066   4.347   8.364  1.5468  0.6165 -3.5999
  334MOL0     H45078  10.538   4.493   8.234 -0.4440  2.2714  3.0618
  334MOL0     H45079  10.699   4.598   8.090 -0.6691 -2.1145 -0.8992
  334MOL0     H45080  10.824   4.804   7.982 -2.6441  3.9352 -2.3846
  334MOL0     H45081  10.828   4.628   7.913  1.1986 -0.9547 -3.1623
  334MOL0     H45082  10.836   4.730   7.687  0.0167 -1.3789  1.6184
  334MOL0     H45083  10.979   4.772   7.784 -0.9695  0.1768  0.3812
  334MOL0     H45084  10.868   4.991   7.848 -1.6595  0.0228  0.1822
  334MOL0     H45085  10.743   4.962   7.725 -0.0885  0.9256 -0.3104
  334MOL0     H45086  10.931   4.948   7.550  2.8077 -1.6871  0.7308
  334MOL0     H45087  11.043   4.981   7.676 -0.3754 -2.2387 -1.8257
  334MOL0     H45088  10.831   5.351   7.625  0.6407  0.7501 -1.7459
  334MOL0     H45089  10.391   4.772   7.865  2.4591  0.3396 -0.0225
  334MOL0     H45090  10.227   4.693   8.014 -1.0112 -1.9138 -0.7768
  335MOL0     O45091   4.885   6.083   0.907 -0.3568  0.2916  0.7734
  335MOL0     C45092   4.873   5.967   0.864 -0.2823  0.4944  0.2522
  335MOL0     O45093   4.758   5.884   0.869  0.2513 -0.0208 -0.1191
  335MOL0     C45094   4.648   5.902   0.950 -1.1462 -1.1650  0.4079
  335MOL0     C45095   4.608   6.027   0.991  0.2780  0.8192  0.2013
  335MOL0     C45096   4.484   6.034   1.060  0.1398 -0.1894 -0.0023
  335MOL0     C45097   4.424   5.918   1.106 -0.5711 -0.0067 -0.1067
  335MOL0     O45098   4.312   5.930   1.175  0.2147  0.0406  0.1831
  335MOL0     C45099   4.263   5.827   1.263  1.3244 -0.5317 -0.1680
  335MOL0     C45100   4.122   5.866   1.322 -0.3503 -1.0203  0.5506
  335MOL0     C45101   4.092   5.755   1.427 -0.4226  0.4964  0.3619
  335MOL0     C45102   4.159   5.770   1.561 -0.0566  0.4209  0.6049
  335MOL0     C45103   4.110   5.692   1.680  0.5044 -0.6334 -0.6293
  335MOL0     C45104   3.980   5.745   1.750 -0.9840  0.2725  0.0595
  335MOL0     C45105   3.945   5.693   1.894 -0.9472  0.0403  0.3232
  335MOL0     C45106   3.796   5.715   1.920  1.0570 -0.0129 -0.7597
  335MOL0     N45107   3.741   5.851   1.926  0.2929  0.1280 -0.2033
  335MOL0     C45108   3.758   5.940   2.033 -0.3135  0.5477  0.1234
  335MOL0     C45109   3.655   6.026   2.021 -0.3123  0.5869 -0.1521
  335MOL0     C45110   3.607   6.129   2.118  0.3402 -0.0733 -0.8162
  335MOL0     C45111   3.712   6.223   2.171 -0.6749  0.0392  0.9208
  335MOL0     C45112   3.681   6.283   2.309  0.4947  0.1029 -0.0505
  335MOL0     C45113   3.554   6.370   2.299 -0.0243 -0.0045  0.5629
  335MOL0     O45114   3.477   6.355   2.417  1.0523 -0.3753  0.0521
  335MOL0     C45115   3.500   6.446   2.518 -0.9378 -0.4291  0.9851
  335MOL0     C45116   3.611   6.524   2.540  0.1750  0.3552  0.2891
  335MOL0     C45117   3.619   6.609   2.646 -1.0037 -0.3255  0.6351
  335MOL0     C45118   3.763   6.657   2.682  0.2589  0.4209 -0.3998
  335MOL0     C45119   3.508   6.637   2.721 -0.0131  0.1663  0.0595
  335MOL0     C45120   3.505   6.732   2.846  0.5103  0.7233 -0.3995
  335MOL0     O45121   3.442   6.687   2.955  0.2023  0.2453  0.8527
  335MOL0     C45122   3.429   6.773   3.062 -0.8195 -0.7740  0.6283
  335MOL0     C45123   3.340   6.887   3.061 -0.1955  0.5979  0.2870
  335MOL0     C45124   3.345   6.981   3.166 -0.3395  0.0676  0.1645
  335MOL0     C45125   3.443   6.959   3.272  0.7260  0.1524  0.6593
  335MOL0     O45126   3.428   7.055   3.366  0.9024 -0.7049  0.3088
  335MOL0     C45127   3.471   7.014   3.495  0.0496 -0.8251 -0.0671
  335MOL0     C45128   3.440   7.121   3.590  0.4010  0.5922 -1.2978
  335MOL0     C45129   3.481   7.267   3.535  0.8188 -0.5036 -0.1870
  335MOL0     C45130   3.633   7.273   3.487  0.2419 -0.8057 -0.0776
  335MOL0     C45131   3.667   7.414   3.439 -0.5250  0.3115 -0.1977
  335MOL0     C45132   3.808   7.419   3.390  0.7727 -1.1500 -0.1198
  335MOL0     C45133   3.908   7.419   3.507 -0.2295 -0.5561  0.2446
  335MOL0     C45134   4.045   7.453   3.446  0.5461 -0.4074  0.3462
  335MOL0    Cl45135   4.179   7.458   3.557  0.1803  0.0667 -0.3172
  335MOL0     C45136   3.530   6.845   3.275 -0.2913  1.0400  0.2295
  335MOL0     C45137   3.523   6.755   3.167 -0.0533 -0.5810 -0.7745
  335MOL0     O45138   3.556   6.842   2.836  0.4163  0.3546 -0.5405
  335MOL0     C45139   3.399   6.568   2.702  1.0162  0.4063  0.0509
  335MOL0     C45140   3.393   6.474   2.601  0.0220  0.8861  1.1433
  335MOL0     N45141   3.581   5.983   1.911 -0.3720  1.1070 -0.0315
  335MOL0     N45142   3.634   5.883   1.851 -0.1686  0.1063 -0.0264
  335MOL0     C45143   4.463   5.793   1.050 -0.2732 -0.0924  0.5864
  335MOL0     C45144   4.572   5.795   0.966  0.9670  1.0758 -0.3573
  335MOL0     C45145   5.001   5.900   0.811  0.5259  0.3606  0.1163
  335MOL0     C45146   5.009   5.761   0.808  0.8882 -0.4337 -1.0735
  335MOL0     C45147   5.119   5.698   0.752 -0.4202  0.2511  0.0696
  335MOL0     C45148   5.230   5.769   0.703  0.2288  0.1545  0.0829
  335MOL0     O45149   5.343   5.705   0.670 -0.6158  0.9856 -0.9208
  335MOL0     C45150   5.466   5.775   0.639 -0.2721 -0.7676 -0.5365
  335MOL0     C45151   5.580   5.673   0.588  0.5156 -0.3936 -1.0391
  335MOL0     C45152   5.649   5.595   0.707  0.3246 -0.4128 -0.8707
  335MOL0     C45153   5.716   5.473   0.648 -0.7319  0.0614 -0.5939
  335MOL0     C45154   5.828   5.430   0.732  0.1441  0.7797 -0.8011
  335MOL0     C45155   5.921   5.377   0.788 -0.9018 -0.2486 -0.6961
  335MOL0     C45156   5.225   5.912   0.705  1.1571  0.3976 -0.7685
  335MOL0     C45157   5.109   5.981   0.757  0.3761  1.2091 -0.4508
  335MOL0     H45158   4.660   6.120   0.969 -0.6485  0.6169 -3.3293
  335MOL0     H45159   4.445   6.126   1.103 -3.3071 -1.7402  0.5312
  335MOL0     H45160   4.244   5.731   1.213 -0.8674 -0.5794  0.6802
  335MOL0     H45161   4.333   5.808   1.346  2.0315  1.4807 -0.2494
  335MOL0     H45162   4.125   5.961   1.377  3.2876 -0.1051 -0.8954
  335MOL0     H45163   4.054   5.884   1.239  2.6849  1.0579 -1.7028
  335MOL0     H45164   3.984   5.750   1.439 -0.1993 -2.0368  1.8705
  335MOL0     H45165   4.116   5.659   1.380 -0.7389  0.7586 -0.3487
  335MOL0     H45166   4.264   5.743   1.542 -0.6221  0.2252 -2.7349
  335MOL0     H45167   4.164   5.876   1.589  4.9109  0.2273  1.4717
  335MOL0     H45168   4.103   5.585   1.663 -0.6925 -0.6580 -0.0884
  335MOL0     H45169   4.196   5.718   1.742  0.6455 -0.4357 -0.9049
  335MOL0     H45170   3.991   5.850   1.780 -2.7132  0.4972 -0.0075
  335MOL0     H45171   3.892   5.740   1.685 -0.8035  0.8693 -0.2456
  335MOL0     H45172   3.960   5.585   1.904 -1.5190  0.0641  1.6281
  335MOL0     H45173   3.994   5.747   1.975  0.9566 -0.8560 -0.1683
  335MOL0     H45174   3.772   5.648   2.003 -0.8430 -3.6470 -3.9128
  335MOL0     H45175   3.752   5.671   1.830  0.8232 -0.7849 -0.2789
  335MOL0     H45176   3.829   5.939   2.116  1.1273 -0.3738 -1.0602
  335MOL0     H45177   3.523   6.182   2.072 -3.9764 -1.8263  4.0285
  335MOL0     H45178   3.567   6.080   2.208 -0.9327  3.0123  0.4494
  335MOL0     H45179   3.734   6.308   2.106  0.1297 -0.0069  1.1182
  335MOL0     H45180   3.808   6.171   2.175 -0.9123 -0.3325  3.7148
  335MOL0     H45181   3.761   6.356   2.328  0.5929 -0.4465  1.9025
  335MOL0     H45182   3.677   6.210   2.391  0.2064  2.3385  2.0573
  335MOL0     H45183   3.487   6.325   2.225  2.0349  1.9611 -2.7272
  335MOL0     H45184   3.573   6.475   2.275  0.2046 -0.0432  0.5757
  335MOL0     H45185   3.701   6.526   2.480 -0.6285 -0.7268 -0.9952
  335MOL0     H45186   3.811   6.600   2.763  2.9999  0.5376 -1.8224
  335MOL0     H45187   3.840   6.659   2.605  0.5389 -0.6496 -0.1757
  335MOL0     H45188   3.748   6.752   2.733  3.5728 -0.6792  3.0664
  335MOL0     H45189   3.279   6.903   2.973  0.2528  0.7909  0.0128
  335MOL0     H45190   3.289   7.074   3.156  0.2692  0.5444  1.1105
  335MOL0     H45191   3.417   6.925   3.529 -1.9554 -0.1274 -1.2459
  335MOL0     H45192   3.578   6.994   3.509 -0.1078 -0.4495  2.0459
  335MOL0     H45193   3.332   7.116   3.606  0.4093  1.2379 -1.0324
  335MOL0     H45194   3.487   7.102   3.687 -1.2930  2.7004  0.0322
  335MOL0     H45195   3.473   7.344   3.613  3.2823 -1.1965  0.8569
  335MOL0     H45196   3.412   7.300   3.457 -0.4432 -1.5501  0.4459
  335MOL0     H45197   3.704   7.249   3.566 -1.7568  0.5049  2.2578
  335MOL0     H45198   3.645   7.204   3.403 -0.5685 -0.7647 -0.2366
  335MOL0     H45199   3.657   7.492   3.516 -0.4072  0.4034 -0.2759
  335MOL0     H45200   3.601   7.427   3.352 -3.0553 -1.2859  1.3471
  335MOL0     H45201   3.842   7.340   3.323  0.5632  0.0639 -1.7329
  335MOL0     H45202   3.821   7.509   3.329 -0.0092 -0.6389  0.4440
  335MOL0     H45203   3.909   7.324   3.560  0.2643 -0.6007  0.1546
  335MOL0     H45204   3.884   7.499   3.578 -1.3727  0.7128 -1.4692
  335MOL0     H45205   4.049   7.545   3.387 -0.5094 -1.0982 -0.8377
  335MOL0     H45206   4.075   7.371   3.381  0.9512  0.4247 -0.5533
  335MOL0     H45207   3.601   6.833   3.356  0.5924  1.2914 -0.4839
  335MOL0     H45208   3.594   6.673   3.165 -0.1705 -0.6696 -2.4702
  335MOL0     H45209   3.306   6.594   2.751  2.7479  0.6670  3.5247
  335MOL0     H45210   3.293   6.437   2.582  0.4808 -0.3729  1.0914
  335MOL0     H45211   4.408   5.701   1.060 -0.9208  0.1832 -0.2698
  335MOL0     H45212   4.597   5.697   0.926 -0.8244  0.1765  0.5952
  335MOL0     H45213   4.936   5.708   0.868  1.3586  0.9657  0.8445
  335MOL0     H45214   5.132   5.590   0.744 -2.2826 -0.0999  1.2027
  335MOL0     H45215   5.454   5.853   0.563 -3.9382 -0.8116 -0.1892
  335MOL0     H45216   5.502   5.828   0.728 -0.3066 -2.5544  0.5916
  335MOL0     H45217   5.660   5.723   0.533  2.0832 -1.1889  0.4011
  335MOL0     H45218   5.521   5.603   0.528  2.2361 -3.7832  0.8779
  335MOL0     H45219   5.561   5.563   0.763 -0.4363  0.5081 -1.4998
  335MOL0     H45220   5.718   5.664   0.758 -2.7946  1.8145  0.7503
  335MOL0     H45221   5.742   5.507   0.548 -0.3064 -0.1196 -0.5483
  335MOL0     H45222   5.645   5.390   0.631  0.7438 -0.9141 -2.4018
  335MOL0     H45223   6.007   5.339   0.839 -1.2288  1.2784  1.0792
  335MOL0     H45224   5.304   5.976   0.667  0.6997  1.9559  0.7731
  335MOL0     H45225   5.096   6.089   0.760  2.6570  1.5296  1.7727
  336MOL0     O45226   5.277  11.363   0.529 -0.2005 -0.9194 -0.5524
  336MOL0     C45227   5.293  11.432   0.430 -0.3869  0.0919 -0.2564
  336MOL0     O45228   5.227  11.417   0.314 -0.0730  0.5207  0.0190
  336MOL0     C45229   5.144  11.311   0.314  0.1251  0.6255 -0.4952
  336MOL0     C45230   5.012  11.318   0.370  0.1742  0.5107  0.0085
  336MOL0     C45231   4.918  11.216   0.343 -0.2874  0.6814  0.4322
  336MOL0     C45232   4.956  11.101   0.269  0.0201 -0.9950 -0.3753
  336MOL0     O45233   4.868  10.993   0.244  0.1564  0.6894 -0.0301
  336MOL0     C45234   4.726  11.002   0.253  0.6912  0.0502  0.6510
  336MOL0     C45235   4.675  10.855   0.237  0.6118 -0.1173  0.3245
  336MOL0     C45236   4.522  10.856   0.261  0.4289 -0.8531  0.5417
  336MOL0     C45237   4.454  10.741   0.190  1.2487 -0.4665 -0.1165
  336MOL0     C45238   4.305  10.740   0.231  0.1658  0.3931  0.6048
  336MOL0     C45239   4.282  10.670   0.369  0.8518 -0.5272 -0.0362
  336MOL0     C45240   4.149  10.696   0.438  0.4285 -0.4963 -0.2279
  336MOL0     C45241   4.034  10.668   0.358 -0.7344  0.3428 -0.6007
  336MOL0     N45242   3.900  10.710   0.410  0.0422  0.1617 -0.1972
  336MOL0     C45243   3.864  10.720   0.541  0.7712 -0.2633  0.5628
  336MOL0     C45244   3.732  10.757   0.538 -0.4862 -0.6996 -0.1450
  336MOL0     C45245   3.638  10.772   0.656  0.9314  0.2324 -0.1929
  336MOL0     C45246   3.552  10.643   0.681  0.5618  0.0765 -0.7215
  336MOL0     C45247   3.472  10.606   0.550  0.1874 -0.6942  0.7749
  336MOL0     C45248   3.371  10.491   0.570  0.5476 -0.0478  1.0392
  336MOL0     O45249   3.303  10.462   0.443 -0.2524  0.1180 -0.1427
  336MOL0     C45250   3.176  10.417   0.433  0.0781 -0.4074  0.8621
  336MOL0     C45251   3.107  10.414   0.309 -0.4867  0.8463  0.2596
  336MOL0     C45252   2.973  10.372   0.290  0.7648 -0.0556  0.2651
  336MOL0     C45253   2.921  10.370   0.144 -0.1982 -0.5903 -0.3066
  336MOL0     C45254   2.896  10.347   0.408 -0.4693  1.1337 -0.1569
  336MOL0     C45255   2.755  10.300   0.410  0.2058 -0.9921 -0.1699
  336MOL0     O45256   2.709  10.203   0.497 -0.4825 -0.1171 -0.0216
  336MOL0     C45257   2.573  10.193   0.537 -0.2243 -0.0510 -0.1718
  336MOL0     C45258   2.482  10.295   0.530 -0.0006 -0.1695 -0.2267
  336MOL0     C45259   2.353  10.280   0.588  0.2319  0.2938 -0.3059
  336MOL0     C45260   2.307  10.153   0.625  0.2709 -0.5337  0.0654
  336MOL0     O45261   2.166  10.132   0.654 -1.1038 -1.1374 -0.6258
  336MOL0     C45262   2.075  10.098   0.552  0.3666 -0.0812 -0.3942
  336MOL0     C45263   1.977  10.001   0.622 -1.0957 -0.0656  0.4484
  336MOL0     C45264   1.882   9.921   0.522 -0.1111 -0.7775 -0.0877
  336MOL0     C45265   1.778  10.002   0.458  0.3886  0.3358 -1.4422
  336MOL0     C45266   1.680   9.917   0.374 -0.6627 -0.5419  0.2637
  336MOL0     C45267   1.740   9.850   0.247 -0.2319  0.5545  1.1900
  336MOL0     C45268   1.628   9.790   0.162  0.5188  0.3394  0.3457
  336MOL0     C45269   1.690   9.739   0.031 -0.6311 -0.2658 -0.4302
  336MOL0    Cl45270   1.781   9.583   0.059  0.1767  0.7999  0.5668
  336MOL0     C45271   2.397  10.044   0.616 -0.6814 -0.1614  0.4936
  336MOL0     C45272   2.533  10.063   0.587  1.3766 -0.8118  0.0231
  336MOL0     O45273   2.687  10.373   0.347  0.0636  0.2891  0.3033
  336MOL0     C45274   2.964  10.352   0.530 -0.1355  0.2506  0.1260
  336MOL0     C45275   3.102  10.384   0.542 -0.0787 -0.2783  0.4844
  336MOL0     N45276   3.697  10.777   0.403  0.8702 -0.6570  0.0697
  336MOL0     N45277   3.798  10.746   0.328  0.4892  0.6786  0.6239
  336MOL0     C45278   5.087  11.091   0.218  0.3149 -1.0156  1.1929
  336MOL0     C45279   5.179  11.193   0.244  0.1222  0.2381 -0.3701
  336MOL0     C45280   5.388  11.541   0.447 -0.1008  0.4271  0.1862
  336MOL0     C45281   5.461  11.558   0.560 -0.1992  0.2205  0.0819
  336MOL0     C45282   5.531  11.677   0.580 -1.2746 -0.3620  0.7633
  336MOL0     C45283   5.534  11.777   0.481  0.2240 -0.6580 -0.0521
  336MOL0     O45284   5.591  11.910   0.498  0.2885  0.3299  0.4014
  336MOL0     C45285   5.669  11.955   0.606 -0.3258  0.1266 -0.4171
  336MOL0     C45286   5.802  11.884   0.619 -0.9205 -0.0027 -0.1982
  336MOL0     C45287   5.895  11.903   0.496 -0.2548 -0.5240  0.3194
  336MOL0     C45288   5.950  12.041   0.459  0.5935 -1.1283 -0.8271
  336MOL0     C45289   5.855  12.096   0.356 -0.3872  0.2014  0.0941
  336MOL0     C45290   5.762  12.132   0.283 -0.1230  0.9105  0.3795
  336MOL0     C45291   5.473  11.747   0.363  0.5354  0.2410  0.2955
  336MOL0     C45292   5.406  11.629   0.337  0.3288 -0.5662  0.0955
  336MOL0     H45293   4.985  11.409   0.423  2.6445  0.9579  0.6030
  336MOL0     H45294   4.821  11.228   0.390  0.0041 -1.9809  1.8934
  336MOL0     H45295   4.707  11.033   0.357  0.4407  1.3853  0.2247
  336MOL0     H45296   4.684  11.078   0.187  1.7990 -0.7335 -1.0287
  336MOL0     H45297   4.698  10.822   0.135  0.4431  1.9530 -0.4286
  336MOL0     H45298   4.711  10.780   0.307 -1.3382 -1.4405  0.0130
  336MOL0     H45299   4.509  10.861   0.370 -1.4369 -1.1089  0.3670
  336MOL0     H45300   4.480  10.952   0.229  1.4211 -1.2664 -2.2722
  336MOL0     H45301   4.458  10.751   0.081  5.2726 -1.1703 -0.1734
  336MOL0     H45302   4.506  10.649   0.217 -0.5202 -1.4896 -0.0062
  336MOL0     H45303   4.259  10.837   0.245  0.2873  0.7196 -0.9930
  336MOL0     H45304   4.249  10.684   0.155  1.4998  0.2671 -0.3434
  336MOL0     H45305   4.288  10.562   0.357 -1.9582 -0.9022  1.3372
  336MOL0     H45306   4.371  10.701   0.425 -0.1328  1.1764  0.6830
  336MOL0     H45307   4.153  10.638   0.531  1.1767  1.0793  0.7741
  336MOL0     H45308   4.151  10.799   0.475  3.4898 -0.1334 -1.1179
  336MOL0     H45309   4.020  10.564   0.327 -1.1930  1.1368 -3.3479
  336MOL0     H45310   4.057  10.722   0.266  0.3256 -1.4377 -1.4493
  336MOL0     H45311   3.915  10.681   0.629 -0.6638 -0.0767  1.5170
  336MOL0     H45312   3.693  10.797   0.747  1.2758 -2.3182  0.3848
  336MOL0     H45313   3.570  10.850   0.620 -0.0965 -1.3247 -1.8252
  336MOL0     H45314   3.484  10.663   0.764  0.3719 -2.4320 -0.1941
  336MOL0     H45315   3.625  10.567   0.708  0.8317  0.2804 -0.8708
  336MOL0     H45316   3.541  10.562   0.477 -0.5990  1.6321 -1.4913
  336MOL0     H45317   3.423  10.690   0.502 -0.4375 -2.3844 -1.7246
  336MOL0     H45318   3.287  10.520   0.635 -1.1222 -1.6917 -0.2899
  336MOL0     H45319   3.412  10.398   0.612 -1.0837  0.1018  3.1851
  336MOL0     H45320   3.170  10.442   0.226 -0.1570 -3.8033 -1.3385
  336MOL0     H45321   2.862  10.278   0.135  0.7723 -0.9892 -3.6372
  336MOL0     H45322   2.866  10.461   0.119 -0.9202 -1.1897 -0.9432
  336MOL0     H45323   3.002  10.355   0.072  1.4291  0.0308  1.2944
  336MOL0     H45324   2.501  10.398   0.502 -0.2167 -0.3822 -1.1815
  336MOL0     H45325   2.286  10.362   0.610 -1.5221 -1.0738 -0.3447
  336MOL0     H45326   2.018  10.187   0.524 -0.5055  0.0691  1.6392
  336MOL0     H45327   2.123  10.049   0.467 -0.1204  0.4863 -1.0046
  336MOL0     H45328   2.037   9.942   0.692  2.5270  2.6485 -0.0262
  336MOL0     H45329   1.911  10.059   0.687 -1.8084 -2.5625  2.0932
  336MOL0     H45330   1.852   9.832   0.577  3.4365 -1.0416  1.7102
  336MOL0     H45331   1.938   9.889   0.433 -1.1169  1.4455 -1.6147
  336MOL0     H45332   1.713  10.044   0.534  0.7694 -1.3355 -0.1466
  336MOL0     H45333   1.834  10.078   0.402 -4.1839  4.1341 -1.5592
  336MOL0     H45334   1.599   9.982   0.340 -0.3957  0.1388  0.9037
  336MOL0     H45335   1.639   9.841   0.441  0.5615 -0.4012  1.2036
  336MOL0     H45336   1.779   9.941   0.199 -1.4271  0.1831 -0.5746
  336MOL0     H45337   1.816   9.775   0.271 -1.3672 -1.2874 -0.6284
  336MOL0     H45338   1.551   9.865   0.137  0.3852 -0.1515 -0.7368
  336MOL0     H45339   1.581   9.703   0.209 -0.6943 -0.5366 -2.2642
  336MOL0     H45340   1.760   9.812  -0.009 -0.9973  2.8644  3.9311
  336MOL0     H45341   1.616   9.725  -0.048 -0.0834  0.5312 -1.1080
  336MOL0     H45342   2.365   9.943   0.641 -3.3129  0.1272 -1.2682
  336MOL0     H45343   2.607   9.986   0.606  1.7591 -0.0394  1.9027
  336MOL0     H45344   2.903  10.339   0.619 -1.8514  0.7149 -0.9287
  336MOL0     H45345   3.148  10.388   0.640 -2.2558  2.2250  1.5377
  336MOL0     H45346   5.111  11.020   0.139  0.4653  2.7529 -2.4806
  336MOL0     H45347   5.280  11.198   0.204  0.6452 -2.1099  0.4962
  336MOL0     H45348   5.460  11.492   0.646 -0.5056  0.5153  0.3048
  336MOL0     H45349   5.578  11.692   0.677  4.1089 -1.7007 -1.2271
  336MOL0     H45350   5.691  12.062   0.594  1.8325 -0.2163  0.0279
  336MOL0     H45351   5.612  11.945   0.699  2.0446  1.1602  1.2464
  336MOL0     H45352   5.786  11.776   0.631  2.2661 -0.7470 -1.6191
  336MOL0     H45353   5.854  11.909   0.711  3.3137 -2.6230 -1.5872
  336MOL0     H45354   5.849  11.856   0.409 -0.0774 -1.8968  0.9467
  336MOL0     H45355   5.984  11.840   0.506  0.8348  0.7488 -0.9092
  336MOL0     H45356   6.053  12.033   0.423  1.6199 -0.6683  1.7309
  336MOL0     H45357   5.941  12.111   0.543  0.3448 -1.7203 -0.3511
  336MOL0     H45358   5.672  12.143   0.227  1.1613 -2.5982 -2.8058
  336MOL0     H45359   5.472  11.822   0.284 -1.1289  1.5106  1.4228
  336MOL0     H45360   5.356  11.611   0.243 -0.0332 -1.3892  0.4407
  337MOL0     O45361   3.852   8.794   1.184 -0.0388  0.2230 -0.3867
  337MOL0     C45362   3.830   8.735   1.078 -0.1185 -0.8122 -0.3794
  337MOL0     O45363   3.914   8.662   0.995  0.8621 -0.0597 -0.1510
  337MOL0     C45364   4.024   8.601   1.042 -0.3332 -0.7252 -0.2508
  337MOL0     C45365   4.145   8.670   1.027 -0.0381  0.0848  0.2629
  337MOL0     C45366   4.264   8.613   1.075  0.4067  0.8060 -0.1092
  337MOL0     C45367   4.274   8.484   1.127 -0.2156  0.5338 -0.1551
  337MOL0     O45368   4.385   8.414   1.163  0.9813 -0.0080  0.6154
  337MOL0     C45369   4.516   8.482   1.144  0.4783  0.3283 -0.2324
  337MOL0     C45370   4.615   8.393   1.209 -1.4211  0.0553 -0.5663
  337MOL0     C45371   4.761   8.441   1.190 -0.8038 -0.1906  0.1666
  337MOL0     C45372   4.849   8.380   1.300  0.3476  0.2372  1.2295
  337MOL0     C45373   4.992   8.376   1.269 -0.7531 -0.0318  0.1571
  337MOL0     C45374   5.073   8.310   1.386  0.2438  0.5270 -1.2285
  337MOL0     C45375   5.169   8.418   1.443 -0.3488 -0.8370  0.0441
  337MOL0     C45376   5.092   8.491   1.548  0.2355 -0.0214 -0.4310
  337MOL0     N45377   5.006   8.599   1.498  0.0224  0.1553 -0.0962
  337MOL0     C45378   5.033   8.706   1.422  0.3570 -1.0166 -0.1418
  337MOL0     C45379   4.918   8.776   1.396  0.4284 -1.0841 -1.1302
  337MOL0     C45380   4.893   8.890   1.301  0.2349  0.5428  0.3464
  337MOL0     C45381   4.923   9.028   1.357  0.1699 -0.6617  0.2596
  337MOL0     C45382   4.875   9.059   1.502 -0.3102  0.9454 -0.3203
  337MOL0     C45383   4.731   9.030   1.523  1.3656 -0.4001  0.1182
  337MOL0     O45384   4.655   9.147   1.481 -0.2580  0.5501 -0.4183
  337MOL0     C45385   4.529   9.160   1.529  0.0607  0.2864  0.1332
  337MOL0     C45386   4.470   9.280   1.495  0.9292  0.3034 -0.3251
  337MOL0     C45387   4.331   9.301   1.523  0.1924 -0.0851 -0.3056
  337MOL0     C45388   4.269   9.425   1.455 -0.7304 -0.4355  0.1917
  337MOL0     C45389   4.259   9.194   1.591  0.1329  0.1775  0.2935
  337MOL0     C45390   4.118   9.208   1.624 -0.0980 -0.5353  0.8755
  337MOL0     O45391   4.078   9.335   1.623 -0.0053  0.8769 -0.1558
  337MOL0     C45392   3.944   9.368   1.654 -0.3130 -1.2334 -0.0013
  337MOL0     C45393   3.870   9.314   1.752  0.8245 -0.5188  0.2802
  337MOL0     C45394   3.733   9.345   1.756  0.5938  0.2527 -0.8495
  337MOL0     C45395   3.675   9.440   1.675 -0.2990 -0.6617 -0.7611
  337MOL0     O45396   3.544   9.463   1.688  0.4274 -0.4283 -0.3027
  337MOL0     C45397   3.487   9.554   1.592 -0.6163  1.3079  0.3839
  337MOL0     C45398   3.336   9.555   1.614  0.0499  0.0635  0.1125
  337MOL0     C45399   3.297   9.649   1.728 -0.5573 -0.3727 -0.6408
  337MOL0     C45400   3.141   9.654   1.763 -0.0850  1.1500 -0.7066
  337MOL0     C45401   3.109   9.730   1.894  1.0016  0.2639  1.4011
  337MOL0     C45402   3.124   9.885   1.873 -0.5791  0.4532  0.3300
  337MOL0     C45403   3.041   9.965   1.973 -0.2333  0.2167 -0.9643
  337MOL0     C45404   3.094   9.949   2.113 -0.4249  0.4113  0.3884
  337MOL0    Cl45405   3.254  10.013   2.124  0.0083  0.0809  0.1187
  337MOL0     C45406   3.761   9.503   1.583  0.2106  0.4396  0.7143
  337MOL0     C45407   3.888   9.461   1.566  0.0606  0.0396  0.6459
  337MOL0     O45408   4.049   9.107   1.652 -0.2540 -0.0349 -0.6434
  337MOL0     C45409   4.324   9.077   1.629 -0.3906  0.0823 -0.2772
  337MOL0     C45410   4.458   9.061   1.596  0.1402  0.6796  0.8947
  337MOL0     N45411   4.824   8.714   1.466  0.1549  0.1042 -0.5225
  337MOL0     N45412   4.876   8.612   1.522  0.1587  0.3092  0.2683
  337MOL0     C45413   4.144   8.422   1.146  0.1358  0.2243  1.0637
  337MOL0     C45414   4.028   8.479   1.107  1.3814  0.3080 -0.2053
  337MOL0     C45415   3.692   8.765   1.030  0.4608 -0.1225  0.1278
  337MOL0     C45416   3.637   8.681   0.926 -0.1401  0.2339 -0.9901
  337MOL0     C45417   3.508   8.699   0.881  0.3462  0.9466  0.3307
  337MOL0     C45418   3.433   8.802   0.938 -0.6643 -1.3696  0.7140
  337MOL0     O45419   3.313   8.856   0.894  0.0951  0.5256  0.1439
  337MOL0     C45420   3.239   8.784   0.782 -0.2031 -0.0884  0.2421
  337MOL0     C45421   3.122   8.881   0.719 -0.5435 -0.7307 -1.3306
  337MOL0     C45422   3.046   8.818   0.614  0.3607  0.5174  0.6461
  337MOL0     C45423   2.944   8.918   0.553 -0.9531 -0.1462 -0.1918
  337MOL0     C45424   2.848   8.949   0.654  1.2653 -0.6223  0.3481
  337MOL0     C45425   2.756   8.952   0.733 -0.1627  0.7473  0.2530
  337MOL0     C45426   3.490   8.882   1.040  0.4391 -0.0306 -0.4444
  337MOL0     C45427   3.608   8.851   1.095 -0.3101  0.4184 -0.3420
  337MOL0     H45428   4.155   8.770   0.986  1.1815  0.1114  0.5993
  337MOL0     H45429   4.354   8.672   1.062  0.4280  0.8540  0.2384
  337MOL0     H45430   4.533   8.488   1.036  1.9055 -0.6673 -0.0874
  337MOL0     H45431   4.532   8.583   1.182  2.0880 -0.6327  1.8428
  337MOL0     H45432   4.591   8.382   1.315  1.7320 -0.9387  0.1385
  337MOL0     H45433   4.605   8.292   1.168  1.3716  0.0807 -1.4913
  337MOL0     H45434   4.797   8.401   1.094  1.2104 -1.2794  1.3098
  337MOL0     H45435   4.781   8.549   1.188 -0.4827 -0.2398 -1.9410
  337MOL0     H45436   4.816   8.425   1.395  0.3854  2.2280  0.3394
  337MOL0     H45437   4.808   8.279   1.310 -0.7406  0.3995 -1.0270
  337MOL0     H45438   5.003   8.315   1.179 -0.6183  0.8469 -0.4308
  337MOL0     H45439   5.028   8.476   1.247 -0.6433  0.0396  0.6473
  337MOL0     H45440   5.013   8.277   1.471 -0.0836 -0.3921 -1.8014
  337MOL0     H45441   5.120   8.214   1.360 -0.5590 -0.1498 -0.2763
  337MOL0     H45442   5.258   8.365   1.479  0.7057  1.3550  0.8888
  337MOL0     H45443   5.201   8.487   1.364 -0.2904  0.2991  1.0246
  337MOL0     H45444   5.165   8.545   1.609  1.1848 -0.0592 -1.5041
  337MOL0     H45445   5.033   8.429   1.616 -2.0652  1.9001 -0.5501
  337MOL0     H45446   5.128   8.728   1.374 -0.2190  1.0524 -0.4369
  337MOL0     H45447   4.952   8.873   1.210 -1.4309  2.8552 -1.2700
  337MOL0     H45448   4.793   8.881   1.259 -0.0205 -1.5710  1.3040
  337MOL0     H45449   4.864   9.099   1.297 -3.0637 -1.4908  2.1965
  337MOL0     H45450   5.029   9.052   1.352 -0.2207  1.0182 -2.2110
  337MOL0     H45451   4.886   9.164   1.531  1.4745  0.5568  0.6099
  337MOL0     H45452   4.936   9.001   1.572  0.9743  1.6409 -0.8295
  337MOL0     H45453   4.731   9.012   1.631 -2.5177  1.9531  0.6835
  337MOL0     H45454   4.678   8.952   1.468 -2.2033  0.6795  1.7884
  337MOL0     H45455   4.526   9.361   1.450  1.3040 -0.7195 -1.7790
  337MOL0     H45456   4.332   9.485   1.389 -3.0440  1.5266 -0.3878
  337MOL0     H45457   4.188   9.390   1.390  1.9069 -1.4699 -2.7596
  337MOL0     H45458   4.231   9.496   1.529 -2.9263 -1.1141 -0.2098
  337MOL0     H45459   3.913   9.251   1.830  0.7894 -0.4345  0.3671
  337MOL0     H45460   3.666   9.285   1.816  1.0216 -0.1247 -0.7429
  337MOL0     H45461   3.521   9.658   1.604 -0.2663  1.3360 -0.7057
  337MOL0     H45462   3.510   9.504   1.498  0.9267 -0.1413  1.4720
  337MOL0     H45463   3.282   9.582   1.523 -2.6067  1.5285  2.0287
  337MOL0     H45464   3.296   9.458   1.646 -0.5639  1.1150  2.6847
  337MOL0     H45465   3.335   9.747   1.700  0.1366 -0.7355 -0.9903
  337MOL0     H45466   3.359   9.619   1.813 -0.4122  2.7250  0.4874
  337MOL0     H45467   3.083   9.688   1.677 -1.6839 -1.7298 -0.9013
  337MOL0     H45468   3.120   9.547   1.773  0.6497  0.9770 -0.8976
  337MOL0     H45469   3.179   9.701   1.973  0.5919  1.2045  2.1343
  337MOL0     H45470   3.007   9.698   1.915  0.6222  0.7887  0.3981
  337MOL0     H45471   3.226   9.924   1.871 -0.1848 -0.5411  0.1258
  337MOL0     H45472   3.069   9.900   1.780 -2.0682  0.7429  1.2288
  337MOL0     H45473   2.940   9.921   1.976  0.8800 -2.9849 -3.8246
  337MOL0     H45474   3.030  10.072   1.954 -1.8488  0.7243  2.1039
  337MOL0     H45475   3.092   9.844   2.143  0.2941  0.3766  0.3314
  337MOL0     H45476   3.022   9.999   2.179 -1.4344  2.2226 -1.9524
  337MOL0     H45477   3.735   9.581   1.512  0.7136  1.1065  1.2517
  337MOL0     H45478   3.948   9.505   1.487  1.7974 -1.2751  1.1489
  337MOL0     H45479   4.274   8.990   1.672  0.5044 -0.0753  0.4661
  337MOL0     H45480   4.508   8.971   1.631  1.0316  0.8300  0.0549
  337MOL0     H45481   4.146   8.327   1.200 -0.7553  0.4110  1.4509
  337MOL0     H45482   3.938   8.419   1.107  2.1674 -0.9091  0.5403
  337MOL0     H45483   3.703   8.608   0.880 -0.1983 -1.9967  2.1573
  337MOL0     H45484   3.477   8.652   0.788 -0.4548  1.6619  0.2204
  337MOL0     H45485   3.310   8.764   0.702  0.5760  1.0733  0.6260
  337MOL0     H45486   3.186   8.696   0.821 -0.3304  0.1359  0.5823
  337MOL0     H45487   3.158   8.979   0.688  0.1247 -0.2838  0.7196
  337MOL0     H45488   3.053   8.901   0.801  1.6320 -0.8754  0.6292
  337MOL0     H45489   2.988   8.731   0.647 -0.7970  1.6503  1.6658
  337MOL0     H45490   3.119   8.780   0.541  1.1170  2.4255  0.3648
  337MOL0     H45491   2.899   8.873   0.464  0.1849  0.0690 -0.9060
  337MOL0     H45492   2.995   9.002   0.506  0.3255 -1.3720 -1.0936
  337MOL0     H45493   2.672   8.958   0.800  0.9856 -1.7226  2.0753
  337MOL0     H45494   3.429   8.960   1.085 -1.4763 -0.8245 -1.5450
  337MOL0     H45495   3.641   8.900   1.186 -0.2223 -0.2086 -0.0356
  338MOL0     O45496  10.895   2.809   5.169  0.0955 -0.1553  0.0978
  338MOL0     C45497  10.904   2.699   5.227 -0.2718 -0.0475  0.6809
  338MOL0     O45498  11.022   2.639   5.255 -0.4332  0.0850  0.2141
  338MOL0     C45499  11.149   2.706   5.270  0.2103  0.0392 -0.4171
  338MOL0     C45500  11.233   2.637   5.357  0.4047  1.0506  0.8267
  338MOL0     C45501  11.364   2.678   5.386  1.3087 -0.1304  0.5882
  338MOL0     C45502  11.412   2.793   5.329  0.2039  0.2202  0.3769
  338MOL0     O45503  11.532   2.834   5.379  0.6231 -0.5082 -0.0535
  338MOL0     C45504  11.637   2.746   5.366  0.0665  1.0415  0.3203
  338MOL0     C45505  11.768   2.819   5.365  0.5907 -0.5039 -0.7628
  338MOL0     C45506  11.883   2.734   5.330 -0.5141  1.1787 -0.2602
  338MOL0     C45507  11.994   2.827   5.276 -0.3490 -0.4014 -0.4395
  338MOL0     C45508  12.050   2.936   5.372 -0.1464 -0.4374  1.1654
  338MOL0     C45509  12.094   2.872   5.503 -0.5776 -0.2617 -0.1513
  338MOL0     C45510  12.170   2.981   5.583  0.2831 -0.9206  1.0984
  338MOL0     C45511  12.186   2.934   5.741 -0.1071 -0.1183 -0.0055
  338MOL0     N45512  12.224   3.051   5.819  0.7150  0.2439 -0.2143
  338MOL0     C45513  12.340   3.122   5.799  0.3591  0.3420 -0.2372
  338MOL0     C45514  12.308   3.248   5.852 -0.4974 -0.2044 -0.1669
  338MOL0     C45515  12.395   3.372   5.839 -0.3385  0.3048 -0.2425
  338MOL0     C45516  12.409   3.443   5.969  0.1838 -0.6273  0.3404
  338MOL0     C45517  12.513   3.377   6.060 -0.1425  0.0041  0.6493
  338MOL0     C45518  12.510   3.427   6.212  0.6464  0.0276 -0.5482
  338MOL0     O45519  12.569   3.329   6.300 -1.0223 -0.3410  1.1248
  338MOL0     C45520  12.702   3.297   6.263  0.3974  0.6095 -0.1480
  338MOL0     C45521  12.797   3.397   6.214  0.0119  0.8220 -0.5443
  338MOL0     C45522  12.937   3.365   6.219  0.5196  0.9209  0.4010
  338MOL0     C45523  13.041   3.452   6.159 -0.0707 -0.0868  0.4148
  338MOL0     C45524  12.982   3.242   6.278  0.3757 -0.2967 -0.1298
  338MOL0     C45525  13.122   3.199   6.289  0.2934  0.5160 -0.4892
  338MOL0     O45526  13.189   3.193   6.171  0.3754  0.1911 -0.3095
  338MOL0     C45527  13.319   3.150   6.174 -0.8235  0.1689 -0.7146
  338MOL0     C45528  13.411   3.198   6.267 -0.1939  0.3065  0.1938
  338MOL0     C45529  13.545   3.147   6.271  0.1627 -1.0732  0.6832
  338MOL0     C45530  13.576   3.043   6.175 -0.1475  0.3284 -0.3926
  338MOL0     O45531  13.699   2.973   6.185 -0.4563 -0.3629 -0.3644
  338MOL0     C45532  13.782   2.979   6.072 -0.5238  0.6359 -0.0105
  338MOL0     C45533  13.867   3.106   6.078  0.4774 -0.3970  0.2092
  338MOL0     C45534  13.956   3.103   6.208  0.7152  0.5596  0.0374
  338MOL0     C45535  14.045   3.224   6.209  0.4627 -0.3890  0.5833
  338MOL0     C45536  14.118   3.248   6.339  0.8557 -0.6336  0.1812
  338MOL0     C45537  14.194   3.138   6.391 -0.8294  1.0883 -0.5240
  338MOL0     C45538  14.283   3.194   6.509 -1.0019  0.2533  0.8073
  338MOL0     C45539  14.393   3.087   6.546  0.2261 -0.3890 -0.6372
  338MOL0    Cl45540  14.518   3.153   6.650 -0.0952 -0.2454 -0.3312
  338MOL0     C45541  13.484   3.004   6.084  0.5777  0.0059 -0.1445
  338MOL0     C45542  13.350   3.042   6.090  0.4667 -0.5270 -0.0408
  338MOL0     O45543  13.152   3.151   6.401  0.5902  0.1517 -0.3247
  338MOL0     C45544  12.881   3.147   6.318 -0.3572  0.8174  1.2649
  338MOL0     C45545  12.744   3.172   6.312  0.0688  0.3684  0.3418
  338MOL0     N45546  12.179   3.254   5.891 -0.0499 -0.6587 -0.1185
  338MOL0     N45547  12.129   3.130   5.881  1.0508  0.3264  0.5760
  338MOL0     C45548  11.326   2.871   5.248  0.0729  0.4520  0.2619
  338MOL0     C45549  11.195   2.821   5.209 -0.1982  0.1313  0.1198
  338MOL0     C45550  10.779   2.639   5.279  0.4855 -0.4500  0.4625
  338MOL0     C45551  10.770   2.506   5.316 -0.6318 -0.0316  0.1028
  338MOL0     C45552  10.656   2.454   5.380 -0.5480 -1.0030 -0.0481
  338MOL0     C45553  10.542   2.530   5.398  0.3152 -0.5418 -0.2504
  338MOL0     O45554  10.433   2.485   5.469  0.6318 -0.1451 -0.0604
  338MOL0     C45555  10.462   2.421   5.597  0.2071  0.5047 -0.4391
  338MOL0     C45556  10.346   2.343   5.649  0.5151  0.7201 -0.5618
  338MOL0     C45557  10.310   2.226   5.563  1.1918  0.3861  0.1070
  338MOL0     C45558  10.214   2.131   5.629  0.3390  0.2184 -0.1983
  338MOL0     C45559  10.077   2.188   5.656 -0.8917  0.5210 -0.1349
  338MOL0     C45560   9.960   2.209   5.675  0.4932  0.0330  0.4265
  338MOL0     C45561  10.552   2.667   5.356 -0.3617 -0.5048  0.1740
  338MOL0     C45562  10.677   2.723   5.313  1.9913 -0.0046  0.4803
  338MOL0     H45563  11.200   2.538   5.387  2.1073 -0.8218 -2.8389
  338MOL0     H45564  11.425   2.630   5.462  1.1686 -1.8346 -0.3225
  338MOL0     H45565  11.645   2.677   5.450  0.0616 -0.3623 -0.8061
  338MOL0     H45566  11.615   2.688   5.276  0.9924  1.9525 -0.5277
  338MOL0     H45567  11.760   2.903   5.295 -1.7124 -0.2912 -0.3199
  338MOL0     H45568  11.787   2.863   5.463  1.4987 -1.0391 -0.6895
  338MOL0     H45569  11.916   2.673   5.415  0.0785  1.2348 -0.4499
  338MOL0     H45570  11.846   2.676   5.245 -0.9996  1.5732 -0.3235
  338MOL0     H45571  12.081   2.761   5.267 -0.5425 -0.5949 -0.9663
  338MOL0     H45572  11.965   2.871   5.180 -0.4779  0.0061 -0.2118
  338MOL0     H45573  12.133   2.986   5.321  0.2476 -1.3497  0.8843
  338MOL0     H45574  11.981   3.020   5.389  1.3030  0.9711  0.3264
  338MOL0     H45575  12.011   2.841   5.566 -0.8084  1.6668  0.5643
  338MOL0     H45576  12.152   2.780   5.486 -1.1580 -0.6514 -0.0451
  338MOL0     H45577  12.270   2.997   5.542 -0.4662  1.0347 -0.1006
  338MOL0     H45578  12.119   3.077   5.581  1.9266 -0.0267 -0.7076
  338MOL0     H45579  12.268   2.863   5.756  0.2684 -0.4080 -2.8572
  338MOL0     H45580  12.094   2.895   5.787  0.3724 -0.0406  1.0564
  338MOL0     H45581  12.434   3.082   5.762  0.7287  0.2750  0.7380
  338MOL0     H45582  12.498   3.349   5.808  0.4455  0.5588  2.0034
  338MOL0     H45583  12.348   3.437   5.764  3.6595  0.9201 -2.5291
  338MOL0     H45584  12.311   3.447   6.017  0.3830  0.8846  0.6815
  338MOL0     H45585  12.444   3.547   5.965 -3.5846  0.7482 -2.7278
  338MOL0     H45586  12.612   3.400   6.021  1.2441 -2.6062  2.3108
  338MOL0     H45587  12.494   3.269   6.054 -0.1441 -0.2306  3.5089
  338MOL0     H45588  12.409   3.436   6.255  1.7606  0.4056  2.2014
  338MOL0     H45589  12.556   3.526   6.213  1.5184 -0.3703  0.3777
  338MOL0     H45590  12.774   3.495   6.175 -1.0941 -0.0107 -2.0757
  338MOL0     H45591  13.094   3.407   6.075 -1.5392  1.5572 -1.4838
  338MOL0     H45592  13.005   3.548   6.122  1.6771  0.6077  0.4043
  338MOL0     H45593  13.104   3.478   6.245  0.9817  1.6934 -0.8415
  338MOL0     H45594  13.380   3.273   6.339 -0.8425  0.9499 -0.7186
  338MOL0     H45595  13.616   3.183   6.345  1.4917  1.0073 -1.4313
  338MOL0     H45596  13.844   2.889   6.074  1.3655  1.8846  0.8569
  338MOL0     H45597  13.730   2.972   5.976 -1.0862 -0.6368  0.3719
  338MOL0     H45598  13.931   3.110   5.990 -0.7623 -1.6523 -0.7981
  338MOL0     H45599  13.794   3.188   6.080  2.0433  1.0439  1.2987
  338MOL0     H45600  14.029   3.021   6.200  0.9545  0.7553  0.1917
  338MOL0     H45601  13.896   3.096   6.299  1.6617 -1.1165  0.5888
  338MOL0     H45602  14.117   3.225   6.127 -0.4065  0.1255 -0.1917
  338MOL0     H45603  13.971   3.304   6.197 -0.1507 -1.2079 -1.7823
  338MOL0     H45604  14.033   3.263   6.406  0.0825  1.0797 -1.1091
  338MOL0     H45605  14.174   3.340   6.323 -1.2407  0.1612 -3.6455
  338MOL0     H45606  14.119   3.068   6.429 -0.3670  0.3596 -0.9113
  338MOL0     H45607  14.263   3.098   6.316  3.5224 -2.7723  4.7714
  338MOL0     H45608  14.227   3.210   6.602 -1.7593 -0.2931  0.4546
  338MOL0     H45609  14.332   3.287   6.479 -0.8702  0.4309  1.5496
  338MOL0     H45610  14.445   3.055   6.455 -0.7321 -0.1298 -1.2903
  338MOL0     H45611  14.339   3.010   6.602 -1.0518  0.6947 -0.3306
  338MOL0     H45612  13.515   2.927   6.014  0.6638  1.3111 -1.5987
  338MOL0     H45613  13.290   2.990   6.016  1.5214 -1.8226 -0.0212
  338MOL0     H45614  12.926   3.055   6.353 -0.5411 -1.0590 -2.8040
  338MOL0     H45615  12.669   3.111   6.362 -2.5698  1.9425 -1.4542
  338MOL0     H45616  11.374   2.961   5.211  1.2059  0.1267  0.9147
  338MOL0     H45617  11.134   2.883   5.145  0.9974  0.3412 -0.8663
  338MOL0     H45618  10.859   2.444   5.309  0.9948  2.1636  0.4213
  338MOL0     H45619  10.655   2.349   5.408 -1.6800 -1.3151 -1.1302
  338MOL0     H45620  10.542   2.345   5.597  1.6676  1.9917 -0.5189
  338MOL0     H45621  10.484   2.490   5.678 -2.9381  0.0627  0.9412
  338MOL0     H45622  10.264   2.415   5.667  1.0886  1.1905  0.2505
  338MOL0     H45623  10.382   2.299   5.743  0.2594  0.8651 -0.3931
  338MOL0     H45624  10.398   2.162   5.552 -0.6038 -1.8152 -3.9161
  338MOL0     H45625  10.257   2.260   5.474 -1.5647 -2.3770  0.5073
  338MOL0     H45626  10.251   2.104   5.729 -2.1112  1.4110  1.1458
  338MOL0     H45627  10.195   2.053   5.555  3.9352 -0.5687 -0.4494
  338MOL0     H45628   9.856   2.229   5.690  0.7293 -0.3378  3.0141
  338MOL0     H45629  10.478   2.744   5.373  3.9784  3.5360  3.2843
  338MOL0     H45630  10.671   2.826   5.280 -0.1902 -0.9974 -2.6948
  339MOL0     O45631   5.725   8.316   5.790  0.1861 -0.2665 -0.7961
  339MOL0     C45632   5.806   8.412   5.814  0.1135  0.0236 -0.0358
  339MOL0     O45633   5.767   8.533   5.863  0.2160  0.2334  0.2109
  339MOL0     C45634   5.641   8.561   5.899  0.0943 -0.3568  0.6234
  339MOL0     C45635   5.607   8.596   6.031 -0.7716 -0.1151  0.6169
  339MOL0     C45636   5.483   8.644   6.064  0.1778 -0.0063  0.4231
  339MOL0     C45637   5.378   8.649   5.968 -0.5971 -0.1673  0.9564
  339MOL0     O45638   5.254   8.697   5.993 -0.2278  0.0734 -0.6191
  339MOL0     C45639   5.243   8.777   6.107 -0.4886 -0.2021  0.0830
  339MOL0     C45640   5.100   8.814   6.121  0.0950  0.1427 -0.0856
  339MOL0     C45641   5.053   8.898   6.014  1.0395 -0.3234 -0.2469
  339MOL0     C45642   4.934   8.978   6.067 -0.1165 -0.6715 -0.4128
  339MOL0     C45643   4.916   9.098   5.981  0.6689  0.3884  0.5648
  339MOL0     C45644   4.771   9.153   5.999 -0.4304  0.6451 -0.6760
  339MOL0     C45645   4.743   9.216   6.132  0.1547 -0.3926  0.3417
  339MOL0     C45646   4.817   9.350   6.160  0.1526  0.3684  0.0079
  339MOL0     N45647   4.775   9.450   6.054 -0.0092  0.4553 -0.1111
  339MOL0     C45648   4.845   9.475   5.936 -0.0316  0.0400 -0.0762
  339MOL0     C45649   4.760   9.549   5.860 -0.6474 -0.0927  0.1123
  339MOL0     C45650   4.789   9.608   5.719  0.2569  0.8018 -0.0331
  339MOL0     C45651   4.735   9.750   5.718 -0.6066  0.3947  1.0831
  339MOL0     C45652   4.739   9.795   5.571  0.7752 -1.5550 -0.4041
  339MOL0     C45653   4.676   9.932   5.541  0.2029  0.3580 -0.0486
  339MOL0     O45654   4.672   9.948   5.405 -0.2830 -0.6307 -0.0284
  339MOL0     C45655   4.584   9.890   5.312 -0.1996 -0.6276 -0.1449
  339MOL0     C45656   4.592   9.928   5.180 -0.6246 -0.3191  0.0677
  339MOL0     C45657   4.509   9.865   5.085  0.3066 -0.9762 -0.6647
  339MOL0     C45658   4.518   9.930   4.951 -0.8111  0.0699  0.1610
  339MOL0     C45659   4.410   9.769   5.123 -0.1957  0.6037 -0.0326
  339MOL0     C45660   4.322   9.701   5.022  0.5355 -0.3278  0.4090
  339MOL0     O45661   4.219   9.631   5.073  0.3991  0.0072 -0.1022
  339MOL0     C45662   4.106   9.605   5.003 -0.3004 -0.0663  0.6230
  339MOL0     C45663   4.006   9.532   5.080 -0.4118 -0.3704 -0.4802
  339MOL0     C45664   3.876   9.486   5.034  0.3198 -0.7198  0.2118
  339MOL0     C45665   3.838   9.513   4.900  0.3136  0.8169  0.1828
  339MOL0     O45666   3.717   9.491   4.848  0.7851  0.7151 -0.2514
  339MOL0     C45667   3.636   9.379   4.885 -0.1528 -0.5450  0.7508
  339MOL0     C45668   3.528   9.439   4.976 -0.1117  0.0815  0.6835
  339MOL0     C45669   3.428   9.335   5.029  1.1317 -0.6893 -0.0204
  339MOL0     C45670   3.302   9.342   4.949 -0.4463  0.7033  0.2443
  339MOL0     C45671   3.210   9.234   4.990 -0.7666 -0.4363  0.0197
  339MOL0     C45672   3.111   9.177   4.882 -0.0646 -0.2616  0.3057
  339MOL0     C45673   3.013   9.273   4.822  0.2216  0.1119  0.2890
  339MOL0     C45674   2.913   9.329   4.923  0.3481 -0.0834  0.1926
  339MOL0    Cl45675   2.823   9.205   5.018 -0.0159  0.2681 -0.0600
  339MOL0     C45676   3.939   9.581   4.822 -0.1300 -0.0918 -0.5738
  339MOL0     C45677   4.065   9.622   4.868  1.5238  0.4736  0.3748
  339MOL0     O45678   4.338   9.724   4.901 -0.0959  0.2939  0.0678
  339MOL0     C45679   4.402   9.737   5.256 -0.3760  0.0074  0.2560
  339MOL0     C45680   4.493   9.790   5.351  1.0292  0.1643 -0.3534
  339MOL0     N45681   4.641   9.558   5.927  0.4521  0.1458 -1.0244
  339MOL0     N45682   4.652   9.508   6.046 -0.2725  0.5261  0.0027
  339MOL0     C45683   5.398   8.596   5.837 -0.3492  0.6540 -0.0317
  339MOL0     C45684   5.532   8.563   5.797  0.0780  0.2593 -0.0905
  339MOL0     C45685   5.944   8.375   5.801  0.0619  0.4460 -0.0705
  339MOL0     C45686   6.046   8.454   5.853  0.8155  0.8783 -0.7832
  339MOL0     C45687   6.174   8.400   5.859 -0.4082 -0.3649 -0.4160
  339MOL0     C45688   6.210   8.281   5.799  0.2177  0.7725 -0.3002
  339MOL0     O45689   6.326   8.225   5.822 -0.2532  0.4424  0.4545
  339MOL0     C45690   6.340   8.131   5.929  1.1275  0.2605  0.2517
  339MOL0     C45691   6.480   8.140   6.007 -0.9495  0.8648  0.5588
  339MOL0     C45692   6.537   8.279   6.058  0.0996 -0.4226 -0.1954
  339MOL0     C45693   6.644   8.329   5.969 -0.9165  0.3886 -0.6095
  339MOL0     C45694   6.732   8.427   6.022 -0.3484 -0.8999 -0.2542
  339MOL0     C45695   6.826   8.506   6.061  0.3290  0.7237  0.5009
  339MOL0     C45696   6.110   8.209   5.739  0.6904  0.6803  1.3413
  339MOL0     C45697   5.976   8.257   5.727  0.3174  0.0865 -1.5580
  339MOL0     H45698   5.684   8.593   6.108 -1.1377  2.0512  1.1283
  339MOL0     H45699   5.463   8.663   6.170 -0.2483  0.4218  0.2731
  339MOL0     H45700   5.253   8.716   6.198  1.9584 -1.9226 -1.2287
  339MOL0     H45701   5.303   8.868   6.105 -2.6272  1.2894  0.6837
  339MOL0     H45702   5.032   8.728   6.119  2.0583 -1.5091 -2.6567
  339MOL0     H45703   5.094   8.856   6.222 -3.3025 -1.8441  0.6987
  339MOL0     H45704   5.130   8.968   5.980  0.6146  1.4026  2.0989
  339MOL0     H45705   5.021   8.833   5.932 -0.6181  0.6042 -0.3833
  339MOL0     H45706   4.840   8.924   6.055 -0.3254  0.0556 -2.5218
  339MOL0     H45707   4.946   9.001   6.173 -2.5458 -1.7351  0.1483
  339MOL0     H45708   4.988   9.179   5.997  0.2010  1.3791 -1.9112
  339MOL0     H45709   4.932   9.076   5.875  1.0746  1.8481  0.2977
  339MOL0     H45710   4.757   9.238   5.932 -1.3692  2.0010  1.1884
  339MOL0     H45711   4.700   9.073   5.973 -0.3772  0.1618  0.6098
  339MOL0     H45712   4.636   9.241   6.125  0.0897 -0.4501  1.1070
  339MOL0     H45713   4.744   9.145   6.215 -4.4215 -1.5132 -0.2860
  339MOL0     H45714   4.924   9.330   6.148  0.4659  0.4302  2.2963
  339MOL0     H45715   4.809   9.388   6.262 -0.2000  0.6304 -0.1167
  339MOL0     H45716   4.943   9.440   5.903  0.0382  2.2566 -2.6397
  339MOL0     H45717   4.896   9.602   5.693  0.4249  0.7896  0.6327
  339MOL0     H45718   4.747   9.549   5.637  0.0733  0.1403  0.5309
  339MOL0     H45719   4.804   9.813   5.775  3.7643 -0.0044 -3.0829
  339MOL0     H45720   4.636   9.757   5.763 -0.4413 -0.7389  1.6659
  339MOL0     H45721   4.689   9.717   5.514  0.0753 -2.6342  1.5791
  339MOL0     H45722   4.845   9.806   5.546  0.7394  0.4683  0.1020
  339MOL0     H45723   4.729  10.013   5.590 -1.3059  1.2567  0.1728
  339MOL0     H45724   4.571   9.930   5.574 -0.9973  1.6175 -3.3967
  339MOL0     H45725   4.669  10.001   5.160  0.5262 -1.5985 -0.3663
  339MOL0     H45726   4.423   9.983   4.937 -1.8551 -1.3626  1.4166
  339MOL0     H45727   4.590  10.011   4.946  0.2194 -0.7771  0.8133
  339MOL0     H45728   4.530   9.857   4.871 -0.0082  2.8197 -2.3710
  339MOL0     H45729   4.042   9.521   5.181  1.5987  3.3190 -0.6200
  339MOL0     H45730   3.813   9.441   5.110  2.0919  1.2923  3.0670
  339MOL0     H45731   3.594   9.349   4.789 -1.3893 -0.5307  1.2785
  339MOL0     H45732   3.700   9.301   4.927 -0.1834 -1.2109 -0.4067
  339MOL0     H45733   3.592   9.468   5.061  1.1466  0.4890 -0.3705
  339MOL0     H45734   3.484   9.533   4.941 -0.3207 -0.1539  0.3124
  339MOL0     H45735   3.394   9.357   5.130 -2.3096 -1.4786 -0.8716
  339MOL0     H45736   3.467   9.233   5.016 -1.1146 -1.4559 -1.4352
  339MOL0     H45737   3.250   9.438   4.959 -1.9095 -0.3117  3.5614
  339MOL0     H45738   3.326   9.331   4.842 -0.2913  0.4128  0.3076
  339MOL0     H45739   3.152   9.280   5.071  0.5127  1.8716 -0.2936
  339MOL0     H45740   3.259   9.151   5.043 -1.3578  0.3423  1.8858
  339MOL0     H45741   3.174   9.131   4.805  1.5813  1.1213  0.7676
  339MOL0     H45742   3.060   9.094   4.933 -2.1061  0.2010 -0.8446
  339MOL0     H45743   2.957   9.216   4.747 -0.6655  0.0294  0.9861
  339MOL0     H45744   3.074   9.347   4.771  0.1765  0.4711  0.7500
  339MOL0     H45745   2.847   9.401   4.872 -0.1520  0.8429  2.0795
  339MOL0     H45746   2.974   9.386   4.992  1.0382 -0.6202  0.0388
  339MOL0     H45747   3.928   9.621   4.722  1.9468  1.5882 -0.2137
  339MOL0     H45748   4.130   9.675   4.799  1.1717  0.9262  0.3928
  339MOL0     H45749   4.338   9.661   5.299  2.2551 -3.1540 -0.9371
  339MOL0     H45750   4.464   9.771   5.454 -2.6132  3.2102 -0.5664
  339MOL0     H45751   5.317   8.585   5.765 -0.6802 -3.0670  0.6900
  339MOL0     H45752   5.559   8.535   5.695  2.2274  1.0859  0.1993
  339MOL0     H45753   6.021   8.546   5.904  4.1254  0.4641  1.9098
  339MOL0     H45754   6.248   8.466   5.905 -0.3937 -0.4632 -0.2954
  339MOL0     H45755   6.250   8.137   5.991  1.7378  0.4999  1.1351
  339MOL0     H45756   6.336   8.035   5.876  1.0010 -0.8158  2.1286
  339MOL0     H45757   6.553   8.100   5.936  0.0537 -0.8666  2.4922
  339MOL0     H45758   6.478   8.064   6.085 -1.3369 -0.5780 -0.8118
  339MOL0     H45759   6.594   8.274   6.151 -0.2887  2.2465  0.2450
  339MOL0     H45760   6.456   8.351   6.066 -0.1117  0.2623 -5.2629
  339MOL0     H45761   6.590   8.366   5.881 -1.7325 -0.6562 -0.5769
  339MOL0     H45762   6.716   8.252   5.943  0.1267  0.7583  1.0327
  339MOL0     H45763   6.893   8.582   6.095  1.2839  0.7175 -1.2373
  339MOL0     H45764   6.138   8.120   5.683 -1.5810  1.3674 -1.0820
  339MOL0     H45765   5.912   8.198   5.663 -2.3979 -1.3249  2.1620
  340MOL0     O45766   4.149   2.537   4.584  0.4114 -0.1617  0.7198
  340MOL0     C45767   4.120   2.604   4.484 -0.2515  0.1910 -0.0985
  340MOL0     O45768   3.996   2.628   4.440  0.0193  0.0142  0.3173
  340MOL0     C45769   3.871   2.582   4.490  0.2888 -0.5835  0.5548
  340MOL0     C45770   3.850   2.510   4.609  0.3713  1.1227 -0.8169
  340MOL0     C45771   3.718   2.463   4.644  0.2215 -0.7459 -0.8756
  340MOL0     C45772   3.598   2.497   4.566  0.2695 -0.5894  0.3742
  340MOL0     O45773   3.477   2.459   4.616  0.3391  0.2771  0.0603
  340MOL0     C45774   3.360   2.451   4.532 -0.2712 -0.0840  0.5538
  340MOL0     C45775   3.266   2.344   4.596  0.0921 -0.3980 -0.3332
  340MOL0     C45776   3.126   2.374   4.545 -0.0087  1.2516  0.2588
  340MOL0     C45777   3.033   2.268   4.595 -0.2490  0.1543  0.1800
  340MOL0     C45778   2.891   2.300   4.573 -0.5182  0.0193 -0.0759
  340MOL0     C45779   2.815   2.180   4.645  0.1616 -0.4826  0.0699
  340MOL0     C45780   2.656   2.196   4.634 -0.3484 -0.0731  0.2231
  340MOL0     C45781   2.614   2.220   4.487  0.3781 -0.0681 -0.4496
  340MOL0     N45782   2.478   2.187   4.463 -0.7390  0.1824  0.0556
  340MOL0     C45783   2.438   2.071   4.399  0.4177 -1.7630 -0.6395
  340MOL0     C45784   2.310   2.080   4.381  0.4083  0.3240 -0.8298
  340MOL0     C45785   2.215   1.982   4.320 -0.4418  0.4611 -0.7821
  340MOL0     C45786   2.139   1.895   4.416 -0.0428 -0.7065  0.0084
  340MOL0     C45787   2.038   1.800   4.342  0.0576 -0.4912 -0.9124
  340MOL0     C45788   1.987   1.690   4.437  0.3942  0.2751  0.6744
  340MOL0     O45789   1.884   1.619   4.353  0.5835  0.3403 -0.4204
  340MOL0     C45790   1.762   1.578   4.404  0.2235  0.4122  0.0620
  340MOL0     C45791   1.658   1.552   4.311  0.4762 -0.8675 -0.1874
  340MOL0     C45792   1.534   1.522   4.345 -0.7379  0.6895  0.5696
  340MOL0     C45793   1.427   1.524   4.227 -0.9277  0.3961 -0.1423
  340MOL0     C45794   1.499   1.495   4.478  0.3657  0.7085 -0.3358
  340MOL0     C45795   1.359   1.481   4.516 -0.6285  0.7529  0.4195
  340MOL0     O45796   1.295   1.361   4.480 -0.1771 -0.5746 -0.4953
  340MOL0     C45797   1.172   1.320   4.505 -0.4423  0.7690  0.3426
  340MOL0     C45798   1.148   1.195   4.446  0.4210 -1.2168  0.3475
  340MOL0     C45799   1.011   1.150   4.453 -0.8038 -0.3668 -0.5337
  340MOL0     C45800   0.910   1.228   4.516  0.0977  0.2164 -0.0612
  340MOL0     O45801   0.796   1.163   4.544  0.1121  0.5842  0.0249
  340MOL0     C45802   0.674   1.237   4.549 -0.8425 -0.7034 -0.1374
  340MOL0     C45803   0.559   1.139   4.546 -0.0680  0.6148 -0.9161
  340MOL0     C45804   0.567   1.040   4.664  0.0760  0.4075  1.6670
  340MOL0     C45805   0.435   0.967   4.679  0.2041 -0.9950  0.1336
  340MOL0     C45806   0.449   0.847   4.773 -0.2906  0.6929  0.2463
  340MOL0     C45807   0.314   0.769   4.776 -0.7717 -0.0332 -0.0505
  340MOL0     C45808   0.211   0.811   4.885  0.7742  0.7254  0.3595
  340MOL0     C45809   0.082   0.814   4.815  0.5316  0.1817 -0.4710
  340MOL0    Cl45810   0.074   0.957   4.703  0.4482  0.1140 -0.3219
  340MOL0     C45811   0.941   1.349   4.573  1.2671 -0.6803 -0.2885
  340MOL0     C45812   1.071   1.399   4.566 -1.1711 -0.1553 -0.8225
  340MOL0     O45813   1.303   1.573   4.572  0.1117 -0.9958  1.0559
  340MOL0     C45814   1.592   1.540   4.576 -0.7858 -0.2410 -0.5539
  340MOL0     C45815   1.723   1.578   4.542  0.8257 -0.7096 -1.0395
  340MOL0     N45816   2.273   2.197   4.432 -0.1650  0.1156 -0.4515
  340MOL0     N45817   2.368   2.265   4.476 -0.5800  0.6171 -0.4895
  340MOL0     C45818   3.622   2.568   4.445  0.1312  0.6266 -0.8658
  340MOL0     C45819   3.752   2.617   4.412  0.7488  0.0520 -1.3580
  340MOL0     C45820   4.227   2.683   4.430 -0.1175  0.1011  1.1450
  340MOL0     C45821   4.200   2.797   4.348 -0.0408 -0.1530  1.3170
  340MOL0     C45822   4.309   2.869   4.303 -1.1106  0.2055 -0.0907
  340MOL0     C45823   4.444   2.828   4.325  1.6915  0.9049  1.0108
  340MOL0     O45824   4.558   2.891   4.272 -0.9349 -0.1737  0.4078
  340MOL0     C45825   4.540   2.995   4.175  0.3157 -0.6641  0.7383
  340MOL0     C45826   4.680   3.027   4.109 -0.7293  0.9151  0.5145
  340MOL0     C45827   4.713   2.963   3.969 -0.4543  0.9396 -0.2044
  340MOL0     C45828   4.855   2.995   3.912  0.4088  0.1825  0.0829
  340MOL0     C45829   4.977   2.950   3.992  0.5010 -0.5619 -1.1100
  340MOL0     C45830   5.073   2.889   4.037 -0.1222  0.3991 -0.1135
  340MOL0     C45831   4.465   2.719   4.400  0.6261 -0.5822  0.0456
  340MOL0     C45832   4.365   2.646   4.454  0.4333  0.8443  0.9623
  340MOL0     H45833   3.930   2.486   4.680 -1.7085  3.3021  2.5791
  340MOL0     H45834   3.710   2.405   4.735  0.5662 -0.7354 -0.8377
  340MOL0     H45835   3.313   2.550   4.535 -1.7262 -0.7517  0.7135
  340MOL0     H45836   3.382   2.412   4.433  0.2558  0.1700  0.5709
  340MOL0     H45837   3.292   2.241   4.570 -4.5530 -1.7284 -0.6242
  340MOL0     H45838   3.268   2.356   4.705  1.1993  0.0704 -0.3961
  340MOL0     H45839   3.099   2.475   4.575 -0.6225  0.7067  1.5846
  340MOL0     H45840   3.129   2.366   4.436  0.7420 -1.5253  0.4119
  340MOL0     H45841   3.067   2.175   4.548  0.2927  0.9470 -1.0648
  340MOL0     H45842   3.044   2.266   4.704 -3.0356 -0.3752  0.5079
  340MOL0     H45843   2.866   2.398   4.614  0.2945 -0.6738  2.1989
  340MOL0     H45844   2.873   2.322   4.467 -0.1002  1.5061  0.1406
  340MOL0     H45845   2.847   2.085   4.602  0.6073 -1.0010  1.5026
  340MOL0     H45846   2.850   2.180   4.749 -1.2657 -1.3478  0.5723
  340MOL0     H45847   2.604   2.108   4.673 -0.7988  0.1089  0.0430
  340MOL0     H45848   2.636   2.278   4.705  0.6022  0.3673 -0.0059
  340MOL0     H45849   2.681   2.154   4.431  0.2027 -0.8303  0.2173
  340MOL0     H45850   2.634   2.323   4.458 -1.0133 -0.0897 -1.5906
  340MOL0     H45851   2.506   1.997   4.359  1.1771 -0.1094 -2.5914
  340MOL0     H45852   2.134   2.031   4.266  0.0248  1.6238 -0.4433
  340MOL0     H45853   2.276   1.920   4.253  0.1584  0.5009 -0.2852
  340MOL0     H45854   2.085   1.954   4.490 -1.4242 -2.0212  0.0958
  340MOL0     H45855   2.204   1.837   4.482  1.0582  0.7002  0.2122
  340MOL0     H45856   2.090   1.761   4.254  1.2906 -0.7529 -0.0830
  340MOL0     H45857   1.954   1.858   4.302  1.0261  0.3878 -1.7113
  340MOL0     H45858   1.952   1.731   4.531 -0.3536  1.1016  0.0515
  340MOL0     H45859   2.067   1.619   4.462  0.8168  1.1718  1.9130
  340MOL0     H45860   1.680   1.584   4.210  2.0165 -0.8187  0.1297
  340MOL0     H45861   1.369   1.434   4.203 -1.2347  1.2861 -3.1546
  340MOL0     H45862   1.353   1.601   4.252 -1.0517  0.4097 -0.5419
  340MOL0     H45863   1.474   1.553   4.133  2.8801  1.3583  1.8752
  340MOL0     H45864   1.222   1.145   4.384 -1.3258 -2.8372 -0.5401
  340MOL0     H45865   0.993   1.049   4.418  1.8353 -1.1808  0.1858
  340MOL0     H45866   0.666   1.306   4.634 -1.3747  0.4239 -1.0616
  340MOL0     H45867   0.661   1.302   4.461  3.4491  0.5863 -0.0693
  340MOL0     H45868   0.468   1.196   4.565  0.0575  0.3145  0.7434
  340MOL0     H45869   0.555   1.086   4.450 -0.2528 -1.6214  0.2470
  340MOL0     H45870   0.579   1.097   4.757 -2.6186  1.7058  1.3024
  340MOL0     H45871   0.642   0.967   4.633 -1.4718 -0.2042 -0.9134
  340MOL0     H45872   0.359   1.030   4.725  1.3190 -1.5540  2.9375
  340MOL0     H45873   0.403   0.937   4.579  2.2405  2.6046 -1.8087
  340MOL0     H45874   0.484   0.874   4.873  2.7640  2.6424 -1.1785
  340MOL0     H45875   0.530   0.782   4.741 -1.3216  0.4278 -2.1110
  340MOL0     H45876   0.270   0.763   4.676 -2.0566  1.4977  0.3823
  340MOL0     H45877   0.347   0.669   4.806 -1.7475 -0.5548 -0.6937
  340MOL0     H45878   0.221   0.913   4.925 -0.5244  0.2357  2.0547
  340MOL0     H45879   0.202   0.745   4.971  1.3473  1.6688  1.1737
  340MOL0     H45880  -0.001   0.830   4.884  0.2656 -0.0203 -0.7438
  340MOL0     H45881   0.071   0.717   4.767  0.9807 -0.3299  0.4245
  340MOL0     H45882   0.859   1.405   4.617  0.4097 -0.5378 -1.9603
  340MOL0     H45883   1.104   1.495   4.605 -0.4405 -1.7515  2.9813
  340MOL0     H45884   1.552   1.550   4.677  1.2365  1.1353  0.1722
  340MOL0     H45885   1.804   1.606   4.610  0.0127  0.2916 -0.4577
  340MOL0     H45886   3.544   2.611   4.384  0.0293  1.4985 -0.1340
  340MOL0     H45887   3.771   2.665   4.316  3.2504  0.3699 -0.7701
  340MOL0     H45888   4.099   2.832   4.327 -0.0582 -1.7115 -1.6404
  340MOL0     H45889   4.285   2.962   4.254  1.1785  2.4101  2.6641
  340MOL0     H45890   4.468   2.972   4.096 -0.1438  3.4132 -0.2685
  340MOL0     H45891   4.498   3.085   4.221  0.9307 -0.9395  1.8824
  340MOL0     H45892   4.760   3.014   4.183 -0.8081  2.2935  0.8722
  340MOL0     H45893   4.676   3.134   4.088  0.9715  1.0140  0.5652
  340MOL0     H45894   4.628   2.987   3.904 -0.8823 -3.0622 -1.3775
  340MOL0     H45895   4.711   2.854   3.978  3.2015  0.4139 -3.3489
  340MOL0     H45896   4.859   3.105   3.918  3.1957  0.1633 -0.1779
  340MOL0     H45897   4.861   2.970   3.806 -0.1086 -0.5836  0.2321
  340MOL0     H45898   5.156   2.849   4.092 -1.1410 -0.9900  0.4415
  340MOL0     H45899   4.568   2.694   4.420  0.9484  0.1591 -0.6166
  340MOL0     H45900   4.403   2.566   4.517  2.9370 -0.0097 -1.4386
  341MOL0     O45901   8.414   7.535   2.942 -0.0567  0.3504 -0.2975
  341MOL0     C45902   8.434   7.476   3.047 -0.9612  0.0197  0.7027
  341MOL0     O45903   8.354   7.378   3.107  0.2153 -0.5860  0.0054
  341MOL0     C45904   8.261   7.316   3.024 -0.1965  0.3517 -0.0314
  341MOL0     C45905   8.128   7.328   3.043  0.1525  0.2272 -0.0124
  341MOL0     C45906   8.038   7.258   2.967  0.2885  0.0163  0.0751
  341MOL0     C45907   8.068   7.186   2.857  0.3147  0.0587  0.2708
  341MOL0     O45908   7.971   7.132   2.776 -0.0029  0.4585  1.6201
  341MOL0     C45909   8.007   7.056   2.657  0.4889  0.2332 -0.1108
  341MOL0     C45910   8.020   6.903   2.685 -0.0622 -0.8201 -0.0063
  341MOL0     C45911   7.893   6.849   2.767 -0.1219  1.2450  0.6422
  341MOL0     C45912   7.897   6.693   2.759  0.1551 -0.5896 -0.1022
  341MOL0     C45913   7.792   6.650   2.861 -0.1769  0.6867  0.2434
  341MOL0     C45914   7.657   6.662   2.806 -0.0103  0.1973 -0.4696
  341MOL0     C45915   7.549   6.621   2.905  0.4914 -0.2953  0.5487
  341MOL0     C45916   7.416   6.632   2.827  0.3556  0.3468 -0.7019
  341MOL0     N45917   7.318   6.537   2.879  0.5302  0.2920  0.2621
  341MOL0     C45918   7.266   6.543   3.006  0.2025 -0.9663 -0.2023
  341MOL0     C45919   7.217   6.414   3.021  0.0963 -0.1442 -0.1347
  341MOL0     C45920   7.129   6.375   3.133 -0.3622  1.1888 -1.1482
  341MOL0     C45921   6.979   6.396   3.130 -0.2622 -0.5308  0.7855
  341MOL0     C45922   6.957   6.534   3.075  0.0277 -0.1816 -0.2381
  341MOL0     C45923   6.801   6.567   3.085 -0.9659 -0.5951 -0.2590
  341MOL0     O45924   6.713   6.481   3.003 -0.4644  0.2849  0.2870
  341MOL0     C45925   6.581   6.522   3.004  0.0179 -0.0413 -0.3743
  341MOL0     C45926   6.496   6.470   2.909  0.4083  0.2567  0.1613
  341MOL0     C45927   6.357   6.496   2.910  0.0211 -0.0849 -1.2658
  341MOL0     C45928   6.280   6.458   2.796  0.4714 -0.0828  0.5878
  341MOL0     C45929   6.303   6.579   3.007  0.2013 -0.8167  0.7055
  341MOL0     C45930   6.158   6.605   3.012  0.2724 -0.5023  0.8411
  341MOL0     O45931   6.074   6.500   2.997 -0.7359 -0.8683  0.2706
  341MOL0     C45932   5.941   6.523   3.013  0.3280  0.5711 -0.6471
  341MOL0     C45933   5.859   6.568   2.907 -1.1722 -0.1070 -0.1785
  341MOL0     C45934   5.725   6.590   2.915 -0.1082 -0.0335 -0.1366
  341MOL0     C45935   5.663   6.568   3.036 -0.5547 -0.1050  0.2051
  341MOL0     O45936   5.524   6.581   3.035 -0.3807  0.7528 -0.4561
  341MOL0     C45937   5.447   6.595   3.156  0.2079 -0.5336 -0.3022
  341MOL0     C45938   5.325   6.683   3.129  0.2030 -0.4017  0.4744
  341MOL0     C45939   5.249   6.716   3.259 -0.1137  0.4348 -0.3585
  341MOL0     C45940   5.129   6.623   3.268  0.1557  0.8319 -0.3456
  341MOL0     C45941   5.053   6.645   3.401 -0.2214  0.7704 -0.6174
  341MOL0     C45942   5.044   6.788   3.464  0.5374  0.0879  0.3341
  341MOL0     C45943   4.900   6.805   3.529 -0.2372  0.3222  0.0137
  341MOL0     C45944   4.890   6.730   3.669 -0.3758 -0.1041  0.7394
  341MOL0    Cl45945   5.025   6.785   3.770  0.0584  0.5530  0.0061
  341MOL0     C45946   5.734   6.516   3.145 -0.6628 -0.5436  0.6814
  341MOL0     C45947   5.878   6.496   3.131 -0.2818 -0.0074 -0.5966
  341MOL0     O45948   6.129   6.717   3.048  0.9132 -0.6578  0.1113
  341MOL0     C45949   6.386   6.639   3.099 -0.7222  0.4291  0.2385
  341MOL0     C45950   6.520   6.602   3.105  0.8864  0.3107  0.7811
  341MOL0     N45951   7.242   6.335   2.906  0.3012 -0.2546  0.3925
  341MOL0     N45952   7.308   6.417   2.821  0.5136  0.1406  0.3502
  341MOL0     C45953   8.204   7.171   2.827  1.1535  0.6259  1.0771
  341MOL0     C45954   8.294   7.241   2.905 -0.6034 -0.2165 -0.3488
  341MOL0     C45955   8.568   7.513   3.115  0.5371 -0.1048 -0.0099
  341MOL0     C45956   8.578   7.472   3.255  0.4798 -0.0167  0.5553
  341MOL0     C45957   8.696   7.518   3.322  0.4746  0.3675 -0.2283
  341MOL0     C45958   8.801   7.587   3.260  0.1289 -0.1021 -0.4048
  341MOL0     O45959   8.915   7.619   3.329  0.1346  1.5453 -0.1530
  341MOL0     C45960   8.979   7.740   3.295 -0.7986  0.3835 -0.5943
  341MOL0     C45961   9.045   7.784   3.424 -0.1709  0.3022 -0.7801
  341MOL0     C45962   9.146   7.893   3.378  0.6342 -0.0575  0.9216
  341MOL0     C45963   9.226   7.923   3.499 -0.2874 -1.0371  0.3022
  341MOL0     C45964   9.348   7.990   3.460  0.0892 -0.6463 -0.4372
  341MOL0     C45965   9.453   8.049   3.424  0.6596  0.1270 -0.5311
  341MOL0     C45966   8.784   7.633   3.129  0.1652 -0.7435  0.8249
  341MOL0     C45967   8.666   7.597   3.052 -0.0596  0.7639  0.1258
  341MOL0     H45968   8.094   7.378   3.133  2.8906  0.3750  1.0202
  341MOL0     H45969   7.934   7.267   2.996  0.7946  1.8383  1.5266
  341MOL0     H45970   7.919   7.065   2.594 -1.7551 -0.0305  2.7632
  341MOL0     H45971   8.091   7.093   2.597  0.3893  2.7678  1.2013
  341MOL0     H45972   8.032   6.851   2.590  1.4883  2.2918 -1.6840
  341MOL0     H45973   8.110   6.890   2.746 -0.0379  0.8648  0.3662
  341MOL0     H45974   7.884   6.892   2.867  1.3879  2.7896  0.1778
  341MOL0     H45975   7.810   6.889   2.708 -1.4542  0.8083  2.1480
  341MOL0     H45976   7.880   6.659   2.657  1.2621  0.0862 -0.5341
  341MOL0     H45977   8.000   6.675   2.794 -0.1039 -3.0942 -0.4231
  341MOL0     H45978   7.812   6.542   2.867  2.4017  0.6966 -3.9044
  341MOL0     H45979   7.809   6.699   2.957 -4.1438  1.3410  0.7866
  341MOL0     H45980   7.644   6.768   2.781  3.1415  1.0325  0.8595
  341MOL0     H45981   7.646   6.606   2.713 -1.0015 -2.8283  1.3337
  341MOL0     H45982   7.564   6.515   2.930  0.4640 -0.8500 -1.5617
  341MOL0     H45983   7.559   6.682   2.995 -0.1582 -2.9605  2.5926
  341MOL0     H45984   7.434   6.606   2.722  1.0962 -0.9028 -0.2746
  341MOL0     H45985   7.380   6.736   2.827 -0.3641  0.1051 -0.3819
  341MOL0     H45986   7.255   6.624   3.077 -3.0468  0.6656 -2.3069
  341MOL0     H45987   7.139   6.266   3.139 -0.6355  1.2568  1.8960
  341MOL0     H45988   7.173   6.412   3.226 -0.5846  1.0205 -0.9718
  341MOL0     H45989   6.938   6.395   3.232 -1.5880  2.0556  0.3578
  341MOL0     H45990   6.922   6.330   3.064 -2.9549  3.4479 -1.2719
  341MOL0     H45991   6.975   6.543   2.968 -1.5557  2.1463 -0.3886
  341MOL0     H45992   7.016   6.606   3.134 -2.1925 -0.1439  2.1298
  341MOL0     H45993   6.786   6.666   3.041 -0.8667 -0.7350 -0.6120
  341MOL0     H45994   6.781   6.567   3.192 -2.0958 -0.5185 -0.4537
  341MOL0     H45995   6.546   6.412   2.832  0.7514  0.6616  0.0717
  341MOL0     H45996   6.334   6.387   2.733  1.0271  0.2121  0.7287
  341MOL0     H45997   6.181   6.412   2.808  1.5808 -2.2655  2.0580
  341MOL0     H45998   6.269   6.553   2.742  0.5661  0.2131  1.0787
  341MOL0     H45999   5.910   6.596   2.816 -0.5798  1.4980  0.6060
  341MOL0     H46000   5.670   6.629   2.830 -1.2708  2.0757  1.4755
  341MOL0     H46001   5.407   6.501   3.194  1.3605 -0.1288  2.1614
  341MOL0     H46002   5.498   6.648   3.238 -3.7542  5.6844 -1.1650
  341MOL0     H46003   5.349   6.777   3.078 -0.9045 -0.8530 -0.9271
  341MOL0     H46004   5.252   6.630   3.067 -0.3869 -0.2807  1.0494
  341MOL0     H46005   5.202   6.815   3.257  0.0130  0.5631  1.4161
  341MOL0     H46006   5.320   6.714   3.342 -1.0646 -1.1451  0.4696
  341MOL0     H46007   5.062   6.652   3.187  2.5982  1.9169 -2.0788
  341MOL0     H46008   5.165   6.521   3.253 -0.2504  0.7716 -0.9181
  341MOL0     H46009   5.093   6.581   3.479 -1.2634 -0.8750 -1.3740
  341MOL0     H46010   4.955   6.599   3.386  0.3016 -1.4499  1.9899
  341MOL0     H46011   5.121   6.812   3.537  1.0042 -0.5563  0.0604
  341MOL0     H46012   5.043   6.858   3.380  2.2407 -2.2102 -1.7585
  341MOL0     H46013   4.822   6.771   3.460  1.4889  0.5678 -2.1804
  341MOL0     H46014   4.886   6.912   3.548  0.8241  0.3886  0.4452
  341MOL0     H46015   4.904   6.622   3.655 -2.2870 -0.1717 -1.1110
  341MOL0     H46016   4.791   6.757   3.705 -0.7802  2.5079 -1.9330
  341MOL0     H46017   5.685   6.487   3.238 -0.5252  0.0722  0.9526
  341MOL0     H46018   5.916   6.452   3.223 -1.7099 -0.1022 -0.0226
  341MOL0     H46019   6.349   6.714   3.168 -0.0837  2.8546 -1.8827
  341MOL0     H46020   6.578   6.638   3.190  2.0144 -2.1279  1.1223
  341MOL0     H46021   8.242   7.108   2.746  0.8534  1.9570 -0.1372
  341MOL0     H46022   8.400   7.244   2.881 -0.5771  1.0546 -0.1111
  341MOL0     H46023   8.505   7.407   3.303 -0.3229 -0.1048 -0.7060
  341MOL0     H46024   8.711   7.490   3.425 -0.7637  1.7429  0.3637
  341MOL0     H46025   9.054   7.718   3.219 -0.3387 -1.6806  0.3681
  341MOL0     H46026   8.908   7.815   3.261 -0.3943  1.1350  0.1898
  341MOL0     H46027   9.099   7.701   3.471  1.3611  3.0179  2.6975
  341MOL0     H46028   8.963   7.816   3.489  0.1733  1.8634 -1.0706
  341MOL0     H46029   9.087   7.972   3.330  0.8329 -1.7513 -2.3872
  341MOL0     H46030   9.212   7.852   3.300 -0.4197 -1.8395  0.9152
  341MOL0     H46031   9.262   7.837   3.556  4.1850  0.2537 -0.1768
  341MOL0     H46032   9.163   7.990   3.558  0.7138  2.2779 -2.0869
  341MOL0     H46033   9.547   8.093   3.398  0.6611  0.5091  0.1017
  341MOL0     H46034   8.857   7.693   3.074  1.2925 -2.7158  0.0601
  341MOL0     H46035   8.646   7.629   2.951 -3.4324 -0.9195  0.1245
  342MOL0     O46036   5.851   5.274   3.531  0.3087 -0.2479  0.5635
  342MOL0     C46037   5.948   5.203   3.512 -1.1611 -0.0356  0.8178
  342MOL0     O46038   5.984   5.097   3.586 -0.0757 -0.0006 -0.5819
  342MOL0     C46039   5.909   5.050   3.694 -0.3698  0.6566  0.5781
  342MOL0     C46040   5.977   5.003   3.797  0.4448 -0.5466 -1.2476
  342MOL0     C46041   5.914   4.956   3.911  0.7455  0.1152  0.2927
  342MOL0     C46042   5.776   4.938   3.922 -0.1123 -0.3027  0.1058
  342MOL0     O46043   5.727   4.861   4.021  0.1717  0.1782  0.9690
  342MOL0     C46044   5.600   4.888   4.065  0.5453  1.2293  0.3445
  342MOL0     C46045   5.513   4.769   4.033 -1.3333 -0.1987  0.0283
  342MOL0     C46046   5.363   4.807   4.048 -1.2891  0.1690  0.3684
  342MOL0     C46047   5.279   4.683   4.033  0.3263 -0.2380 -0.2768
  342MOL0     C46048   5.134   4.713   4.059  0.7035 -0.0484 -0.3631
  342MOL0     C46049   5.108   4.704   4.210 -0.4642 -0.0230 -0.3493
  342MOL0     C46050   5.078   4.570   4.255 -0.4524 -0.1436  0.5970
  342MOL0     C46051   4.937   4.512   4.220 -0.5836  0.0076 -0.3159
  342MOL0     N46052   4.948   4.378   4.266  0.0221  0.1980  0.6685
  342MOL0     C46053   5.029   4.279   4.209 -0.3142 -0.0120  0.2909
  342MOL0     C46054   5.025   4.182   4.304  0.0413  0.1841 -0.6732
  342MOL0     C46055   5.105   4.049   4.299 -0.0605 -0.5745  0.3389
  342MOL0     C46056   5.250   4.069   4.312 -1.1907 -0.5730 -0.2897
  342MOL0     C46057   5.292   4.145   4.440  0.0136 -0.1804 -0.3974
  342MOL0     C46058   5.200   4.109   4.562  0.0422  0.3108 -0.1651
  342MOL0     O46059   5.253   4.158   4.678 -0.1830 -0.1930 -0.4754
  342MOL0     C46060   5.190   4.146   4.800 -0.4339  0.4202  1.0925
  342MOL0     C46061   5.073   4.075   4.824 -0.3915 -0.4936 -0.3961
  342MOL0     C46062   5.020   4.057   4.955  0.3231  0.0386 -0.1590
  342MOL0     C46063   4.888   3.981   4.965  0.8744  0.2056 -0.3781
  342MOL0     C46064   5.079   4.116   5.069 -0.3431  0.5481  0.2854
  342MOL0     C46065   5.025   4.111   5.208  0.8495  0.4764 -0.0202
  342MOL0     O46066   4.958   3.999   5.253 -0.5564 -0.9241  0.2132
  342MOL0     C46067   4.905   3.991   5.375  0.0153 -0.8777  0.3416
  342MOL0     C46068   4.977   3.946   5.487  0.2818 -0.1142 -0.5035
  342MOL0     C46069   4.922   3.968   5.616 -0.9004 -0.0467 -0.4149
  342MOL0     C46070   4.806   4.044   5.637 -0.3691 -0.5886 -0.0581
  342MOL0     O46071   4.770   4.077   5.759 -0.2545  0.3978 -0.3173
  342MOL0     C46072   4.766   3.984   5.863  0.0075  0.3624 -0.5045
  342MOL0     C46073   4.641   3.887   5.847 -1.1308 -0.3476  0.1113
  342MOL0     C46074   4.637   3.773   5.950  0.0406  0.0913 -0.0290
  342MOL0     C46075   4.773   3.704   5.965 -1.6406 -0.3731 -0.2812
  342MOL0     C46076   4.774   3.564   6.029  0.9063  0.3547 -0.2578
  342MOL0     C46077   4.742   3.553   6.183  0.2019  0.7231  0.9002
  342MOL0     C46078   4.799   3.428   6.244 -0.1804  0.1959  0.0029
  342MOL0     C46079   4.779   3.406   6.394 -0.4328  0.7808 -0.5627
  342MOL0    Cl46080   4.613   3.362   6.416 -0.7271  0.5809 -0.1278
  342MOL0     C46081   4.725   4.077   5.530  0.2004  0.2636  0.2228
  342MOL0     C46082   4.783   4.056   5.400 -0.5614 -0.4902 -0.1841
  342MOL0     O46083   5.046   4.210   5.274 -0.3741  0.6792 -0.0730
  342MOL0     C46084   5.189   4.199   5.037 -0.1534 -1.0682  0.0288
  342MOL0     C46085   5.244   4.207   4.908  0.8794 -0.0411  0.5626
  342MOL0     N46086   4.940   4.226   4.412 -0.7229 -0.2242  0.5226
  342MOL0     N46087   4.903   4.348   4.390 -0.0306  0.3533 -0.4590
  342MOL0     C46088   5.710   4.996   3.816  0.7592 -0.2810  0.5362
  342MOL0     C46089   5.770   5.055   3.708  0.5967 -0.4572 -0.9031
  342MOL0     C46090   6.029   5.238   3.397  0.5942 -0.0035 -0.6285
  342MOL0     C46091   6.137   5.163   3.359  0.2685  0.4496 -0.2478
  342MOL0     C46092   6.226   5.199   3.261 -0.4780  0.0361 -1.0992
  342MOL0     C46093   6.204   5.317   3.182 -0.8237  0.0420  0.6822
  342MOL0     O46094   6.282   5.377   3.088  0.3006 -0.1198  0.2358
  342MOL0     C46095   6.423   5.345   3.092  0.8439  0.8009 -0.2602
  342MOL0     C46096   6.508   5.424   3.192  0.2266 -0.6441 -0.0338
  342MOL0     C46097   6.523   5.570   3.157  0.1345 -0.8300  0.4525
  342MOL0     C46098   6.634   5.624   3.235  0.7655 -0.4045 -0.0918
  342MOL0     C46099   6.757   5.580   3.172  0.3363 -0.5047 -1.1997
  342MOL0     C46100   6.852   5.532   3.116 -0.0814  0.4423  1.2050
  342MOL0     C46101   6.082   5.390   3.215  0.8726  0.0550 -0.3810
  342MOL0     C46102   6.002   5.350   3.324 -0.4206 -0.3353 -0.1031
  342MOL0     H46103   6.085   5.010   3.807  0.2543  0.9973  0.1860
  342MOL0     H46104   5.980   4.915   3.987  3.4930 -0.4124 -2.1831
  342MOL0     H46105   5.609   4.899   4.174 -0.5890  1.8899  0.3815
  342MOL0     H46106   5.558   4.982   4.029  2.6044  1.8321 -0.6569
  342MOL0     H46107   5.522   4.743   3.927 -2.5763 -0.8378  0.0604
  342MOL0     H46108   5.538   4.677   4.087  0.4167  1.5974  2.5310
  342MOL0     H46109   5.342   4.853   4.145 -0.4633  2.2987 -0.4149
  342MOL0     H46110   5.328   4.880   3.975  0.3917 -0.4807 -1.1492
  342MOL0     H46111   5.297   4.659   3.928 -4.2317  0.9785 -1.5473
  342MOL0     H46112   5.321   4.602   4.093  1.2788  1.0246  0.8151
  342MOL0     H46113   5.110   4.814   4.026 -1.6326 -0.5869 -0.4798
  342MOL0     H46114   5.076   4.635   4.009  0.8287 -1.2364  1.2764
  342MOL0     H46115   5.197   4.723   4.271 -0.6488 -3.6089  1.2827
  342MOL0     H46116   5.031   4.777   4.237  0.7032  1.9356 -2.0188
  342MOL0     H46117   5.159   4.508   4.217 -1.5602 -1.0985 -0.2828
  342MOL0     H46118   5.073   4.569   4.364 -1.6325  2.2608  0.6258
  342MOL0     H46119   4.918   4.512   4.113 -0.5356 -0.1069 -0.3238
  342MOL0     H46120   4.851   4.562   4.267  0.1262  0.3692  0.6340
  342MOL0     H46121   5.092   4.267   4.122  0.6825 -0.0973  1.0009
  342MOL0     H46122   5.063   3.984   4.376 -1.9446  1.8623  1.5182
  342MOL0     H46123   5.083   4.002   4.203  3.7072  2.4261 -2.3811
  342MOL0     H46124   5.276   4.121   4.220 -4.4836 -1.4903 -1.8761
  342MOL0     H46125   5.298   3.971   4.301 -1.1908 -0.4453 -1.6190
  342MOL0     H46126   5.287   4.254   4.429  0.2108  0.2597  2.9383
  342MOL0     H46127   5.393   4.115   4.467 -0.3264 -2.9727 -1.8887
  342MOL0     H46128   5.204   4.001   4.576 -0.2925  0.5021  1.6369
  342MOL0     H46129   5.097   4.143   4.554  0.1519  1.1939  1.6570
  342MOL0     H46130   5.019   4.034   4.739 -0.8242  0.2166 -0.4804
  342MOL0     H46131   4.825   3.990   4.876  0.0073  0.3854  0.2364
  342MOL0     H46132   4.908   3.876   4.986 -0.4292  0.0534  0.2100
  342MOL0     H46133   4.834   4.021   5.052  0.2620 -0.2745 -0.5337
  342MOL0     H46134   5.073   3.896   5.477 -0.3714 -1.5143 -0.0044
  342MOL0     H46135   4.980   3.951   5.706 -0.5492 -3.7196 -1.1807
  342MOL0     H46136   4.862   3.932   5.871  1.6584  3.2030 -0.2453
  342MOL0     H46137   4.774   4.053   5.948  3.3051 -0.3336 -0.1239
  342MOL0     H46138   4.562   3.962   5.858  1.6297  3.0467 -1.3666
  342MOL0     H46139   4.635   3.841   5.748 -0.4919  1.3286 -0.7478
  342MOL0     H46140   4.560   3.703   5.915 -1.6267  2.4477 -1.3885
  342MOL0     H46141   4.610   3.815   6.047  0.7107 -0.1144  0.2470
  342MOL0     H46142   4.833   3.698   5.874 -1.5376  0.6015 -0.2973
  342MOL0     H46143   4.816   3.772   6.039  0.2639 -1.3952 -0.4009
  342MOL0     H46144   4.875   3.529   6.007  2.4597  4.0699  0.1239
  342MOL0     H46145   4.693   3.510   5.979  0.4191  0.3952  0.4614
  342MOL0     H46146   4.797   3.634   6.232  0.4385 -0.1141  2.0607
  342MOL0     H46147   4.635   3.550   6.203 -0.1285 -3.2779 -0.6090
  342MOL0     H46148   4.905   3.449   6.225  0.8976 -0.1384  4.6130
  342MOL0     H46149   4.763   3.338   6.194 -3.3516  0.7450  1.0307
  342MOL0     H46150   4.805   3.500   6.443 -0.2683  2.3178 -3.3830
  342MOL0     H46151   4.840   3.322   6.430 -1.8483  1.3764  3.8458
  342MOL0     H46152   4.630   4.127   5.547 -0.6549 -1.5726  1.1703
  342MOL0     H46153   4.732   4.083   5.308 -1.1878 -2.0508 -0.3352
  342MOL0     H46154   5.239   4.263   5.108  1.8871 -0.8134 -1.5397
  342MOL0     H46155   5.332   4.268   4.888 -1.5493  2.7790 -3.1102
  342MOL0     H46156   5.602   4.989   3.817  0.6744  0.7609  0.2673
  342MOL0     H46157   5.708   5.104   3.633  2.6349  0.4098 -2.1158
  342MOL0     H46158   6.139   5.059   3.391 -0.0984  0.4303 -0.2877
  342MOL0     H46159   6.312   5.134   3.246  0.6437  1.3755 -0.6467
  342MOL0     H46160   6.440   5.237   3.103  0.2412  0.6431 -0.7993
  342MOL0     H46161   6.462   5.377   2.996 -0.5566 -0.1191 -1.1811
  342MOL0     H46162   6.603   5.370   3.189  2.7547  3.4453  0.1468
  342MOL0     H46163   6.454   5.417   3.286  0.2267 -1.8367 -0.1061
  342MOL0     H46164   6.430   5.624   3.176 -0.1208 -1.5591  1.2894
  342MOL0     H46165   6.533   5.588   3.049 -2.8327 -0.8752  0.1057
  342MOL0     H46166   6.617   5.597   3.339 -1.7552 -1.9792 -0.8291
  342MOL0     H46167   6.648   5.733   3.236  0.9420 -0.3935 -1.4613
  342MOL0     H46168   6.933   5.504   3.052  0.3916  3.6005  0.2868
  342MOL0     H46169   6.048   5.483   3.169 -2.3252 -0.6274  0.3378
  342MOL0     H46170   5.923   5.419   3.350 -0.7320 -0.8049  0.1963
  343MOL0     O46171   3.336   4.845  10.809  0.4590  0.2626  0.6079
  343MOL0     C46172   3.440   4.906  10.825 -0.4988  0.4106  0.3952
  343MOL0     O46173   3.500   4.940  10.936 -0.3876  0.4084 -0.2216
  343MOL0     C46174   3.444   4.911  11.062  0.1595  0.1701  0.4623
  343MOL0     C46175   3.311   4.942  11.093 -0.5749 -0.5031  0.0625
  343MOL0     C46176   3.262   4.913  11.215  0.8621  0.1989  1.1776
  343MOL0     C46177   3.332   4.847  11.315 -0.7618 -0.5985 -0.4702
  343MOL0     O46178   3.266   4.815  11.439  0.0283  0.2690  0.3909
  343MOL0     C46179   3.336   4.840  11.560  1.6336  0.4491  0.5242
  343MOL0     C46180   3.235   4.826  11.663 -0.4428  0.2514 -0.3300
  343MOL0     C46181   3.120   4.924  11.639  0.4354 -1.0822  0.1956
  343MOL0     C46182   3.004   4.911  11.741 -0.5423  0.1499  0.0295
  343MOL0     C46183   2.896   5.015  11.720  0.5394  1.0186  0.7760
  343MOL0     C46184   2.781   4.967  11.628 -0.6461  0.3306  0.0050
  343MOL0     C46185   2.666   5.067  11.608  0.1453 -0.0349  0.7133
  343MOL0     C46186   2.547   5.090  11.704 -0.8773  0.1528  0.0618
  343MOL0     N46187   2.488   5.208  11.649  0.0890 -0.7551 -0.4551
  343MOL0     C46188   2.418   5.224  11.532 -0.4285  0.1341  0.4837
  343MOL0     C46189   2.398   5.358  11.517  0.3412 -0.6891 -0.3197
  343MOL0     C46190   2.314   5.426  11.404 -0.2164 -0.1593  1.6446
  343MOL0     C46191   2.396   5.500  11.301 -0.2003  0.8781  0.3417
  343MOL0     C46192   2.476   5.397  11.227  0.7099 -0.0648  0.6289
  343MOL0     C46193   2.571   5.452  11.118 -0.8278  0.0765 -0.4713
  343MOL0     O46194   2.666   5.535  11.179 -0.5869 -0.3897 -0.4203
  343MOL0     C46195   2.761   5.606  11.099 -0.0104  0.8807  0.4167
  343MOL0     C46196   2.793   5.558  10.967 -0.0992  0.1296 -0.3086
  343MOL0     C46197   2.886   5.620  10.880  0.5249 -0.9227  0.2587
  343MOL0     C46198   2.885   5.604  10.728  0.4293  0.3912  0.5081
  343MOL0     C46199   2.958   5.722  10.938  0.6646 -0.6068 -0.0253
  343MOL0     C46200   3.061   5.792  10.850  0.1674 -0.8033  0.5535
  343MOL0     O46201   3.070   5.925  10.871 -0.2500  0.5201  0.4460
  343MOL0     C46202   3.166   5.985  10.794 -0.8729 -0.1635  0.2432
  343MOL0     C46203   3.284   6.010  10.857 -0.1430 -0.0521  0.6622
  343MOL0     C46204   3.393   6.062  10.794 -0.7126  0.3017 -0.2753
  343MOL0     C46205   3.383   6.083  10.653 -0.3263  0.4357  0.0305
  343MOL0     O46206   3.497   6.131  10.608 -0.2533 -0.3468  0.1045
  343MOL0     C46207   3.518   6.178  10.485  0.0050  1.1745  1.0838
  343MOL0     C46208   3.578   6.076  10.393 -0.6572  0.9592  0.1976
  343MOL0     C46209   3.715   6.023  10.420 -0.7136 -0.3158 -0.5929
  343MOL0     C46210   3.784   5.964  10.299  0.6596  0.5560 -0.6845
  343MOL0     C46211   3.923   5.919  10.340 -1.4208  0.5248  0.0520
  343MOL0     C46212   3.994   5.864  10.215 -1.1310 -0.1527  0.0571
  343MOL0     C46213   4.130   5.809  10.252 -0.6538 -0.3333  0.2696
  343MOL0     C46214   4.196   5.749  10.129 -0.3486 -0.1587 -0.0589
  343MOL0    Cl46215   4.315   5.855  10.046  0.3206  0.2636 -0.0585
  343MOL0     C46216   3.260   6.055  10.584  0.8839  0.4720 -0.5258
  343MOL0     C46217   3.152   6.013  10.653 -0.2817 -0.4385 -0.6745
  343MOL0     O46218   3.138   5.727  10.785 -0.9453  0.2384  0.1578
  343MOL0     C46219   2.936   5.767  11.069  1.0463  0.9463  0.6660
  343MOL0     C46220   2.838   5.713  11.152  0.1866 -0.0238 -1.2672
  343MOL0     N46221   2.460   5.422  11.621  0.2351 -0.6344 -0.1792
  343MOL0     N46222   2.520   5.337  11.697 -0.3219 -0.2476  0.1146
  343MOL0     C46223   3.457   4.798  11.285 -0.1348 -0.4167 -0.9008
  343MOL0     C46224   3.512   4.829  11.159  0.6157  0.4388  0.9636
  343MOL0     C46225   3.502   4.938  10.693  0.7285 -1.0624  0.0515
  343MOL0     C46226   3.418   4.941  10.587  0.4145  0.6477  0.7119
  343MOL0     C46227   3.469   4.973  10.458 -0.2034 -0.2081 -0.3383
  343MOL0     C46228   3.601   5.011  10.456 -0.4046 -0.6054  0.2327
  343MOL0     O46229   3.666   5.033  10.338  0.6075  0.7453 -0.3761
  343MOL0     C46230   3.664   5.170  10.311 -0.5602 -0.6637 -0.6505
  343MOL0     C46231   3.693   5.194  10.167 -0.3106 -0.3657  0.6489
  343MOL0     C46232   3.610   5.110  10.072 -0.0462 -0.3125 -0.0197
  343MOL0     C46233   3.620   5.167   9.928 -0.4293  0.5547  0.2442
  343MOL0     C46234   3.515   5.245   9.887 -0.1908 -0.4050  0.1831
  343MOL0     C46235   3.410   5.308   9.866 -0.2622  0.9588  0.4848
  343MOL0     C46236   3.687   5.015  10.569  0.1502 -0.3585  0.0081
  343MOL0     C46237   3.633   4.971  10.693 -0.4156 -0.2092  1.2090
  343MOL0     H46238   3.264   4.990  11.008  3.4240  1.3242 -1.3349
  343MOL0     H46239   3.165   4.958  11.229  0.2243 -1.1383  1.1949
  343MOL0     H46240   3.413   4.763  11.565  0.1434 -1.0298  2.2660
  343MOL0     H46241   3.385   4.937  11.573  0.0232  1.3151  0.4114
  343MOL0     H46242   3.195   4.724  11.665 -0.5222  0.2791 -0.4660
  343MOL0     H46243   3.282   4.855  11.757  0.2875  0.9946 -0.9131
  343MOL0     H46244   3.152   5.027  11.620 -1.3872 -0.4290  0.3689
  343MOL0     H46245   3.066   4.913  11.544  2.5212  4.0826 -1.9302
  343MOL0     H46246   2.973   4.806  11.748  3.2554 -1.0718  1.1724
  343MOL0     H46247   3.052   4.936  11.837  1.7188  0.1919 -1.0517
  343MOL0     H46248   2.870   5.050  11.821 -1.1451  2.7647 -0.1898
  343MOL0     H46249   2.929   5.098  11.657 -1.6487  0.5160 -1.1394
  343MOL0     H46250   2.815   4.948  11.525 -3.0962  1.2559 -1.0667
  343MOL0     H46251   2.748   4.877  11.681  0.0477  0.2713  0.3406
  343MOL0     H46252   2.715   5.163  11.590  2.0541 -1.1590 -0.4418
  343MOL0     H46253   2.627   5.043  11.509  0.2589 -0.0595  0.6744
  343MOL0     H46254   2.598   5.102  11.800  1.0936 -0.4299 -0.8719
  343MOL0     H46255   2.496   4.993  11.704  0.6133 -0.8058 -3.7798
  343MOL0     H46256   2.402   5.138  11.467  1.9871  0.7011 -0.9858
  343MOL0     H46257   2.256   5.351  11.349  3.3111 -0.1934 -2.5720
  343MOL0     H46258   2.250   5.498  11.456  0.0883  0.8898  0.6186
  343MOL0     H46259   2.465   5.573  11.344 -0.4512  0.2154  1.9298
  343MOL0     H46260   2.320   5.550  11.240  0.0323 -1.7209 -2.2863
  343MOL0     H46261   2.411   5.316  11.192  1.1126  0.8282 -2.5727
  343MOL0     H46262   2.535   5.358  11.310  1.5736  1.5135  0.7995
  343MOL0     H46263   2.519   5.497  11.033 -2.4204 -2.3453 -0.8750
  343MOL0     H46264   2.638   5.371  11.085 -1.0840  0.8540 -3.1480
  343MOL0     H46265   2.724   5.483  10.929  0.5975 -0.0685 -1.2277
  343MOL0     H46266   2.833   5.691  10.685 -2.1821 -0.1452  2.3611
  343MOL0     H46267   2.986   5.596  10.687  0.2500  2.3029 -0.4091
  343MOL0     H46268   2.828   5.517  10.693  1.1432 -0.3996  1.2894
  343MOL0     H46269   3.274   6.000  10.964 -1.5583 -0.7899  0.4903
  343MOL0     H46270   3.489   6.066  10.843 -0.0252  0.1899 -1.5763
  343MOL0     H46271   3.431   6.217  10.430 -0.2607  1.9090  2.0025
  343MOL0     H46272   3.587   6.263  10.484  0.2002  1.0849 -1.6538
  343MOL0     H46273   3.499   6.003  10.372 -1.4263  2.3391 -2.2410
  343MOL0     H46274   3.591   6.122  10.294  2.1445 -0.8880 -0.3939
  343MOL0     H46275   3.688   5.951  10.497 -0.6288  0.8631  0.5625
  343MOL0     H46276   3.771   6.102  10.469  0.4102 -1.9338  0.8337
  343MOL0     H46277   3.723   5.878  10.270  0.1435 -0.0160  1.7893
  343MOL0     H46278   3.792   6.027  10.211 -2.6767  0.0306 -1.4722
  343MOL0     H46279   3.920   5.848  10.423  1.7020  0.5192  0.2551
  343MOL0     H46280   3.969   6.013  10.372  0.2325  0.2316 -1.3724
  343MOL0     H46281   3.934   5.777  10.185 -0.6164 -0.4319 -0.1737
  343MOL0     H46282   3.992   5.934  10.131  0.9421  0.7721  0.7057
  343MOL0     H46283   4.141   5.735  10.332  0.6159  0.2960  0.7051
  343MOL0     H46284   4.184   5.896  10.289  1.7758 -2.3491  1.8036
  343MOL0     H46285   4.110   5.722  10.067 -0.6430 -1.3788  0.8422
  343MOL0     H46286   4.253   5.661  10.160  0.0161 -0.4722 -1.5668
  343MOL0     H46287   3.259   6.073  10.477  0.0248  1.9031 -0.2949
  343MOL0     H46288   3.058   5.994  10.602 -0.8850 -0.7725  0.5170
  343MOL0     H46289   3.002   5.838  11.118 -1.8175  2.6257  2.4099
  343MOL0     H46290   2.829   5.741  11.256 -1.5873 -3.0399 -0.4990
  343MOL0     H46291   3.522   4.749  11.356  1.2352  0.5698 -1.4237
  343MOL0     H46292   3.612   4.796  11.134 -0.1124  0.5945 -2.5613
  343MOL0     H46293   3.312   4.918  10.591 -0.2096  2.8146 -1.1868
  343MOL0     H46294   3.403   4.972  10.371 -0.0077 -0.2942 -0.4874
  343MOL0     H46295   3.573   5.223  10.337  0.0317  0.8256 -1.4994
  343MOL0     H46296   3.745   5.219  10.366 -2.8619  2.2785  0.3643
  343MOL0     H46297   3.799   5.171  10.153 -0.4143  0.2534 -1.6021
  343MOL0     H46298   3.677   5.297  10.135 -0.2374 -0.8584 -1.0609
  343MOL0     H46299   3.506   5.121  10.102 -0.0512 -1.8929  0.6435
  343MOL0     H46300   3.637   5.004  10.071 -1.4482 -0.6842  0.3622
  343MOL0     H46301   3.634   5.090   9.851  1.5425  0.3376  0.7641
  343MOL0     H46302   3.711   5.227   9.914 -1.0030  1.4893  0.4418
  343MOL0     H46303   3.322   5.361   9.835 -1.0009 -0.5135 -0.0578
  343MOL0     H46304   3.791   5.041  10.551 -0.1679 -1.6796 -5.1269
  343MOL0     H46305   3.688   4.974  10.786 -1.3788  2.9204  1.7933
  344MOL0     O46306   0.359   1.955   7.803 -0.2511 -0.1157  0.5319
  344MOL0     C46307   0.478   1.975   7.813  0.2303  0.2946 -0.8917
  344MOL0     O46308   0.536   2.024   7.927  0.1682  0.4316  0.4141
  344MOL0     C46309   0.465   2.043   8.044 -0.1192 -0.6051  0.4761
  344MOL0     C46310   0.523   2.021   8.162  0.2402  0.0788 -0.2266
  344MOL0     C46311   0.456   2.050   8.278 -0.7690 -0.7764 -0.5489
  344MOL0     C46312   0.334   2.119   8.284  0.3179 -0.6205  0.4090
  344MOL0     O46313   0.259   2.151   8.391 -0.2504  0.1971  0.8980
  344MOL0     C46314   0.299   2.127   8.528 -0.4591  0.9909  0.3525
  344MOL0     C46315   0.332   1.985   8.561 -1.5381  0.0954 -0.0761
  344MOL0     C46316   0.334   1.973   8.716 -0.5620 -0.2481  0.4208
  344MOL0     C46317   0.418   1.847   8.755 -0.2995  0.3757  0.3681
  344MOL0     C46318   0.357   1.717   8.700  0.8015 -0.3915  0.4221
  344MOL0     C46319   0.398   1.598   8.786 -0.2322 -0.8250  0.3513
  344MOL0     C46320   0.326   1.471   8.739  0.1066  0.5000 -0.1574
  344MOL0     C46321   0.340   1.347   8.838 -0.3577  0.2315 -0.2660
  344MOL0     N46322   0.251   1.234   8.822 -0.7725  0.3869  0.1146
  344MOL0     C46323   0.119   1.229   8.858  0.1936 -0.7001  0.0358
  344MOL0     C46324   0.091   1.100   8.820  1.0501 -0.3301 -0.4124
  344MOL0     C46325  -0.033   1.024   8.849  0.2139  1.4676  0.0740
  344MOL0     C46326  -0.134   1.113   8.910  0.4163  0.1065 -0.8098
  344MOL0     C46327  -0.284   1.074   8.919  1.0637 -0.1307 -0.5429
  344MOL0     C46328  -0.357   1.054   8.785  0.3411 -0.0165 -0.0290
  344MOL0     O46329  -0.491   1.020   8.814 -0.3104  0.4499 -0.1372
  344MOL0     C46330  -0.572   0.964   8.719  0.3691  0.2627 -0.3904
  344MOL0     C46331  -0.542   0.939   8.585 -0.8357 -0.3341 -0.1689
  344MOL0     C46332  -0.639   0.885   8.501 -0.0385 -0.8279 -0.1685
  344MOL0     C46333  -0.587   0.847   8.364 -0.1511  0.4778 -0.6701
  344MOL0     C46334  -0.765   0.846   8.546  0.0577 -0.8026  0.0440
  344MOL0     C46335  -0.878   0.810   8.461 -1.0629 -0.4914  0.9028
  344MOL0     O46336  -0.978   0.898   8.457 -0.0796 -0.3741  0.1143
  344MOL0     C46337  -1.102   0.881   8.405  0.1482 -0.7202  0.0167
  344MOL0     C46338  -1.131   0.935   8.277  0.0461  0.7639  1.5957
  344MOL0     C46339  -1.264   0.921   8.238  0.2463  0.6132  0.6495
  344MOL0     C46340  -1.356   0.849   8.313 -0.2580  0.7672 -0.1132
  344MOL0     O46341  -1.488   0.841   8.272 -0.5942 -0.4181 -0.0232
  344MOL0     C46342  -1.583   0.758   8.341 -0.4715  0.6918 -0.1355
  344MOL0     C46343  -1.707   0.766   8.257 -0.3976  0.9871  0.8740
  344MOL0     C46344  -1.765   0.909   8.218  0.8816 -0.0101  0.5363
  344MOL0     C46345  -1.837   0.983   8.333  0.3917  0.3625 -0.8678
  344MOL0     C46346  -1.976   0.918   8.366 -1.4102  0.4124  0.2478
  344MOL0     C46347  -2.082   0.949   8.266  0.6393  0.9974  0.1071
  344MOL0     C46348  -2.116   1.105   8.252  0.3921 -0.3899  0.3475
  344MOL0     C46349  -2.176   1.173   8.385  0.2820 -0.3522  0.5583
  344MOL0    Cl46350  -2.234   1.338   8.358 -0.1249 -0.0269 -0.0533
  344MOL0     C46351  -1.312   0.782   8.433 -0.3489 -0.1640 -0.2918
  344MOL0     C46352  -1.190   0.804   8.479  0.1742 -0.1404 -0.2433
  344MOL0     O46353  -0.868   0.704   8.400  0.8985  0.8066  0.1022
  344MOL0     C46354  -0.794   0.874   8.681 -0.0897  0.0613 -0.3846
  344MOL0     C46355  -0.697   0.933   8.768  0.3166  0.5092 -0.1233
  344MOL0     N46356   0.202   1.034   8.766 -0.5716 -0.3969 -0.2221
  344MOL0     N46357   0.290   1.122   8.758 -0.3635 -0.4453 -0.1422
  344MOL0     C46358   0.270   2.146   8.160 -0.1739 -0.0566  1.3789
  344MOL0     C46359   0.338   2.110   8.040 -0.3434  0.6131 -0.1014
  344MOL0     C46360   0.565   1.964   7.697  0.2016  0.7328  0.1196
  344MOL0     C46361   0.527   2.021   7.575  0.1759 -0.3085  0.2835
  344MOL0     C46362   0.602   1.998   7.458 -0.3752  0.0021 -0.9965
  344MOL0     C46363   0.729   1.939   7.474 -1.1601 -0.9067 -0.1786
  344MOL0     O46364   0.808   1.905   7.362 -0.3260 -0.6394 -0.9015
  344MOL0     C46365   0.779   1.959   7.229 -0.6700 -0.2900 -0.3215
  344MOL0     C46366   0.823   2.098   7.198  0.7214  0.0141  0.7390
  344MOL0     C46367   0.969   2.120   7.159 -0.6469 -0.5777  0.3080
  344MOL0     C46368   0.992   2.181   7.023  0.3334  0.8215  0.0469
  344MOL0     C46369   0.968   2.074   6.925  0.5849 -0.2256  0.4736
  344MOL0     C46370   0.951   1.983   6.850 -0.0516  0.5454 -0.8351
  344MOL0     C46371   0.778   1.890   7.594  1.3071 -0.8340 -0.0665
  344MOL0     C46372   0.691   1.895   7.703 -0.2280 -0.0740  1.1899
  344MOL0     H46373   0.621   1.975   8.152  0.1427 -0.3634  0.7849
  344MOL0     H46374   0.513   2.034   8.369  1.1104  1.0776 -1.2944
  344MOL0     H46375   0.384   2.189   8.556 -0.7017  0.8452  1.4977
  344MOL0     H46376   0.213   2.158   8.589 -0.1304  0.3786  1.1480
  344MOL0     H46377   0.268   1.915   8.506 -1.0474  0.9164 -1.7768
  344MOL0     H46378   0.436   1.959   8.535 -0.6536  1.3099  2.0543
  344MOL0     H46379   0.372   2.062   8.767  1.0014  1.8701 -3.9207
  344MOL0     H46380   0.228   1.966   8.745 -0.5583 -0.6904  0.3336
  344MOL0     H46381   0.522   1.860   8.724 -0.6762  2.4617 -0.1809
  344MOL0     H46382   0.417   1.852   8.865 -1.2140 -0.8824  0.4288
  344MOL0     H46383   0.248   1.715   8.696  0.8110  0.3757 -2.0747
  344MOL0     H46384   0.406   1.696   8.604 -1.9463 -0.3049 -1.1124
  344MOL0     H46385   0.507   1.592   8.782 -0.1294  0.0625  1.3749
  344MOL0     H46386   0.368   1.614   8.890  0.9692  2.1782  0.3446
  344MOL0     H46387   0.220   1.497   8.736  0.4753  2.0004 -1.3311
  344MOL0     H46388   0.352   1.435   8.640  1.1454 -0.8371  0.5769
  344MOL0     H46389   0.331   1.382   8.941  0.7912  0.9812 -0.4039
  344MOL0     H46390   0.441   1.305   8.828 -1.1997 -1.7450 -1.1702
  344MOL0     H46391   0.071   1.309   8.913  0.4895 -0.8701  0.5498
  344MOL0     H46392  -0.060   0.974   8.756  1.6255 -2.2902  1.4872
  344MOL0     H46393  -0.016   0.940   8.916  0.2649  1.7850  0.4598
  344MOL0     H46394  -0.134   1.207   8.854 -0.9467  0.9458  0.5363
  344MOL0     H46395  -0.104   1.123   9.015  2.1862  2.5794 -1.4462
  344MOL0     H46396  -0.331   1.153   8.979  1.8702  1.4920 -1.9619
  344MOL0     H46397  -0.292   0.976   8.967 -0.7274  0.4617  0.4469
  344MOL0     H46398  -0.309   0.974   8.728  1.5526  2.0480 -2.0555
  344MOL0     H46399  -0.356   1.147   8.728 -0.7548  0.3453  0.5191
  344MOL0     H46400  -0.445   0.969   8.548 -0.7257 -1.1209 -0.5552
  344MOL0     H46401  -0.504   0.777   8.381  0.0362  0.3699 -1.9302
  344MOL0     H46402  -0.672   0.796   8.318 -0.4601 -1.5552  1.8698
  344MOL0     H46403  -0.563   0.933   8.302 -0.2305  0.5202 -0.6429
  344MOL0     H46404  -1.063   0.993   8.214 -3.0026  0.3732 -2.4635
  344MOL0     H46405  -1.302   0.957   8.143  0.3482 -0.6795  0.1002
  344MOL0     H46406  -1.546   0.655   8.336 -0.0345  0.8691 -4.3357
  344MOL0     H46407  -1.597   0.786   8.446  2.2076 -3.0668  1.4575
  344MOL0     H46408  -1.687   0.712   8.164  1.9979  4.5014 -0.9041
  344MOL0     H46409  -1.782   0.704   8.306 -0.5987 -0.2634 -0.9106
  344MOL0     H46410  -1.835   0.888   8.135  4.7638 -0.9793 -2.8115
  344MOL0     H46411  -1.685   0.969   8.173  0.6844  0.5279  0.8993
  344MOL0     H46412  -1.783   0.969   8.427 -0.5645  1.2407 -0.1582
  344MOL0     H46413  -1.842   1.090   8.312 -0.8197  0.1564 -1.7186
  344MOL0     H46414  -2.010   0.960   8.462 -2.3073  2.6436 -0.9853
  344MOL0     H46415  -1.962   0.810   8.354  0.2866  0.7629 -1.1816
  344MOL0     H46416  -2.048   0.902   8.173 -0.4708  2.4943 -1.1015
  344MOL0     H46417  -2.169   0.887   8.292  1.4461  0.8812  2.9187
  344MOL0     H46418  -2.185   1.127   8.170 -1.4685  0.4112  2.0501
  344MOL0     H46419  -2.016   1.145   8.232  0.2619 -0.4886 -0.5663
  344MOL0     H46420  -2.102   1.178   8.465  1.7889 -1.9222 -0.6601
  344MOL0     H46421  -2.253   1.102   8.417 -0.4711 -0.4280 -1.2638
  344MOL0     H46422  -1.366   0.712   8.497  1.1929 -0.7895  0.3895
  344MOL0     H46423  -1.159   0.762   8.574  0.6467 -2.3815 -1.3335
  344MOL0     H46424  -0.895   0.851   8.713 -0.8237 -1.0326 -3.2175
  344MOL0     H46425  -0.708   0.947   8.875  3.7370 -2.9434  0.9067
  344MOL0     H46426   0.164   2.170   8.161 -0.3058  0.4741 -3.2428
  344MOL0     H46427   0.285   2.130   7.947  0.6917 -0.2617 -0.8972
  344MOL0     H46428   0.428   2.065   7.569 -0.3176 -0.8880  2.9316
  344MOL0     H46429   0.566   2.040   7.365  1.3627  1.3118 -1.1359
  344MOL0     H46430   0.822   1.896   7.150  1.7742 -0.1716  0.8378
  344MOL0     H46431   0.672   1.947   7.208 -1.5123  0.6528  2.9150
  344MOL0     H46432   0.792   2.161   7.282 -2.1885 -0.6572  0.2882
  344MOL0     H46433   0.761   2.134   7.116 -1.7076 -4.0580  0.4890
  344MOL0     H46434   1.021   2.024   7.166 -1.1568 -1.0063 -1.2173
  344MOL0     H46435   1.012   2.190   7.231  0.2570  0.3067 -1.0410
  344MOL0     H46436   1.099   2.199   7.006  0.1379 -0.2334 -2.9885
  344MOL0     H46437   0.951   2.277   6.992  3.8149  2.0676 -1.2255
  344MOL0     H46438   0.929   1.909   6.776 -3.5383  0.4486  0.1276
  344MOL0     H46439   0.876   1.846   7.579  1.7516  0.2204 -0.3929
  344MOL0     H46440   0.727   1.857   7.798  1.6551 -2.6640 -0.3993
  345MOL0     O46441   1.229   6.371  11.065  0.8065  0.2352 -0.4849
  345MOL0     C46442   1.126   6.429  11.118 -0.2681  0.2739  0.5186
  345MOL0     O46443   1.000   6.434  11.059  0.2242  0.8662 -0.3569
  345MOL0     C46444   0.954   6.344  10.964  0.0447  0.7367 -0.1034
  345MOL0     C46445   1.006   6.218  10.941 -0.2438  0.3656 -0.0487
  345MOL0     C46446   0.947   6.145  10.836 -0.2219  0.3773 -0.4746
  345MOL0     C46447   0.841   6.192  10.763  0.2795  0.7014  0.7494
  345MOL0     O46448   0.807   6.112  10.664  0.6672  0.2850 -0.5424
  345MOL0     C46449   0.712   6.155  10.570 -0.2709 -0.5231  0.4806
  345MOL0     C46450   0.684   6.043  10.472 -0.0225 -0.5534 -0.3884
  345MOL0     C46451   0.578   6.085  10.363 -0.2700 -0.4848  0.0904
  345MOL0     C46452   0.536   5.958  10.286  0.0832 -0.2255 -0.2076
  345MOL0     C46453   0.395   5.975  10.225 -0.1017 -0.0712 -0.3500
  345MOL0     C46454   0.281   6.010  10.318 -0.1882 -0.6327  0.1499
  345MOL0     C46455   0.148   5.993  10.249 -0.2718 -0.5084  0.2560
  345MOL0     C46456   0.042   6.062  10.333 -0.1423 -0.3775 -1.0555
  345MOL0     N46457  -0.097   6.025  10.316 -0.2485  0.1794 -0.8333
  345MOL0     C46458  -0.196   6.109  10.269 -0.4477  0.5515 -0.9824
  345MOL0     C46459  -0.310   6.038  10.280  0.9266  0.0764  0.4410
  345MOL0     C46460  -0.449   6.084  10.242  0.2635  0.2459  0.4145
  345MOL0     C46461  -0.489   6.213  10.318  0.3924  0.7423 -0.4368
  345MOL0     C46462  -0.623   6.292  10.278 -0.6407 -0.8362  0.4663
  345MOL0     C46463  -0.623   6.322  10.125 -0.4639 -0.0506 -0.1289
  345MOL0     O46464  -0.761   6.345  10.082 -0.9009  0.2527 -0.2911
  345MOL0     C46465  -0.794   6.333   9.940 -0.3815  0.4031 -1.0700
  345MOL0     C46466  -0.692   6.355   9.847  1.1677  0.1022  0.2493
  345MOL0     C46467  -0.717   6.335   9.704  0.4817  0.2298 -0.1916
  345MOL0     C46468  -0.586   6.343   9.620  0.6171  0.3338 -0.2058
  345MOL0     C46469  -0.840   6.291   9.657  0.5668 -0.5039 -0.7764
  345MOL0     C46470  -0.870   6.269   9.517  0.0529  0.4419 -0.0983
  345MOL0     O46471  -1.000   6.242   9.488  0.1824 -0.7008  0.4153
  345MOL0     C46472  -1.044   6.208   9.363 -0.2555  0.4102 -0.6423
  345MOL0     C46473  -1.160   6.130   9.363 -0.2659  0.1177  0.4767
  345MOL0     C46474  -1.211   6.082   9.242  0.2353  0.0286 -0.1664
  345MOL0     C46475  -1.171   6.126   9.113 -0.5486  0.1533  0.2520
  345MOL0     O46476  -1.240   6.077   9.004 -0.3244  0.4070 -0.0053
  345MOL0     C46477  -1.185   6.088   8.877 -0.5035 -0.2949  0.3911
  345MOL0     C46478  -1.274   5.989   8.791 -0.4004 -0.4334  0.0629
  345MOL0     C46479  -1.249   5.838   8.824 -0.6523 -0.4659  0.1456
  345MOL0     C46480  -1.333   5.743   8.739  0.6497 -1.8036 -0.3854
  345MOL0     C46481  -1.268   5.706   8.603 -0.1485 -0.2126  0.1492
  345MOL0     C46482  -1.374   5.647   8.510 -0.3600 -1.0467 -0.3437
  345MOL0     C46483  -1.316   5.615   8.365  0.2149 -1.2104 -0.7625
  345MOL0     C46484  -1.309   5.470   8.340 -0.4120  0.1966  0.3546
  345MOL0    Cl46485  -1.177   5.431   8.217 -0.1995  0.0251  0.5082
  345MOL0     C46486  -1.065   6.213   9.112  0.7544  0.1154  1.3022
  345MOL0     C46487  -0.996   6.250   9.232 -0.8249  0.5597 -0.6016
  345MOL0     O46488  -0.780   6.255   9.435  0.1298 -0.7850 -0.0944
  345MOL0     C46489  -0.947   6.287   9.756  0.3576 -0.2787 -0.8004
  345MOL0     C46490  -0.917   6.302   9.896  0.2958 -0.9154 -0.1149
  345MOL0     N46491  -0.279   5.918  10.349  0.0975  0.0556  0.0138
  345MOL0     N46492  -0.151   5.920  10.379  0.7238 -0.3454 -0.0432
  345MOL0     C46493   0.789   6.317  10.789  0.5004  0.8879 -0.6559
  345MOL0     C46494   0.852   6.397  10.888  0.2852  0.2970 -0.1318
  345MOL0     C46495   1.143   6.488  11.249 -0.7277  0.0080 -1.0413
  345MOL0     C46496   1.032   6.544  11.316 -0.0102 -0.6734 -0.0984
  345MOL0     C46497   1.054   6.636  11.415  0.3757  0.0768 -0.3796
  345MOL0     C46498   1.176   6.676  11.457 -0.9771  0.4181 -0.3428
  345MOL0     O46499   1.192   6.785  11.544  0.0260  0.6574  0.0488
  345MOL0     C46500   1.326   6.825  11.589  0.3300 -0.1791  0.5736
  345MOL0     C46501   1.308   6.935  11.690 -1.1142  0.4955  0.2821
  345MOL0     C46502   1.443   6.998  11.713  0.7793  0.5934  0.5787
  345MOL0     C46503   1.411   7.117  11.813  0.0589  0.1067 -0.0857
  345MOL0     C46504   1.524   7.198  11.858 -0.6660  0.6050  0.2257
  345MOL0     C46505   1.616   7.262  11.892 -1.4739 -0.1025 -0.0187
  345MOL0     C46506   1.284   6.617  11.391  0.2725 -0.9047 -1.1230
  345MOL0     C46507   1.274   6.526  11.290 -0.1902 -0.2427  0.1891
  345MOL0     H46508   1.088   6.182  11.002  1.8725  0.4795 -2.6242
  345MOL0     H46509   0.999   6.055  10.806  0.1132  1.3454 -3.0575
  345MOL0     H46510   0.621   6.199  10.612  0.3048  0.8397  0.3325
  345MOL0     H46511   0.743   6.237  10.505 -0.7618 -1.3083 -0.8096
  345MOL0     H46512   0.777   6.025  10.418  1.7158  3.6946  0.7145
  345MOL0     H46513   0.641   5.967  10.538  0.9790  0.3287  1.3580
  345MOL0     H46514   0.496   6.142  10.409 -0.8073 -0.9097 -0.3221
  345MOL0     H46515   0.624   6.155  10.293 -0.9626 -0.8161 -0.7145
  345MOL0     H46516   0.606   5.930  10.207 -0.6310  0.6797 -1.1827
  345MOL0     H46517   0.534   5.871  10.353  1.2855  0.1452  0.3352
  345MOL0     H46518   0.396   6.047  10.142  2.1672  2.7825  1.9367
  345MOL0     H46519   0.376   5.882  10.170  3.6277 -1.6198  0.6461
  345MOL0     H46520   0.294   5.959  10.414  2.4841 -1.2379 -0.4512
  345MOL0     H46521   0.294   6.117  10.337 -0.2135 -0.9906  2.4447
  345MOL0     H46522   0.165   6.035  10.149  0.1804 -0.1550  0.4772
  345MOL0     H46523   0.133   5.886  10.233 -0.6906 -0.3645 -0.3556
  345MOL0     H46524   0.037   6.168  10.307 -3.4936 -0.0842  0.2677
  345MOL0     H46525   0.054   6.055  10.441 -3.7711  2.0491 -0.2912
  345MOL0     H46526  -0.185   6.212  10.237  0.2730  1.0372  0.6711
  345MOL0     H46527  -0.440   6.105  10.135  2.4365  1.1913  0.7359
  345MOL0     H46528  -0.523   6.005  10.257 -1.7444  1.8727 -0.4248
  345MOL0     H46529  -0.406   6.280  10.300  1.2123 -0.5281 -1.6152
  345MOL0     H46530  -0.494   6.181  10.423 -0.5835 -1.8266 -1.1867
  345MOL0     H46531  -0.636   6.389  10.328 -0.5286 -1.4099  1.6332
  345MOL0     H46532  -0.712   6.231  10.296  0.2197 -2.0969  0.6006
  345MOL0     H46533  -0.565   6.250  10.066 -0.5014 -0.9777  0.9244
  345MOL0     H46534  -0.580   6.421  10.106 -0.9529  0.5456  1.7058
  345MOL0     H46535  -0.588   6.372   9.873  1.5991  1.1231 -1.9325
  345MOL0     H46536  -0.580   6.425   9.548 -3.5860  0.2961 -0.8276
  345MOL0     H46537  -0.498   6.363   9.682 -0.7346 -1.4234  2.4834
  345MOL0     H46538  -0.564   6.250   9.565  0.1572 -0.5551  1.0754
  345MOL0     H46539  -1.210   6.105   9.456 -0.7921 -0.4106  0.0628
  345MOL0     H46540  -1.299   6.019   9.249 -0.7738  1.3762 -0.2954
  345MOL0     H46541  -1.192   6.186   8.828  0.5215 -1.3809 -2.1220
  345MOL0     H46542  -1.080   6.059   8.871 -0.0804  0.9877  1.2859
  345MOL0     H46543  -1.379   6.020   8.795 -0.7362 -0.9393 -2.8662
  345MOL0     H46544  -1.250   6.020   8.689  1.1232  0.7090  0.7138
  345MOL0     H46545  -1.271   5.827   8.930 -0.3738 -1.5465  0.1082
  345MOL0     H46546  -1.142   5.814   8.822  0.0016  2.0877  0.8803
  345MOL0     H46547  -1.355   5.652   8.795  1.7440 -2.2618 -0.6905
  345MOL0     H46548  -1.424   5.803   8.725  0.5508 -2.4120 -2.7111
  345MOL0     H46549  -1.184   5.638   8.620  1.3870  1.1551 -1.5497
  345MOL0     H46550  -1.230   5.797   8.558 -2.0828 -0.0211 -1.1967
  345MOL0     H46551  -1.401   5.553   8.558  1.1449 -2.6898 -2.5405
  345MOL0     H46552  -1.462   5.711   8.515  0.3374  0.0793 -1.7604
  345MOL0     H46553  -1.217   5.661   8.357  0.1183 -0.8262  0.0320
  345MOL0     H46554  -1.376   5.672   8.294  0.4628 -1.3328 -1.0665
  345MOL0     H46555  -1.408   5.430   8.315  0.2399 -1.4567  0.2971
  345MOL0     H46556  -1.283   5.418   8.433 -0.6431  1.3450  1.0816
  345MOL0     H46557  -1.046   6.258   9.015 -0.7715 -3.6485 -0.9968
  345MOL0     H46558  -0.925   6.331   9.222 -1.1514  0.8803 -0.3297
  345MOL0     H46559  -1.050   6.273   9.724  0.0419  0.4515 -0.1088
  345MOL0     H46560  -1.003   6.294   9.961 -0.0516 -0.8550 -0.5694
  345MOL0     H46561   0.701   6.349  10.735 -0.1409 -2.4902 -1.8128
  345MOL0     H46562   0.824   6.502  10.897 -0.8445  0.1457 -1.4976
  345MOL0     H46563   0.929   6.516  11.299 -0.0912 -1.1678  1.1273
  345MOL0     H46564   0.971   6.682  11.468  0.1714  0.0894 -0.7039
  345MOL0     H46565   1.378   6.744  11.641  0.2079  0.0256  1.0178
  345MOL0     H46566   1.379   6.868  11.504  2.8402 -2.7808  0.6831
  345MOL0     H46567   1.264   6.889  11.779  0.8225  2.1607  2.2237
  345MOL0     H46568   1.242   7.010  11.646  2.3896  2.2440 -2.5937
  345MOL0     H46569   1.481   7.037  11.618 -1.2062 -0.6224 -0.7833
  345MOL0     H46570   1.507   6.921  11.756 -0.0010 -0.5386 -0.2189
  345MOL0     H46571   1.364   7.075  11.902  2.3566 -0.7061  0.8064
  345MOL0     H46572   1.334   7.184  11.774  1.2150  2.8419  2.0504
  345MOL0     H46573   1.711   7.298  11.928 -2.2346  0.2135  1.7742
  345MOL0     H46574   1.385   6.642  11.421 -0.9964  3.0836  0.3541
  345MOL0     H46575   1.366   6.504  11.236  0.4123  1.5401  0.4094
  346MOL0     O46576   0.691   7.547   5.505  0.1782  0.4691  0.7123
  346MOL0     C46577   0.750   7.644   5.464 -0.3169  0.0427 -0.0978
  346MOL0     O46578   0.699   7.743   5.389  0.3817 -0.4606  0.2220
  346MOL0     C46579   0.567   7.730   5.347 -0.3682 -0.3559  0.2424
  346MOL0     C46580   0.456   7.737   5.431 -0.4148  0.5769  0.6165
  346MOL0     C46581   0.325   7.707   5.368 -0.8368  0.0955 -1.1467
  346MOL0     C46582   0.318   7.680   5.229  0.6342  0.3295 -0.0810
  346MOL0     O46583   0.205   7.644   5.157  1.1504 -0.0238 -0.2064
  346MOL0     C46584   0.075   7.661   5.226 -0.4682  0.8811  0.3512
  346MOL0     C46585  -0.044   7.642   5.132  0.1085 -0.8456  0.2903
  346MOL0     C46586  -0.161   7.738   5.164 -0.3798 -0.2685  0.7010
  346MOL0     C46587  -0.254   7.685   5.266  0.4516  0.3675 -0.0710
  346MOL0     C46588  -0.386   7.773   5.286 -0.2615  0.3661 -0.4534
  346MOL0     C46589  -0.483   7.708   5.385 -0.5551 -0.0529  0.4575
  346MOL0     C46590  -0.575   7.813   5.457  0.1834  0.0006 -0.8674
  346MOL0     C46591  -0.643   7.732   5.577  0.2200  0.6492  0.2527
  346MOL0     N46592  -0.722   7.833   5.646  0.2319  0.1824 -0.1510
  346MOL0     C46593  -0.686   7.949   5.715 -0.4745 -0.0898  0.5177
  346MOL0     C46594  -0.803   8.016   5.723 -0.3427 -0.4035  0.2786
  346MOL0     C46595  -0.818   8.150   5.787 -0.6611 -1.1069  0.6523
  346MOL0     C46596  -0.828   8.153   5.946  0.4365  0.0323  0.7861
  346MOL0     C46597  -0.961   8.089   6.009  0.7669  0.6730  0.6410
  346MOL0     C46598  -1.088   8.187   5.984  0.8467 -0.0499  0.2353
  346MOL0     O46599  -1.122   8.188   5.838 -0.1262 -0.5469  0.0725
  346MOL0     C46600  -1.249   8.231   5.800 -0.0633  0.0551 -0.4005
  346MOL0     C46601  -1.288   8.236   5.663  0.9711 -0.1651 -0.0033
  346MOL0     C46602  -1.412   8.273   5.617  0.5957  0.1383 -0.8432
  346MOL0     C46603  -1.454   8.248   5.473  0.6924 -0.4284  0.6366
  346MOL0     C46604  -1.502   8.330   5.714  1.1929  0.5826 -0.6939
  346MOL0     C46605  -1.649   8.374   5.685  0.0190  0.2285 -0.3014
  346MOL0     O46606  -1.713   8.448   5.783 -0.6191 -0.0870  0.0548
  346MOL0     C46607  -1.851   8.448   5.782  0.2468  0.3468 -0.8405
  346MOL0     C46608  -1.919   8.338   5.823 -0.4774  0.2151 -0.7048
  346MOL0     C46609  -2.060   8.332   5.818 -0.8115 -0.1400 -0.3113
  346MOL0     C46610  -2.138   8.449   5.792 -0.1414 -0.4552  0.4121
  346MOL0     O46611  -2.269   8.463   5.787  1.1113 -0.3120 -0.2108
  346MOL0     C46612  -2.348   8.345   5.815 -0.4303 -0.7203 -0.0810
  346MOL0     C46613  -2.490   8.378   5.780  0.6208  1.1250  0.3344
  346MOL0     C46614  -2.561   8.265   5.707  0.1411  0.8743 -1.4935
  346MOL0     C46615  -2.715   8.300   5.709  0.3516 -0.8435  0.5375
  346MOL0     C46616  -2.808   8.190   5.660  0.0936 -0.3649  1.1876
  346MOL0     C46617  -2.812   8.197   5.501  0.6842 -0.0028  0.2204
  346MOL0     C46618  -2.944   8.133   5.449  0.2500 -0.7285  0.4222
  346MOL0     C46619  -3.018   8.222   5.351 -0.8476  0.6609 -0.5181
  346MOL0    Cl46620  -2.927   8.224   5.199 -0.2938  0.2162 -0.5084
  346MOL0     C46621  -2.060   8.565   5.764  0.4959  0.8428 -0.0329
  346MOL0     C46622  -1.919   8.570   5.755  0.1737  0.0140 -0.1980
  346MOL0     O46623  -1.693   8.352   5.572  0.1785 -0.1456  0.3815
  346MOL0     C46624  -1.453   8.345   5.844  0.4199 -1.7581 -0.1675
  346MOL0     C46625  -1.337   8.294   5.892 -0.5393 -0.3069  1.0408
  346MOL0     N46626  -0.909   7.938   5.675  0.0200  0.4936 -0.0741
  346MOL0     N46627  -0.858   7.828   5.645 -0.5214  0.7401  0.3548
  346MOL0     C46628   0.434   7.662   5.154 -0.2897  0.0735  0.0213
  346MOL0     C46629   0.555   7.692   5.210 -0.4364  0.2196  0.2202
  346MOL0     C46630   0.886   7.666   5.504  0.5783  0.0614  0.6119
  346MOL0     C46631   0.938   7.601   5.611  0.1678 -0.0325 -0.3074
  346MOL0     C46632   1.068   7.627   5.651 -0.8971 -0.8368  0.4465
  346MOL0     C46633   1.146   7.728   5.591  0.1336 -0.2155  0.4893
  346MOL0     O46634   1.263   7.777   5.642  0.1434 -0.1118 -0.1928
  346MOL0     C46635   1.310   7.732   5.766 -0.4348  0.1488 -1.0227
  346MOL0     C46636   1.412   7.838   5.815  0.0479 -0.9723 -0.3317
  346MOL0     C46637   1.541   7.825   5.731 -1.1435  0.4187  1.1687
  346MOL0     C46638   1.643   7.900   5.805 -0.4675  0.2008 -0.7565
  346MOL0     C46639   1.779   7.877   5.745  0.2954 -0.5838 -0.9846
  346MOL0     C46640   1.899   7.856   5.721 -0.1209  0.1174  0.6763
  346MOL0     C46641   1.093   7.792   5.479  0.6473  0.4612 -0.7803
  346MOL0     C46642   0.970   7.759   5.432 -0.8054  0.8679  0.4372
  346MOL0     H46643   0.471   7.767   5.534 -0.7835  0.1625  0.7979
  346MOL0     H46644   0.233   7.712   5.427  0.5199 -0.1084  1.1152
  346MOL0     H46645   0.071   7.586   5.306 -0.7205  0.7013  0.1712
  346MOL0     H46646   0.075   7.761   5.271 -0.6020  0.4108  1.4422
  346MOL0     H46647  -0.009   7.648   5.029 -0.1960  2.3159  0.2720
  346MOL0     H46648  -0.078   7.539   5.142  1.5917 -1.1998  2.3718
  346MOL0     H46649  -0.124   7.840   5.178 -2.6599  1.0883 -1.9307
  346MOL0     H46650  -0.213   7.741   5.068 -2.2724 -2.6060  1.5585
  346MOL0     H46651  -0.284   7.586   5.231 -1.4129  2.2435 -4.4711
  346MOL0     H46652  -0.202   7.686   5.362  0.6489  0.1693 -0.1765
  346MOL0     H46653  -0.356   7.871   5.324  0.1741  0.1296 -0.1772
  346MOL0     H46654  -0.422   7.793   5.185 -0.2599 -0.3102 -0.5885
  346MOL0     H46655  -0.537   7.621   5.345  2.0128 -2.0965  1.1755
  346MOL0     H46656  -0.426   7.667   5.469 -1.5355  0.6313  1.4906
  346MOL0     H46657  -0.510   7.892   5.496  1.8007 -1.8483  0.4226
  346MOL0     H46658  -0.644   7.853   5.383 -0.5696  1.7860  0.7137
  346MOL0     H46659  -0.571   7.677   5.639 -0.4796  1.3270  1.7228
  346MOL0     H46660  -0.714   7.659   5.539 -0.2727  1.0463  0.4014
  346MOL0     H46661  -0.588   7.968   5.756 -0.1216 -1.6309  0.4490
  346MOL0     H46662  -0.727   8.207   5.766 -1.3557 -0.4893 -0.8381
  346MOL0     H46663  -0.891   8.205   5.726 -1.2701 -2.9134 -0.3098
  346MOL0     H46664  -0.825   8.257   5.979 -1.9756 -0.1221  1.6874
  346MOL0     H46665  -0.735   8.107   5.981  2.8568  2.9327 -1.3195
  346MOL0     H46666  -0.943   8.075   6.116 -1.4237 -1.2076  0.8527
  346MOL0     H46667  -0.984   7.994   5.960  1.4125  1.0874 -0.5147
  346MOL0     H46668  -1.074   8.290   6.016  0.6815  0.3439 -0.8944
  346MOL0     H46669  -1.171   8.151   6.046  0.5965  0.0432 -0.0395
  346MOL0     H46670  -1.226   8.196   5.584 -1.2503 -0.4442 -1.7019
  346MOL0     H46671  -1.533   8.173   5.462  1.4522 -1.0745 -0.7666
  346MOL0     H46672  -1.491   8.337   5.423  2.7277  0.4224  0.5568
  346MOL0     H46673  -1.367   8.214   5.416  1.0752  3.1994 -1.2145
  346MOL0     H46674  -1.859   8.251   5.847 -2.1034 -1.7359 -3.2079
  346MOL0     H46675  -2.110   8.235   5.818 -0.5026 -0.3098  0.9082
  346MOL0     H46676  -2.315   8.260   5.754 -2.6638  0.1202 -2.6610
  346MOL0     H46677  -2.337   8.321   5.921  0.2036 -2.3520 -0.4859
  346MOL0     H46678  -2.553   8.391   5.869 -2.5961 -1.0537 -1.4221
  346MOL0     H46679  -2.492   8.468   5.718 -1.4799  0.0512 -1.2895
  346MOL0     H46680  -2.535   8.177   5.765 -0.4156  0.4056 -1.9407
  346MOL0     H46681  -2.516   8.254   5.607 -0.3747 -0.9433 -1.5506
  346MOL0     H46682  -2.755   8.334   5.805  1.2573 -0.4108  0.7649
  346MOL0     H46683  -2.725   8.386   5.643 -2.1184 -0.3441  1.4572
  346MOL0     H46684  -2.906   8.207   5.706  0.1250  0.0604  1.1032
  346MOL0     H46685  -2.771   8.094   5.697  3.9761  0.7426  0.6135
  346MOL0     H46686  -2.801   8.300   5.466  1.4098 -0.0085  0.4278
  346MOL0     H46687  -2.726   8.147   5.456  0.4467 -0.3663  0.1699
  346MOL0     H46688  -2.998   8.096   5.536  0.4456 -1.7489  0.1203
  346MOL0     H46689  -2.903   8.044   5.402  2.6570  0.4549  0.0989
  346MOL0     H46690  -3.040   8.325   5.380 -0.4894  0.6079 -0.0396
  346MOL0     H46691  -3.107   8.165   5.325 -1.3568  0.9573  0.5143
  346MOL0     H46692  -2.122   8.647   5.729 -2.8081 -1.7878 -0.9438
  346MOL0     H46693  -1.853   8.652   5.730  0.5163 -0.5793 -1.3021
  346MOL0     H46694  -1.509   8.397   5.921  0.2298  0.5454 -1.7737
  346MOL0     H46695  -1.314   8.322   5.994  1.1180  0.5213  0.4667
  346MOL0     H46696   0.434   7.616   5.055 -3.2070 -0.2910  0.1029
  346MOL0     H46697   0.645   7.674   5.151 -1.0919 -3.4244  0.0980
  346MOL0     H46698   0.876   7.521   5.650 -1.4526  1.0436 -0.5680
  346MOL0     H46699   1.106   7.584   5.743  2.6596  0.3420 -0.3228
  346MOL0     H46700   1.229   7.718   5.839 -0.5338 -1.3327 -1.4026
  346MOL0     H46701   1.359   7.635   5.759 -2.2188 -0.9678  0.6429
  346MOL0     H46702   1.429   7.831   5.923 -0.1062  0.2623 -0.2204
  346MOL0     H46703   1.360   7.932   5.800 -2.5757 -1.8699  2.1840
  346MOL0     H46704   1.534   7.872   5.632  0.6206  1.4641  1.4908
  346MOL0     H46705   1.572   7.720   5.721  1.4773  1.2090 -0.1607
  346MOL0     H46706   1.657   7.863   5.907  2.8663  1.5881 -0.5855
  346MOL0     H46707   1.632   8.009   5.804 -1.6660  0.0883 -1.4896
  346MOL0     H46708   2.005   7.841   5.711 -0.3529 -2.2685  1.2269
  346MOL0     H46709   1.146   7.870   5.425 -0.5588 -0.0932 -2.8675
  346MOL0     H46710   0.928   7.802   5.342 -0.4225  0.0888 -0.1265
  347MOL0     O46711   4.590   9.500  10.635 -0.3322 -0.0403  0.4095
  347MOL0     C46712   4.605   9.613  10.587 -0.8319 -0.3727 -1.0629
  347MOL0     O46713   4.718   9.671  10.540  0.9969 -0.4687 -0.3753
  347MOL0     C46714   4.847   9.626  10.554 -0.6954  0.2002  0.0684
  347MOL0     C46715   4.942   9.705  10.497  0.3983 -0.9108  0.3407
  347MOL0     C46716   5.073   9.670  10.487  0.1954  1.0011 -0.3204
  347MOL0     C46717   5.126   9.555  10.557 -0.3171  0.4770  0.2387
  347MOL0     O46718   5.260   9.549  10.590  0.3708 -0.1313  0.6761
  347MOL0     C46719   5.323   9.435  10.642 -0.0063  0.9793  0.7527
  347MOL0     C46720   5.467   9.432  10.588  0.4874 -0.2392  1.3429
  347MOL0     C46721   5.547   9.561  10.599  0.7301 -0.1311  0.9059
  347MOL0     C46722   5.691   9.531  10.571 -0.4178  0.6005 -0.2179
  347MOL0     C46723   5.763   9.665  10.554 -0.3624  0.6337  0.7104
  347MOL0     C46724   5.913   9.636  10.530  0.4479  0.4826  0.1297
  347MOL0     C46725   5.982   9.735  10.448  0.5903  0.4661  1.2593
  347MOL0     C46726   6.131   9.692  10.414 -0.1002 -1.1894 -0.2365
  347MOL0     N46727   6.227   9.710  10.524  0.5980 -0.9454 -0.6403
  347MOL0     C46728   6.230   9.828  10.593 -0.7821  0.6056  0.0555
  347MOL0     C46729   6.337   9.818  10.689 -1.2482  0.3770  0.4804
  347MOL0     C46730   6.393   9.924  10.784 -1.0323  0.3871  0.7581
  347MOL0     C46731   6.479   9.881  10.903  0.2686 -0.5226  0.5820
  347MOL0     C46732   6.399   9.820  11.016 -0.1578  0.1092 -0.7065
  347MOL0     C46733   6.360   9.922  11.129 -1.1253  0.7959 -0.0562
  347MOL0     O46734   6.267  10.025  11.092  0.0052  0.1550  0.1084
  347MOL0     C46735   6.148  10.000  11.047 -0.4156  0.1711  0.7397
  347MOL0     C46736   6.087  10.111  10.980  0.2032 -0.0419  0.3408
  347MOL0     C46737   5.952  10.114  10.933  1.1823 -0.2732 -0.1941
  347MOL0     C46738   5.880  10.230  10.872  0.3603  0.3838  0.5419
  347MOL0     C46739   5.877   9.994  10.946 -0.1522  0.0647  0.0966
  347MOL0     C46740   5.740   9.992  10.879 -0.2975  0.3933 -0.5678
  347MOL0     O46741   5.742   9.977  10.747  0.2592  0.2847  0.1867
  347MOL0     C46742   5.623   9.991  10.676  0.5047 -0.7822 -0.0922
  347MOL0     C46743   5.635  10.063  10.562 -0.2167 -0.5555  0.8374
  347MOL0     C46744   5.540  10.060  10.470  0.4916 -0.2889  0.7681
  347MOL0     C46745   5.427   9.977  10.476  0.7901  0.4914  0.0989
  347MOL0     O46746   5.336   9.949  10.369 -0.2844  0.1159 -0.2102
  347MOL0     C46747   5.293  10.058  10.290  0.5195  1.0582 -0.4019
  347MOL0     C46748   5.137  10.104  10.297 -0.6286  0.5493  0.2103
  347MOL0     C46749   5.040  10.006  10.239  0.6038 -0.0703  0.0066
  347MOL0     C46750   4.891  10.061  10.233 -0.8899 -0.2340 -0.6091
  347MOL0     C46751   4.783   9.960  10.203 -0.0136 -0.8354 -0.2665
  347MOL0     C46752   4.804   9.882  10.074  0.1972 -0.2302 -0.3552
  347MOL0     C46753   4.802   9.961   9.938  0.5829 -0.0524 -0.2163
  347MOL0     C46754   4.664   9.994   9.890 -0.0790 -0.8059  0.2643
  347MOL0    Cl46755   4.698  10.080   9.733 -0.3402  0.7271 -0.3233
  347MOL0     C46756   5.411   9.907  10.600 -0.4522 -0.3947 -0.0388
  347MOL0     C46757   5.519   9.918  10.701 -0.3691  0.8266 -0.0438
  347MOL0     O46758   5.641  10.012  10.952 -0.0582 -0.5142 -0.5155
  347MOL0     C46759   5.941   9.884  11.015  0.3750 -0.0204  0.1357
  347MOL0     C46760   6.070   9.883  11.060  0.0517 -0.2247  0.5308
  347MOL0     N46761   6.392   9.689  10.671 -1.0049 -1.2368 -0.6185
  347MOL0     N46762   6.326   9.630  10.579 -0.2009 -0.5502  0.0129
  347MOL0     C46763   5.029   9.481  10.628  0.5462  0.6385  0.5669
  347MOL0     C46764   4.891   9.507  10.616 -0.3736  0.9773  0.2802
  347MOL0     C46765   4.478   9.677  10.554  0.6624 -0.6342  0.0309
  347MOL0     C46766   4.486   9.797  10.486  0.1206  0.3503  0.9611
  347MOL0     C46767   4.368   9.855  10.440 -0.3686 -0.5164 -0.0438
  347MOL0     C46768   4.240   9.794  10.458 -0.9878 -0.1773  0.7221
  347MOL0     O46769   4.121   9.849  10.427 -0.2642 -0.3428  0.2556
  347MOL0     C46770   4.110   9.958  10.337 -0.5509  0.0878 -0.3608
  347MOL0     C46771   3.964   9.967  10.272  1.0040  0.1211  0.6640
  347MOL0     C46772   3.943   9.855  10.168 -0.2376  0.0660  0.1328
  347MOL0     C46773   3.803   9.854  10.111  0.1606  0.3064  0.1304
  347MOL0     C46774   3.694   9.857  10.209  0.0262  0.1550  1.0827
  347MOL0     C46775   3.590   9.857  10.277 -0.2777  0.5209 -0.5594
  347MOL0     C46776   4.238   9.681  10.537  1.4006 -0.1930 -0.4607
  347MOL0     C46777   4.356   9.622  10.584 -0.2551  0.0101 -0.3220
  347MOL0     H46778   4.908   9.790  10.438 -0.2720 -1.7798 -0.5731
  347MOL0     H46779   5.138   9.723  10.418 -0.2180  0.5491 -1.0697
  347MOL0     H46780   5.329   9.447  10.751  3.1643 -1.5903  1.0218
  347MOL0     H46781   5.276   9.339  10.619 -0.1006  0.6287  2.2631
  347MOL0     H46782   5.517   9.355  10.647  0.1571 -0.3131  1.5264
  347MOL0     H46783   5.457   9.403  10.483 -0.5182 -2.2171  1.9501
  347MOL0     H46784   5.504   9.633  10.529 -0.1413  0.3919  1.9568
  347MOL0     H46785   5.541   9.595  10.703 -0.7203 -0.9662  1.1288
  347MOL0     H46786   5.733   9.473  10.654 -0.2821  1.0889  0.0594
  347MOL0     H46787   5.697   9.473  10.478  0.3354  2.2808 -1.2793
  347MOL0     H46788   5.722   9.713  10.464 -0.0493  0.2326  0.3568
  347MOL0     H46789   5.749   9.726  10.644  0.6860  1.1049  0.5656
  347MOL0     H46790   5.965   9.634  10.627  3.8921 -0.1382 -1.5686
  347MOL0     H46791   5.927   9.536  10.488  0.7458  0.4977  0.1889
  347MOL0     H46792   5.928   9.736  10.353  0.8143  0.2203  1.1270
  347MOL0     H46793   5.978   9.836  10.490 -0.4437  0.9537  0.0734
  347MOL0     H46794   6.154   9.764  10.334 -4.7156 -0.8814 -1.6000
  347MOL0     H46795   6.147   9.588  10.384 -1.4988 -1.1771 -1.1256
  347MOL0     H46796   6.181   9.924  10.576 -1.5871  0.1121 -0.4678
  347MOL0     H46797   6.461   9.993  10.734  0.7160 -0.7412  1.4470
  347MOL0     H46798   6.310   9.989  10.812 -0.9471  0.9391 -0.2279
  347MOL0     H46799   6.542   9.965  10.936  4.5818 -2.1234 -2.7529
  347MOL0     H46800   6.559   9.810  10.883  2.1287  1.2790  1.1798
  347MOL0     H46801   6.455   9.733  11.053 -0.9725  0.4330  1.4127
  347MOL0     H46802   6.307   9.778  10.975  0.3986 -1.9566  0.0459
  347MOL0     H46803   6.459   9.954  11.163  0.4716 -4.9981  1.8318
  347MOL0     H46804   6.325   9.869  11.218  0.9003 -0.9035 -0.2002
  347MOL0     H46805   6.145  10.203  10.977 -0.9920  0.7177 -1.8053
  347MOL0     H46806   5.776  10.234  10.904 -0.4594 -0.6057 -1.7247
  347MOL0     H46807   5.933  10.325  10.884  0.9117  0.2661 -0.7183
  347MOL0     H46808   5.878  10.203  10.766  3.2260  2.1057 -0.0777
  347MOL0     H46809   5.728  10.116  10.546 -0.8070 -0.2322 -2.0679
  347MOL0     H46810   5.557  10.110  10.375 -1.0403 -2.7840 -0.9581
  347MOL0     H46811   5.369  10.136  10.294  0.6729  1.0384 -2.2951
  347MOL0     H46812   5.296  10.007  10.193 -0.3468 -1.7173  0.9099
  347MOL0     H46813   5.116  10.127  10.402 -0.9846  1.5966 -0.0733
  347MOL0     H46814   5.120  10.196  10.240 -1.4691 -0.5472 -1.3521
  347MOL0     H46815   5.048   9.922  10.309 -0.6637 -1.0743 -1.0154
  347MOL0     H46816   5.075   9.965  10.144 -1.4731 -1.1334 -0.3542
  347MOL0     H46817   4.888  10.116  10.328  1.7524  0.1920 -0.7064
  347MOL0     H46818   4.878  10.133  10.151 -0.3021 -0.1305 -0.6171
  347MOL0     H46819   4.694  10.021  10.184  1.2712  1.5358  0.8861
  347MOL0     H46820   4.769   9.904  10.296 -1.1000 -0.7218 -0.3453
  347MOL0     H46821   4.898   9.826  10.083 -1.0658 -2.5291 -0.5933
  347MOL0     H46822   4.725   9.806  10.074 -0.5502  0.3561  3.0760
  347MOL0     H46823   4.849   9.896   9.864  1.0319 -1.8733  1.5752
  347MOL0     H46824   4.861  10.051   9.952  1.9948 -1.1664  1.4021
  347MOL0     H46825   4.623  10.061   9.965  0.8248 -0.8394  0.7950
  347MOL0     H46826   4.602   9.904   9.883 -0.2453 -0.7996  1.5689
  347MOL0     H46827   5.317   9.853  10.614 -1.1568  0.8605  0.2141
  347MOL0     H46828   5.507   9.848  10.784  2.6184  0.3236  0.0711
  347MOL0     H46829   5.890   9.789  11.029 -0.7549  0.8469  2.5374
  347MOL0     H46830   6.114   9.797  11.109 -1.1029 -0.6094  0.9377
  347MOL0     H46831   5.066   9.402  10.692  0.2981 -0.6287 -0.7985
  347MOL0     H46832   4.819   9.440  10.661 -1.6236 -0.4130 -3.3722
  347MOL0     H46833   4.580   9.847  10.463  1.7175  0.8346  6.9141
  347MOL0     H46834   4.376   9.952  10.393  0.1379 -0.0785  0.9378
  347MOL0     H46835   4.137  10.054  10.383 -2.5966  1.2869 -1.5275
  347MOL0     H46836   4.170   9.934  10.249  1.1605 -0.0030  0.7821
  347MOL0     H46837   3.948  10.061  10.218  1.5778 -0.0498  0.1924
  347MOL0     H46838   3.891   9.959  10.353 -1.1250 -3.0460 -1.3274
  347MOL0     H46839   3.975   9.758  10.208 -1.4794 -0.6417 -0.5264
  347MOL0     H46840   4.013   9.862  10.084 -1.4782 -0.6305 -0.9776
  347MOL0     H46841   3.796   9.759  10.058  0.2050  1.0995 -1.3701
  347MOL0     H46842   3.778   9.935  10.041  1.6429  2.8239  2.3277
  347MOL0     H46843   3.506   9.868  10.342 -0.0848 -0.4536 -0.1165
  347MOL0     H46844   4.145   9.633  10.566  2.3285 -1.8399 -0.0640
  347MOL0     H46845   4.355   9.528  10.638  3.0785  0.4866  0.8096
  348MOL0     O46846   3.560  10.758   7.766  0.1244 -0.4066 -1.0629
  348MOL0     C46847   3.670  10.711   7.777 -1.1453  0.2126 -1.0149
  348MOL0     O46848   3.705  10.613   7.873  0.2899 -0.1260 -0.7064
  348MOL0     C46849   3.593  10.562   7.937  0.0869  1.0358 -0.0741
  348MOL0     C46850   3.528  10.441   7.897 -0.2990 -0.2356  0.4149
  348MOL0     C46851   3.411  10.402   7.964  0.8473  0.8577  0.4510
  348MOL0     C46852   3.369  10.484   8.074  0.2379  0.5656 -0.0396
  348MOL0     O46853   3.270  10.449   8.170  0.0996 -0.2539  0.0924
  348MOL0     C46854   3.187  10.335   8.138  0.0328  0.1369 -0.1278
  348MOL0     C46855   3.078  10.317   8.247  0.0031  0.5272  0.2892
  348MOL0     C46856   2.998  10.441   8.268  0.0602 -1.1182 -0.2442
  348MOL0     C46857   2.890  10.423   8.374 -0.3156 -0.0851 -0.2411
  348MOL0     C46858   2.806  10.552   8.376  0.3851  0.2133  0.0198
  348MOL0     C46859   2.668  10.531   8.429  0.7978 -0.1289  0.1121
  348MOL0     C46860   2.587  10.669   8.441  0.6002  0.3937  1.4411
  348MOL0     C46861   2.515  10.717   8.315 -0.1845  0.4182  1.1244
  348MOL0     N46862   2.378  10.676   8.314  0.1826  1.0497  0.2815
  348MOL0     C46863   2.305  10.603   8.217 -0.1075  0.6589 -0.2022
  348MOL0     C46864   2.175  10.647   8.236  0.2866  0.0003  0.4690
  348MOL0     C46865   2.057  10.618   8.138  0.4405 -0.5621 -0.0435
  348MOL0     C46866   1.933  10.720   8.154  0.3228  0.5084  0.6993
  348MOL0     C46867   1.806  10.684   8.066 -0.1570 -0.6595  0.1274
  348MOL0     C46868   1.812  10.755   7.925 -0.4225  0.0773 -0.4950
  348MOL0     O46869   1.684  10.755   7.860 -0.3721 -0.4474  0.7394
  348MOL0     C46870   1.681  10.818   7.733 -0.0580  0.9710 -0.0900
  348MOL0     C46871   1.773  10.911   7.679 -0.5054  0.7038  0.5900
  348MOL0     C46872   1.751  10.962   7.544 -0.4965 -0.1473  0.3473
  348MOL0     C46873   1.861  11.048   7.490  0.5358  0.6586  0.2707
  348MOL0     C46874   1.629  10.932   7.479 -0.3691 -1.4211  0.4173
  348MOL0     C46875   1.595  10.967   7.337 -0.1786  0.3150 -0.6342
  348MOL0     O46876   1.486  10.902   7.292  0.0549 -0.4572 -0.3025
  348MOL0     C46877   1.429  10.958   7.183 -0.4497 -0.1188  0.2736
  348MOL0     C46878   1.448  10.892   7.054 -0.0595 -1.2094  0.1629
  348MOL0     C46879   1.393  10.948   6.937  0.6377  0.3304 -0.6808
  348MOL0     C46880   1.329  11.074   6.944 -0.3221  0.2671 -0.0427
  348MOL0     O46881   1.270  11.127   6.830 -0.0121 -0.0112 -0.1025
  348MOL0     C46882   1.139  11.182   6.841  0.0355  0.4038 -0.2109
  348MOL0     C46883   1.050  11.132   6.728 -0.5183  0.2060  0.5828
  348MOL0     C46884   0.939  11.235   6.716 -0.3331  0.4617  0.3837
  348MOL0     C46885   0.834  11.218   6.825  0.4038 -0.2232  0.0662
  348MOL0     C46886   0.711  11.300   6.779 -0.0096  0.2368  0.0808
  348MOL0     C46887   0.592  11.298   6.881  0.0071  0.3578 -0.5537
  348MOL0     C46888   0.603  11.383   7.006 -0.3248  0.0922  0.1971
  348MOL0     C46889   0.487  11.348   7.103  0.1083  0.1687  0.0065
  348MOL0    Cl46890   0.503  11.434   7.261  0.2069 -0.3871  0.0240
  348MOL0     C46891   1.317  11.142   7.064 -1.3198 -0.0743  0.8318
  348MOL0     C46892   1.355  11.081   7.186 -0.3432  0.1428  0.6342
  348MOL0     O46893   1.671  11.036   7.272 -0.1743 -0.1324 -0.3415
  348MOL0     C46894   1.537  10.847   7.540 -0.0899 -0.4496  0.1059
  348MOL0     C46895   1.557  10.792   7.662 -0.8685  0.5996 -0.2639
  348MOL0     N46896   2.171  10.739   8.337 -0.6459  0.1645 -0.1939
  348MOL0     N46897   2.290  10.756   8.382 -0.0985 -0.1683 -0.0666
  348MOL0     C46898   3.441  10.592   8.113 -1.2736  0.8190 -0.8932
  348MOL0     C46899   3.555  10.632   8.048 -0.1678 -0.4821  0.7613
  348MOL0     C46900   3.777  10.769   7.700  1.2191  0.5468  0.2910
  348MOL0     C46901   3.912  10.739   7.720  0.2695 -0.7632  1.0016
  348MOL0     C46902   4.012  10.792   7.635 -0.2428 -0.1423 -0.6262
  348MOL0     C46903   3.980  10.870   7.522 -0.2717 -0.6157 -0.7895
  348MOL0     O46904   4.074  10.908   7.422 -0.0218  0.1553  0.3755
  348MOL0     C46905   4.209  10.884   7.453 -0.3457 -0.5599 -0.0149
  348MOL0     C46906   4.289  10.916   7.331  0.5392 -0.6471  0.5919
  348MOL0     C46907   4.433  10.868   7.329 -0.3634  0.6172 -0.3004
  348MOL0     C46908   4.528  10.944   7.421  0.9119  0.7593 -0.5346
  348MOL0     C46909   4.667  10.934   7.378 -0.0789  0.4850 -0.6366
  348MOL0     C46910   4.786  10.950   7.358  0.5477  0.0391  0.6154
  348MOL0     C46911   3.848  10.910   7.513 -0.1242 -1.3187 -0.0189
  348MOL0     C46912   3.745  10.865   7.590 -0.0273  0.7460 -1.1580
  348MOL0     H46913   3.561  10.387   7.809 -0.5083  1.6493 -0.8719
  348MOL0     H46914   3.352  10.315   7.938  1.3556  0.2103  1.4150
  348MOL0     H46915   3.139  10.357   8.042  2.5304  2.1670 -0.9974
  348MOL0     H46916   3.246  10.243   8.133 -2.1089 -1.4881  2.0062
  348MOL0     H46917   3.013  10.234   8.220 -0.2043  0.0770  2.0609
  348MOL0     H46918   3.118  10.286   8.344 -0.1623  0.9565  0.4969
  348MOL0     H46919   3.070  10.511   8.311 -1.5881  0.9819 -0.6980
  348MOL0     H46920   2.951  10.474   8.175 -0.3848 -0.5189  0.1855
  348MOL0     H46921   2.829  10.336   8.346  1.7259 -0.8822 -2.4912
  348MOL0     H46922   2.939  10.398   8.469 -0.4498  0.9331  0.1092
  348MOL0     H46923   2.847  10.627   8.445 -0.5375  1.8577 -1.1481
  348MOL0     H46924   2.787  10.597   8.278 -0.0543 -1.6943 -0.8097
  348MOL0     H46925   2.607  10.466   8.366  0.7439  1.5168 -1.6208
  348MOL0     H46926   2.671  10.479   8.525  2.0928 -0.6681 -0.2041
  348MOL0     H46927   2.525  10.655   8.530 -2.2307 -0.3506 -0.4868
  348MOL0     H46928   2.665  10.744   8.456  0.3267  0.8295  0.7202
  348MOL0     H46929   2.571  10.664   8.237 -0.3720 -0.8111  1.8036
  348MOL0     H46930   2.516  10.825   8.296 -1.5596  0.5520  1.6883
  348MOL0     H46931   2.327  10.532   8.138  1.2417 -0.9564  1.5179
  348MOL0     H46932   2.097  10.626   8.036  1.4634 -0.4715  0.3543
  348MOL0     H46933   2.027  10.516   8.165 -0.9877  0.0655  0.8446
  348MOL0     H46934   1.968  10.822   8.139  2.5922 -0.1073  1.3473
  348MOL0     H46935   1.903  10.706   8.258  0.2348 -2.9672  0.3213
  348MOL0     H46936   1.722  10.725   8.123  0.4380  0.8317 -0.0317
  348MOL0     H46937   1.797  10.575   8.065  1.5456 -0.8226  0.2171
  348MOL0     H46938   1.869  10.685   7.864 -3.8735 -1.1704 -2.5464
  348MOL0     H46939   1.861  10.853   7.928 -1.1955  0.5028 -1.4594
  348MOL0     H46940   1.858  10.941   7.739 -1.5376 -0.2164  2.6454
  348MOL0     H46941   1.822  11.134   7.434  0.0434 -0.9458 -2.0148
  348MOL0     H46942   1.918  11.080   7.577 -0.4247 -4.3993  3.1673
  348MOL0     H46943   1.930  10.989   7.429  3.3023  0.1691  3.5581
  348MOL0     H46944   1.506  10.801   7.039  0.1282 -0.5773 -4.3754
  348MOL0     H46945   1.390  10.887   6.847 -0.8185 -1.6659  0.6133
  348MOL0     H46946   1.090  11.152   6.934 -0.2145  2.0787  0.2139
  348MOL0     H46947   1.130  11.290   6.851 -2.4242  0.4932 -2.2714
  348MOL0     H46948   1.098  11.134   6.630 -0.3687 -1.4491  0.5866
  348MOL0     H46949   1.021  11.028   6.747  1.2724 -0.3666  0.3832
  348MOL0     H46950   0.900  11.219   6.615  0.4388 -3.9118  0.6069
  348MOL0     H46951   0.978  11.337   6.725  1.1949  0.0689 -1.1130
  348MOL0     H46952   0.803  11.114   6.839  0.1802 -0.3382 -1.1769
  348MOL0     H46953   0.865  11.258   6.922 -0.7655 -1.5377  1.0100
  348MOL0     H46954   0.675  11.260   6.684 -2.6433  1.1992  0.6101
  348MOL0     H46955   0.741  11.403   6.761  1.5195  0.0963  1.5289
  348MOL0     H46956   0.497  11.333   6.841 -0.2927  0.0117 -0.1467
  348MOL0     H46957   0.585  11.193   6.910 -1.5491  1.0939  1.9706
  348MOL0     H46958   0.587  11.486   6.972  1.1720  0.7558  1.3636
  348MOL0     H46959   0.705  11.376   7.045  0.6796 -1.4564 -2.4184
  348MOL0     H46960   0.503  11.242   7.125  2.9912  0.3465 -0.8127
  348MOL0     H46961   0.384  11.360   7.067 -0.3616 -1.0769  0.8890
  348MOL0     H46962   1.267  11.239   7.064 -0.3951  0.4285 -0.4028
  348MOL0     H46963   1.346  11.119   7.288  2.1777 -1.7815  1.6681
  348MOL0     H46964   1.441  10.819   7.498 -0.3980  0.8446 -0.0791
  348MOL0     H46965   1.483  10.724   7.704 -0.5695 -0.9432 -2.1347
  348MOL0     H46966   3.410  10.650   8.200  0.1867 -1.9531  1.6690
  348MOL0     H46967   3.617  10.719   8.067 -0.2724  0.0379 -1.0752
  348MOL0     H46968   3.937  10.658   7.788 -1.2937 -0.7008  1.7004
  348MOL0     H46969   4.114  10.759   7.655 -0.0874  1.3076  1.2632
  348MOL0     H46970   4.232  10.953   7.535 -1.6362 -0.2568  0.1198
  348MOL0     H46971   4.228  10.779   7.473  4.8229  0.3266  1.0702
  348MOL0     H46972   4.305  11.024   7.328  0.8428 -0.6608  1.4382
  348MOL0     H46973   4.244  10.878   7.239  1.2604  0.8540 -0.4230
  348MOL0     H46974   4.469  10.875   7.225  0.6182  1.0972  0.0536
  348MOL0     H46975   4.436  10.762   7.358  0.3835  0.6742 -0.1298
  348MOL0     H46976   4.521  10.903   7.522  0.9742 -2.8699 -1.8568
  348MOL0     H46977   4.502  11.050   7.419 -0.0022  0.5399 -0.5176
  348MOL0     H46978   4.891  10.952   7.339  0.6172  0.2107  1.0007
  348MOL0     H46979   3.819  10.971   7.428 -0.9935 -1.9726 -0.2066
  348MOL0     H46980   3.641  10.892   7.578 -0.9277 -1.8441  0.1029
  349MOL0     O46981   4.212   5.077   5.747  0.1493  0.0055  0.0263
  349MOL0     C46982   4.142   5.039   5.844  0.4455  0.1074  0.2540
  349MOL0     O46983   4.163   5.053   5.978 -0.6001  0.0880  0.9268
  349MOL0     C46984   4.285   5.106   6.002 -0.7166 -0.0680 -0.1522
  349MOL0     C46985   4.309   5.245   6.014 -0.4217 -0.2688 -0.0949
  349MOL0     C46986   4.441   5.299   6.044  0.4971 -0.1467  0.5697
  349MOL0     C46987   4.548   5.212   6.069 -0.4118 -0.3580 -0.0810
  349MOL0     O46988   4.671   5.254   6.099 -0.2352  0.2432 -0.1729
  349MOL0     C46989   4.708   5.395   6.082  0.2716 -0.3899 -0.2096
  349MOL0     C46990   4.851   5.414   6.083 -0.6478  0.2629 -0.3864
  349MOL0     C46991   4.877   5.542   6.148 -0.1311  0.0167 -0.1143
  349MOL0     C46992   5.039   5.556   6.134 -0.5783  0.3395 -0.4709
  349MOL0     C46993   5.109   5.685   6.163  0.2752  0.7901 -0.6497
  349MOL0     C46994   5.212   5.683   6.278  0.6918  0.4279  0.4953
  349MOL0     C46995   5.263   5.817   6.292 -0.0697  0.6503 -0.0020
  349MOL0     C46996   5.368   5.844   6.406  0.0220 -0.0412 -0.5847
  349MOL0     N46997   5.466   5.741   6.417 -0.1930 -0.8040  0.7993
  349MOL0     C46998   5.593   5.740   6.355  1.1427 -0.4770  0.2117
  349MOL0     C46999   5.650   5.633   6.421  0.4821  0.5969  0.3541
  349MOL0     C47000   5.798   5.585   6.401  0.1210 -0.4447 -0.0340
  349MOL0     C47001   5.893   5.608   6.526  0.2448 -0.0751 -0.4773
  349MOL0     C47002   6.033   5.600   6.474 -0.7421 -0.5649 -0.4399
  349MOL0     C47003   6.124   5.639   6.582  0.4386  0.3677  0.4074
  349MOL0     O47004   6.256   5.618   6.531  0.5949  0.2851 -0.4227
  349MOL0     C47005   6.354   5.605   6.625 -0.6471 -0.9645  0.9435
  349MOL0     C47006   6.358   5.630   6.769  0.2123 -0.0281 -0.3873
  349MOL0     C47007   6.471   5.607   6.844 -0.2499 -0.0176 -0.2275
  349MOL0     C47008   6.456   5.613   6.990 -0.4076  0.3278 -0.6567
  349MOL0     C47009   6.592   5.564   6.787  0.1696  0.1803  0.4991
  349MOL0     C47010   6.725   5.549   6.861  0.0863  0.1624  0.2770
  349MOL0     O47011   6.746   5.621   6.971  0.2298  0.6890 -0.7785
  349MOL0     C47012   6.865   5.617   7.037 -0.2922 -0.2281 -0.1553
  349MOL0     C47013   6.980   5.672   6.982 -0.2151  0.2066 -0.5118
  349MOL0     C47014   7.103   5.666   7.055 -0.0968 -0.5654 -0.3340
  349MOL0     C47015   7.110   5.596   7.180  0.1836  0.0706  0.0190
  349MOL0     O47016   7.218   5.565   7.257 -0.0451 -0.0530 -0.0106
  349MOL0     C47017   7.347   5.604   7.200  0.1190 -0.2054  0.4083
  349MOL0     C47018   7.454   5.574   7.304 -0.9983 -1.2088 -0.1316
  349MOL0     C47019   7.420   5.613   7.441 -0.1832 -0.2217 -0.3479
  349MOL0     C47020   7.502   5.528   7.546 -0.1785 -0.5729 -0.1521
  349MOL0     C47021   7.587   5.607   7.639  0.2058 -0.0072  0.5320
  349MOL0     C47022   7.691   5.688   7.574 -0.3789  0.1683  0.7022
  349MOL0     C47023   7.782   5.748   7.679  0.3828  0.2577  0.5642
  349MOL0     C47024   7.901   5.642   7.717 -0.3447 -0.5865 -0.1995
  349MOL0    Cl47025   7.935   5.515   7.609  0.4594 -0.7496 -0.2675
  349MOL0     C47026   6.992   5.562   7.241  1.1242 -1.0390  0.4841
  349MOL0     C47027   6.869   5.562   7.169 -0.2798  0.2675 -0.4811
  349MOL0     O47028   6.816   5.484   6.808 -0.1330  0.1967 -0.5450
  349MOL0     C47029   6.600   5.535   6.649  0.3667 -0.7192  0.9846
  349MOL0     C47030   6.480   5.550   6.580  0.7798  0.9462  1.4466
  349MOL0     N47031   5.558   5.563   6.492 -0.6609 -0.2305 -0.2043
  349MOL0     N47032   5.446   5.627   6.491  0.2095  0.0552  0.0416
  349MOL0     C47033   4.525   5.079   6.060 -0.5652 -0.3435  0.9187
  349MOL0     C47034   4.403   5.027   6.018  0.6951  0.1140 -0.0677
  349MOL0     C47035   4.003   4.983   5.816  0.0736 -0.6445 -0.4510
  349MOL0     C47036   3.973   4.957   5.688 -0.1468 -0.8237  0.2668
  349MOL0     C47037   3.849   4.895   5.656  0.2446  0.5420  0.1153
  349MOL0     C47038   3.747   4.880   5.749  1.0344  0.3169  0.1897
  349MOL0     O47039   3.626   4.819   5.706  0.1169  0.2715  0.2557
  349MOL0     C47040   3.537   4.769   5.816 -0.8625  0.0179  0.8741
  349MOL0     C47041   3.416   4.706   5.752  0.4626  0.5666  0.0267
  349MOL0     C47042   3.318   4.806   5.687 -0.3076 -0.0573 -0.5484
  349MOL0     C47043   3.218   4.742   5.582 -0.5050  0.9486 -0.0538
  349MOL0     C47044   3.143   4.849   5.521  0.9867 -0.3617  0.3851
  349MOL0     C47045   3.079   4.946   5.479  0.8474  0.4993  0.0710
  349MOL0     C47046   3.775   4.939   5.874 -0.1229  0.2123 -0.4934
  349MOL0     C47047   3.900   4.990   5.908  0.7572 -1.5192  0.3392
  349MOL0     H47048   4.232   5.318   5.991  0.9050  1.2727  0.1658
  349MOL0     H47049   4.457   5.407   6.048  0.7220 -0.2018  1.3277
  349MOL0     H47050   4.680   5.441   5.987 -0.4648 -1.3260 -0.4628
  349MOL0     H47051   4.655   5.458   6.155 -1.4114  2.1573 -3.3585
  349MOL0     H47052   4.898   5.338   6.147  1.7793  3.1241  1.5353
  349MOL0     H47053   4.893   5.416   5.982 -2.7206 -0.7069 -1.3280
  349MOL0     H47054   4.830   5.623   6.092 -2.4819 -2.2146 -1.5760
  349MOL0     H47055   4.842   5.540   6.252 -2.4490  1.2769 -0.7910
  349MOL0     H47056   5.081   5.470   6.188  2.1704 -0.7898 -3.9897
  349MOL0     H47057   5.079   5.533   6.035  1.2902  1.9217 -0.1449
  349MOL0     H47058   5.161   5.731   6.079 -0.9805  0.6838 -1.5233
  349MOL0     H47059   5.029   5.750   6.199 -1.8507 -1.4181 -1.0449
  349MOL0     H47060   5.163   5.646   6.369 -0.6722 -0.7410 -0.6736
  349MOL0     H47061   5.299   5.623   6.248 -0.5295 -1.1905  0.0542
  349MOL0     H47062   5.303   5.850   6.196 -2.4411 -0.4804 -1.4749
  349MOL0     H47063   5.173   5.873   6.318 -2.3557 -2.3839 -0.8127
  349MOL0     H47064   5.310   5.852   6.498 -1.6941  1.9563 -1.7342
  349MOL0     H47065   5.411   5.945   6.398 -2.6136  1.1793 -0.3874
  349MOL0     H47066   5.644   5.802   6.283  2.5936  0.8146  2.2273
  349MOL0     H47067   5.801   5.480   6.369  1.1646 -0.3172 -0.3913
  349MOL0     H47068   5.830   5.648   6.318 -0.1336  0.1499  0.3184
  349MOL0     H47069   5.874   5.531   6.601  0.0296  0.3706 -0.0750
  349MOL0     H47070   5.872   5.705   6.571  0.9715 -1.0047  2.0283
  349MOL0     H47071   6.036   5.663   6.385 -3.1394  2.8928  1.6994
  349MOL0     H47072   6.050   5.494   6.451  1.2688 -0.3709  0.0015
  349MOL0     H47073   6.106   5.579   6.672  2.8206 -1.6086 -0.3342
  349MOL0     H47074   6.111   5.747   6.600  1.5513  0.8428 -1.4400
  349MOL0     H47075   6.265   5.654   6.818 -0.4911  0.1880 -1.7848
  349MOL0     H47076   6.474   5.513   7.031 -0.4294  1.0123  1.0730
  349MOL0     H47077   6.533   5.673   7.039  0.9072 -1.5946 -0.2278
  349MOL0     H47078   6.353   5.636   7.019 -0.2194 -0.2754  0.5314
  349MOL0     H47079   6.980   5.717   6.883 -0.6408  1.1339 -0.1023
  349MOL0     H47080   7.200   5.698   7.018  2.2563 -1.6395  4.1043
  349MOL0     H47081   7.356   5.532   7.119  1.8986  0.6084 -0.1646
  349MOL0     H47082   7.350   5.704   7.156 -0.5368  0.4263  1.7393
  349MOL0     H47083   7.477   5.467   7.310  0.0685 -0.9601  0.5767
  349MOL0     H47084   7.544   5.632   7.282 -1.6674  0.3251  1.0150
  349MOL0     H47085   7.310   5.608   7.448 -0.7350  1.7827 -4.5030
  349MOL0     H47086   7.444   5.720   7.449  0.6578 -0.3007 -1.7012
  349MOL0     H47087   7.429   5.463   7.596 -2.5339  0.3168 -2.2380
  349MOL0     H47088   7.568   5.458   7.493 -2.9823 -3.8664  0.3223
  349MOL0     H47089   7.619   5.539   7.718 -0.2180 -0.5587  0.2351
  349MOL0     H47090   7.520   5.672   7.696 -1.8043 -1.7610  0.3047
  349MOL0     H47091   7.742   5.625   7.501  0.7851  1.8617  0.0081
  349MOL0     H47092   7.654   5.776   7.521  3.2529  0.3691 -1.8344
  349MOL0     H47093   7.734   5.786   7.770  1.7432  0.9399  1.0179
  349MOL0     H47094   7.825   5.836   7.630 -2.7561  0.4693 -2.1779
  349MOL0     H47095   7.870   5.576   7.799 -0.9383 -1.7001 -1.2964
  349MOL0     H47096   7.994   5.692   7.747 -0.2446 -1.2680  0.6665
  349MOL0     H47097   6.975   5.518   7.338 -1.2197 -0.1082  0.5689
  349MOL0     H47098   6.786   5.508   7.213  2.3057 -2.0948  1.9086
  349MOL0     H47099   6.690   5.510   6.594 -0.9669 -1.9884 -0.7507
  349MOL0     H47100   6.484   5.530   6.474 -2.1813 -0.8967  1.5774
  349MOL0     H47101   4.604   5.008   6.084 -1.4352 -1.8868 -0.5231
  349MOL0     H47102   4.394   4.920   6.002 -0.1354  0.4208 -1.7921
  349MOL0     H47103   4.048   4.963   5.610 -1.0747  0.0312 -0.5986
  349MOL0     H47104   3.835   4.861   5.554  1.6393  2.2926 -0.7149
  349MOL0     H47105   3.583   4.690   5.876 -0.0741  0.6910  1.1745
  349MOL0     H47106   3.518   4.849   5.888 -1.4640 -0.5801  1.4016
  349MOL0     H47107   3.368   4.662   5.840  0.7565  3.0278  1.5153
  349MOL0     H47108   3.451   4.632   5.680 -1.1741  0.1820 -0.4154
  349MOL0     H47109   3.380   4.874   5.628  2.2455  0.2584  2.2716
  349MOL0     H47110   3.264   4.860   5.765 -1.0758  2.2372 -2.5339
  349MOL0     H47111   3.142   4.679   5.629  0.9279 -1.8536 -1.2960
  349MOL0     H47112   3.279   4.686   5.512  1.6223  2.4391  0.5077
  349MOL0     H47113   3.016   5.015   5.427  1.0165  0.3637 -0.3212
  349MOL0     H47114   3.702   4.949   5.953  3.2590 -2.3231  3.3285
  349MOL0     H47115   3.925   5.031   6.005  0.0782  2.2437 -0.9341
  350MOL0     O47116   3.710   7.119   5.431 -0.4621 -0.5152  0.9371
  350MOL0     C47117   3.750   7.199   5.348 -0.0697 -0.6612  1.6299
  350MOL0     O47118   3.703   7.217   5.223  0.1823  0.0827  0.0188
  350MOL0     C47119   3.602   7.137   5.188  0.1149 -0.1144 -0.8307
  350MOL0     C47120   3.610   7.004   5.167 -0.1500 -0.8635  0.1110
  350MOL0     C47121   3.504   6.922   5.137  0.6028  0.5896  0.1929
  350MOL0     C47122   3.379   6.976   5.113  0.2162  0.4203  0.2048
  350MOL0     O47123   3.276   6.891   5.081 -0.0312 -0.6901 -0.0171
  350MOL0     C47124   3.140   6.947   5.119  0.1046 -0.3138  0.1090
  350MOL0     C47125   3.030   6.849   5.103  0.4733 -0.6646 -1.7312
  350MOL0     C47126   3.007   6.797   4.964  0.3081  0.8497  0.5340
  350MOL0     C47127   2.956   6.893   4.848  0.4774 -0.1021  0.0532
  350MOL0     C47128   2.972   6.834   4.704  0.3614 -1.1442  0.2415
  350MOL0     C47129   2.900   6.697   4.698 -0.4074  1.1007 -0.7642
  350MOL0     C47130   2.873   6.656   4.554  1.2213  0.6080  0.5992
  350MOL0     C47131   2.744   6.711   4.493 -0.3644 -1.1972  0.2159
  350MOL0     N47132   2.708   6.656   4.359 -0.2444  0.8354 -0.7165
  350MOL0     C47133   2.630   6.551   4.342  0.1457  0.2413  1.3076
  350MOL0     C47134   2.620   6.540   4.209 -0.1600  0.6483  0.4889
  350MOL0     C47135   2.537   6.434   4.128  0.2566 -0.5561  0.0137
  350MOL0     C47136   2.380   6.461   4.146 -0.1728  0.2339  0.1024
  350MOL0     C47137   2.312   6.382   4.023  0.3154  0.0305 -0.4161
  350MOL0     C47138   2.161   6.412   4.014 -0.3673  0.2274 -0.1747
  350MOL0     O47139   2.109   6.337   4.117  0.2412  0.3946 -1.1704
  350MOL0     C47140   2.012   6.388   4.197  0.5391  0.3148 -0.2382
  350MOL0     C47141   2.015   6.368   4.334 -0.0389 -0.0036 -1.0269
  350MOL0     C47142   1.926   6.421   4.428  0.0133  0.5387 -0.0448
  350MOL0     C47143   1.947   6.384   4.574  0.2462 -0.5935  0.0494
  350MOL0     C47144   1.822   6.507   4.385 -0.9302  0.2270 -0.4956
  350MOL0     C47145   1.716   6.572   4.469 -0.1770 -0.0098 -0.0050
  350MOL0     O47146   1.634   6.672   4.417 -0.0187  0.2497  0.1638
  350MOL0     C47147   1.545   6.744   4.495 -0.0084  0.9416 -0.2422
  350MOL0     C47148   1.411   6.737   4.482  0.0734  0.5557  0.2027
  350MOL0     C47149   1.322   6.803   4.561  0.3433  0.1962  0.1194
  350MOL0     C47150   1.366   6.896   4.653  0.4244 -0.3088  0.4730
  350MOL0     O47151   1.279   6.962   4.731  0.9429 -0.9747  0.3674
  350MOL0     C47152   1.323   7.091   4.778  0.0862  0.6259  0.3912
  350MOL0     C47153   1.205   7.168   4.847 -0.6518  0.2496  1.2000
  350MOL0     C47154   1.155   7.106   4.974 -0.1892 -0.0219  0.6485
  350MOL0     C47155   1.038   7.011   4.947  0.4278 -0.5564  0.3612
  350MOL0     C47156   0.962   6.989   5.078  0.4991 -0.4761  0.6689
  350MOL0     C47157   0.847   6.891   5.048 -0.2002  0.9195 -0.1390
  350MOL0     C47158   0.767   6.862   5.179  0.0650 -0.4064 -0.1517
  350MOL0     C47159   0.666   6.740   5.166 -0.4133  0.1024 -0.5393
  350MOL0    Cl47160   0.748   6.594   5.126  0.4348  0.3910 -0.4287
  350MOL0     C47161   1.504   6.917   4.655 -0.6246 -0.0577  0.1387
  350MOL0     C47162   1.592   6.843   4.583 -0.8114  0.0609  0.6721
  350MOL0     O47163   1.704   6.534   4.583  0.6267  0.5715  0.5258
  350MOL0     C47164   1.826   6.533   4.247 -0.6401  0.0402  0.4067
  350MOL0     C47165   1.913   6.473   4.155 -0.0145 -0.1731 -0.1162
  350MOL0     N47166   2.689   6.639   4.154  0.1964 -0.3897 -0.0405
  350MOL0     N47167   2.748   6.703   4.247 -0.6322 -0.4694 -0.1552
  350MOL0     C47168   3.372   7.119   5.118  0.4202  0.2810 -0.3955
  350MOL0     C47169   3.480   7.190   5.158 -1.0091 -1.5349 -0.3477
  350MOL0     C47170   3.855   7.297   5.386  0.4873 -0.9152  0.3248
  350MOL0     C47171   3.914   7.311   5.513  0.9652  0.3277 -0.4686
  350MOL0     C47172   4.024   7.392   5.540 -0.3832  0.5730  1.0457
  350MOL0     C47173   4.079   7.463   5.429 -0.4391  0.2617  0.0175
  350MOL0     O47174   4.187   7.546   5.450  0.5109  0.4081 -0.2129
  350MOL0     C47175   4.178   7.636   5.558  0.8130  0.4837 -0.6455
  350MOL0     C47176   4.246   7.765   5.520 -0.4322 -1.2242  0.7131
  350MOL0     C47177   4.398   7.765   5.511 -0.1973  0.6517 -0.1915
  350MOL0     C47178   4.456   7.874   5.414 -0.8955 -0.4567 -0.5101
  350MOL0     C47179   4.592   7.906   5.449 -0.5588  0.4674 -0.2575
  350MOL0     C47180   4.709   7.940   5.474 -0.1528  0.2872  0.5241
  350MOL0     C47181   4.022   7.451   5.303  0.5146 -0.2006 -0.1143
  350MOL0     C47182   3.915   7.366   5.280  0.1219 -0.3871 -0.2771
  350MOL0     H47183   3.704   6.951   5.181  1.3800  0.9870 -2.2585
  350MOL0     H47184   3.540   6.820   5.121 -1.3624 -0.1980  0.5647
  350MOL0     H47185   3.162   6.969   5.224 -1.9927  2.5976  0.0506
  350MOL0     H47186   3.121   7.039   5.064  0.5494 -0.7619 -0.8142
  350MOL0     H47187   3.049   6.763   5.168 -1.9062 -1.0880 -1.5388
  350MOL0     H47188   2.935   6.891   5.136  0.3418 -1.7508 -0.6755
  350MOL0     H47189   3.112   6.772   4.947  0.0342  0.2146 -0.2885
  350MOL0     H47190   2.954   6.701   4.963  2.1012 -0.1820  0.7908
  350MOL0     H47191   2.850   6.913   4.863  0.4108 -0.6424  0.3361
  350MOL0     H47192   3.019   6.982   4.855 -0.1310  0.2379  5.7168
  350MOL0     H47193   2.934   6.912   4.638 -0.4628  2.2230  4.2657
  350MOL0     H47194   3.078   6.811   4.685 -0.4808 -2.5515 -3.5953
  350MOL0     H47195   2.975   6.629   4.739  0.2917  1.0276 -2.1179
  350MOL0     H47196   2.808   6.692   4.757  0.3273 -1.5503  0.2709
  350MOL0     H47197   2.958   6.685   4.493  1.9251 -0.4033  1.0678
  350MOL0     H47198   2.876   6.547   4.546  3.1557  0.7327 -1.0635
  350MOL0     H47199   2.749   6.820   4.490 -2.2564 -1.0703  0.7622
  350MOL0     H47200   2.665   6.684   4.563 -0.4860  0.6515  0.8374
  350MOL0     H47201   2.589   6.482   4.415 -0.3516 -0.7640  0.1027
  350MOL0     H47202   2.556   6.452   4.022  0.9079 -0.5713  0.1255
  350MOL0     H47203   2.558   6.331   4.158 -0.7371 -0.3686  1.4766
  350MOL0     H47204   2.365   6.569   4.140  1.3506  0.4526 -0.0060
  350MOL0     H47205   2.339   6.434   4.244  1.8738  1.8996  1.5137
  350MOL0     H47206   2.321   6.277   4.052 -0.0159  1.1442  4.5003
  350MOL0     H47207   2.367   6.405   3.931  1.2370 -0.1854  0.0677
  350MOL0     H47208   2.123   6.376   3.918  1.1519  4.1584 -2.4524
  350MOL0     H47209   2.134   6.518   4.020  1.5484  0.8192 -1.2274
  350MOL0     H47210   2.088   6.300   4.376 -2.8042 -1.0892  2.4787
  350MOL0     H47211   1.866   6.318   4.608 -0.7017  0.3495 -0.3538
  350MOL0     H47212   2.037   6.324   4.594 -0.2206 -2.3865 -2.6805
  350MOL0     H47213   1.953   6.474   4.636 -1.7616 -0.5402  0.2101
  350MOL0     H47214   1.368   6.674   4.405  0.2112  3.6043 -2.6005
  350MOL0     H47215   1.214   6.789   4.553 -0.2723  4.0289 -0.0960
  350MOL0     H47216   1.406   7.083   4.849 -0.8593 -0.5487  1.3971
  350MOL0     H47217   1.358   7.144   4.688  2.6323 -2.1449 -0.4316
  350MOL0     H47218   1.240   7.271   4.857  1.1284  0.0909 -2.0941
  350MOL0     H47219   1.124   7.177   4.774  1.6437 -0.9571 -1.7036
  350MOL0     H47220   1.113   7.172   5.051 -1.1151 -0.5465  0.6094
  350MOL0     H47221   1.239   7.051   5.017  0.1433 -0.8990 -1.0462
  350MOL0     H47222   0.968   7.063   4.881  1.0224  0.2017  0.3147
  350MOL0     H47223   1.067   6.910   4.916  1.2574 -1.1760  2.8781
  350MOL0     H47224   0.915   7.080   5.117 -2.5416 -1.9702  0.7559
  350MOL0     H47225   1.032   6.950   5.151 -1.5187 -1.4665  2.1727
  350MOL0     H47226   0.784   6.941   4.974  1.9862  3.7944 -0.2361
  350MOL0     H47227   0.876   6.793   5.008  1.1704 -0.0757  2.9741
  350MOL0     H47228   0.721   6.957   5.207  2.8566  0.8884  0.4328
  350MOL0     H47229   0.842   6.839   5.255  1.5034  3.2412 -0.2753
  350MOL0     H47230   0.591   6.764   5.089  1.3067 -0.2814 -2.4194
  350MOL0     H47231   0.606   6.726   5.256  0.1950 -0.6110 -0.2390
  350MOL0     H47232   1.555   6.986   4.722 -1.2579 -0.5487  1.1542
  350MOL0     H47233   1.701   6.844   4.578 -0.7044 -3.0421  0.1896
  350MOL0     H47234   1.746   6.591   4.204 -1.8182 -0.2888  2.0709
  350MOL0     H47235   1.902   6.505   4.052 -0.5619  1.5171  0.4325
  350MOL0     H47236   3.273   7.162   5.103  0.4872  0.1238 -1.3655
  350MOL0     H47237   3.464   7.296   5.174 -1.3768 -1.9290  2.5065
  350MOL0     H47238   3.884   7.249   5.598 -2.3525  1.0842 -0.9567
  350MOL0     H47239   4.072   7.383   5.637  0.7612  0.1363  0.4522
  350MOL0     H47240   4.077   7.658   5.594  1.7399  1.5493  1.4272
  350MOL0     H47241   4.229   7.591   5.644  1.0062  1.2084 -0.3759
  350MOL0     H47242   4.228   7.844   5.594  1.8265 -0.1293  0.1704
  350MOL0     H47243   4.211   7.789   5.419  0.2768  0.4851  0.8335
  350MOL0     H47244   4.432   7.669   5.471 -1.1938  0.9093 -1.7386
  350MOL0     H47245   4.427   7.772   5.616  0.5252  0.0945 -0.3533
  350MOL0     H47246   4.399   7.967   5.419 -0.9471 -0.5256  2.6383
  350MOL0     H47247   4.458   7.817   5.321 -0.0695  1.0909 -1.4781
  350MOL0     H47248   4.809   7.970   5.498 -0.8415  0.7764  3.1528
  350MOL0     H47249   4.059   7.516   5.224  4.0218 -0.3543  1.2138
  350MOL0     H47250   3.886   7.348   5.177 -2.3462 -3.2693  0.7781
  351MOL0     O47251   2.642   0.771  10.050 -0.1012  1.4283  0.4888
  351MOL0     C47252   2.623   0.807  10.161 -0.6597 -1.0603 -0.1341
  351MOL0     O47253   2.691   0.905  10.218  0.1266 -0.3455 -0.0564
  351MOL0     C47254   2.789   0.971  10.143 -1.3324 -0.3937  0.1198
  351MOL0     C47255   2.760   1.088  10.063 -0.1254  0.1947  0.4886
  351MOL0     C47256   2.845   1.141   9.972  0.2580 -0.1557  0.3491
  351MOL0     C47257   2.971   1.078   9.959 -0.3214 -0.1922 -0.9346
  351MOL0     O47258   3.057   1.116   9.866  0.1323 -0.2189  0.9593
  351MOL0     C47259   3.045   1.251   9.811 -0.6865  0.2932  0.8538
  351MOL0     C47260   3.177   1.284   9.741  0.9751  1.1544 -0.2340
  351MOL0     C47261   3.289   1.310   9.848 -0.3167 -0.9094 -0.0355
  351MOL0     C47262   3.374   1.187   9.894 -0.3521 -0.5884  1.1113
  351MOL0     C47263   3.496   1.228   9.971  0.3140 -0.1054  0.3781
  351MOL0     C47264   3.470   1.349  10.072  0.7134  0.5401  0.5974
  351MOL0     C47265   3.595   1.361  10.155  0.2983  0.4811  0.4032
  351MOL0     C47266   3.606   1.474  10.256  1.1273  0.6346 -0.8546
  351MOL0     N47267   3.500   1.458  10.354  0.1848 -0.2244 -0.0392
  351MOL0     C47268   3.508   1.406  10.479 -0.6421 -0.7319  0.8953
  351MOL0     C47269   3.393   1.428  10.542 -0.7958  0.0283  0.2512
  351MOL0     C47270   3.366   1.392  10.685 -0.3060  0.3218 -0.4806
  351MOL0     C47271   3.301   1.518  10.743 -0.3153  0.4671 -0.5051
  351MOL0     C47272   3.221   1.488  10.869  0.3287  0.0898 -0.8014
  351MOL0     C47273   3.083   1.422  10.851  0.9644  0.0081 -0.3824
  351MOL0     O47274   2.992   1.442  10.965 -0.1347 -0.5161  0.1008
  351MOL0     C47275   2.855   1.407  10.955  0.5865  0.1902 -0.1192
  351MOL0     C47276   2.765   1.444  11.055  0.5095  1.0860 -0.5550
  351MOL0     C47277   2.625   1.421  11.033  0.4788 -0.0951  0.5448
  351MOL0     C47278   2.539   1.470  11.153 -0.0369  0.1546  0.6206
  351MOL0     C47279   2.573   1.355  10.925  0.5968  0.3422 -0.0919
  351MOL0     C47280   2.433   1.309  10.913 -0.3582 -0.6699 -0.0443
  351MOL0     O47281   2.423   1.203  10.827 -0.3518  1.0936  0.3104
  351MOL0     C47282   2.308   1.137  10.818 -0.3941 -0.3854 -0.4204
  351MOL0     C47283   2.282   1.080  10.688  0.0363 -0.6301  0.8646
  351MOL0     C47284   2.162   1.010  10.666  0.2652  0.2438 -0.0366
  351MOL0     C47285   2.071   0.998  10.768 -0.2647  0.5025  0.6570
  351MOL0     O47286   1.952   0.930  10.755  0.0168  0.5889 -0.2690
  351MOL0     C47287   1.826   1.003  10.789 -0.7634 -0.2052 -0.7935
  351MOL0     C47288   1.726   0.900  10.852  0.2175 -1.0672  0.5281
  351MOL0     C47289   1.600   0.951  10.909  0.5172 -0.1670 -0.1927
  351MOL0     C47290   1.642   1.048  11.023 -0.2123  0.3446 -0.3374
  351MOL0     C47291   1.522   1.094  11.112  0.4830 -0.6640 -0.2173
  351MOL0     C47292   1.418   1.177  11.036  0.0334 -0.1805  0.1707
  351MOL0     C47293   1.287   1.201  11.113 -0.1027  0.0644  0.4991
  351MOL0     C47294   1.233   1.334  11.064  0.1091 -0.5220  0.1741
  351MOL0    Cl47295   1.156   1.304  10.910 -0.4308  0.7284  0.1732
  351MOL0     C47296   2.101   1.047  10.900  0.8814 -0.0964  0.3450
  351MOL0     C47297   2.210   1.124  10.919  0.1840 -0.5576  0.2210
  351MOL0     O47298   2.350   1.364  10.981 -0.1569 -0.2108  0.4633
  351MOL0     C47299   2.666   1.317  10.825 -1.2686 -0.4306  0.7489
  351MOL0     C47300   2.801   1.348  10.837 -0.8824 -0.6652 -0.1501
  351MOL0     N47301   3.305   1.484  10.448 -0.4030 -0.2212 -0.0808
  351MOL0     N47302   3.370   1.484  10.337 -0.8489 -0.0233  0.3763
  351MOL0     C47303   3.005   0.963  10.028  0.2673  0.8173  0.2387
  351MOL0     C47304   2.916   0.905  10.124 -0.5284 -0.3921  0.8723
  351MOL0     C47305   2.522   0.736  10.240 -0.3757  0.0142  1.2056
  351MOL0     C47306   2.478   0.786  10.361 -0.0335 -1.0474 -0.5194
  351MOL0     C47307   2.368   0.733  10.442 -0.3485 -0.1882 -0.5300
  351MOL0     C47308   2.306   0.616  10.400 -2.0513 -0.3159 -0.0542
  351MOL0     O47309   2.212   0.550  10.470  0.3445  0.3311 -0.1420
  351MOL0     C47310   2.188   0.602  10.603 -0.9645 -0.5569  0.4447
  351MOL0     C47311   2.075   0.530  10.663 -0.0960  0.2933 -0.4858
  351MOL0     C47312   2.044   0.573  10.798  0.2391  0.6061 -0.3363
  351MOL0     C47313   1.962   0.473  10.881  0.3234 -0.3214 -0.2027
  351MOL0     C47314   1.818   0.503  10.858  0.2184 -0.5128  0.5683
  351MOL0     C47315   1.699   0.533  10.847 -0.3800  0.1296  0.3362
  351MOL0     C47316   2.366   0.557  10.290 -0.0066 -0.3064 -0.2346
  351MOL0     C47317   2.460   0.619  10.194 -0.1010  0.4734 -1.2259
  351MOL0     H47318   2.665   1.137  10.079 -2.1644 -2.9457 -0.9312
  351MOL0     H47319   2.809   1.231   9.925 -2.4412 -1.9793 -1.3713
  351MOL0     H47320   2.960   1.262   9.742 -2.5982  1.6008  3.2657
  351MOL0     H47321   3.041   1.330   9.886  0.7596  0.1650  1.0899
  351MOL0     H47322   3.201   1.191   9.689 -0.8627 -0.6397  1.8798
  351MOL0     H47323   3.172   1.376   9.683  0.1599  1.9009  0.9719
  351MOL0     H47324   3.359   1.390   9.822 -0.5808 -0.6424  0.0722
  351MOL0     H47325   3.234   1.355   9.930 -3.9240  0.0525 -2.7291
  351MOL0     H47326   3.323   1.111   9.954  1.5381 -1.8158  1.2522
  351MOL0     H47327   3.395   1.137   9.799 -1.7176  1.0041 -0.0856
  351MOL0     H47328   3.526   1.140  10.028  2.5051  0.6902  0.5441
  351MOL0     H47329   3.580   1.258   9.908 -0.8192  2.4655 -0.0591
  351MOL0     H47330   3.433   1.436  10.017  1.3956 -0.4773 -1.5624
  351MOL0     H47331   3.386   1.319  10.135 -3.1874  1.5003 -3.6107
  351MOL0     H47332   3.612   1.271  10.214  0.5453  1.8526  2.5611
  351MOL0     H47333   3.682   1.364  10.090  0.4829  0.2115  0.6395
  351MOL0     H47334   3.605   1.571  10.204 -0.2863  1.2544  0.2575
  351MOL0     H47335   3.702   1.471  10.308 -0.2232  1.9079  1.9249
  351MOL0     H47336   3.593   1.347  10.512 -0.5007 -1.9437 -1.4347
  351MOL0     H47337   3.294   1.310  10.680 -0.0341  0.1830 -3.0798
  351MOL0     H47338   3.448   1.368  10.754 -1.4242  0.0675  0.8156
  351MOL0     H47339   3.233   1.565  10.673 -1.5355 -1.6370 -0.8157
  351MOL0     H47340   3.381   1.587  10.771  0.1318 -0.5892  0.9784
  351MOL0     H47341   3.204   1.577  10.931 -0.1678 -1.7495  1.8986
  351MOL0     H47342   3.284   1.435  10.941  1.1679  2.7912  0.6216
  351MOL0     H47343   3.105   1.317  10.834 -0.0424 -0.5075  1.2646
  351MOL0     H47344   3.036   1.460  10.759 -1.4086 -2.0381 -0.1302
  351MOL0     H47345   2.799   1.492  11.146 -0.3007 -2.0883  1.5850
  351MOL0     H47346   2.592   1.536  11.223 -1.6014 -0.2704  2.2987
  351MOL0     H47347   2.449   1.529  11.130  0.3949  1.5679  2.2751
  351MOL0     H47348   2.515   1.380  11.211  2.4155  0.2723  1.9401
  351MOL0     H47349   2.347   1.097  10.604  0.4960 -0.8953  1.1643
  351MOL0     H47350   2.138   0.970  10.568  3.6375 -0.1861 -0.8011
  351MOL0     H47351   1.846   1.084  10.859  1.3725  0.2813 -1.8809
  351MOL0     H47352   1.777   1.022  10.693 -1.2264 -1.8034 -0.9182
  351MOL0     H47353   1.696   0.834  10.771 -2.7120  0.9415 -0.1931
  351MOL0     H47354   1.772   0.852  10.939  0.6966 -0.3987  0.6502
  351MOL0     H47355   1.550   0.869  10.962  3.8551 -2.2110  0.0857
  351MOL0     H47356   1.534   0.991  10.832  2.8716 -0.0960 -2.3177
  351MOL0     H47357   1.710   0.997  11.092 -0.3179  1.5166  0.6607
  351MOL0     H47358   1.692   1.137  10.983  1.8366 -1.1794 -1.3670
  351MOL0     H47359   1.557   1.142  11.204 -1.0708  0.2842 -0.0879
  351MOL0     H47360   1.473   1.002  11.145 -0.5932  0.6667  2.1974
  351MOL0     H47361   1.462   1.271  11.001 -2.2776  0.0609 -2.4264
  351MOL0     H47362   1.392   1.120  10.946  4.2320 -3.2019  0.5768
  351MOL0     H47363   1.310   1.224  11.217  0.0325  0.7476  0.3198
  351MOL0     H47364   1.213   1.122  11.096  0.2456  0.2287 -2.2473
  351MOL0     H47365   1.307   1.414  11.064 -1.9947  1.5493 -0.6951
  351MOL0     H47366   1.148   1.365  11.126  0.6208  1.8126 -0.2058
  351MOL0     H47367   2.042   1.021  10.987 -0.5377  0.8232 -0.3199
  351MOL0     H47368   2.217   1.180  11.011  0.0448 -0.0849 -0.0488
  351MOL0     H47369   2.629   1.258  10.742  0.0002  0.9340 -0.8460
  351MOL0     H47370   2.869   1.310  10.761 -0.2046  0.6801 -0.2541
  351MOL0     H47371   3.111   0.937  10.020  0.3985  0.2938  2.7980
  351MOL0     H47372   2.941   0.818  10.184  0.5443 -0.3044  0.5692
  351MOL0     H47373   2.506   0.888  10.386 -2.9887  0.6462 -3.2612
  351MOL0     H47374   2.347   0.796  10.528  0.3386 -0.0573 -0.4503
  351MOL0     H47375   2.276   0.592  10.667 -1.3113  2.7413  1.6159
  351MOL0     H47376   2.172   0.710  10.610  2.9387  0.1081  1.1118
  351MOL0     H47377   2.101   0.424  10.661  2.6599  0.8749  0.1384
  351MOL0     H47378   1.986   0.534  10.600  0.1339 -0.6716 -0.8808
  351MOL0     H47379   1.997   0.672  10.800 -0.3313  0.3489  2.0096
  351MOL0     H47380   2.141   0.593  10.846  1.1278  1.9126 -2.5182
  351MOL0     H47381   1.974   0.497  10.987 -0.2288  1.6540 -0.5408
  351MOL0     H47382   1.977   0.368  10.854  1.6345 -0.2462  0.1816
  351MOL0     H47383   1.612   0.586  10.816 -0.3998 -0.1556 -0.1091
  351MOL0     H47384   2.321   0.470  10.244 -1.6062  0.3942 -0.0599
  351MOL0     H47385   2.472   0.578  10.094 -0.6313 -0.2130 -1.0194
  352MOL0     O47386   8.848   5.179   5.113 -0.5970  0.1645 -0.0658
  352MOL0     C47387   8.811   5.200   5.231 -0.4236  1.0003 -0.1572
  352MOL0     O47388   8.880   5.160   5.345  0.1418 -0.2394 -0.9172
  352MOL0     C47389   9.005   5.095   5.340  0.5451  0.2068  0.3013
  352MOL0     C47390   9.104   5.148   5.264  0.9453 -0.6653  0.5538
  352MOL0     C47391   9.234   5.105   5.273 -0.6540  0.9906 -1.0306
  352MOL0     C47392   9.270   4.985   5.334 -0.1935 -0.3635  0.5380
  352MOL0     O47393   9.396   4.936   5.341 -0.2817 -0.1407 -0.4353
  352MOL0     C47394   9.423   4.819   5.266 -0.1883 -0.4560  0.0972
  352MOL0     C47395   9.575   4.776   5.293 -0.2692 -0.5309 -0.2168
  352MOL0     C47396   9.595   4.727   5.438  0.2632  0.1967  0.2882
  352MOL0     C47397   9.751   4.707   5.451 -0.9208  0.2832  0.3277
  352MOL0     C47398   9.787   4.653   5.589 -0.3860  0.2446  0.7923
  352MOL0     C47399   9.801   4.767   5.686 -0.5883 -0.9478 -0.5038
  352MOL0     C47400   9.842   4.733   5.827  0.1494  0.5599 -0.7365
  352MOL0     C47401   9.722   4.653   5.891 -0.3682  0.6932 -0.2919
  352MOL0     N47402   9.704   4.683   6.030 -0.3384  0.0493 -0.1260
  352MOL0     C47403   9.768   4.612   6.141  0.6482  0.6682 -0.0273
  352MOL0     C47404   9.745   4.686   6.249  0.4725 -0.8049 -0.5977
  352MOL0     C47405   9.791   4.648   6.390  0.7657 -0.5120  0.3142
  352MOL0     C47406   9.862   4.763   6.456 -0.0292 -0.2822  0.5440
  352MOL0     C47407   9.918   4.718   6.590  0.3896 -0.2517 -0.1277
  352MOL0     C47408   9.832   4.654   6.696  0.4795 -0.2322 -0.2720
  352MOL0     O47409   9.753   4.748   6.759  0.4490  0.1090  0.7216
  352MOL0     C47410   9.627   4.704   6.809  0.2250 -0.2249  0.2613
  352MOL0     C47411   9.544   4.806   6.859 -0.2786  0.6367  0.4725
  352MOL0     C47412   9.423   4.780   6.921  0.3598 -0.3041 -0.8317
  352MOL0     C47413   9.358   4.910   6.971  0.5762 -0.0738  0.3401
  352MOL0     C47414   9.376   4.643   6.925 -0.4605 -0.5036 -0.0050
  352MOL0     C47415   9.234   4.608   6.970  0.7854  0.0200 -0.2562
  352MOL0     O47416   9.206   4.482   7.010 -0.7422 -0.1716  0.3439
  352MOL0     C47417   9.079   4.431   7.017  0.0254  0.1419  0.3285
  352MOL0     C47418   9.012   4.440   7.136  0.4244  0.2126  0.1869
  352MOL0     C47419   8.887   4.379   7.160 -1.0714  0.1520  0.9239
  352MOL0     C47420   8.819   4.312   7.049 -0.4311 -0.1516  0.7544
  352MOL0     O47421   8.699   4.266   7.075  0.3210 -0.6102  0.0628
  352MOL0     C47422   8.624   4.216   6.964 -0.3500  0.6998  0.4390
  352MOL0     C47423   8.480   4.202   7.028 -0.5039  1.1514  0.0040
  352MOL0     C47424   8.381   4.161   6.924 -0.0910  0.2375 -0.2038
  352MOL0     C47425   8.270   4.075   6.983  0.7858 -0.4543 -0.1670
  352MOL0     C47426   8.201   3.989   6.881 -0.6517 -0.6987 -0.2279
  352MOL0     C47427   8.075   4.059   6.819 -0.7314  0.8244  0.7694
  352MOL0     C47428   8.003   3.954   6.727  0.1721  0.4183 -0.1300
  352MOL0     C47429   7.869   3.996   6.668 -0.5033  0.0949 -0.6444
  352MOL0    Cl47430   7.752   4.045   6.787 -0.1098  0.4471 -0.4351
  352MOL0     C47431   8.895   4.292   6.931  0.2554  0.1343  0.2587
  352MOL0     C47432   9.024   4.348   6.921  0.7239  0.2185  0.0814
  352MOL0     O47433   9.144   4.696   6.962  0.2504  0.3670 -0.1760
  352MOL0     C47434   9.450   4.543   6.861 -0.5091 -0.0896  0.9668
  352MOL0     C47435   9.578   4.574   6.816  0.0403  0.7225 -0.1426
  352MOL0     N47436   9.663   4.798   6.206 -1.0108  0.8795  0.1824
  352MOL0     N47437   9.644   4.795   6.078  0.0440  1.1454  0.0924
  352MOL0     C47438   9.169   4.924   5.407  0.4014  0.5458 -0.4099
  352MOL0     C47439   9.038   4.975   5.418  0.7270 -0.5055  0.1970
  352MOL0     C47440   8.674   5.255   5.243  0.0128 -0.5138  0.2598
  352MOL0     C47441   8.600   5.263   5.124 -0.6170 -1.2673  1.0447
  352MOL0     C47442   8.477   5.322   5.113 -0.0912 -0.2312 -0.1257
  352MOL0     C47443   8.426   5.370   5.229 -0.0516  0.2525  0.2106
  352MOL0     O47444   8.313   5.454   5.242  0.4209  0.0454  0.0485
  352MOL0     C47445   8.196   5.410   5.162 -0.0538 -0.3097 -0.2616
  352MOL0     C47446   8.068   5.448   5.227 -0.9820  0.3382  0.9224
  352MOL0     C47447   8.066   5.596   5.256  1.1383  0.9824 -0.4240
  352MOL0     C47448   7.920   5.634   5.307  0.4315  0.7142  0.1310
  352MOL0     C47449   7.810   5.624   5.213  0.0505  0.1216  0.0169
  352MOL0     C47450   7.722   5.652   5.136  0.0828 -0.3118 -0.3508
  352MOL0     C47451   8.483   5.346   5.348 -0.5729 -0.0696  0.1071
  352MOL0     C47452   8.609   5.290   5.362 -0.8209  0.9587  0.1483
  352MOL0     H47453   9.073   5.232   5.203  0.1735 -1.0864  0.3458
  352MOL0     H47454   9.314   5.154   5.217  1.6960  1.6834  2.5613
  352MOL0     H47455   9.354   4.738   5.292  0.3740 -0.8996  0.2057
  352MOL0     H47456   9.421   4.854   5.162  4.7008  1.8600  0.5058
  352MOL0     H47457   9.594   4.694   5.223 -1.2400  0.5118 -1.7679
  352MOL0     H47458   9.638   4.863   5.271 -1.1348 -0.3801 -2.3800
  352MOL0     H47459   9.562   4.795   5.517  1.6337 -1.6039  2.5654
  352MOL0     H47460   9.541   4.636   5.466 -1.5698  1.6343  1.6415
  352MOL0     H47461   9.784   4.634   5.377  1.5441 -0.1066  1.6930
  352MOL0     H47462   9.807   4.797   5.426  1.1083  0.1335  3.7157
  352MOL0     H47463   9.710   4.577   5.605 -0.0294 -0.8100 -1.9451
  352MOL0     H47464   9.880   4.596   5.586 -0.6548 -0.1491 -0.6049
  352MOL0     H47465   9.867   4.841   5.639 -0.9173 -1.0470 -1.1273
  352MOL0     H47466   9.708   4.823   5.696  0.5551  0.9488  0.1515
  352MOL0     H47467   9.938   4.685   5.843 -1.0614 -1.1444  2.2765
  352MOL0     H47468   9.861   4.824   5.886  1.2410  0.3646 -0.7809
  352MOL0     H47469   9.723   4.547   5.865  2.1158  1.0715 -2.1201
  352MOL0     H47470   9.633   4.697   5.845  0.8497  2.4436 -1.1061
  352MOL0     H47471   9.828   4.523   6.129  1.4492  1.1331  0.4375
  352MOL0     H47472   9.704   4.612   6.444  1.0639 -1.6679  0.0519
  352MOL0     H47473   9.860   4.565   6.372 -0.5388 -1.1751 -2.1390
  352MOL0     H47474   9.787   4.842   6.469 -2.0135 -2.3901  2.8091
  352MOL0     H47475   9.943   4.801   6.393 -0.6414 -1.1805 -0.8377
  352MOL0     H47476   9.974   4.798   6.639  2.7792 -1.3900 -0.8385
  352MOL0     H47477  10.001   4.655   6.557 -0.5619 -1.6121 -0.0145
  352MOL0     H47478   9.889   4.604   6.775  0.8148  0.3333 -0.1492
  352MOL0     H47479   9.776   4.574   6.646  2.2184 -2.2947  0.9001
  352MOL0     H47480   9.590   4.904   6.857  2.7909 -0.7014 -0.7346
  352MOL0     H47481   9.413   5.001   6.946 -2.4301  2.3615  1.8534
  352MOL0     H47482   9.256   4.926   6.934  0.0643 -0.4360  1.5432
  352MOL0     H47483   9.343   4.922   7.079  3.0117  2.1204  0.5117
  352MOL0     H47484   9.061   4.491   7.219  0.7960  2.0412 -1.0967
  352MOL0     H47485   8.834   4.387   7.254 -0.4661 -3.1463  1.6806
  352MOL0     H47486   8.620   4.287   6.880  1.1576  0.1367 -0.1516
  352MOL0     H47487   8.660   4.118   6.931 -0.4386  0.9275 -0.3701
  352MOL0     H47488   8.491   4.135   7.114 -0.5091 -0.4116 -1.1685
  352MOL0     H47489   8.457   4.300   7.071  1.0891  1.0276  1.2300
  352MOL0     H47490   8.437   4.098   6.853  1.5925  0.1665  1.1132
  352MOL0     H47491   8.354   4.251   6.870  2.4594 -0.1906 -2.4033
  352MOL0     H47492   8.307   4.007   7.060  0.3051 -1.2245 -0.5992
  352MOL0     H47493   8.195   4.145   7.021  0.6249 -1.8981  2.3529
  352MOL0     H47494   8.179   3.900   6.940  2.2916 -0.3065  1.7094
  352MOL0     H47495   8.269   3.954   6.803  0.6439 -0.9063  0.9524
  352MOL0     H47496   8.012   4.083   6.906 -0.5844  0.4318  0.9884
  352MOL0     H47497   8.093   4.148   6.759 -0.8611  0.7024  0.5479
  352MOL0     H47498   7.999   3.861   6.785 -0.4824 -0.2387 -1.1967
  352MOL0     H47499   8.066   3.924   6.643 -2.3635 -2.5368 -1.1947
  352MOL0     H47500   7.836   3.904   6.620 -3.0905 -0.8541  2.5785
  352MOL0     H47501   7.878   4.076   6.593 -0.4641  0.8653  0.1590
  352MOL0     H47502   8.853   4.244   6.843  2.2497  1.0011 -1.2377
  352MOL0     H47503   9.085   4.330   6.833  1.2407  1.1943  0.2272
  352MOL0     H47504   9.416   4.440   6.854  0.8583 -0.4409 -1.9623
  352MOL0     H47505   9.644   4.496   6.779  2.9255  2.5691  0.7318
  352MOL0     H47506   9.181   4.840   5.474  1.1503  1.2509  0.3725
  352MOL0     H47507   8.968   4.938   5.492  2.3202 -1.1264  1.4543
  352MOL0     H47508   8.645   5.233   5.030  2.4269  1.1599  1.5461
  352MOL0     H47509   8.439   5.328   5.011  1.9539  1.0716 -0.8821
  352MOL0     H47510   8.184   5.458   5.065 -2.9054  0.0655  0.2081
  352MOL0     H47511   8.199   5.301   5.147 -1.8680 -0.2880 -1.0220
  352MOL0     H47512   8.050   5.382   5.313  2.6454 -2.4222 -0.1986
  352MOL0     H47513   7.984   5.432   5.159 -0.8896 -3.3120  1.4404
  352MOL0     H47514   8.090   5.661   5.171 -0.0411  0.9536 -0.8052
  352MOL0     H47515   8.137   5.617   5.337  0.5141  4.2404 -0.5807
  352MOL0     H47516   7.936   5.734   5.349 -0.8336  0.2166  1.8826
  352MOL0     H47517   7.892   5.580   5.397 -1.2900  3.6141  1.4884
  352MOL0     H47518   7.657   5.683   5.056 -0.3624  2.9379  1.1291
  352MOL0     H47519   8.453   5.390   5.443  0.7442  1.6152 -0.2137
  352MOL0     H47520   8.640   5.272   5.465  0.7343  6.0835  0.8605
  353MOL0     O47521   0.336   7.820   1.109 -0.0181 -0.3733  0.2171
  353MOL0     C47522   0.238   7.844   1.029 -0.3584  0.0458  0.0052
  353MOL0     O47523   0.249   7.899   0.902 -0.0701  0.4035  0.0628
  353MOL0     C47524   0.373   7.915   0.845 -0.0695  0.2414  0.0010
  353MOL0     C47525   0.425   7.813   0.761  0.3732  0.5577 -0.5353
  353MOL0     C47526   0.553   7.816   0.721 -0.4863 -0.0927  0.8107
  353MOL0     C47527   0.636   7.921   0.750 -0.5499  0.3473 -0.4301
  353MOL0     O47528   0.770   7.900   0.720 -0.6031  0.6019  0.2206
  353MOL0     C47529   0.862   7.944   0.821  1.1768 -0.1907 -0.0402
  353MOL0     C47530   1.007   7.974   0.790  0.7410 -0.5067  0.1597
  353MOL0     C47531   1.016   8.090   0.681  0.5726  0.5175  0.0294
  353MOL0     C47532   1.156   8.144   0.670 -0.2800 -0.0758  0.8265
  353MOL0     C47533   1.151   8.255   0.573 -0.3814  0.0401  0.2633
  353MOL0     C47534   1.273   8.321   0.522  0.8032  0.4969  0.3161
  353MOL0     C47535   1.366   8.224   0.446  0.5860 -0.0111  1.0024
  353MOL0     C47536   1.483   8.313   0.384  0.0350  0.3872  1.4115
  353MOL0     N47537   1.545   8.234   0.281  0.1869 -0.0857 -0.2670
  353MOL0     C47538   1.618   8.122   0.313  0.1849  0.2329 -0.3671
  353MOL0     C47539   1.651   8.081   0.185 -0.1448 -0.4276 -0.0433
  353MOL0     C47540   1.734   7.958   0.134  0.1061  0.2240 -0.8369
  353MOL0     C47541   1.853   8.005   0.054 -0.1680  0.9375  0.1387
  353MOL0     C47542   1.834   8.001  -0.098 -1.1527 -0.2833 -0.1575
  353MOL0     C47543   1.853   7.860  -0.165 -0.3342 -1.4303 -0.1635
  353MOL0     O47544   1.753   7.773  -0.130 -0.3605  0.0354  0.5512
  353MOL0     C47545   1.747   7.660  -0.203  0.3254 -0.1738 -0.2856
  353MOL0     C47546   1.629   7.584  -0.201 -0.0798 -1.2050  0.2783
  353MOL0     C47547   1.615   7.463  -0.273 -0.0473 -0.6807  0.4619
  353MOL0     C47548   1.475   7.408  -0.298  0.1117 -0.3805  0.3711
  353MOL0     C47549   1.736   7.402  -0.326  0.4926  0.0060  0.5249
  353MOL0     C47550   1.737   7.271  -0.370 -0.4656  0.4334 -0.7609
  353MOL0     O47551   1.829   7.240  -0.467  0.4024  0.4092 -0.3547
  353MOL0     C47552   1.886   7.115  -0.477 -0.8741  0.5532 -0.4564
  353MOL0     C47553   2.003   7.113  -0.556 -0.2637 -0.9383 -0.0591
  353MOL0     C47554   2.068   6.993  -0.579 -0.1006 -0.0609  0.2724
  353MOL0     C47555   2.032   6.879  -0.511 -0.2445 -0.1146  0.1996
  353MOL0     O47556   2.105   6.764  -0.529 -0.0258  0.1416 -0.0208
  353MOL0     C47557   2.193   6.732  -0.425 -0.6433 -0.4823  0.0751
  353MOL0     C47558   2.322   6.810  -0.434  0.1561 -0.4629 -0.5658
  353MOL0     C47559   2.437   6.747  -0.497  0.1531 -0.3213 -0.4327
  353MOL0     C47560   2.572   6.816  -0.470 -0.9534  0.1291 -0.4783
  353MOL0     C47561   2.690   6.764  -0.551  0.9080 -0.3751 -0.2829
  353MOL0     C47562   2.805   6.857  -0.573 -1.0090  0.5400 -0.4036
  353MOL0     C47563   2.750   6.973  -0.655  0.0955 -0.4628  0.2577
  353MOL0     C47564   2.845   7.034  -0.760 -0.0056  0.1035  0.2590
  353MOL0    Cl47565   2.988   7.103  -0.676  0.2314 -0.0585 -0.4881
  353MOL0     C47566   1.912   6.878  -0.441  0.2120 -0.1540  0.5007
  353MOL0     C47567   1.840   6.992  -0.433  0.5008 -0.1392 -0.0913
  353MOL0     O47568   1.674   7.194  -0.299  0.1751 -1.0882  0.1225
  353MOL0     C47569   1.857   7.473  -0.317 -0.5217  0.2932  0.3549
  353MOL0     C47570   1.862   7.600  -0.266  0.2403  0.2237 -0.0898
  353MOL0     N47571   1.609   8.173   0.090  0.2621 -0.3545  0.7119
  353MOL0     N47572   1.547   8.266   0.150  0.3528  0.2253  0.2932
  353MOL0     C47573   0.578   8.034   0.811 -1.0261  0.0822 -0.1179
  353MOL0     C47574   0.449   8.032   0.865 -0.2825 -0.0357  0.1602
  353MOL0     C47575   0.113   7.783   1.074 -0.6030 -0.6428  0.1372
  353MOL0     C47576   0.095   7.728   1.194  0.4384  0.2755 -0.0085
  353MOL0     C47577  -0.034   7.672   1.230  0.7238 -0.1541  0.7084
  353MOL0     C47578  -0.145   7.695   1.145 -0.2846 -0.4131 -0.4155
  353MOL0     O47579  -0.278   7.670   1.172  0.4593  0.0727  0.1482
  353MOL0     C47580  -0.324   7.600   1.286  0.0563  0.0998  0.3968
  353MOL0     C47581  -0.333   7.688   1.403  0.0224  0.1749  0.1959
  353MOL0     C47582  -0.383   7.612   1.533 -0.7977  0.5967 -0.5237
  353MOL0     C47583  -0.403   7.702   1.657 -0.5229  0.7695 -0.2952
  353MOL0     C47584  -0.271   7.754   1.697 -0.7050 -0.0946 -0.1341
  353MOL0     C47585  -0.163   7.797   1.726  0.8243  0.0901  0.0251
  353MOL0     C47586  -0.125   7.760   1.023  0.0199 -0.5119  0.9663
  353MOL0     C47587   0.004   7.806   0.995  0.2039  0.6382 -0.3012
  353MOL0     H47588   0.362   7.725   0.747  1.4933 -0.0923 -1.7824
  353MOL0     H47589   0.613   7.738   0.673  0.6690 -0.5686  2.8989
  353MOL0     H47590   0.824   8.046   0.837 -0.9568 -0.5387 -2.3114
  353MOL0     H47591   0.867   7.883   0.912  0.6278  0.4460  0.4312
  353MOL0     H47592   1.065   8.024   0.869  1.0049  0.7056 -0.7772
  353MOL0     H47593   1.057   7.883   0.756  2.6988  0.2035  0.9736
  353MOL0     H47594   0.984   8.051   0.583 -1.8971 -0.1399  1.0031
  353MOL0     H47595   0.943   8.171   0.695 -2.1271 -1.5844 -0.8439
  353MOL0     H47596   1.181   8.181   0.770  3.1528 -3.2093  1.3577
  353MOL0     H47597   1.221   8.059   0.649 -1.2134 -1.6836  3.9315
  353MOL0     H47598   1.096   8.227   0.482 -2.8412  0.0619  1.6375
  353MOL0     H47599   1.085   8.326   0.624 -1.9581 -0.1079 -1.4864
  353MOL0     H47600   1.252   8.402   0.452  0.6340 -0.2763 -0.5373
  353MOL0     H47601   1.316   8.352   0.618  1.0283 -2.2118  1.1623
  353MOL0     H47602   1.409   8.153   0.518  0.5463 -1.3197 -0.2064
  353MOL0     H47603   1.304   8.167   0.376 -0.6500  1.6266  0.6992
  353MOL0     H47604   1.563   8.337   0.455  4.1177  0.1262 -2.6736
  353MOL0     H47605   1.457   8.404   0.328  2.4958  0.0940 -0.3625
  353MOL0     H47606   1.614   8.072   0.409 -1.1332 -0.8954 -0.9735
  353MOL0     H47607   1.773   7.889   0.210  2.0423  0.4214 -1.6046
  353MOL0     H47608   1.670   7.899   0.069  2.6427 -1.6540 -1.7885
  353MOL0     H47609   1.945   7.948   0.075  0.2369  1.4403 -0.2416
  353MOL0     H47610   1.872   8.113   0.057 -0.5290  1.8440 -7.8770
  353MOL0     H47611   1.905   8.069  -0.146 -0.9571 -0.2493  0.1731
  353MOL0     H47612   1.735   8.043  -0.119 -0.0901  1.1304 -2.8870
  353MOL0     H47613   1.950   7.816  -0.142  0.8543  0.4227 -1.3704
  353MOL0     H47614   1.833   7.884  -0.270 -1.5581 -1.2185  0.0999
  353MOL0     H47615   1.543   7.627  -0.151  1.1157 -0.1772  1.5370
  353MOL0     H47616   1.473   7.355  -0.394 -0.5066  2.0888 -1.0487
  353MOL0     H47617   1.457   7.336  -0.218 -2.4721  0.9175  1.0616
  353MOL0     H47618   1.386   7.470  -0.296  0.2053 -0.1549 -1.1012
  353MOL0     H47619   2.033   7.204  -0.608  1.2925 -0.6318  1.2949
  353MOL0     H47620   2.153   6.992  -0.646 -0.7430  1.0380 -0.5768
  353MOL0     H47621   2.149   6.748  -0.326  0.5207 -1.1751  0.7359
  353MOL0     H47622   2.221   6.627  -0.434  0.0915 -0.3291  0.5097
  353MOL0     H47623   2.303   6.909  -0.476  2.6593  0.6491  0.6581
  353MOL0     H47624   2.342   6.836  -0.329 -3.5699 -2.0868  0.7220
  353MOL0     H47625   2.419   6.741  -0.605  1.9492  1.6111 -0.9099
  353MOL0     H47626   2.442   6.642  -0.467 -2.1493 -1.2386 -2.9378
  353MOL0     H47627   2.558   6.924  -0.480 -1.3278  0.1885  0.5537
  353MOL0     H47628   2.605   6.801  -0.367 -0.2058  1.6101 -0.4790
  353MOL0     H47629   2.652   6.722  -0.644 -0.4515  3.8521 -1.8588
  353MOL0     H47630   2.717   6.680  -0.486  1.2997  0.7536  1.0609
  353MOL0     H47631   2.847   6.886  -0.476  2.2206 -1.4260 -1.0434
  353MOL0     H47632   2.879   6.801  -0.632 -0.0533 -0.7137  1.8728
  353MOL0     H47633   2.734   7.055  -0.584 -0.0931  0.0940 -0.4036
  353MOL0     H47634   2.651   6.950  -0.696 -3.3657  2.4325  5.8110
  353MOL0     H47635   2.795   7.115  -0.813 -0.5485 -0.1543  0.3735
  353MOL0     H47636   2.876   6.957  -0.832  0.3040  0.2431  0.2423
  353MOL0     H47637   1.866   6.790  -0.400 -1.1285 -0.0333 -0.6715
  353MOL0     H47638   1.743   6.981  -0.385  0.2146 -1.5870 -0.9387
  353MOL0     H47639   1.944   7.418  -0.351  0.0028  0.8709  0.7433
  353MOL0     H47640   1.960   7.645  -0.268  1.6142 -2.5413  0.0342
  353MOL0     H47641   0.642   8.121   0.822 -0.7874 -0.0978 -0.0786
  353MOL0     H47642   0.402   8.116   0.916 -2.8457  0.3219 -2.5360
  353MOL0     H47643   0.173   7.724   1.270  0.0441  1.7041  0.4981
  353MOL0     H47644  -0.063   7.631   1.326 -1.2192  0.1446  0.2843
  353MOL0     H47645  -0.423   7.557   1.272  0.5170 -1.3715  1.4186
  353MOL0     H47646  -0.242   7.528   1.297  0.5842  0.6070 -0.1458
  353MOL0     H47647  -0.412   7.757   1.372 -2.1264 -3.0459 -2.2478
  353MOL0     H47648  -0.241   7.743   1.422 -0.0523  0.7767 -1.0660
  353MOL0     H47649  -0.311   7.531   1.542  0.3756  1.5364 -1.1775
  353MOL0     H47650  -0.478   7.560   1.517  0.3995 -2.9751  2.4630
  353MOL0     H47651  -0.447   7.640   1.736  0.0351 -1.2821 -1.5113
  353MOL0     H47652  -0.469   7.788   1.646 -2.6710 -0.5662  1.3485
  353MOL0     H47653  -0.068   7.827   1.765  0.0685 -0.6346  2.6156
  353MOL0     H47654  -0.207   7.777   0.955  0.1313  2.4268  1.4302
  353MOL0     H47655   0.010   7.835   0.891 -1.3311  3.0121  0.1993
  354MOL0     O47656   2.555   0.903  10.625  0.2600 -0.3178 -0.4279
  354MOL0     C47657   2.655   0.920  10.693  0.0932 -0.6911 -0.5729
  354MOL0     O47658   2.671   0.886  10.824 -0.0151 -0.3941  0.0029
  354MOL0     C47659   2.590   0.806  10.894  0.4841 -0.1107  0.4128
  354MOL0     C47660   2.449   0.815  10.882 -0.1252  0.2771 -0.1625
  354MOL0     C47661   2.373   0.734  10.975  0.2904 -0.6342 -0.2204
  354MOL0     C47662   2.426   0.658  11.078  0.4676  1.4031  0.3749
  354MOL0     O47663   2.340   0.595  11.169  0.1789 -0.7090 -0.0870
  354MOL0     C47664   2.379   0.553  11.302  0.2340 -0.4232  0.2153
  354MOL0     C47665   2.265   0.578  11.399 -0.7695 -0.0349 -0.2281
  354MOL0     C47666   2.134   0.520  11.335  0.3828 -0.2763 -1.4649
  354MOL0     C47667   2.019   0.532  11.440  0.1692 -0.3305  0.3278
  354MOL0     C47668   1.923   0.649  11.415 -0.0720  0.3572 -0.2335
  354MOL0     C47669   1.854   0.653  11.283  0.8659  0.4204 -0.4513
  354MOL0     C47670   1.740   0.758  11.285  0.3700  0.1054 -0.2210
  354MOL0     C47671   1.612   0.714  11.199  0.4474  0.1341  0.6811
  354MOL0     N47672   1.541   0.605  11.263 -0.0694  0.1385 -1.2177
  354MOL0     C47673   1.455   0.522  11.198  0.0931  0.7290  0.3407
  354MOL0     C47674   1.380   0.462  11.295 -0.2026 -0.0409 -0.3815
  354MOL0     C47675   1.277   0.350  11.286 -0.3686 -0.4025  0.2294
  354MOL0     C47676   1.297   0.257  11.171  0.1165 -0.1425  0.3015
  354MOL0     C47677   1.211   0.296  11.051  0.8745 -0.3201  1.3297
  354MOL0     C47678   1.235   0.202  10.928 -0.5835 -0.2010 -0.1911
  354MOL0     O47679   1.373   0.203  10.904  0.0320 -0.7615 -0.6522
  354MOL0     C47680   1.435   0.194  10.777 -0.6770  0.3065 -0.5028
  354MOL0     C47681   1.374   0.138  10.660  0.0386 -0.5648 -0.3841
  354MOL0     C47682   1.441   0.125  10.541 -0.6058 -0.6585 -0.4367
  354MOL0     C47683   1.369   0.049  10.437  0.2751 -0.1825 -0.0751
  354MOL0     C47684   1.574   0.176  10.532  0.1445  0.2278  0.6375
  354MOL0     C47685   1.659   0.173  10.413 -0.8762  0.1036  0.0436
  354MOL0     O47686   1.795   0.188  10.435 -0.1386  0.4251 -0.2581
  354MOL0     C47687   1.862   0.254  10.336 -0.9837  0.3250  0.3094
  354MOL0     C47688   1.833   0.389  10.306  0.3779 -0.4584  0.4178
  354MOL0     C47689   1.897   0.450  10.194 -0.2902 -0.3062  0.1628
  354MOL0     C47690   1.960   0.361  10.101  0.5866  0.8067 -1.4034
  354MOL0     O47691   1.974   0.397   9.971  0.1684  0.2165  0.5242
  354MOL0     C47692   2.115   0.407   9.918  0.8075 -0.9437 -0.1430
  354MOL0     C47693   2.128   0.531   9.818  0.6958 -0.4889  0.1520
  354MOL0     C47694   2.184   0.652   9.892  0.3177  0.5244 -0.1416
  354MOL0     C47695   2.086   0.699  10.006 -0.9669  0.7113 -0.0476
  354MOL0     C47696   2.125   0.840  10.061  0.2501 -0.2383  0.0639
  354MOL0     C47697   2.006   0.893  10.134  0.0245 -1.7180  0.6674
  354MOL0     C47698   2.018   0.830  10.274 -0.4125  0.4271  0.2272
  354MOL0     C47699   1.918   0.908  10.366  0.2456  0.4173 -0.5008
  354MOL0    Cl47700   1.758   0.892  10.293 -0.2988  0.2206  0.2242
  354MOL0     C47701   1.996   0.234  10.135  0.6429  0.2012 -0.1864
  354MOL0     C47702   1.955   0.176  10.256  0.4261 -0.0869 -0.6333
  354MOL0     O47703   1.612   0.165  10.300  0.0339  0.5238  0.0261
  354MOL0     C47704   1.630   0.233  10.653 -0.3701 -1.0246 -0.1525
  354MOL0     C47705   1.562   0.237  10.773 -0.3465  0.6833 -0.4942
  354MOL0     N47706   1.414   0.523  11.416 -0.4689 -0.5446 -0.6502
  354MOL0     N47707   1.508   0.608  11.395  0.0852 -0.0847 -0.6048
  354MOL0     C47708   2.562   0.641  11.072 -1.0829  0.6209 -0.5979
  354MOL0     C47709   2.643   0.714  10.974 -0.4097  0.2193 -0.3369
  354MOL0     C47710   2.763   0.998  10.627  0.1445 -0.4917 -0.7139
  354MOL0     C47711   2.753   1.038  10.487 -1.0801  0.2872 -0.0515
  354MOL0     C47712   2.862   1.106  10.426 -0.0509  0.6064 -0.1912
  354MOL0     C47713   2.980   1.136  10.504  0.6182  0.7497  0.6271
  354MOL0     O47714   3.085   1.217  10.456  0.3006  0.0971  0.5113
  354MOL0     C47715   3.171   1.162  10.354  0.6894 -0.6366  0.2202
  354MOL0     C47716   3.287   1.081  10.425  0.5361 -0.7096 -0.7142
  354MOL0     C47717   3.374   1.023  10.312  0.1027 -0.4156 -0.4388
  354MOL0     C47718   3.513   0.991  10.367 -0.3581 -0.1231  0.0705
  354MOL0     C47719   3.606   0.959  10.255 -0.3119 -0.5300  0.4612
  354MOL0     C47720   3.691   0.943  10.167  0.5032  0.3787  0.2860
  354MOL0     C47721   2.983   1.094  10.633 -0.5256 -0.2559  0.7462
  354MOL0     C47722   2.877   1.033  10.699 -0.6575 -0.8679  0.4924
  354MOL0     H47723   2.406   0.873  10.800  1.6576 -0.5883 -1.7939
  354MOL0     H47724   2.268   0.761  10.981  0.6382  0.6952  0.1785
  354MOL0     H47725   2.401   0.446  11.298 -1.6568 -1.0576  3.1902
  354MOL0     H47726   2.467   0.607  11.337  0.7763 -1.0603 -0.1310
  354MOL0     H47727   2.280   0.527  11.494  0.1184  2.3138  0.9498
  354MOL0     H47728   2.262   0.686  11.415  2.8636  0.0348  0.7202
  354MOL0     H47729   2.115   0.562  11.236 -1.3673  2.0185 -0.2358
  354MOL0     H47730   2.163   0.416  11.315  2.0838  0.1011 -1.1794
  354MOL0     H47731   1.961   0.440  11.431  0.4522 -0.2984 -3.0535
  354MOL0     H47732   2.062   0.551  11.539 -0.0125  0.7033  0.2237
  354MOL0     H47733   1.846   0.637  11.492  2.2134  2.2869  2.5386
  354MOL0     H47734   1.972   0.746  11.426 -2.2024  1.8727 -2.8886
  354MOL0     H47735   1.920   0.674  11.198  1.5614 -0.5829 -0.1747
  354MOL0     H47736   1.821   0.549  11.284  2.0070  0.0403 -0.6415
  354MOL0     H47737   1.715   0.779  11.389  3.1117 -1.3602  0.8418
  354MOL0     H47738   1.786   0.847  11.240  1.0178  1.7947  3.4519
  354MOL0     H47739   1.646   0.679  11.101 -1.9367  2.5357 -1.1499
  354MOL0     H47740   1.540   0.796  11.196 -0.1500 -0.3437  1.5285
  354MOL0     H47741   1.449   0.498  11.093 -1.1032 -1.4027  0.8211
  354MOL0     H47742   1.286   0.294  11.379 -0.8761 -0.4584  0.2464
  354MOL0     H47743   1.177   0.395  11.279 -0.7321 -1.1431  0.6415
  354MOL0     H47744   1.278   0.152  11.194 -0.9125 -0.6432 -2.4826
  354MOL0     H47745   1.402   0.269  11.142 -0.0763  0.7427 -0.0456
  354MOL0     H47746   1.240   0.397  11.022  3.6262 -2.2260 -3.9557
  354MOL0     H47747   1.104   0.292  11.071  1.1470  2.0976  3.7981
  354MOL0     H47748   1.187   0.248  10.841  1.6103  1.0475 -0.8253
  354MOL0     H47749   1.202   0.099  10.941 -1.8334  0.5515  4.5445
  354MOL0     H47750   1.270   0.108  10.671 -0.9458  3.0264  2.5344
  354MOL0     H47751   1.436  -0.031  10.404  2.0096  1.5336 -0.8646
  354MOL0     H47752   1.273   0.014  10.476  0.7598 -3.6694 -1.6627
  354MOL0     H47753   1.366   0.107  10.344  1.8934 -1.8805 -1.2549
  354MOL0     H47754   1.768   0.449  10.369  0.7742  0.0847  0.3209
  354MOL0     H47755   1.888   0.547  10.146 -1.7306 -0.1676  0.6856
  354MOL0     H47756   2.192   0.424   9.994 -0.0824  1.5905  0.2803
  354MOL0     H47757   2.140   0.314   9.866  2.0976 -0.7071  0.0125
  354MOL0     H47758   2.205   0.497   9.748 -0.7077 -2.0916 -0.6927
  354MOL0     H47759   2.035   0.555   9.766  1.9934  1.4640 -1.4423
  354MOL0     H47760   2.197   0.728   9.814  0.4172  0.6830  0.0297
  354MOL0     H47761   2.285   0.630   9.927 -0.2554 -0.0652  1.1968
  354MOL0     H47762   1.982   0.703   9.972 -0.7324  1.6564 -0.6831
  354MOL0     H47763   2.094   0.615  10.076  3.4745  0.2362 -0.8073
  354MOL0     H47764   2.150   0.909   9.979 -3.2527  0.9874 -0.1316
  354MOL0     H47765   2.206   0.838  10.134 -2.4901  3.3603  3.6776
  354MOL0     H47766   2.008   1.002  10.147 -0.1806 -1.5620 -0.4997
  354MOL0     H47767   1.914   0.865  10.082  0.4706 -2.2078  0.1308
  354MOL0     H47768   2.116   0.828  10.324 -0.8583 -3.5607  1.2714
  354MOL0     H47769   2.007   0.722  10.264  0.6893  0.4912 -2.5401
  354MOL0     H47770   1.950   1.012  10.378 -2.8921  1.3945  0.3629
  354MOL0     H47771   1.926   0.867  10.467  0.6378  1.1417 -0.2281
  354MOL0     H47772   2.043   0.170  10.061  3.2578  3.0172 -1.1595
  354MOL0     H47773   1.971   0.073  10.286 -1.1042 -0.5651 -1.3592
  354MOL0     H47774   1.726   0.283  10.646  0.2389 -2.3476 -2.9755
  354MOL0     H47775   1.598   0.286  10.863 -1.9709  2.2001 -0.6053
  354MOL0     H47776   2.608   0.566  11.135 -0.1030  1.7358  0.0611
  354MOL0     H47777   2.751   0.705  10.986 -0.2827  2.3176  0.5836
  354MOL0     H47778   2.665   1.018  10.427  0.2648 -0.7972 -1.8097
  354MOL0     H47779   2.854   1.158  10.331  0.3531  1.7070  0.3526
  354MOL0     H47780   3.117   1.091  10.291  1.3594 -2.0566  1.1662
  354MOL0     H47781   3.205   1.241  10.287 -1.1605 -1.4768 -1.8056
  354MOL0     H47782   3.233   1.007  10.486 -0.8247  1.3186  0.6565
  354MOL0     H47783   3.348   1.148  10.485 -0.8703  2.1001 -2.2259
  354MOL0     H47784   3.383   1.104  10.239 -2.0658  0.6474  0.3877
  354MOL0     H47785   3.324   0.935  10.271 -3.0913  0.1931  1.8266
  354MOL0     H47786   3.504   0.903  10.432 -2.5729 -1.5956 -2.0557
  354MOL0     H47787   3.556   1.083  10.407  1.4105 -0.1252 -1.6363
  354MOL0     H47788   3.747   0.926  10.077  0.1677  1.5654 -0.1654
  354MOL0     H47789   3.079   1.097  10.685 -0.2142  0.9004  0.1350
  354MOL0     H47790   2.893   1.001  10.802  1.6961  0.1406  0.4955
  355MOL0     O47791   5.756   7.067   6.076  0.5656  0.3770  0.0514
  355MOL0     C47792   5.754   6.973   6.158  0.4570 -0.3100  0.5572
  355MOL0     O47793   5.868   6.923   6.219  0.1406 -0.3669 -0.7457
  355MOL0     C47794   5.990   6.990   6.218 -0.9145 -0.3384 -0.1163
  355MOL0     C47795   6.082   6.956   6.319 -0.0251 -0.3135  0.1365
  355MOL0     C47796   6.218   7.008   6.314  0.8120  0.5041 -0.7162
  355MOL0     C47797   6.268   7.096   6.215  1.1663  0.3565  0.1681
  355MOL0     O47798   6.403   7.127   6.216 -0.0219  0.9115 -0.1114
  355MOL0     C47799   6.456   7.181   6.093  0.5258 -0.9062 -0.3598
  355MOL0     C47800   6.610   7.166   6.069 -0.0412  0.3044 -0.2635
  355MOL0     C47801   6.692   7.217   6.198  0.1718  0.6447  0.0643
  355MOL0     C47802   6.823   7.274   6.151  0.5827 -0.3971  0.4523
  355MOL0     C47803   6.919   7.169   6.088  0.2623  0.1458  0.3903
  355MOL0     C47804   7.051   7.228   6.050  0.5420 -0.9989 -0.0634
  355MOL0     C47805   7.143   7.128   5.971  1.3757  0.8081  0.0554
  355MOL0     C47806   7.097   7.075   5.831 -0.0440 -0.0108 -0.4771
  355MOL0     N47807   7.181   6.975   5.777 -0.4291  1.0715 -0.4635
  355MOL0     C47808   7.317   6.970   5.762 -1.3247 -0.5434  0.5509
  355MOL0     C47809   7.348   6.839   5.729  0.8278  0.1501 -0.2126
  355MOL0     C47810   7.484   6.780   5.699 -1.1187 -0.6193  1.1922
  355MOL0     C47811   7.594   6.841   5.785 -0.2071  0.6782  0.1670
  355MOL0     C47812   7.720   6.755   5.786 -0.2116  0.1556  0.6169
  355MOL0     C47813   7.836   6.835   5.830 -0.1811 -0.1529  0.0825
  355MOL0     O47814   7.812   6.895   5.954 -0.7919 -0.2873 -0.1272
  355MOL0     C47815   7.891   6.999   5.998  0.5249 -0.0195  0.5739
  355MOL0     C47816   7.858   7.056   6.117 -1.3004 -0.6895 -0.6306
  355MOL0     C47817   7.924   7.172   6.162 -0.5103 -0.3372  0.0200
  355MOL0     C47818   7.878   7.230   6.290  0.0657 -0.6481  0.3749
  355MOL0     C47819   8.044   7.228   6.098  0.5615  0.5938  0.4064
  355MOL0     C47820   8.133   7.341   6.149 -0.0972 -0.1251  0.5447
  355MOL0     O47821   8.109   7.397   6.268 -0.3776 -0.1134 -0.8023
  355MOL0     C47822   8.220   7.431   6.343  0.1096  0.0270 -0.6802
  355MOL0     C47823   8.315   7.331   6.370 -0.7423 -0.3618  0.9881
  355MOL0     C47824   8.432   7.373   6.436  0.2761  0.1093 -0.1530
  355MOL0     C47825   8.453   7.502   6.475 -0.3365  0.2154  0.0033
  355MOL0     O47826   8.577   7.512   6.535 -0.0155  0.0632 -0.1823
  355MOL0     C47827   8.594   7.619   6.623  0.3722 -0.4898  0.0178
  355MOL0     C47828   8.714   7.599   6.714  0.5884  0.2322  0.4854
  355MOL0     C47829   8.699   7.684   6.847  0.7001  0.8121  0.8157
  355MOL0     C47830   8.806   7.644   6.956  0.2967  0.1106  0.3312
  355MOL0     C47831   8.802   7.747   7.078  0.1367  0.3793  0.2133
  355MOL0     C47832   8.797   7.889   7.035  0.2792 -0.2086 -0.2876
  355MOL0     C47833   8.924   7.932   6.964  0.6698 -0.7502  0.0575
  355MOL0     C47834   8.946   8.083   6.952 -0.7394  0.3032 -1.7682
  355MOL0    Cl47835   8.819   8.168   6.865 -0.1948  0.1402  0.7049
  355MOL0     C47836   8.361   7.602   6.455  0.3844 -0.4402 -0.5224
  355MOL0     C47837   8.240   7.562   6.391 -0.2137 -0.1100 -0.0503
  355MOL0     O47838   8.229   7.364   6.080  0.5865 -0.0536  0.3005
  355MOL0     C47839   8.079   7.154   5.986  0.2866 -1.1053 -0.7653
  355MOL0     C47840   8.010   7.047   5.935  0.5270 -0.7260 -0.1089
  355MOL0     N47841   7.225   6.773   5.711  0.0502  0.4379 -0.9803
  355MOL0     N47842   7.129   6.848   5.759  0.2210 -0.4074  0.3284
  355MOL0     C47843   6.178   7.136   6.118 -0.2214 -0.5834  0.3595
  355MOL0     C47844   6.040   7.093   6.128  0.6074  0.6826  1.0391
  355MOL0     C47845   5.632   6.891   6.179  0.5461  0.5298 -0.5276
  355MOL0     C47846   5.545   6.861   6.074 -0.0089 -0.2040 -0.1490
  355MOL0     C47847   5.425   6.789   6.100 -0.0357 -0.9768 -0.4081
  355MOL0     C47848   5.408   6.736   6.223  0.1496  1.3957 -0.3148
  355MOL0     O47849   5.300   6.659   6.234 -0.0515  0.3168  0.1795
  355MOL0     C47850   5.261   6.597   6.359  0.0166  0.1644  0.4597
  355MOL0     C47851   5.137   6.498   6.338  0.1066 -0.3621 -0.0757
  355MOL0     C47852   5.020   6.570   6.268 -0.1397  0.2641 -0.6175
  355MOL0     C47853   4.895   6.480   6.266 -0.9414  0.3368  0.6013
  355MOL0     C47854   4.829   6.496   6.398  0.1641 -0.1193 -0.1155
  355MOL0     C47855   4.759   6.505   6.493  0.3967 -0.2575  0.3342
  355MOL0     C47856   5.490   6.768   6.334  1.2283  0.3394 -1.0600
  355MOL0     C47857   5.601   6.844   6.307 -0.1356  0.6737 -0.0513
  355MOL0     H47858   6.043   6.896   6.401 -1.7092 -1.1717 -1.2365
  355MOL0     H47859   6.283   6.983   6.398 -2.7181  0.4916  2.2683
  355MOL0     H47860   6.415   7.136   6.002  1.3974 -2.0762 -0.1866
  355MOL0     H47861   6.435   7.289   6.088  1.2245 -0.7862 -0.8263
  355MOL0     H47862   6.645   7.063   6.058 -2.2106 -0.4364 -0.7608
  355MOL0     H47863   6.634   7.222   5.978  0.2788  1.3031  0.4208
  355MOL0     H47864   6.640   7.302   6.244  0.8064  1.0711  0.0059
  355MOL0     H47865   6.700   7.131   6.265  0.7171 -0.8763 -1.8802
  355MOL0     H47866   6.808   7.354   6.079  0.7702 -1.5871 -0.9446
  355MOL0     H47867   6.873   7.315   6.240 -1.9035 -1.4151  2.4493
  355MOL0     H47868   6.927   7.097   6.170 -2.7484  0.0519  0.7373
  355MOL0     H47869   6.872   7.108   6.010  0.8476 -0.5424  0.5691
  355MOL0     H47870   7.036   7.319   5.991 -1.1787  0.7622  2.8648
  355MOL0     H47871   7.102   7.263   6.140 -0.4650  0.9700 -0.2011
  355MOL0     H47872   7.242   7.174   5.966  1.4754  0.6487  0.4973
  355MOL0     H47873   7.163   7.038   6.030  2.3017  0.9400 -0.0396
  355MOL0     H47874   7.094   7.157   5.758  2.4490 -0.2896 -0.9710
  355MOL0     H47875   6.994   7.040   5.842  1.2862 -4.7996 -0.9185
  355MOL0     H47876   7.384   7.054   5.779  0.5425 -1.7290 -0.5429
  355MOL0     H47877   7.494   6.674   5.722  0.7747 -0.5118  1.0135
  355MOL0     H47878   7.501   6.807   5.594  0.2537 -1.8426  1.0744
  355MOL0     H47879   7.567   6.863   5.889  3.6697  5.1096  0.5889
  355MOL0     H47880   7.626   6.937   5.744 -0.7520  0.7323 -0.1343
  355MOL0     H47881   7.741   6.713   5.687 -0.0921  1.9565 -0.1635
  355MOL0     H47882   7.708   6.684   5.868 -0.6944  0.5236  0.8657
  355MOL0     H47883   7.849   6.915   5.757 -3.2287  0.2815 -0.1145
  355MOL0     H47884   7.931   6.782   5.831 -0.2686 -0.4548 -2.2216
  355MOL0     H47885   7.779   7.011   6.177 -1.6225  0.9318  0.2044
  355MOL0     H47886   7.956   7.215   6.366  0.0501 -5.3562 -0.2180
  355MOL0     H47887   7.827   7.326   6.281  0.1457 -0.8350 -3.6183
  355MOL0     H47888   7.797   7.168   6.330  0.1125 -1.8865 -1.3452
  355MOL0     H47889   8.318   7.232   6.327 -3.4675 -0.2570  0.3365
  355MOL0     H47890   8.513   7.302   6.444  1.3571  1.0278 -2.2720
  355MOL0     H47891   8.593   7.717   6.575 -0.2733  0.5533  2.0415
  355MOL0     H47892   8.509   7.612   6.692  0.9299 -1.2959  0.6342
  355MOL0     H47893   8.719   7.496   6.750 -2.0136  0.2396  1.1246
  355MOL0     H47894   8.811   7.624   6.671  1.5757 -1.4886  1.6061
  355MOL0     H47895   8.603   7.673   6.898  0.7928 -1.2205  0.6419
  355MOL0     H47896   8.703   7.792   6.827 -0.7912  1.3483  3.0114
  355MOL0     H47897   8.785   7.542   6.990 -1.7698  1.2540  2.7788
  355MOL0     H47898   8.908   7.646   6.917  0.3436  2.7315  0.4093
  355MOL0     H47899   8.889   7.733   7.143  0.0313  0.1636  0.3111
  355MOL0     H47900   8.705   7.724   7.122  0.6087 -0.2060  0.9687
  355MOL0     H47901   8.705   7.915   6.981 -0.2178  0.7256  0.9585
  355MOL0     H47902   8.798   7.943   7.130  0.3876 -4.4149  2.3259
  355MOL0     H47903   8.934   7.885   6.866 -2.5061  0.1839 -0.8469
  355MOL0     H47904   9.001   7.899   7.034  1.5944  2.0476  0.5046
  355MOL0     H47905   9.046   8.094   6.910  1.4997  1.4691  3.1118
  355MOL0     H47906   8.942   8.134   7.049 -1.2241 -0.6927 -1.2446
  355MOL0     H47907   8.386   7.698   6.498  2.7467 -1.3050  0.2529
  355MOL0     H47908   8.169   7.643   6.378  1.2065  1.0409 -0.9038
  355MOL0     H47909   8.165   7.187   5.928  0.0826  0.1064 -0.4043
  355MOL0     H47910   8.060   7.002   5.850  4.0732 -1.6378  2.2407
  355MOL0     H47911   6.223   7.199   6.041 -2.5946  0.2916 -0.4264
  355MOL0     H47912   5.976   7.143   6.056 -0.2214 -2.2363 -0.3719
  355MOL0     H47913   5.565   6.885   5.970 -0.7192  3.7055  0.4594
  355MOL0     H47914   5.366   6.767   6.011 -1.0980  4.1193 -1.3399
  355MOL0     H47915   5.347   6.539   6.394  1.6843  2.3320  0.1823
  355MOL0     H47916   5.239   6.667   6.440 -2.7061 -0.2233  0.1444
  355MOL0     H47917   5.100   6.466   6.436  0.4969  1.0083  0.5556
  355MOL0     H47918   5.167   6.405   6.289  0.3878 -1.1604  1.5464
  355MOL0     H47919   5.048   6.592   6.164 -2.3481  1.1969 -1.0845
  355MOL0     H47920   5.013   6.669   6.314 -1.9765  0.2784 -0.8317
  355MOL0     H47921   4.914   6.374   6.246 -0.2395  0.9059 -2.3027
  355MOL0     H47922   4.826   6.499   6.183 -0.2516 -0.5084 -0.1897
  355MOL0     H47923   4.696   6.514   6.579 -0.9817  0.9563 -0.7357
  355MOL0     H47924   5.464   6.734   6.434 -0.3267  0.5006 -1.3796
  355MOL0     H47925   5.669   6.872   6.388  6.1111 -4.1081 -2.7714
  356MOL0     O47926   3.977   5.798   7.737  0.3555 -0.2316  0.9747
  356MOL0     C47927   4.086   5.764   7.690  0.4113 -0.6324  0.3958
  356MOL0     O47928   4.109   5.651   7.617 -0.0152  0.6111  0.4655
  356MOL0     C47929   4.015   5.585   7.547 -0.1918  0.2712 -0.5250
  356MOL0     C47930   3.901   5.658   7.517 -0.1989  0.2339  0.4963
  356MOL0     C47931   3.805   5.590   7.452  0.4077 -0.0059  0.1363
  356MOL0     C47932   3.820   5.451   7.420  0.6211  0.1420  0.7692
  356MOL0     O47933   3.729   5.390   7.333  0.2063  0.3567  0.0070
  356MOL0     C47934   3.609   5.341   7.391 -0.9108 -0.5624 -0.0718
  356MOL0     C47935   3.586   5.197   7.349 -0.1556  0.1698  1.0408
  356MOL0     C47936   3.441   5.169   7.368 -0.3596 -0.1049  0.3452
  356MOL0     C47937   3.357   5.198   7.239 -0.3779  0.2911 -0.6286
  356MOL0     C47938   3.209   5.167   7.253  0.0074  0.5116 -0.8248
  356MOL0     C47939   3.114   5.241   7.145 -0.0432 -0.1724 -0.3645
  356MOL0     C47940   2.982   5.177   7.114 -0.2949 -0.4015 -0.7341
  356MOL0     C47941   2.891   5.170   7.235  0.0160  0.2898  0.1674
  356MOL0     N47942   2.749   5.158   7.209 -0.4971 -0.0503  0.0186
  356MOL0     C47943   2.683   5.073   7.123 -0.2092  0.5838  0.5393
  356MOL0     C47944   2.556   5.109   7.121 -0.5526 -0.1135  0.2496
  356MOL0     C47945   2.456   5.024   7.042  0.3901  0.2510  0.2585
  356MOL0     C47946   2.423   5.101   6.913 -0.0172  0.4200 -0.4294
  356MOL0     C47947   2.337   5.229   6.940  0.0665  0.3138  0.0020
  356MOL0     C47948   2.195   5.208   6.918 -0.6957 -0.0086 -0.4866
  356MOL0     O47949   2.121   5.113   6.982 -0.2289  0.7142 -0.4438
  356MOL0     C47950   1.991   5.079   6.932 -1.3465 -0.0175 -0.1283
  356MOL0     C47951   1.930   4.952   6.951 -0.6681 -0.5695  0.9044
  356MOL0     C47952   1.809   4.911   6.905  0.1787 -1.0337 -0.0156
  356MOL0     C47953   1.763   4.780   6.963  0.1512  0.0792  0.1938
  356MOL0     C47954   1.732   5.006   6.837  0.0643  0.9671  0.5232
  356MOL0     C47955   1.593   4.983   6.784  0.0635  0.5832  0.2144
  356MOL0     O47956   1.536   5.083   6.725  0.2736 -0.2024  0.2206
  356MOL0     C47957   1.404   5.054   6.686 -0.6157 -0.4279 -0.4155
  356MOL0     C47958   1.297   5.088   6.770  0.8359 -0.0471 -0.6539
  356MOL0     C47959   1.162   5.064   6.743  0.7302  0.0196  0.2997
  356MOL0     C47960   1.128   5.016   6.616  0.4350 -0.7429 -0.3008
  356MOL0     O47961   0.998   4.982   6.577 -0.8613 -0.2377  0.5473
  356MOL0     C47962   0.903   4.991   6.676  0.0140  0.5300 -0.1472
  356MOL0     C47963   0.770   4.940   6.621  0.3976  0.2389 -0.3736
  356MOL0     C47964   0.717   5.015   6.501 -0.3930 -0.1835  0.2152
  356MOL0     C47965   0.561   5.022   6.511  0.0167 -0.0230 -0.7169
  356MOL0     C47966   0.508   5.075   6.383  0.2018 -0.0997 -0.5310
  356MOL0     C47967   0.351   5.106   6.403 -1.2085 -0.0238  0.7527
  356MOL0     C47968   0.302   5.187   6.287  0.1323  0.4173 -0.6756
  356MOL0     C47969   0.159   5.235   6.307  0.0655  0.0485 -0.1117
  356MOL0    Cl47970   0.042   5.234   6.172 -0.4343  0.1074 -0.0012
  356MOL0     C47971   1.234   4.980   6.528 -0.2643 -0.1377 -0.3103
  356MOL0     C47972   1.368   4.989   6.567 -0.2109 -0.8148  0.0989
  356MOL0     O47973   1.539   4.877   6.826  0.3210  0.4272  0.3095
  356MOL0     C47974   1.785   5.129   6.812  0.1849 -0.6210  0.7009
  356MOL0     C47975   1.913   5.171   6.864 -0.1651  0.5680  0.6032
  356MOL0     N47976   2.550   5.216   7.211 -0.8761  0.2361 -0.3292
  356MOL0     N47977   2.657   5.243   7.262  0.2920  0.5017 -0.4663
  356MOL0     C47978   3.927   5.375   7.466 -1.3361 -0.0283 -0.4530
  356MOL0     C47979   4.031   5.450   7.519  0.3155  0.1586 -0.1750
  356MOL0     C47980   4.214   5.844   7.716 -0.2663  0.4445 -1.3158
  356MOL0     C47981   4.208   5.979   7.757  0.4603 -0.7235 -0.0787
  356MOL0     C47982   4.320   6.053   7.791  0.3335  0.0606  0.0940
  356MOL0     C47983   4.450   6.002   7.771 -0.2607 -0.2739  0.1051
  356MOL0     O47984   4.560   6.087   7.780 -0.0135  0.4044 -0.5372
  356MOL0     C47985   4.623   6.095   7.915  0.0429  1.1572 -0.4446
  356MOL0     C47986   4.770   6.137   7.907  0.7537  0.2917 -0.2735
  356MOL0     C47987   4.783   6.284   7.852 -0.1474  0.3256  0.4394
  356MOL0     C47988   4.927   6.321   7.822  0.3602 -0.5058 -0.2869
  356MOL0     C47989   5.012   6.302   7.933 -0.1231 -0.1304 -0.2461
  356MOL0     C47990   5.098   6.309   8.025  0.1595  0.0325  0.1411
  356MOL0     C47991   4.467   5.873   7.731  1.0464 -0.2326 -0.0626
  356MOL0     C47992   4.348   5.789   7.713 -0.3810 -0.7309  0.2381
  356MOL0     H47993   3.877   5.763   7.526 -4.1168 -0.7001  3.5107
  356MOL0     H47994   3.724   5.647   7.407  0.6660 -0.8622 -1.5018
  356MOL0     H47995   3.610   5.337   7.501 -1.5403  1.7821  0.0728
  356MOL0     H47996   3.527   5.408   7.362 -2.3343 -2.6977 -1.2692
  356MOL0     H47997   3.615   5.186   7.245 -0.5152  2.2635  0.6668
  356MOL0     H47998   3.645   5.128   7.409  1.0629  0.6989  0.4730
  356MOL0     H47999   3.423   5.064   7.396  1.2456 -0.3357  0.6019
  356MOL0     H48000   3.397   5.221   7.454 -1.4549 -1.4658  0.6646
  356MOL0     H48001   3.364   5.307   7.233  1.1115  0.5475  2.8504
  356MOL0     H48002   3.397   5.140   7.156 -1.4885 -1.8495  0.2592
  356MOL0     H48003   3.199   5.058   7.244  0.4782  0.5969 -3.3562
  356MOL0     H48004   3.170   5.183   7.353  1.8012 -2.2090  0.4355
  356MOL0     H48005   3.084   5.341   7.176  0.3957 -0.6261  1.7057
  356MOL0     H48006   3.172   5.242   7.052  1.1983 -1.4594  0.3472
  356MOL0     H48007   2.928   5.240   7.043  0.3944  0.5836 -0.4026
  356MOL0     H48008   2.995   5.082   7.062  2.0957 -1.2266  1.1826
  356MOL0     H48009   2.904   5.262   7.293  1.2425 -0.4277  1.0833
  356MOL0     H48010   2.929   5.084   7.291  0.9659  0.2852 -0.4632
  356MOL0     H48011   2.724   4.995   7.060 -1.5046  1.3864 -1.3750
  356MOL0     H48012   2.492   4.923   7.019 -1.9119 -1.1654  2.4499
  356MOL0     H48013   2.371   5.002   7.106  2.6807 -3.2041  2.4469
  356MOL0     H48014   2.369   5.033   6.847  1.2924 -1.0528 -0.0484
  356MOL0     H48015   2.508   5.127   6.849 -1.5491 -1.0622 -3.2837
  356MOL0     H48016   2.366   5.307   6.869 -1.4851  0.0248 -1.0056
  356MOL0     H48017   2.344   5.273   7.040 -3.7702 -0.2317  0.6823
  356MOL0     H48018   2.182   5.200   6.810  0.0762  1.9447 -0.7609
  356MOL0     H48019   2.144   5.301   6.944 -4.6574 -2.6146  2.1845
  356MOL0     H48020   1.988   4.873   6.997 -0.7514 -3.2416 -3.0568
  356MOL0     H48021   1.760   4.699   6.890 -1.3914  1.2908 -1.1604
  356MOL0     H48022   1.820   4.761   7.055  0.6134 -0.6758 -0.2361
  356MOL0     H48023   1.659   4.789   6.994 -0.8044 -0.1449 -2.6310
  356MOL0     H48024   1.322   5.145   6.859  4.8143  0.8006 -2.1010
  356MOL0     H48025   1.089   5.102   6.813  0.6560 -0.2808  0.3863
  356MOL0     H48026   0.922   4.931   6.766 -1.0807  0.6192  0.1599
  356MOL0     H48027   0.883   5.091   6.714 -3.5930 -0.7123  1.7049
  356MOL0     H48028   0.779   4.835   6.592 -3.9263 -0.7961  1.1968
  356MOL0     H48029   0.694   4.947   6.700 -0.3852  1.3604 -1.1883
  356MOL0     H48030   0.744   4.970   6.405  0.9098 -0.9679  0.9309
  356MOL0     H48031   0.748   5.120   6.504  0.1047 -0.0107 -4.2637
  356MOL0     H48032   0.524   4.920   6.527 -1.4175  0.4691 -0.8075
  356MOL0     H48033   0.549   5.088   6.597 -2.7135  0.0226 -1.0433
  356MOL0     H48034   0.518   5.007   6.297 -2.1053  1.5239 -2.2168
  356MOL0     H48035   0.557   5.172   6.366 -0.0805  0.6036  2.2022
  356MOL0     H48036   0.304   5.008   6.408  0.2829 -0.7933  0.2575
  356MOL0     H48037   0.338   5.161   6.496  0.7853  1.5078  0.1975
  356MOL0     H48038   0.293   5.120   6.200 -1.6596 -0.1338 -0.1072
  356MOL0     H48039   0.370   5.265   6.252 -0.6755  1.6302  0.3881
  356MOL0     H48040   0.176   5.338   6.338  2.1063  0.0503 -1.0763
  356MOL0     H48041   0.117   5.178   6.390 -0.4175 -0.0344 -0.4046
  356MOL0     H48042   1.212   4.933   6.433 -0.9348  0.1328 -0.2935
  356MOL0     H48043   1.441   4.935   6.508  0.6888 -3.6173  3.4473
  356MOL0     H48044   1.727   5.209   6.768 -0.8969 -1.0387  1.3223
  356MOL0     H48045   1.950   5.270   6.839  1.1475 -0.2839 -1.0164
  356MOL0     H48046   3.937   5.267   7.463  0.7111 -0.1131  3.0526
  356MOL0     H48047   4.126   5.407   7.552  1.9911  0.6734 -3.8150
  356MOL0     H48048   4.112   6.025   7.776  2.3272  2.0621  4.0175
  356MOL0     H48049   4.305   6.152   7.833 -0.0109  0.3543 -0.6985
  356MOL0     H48050   4.571   6.163   7.983  1.0563  1.2313  0.2700
  356MOL0     H48051   4.622   5.994   7.955  1.6696 -0.0003 -3.0441
  356MOL0     H48052   4.812   6.063   7.839 -0.2496 -0.9865  0.4481
  356MOL0     H48053   4.807   6.131   8.010 -0.0401  3.0140  0.2388
  356MOL0     H48054   4.742   6.349   7.930  0.3770  0.9626  0.1979
  356MOL0     H48055   4.715   6.293   7.767 -1.3550 -0.8681  1.2351
  356MOL0     H48056   4.928   6.428   7.802  0.7913 -0.8031 -2.0814
  356MOL0     H48057   4.956   6.261   7.735  1.7592 -0.6893  0.2858
  356MOL0     H48058   5.167   6.310   8.107 -0.2510 -0.3250  0.5020
  356MOL0     H48059   4.564   5.831   7.708  0.1328 -1.5245 -1.8362
  356MOL0     H48060   4.376   5.693   7.673  2.8800 -0.5867  1.8578
  357MOL0     O48061   0.108   3.506   3.205  0.2443  0.0663  0.4191
  357MOL0     C48062   0.185   3.416   3.168 -1.1538  0.3194  0.2907
  357MOL0     O48063   0.147   3.298   3.113  0.3179  0.8728  0.7114
  357MOL0     C48064   0.013   3.292   3.084 -1.1784  0.3846  0.2117
  357MOL0     C48065  -0.044   3.362   2.982  0.4263 -0.7004 -0.4775
  357MOL0     C48066  -0.185   3.361   2.959 -0.1499  1.2670 -0.1664
  357MOL0     C48067  -0.260   3.272   3.033 -0.1978 -0.4357  0.3342
  357MOL0     O48068  -0.396   3.272   2.998 -0.2490  0.1087 -0.3236
  357MOL0     C48069  -0.493   3.194   3.068  0.0043  0.3701 -0.1233
  357MOL0     C48070  -0.533   3.269   3.198 -0.2280 -0.8127 -0.7273
  357MOL0     C48071  -0.640   3.184   3.268  0.1313 -0.2442  0.1858
  357MOL0     C48072  -0.679   3.255   3.406  0.3619 -0.0338  0.4024
  357MOL0     C48073  -0.799   3.188   3.480  0.2004  0.2287 -0.4319
  357MOL0     C48074  -0.937   3.184   3.417  0.3371 -0.5225  0.2739
  357MOL0     C48075  -0.995   3.322   3.380 -0.0509 -0.2417 -1.0410
  357MOL0     C48076  -1.062   3.327   3.241 -0.1440  0.0561 -0.4755
  357MOL0     N48077  -1.201   3.280   3.249 -0.7091 -0.1406 -0.4257
  357MOL0     C48078  -1.309   3.358   3.272 -0.6367 -0.4635 -0.1663
  357MOL0     C48079  -1.396   3.272   3.335  0.1684  0.0633 -0.5483
  357MOL0     C48080  -1.526   3.329   3.374  0.7624 -0.3185 -0.6188
  357MOL0     C48081  -1.593   3.254   3.488 -0.4480  0.0413  0.6114
  357MOL0     C48082  -1.717   3.319   3.535 -0.9581 -1.1665  0.4548
  357MOL0     C48083  -1.766   3.241   3.656 -0.2466  0.3464  0.5995
  357MOL0     O48084  -1.904   3.272   3.679 -0.6446 -0.1843 -0.0037
  357MOL0     C48085  -1.943   3.380   3.749 -0.3878 -0.1721 -0.7485
  357MOL0     C48086  -1.860   3.464   3.812 -0.2723 -0.5539 -0.9937
  357MOL0     C48087  -1.896   3.580   3.882 -0.4945  1.3586  0.2164
  357MOL0     C48088  -1.790   3.646   3.967 -0.4500  0.0780  0.3270
  357MOL0     C48089  -2.025   3.621   3.883 -0.1669 -0.6787 -0.5402
  357MOL0     C48090  -2.086   3.747   3.947  0.5914  0.1868 -0.2203
  357MOL0     O48091  -2.225   3.763   3.948 -0.2570  0.0966  0.0695
  357MOL0     C48092  -2.278   3.887   3.965  0.4151  0.2208 -0.9419
  357MOL0     C48093  -2.363   3.906   4.078  0.3083  0.5955 -0.3222
  357MOL0     C48094  -2.420   4.038   4.101  0.1539  0.7230 -0.0386
  357MOL0     C48095  -2.386   4.144   4.015  0.0264 -0.4265  0.2579
  357MOL0     O48096  -2.442   4.266   4.043  1.1761  0.4627 -0.0143
  357MOL0     C48097  -2.376   4.387   3.996 -0.0181 -0.6035 -1.1136
  357MOL0     C48098  -2.464   4.512   4.039  0.0397  0.9901 -0.0738
  357MOL0     C48099  -2.495   4.516   4.198  0.9031 -0.1673 -0.3071
  357MOL0     C48100  -2.375   4.499   4.291  0.4429  0.2993  0.4879
  357MOL0     C48101  -2.405   4.523   4.442  0.0130  0.2907  0.4795
  357MOL0     C48102  -2.545   4.490   4.498  0.3377 -1.2433  0.2675
  357MOL0     C48103  -2.558   4.515   4.643 -0.2251 -0.5970 -0.1819
  357MOL0     C48104  -2.581   4.388   4.719 -0.2182 -0.2049 -0.0732
  357MOL0    Cl48105  -2.439   4.291   4.727  0.2051 -0.1341 -0.4163
  357MOL0     C48106  -2.304   4.122   3.897  0.7693 -0.6060 -0.0937
  357MOL0     C48107  -2.256   3.992   3.876  0.2598 -0.3812 -0.9432
  357MOL0     O48108  -2.005   3.830   3.979 -0.0199  0.4480 -0.7909
  357MOL0     C48109  -2.114   3.536   3.819  0.4358 -0.3708 -0.1366
  357MOL0     C48110  -2.081   3.414   3.756 -0.3015 -0.5550  0.6137
  357MOL0     N48111  -1.346   3.144   3.347  0.7500  0.2753  0.1130
  357MOL0     N48112  -1.231   3.152   3.293  0.3996  0.2931  0.0331
  357MOL0     C48113  -0.203   3.198   3.131 -0.3764  0.7160  0.2308
  357MOL0     C48114  -0.063   3.210   3.162  0.7353 -0.0724  0.2817
  357MOL0     C48115   0.328   3.423   3.205 -0.0066  0.6157  0.2171
  357MOL0     C48116   0.422   3.344   3.137  0.3120  0.9572 -0.2855
  357MOL0     C48117   0.560   3.353   3.159 -0.6340 -0.7020  0.5217
  357MOL0     C48118   0.607   3.439   3.259 -0.4992 -0.0506  0.7616
  357MOL0     O48119   0.744   3.447   3.267  0.0982 -0.7765  0.4989
  357MOL0     C48120   0.806   3.518   3.363  0.5064  0.2843 -0.4402
  357MOL0     C48121   0.813   3.430   3.493  0.4327  0.0930  0.4643
  357MOL0     C48122   0.928   3.331   3.487 -0.2099  0.2302 -0.0074
  357MOL0     C48123   0.953   3.250   3.610  0.6810  0.1464 -0.4814
  357MOL0     C48124   0.845   3.147   3.629 -0.1725 -0.6857  0.8318
  357MOL0     C48125   0.747   3.086   3.650  0.1088  0.1537 -0.3306
  357MOL0     C48126   0.513   3.516   3.331  0.2793  0.9227 -0.3370
  357MOL0     C48127   0.375   3.508   3.301  0.1862  0.2400  0.0181
  357MOL0     H48128   0.024   3.422   2.923  0.9046 -0.2820  0.4861
  357MOL0     H48129  -0.245   3.404   2.880 -3.9188 -2.6014  0.2266
  357MOL0     H48130  -0.584   3.178   3.010 -2.4386  1.2924  3.1148
  357MOL0     H48131  -0.440   3.102   3.097 -0.8049  0.5368  2.0824
  357MOL0     H48132  -0.439   3.272   3.254  1.8703  1.6593 -4.0206
  357MOL0     H48133  -0.564   3.373   3.181  3.8158  1.2693  2.8450
  357MOL0     H48134  -0.730   3.188   3.207 -0.3985 -0.2582  0.9463
  357MOL0     H48135  -0.608   3.082   3.291  0.1666 -0.0156  1.2113
  357MOL0     H48136  -0.597   3.226   3.472  1.0130 -2.3213 -1.3045
  357MOL0     H48137  -0.678   3.364   3.406  0.4354 -0.0290  1.0861
  357MOL0     H48138  -0.771   3.085   3.503  2.1725  1.2376  2.3778
  357MOL0     H48139  -0.810   3.233   3.580 -0.5710 -1.8828  0.4779
  357MOL0     H48140  -0.925   3.125   3.326 -4.2291 -1.0363 -0.2294
  357MOL0     H48141  -1.010   3.121   3.469 -0.7215 -3.0892 -3.8514
  357MOL0     H48142  -1.064   3.346   3.461  0.9993 -2.2976  0.5383
  357MOL0     H48143  -0.917   3.399   3.371 -0.7782  1.3164  3.3726
  357MOL0     H48144  -1.008   3.271   3.165 -2.4357 -1.3441 -1.1652
  357MOL0     H48145  -1.075   3.434   3.220  2.7887  0.0771 -2.6934
  357MOL0     H48146  -1.314   3.466   3.261  1.0243  0.0576  3.0397
  357MOL0     H48147  -1.514   3.435   3.397 -2.5351 -0.1071  0.7893
  357MOL0     H48148  -1.594   3.323   3.289  1.3873 -6.3651 -1.1115
  357MOL0     H48149  -1.530   3.254   3.577  0.0954  1.6127  0.2491
  357MOL0     H48150  -1.612   3.151   3.455  3.3051 -0.2873 -1.0683
  357MOL0     H48151  -1.786   3.304   3.452  0.0643  0.0430 -0.6650
  357MOL0     H48152  -1.693   3.423   3.560 -3.8622 -0.0906 -0.7863
  357MOL0     H48153  -1.694   3.253   3.737  1.2020  1.4595 -0.7884
  357MOL0     H48154  -1.758   3.133   3.636 -0.3969 -0.3287  3.7503
  357MOL0     H48155  -1.753   3.447   3.814 -0.1834 -0.0488  1.3895
  357MOL0     H48156  -1.781   3.752   3.940 -1.4342 -0.0485 -0.5583
  357MOL0     H48157  -1.818   3.651   4.073  0.0593 -1.4380  0.5593
  357MOL0     H48158  -1.690   3.605   3.952  0.0165  1.3248 -0.0954
  357MOL0     H48159  -2.387   3.819   4.139  2.1422  0.4047  0.1688
  357MOL0     H48160  -2.484   4.043   4.189  0.9305  0.2710  0.5568
  357MOL0     H48161  -2.274   4.396   4.036 -0.4840  0.0568 -0.0363
  357MOL0     H48162  -2.368   4.391   3.887  3.0839 -1.1009 -0.9937
  357MOL0     H48163  -2.417   4.605   4.006  1.2534  0.4459  0.0771
  357MOL0     H48164  -2.562   4.505   3.992  0.1635 -0.4658 -0.1746
  357MOL0     H48165  -2.565   4.436   4.224 -2.0076  2.3008  0.1415
  357MOL0     H48166  -2.542   4.612   4.225  1.6872  0.5832 -1.5361
  357MOL0     H48167  -2.324   4.403   4.277  0.6866  0.2883  1.4127
  357MOL0     H48168  -2.307   4.577   4.255  0.4565  0.6220  1.2072
  357MOL0     H48169  -2.389   4.628   4.469  2.3836  0.5778 -1.7074
  357MOL0     H48170  -2.327   4.466   4.493 -1.0654 -0.3256  1.4883
  357MOL0     H48171  -2.623   4.547   4.447 -0.8593 -2.2941  0.8552
  357MOL0     H48172  -2.560   4.384   4.475  1.5518 -1.5422  0.8199
  357MOL0     H48173  -2.629   4.596   4.663  0.9783 -0.1418  2.7475
  357MOL0     H48174  -2.467   4.561   4.683 -1.2141  1.0634  0.2673
  357MOL0     H48175  -2.655   4.322   4.674 -0.2844  0.9381 -1.7278
  357MOL0     H48176  -2.610   4.421   4.820  0.0795  0.2922 -0.1474
  357MOL0     H48177  -2.283   4.207   3.832  1.3594  0.9727  2.0499
  357MOL0     H48178  -2.195   3.978   3.788 -0.4636 -0.8552 -1.3734
  357MOL0     H48179  -2.220   3.558   3.809  0.5109  0.2036  0.2892
  357MOL0     H48180  -2.154   3.344   3.718  1.2846 -3.3271  2.2949
  357MOL0     H48181  -0.258   3.129   3.195 -0.6239 -0.7808 -1.5141
  357MOL0     H48182  -0.007   3.155   3.237  1.0930  0.7906  0.6598
  357MOL0     H48183   0.376   3.278   3.064  1.2680 -2.5717  2.0571
  357MOL0     H48184   0.630   3.293   3.101 -0.5919  0.5459 -0.7666
  357MOL0     H48185   0.911   3.528   3.336  0.3257 -0.2075 -1.3900
  357MOL0     H48186   0.757   3.610   3.394  1.1564  0.1024  1.2013
  357MOL0     H48187   0.716   3.380   3.504 -1.0699  2.9910  1.4564
  357MOL0     H48188   0.826   3.497   3.579 -0.7520  4.8325 -2.6347
  357MOL0     H48189   1.022   3.384   3.468 -0.9009  1.3259 -0.3951
  357MOL0     H48190   0.908   3.261   3.405 -0.6647 -0.8484  0.9808
  357MOL0     H48191   0.951   3.314   3.698  1.9543 -2.3931  1.5278
  357MOL0     H48192   1.050   3.199   3.610 -0.1871 -1.6110  0.6490
  357MOL0     H48193   0.659   3.035   3.683  1.8282 -1.0365  2.7289
  357MOL0     H48194   0.547   3.599   3.392  2.2532 -0.3722  0.4188
  357MOL0     H48195   0.306   3.572   3.356 -3.5334 -2.7544 -0.6990
  358MOL0     O48196   1.116   6.973   8.970  0.0027 -0.0812  0.0634
  358MOL0     C48197   1.188   7.065   8.925  0.2377  1.3724  0.4496
  358MOL0     O48198   1.141   7.176   8.862 -0.7584  0.4007  0.5643
  358MOL0     C48199   0.998   7.192   8.853 -0.9490  0.2174  0.9235
  358MOL0     C48200   0.935   7.234   8.972 -0.3688 -0.4194  0.0378
  358MOL0     C48201   0.797   7.256   8.964 -1.3700 -0.0830  0.8138
  358MOL0     C48202   0.721   7.215   8.858  0.0372 -0.0837 -0.0524
  358MOL0     O48203   0.584   7.244   8.854 -1.0967 -0.5609 -0.5112
  358MOL0     C48204   0.498   7.168   8.775 -0.4477  0.1209  0.0691
  358MOL0     C48205   0.345   7.190   8.794  0.0831  0.4665  0.1931
  358MOL0     C48206   0.309   7.335   8.754 -0.0562 -0.2911  0.6196
  358MOL0     C48207   0.160   7.362   8.776  0.3213 -0.4066 -0.5145
  358MOL0     C48208   0.115   7.502   8.761 -0.0624 -1.3189  0.4883
  358MOL0     C48209  -0.026   7.530   8.827 -0.2861  0.7302  0.1539
  358MOL0     C48210  -0.089   7.648   8.770 -0.0684 -0.2766  0.3789
  358MOL0     C48211  -0.216   7.684   8.846  1.2343  0.1479  0.7539
  358MOL0     N48212  -0.272   7.801   8.783  0.1433 -0.6499 -0.3903
  358MOL0     C48213  -0.264   7.935   8.826 -0.8062  0.3235  0.1328
  358MOL0     C48214  -0.322   8.009   8.727  0.2092 -0.1551 -0.9405
  358MOL0     C48215  -0.331   8.153   8.732  0.3150  0.6486 -0.0086
  358MOL0     C48216  -0.459   8.195   8.650 -0.2151 -0.5792  1.1286
  358MOL0     C48217  -0.469   8.351   8.668  0.2888 -0.3797 -0.0340
  358MOL0     C48218  -0.615   8.404   8.652  0.4147 -0.3327  0.7532
  358MOL0     O48219  -0.677   8.390   8.775 -0.1879 -0.1328  0.0308
  358MOL0     C48220  -0.810   8.416   8.803 -0.2227  0.5503  0.4838
  358MOL0     C48221  -0.851   8.387   8.937  0.5475 -0.2488  0.4439
  358MOL0     C48222  -0.984   8.405   8.977 -0.1917  1.0158  0.7549
  358MOL0     C48223  -1.011   8.370   9.122  0.8197  0.6223 -0.0078
  358MOL0     C48224  -1.075   8.455   8.881  0.0577  0.2039 -0.1026
  358MOL0     C48225  -1.215   8.488   8.917  0.5873 -0.2781  0.7087
  358MOL0     O48226  -1.250   8.518   9.059 -1.2091 -0.3401  1.2028
  358MOL0     C48227  -1.377   8.501   9.091 -0.5358  0.3046 -0.3254
  358MOL0     C48228  -1.471   8.604   9.080 -0.8410 -0.9084 -1.0007
  358MOL0     C48229  -1.610   8.594   9.107 -0.2766 -0.6406 -0.6846
  358MOL0     C48230  -1.660   8.473   9.140  0.4680  0.3715  0.1890
  358MOL0     O48231  -1.787   8.486   9.179  0.0140 -0.8923 -0.0789
  358MOL0     C48232  -1.855   8.381   9.242 -0.6965 -0.6186 -0.0203
  358MOL0     C48233  -1.997   8.375   9.187 -0.0306 -0.3089  0.3753
  358MOL0     C48234  -2.087   8.263   9.246  0.3098 -0.8728  0.3368
  358MOL0     C48235  -2.223   8.282   9.189  0.0005 -0.4147 -0.0236
  358MOL0     C48236  -2.338   8.200   9.255  0.0377  0.5545 -0.9135
  358MOL0     C48237  -2.336   8.197   9.412 -0.1249  0.6518  0.2239
  358MOL0     C48238  -2.432   8.092   9.471  0.4538  0.5178  0.4305
  358MOL0     C48239  -2.584   8.112   9.412 -0.0225 -0.1004  0.4123
  358MOL0    Cl48240  -2.701   8.011   9.512 -0.3141  0.4526 -0.2839
  358MOL0     C48241  -1.575   8.364   9.141  0.0650  0.7250  0.8165
  358MOL0     C48242  -1.436   8.376   9.118  0.1056  0.0690 -0.3043
  358MOL0     O48243  -1.294   8.490   8.827  0.8160 -0.0764  0.5693
  358MOL0     C48244  -1.031   8.485   8.753  0.1411  0.5523  0.4465
  358MOL0     C48245  -0.900   8.457   8.711 -0.5430 -0.2389  0.5215
  358MOL0     N48246  -0.372   7.923   8.637  0.0939 -0.4576  0.2242
  358MOL0     N48247  -0.337   7.804   8.668 -0.1160 -0.3728 -0.4082
  358MOL0     C48248   0.782   7.155   8.752  0.2965  0.6953  0.3443
  358MOL0     C48249   0.922   7.152   8.737  1.0129  0.0600  0.4055
  358MOL0     C48250   1.329   7.042   8.937  0.5362 -0.2664  0.7557
  358MOL0     C48251   1.389   6.937   9.009 -0.1498 -0.0160 -0.4807
  358MOL0     C48252   1.524   6.917   9.020 -1.1333  0.2880  0.0116
  358MOL0     C48253   1.614   7.000   8.958 -0.3299  0.6172 -0.9109
  358MOL0     O48254   1.750   6.993   8.948  0.6550  0.0114 -1.1716
  358MOL0     C48255   1.815   6.861   8.964 -0.6393 -0.2910 -0.7666
  358MOL0     C48256   1.965   6.895   8.939  0.4043 -0.4761  0.7680
  358MOL0     C48257   2.047   6.966   9.052  0.4897  0.4555  0.4512
  358MOL0     C48258   2.187   7.006   9.002  1.2442  0.0070 -0.1488
  358MOL0     C48259   2.276   6.893   9.020  0.3301  0.0283  0.3890
  358MOL0     C48260   2.343   6.793   9.038  0.5225  0.3594  0.4697
  358MOL0     C48261   1.558   7.108   8.893 -0.3224  0.0980 -0.3672
  358MOL0     C48262   1.419   7.119   8.864 -0.0593  0.5894 -0.7876
  358MOL0     H48263   0.986   7.254   9.065 -0.6914 -2.6682  0.7654
  358MOL0     H48264   0.741   7.295   9.049  1.5030  3.4523  1.3398
  358MOL0     H48265   0.510   7.200   8.671 -1.9637  1.3590  0.2461
  358MOL0     H48266   0.519   7.062   8.786 -1.9532 -0.2748 -0.6304
  358MOL0     H48267   0.295   7.121   8.727  1.5016 -0.5112  0.0826
  358MOL0     H48268   0.309   7.158   8.892  1.0647 -5.2991 -0.9803
  358MOL0     H48269   0.365   7.410   8.810 -0.0613 -0.2532  0.5742
  358MOL0     H48270   0.335   7.350   8.649  2.4956 -0.2764  1.2082
  358MOL0     H48271   0.100   7.308   8.703  0.1301  0.5983 -1.1127
  358MOL0     H48272   0.137   7.324   8.876  1.8549 -0.1269 -0.0172
  358MOL0     H48273   0.183   7.580   8.797 -1.0192 -0.6368  0.8607
  358MOL0     H48274   0.101   7.523   8.654 -1.3811 -1.2502  0.6548
  358MOL0     H48275  -0.092   7.443   8.820  0.1846  0.3543  0.2774
  358MOL0     H48276  -0.020   7.531   8.937  3.3531 -2.8741  0.2558
  358MOL0     H48277  -0.025   7.737   8.765  0.4038 -0.5869  0.8222
  358MOL0     H48278  -0.119   7.613   8.671 -5.6602  1.2061  1.2091
  358MOL0     H48279  -0.182   7.708   8.947  0.9222  0.9962  0.6625
  358MOL0     H48280  -0.292   7.606   8.852 -1.3034  2.5779  3.4091
  358MOL0     H48281  -0.209   7.978   8.909 -2.1028  1.1371  0.5884
  358MOL0     H48282  -0.327   8.201   8.830  0.8463  1.6650 -0.5149
  358MOL0     H48283  -0.247   8.202   8.683 -1.3000  4.0699  0.3332
  358MOL0     H48284  -0.544   8.138   8.688 -2.3627 -0.9719 -3.6193
  358MOL0     H48285  -0.454   8.170   8.544 -2.4984  4.5797 -0.4754
  358MOL0     H48286  -0.409   8.384   8.582  2.8570 -2.7409  0.7210
  358MOL0     H48287  -0.425   8.382   8.763  2.0996 -0.8005 -0.6863
  358MOL0     H48288  -0.670   8.356   8.571 -1.4149 -1.3578  2.5219
  358MOL0     H48289  -0.623   8.511   8.630 -2.0292 -0.7683 -0.9502
  358MOL0     H48290  -0.780   8.343   9.006 -1.1510 -0.0744  2.4091
  358MOL0     H48291  -0.933   8.305   9.163  0.9538  0.7351 -0.0840
  358MOL0     H48292  -1.016   8.465   9.176 -0.3215  1.7468 -1.9550
  358MOL0     H48293  -1.112   8.328   9.130  1.7624 -1.7593  0.2473
  358MOL0     H48294  -1.431   8.699   9.044 -2.6827  1.5527  2.8097
  358MOL0     H48295  -1.677   8.679   9.098 -0.8400 -0.3874  3.7606
  358MOL0     H48296  -1.804   8.286   9.222 -0.1283  0.3138 -3.4549
  358MOL0     H48297  -1.841   8.381   9.351  2.3866 -0.0299 -0.3490
  358MOL0     H48298  -2.050   8.469   9.203  0.6242  0.1478 -0.0740
  358MOL0     H48299  -1.993   8.354   9.080  0.1264 -2.1926  0.7150
  358MOL0     H48300  -2.080   8.279   9.354 -1.8985  1.0131  0.2780
  358MOL0     H48301  -2.056   8.161   9.223 -2.6031 -1.8617  0.3687
  358MOL0     H48302  -2.238   8.390   9.200 -0.6985 -0.4298 -0.7664
  358MOL0     H48303  -2.208   8.261   9.083  2.2388  0.7465  0.0000
  358MOL0     H48304  -2.340   8.098   9.214 -0.8183  1.1767 -2.4886
  358MOL0     H48305  -2.423   8.257   9.219 -0.4329  1.3445  1.2856
  358MOL0     H48306  -2.232   8.178   9.439  0.2917  2.0979 -0.2531
  358MOL0     H48307  -2.362   8.300   9.441 -2.1339  0.9062 -2.1883
  358MOL0     H48308  -2.442   8.111   9.578 -3.1105  0.4565  0.2306
  358MOL0     H48309  -2.388   7.993   9.456  1.2241  0.9318 -0.1447
  358MOL0     H48310  -2.587   8.073   9.310 -1.1605  1.7087 -0.2818
  358MOL0     H48311  -2.628   8.212   9.410  0.3465  0.0581 -0.5620
  358MOL0     H48312  -1.616   8.266   9.164 -4.2525  2.3729  1.1395
  358MOL0     H48313  -1.376   8.285   9.113 -0.7359 -0.5413  0.4873
  358MOL0     H48314  -1.096   8.528   8.677 -1.0839 -1.4759  0.2654
  358MOL0     H48315  -0.854   8.470   8.613  2.4918 -1.0085  1.7115
  358MOL0     H48316   0.730   7.127   8.661  2.7396 -0.4449 -0.7969
  358MOL0     H48317   0.964   7.108   8.647 -2.2674 -1.2329 -0.6525
  358MOL0     H48318   1.325   6.865   9.058  1.4356 -1.1375  0.0393
  358MOL0     H48319   1.565   6.839   9.083 -1.5821  0.1601  0.1479
  358MOL0     H48320   1.793   6.821   9.063 -1.0090  3.1170  0.6935
  358MOL0     H48321   1.781   6.791   8.887 -0.1707 -2.4011  0.8671
  358MOL0     H48322   1.955   6.958   8.850 -2.5735 -1.7792  0.0476
  358MOL0     H48323   2.028   6.810   8.913  2.2911  0.9077  0.6790
  358MOL0     H48324   2.051   6.891   9.131  3.2886  0.0031 -0.0141
  358MOL0     H48325   1.987   7.055   9.073  0.1328  0.9470 -2.3012
  358MOL0     H48326   2.226   7.089   9.062  0.5841 -0.6773  1.2927
  358MOL0     H48327   2.194   7.027   8.895 -0.0816  1.2128 -0.0330
  358MOL0     H48328   2.405   6.707   9.055  1.2275  1.3569  3.4551
  358MOL0     H48329   1.627   7.175   8.843 -0.7806 -1.4583 -3.2971
  358MOL0     H48330   1.381   7.196   8.797 -0.4912  0.7596 -0.3568
  359MOL0     O48331   5.799   4.636   0.446 -0.9662  0.3540  0.3288
  359MOL0     C48332   5.819   4.542   0.524  0.7298  0.3303  0.3520
  359MOL0     O48333   5.725   4.481   0.593  0.6270 -0.2395  0.3470
  359MOL0     C48334   5.601   4.551   0.604 -0.1093  0.5854 -1.2386
  359MOL0     C48335   5.487   4.484   0.584 -0.5660  1.0845  0.2743
  359MOL0     C48336   5.363   4.542   0.613  0.7377 -0.0891 -0.5866
  359MOL0     C48337   5.346   4.663   0.671  1.0924  0.0656 -0.2477
  359MOL0     O48338   5.220   4.717   0.707  0.5978  0.1024  0.1251
  359MOL0     C48339   5.103   4.642   0.688 -0.2658  0.6321  0.3534
  359MOL0     C48340   4.970   4.724   0.707 -0.1105  0.1717  0.8474
  359MOL0     C48341   4.843   4.647   0.682  0.3111 -0.0474  0.1518
  359MOL0     C48342   4.721   4.698   0.761  0.4069 -0.0562 -0.4472
  359MOL0     C48343   4.586   4.622   0.733 -0.8074  0.1899 -0.8248
  359MOL0     C48344   4.482   4.652   0.839 -0.0165 -1.3546  0.1075
  359MOL0     C48345   4.365   4.548   0.844 -0.2939 -0.7564  0.8403
  359MOL0     C48346   4.252   4.596   0.943 -0.1592  1.0306 -0.9118
  359MOL0     N48347   4.181   4.712   0.913 -0.5795  0.2590 -0.8146
  359MOL0     C48348   4.135   4.733   0.786  0.4811 -0.8698  0.6314
  359MOL0     C48349   4.090   4.857   0.784 -0.1431  0.2139 -0.9859
  359MOL0     C48350   4.026   4.912   0.668 -0.2400  0.9292  1.1438
  359MOL0     C48351   4.125   4.976   0.563 -0.5878  0.6931 -0.0663
  359MOL0     C48352   4.075   5.088   0.471 -0.1777 -0.7966 -0.3475
  359MOL0     C48353   4.175   5.101   0.364 -0.2232  0.0230 -0.6530
  359MOL0     O48354   4.143   5.194   0.258 -0.5791  0.1444 -0.3371
  359MOL0     C48355   4.234   5.212   0.159  0.6108  0.8501  0.0356
  359MOL0     C48356   4.291   5.098   0.101 -0.3315  0.3310 -0.1645
  359MOL0     C48357   4.360   5.103  -0.017  0.0005 -0.0936 -0.8396
  359MOL0     C48358   4.430   4.969  -0.051  0.0080  0.8754  0.3435
  359MOL0     C48359   4.362   5.230  -0.087 -0.7047  0.7622  0.2468
  359MOL0     C48360   4.436   5.239  -0.220  0.2921  0.4737  0.1377
  359MOL0     O48361   4.504   5.125  -0.260 -0.3567 -0.0937  0.2314
  359MOL0     C48362   4.594   5.143  -0.362 -0.1500 -0.1751 -0.1839
  359MOL0     C48363   4.712   5.213  -0.350  0.1064 -0.6875 -0.0909
  359MOL0     C48364   4.794   5.226  -0.462  0.1706 -0.6153  0.0437
  359MOL0     C48365   4.774   5.152  -0.579 -0.2054 -0.0418  0.8087
  359MOL0     O48366   4.859   5.179  -0.694  0.4848 -0.9896 -0.6057
  359MOL0     C48367   4.838   5.117  -0.815 -0.1955  0.2056  0.8706
  359MOL0     C48368   4.937   5.155  -0.916 -0.0876  1.1246  0.5059
  359MOL0     C48369   5.082   5.083  -0.910  0.0898 -0.0921 -0.1885
  359MOL0     C48370   5.173   5.127  -1.027 -1.0163  0.4098  0.6804
  359MOL0     C48371   5.320   5.078  -1.023 -0.7110  0.0706  0.5770
  359MOL0     C48372   5.409   5.108  -1.138  0.4312  0.3148 -1.1026
  359MOL0     C48373   5.437   5.259  -1.154  0.6485 -0.4732 -0.1183
  359MOL0     C48374   5.548   5.287  -1.254  0.0985 -0.6159  0.8667
  359MOL0    Cl48375   5.515   5.199  -1.422  0.0769  0.0527 -0.1616
  359MOL0     C48376   4.666   5.065  -0.582  0.4466 -0.6556  0.4332
  359MOL0     C48377   4.575   5.063  -0.478  0.7555  0.4412 -0.9065
  359MOL0     O48378   4.441   5.354  -0.273 -0.0572 -0.7218 -0.6663
  359MOL0     C48379   4.296   5.341  -0.040  0.9986 -0.0046  0.0377
  359MOL0     C48380   4.235   5.337   0.088  0.0325  0.9613 -0.4691
  359MOL0     N48381   4.103   4.918   0.912 -0.8037  0.2322 -0.8429
  359MOL0     N48382   4.173   4.831   0.988  0.4057  0.0174  0.4683
  359MOL0     C48383   5.464   4.731   0.696  0.2058 -1.0921  0.4692
  359MOL0     C48384   5.597   4.672   0.676 -0.2249 -0.1529  0.7164
  359MOL0     C48385   5.936   4.458   0.494 -0.3222  0.7929 -0.1982
  359MOL0     C48386   6.038   4.508   0.418 -0.2464  0.3076  0.3033
  359MOL0     C48387   6.154   4.432   0.384  0.4123 -0.3245  0.7891
  359MOL0     C48388   6.171   4.302   0.427 -0.0930  0.7377  0.0792
  359MOL0     O48389   6.288   4.229   0.391  0.0882  0.4974  0.3993
  359MOL0     C48390   6.304   4.092   0.445 -1.0761 -0.1380  0.9905
  359MOL0     C48391   6.448   4.053   0.431 -0.1837 -0.8788 -0.4863
  359MOL0     C48392   6.526   4.105   0.548 -0.7022 -0.6007  0.5469
  359MOL0     C48393   6.678   4.119   0.519  0.5216 -0.1196 -0.0546
  359MOL0     C48394   6.740   3.995   0.470  0.2608  0.0645 -0.4560
  359MOL0     C48395   6.790   3.894   0.423 -0.8711  0.7128  0.8752
  359MOL0     C48396   6.070   4.252   0.512 -0.6790 -0.6071  0.2914
  359MOL0     C48397   5.955   4.334   0.543  0.3255  0.2707 -0.3630
  359MOL0     H48398   5.494   4.387   0.536  0.1917  1.1345  0.2633
  359MOL0     H48399   5.278   4.488   0.575  1.4845 -1.4300 -0.4101
  359MOL0     H48400   5.103   4.602   0.587  0.3474  1.7233 -0.0937
  359MOL0     H48401   5.089   4.556   0.754  0.6831  0.8802  0.9052
  359MOL0     H48402   4.975   4.759   0.810  2.3317 -2.4779  1.7607
  359MOL0     H48403   4.962   4.808   0.638 -0.1027 -1.0803 -0.7401
  359MOL0     H48404   4.821   4.663   0.576 -0.6660 -0.5911  0.2589
  359MOL0     H48405   4.857   4.542   0.711  1.3713 -0.0167 -0.1807
  359MOL0     H48406   4.756   4.682   0.863 -1.4415  0.4417  0.2899
  359MOL0     H48407   4.707   4.806   0.751 -0.0433  0.0389  1.0580
  359MOL0     H48408   4.538   4.655   0.641 -0.1832  0.7871 -0.9410
  359MOL0     H48409   4.611   4.516   0.730  2.3573  0.8463 -0.6479
  359MOL0     H48410   4.525   4.664   0.939  1.1071 -1.3469 -0.3622
  359MOL0     H48411   4.440   4.749   0.811 -2.1431 -1.9415  1.0469
  359MOL0     H48412   4.339   4.526   0.740  3.5259 -2.6568  0.1006
  359MOL0     H48413   4.410   4.463   0.897  2.3671 -0.1757 -0.3244
  359MOL0     H48414   4.309   4.618   1.034  0.2676 -1.2236 -0.5627
  359MOL0     H48415   4.187   4.510   0.960 -1.8993  1.8862 -2.7605
  359MOL0     H48416   4.124   4.666   0.702 -0.2311 -1.1390  0.9355
  359MOL0     H48417   3.979   4.829   0.614  1.5948  0.6123 -0.0671
  359MOL0     H48418   3.955   4.992   0.691  0.3334  3.1796 -3.6439
  359MOL0     H48419   4.153   4.890   0.501  1.7075  2.1125 -1.1331
  359MOL0     H48420   4.215   5.010   0.616  0.5290 -0.5640 -1.0909
  359MOL0     H48421   4.076   5.183   0.526  1.6008  0.1977 -1.9613
  359MOL0     H48422   3.978   5.066   0.427 -0.5951  0.7130 -0.2403
  359MOL0     H48423   4.189   5.000   0.326  2.8429 -0.1655  0.6963
  359MOL0     H48424   4.271   5.135   0.404 -0.5857  0.1619  0.1290
  359MOL0     H48425   4.304   5.008   0.161 -1.2463  1.8956  2.5877
  359MOL0     H48426   4.417   4.888   0.020  2.1416 -0.7491 -0.9877
  359MOL0     H48427   4.389   4.925  -0.143 -1.1401 -0.7907  1.6007
  359MOL0     H48428   4.537   4.988  -0.067  0.8378 -3.3962 -0.4290
  359MOL0     H48429   4.731   5.284  -0.270 -2.3447 -0.9766  0.8418
  359MOL0     H48430   4.876   5.297  -0.456  2.0174 -2.6018 -0.2836
  359MOL0     H48431   4.839   5.010  -0.796  3.3676 -0.5298 -2.2734
  359MOL0     H48432   4.739   5.145  -0.853  0.1601 -0.3883 -0.5362
  359MOL0     H48433   4.892   5.139  -1.014  0.4954 -0.5753  0.4885
  359MOL0     H48434   4.958   5.261  -0.895  3.6998  1.5787 -3.7903
  359MOL0     H48435   5.064   4.978  -0.883  1.7859 -0.5227 -0.6424
  359MOL0     H48436   5.130   5.128  -0.822  1.2555  0.4311 -1.0708
  359MOL0     H48437   5.132   5.096  -1.123 -2.0822  1.6078  0.7173
  359MOL0     H48438   5.174   5.236  -1.038  1.5220  0.4411  0.5974
  359MOL0     H48439   5.319   4.970  -1.009 -1.1225 -0.1168 -0.7720
  359MOL0     H48440   5.368   5.107  -0.930  1.7825  0.0870 -0.6241
  359MOL0     H48441   5.506   5.060  -1.124 -1.6660 -3.4738  2.5112
  359MOL0     H48442   5.369   5.053  -1.224  1.0507 -1.2713 -0.4044
  359MOL0     H48443   5.483   5.279  -1.057 -0.6164  0.1612  0.3772
  359MOL0     H48444   5.348   5.320  -1.173 -0.0624 -1.2103  0.7436
  359MOL0     H48445   5.641   5.250  -1.212  3.2726  3.3515 -1.8374
  359MOL0     H48446   5.558   5.394  -1.274  0.7446 -0.6953  0.7649
  359MOL0     H48447   4.660   5.014  -0.678  2.3806 -0.2110  0.0453
  359MOL0     H48448   4.484   5.004  -0.481  0.7648  0.3483  0.2531
  359MOL0     H48449   4.280   5.431  -0.099  0.2994 -0.9455 -1.2536
  359MOL0     H48450   4.167   5.414   0.123  1.0796  1.2363  1.0513
  359MOL0     H48451   5.447   4.831   0.734  2.4844  0.4210 -2.1562
  359MOL0     H48452   5.692   4.718   0.698  1.0415 -1.2898 -1.8947
  359MOL0     H48453   6.037   4.611   0.384  2.1838  0.6034  0.9455
  359MOL0     H48454   6.234   4.459   0.316  1.3690 -2.6150  0.9450
  359MOL0     H48455   6.273   4.105   0.549 -3.0199 -0.8949  0.5382
  359MOL0     H48456   6.232   4.031   0.390 -1.7143  0.1050  1.5482
  359MOL0     H48457   6.492   4.085   0.337 -0.2716 -1.8452 -0.8727
  359MOL0     H48458   6.454   3.944   0.447 -0.5189 -0.6985  1.1021
  359MOL0     H48459   6.520   4.037   0.634 -0.2950 -2.0826 -0.5681
  359MOL0     H48460   6.493   4.204   0.583  0.3655  0.2995 -0.8969
  359MOL0     H48461   6.726   4.162   0.607  1.8689 -0.2006 -0.7207
  359MOL0     H48462   6.684   4.198   0.443  0.0471 -1.7344 -1.8270
  359MOL0     H48463   6.823   3.797   0.391 -0.6751 -0.4080  4.1227
  359MOL0     H48464   6.070   4.155   0.561 -1.3329 -0.4870  0.5413
  359MOL0     H48465   5.874   4.298   0.606  0.6419  0.7106  0.2931
  360MOL0     O48466   5.715   8.997  11.118 -0.4442  0.3629 -0.6115
  360MOL0     C48467   5.750   8.879  11.093 -0.2454  0.2627  0.0265
  360MOL0     O48468   5.675   8.771  11.104 -0.3058  0.0464  0.2611
  360MOL0     C48469   5.575   8.755  11.201  0.0338 -0.2952  0.2112
  360MOL0     C48470   5.572   8.828  11.320  0.3821  0.9245  0.0286
  360MOL0     C48471   5.461   8.813  11.409 -0.2502  0.2381  0.1126
  360MOL0     C48472   5.359   8.722  11.379  0.3908 -0.8209  0.4099
  360MOL0     O48473   5.255   8.688  11.462  0.5667 -0.0615  0.3636
  360MOL0     C48474   5.216   8.803  11.554  0.3254 -0.5349  0.9813
  360MOL0     C48475   5.102   8.752  11.635  0.7623 -0.8894  0.4816
  360MOL0     C48476   5.078   8.837  11.756  0.2055 -1.1225 -0.4450
  360MOL0     C48477   4.945   8.808  11.824  0.5423 -0.4914  0.2572
  360MOL0     C48478   4.930   8.891  11.954  0.4764  0.0354  0.1974
  360MOL0     C48479   4.787   8.886  11.995  1.2974  0.1907  0.2641
  360MOL0     C48480   4.755   8.918  12.138 -0.3952 -0.3188 -0.2424
  360MOL0     C48481   4.591   8.941  12.145 -0.4352  0.8165 -0.5503
  360MOL0     N48482   4.559   8.929  12.293  0.0009  0.1191  0.0860
  360MOL0     C48483   4.561   9.030  12.386  0.4824  0.0297  0.0274
  360MOL0     C48484   4.526   8.965  12.500 -0.0128  0.1778  0.3262
  360MOL0     C48485   4.499   9.021  12.633 -0.9624  0.2033  0.4643
  360MOL0     C48486   4.356   9.088  12.635 -0.0730  0.2266 -0.0352
  360MOL0     C48487   4.250   8.974  12.648 -0.8211  0.0168  0.3630
  360MOL0     C48488   4.114   9.036  12.678 -0.2142 -0.2580 -0.8742
  360MOL0     O48489   4.084   9.117  12.567 -0.5763 -0.3523  0.5874
  360MOL0     C48490   3.984   9.209  12.590 -0.4635 -0.0791 -0.7064
  360MOL0     C48491   3.852   9.172  12.621  0.2729  0.6386 -0.1808
  360MOL0     C48492   3.750   9.274  12.625  0.0923  0.3813  0.6130
  360MOL0     C48493   3.600   9.218  12.644 -0.8186  0.2770 -0.2674
  360MOL0     C48494   3.794   9.406  12.614  0.6771 -0.1207  0.1455
  360MOL0     C48495   3.689   9.514  12.618  0.3316  0.3020 -0.0897
  360MOL0     O48496   3.568   9.491  12.553 -0.1271  0.3641 -0.5733
  360MOL0     C48497   3.477   9.582  12.514  0.2459  0.2413 -0.2331
  360MOL0     C48498   3.402   9.658  12.609  0.5868 -0.4048 -0.4576
  360MOL0     C48499   3.309   9.758  12.569  0.0167 -0.1365  0.4809
  360MOL0     C48500   3.277   9.762  12.426  0.1991  0.1250 -0.7964
  360MOL0     O48501   3.190   9.847  12.365  0.5410  0.2931 -0.1680
  360MOL0     C48502   3.078   9.902  12.438 -0.0962  0.1304 -0.8135
  360MOL0     C48503   3.017  10.012  12.355 -0.2117  0.1301  0.3695
  360MOL0     C48504   2.908  10.087  12.437  0.0694  0.2726  0.5884
  360MOL0     C48505   2.863  10.213  12.359  0.3293 -0.0952  1.0501
  360MOL0     C48506   2.729  10.280  12.416 -0.2831  0.2801 -0.5024
  360MOL0     C48507   2.667  10.375  12.308 -0.0397 -0.2627 -0.5893
  360MOL0     C48508   2.545  10.439  12.360  0.2823 -0.0466  0.0611
  360MOL0     C48509   2.489  10.523  12.244  0.1453  0.1637 -0.4825
  360MOL0    Cl48510   2.598  10.662  12.183 -0.0764 -0.0930  0.1031
  360MOL0     C48511   3.349   9.686  12.337 -0.4661  0.7842 -0.0351
  360MOL0     C48512   3.445   9.599  12.379  0.1582 -0.7545  1.0006
  360MOL0     O48513   3.726   9.623  12.658  0.2749 -0.7118 -0.0768
  360MOL0     C48514   3.929   9.439  12.594  0.3178  0.0717  0.1637
  360MOL0     C48515   4.020   9.337  12.575  0.4016  0.9093  0.2298
  360MOL0     N48516   4.525   8.833  12.469  0.3836 -0.8630 -0.5103
  360MOL0     N48517   4.543   8.811  12.347  0.1107  0.6724  0.3413
  360MOL0     C48518   5.351   8.667  11.250  0.3404  0.1053 -0.6929
  360MOL0     C48519   5.463   8.682  11.168 -0.6729  0.8762 -0.6597
  360MOL0     C48520   5.880   8.864  11.019 -0.0819 -0.3231  0.3540
  360MOL0     C48521   5.914   8.740  10.954  0.5659  0.0702  0.7316
  360MOL0     C48522   6.020   8.725  10.872  0.2299 -0.2535  0.5272
  360MOL0     C48523   6.110   8.827  10.854 -0.5074  0.3885 -0.9952
  360MOL0     O48524   6.220   8.823  10.770 -0.4911  0.1321 -0.2320
  360MOL0     C48525   6.243   8.700  10.701  0.5822  0.6029  0.7912
  360MOL0     C48526   6.357   8.710  10.606  0.7567 -0.2787  0.4257
  360MOL0     C48527   6.361   8.604  10.505  0.0587 -0.9431  0.7242
  360MOL0     C48528   6.409   8.456  10.535 -0.4292 -0.5998 -0.8140
  360MOL0     C48529   6.449   8.377  10.414  0.2711 -0.8211 -0.4622
  360MOL0     C48530   6.485   8.334  10.312 -0.0546 -0.8466 -0.4686
  360MOL0     C48531   6.096   8.937  10.933  0.5660  0.1092  0.7704
  360MOL0     C48532   5.981   8.963  11.016 -0.1109  0.5410 -0.3666
  360MOL0     H48533   5.650   8.898  11.351  2.1200 -0.4662 -1.0544
  360MOL0     H48534   5.469   8.867  11.503 -3.8904  0.8715  0.1927
  360MOL0     H48535   5.297   8.818  11.625  1.2548 -2.5133  0.4338
  360MOL0     H48536   5.194   8.896  11.501  2.0617  0.1771  1.4478
  360MOL0     H48537   5.012   8.748  11.573  0.2649 -0.1947  1.1421
  360MOL0     H48538   5.127   8.654  11.676  1.1168  0.0414  2.6435
  360MOL0     H48539   5.141   8.801  11.837 -1.1707 -1.6824  0.4115
  360MOL0     H48540   5.087   8.946  11.746 -2.0618 -0.2095  4.4745
  360MOL0     H48541   4.867   8.851  11.760  0.0296 -1.4700  0.2010
  360MOL0     H48542   4.927   8.701  11.834  2.5308 -0.8075  0.7016
  360MOL0     H48543   4.978   8.838  12.036 -3.2725 -1.7643  1.4525
  360MOL0     H48544   4.972   8.992  11.954  1.7095 -0.4541  0.5534
  360MOL0     H48545   4.741   8.961  11.930 -0.4630 -0.5264  0.6214
  360MOL0     H48546   4.751   8.785  11.977 -2.6520  1.7626 -1.9935
  360MOL0     H48547   4.794   8.851  12.214  0.0438 -0.3179 -0.4630
  360MOL0     H48548   4.802   9.013  12.164 -1.6509 -0.2589  2.0073
  360MOL0     H48549   4.546   8.860  12.088 -1.2533  2.6705 -2.6917
  360MOL0     H48550   4.556   9.036  12.103 -0.7206  2.1171  2.3177
  360MOL0     H48551   4.564   9.139  12.385 -1.5788  0.1102 -0.8483
  360MOL0     H48552   4.513   8.944  12.710  1.2772 -2.2505 -2.1660
  360MOL0     H48553   4.570   9.099  12.661  1.6043 -1.6058 -0.7028
  360MOL0     H48554   4.344   9.150  12.546  2.3711 -1.5338 -1.7151
  360MOL0     H48555   4.365   9.144  12.729  1.1339 -3.8328  2.4925
  360MOL0     H48556   4.276   8.910  12.733 -0.3700 -0.9243 -0.4812
  360MOL0     H48557   4.247   8.915  12.557 -2.6687  1.9905 -0.9721
  360MOL0     H48558   4.118   9.101  12.766 -0.6958  0.8556 -1.6430
  360MOL0     H48559   4.039   8.959  12.696  2.6684 -3.0754  0.0972
  360MOL0     H48560   3.820   9.071  12.647  0.8634  0.4704 -0.0978
  360MOL0     H48561   3.557   9.275  12.727  3.7143  0.7233  2.0869
  360MOL0     H48562   3.548   9.210  12.548 -1.1124  0.7946 -0.1505
  360MOL0     H48563   3.609   9.121  12.695  2.2002 -0.2193 -1.5271
  360MOL0     H48564   3.421   9.660  12.716  2.3835 -1.0680 -0.7212
  360MOL0     H48565   3.255   9.823  12.636 -2.3298 -0.8076 -0.6484
  360MOL0     H48566   3.006   9.829  12.475  0.8908 -0.1938  0.5244
  360MOL0     H48567   3.117   9.957  12.524  0.3022  1.4705 -1.8074
  360MOL0     H48568   3.098  10.079  12.324 -1.2561  1.5410  0.5974
  360MOL0     H48569   2.972   9.963  12.267 -1.1508  0.4479  0.6576
  360MOL0     H48570   2.950  10.123  12.531 -3.1213  0.8420  1.9236
  360MOL0     H48571   2.822  10.019  12.447  0.0870 -0.4744 -2.8562
  360MOL0     H48572   2.949  10.281  12.349 -1.2519  1.6787 -1.8023
  360MOL0     H48573   2.842  10.185  12.255  0.4687 -0.0181  1.0001
  360MOL0     H48574   2.747  10.318  12.517 -2.7425 -0.3987  0.2583
  360MOL0     H48575   2.653  10.203  12.431  0.4461 -0.7434 -1.8637
  360MOL0     H48576   2.740  10.452  12.279 -0.8852  0.7508 -0.1282
  360MOL0     H48577   2.628  10.321  12.222  0.8135 -0.9992 -0.5237
  360MOL0     H48578   2.573  10.499  12.447 -2.2024 -0.6308  1.3627
  360MOL0     H48579   2.475  10.361  12.391  0.4183  0.0733  0.6920
  360MOL0     H48580   2.397  10.575  12.272 -0.0503  0.6036 -1.8556
  360MOL0     H48581   2.461  10.453  12.164  1.1183 -0.2779 -0.4519
  360MOL0     H48582   3.340   9.695  12.229  2.7733 -0.1934 -0.4922
  360MOL0     H48583   3.498   9.544  12.302 -0.5944 -2.8471  1.9094
  360MOL0     H48584   3.959   9.543  12.587 -0.3390  0.2064 -0.7993
  360MOL0     H48585   4.116   9.359  12.529 -0.2218  1.1822 -0.9920
  360MOL0     H48586   5.265   8.603  11.232 -1.3364  0.5242  4.1576
  360MOL0     H48587   5.464   8.619  11.080 -0.8384  1.5917 -1.1924
  360MOL0     H48588   5.847   8.657  10.975  0.9425  0.1798  2.5261
  360MOL0     H48589   6.033   8.628  10.825  0.4824 -0.5276  1.1613
  360MOL0     H48590   6.274   8.627  10.776 -0.7071  0.1656  0.9141
  360MOL0     H48591   6.156   8.662  10.646 -1.2853  2.5029  2.2794
  360MOL0     H48592   6.452   8.716  10.660  0.9941  0.4875 -0.0442
  360MOL0     H48593   6.343   8.804  10.550 -0.9466  1.8710  4.1069
  360MOL0     H48594   6.438   8.643  10.437  1.7115 -0.6796  2.6453
  360MOL0     H48595   6.265   8.594  10.454  0.1672 -1.4265  0.6148
  360MOL0     H48596   6.316   8.417  10.577 -1.7023  0.6595 -2.3941
  360MOL0     H48597   6.488   8.454  10.611 -0.8848 -1.7338 -0.3467
  360MOL0     H48598   6.511   8.302  10.213  0.1783 -0.4573 -0.5322
  360MOL0     H48599   6.158   9.024  10.916  0.3992 -0.0728 -0.9933
  360MOL0     H48600   5.970   9.060  11.064 -3.2235 -0.6900  1.7031
  361MOL0     O48601   8.942   3.274   3.371 -0.5624  0.5532  0.9282
  361MOL0     C48602   9.056   3.291   3.404 -0.1591 -0.3558 -0.4729
  361MOL0     O48603   9.094   3.388   3.483  0.2142 -0.4660 -0.2157
  361MOL0     C48604   9.008   3.478   3.534  0.6400  0.3993 -0.7761
  361MOL0     C48605   9.059   3.611   3.536 -0.2990  0.4867 -0.3990
  361MOL0     C48606   8.983   3.712   3.603  0.0446  0.0494 -0.1217
  361MOL0     C48607   8.853   3.680   3.647  0.1292  1.0991 -0.0536
  361MOL0     O48608   8.777   3.777   3.710 -0.0013 -0.1043 -0.2448
  361MOL0     C48609   8.835   3.836   3.828 -0.2121 -0.8225 -0.1589
  361MOL0     C48610   8.732   3.885   3.926  0.2894  0.6118 -0.9193
  361MOL0     C48611   8.680   4.034   3.921 -0.0685  0.3646 -0.4500
  361MOL0     C48612   8.583   4.074   4.040 -0.4551 -0.5106  0.4439
  361MOL0     C48613   8.501   4.201   4.001 -1.4376 -0.1450  0.4184
  361MOL0     C48614   8.593   4.320   4.021  0.1154  0.1134  1.0585
  361MOL0     C48615   8.525   4.441   3.947  0.1914 -0.3183 -0.1246
  361MOL0     C48616   8.554   4.431   3.801  0.1064  0.2864  0.8106
  361MOL0     N48617   8.688   4.484   3.775 -1.1427  1.0419 -0.3516
  361MOL0     C48618   8.782   4.414   3.698  1.0007 -0.0024 -0.0804
  361MOL0     C48619   8.871   4.507   3.662  0.2342 -0.6796 -0.9231
  361MOL0     C48620   8.989   4.490   3.560  0.5439 -0.0605 -0.5206
  361MOL0     C48621   8.990   4.371   3.475  0.4253 -0.6958 -0.6749
  361MOL0     C48622   9.037   4.235   3.538 -1.5090 -0.1725 -0.4406
  361MOL0     C48623   9.061   4.116   3.449 -0.8761  0.7934 -0.1131
  361MOL0     O48624   8.938   4.064   3.390  0.0314  0.1508 -0.1017
  361MOL0     C48625   8.945   3.947   3.317 -1.2386 -0.8712  0.7485
  361MOL0     C48626   8.823   3.897   3.285 -0.2721 -0.2019 -0.2600
  361MOL0     C48627   8.809   3.766   3.237 -0.0880  0.4340  0.3558
  361MOL0     C48628   8.664   3.714   3.230  0.4520 -1.0001 -0.5638
  361MOL0     C48629   8.931   3.695   3.193  0.0079  0.5440 -0.6217
  361MOL0     C48630   8.929   3.567   3.122  0.6914  0.5004  0.5520
  361MOL0     O48631   8.812   3.544   3.056 -0.1181  0.7236  0.5994
  361MOL0     C48632   8.803   3.419   2.999 -0.4777  0.6515 -0.3269
  361MOL0     C48633   8.773   3.302   3.078 -0.9550 -0.5627 -0.3531
  361MOL0     C48634   8.788   3.178   3.027  0.1146  0.6932 -0.0601
  361MOL0     C48635   8.828   3.156   2.891  0.2645 -0.0883  0.2683
  361MOL0     O48636   8.853   3.038   2.838  0.3830 -0.2880  0.3997
  361MOL0     C48637   8.827   2.913   2.899 -0.2180  0.0860  0.2375
  361MOL0     C48638   8.869   2.809   2.797  0.1903 -0.2441  0.6870
  361MOL0     C48639   8.845   2.659   2.831 -0.0593  0.1175 -0.5540
  361MOL0     C48640   8.840   2.578   2.702 -0.9229 -0.2608 -0.4640
  361MOL0     C48641   8.783   2.442   2.732  0.0855  0.1921  0.1606
  361MOL0     C48642   8.855   2.350   2.833  0.0234  0.1086  0.1769
  361MOL0     C48643   8.820   2.201   2.818  0.4236 -0.6884 -0.7918
  361MOL0     C48644   8.845   2.121   2.947  0.7029 -0.0010 -0.0378
  361MOL0    Cl48645   9.023   2.122   2.999  0.4205  0.3014  0.1329
  361MOL0     C48646   8.852   3.268   2.810  0.7239 -0.1324  0.1089
  361MOL0     C48647   8.824   3.393   2.859  0.1059  0.0352 -0.0518
  361MOL0     O48648   9.031   3.494   3.116  0.6840 -0.1264  0.0998
  361MOL0     C48649   9.055   3.761   3.219  0.3535  0.1173  0.1354
  361MOL0     C48650   9.061   3.882   3.286  0.4388 -0.7948  0.1461
  361MOL0     N48651   8.834   4.626   3.730 -0.2144 -1.1091  0.3070
  361MOL0     N48652   8.721   4.612   3.785  0.4791  0.3369 -0.2243
  361MOL0     C48653   8.803   3.553   3.635  0.1302  0.7743 -1.3948
  361MOL0     C48654   8.876   3.451   3.588  0.3024 -0.0044  0.1739
  361MOL0     C48655   9.165   3.222   3.343  0.6545  0.3297  0.6721
  361MOL0     C48656   9.284   3.192   3.417 -0.4359  0.8944  0.4781
  361MOL0     C48657   9.397   3.121   3.363 -0.5533  0.8327  0.7254
  361MOL0     C48658   9.390   3.074   3.227  0.4990  0.4553 -0.1262
  361MOL0     O48659   9.483   3.004   3.162  0.6907 -0.3391 -0.1054
  361MOL0     C48660   9.619   3.034   3.186 -0.3368  0.1295 -0.2830
  361MOL0     C48661   9.712   2.968   3.090  0.6213  0.2757  0.2582
  361MOL0     C48662   9.848   3.039   3.103  0.4756  0.4637  0.4304
  361MOL0     C48663   9.961   2.983   3.018  0.5668 -0.3038  0.5613
  361MOL0     C48664   9.984   2.837   3.043  0.3986 -0.1886  0.2240
  361MOL0     C48665  10.018   2.730   3.080  1.3346  1.0615  0.3053
  361MOL0     C48666   9.275   3.105   3.152  0.3928  1.0386 -0.0991
  361MOL0     C48667   9.162   3.169   3.209  1.0556  0.3096 -0.3409
  361MOL0     H48668   9.156   3.645   3.501 -0.6687  2.2653  0.2027
  361MOL0     H48669   9.015   3.815   3.612  1.9512 -0.2380 -2.6309
  361MOL0     H48670   8.897   3.760   3.876 -0.2811  0.3352  1.8615
  361MOL0     H48671   8.899   3.922   3.805 -1.1340  0.6907  2.4877
  361MOL0     H48672   8.646   3.818   3.915 -0.5681  1.9758 -3.1568
  361MOL0     H48673   8.776   3.871   4.026 -0.1509  2.8305 -0.3534
  361MOL0     H48674   8.763   4.104   3.922  1.5963 -1.4706 -2.1598
  361MOL0     H48675   8.631   4.045   3.824 -1.1108 -1.0217 -0.1275
  361MOL0     H48676   8.520   3.987   4.063  1.6224 -2.2084  0.0456
  361MOL0     H48677   8.637   4.099   4.131 -1.6257  0.3568  0.9319
  361MOL0     H48678   8.440   4.192   3.911  0.1318  1.7874 -0.9321
  361MOL0     H48679   8.427   4.216   4.081 -2.4984  1.2065 -0.7769
  361MOL0     H48680   8.600   4.338   4.128 -0.9881 -3.2223  1.7978
  361MOL0     H48681   8.696   4.308   3.985 -0.2417  2.9794 -1.3172
  361MOL0     H48682   8.417   4.435   3.961 -0.1433 -2.0177 -2.6979
  361MOL0     H48683   8.565   4.537   3.982  1.1207  0.7526 -3.6901
  361MOL0     H48684   8.485   4.488   3.738  2.5777  0.8498 -1.5209
  361MOL0     H48685   8.536   4.326   3.775 -0.4067 -0.0735  2.4702
  361MOL0     H48686   8.790   4.309   3.674  0.9597  0.3015 -1.4618
  361MOL0     H48687   8.984   4.575   3.491  0.7855 -0.1692 -0.6714
  361MOL0     H48688   9.083   4.493   3.617 -1.0740 -0.6869  2.4025
  361MOL0     H48689   9.046   4.403   3.386  1.6238  1.6013  0.8232
  361MOL0     H48690   8.885   4.355   3.450 -0.5245  0.2008  2.3768
  361MOL0     H48691   8.971   4.200   3.619  0.1840  2.1233  2.0836
  361MOL0     H48692   9.132   4.266   3.581 -2.6927  2.0689  0.7480
  361MOL0     H48693   9.103   4.038   3.514 -0.7285 -0.5905 -1.8143
  361MOL0     H48694   9.133   4.141   3.371 -1.0966 -0.3868 -0.7193
  361MOL0     H48695   8.735   3.948   3.322 -0.9497 -2.3842  1.3691
  361MOL0     H48696   8.605   3.733   3.320 -3.0600 -0.8215 -2.7014
  361MOL0     H48697   8.609   3.763   3.150 -2.5717  1.1840  2.5478
  361MOL0     H48698   8.664   3.604   3.222  0.2741 -1.1884  1.5148
  361MOL0     H48699   8.783   3.299   3.186 -1.1895 -2.1835 -0.3574
  361MOL0     H48700   8.774   3.089   3.087 -0.4575 -1.3022 -2.9352
  361MOL0     H48701   8.896   2.893   2.982 -0.0673 -2.2311 -0.3550
  361MOL0     H48702   8.723   2.897   2.928 -0.4320  1.1606  0.0869
  361MOL0     H48703   8.820   2.835   2.703 -1.4692 -1.1468  1.2565
  361MOL0     H48704   8.977   2.820   2.789  0.2141 -0.9434 -0.0715
  361MOL0     H48705   8.749   2.647   2.881 -0.7970  0.9802 -1.6919
  361MOL0     H48706   8.916   2.632   2.909  0.1471 -0.4518 -0.9311
  361MOL0     H48707   8.785   2.631   2.624 -0.2685  1.1866  0.0173
  361MOL0     H48708   8.942   2.562   2.665  0.5346  1.2339  2.5221
  361MOL0     H48709   8.796   2.399   2.632  1.2298  0.8383  0.0103
  361MOL0     H48710   8.675   2.452   2.745 -0.0498 -1.2281  0.3351
  361MOL0     H48711   8.963   2.357   2.820 -0.1475  1.5700 -0.6472
  361MOL0     H48712   8.818   2.380   2.932 -0.0183 -0.5070  0.3490
  361MOL0     H48713   8.875   2.146   2.743 -0.8590 -0.9321 -1.5870
  361MOL0     H48714   8.717   2.193   2.783 -0.2273 -0.9395  1.0382
  361MOL0     H48715   8.808   2.018   2.944  0.1037  0.1416  1.6725
  361MOL0     H48716   8.792   2.179   3.023 -1.4909  0.9103 -2.1092
  361MOL0     H48717   8.876   3.254   2.705 -0.4171  2.5683 -0.5973
  361MOL0     H48718   8.825   3.476   2.790 -2.2416  1.6430  1.7036
  361MOL0     H48719   9.144   3.724   3.169 -0.3949  0.8969 -1.8756
  361MOL0     H48720   9.155   3.922   3.324  1.3688 -3.5328  0.9521
  361MOL0     H48721   8.702   3.540   3.675  0.7830  0.5268  0.2812
  361MOL0     H48722   8.833   3.352   3.583  0.0190  0.1867 -1.7079
  361MOL0     H48723   9.299   3.226   3.520 -1.4669 -1.7422  1.5780
  361MOL0     H48724   9.495   3.115   3.407 -0.2349  2.4039  0.2988
  361MOL0     H48725   9.635   3.143   3.187 -2.3589  0.4939  1.9628
  361MOL0     H48726   9.655   3.009   3.286  1.3214 -0.7726 -1.0703
  361MOL0     H48727   9.681   2.958   2.986  0.2463  1.8101  0.2050
  361MOL0     H48728   9.728   2.861   3.109  2.7810 -0.5337 -4.6109
  361MOL0     H48729   9.881   3.030   3.207 -1.6781 -3.2588  0.9875
  361MOL0     H48730   9.837   3.140   3.064  2.2032 -0.3485 -2.4479
  361MOL0     H48731  10.057   3.031   3.037  0.0406  0.0330  2.7741
  361MOL0     H48732   9.926   3.001   2.916 -0.4623 -2.9737  0.3508
  361MOL0     H48733  10.060   2.637   3.113  1.7441  0.2974 -2.1103
  361MOL0     H48734   9.293   3.083   3.047  0.7960  2.9098 -0.4657
  361MOL0     H48735   9.070   3.184   3.154  0.4913  0.5121  0.6194
  362MOL0     O48736   3.524   3.013   0.743  0.4999  0.2399 -0.8304
  362MOL0     C48737   3.630   3.031   0.789 -0.0840 -1.0240 -0.3017
  362MOL0     O48738   3.663   3.102   0.902  0.7332 -0.0142 -0.6762
  362MOL0     C48739   3.562   3.134   1.002 -0.3856 -1.1246 -0.0498
  362MOL0     C48740   3.600   3.227   1.098  0.5213  0.1670 -0.0552
  362MOL0     C48741   3.511   3.249   1.203  0.1671 -1.0936 -0.3279
  362MOL0     C48742   3.380   3.196   1.208 -0.1528 -0.3495 -0.0991
  362MOL0     O48743   3.296   3.235   1.306  0.8046  0.0871 -0.0627
  362MOL0     C48744   3.170   3.176   1.331  0.3275 -0.4610  0.7939
  362MOL0     C48745   3.142   3.232   1.469  0.2884 -0.5957  0.4419
  362MOL0     C48746   3.001   3.208   1.520  0.5020  0.7003  0.2126
  362MOL0     C48747   2.974   3.062   1.522  0.6267 -0.4074  0.0867
  362MOL0     C48748   2.857   3.027   1.618  0.0640 -0.3424  0.9761
  362MOL0     C48749   2.832   2.873   1.629  0.0506  0.1278  0.0548
  362MOL0     C48750   2.711   2.862   1.722 -0.8484 -0.2618 -0.2332
  362MOL0     C48751   2.713   2.738   1.808 -0.5353  1.1171 -0.4483
  362MOL0     N48752   2.589   2.718   1.890  0.2206 -0.4935 -0.3267
  362MOL0     C48753   2.581   2.771   2.010 -0.0923 -0.2762 -0.6611
  362MOL0     C48754   2.462   2.715   2.055  0.6074  0.7562 -0.1811
  362MOL0     C48755   2.412   2.723   2.201 -0.2731 -0.5792  0.9165
  362MOL0     C48756   2.351   2.857   2.243  0.1741 -0.1562  0.1858
  362MOL0     C48757   2.232   2.911   2.156  0.5172  0.4842 -0.1283
  362MOL0     C48758   2.122   2.811   2.119 -0.1724  0.5042  0.5157
  362MOL0     O48759   2.056   2.773   2.244 -0.1292  0.1108  0.0238
  362MOL0     C48760   1.923   2.757   2.234 -0.1610  1.6394 -0.1993
  362MOL0     C48761   1.863   2.677   2.144 -0.0726 -1.7787  0.6812
  362MOL0     C48762   1.719   2.655   2.143 -0.8124 -0.0664  0.2389
  362MOL0     C48763   1.675   2.559   2.031 -0.4803  0.0355 -0.4856
  362MOL0     C48764   1.640   2.703   2.244  0.9205  0.4654  0.0805
  362MOL0     C48765   1.494   2.695   2.249  0.2997 -0.4165 -0.2564
  362MOL0     O48766   1.441   2.645   2.367 -0.4566  0.1270 -0.4605
  362MOL0     C48767   1.305   2.659   2.406  0.6415 -0.4342  0.7980
  362MOL0     C48768   1.229   2.543   2.422 -0.0795  0.0478  0.0026
  362MOL0     C48769   1.093   2.552   2.449  1.4466 -0.4804  0.2671
  362MOL0     C48770   1.036   2.676   2.468  1.3252  0.2966  0.2937
  362MOL0     O48771   0.897   2.675   2.496  0.2714 -0.0299  0.5915
  362MOL0     C48772   0.849   2.801   2.544  0.8031 -0.2187 -0.1145
  362MOL0     C48773   0.687   2.808   2.541 -1.0276 -1.0209 -0.5542
  362MOL0     C48774   0.634   2.954   2.586  0.5891  0.8906 -0.3267
  362MOL0     C48775   0.477   2.961   2.555  0.3538 -0.4359 -0.2688
  362MOL0     C48776   0.398   3.086   2.605 -0.1502  0.0180  0.2258
  362MOL0     C48777   0.255   3.081   2.586  0.0205  0.3837 -1.1922
  362MOL0     C48778   0.196   3.227   2.613  0.0049  0.1851 -0.4919
  362MOL0     C48779   0.050   3.218   2.658  0.0186  0.1889 -0.2091
  362MOL0    Cl48780  -0.019   3.377   2.646  0.4552  0.3007  0.2461
  362MOL0     C48781   1.119   2.795   2.464  0.2961  0.5806  0.3307
  362MOL0     C48782   1.252   2.788   2.428 -0.0060 -0.7549  0.1938
  362MOL0     O48783   1.436   2.750   2.154  1.0633 -0.3922 -0.2060
  362MOL0     C48784   1.708   2.787   2.337  0.3847  0.1339 -0.0019
  362MOL0     C48785   1.846   2.821   2.329  0.6083 -0.4801 -0.0471
  362MOL0     N48786   2.403   2.634   1.956  0.5951 -0.2164  0.1256
  362MOL0     N48787   2.477   2.646   1.855  0.2791 -0.3443 -0.4282
  362MOL0     C48788   3.340   3.104   1.108 -0.4546 -0.4428  0.4015
  362MOL0     C48789   3.434   3.062   1.010 -0.3134 -0.1722 -0.0508
  362MOL0     C48790   3.744   2.999   0.692  0.9355  0.8616 -0.4059
  362MOL0     C48791   3.734   3.048   0.572  0.0833 -0.0320  0.9579
  362MOL0     C48792   3.834   3.027   0.475  0.8751 -0.0468  0.5481
  362MOL0     C48793   3.950   2.945   0.506 -0.0677  0.0945 -0.5756
  362MOL0     O48794   4.050   2.929   0.419 -0.1169 -0.4265  0.6015
  362MOL0     C48795   4.016   2.880   0.285 -0.1186 -1.1535  0.1779
  362MOL0     C48796   3.993   2.731   0.290 -0.2093 -0.3552 -0.7213
  362MOL0     C48797   4.126   2.643   0.283  0.7219 -1.1773  0.9583
  362MOL0     C48798   4.206   2.648   0.413  0.2602  0.6339 -0.9081
  362MOL0     C48799   4.139   2.561   0.517  0.1586  1.1858 -0.9036
  362MOL0     C48800   4.081   2.482   0.592  0.6480  0.0979 -1.3063
  362MOL0     C48801   3.947   2.895   0.623 -0.2687  0.1977 -0.8520
  362MOL0     C48802   3.860   2.926   0.727 -0.1923 -0.3449  0.3989
  362MOL0     H48803   3.702   3.262   1.102  0.6241  0.0470 -1.2984
  362MOL0     H48804   3.530   3.315   1.288 -0.8688 -3.3178  1.7578
  362MOL0     H48805   3.091   3.206   1.262  1.8623 -0.2901 -0.9621
  362MOL0     H48806   3.179   3.068   1.349 -1.5054 -0.6410  0.8260
  362MOL0     H48807   3.209   3.187   1.543 -0.0680 -1.6449  0.1309
  362MOL0     H48808   3.159   3.340   1.478 -1.6718 -0.2814  0.8884
  362MOL0     H48809   2.996   3.253   1.619 -1.3225  1.8092 -0.3362
  362MOL0     H48810   2.928   3.258   1.457 -0.4369  1.8596  2.1367
  362MOL0     H48811   2.943   3.018   1.427  0.1813  0.3591 -0.1327
  362MOL0     H48812   3.062   3.004   1.548  0.7927 -0.3085 -0.2525
  362MOL0     H48813   2.866   3.083   1.711 -0.7667  2.4914 -0.5258
  362MOL0     H48814   2.769   3.077   1.576  0.2007 -0.6504  0.2969
  362MOL0     H48815   2.807   2.821   1.536  2.0295  1.8710 -1.5506
  362MOL0     H48816   2.917   2.822   1.675  0.8717  1.4611  0.0884
  362MOL0     H48817   2.694   2.955   1.776 -0.2270 -2.1761  3.5548
  362MOL0     H48818   2.635   2.846   1.644  1.1477 -2.2752 -1.9037
  362MOL0     H48819   2.800   2.737   1.874  0.3537 -1.4409 -1.5263
  362MOL0     H48820   2.723   2.648   1.746 -2.7811  0.6818 -0.2494
  362MOL0     H48821   2.648   2.835   2.067 -2.8338  1.3937  0.8747
  362MOL0     H48822   2.338   2.648   2.231 -0.2954 -0.9658 -0.0604
  362MOL0     H48823   2.498   2.715   2.268 -0.8779 -1.1774  1.6405
  362MOL0     H48824   2.429   2.934   2.239  0.8878 -0.8542  0.4892
  362MOL0     H48825   2.324   2.839   2.347  5.1458 -0.8532  1.5926
  362MOL0     H48826   2.283   2.953   2.069  0.6023 -1.0383 -0.8340
  362MOL0     H48827   2.181   2.994   2.205  1.9847  0.9234  0.7272
  362MOL0     H48828   2.159   2.716   2.077 -2.4011  0.4434 -1.5509
  362MOL0     H48829   2.054   2.870   2.057  1.5917  1.7479 -0.3277
  362MOL0     H48830   1.915   2.639   2.057 -3.4775 -0.0414 -2.4198
  362MOL0     H48831   1.570   2.577   2.005  0.0938  0.6043 -2.5818
  362MOL0     H48832   1.724   2.570   1.934 -2.1448 -0.5975 -1.4415
  362MOL0     H48833   1.689   2.458   2.069  2.4265  0.8787  0.9701
  362MOL0     H48834   1.271   2.448   2.390 -0.1849  0.1256 -0.3673
  362MOL0     H48835   1.032   2.462   2.447  0.2356  0.2705  1.8524
  362MOL0     H48836   0.889   2.811   2.645 -0.6858 -1.5637  0.6312
  362MOL0     H48837   0.874   2.889   2.484 -1.6366  0.8193  0.2953
  362MOL0     H48838   0.655   2.795   2.437  2.7989 -2.2390 -1.7603
  362MOL0     H48839   0.644   2.729   2.602  2.9586 -1.8470  1.5404
  362MOL0     H48840   0.694   3.026   2.529  0.3695  0.9876 -0.4357
  362MOL0     H48841   0.669   2.953   2.690  0.4975 -2.4214 -0.2064
  362MOL0     H48842   0.453   2.963   2.449 -1.6730 -0.1312  0.1570
  362MOL0     H48843   0.415   2.882   2.598 -1.7573  0.5992 -1.2814
  362MOL0     H48844   0.437   3.176   2.555 -2.9339  0.8564 -0.6415
  362MOL0     H48845   0.417   3.093   2.712  0.6649 -0.0852  0.0925
  362MOL0     H48846   0.233   3.047   2.485 -1.7805 -1.9399 -0.1142
  362MOL0     H48847   0.208   3.017   2.662 -0.3121 -0.2109 -1.8932
  362MOL0     H48848   0.200   3.289   2.522  0.7156  0.7376 -0.0931
  362MOL0     H48849   0.248   3.281   2.693  2.9665 -1.0960 -1.4224
  362MOL0     H48850   0.049   3.183   2.761  3.3058 -1.2121 -0.5273
  362MOL0     H48851  -0.000   3.142   2.598 -0.4409  0.0879  0.2998
  362MOL0     H48852   1.092   2.898   2.489 -1.5440  0.9232 -2.5767
  362MOL0     H48853   1.315   2.877   2.423 -0.6397 -0.3581 -1.8145
  362MOL0     H48854   1.644   2.824   2.417  0.1504  0.2528 -0.2441
  362MOL0     H48855   1.888   2.888   2.404 -2.7419  0.7711  0.8949
  362MOL0     H48856   3.242   3.058   1.111 -0.2704 -1.0898 -1.8948
  362MOL0     H48857   3.405   2.992   0.932  1.0159  1.1397 -1.7989
  362MOL0     H48858   3.638   3.088   0.540 -0.8321 -2.0064  1.1414
  362MOL0     H48859   3.819   3.073   0.377  1.4112  0.7815  0.8482
  362MOL0     H48860   3.931   2.938   0.248  1.8523  1.5398 -0.4220
  362MOL0     H48861   4.091   2.908   0.211  0.1289  0.1104  0.8813
  362MOL0     H48862   3.936   2.698   0.203  2.8906 -2.1745 -2.2258
  362MOL0     H48863   3.925   2.717   0.374 -2.0669 -0.4999 -2.1952
  362MOL0     H48864   4.194   2.667   0.201  0.8850 -1.1629  1.0934
  362MOL0     H48865   4.100   2.542   0.251 -5.3905  0.8552 -2.0505
  362MOL0     H48866   4.207   2.750   0.453 -2.6839 -0.9117  3.9189
  362MOL0     H48867   4.305   2.609   0.390 -0.2273  0.3082 -2.5938
  362MOL0     H48868   4.028   2.412   0.653 -0.4712  1.6822 -0.4333
  362MOL0     H48869   4.033   2.829   0.637  0.3028  0.7292 -1.8099
  362MOL0     H48870   3.868   2.884   0.827  1.4283 -0.7383  0.1323
  363MOL0     O48871   5.986   9.139   3.388  1.0667  0.0298 -0.3735
  363MOL0     C48872   6.019   9.222   3.305  0.5279 -0.2365 -0.0884
  363MOL0     O48873   5.947   9.334   3.282  0.0741 -0.0232 -0.5569
  363MOL0     C48874   5.827   9.339   3.356 -0.9252  0.0017  0.2197
  363MOL0     C48875   5.828   9.427   3.463  0.8434  0.5607 -0.3078
  363MOL0     C48876   5.701   9.446   3.528 -0.1648 -0.7714 -0.1853
  363MOL0     C48877   5.586   9.392   3.477 -0.7063 -0.0021  0.9788
  363MOL0     O48878   5.473   9.439   3.537  0.1994 -0.0737  0.1876
  363MOL0     C48879   5.343   9.379   3.500  0.6175 -0.5310  0.0938
  363MOL0     C48880   5.240   9.454   3.592  0.0139  0.7086 -0.0784
  363MOL0     C48881   5.109   9.381   3.590  0.5873 -0.2299 -0.2418
  363MOL0     C48882   5.006   9.465   3.672 -0.2999  0.6114 -0.5190
  363MOL0     C48883   4.860   9.408   3.668  0.3075 -0.0205 -0.0547
  363MOL0     C48884   4.770   9.485   3.763 -0.6181 -0.0717  0.0580
  363MOL0     C48885   4.646   9.401   3.766 -0.7991 -0.8860 -0.1027
  363MOL0     C48886   4.526   9.485   3.809  0.3560  0.3954  0.2038
  363MOL0     N48887   4.397   9.405   3.794 -0.5457 -0.1405 -0.0057
  363MOL0     C48888   4.370   9.281   3.730 -0.1369 -0.6194 -0.3315
  363MOL0     C48889   4.234   9.264   3.758  0.0413  0.1846  0.6836
  363MOL0     C48890   4.164   9.139   3.717 -0.4578 -0.1854 -0.7414
  363MOL0     C48891   4.092   9.165   3.576  0.3016 -0.2565 -0.5263
  363MOL0     C48892   4.033   9.031   3.516 -0.2234  0.5642  0.4084
  363MOL0     C48893   4.147   8.940   3.449  0.4871  0.1036  0.4515
  363MOL0     O48894   4.223   9.027   3.353 -0.3476  0.0073  0.0062
  363MOL0     C48895   4.365   9.004   3.346 -0.3503 -0.2737 -0.5570
  363MOL0     C48896   4.437   9.112   3.297  0.6234  0.2326 -0.5237
  363MOL0     C48897   4.572   9.119   3.306  0.2601 -0.3790 -0.5741
  363MOL0     C48898   4.647   9.248   3.290  0.1256 -0.6098  0.3789
  363MOL0     C48899   4.638   9.000   3.346  0.3044 -0.0013 -0.0345
  363MOL0     C48900   4.785   8.977   3.340  0.1666 -0.0446 -0.5481
  363MOL0     O48901   4.857   9.074   3.394  0.3667 -0.0935  0.7581
  363MOL0     C48902   4.994   9.052   3.420 -0.5837  0.5691  0.0949
  363MOL0     C48903   5.091   9.105   3.336 -0.4884  0.9635  0.4929
  363MOL0     C48904   5.234   9.082   3.360  0.1462 -0.4706  0.4178
  363MOL0     C48905   5.265   9.017   3.476  0.1451  0.6513 -0.4172
  363MOL0     O48906   5.397   8.976   3.509 -0.4348 -0.3967  0.5670
  363MOL0     C48907   5.487   8.938   3.401  0.2058  0.1523 -0.0959
  363MOL0     C48908   5.619   8.881   3.445  0.1334  0.7144 -0.2053
  363MOL0     C48909   5.605   8.751   3.538 -0.0080 -1.0498  0.3386
  363MOL0     C48910   5.545   8.638   3.456  0.1688  0.8347 -1.7190
  363MOL0     C48911   5.533   8.505   3.536  1.2350  0.2636  0.3370
  363MOL0     C48912   5.477   8.396   3.455  0.2499  0.9437  0.3249
  363MOL0     C48913   5.460   8.251   3.527  0.3828 -0.0191  0.4446
  363MOL0     C48914   5.345   8.254   3.635 -0.2789  0.0523 -0.6487
  363MOL0    Cl48915   5.185   8.209   3.578  0.0267 -0.3867 -0.2547
  363MOL0     C48916   5.170   8.988   3.569  0.6211 -0.1268 -0.1849
  363MOL0     C48917   5.034   8.993   3.537  0.1543 -0.6097  0.1101
  363MOL0     O48918   4.835   8.875   3.285  0.3496 -0.7143 -0.2769
  363MOL0     C48919   4.567   8.889   3.386 -0.1907 -0.0391  1.1983
  363MOL0     C48920   4.429   8.891   3.398 -0.6291 -0.5132 -0.2849
  363MOL0     N48921   4.186   9.369   3.821  1.4993  0.6784 -0.0776
  363MOL0     N48922   4.279   9.445   3.850 -1.0219 -0.4804 -0.0457
  363MOL0     C48923   5.596   9.315   3.363 -0.1506 -0.2502  0.3558
  363MOL0     C48924   5.711   9.284   3.298  0.0147  0.3242  1.0780
  363MOL0     C48925   6.147   9.217   3.228 -0.7702  0.4138 -0.3774
  363MOL0     C48926   6.205   9.303   3.140  0.2492 -0.3843 -0.2523
  363MOL0     C48927   6.323   9.288   3.074 -1.3755 -0.7072  0.4536
  363MOL0     C48928   6.395   9.171   3.092 -0.0625  0.5879  0.3274
  363MOL0     O48929   6.491   9.148   2.999  0.4615 -0.4141 -0.1833
  363MOL0     C48930   6.557   9.025   2.993  0.2659 -0.0553  0.8633
  363MOL0     C48931   6.487   8.932   2.899  0.4879 -0.3643 -1.0818
  363MOL0     C48932   6.545   8.799   2.865 -0.2072  0.5446  0.6501
  363MOL0     C48933   6.455   8.748   2.760  0.4267 -0.4412  0.1580
  363MOL0     C48934   6.494   8.617   2.714 -0.2266  1.1629  0.7333
  363MOL0     C48935   6.527   8.505   2.671 -0.2686  0.0336 -0.1802
  363MOL0     C48936   6.350   9.073   3.188 -0.1923  0.6740 -0.1634
  363MOL0     C48937   6.223   9.097   3.250 -1.3857  0.6637  0.2538
  363MOL0     H48938   5.917   9.476   3.501  0.8353 -0.6625  1.4337
  363MOL0     H48939   5.703   9.522   3.606 -0.4641 -1.8658  0.9272
  363MOL0     H48940   5.314   9.399   3.397  4.0326  1.9841 -0.5273
  363MOL0     H48941   5.353   9.270   3.514  1.2748 -0.3436  1.2661
  363MOL0     H48942   5.276   9.486   3.690 -4.1505  2.3010  1.1548
  363MOL0     H48943   5.217   9.551   3.547 -2.7856  0.3081  0.3402
  363MOL0     H48944   5.072   9.374   3.488 -0.4135  1.6441 -0.0394
  363MOL0     H48945   5.122   9.284   3.639 -0.4147 -1.1150 -1.6582
  363MOL0     H48946   5.050   9.464   3.772  2.3504  1.4162 -1.5887
  363MOL0     H48947   5.004   9.559   3.617 -0.4420  0.5682 -0.5858
  363MOL0     H48948   4.822   9.399   3.566  1.3942 -3.2776 -0.2907
  363MOL0     H48949   4.863   9.305   3.704 -0.2276 -0.9416 -2.4558
  363MOL0     H48950   4.819   9.502   3.859 -3.0549  1.1530  1.1639
  363MOL0     H48951   4.753   9.587   3.728 -0.2936 -0.1759 -0.4046
  363MOL0     H48952   4.622   9.366   3.665  1.9378 -0.9723 -0.8068
  363MOL0     H48953   4.659   9.318   3.836 -2.0670 -0.2921  0.8902
  363MOL0     H48954   4.524   9.578   3.752  2.3616  0.3513  0.0034
  363MOL0     H48955   4.542   9.521   3.911  2.3090  2.4606 -0.7473
  363MOL0     H48956   4.439   9.209   3.686  0.4017 -0.4516  0.2253
  363MOL0     H48957   4.242   9.062   3.712  1.6751  1.6404  1.9082
  363MOL0     H48958   4.093   9.109   3.794  0.6685 -0.4836  0.2048
  363MOL0     H48959   4.166   9.213   3.512 -1.3163  2.0179 -0.8149
  363MOL0     H48960   4.005   9.232   3.585 -1.1549 -2.0942 -0.2763
  363MOL0     H48961   3.957   9.048   3.439 -0.3342 -0.8875  0.1736
  363MOL0     H48962   3.995   8.967   3.595  0.8858 -1.8512 -0.8942
  363MOL0     H48963   4.099   8.854   3.403  0.1304 -0.8792  2.5379
  363MOL0     H48964   4.211   8.909   3.533 -1.6327 -1.4416  1.5919
  363MOL0     H48965   4.374   9.199   3.285 -0.8442  0.2108  4.4847
  363MOL0     H48966   4.673   9.277   3.393 -3.5529  1.4893  0.9086
  363MOL0     H48967   4.741   9.248   3.234  1.4479 -2.4207  2.4329
  363MOL0     H48968   4.575   9.318   3.248 -1.5016 -2.3343  0.1748
  363MOL0     H48969   5.051   9.155   3.248  2.6375  1.9293 -0.5255
  363MOL0     H48970   5.314   9.118   3.296  1.3785 -0.5789  1.8190
  363MOL0     H48971   5.435   8.875   3.329  2.0533 -2.7035  0.8883
  363MOL0     H48972   5.518   9.029   3.348 -1.2272 -0.3218 -1.8438
  363MOL0     H48973   5.688   8.858   3.364  2.8254 -0.0327  2.1270
  363MOL0     H48974   5.680   8.951   3.503  2.4455 -0.1710 -1.4307
  363MOL0     H48975   5.543   8.766   3.627  2.0459 -1.7098  1.9663
  363MOL0     H48976   5.708   8.722   3.558  0.1355 -2.0310 -1.6701
  363MOL0     H48977   5.447   8.674   3.424 -0.5089 -0.1480 -0.8140
  363MOL0     H48978   5.602   8.608   3.367  1.2796 -1.8604 -0.2170
  363MOL0     H48979   5.474   8.527   3.626 -1.4137 -1.1621 -0.9316
  363MOL0     H48980   5.631   8.476   3.575  1.7962  2.0592  0.3510
  363MOL0     H48981   5.383   8.429   3.409 -0.4542 -1.0093  0.2686
  363MOL0     H48982   5.543   8.388   3.369 -1.4255  2.7585 -1.2273
  363MOL0     H48983   5.555   8.233   3.577 -0.3050  3.9565  3.7152
  363MOL0     H48984   5.427   8.183   3.448  0.4068 -0.9600  1.2320
  363MOL0     H48985   5.350   8.348   3.691  3.6365 -0.0213 -0.5655
  363MOL0     H48986   5.377   8.185   3.714 -0.4278 -0.0982 -0.7211
  363MOL0     H48987   5.199   8.940   3.662  1.4171 -0.7227 -0.7255
  363MOL0     H48988   4.962   8.953   3.608 -1.1779 -1.0249 -1.4190
  363MOL0     H48989   4.620   8.801   3.421 -0.2457 -1.0149 -1.0310
  363MOL0     H48990   4.374   8.812   3.448 -1.6446  0.8905  0.9328
  363MOL0     H48991   5.503   9.282   3.317  1.6111 -3.5449 -1.1607
  363MOL0     H48992   5.712   9.211   3.217  2.4028  1.1786  0.2440
  363MOL0     H48993   6.150   9.395   3.124 -2.3794 -1.5647  1.4352
  363MOL0     H48994   6.352   9.359   2.997 -0.4834  1.6727  2.8724
  363MOL0     H48995   6.660   9.036   2.958 -0.7392  2.5991 -1.6049
  363MOL0     H48996   6.579   8.986   3.094 -2.7872 -0.0829  1.6062
  363MOL0     H48997   6.451   8.991   2.814 -1.0891  0.6591  0.2271
  363MOL0     H48998   6.396   8.893   2.946 -0.1929 -1.6844 -3.3795
  363MOL0     H48999   6.543   8.729   2.949  1.9686 -0.2038  0.1321
  363MOL0     H49000   6.645   8.798   2.822 -0.5316 -3.9998 -0.5913
  363MOL0     H49001   6.467   8.819   2.677  0.2112  0.4358  0.8591
  363MOL0     H49002   6.349   8.742   2.787  0.7539 -2.4469  1.1835
  363MOL0     H49003   6.553   8.406   2.639  3.5827  0.3324  1.4137
  363MOL0     H49004   6.406   8.980   3.201  0.8181  0.7493 -3.2142
  363MOL0     H49005   6.183   9.015   3.309  1.2771  0.1786  1.5698
  364MOL0     O49006   4.154   7.351   6.802 -1.0077 -0.1806  0.7701
  364MOL0     C49007   4.163   7.412   6.910  0.0006 -0.1879  0.0593
  364MOL0     O49008   4.064   7.440   6.994  0.2618  0.0393 -0.5996
  364MOL0     C49009   3.930   7.406   6.979 -0.1446  0.0183 -0.0686
  364MOL0     C49010   3.864   7.368   6.864 -0.5273 -0.3282  0.0645
  364MOL0     C49011   3.733   7.337   6.870 -0.4181  0.0408 -0.4013
  364MOL0     C49012   3.657   7.331   6.989  1.0048  0.5050  0.6748
  364MOL0     O49013   3.527   7.269   6.980 -0.0538 -0.1147 -0.3437
  364MOL0     C49014   3.452   7.242   7.101 -0.5710 -0.8587 -0.3476
  364MOL0     C49015   3.510   7.117   7.153 -0.0557  0.3595  0.1128
  364MOL0     C49016   3.413   7.041   7.227 -0.0974  0.5322 -0.0874
  364MOL0     C49017   3.368   7.108   7.356  0.0507 -0.2075 -0.5052
  364MOL0     C49018   3.346   7.009   7.476  0.0881 -0.0981  1.1870
  364MOL0     C49019   3.219   6.926   7.464 -0.0172 -0.4364  0.5684
  364MOL0     C49020   3.094   7.003   7.469 -0.6613  0.6375  0.4163
  364MOL0     C49021   3.062   7.050   7.606 -0.3505 -0.4518 -0.8730
  364MOL0     N49022   2.921   7.103   7.608  0.7369 -0.3264  0.0963
  364MOL0     C49023   2.812   7.054   7.533  0.3437  0.1935  0.4944
  364MOL0     C49024   2.699   7.117   7.577 -0.8631  0.5827 -0.1076
  364MOL0     C49025   2.560   7.100   7.542  0.6826  0.0607  1.0033
  364MOL0     C49026   2.552   7.132   7.392  0.7035 -0.5475 -0.7988
  364MOL0     C49027   2.624   7.257   7.340  0.9004  0.0689 -0.1407
  364MOL0     C49028   2.598   7.280   7.192  0.2434 -0.0160  0.4812
  364MOL0     O49029   2.632   7.412   7.153  0.4590 -1.0431 -0.6652
  364MOL0     C49030   2.766   7.448   7.129  0.1487  0.3535  0.6365
  364MOL0     C49031   2.865   7.356   7.130  0.5660 -0.6266 -0.0456
  364MOL0     C49032   2.999   7.386   7.105  0.3082 -0.7449 -0.1323
  364MOL0     C49033   3.086   7.271   7.138 -0.3826  0.0583 -1.1881
  364MOL0     C49034   3.027   7.521   7.054 -0.3831  0.0821  0.0614
  364MOL0     C49035   3.166   7.555   7.006  0.1967 -0.4183 -0.0085
  364MOL0     O49036   3.186   7.679   6.947 -0.6991 -0.1154  0.2045
  364MOL0     C49037   3.314   7.706   6.909 -0.6132  0.0137  0.0478
  364MOL0     C49038   3.360   7.837   6.943 -0.5409 -0.7600 -0.4414
  364MOL0     C49039   3.492   7.875   6.902 -0.4890  0.0595 -0.1793
  364MOL0     C49040   3.575   7.794   6.827 -1.0629  0.5402 -0.3678
  364MOL0     O49041   3.702   7.842   6.802  0.1701 -0.3211 -0.0638
  364MOL0     C49042   3.811   7.740   6.803  1.1389  1.3684 -0.3942
  364MOL0     C49043   3.952   7.800   6.785  0.4034 -1.1518  0.1939
  364MOL0     C49044   3.977   7.913   6.888 -1.3075  0.7344 -0.2874
  364MOL0     C49045   4.121   7.959   6.885  0.7935 -0.6217  0.2903
  364MOL0     C49046   4.121   8.114   6.914  0.2203  0.2178  0.3784
  364MOL0     C49047   4.261   8.175   6.913 -0.9923  0.5045  0.2917
  364MOL0     C49048   4.258   8.321   6.962  0.1945 -0.1333 -0.2387
  364MOL0     C49049   4.389   8.376   7.017 -1.0578 -0.3386  0.7305
  364MOL0    Cl49050   4.455   8.517   6.918  0.0546  0.0702  0.1109
  364MOL0     C49051   3.526   7.666   6.791 -0.3002 -0.0828  0.4032
  364MOL0     C49052   3.394   7.629   6.831 -1.1836  0.4990 -0.0130
  364MOL0     O49053   3.256   7.469   7.034 -0.3936 -1.2045  0.0978
  364MOL0     C49054   2.926   7.617   7.053 -0.3437  0.7002  0.5337
  364MOL0     C49055   2.799   7.581   7.090  0.7833  0.2810  0.2789
  364MOL0     N49056   2.741   7.205   7.673 -0.2420  0.3185 -0.1291
  364MOL0     N49057   2.869   7.203   7.684 -0.6321  0.5286  0.4720
  364MOL0     C49058   3.721   7.374   7.103  0.3057 -0.1449  0.4656
  364MOL0     C49059   3.854   7.412   7.097 -0.7576 -0.4225 -0.2826
  364MOL0     C49060   4.306   7.454   6.951  0.2525  1.0272 -0.9915
  364MOL0     C49061   4.333   7.529   7.066  0.2817  0.2342  0.6237
  364MOL0     C49062   4.460   7.563   7.108  0.1632 -0.2002 -0.2134
  364MOL0     C49063   4.571   7.519   7.032 -0.3739  0.0143  0.1559
  364MOL0     O49064   4.691   7.558   7.090 -0.3140 -0.3999  0.5901
  364MOL0     C49065   4.820   7.509   7.027  0.1633  0.1039 -0.9729
  364MOL0     C49066   4.932   7.532   7.122  0.6905 -0.7922 -0.1451
  364MOL0     C49067   4.962   7.683   7.148  0.0465 -0.0226  0.7732
  364MOL0     C49068   5.093   7.705   7.223 -0.1780 -0.1659  0.5403
  364MOL0     C49069   5.138   7.847   7.234 -0.4032 -0.9369  0.0016
  364MOL0     C49070   5.179   7.961   7.271 -0.1236  0.8627  0.8344
  364MOL0     C49071   4.546   7.438   6.917 -1.0770 -0.4058  0.5989
  364MOL0     C49072   4.423   7.406   6.878  0.2662  0.6500  0.0671
  364MOL0     H49073   3.919   7.367   6.771  1.7789 -2.2540  1.3526
  364MOL0     H49074   3.682   7.304   6.780  0.5852 -0.6163 -0.7485
  364MOL0     H49075   3.461   7.325   7.171 -0.3571 -1.1461 -0.0316
  364MOL0     H49076   3.345   7.239   7.080 -1.0883 -0.5450  2.0205
  364MOL0     H49077   3.553   7.054   7.075  3.5299  0.1463  2.0357
  364MOL0     H49078   3.596   7.146   7.214 -1.2781  2.7467  0.8358
  364MOL0     H49079   3.328   7.006   7.168  2.6291 -3.2810 -2.2369
  364MOL0     H49080   3.452   6.945   7.264  3.6414  2.2713  0.9477
  364MOL0     H49081   3.445   7.179   7.389  1.2821 -1.6629 -0.1462
  364MOL0     H49082   3.274   7.161   7.335  1.3649  1.3177 -3.0908
  364MOL0     H49083   3.424   6.931   7.476 -1.3123 -1.6073 -0.5831
  364MOL0     H49084   3.361   7.070   7.566  3.6042 -0.0074  0.6630
  364MOL0     H49085   3.228   6.877   7.367 -0.2772 -1.8955  1.2454
  364MOL0     H49086   3.226   6.851   7.544  1.2795 -0.2265  0.6724
  364MOL0     H49087   3.082   7.084   7.396 -0.3706 -0.1554 -0.5360
  364MOL0     H49088   3.023   6.926   7.440 -1.2235  1.8769 -1.7496
  364MOL0     H49089   3.130   7.129   7.638 -0.8161  0.2952 -1.6743
  364MOL0     H49090   3.075   6.967   7.677 -0.9545 -0.4284 -0.7231
  364MOL0     H49091   2.814   6.967   7.468 -1.4534 -0.9518  1.8913
  364MOL0     H49092   2.528   6.995   7.549 -2.7188  1.0357  2.0075
  364MOL0     H49093   2.482   7.153   7.596 -0.4222 -0.5986  0.0999
  364MOL0     H49094   2.447   7.150   7.368  0.2075 -1.6535  0.4102
  364MOL0     H49095   2.588   7.045   7.336 -2.2461 -3.3807  1.3221
  364MOL0     H49096   2.733   7.269   7.340  0.8714  2.0177 -4.2519
  364MOL0     H49097   2.576   7.343   7.388  0.4738 -0.1539 -0.1662
  364MOL0     H49098   2.497   7.261   7.155  0.8903  0.2636 -1.5366
  364MOL0     H49099   2.648   7.204   7.132 -2.5656 -0.4314 -1.5262
  364MOL0     H49100   2.840   7.252   7.146  1.3833 -0.6989  0.8935
  364MOL0     H49101   3.144   7.250   7.047  1.0103  0.2228 -0.3575
  364MOL0     H49102   3.144   7.304   7.224 -2.2682  1.1474 -0.2800
  364MOL0     H49103   3.030   7.182   7.167 -3.8408  1.9721 -1.4177
  364MOL0     H49104   3.306   7.896   7.016  2.0832 -1.7004  2.5267
  364MOL0     H49105   3.530   7.971   6.937 -0.5570  0.3967 -1.0085
  364MOL0     H49106   3.823   7.697   6.903  2.5007 -0.9116 -1.4638
  364MOL0     H49107   3.787   7.663   6.730  0.1393  1.1528  0.1462
  364MOL0     H49108   4.035   7.730   6.797 -0.2967 -1.6756  2.6045
  364MOL0     H49109   3.967   7.848   6.688  1.2184  0.8154  1.2359
  364MOL0     H49110   3.970   7.866   6.987  3.2530 -1.5353 -0.7826
  364MOL0     H49111   3.898   7.988   6.882  0.1868  3.2910  5.2207
  364MOL0     H49112   4.174   7.899   6.960 -0.6661 -1.9066  0.3405
  364MOL0     H49113   4.170   7.939   6.789  2.9119  0.6005  1.0396
  364MOL0     H49114   4.077   8.127   7.013 -3.2566 -1.0127 -0.8549
  364MOL0     H49115   4.052   8.151   6.839  1.7252 -4.6080 -4.0090
  364MOL0     H49116   4.313   8.114   6.988 -1.3748  1.3262  1.2415
  364MOL0     H49117   4.305   8.177   6.813 -1.5964  0.5760  0.0228
  364MOL0     H49118   4.177   8.334   7.034 -3.1534 -0.4411 -3.6649
  364MOL0     H49119   4.221   8.381   6.878 -0.0870 -1.0756 -0.8096
  364MOL0     H49120   4.467   8.299   7.018  0.0992  0.7883  0.5671
  364MOL0     H49121   4.368   8.410   7.118 -0.8545  1.7164  0.1277
  364MOL0     H49122   3.582   7.591   6.737 -2.0441 -1.3687  0.2788
  364MOL0     H49123   3.365   7.527   6.810  1.5934  0.1719 -3.3510
  364MOL0     H49124   2.947   7.713   7.009 -1.8592  1.0798  0.5926
  364MOL0     H49125   2.714   7.641   7.059 -1.0256 -1.9385  0.7425
  364MOL0     H49126   3.671   7.393   7.197  1.3808 -1.2465  1.3030
  364MOL0     H49127   3.895   7.451   7.189  0.0376 -1.1116 -0.3254
  364MOL0     H49128   4.241   7.559   7.114 -1.3474 -2.0498 -0.8233
  364MOL0     H49129   4.493   7.618   7.196 -0.6968 -0.8193  0.5129
  364MOL0     H49130   4.806   7.402   7.012 -2.7290 -0.2404  2.7875
  364MOL0     H49131   4.835   7.557   6.930  3.0148  0.2294 -0.5555
  364MOL0     H49132   5.020   7.484   7.077  1.3526  2.0230 -2.1522
  364MOL0     H49133   4.909   7.484   7.218 -1.3129  0.1253 -0.1218
  364MOL0     H49134   4.878   7.725   7.205 -0.2997 -1.3051  1.2465
  364MOL0     H49135   4.972   7.729   7.049  2.9029 -2.6691 -0.3142
  364MOL0     H49136   5.175   7.636   7.200 -1.4965 -1.2678 -1.0437
  364MOL0     H49137   5.077   7.673   7.326  2.4328 -3.3618  0.1255
  364MOL0     H49138   5.212   8.059   7.299  1.9803  0.4755 -0.1270
  364MOL0     H49139   4.615   7.396   6.845 -2.0295 -3.3130  1.2206
  364MOL0     H49140   4.423   7.340   6.792  0.6257  3.2350 -2.0575
  365MOL0     O49141   7.922  10.182   3.519 -0.2404  0.3755  1.0577
  365MOL0     C49142   7.883  10.261   3.432 -0.1433  0.7640 -1.5617
  365MOL0     O49143   7.899  10.249   3.295 -0.1957 -0.7249  0.1615
  365MOL0     C49144   7.991  10.163   3.243  0.0029 -0.7235 -0.9097
  365MOL0     C49145   7.949  10.039   3.188 -0.2750  0.9596 -0.5578
  365MOL0     C49146   8.035   9.945   3.133 -0.9087  0.7167  0.8052
  365MOL0     C49147   8.175   9.970   3.134 -1.1229 -0.3249  0.1629
  365MOL0     O49148   8.268   9.893   3.089  0.2299  0.2488 -0.2798
  365MOL0     C49149   8.288   9.762   3.148 -0.2943 -0.0265 -1.3132
  365MOL0     C49150   8.351   9.665   3.048 -0.4420  0.3567  0.2180
  365MOL0     C49151   8.497   9.707   2.998 -0.1036 -0.0061 -0.9801
  365MOL0     C49152   8.589   9.595   2.956 -0.3946 -0.8988  1.4860
  365MOL0     C49153   8.736   9.656   2.952  0.9697  0.6301 -0.6264
  365MOL0     C49154   8.756   9.784   2.877  0.4947 -0.5420 -1.0144
  365MOL0     C49155   8.705   9.775   2.732  0.0329 -0.0767 -0.1883
  365MOL0     C49156   8.716   9.906   2.661  0.4338  0.2704  0.6567
  365MOL0     N49157   8.658   9.880   2.529  0.5834  0.6629  0.3440
  365MOL0     C49158   8.728   9.840   2.419  0.4080  0.0825  0.5402
  365MOL0     C49159   8.633   9.806   2.328 -0.0130  0.2427 -1.2578
  365MOL0     C49160   8.646   9.746   2.188 -0.0415  0.3948 -0.5106
  365MOL0     C49161   8.573   9.845   2.088  0.2708  0.8846  0.0192
  365MOL0     C49162   8.564   9.790   1.944 -0.3090  0.3678 -0.0918
  365MOL0     C49163   8.503   9.890   1.854  0.4962  1.0513  0.4684
  365MOL0     O49164   8.466   9.835   1.728 -0.0416  0.6206 -0.0089
  365MOL0     C49165   8.342   9.789   1.712  0.1225 -0.4975 -0.0355
  365MOL0     C49166   8.256   9.759   1.812  0.4276  0.0117 -0.2562
  365MOL0     C49167   8.135   9.701   1.789 -0.2042 -0.4747  0.2108
  365MOL0     C49168   8.063   9.648   1.919  0.5195  0.5228  0.1227
  365MOL0     C49169   8.087   9.676   1.659  0.2688 -0.2930 -0.7996
  365MOL0     C49170   7.950   9.631   1.628  0.1687 -0.0617  0.3370
  365MOL0     O49171   7.927   9.551   1.516 -0.1442  0.6326  0.0947
  365MOL0     C49172   7.803   9.504   1.481  0.7992 -0.2185  0.2493
  365MOL0     C49173   7.672   9.537   1.531  0.4178  0.4750  0.0817
  365MOL0     C49174   7.563   9.491   1.455  0.3727  0.0657  1.1612
  365MOL0     C49175   7.571   9.406   1.347 -0.4493  0.0808  0.6953
  365MOL0     O49176   7.456   9.346   1.304 -0.2604 -0.3855 -0.0167
  365MOL0     C49177   7.467   9.284   1.171  0.4570  0.0481  0.0003
  365MOL0     C49178   7.334   9.242   1.095  0.3633  0.1185 -0.0546
  365MOL0     C49179   7.337   9.136   0.987 -0.2066 -0.4825 -0.4670
  365MOL0     C49180   7.427   9.168   0.872 -0.2103  0.3647  1.0965
  365MOL0     C49181   7.399   9.071   0.750 -0.1758  0.3125  0.0508
  365MOL0     C49182   7.519   9.060   0.657 -0.3670  0.0844 -0.0515
  365MOL0     C49183   7.537   9.189   0.582  0.2836 -1.3093  0.0490
  365MOL0     C49184   7.567   9.163   0.433  0.2020  0.0019 -1.4371
  365MOL0    Cl49185   7.717   9.054   0.408  0.0518  0.4175 -0.2161
  365MOL0     C49186   7.701   9.365   1.304  0.6367 -0.0257 -0.2311
  365MOL0     C49187   7.809   9.425   1.365 -0.1626 -0.3896 -0.5264
  365MOL0     O49188   7.865   9.677   1.703 -1.1520 -0.0402  0.7193
  365MOL0     C49189   8.169   9.719   1.550  0.4875  0.1909  0.0896
  365MOL0     C49190   8.294   9.787   1.576  0.0002 -0.5255 -0.5424
  365MOL0     N49191   8.507   9.826   2.387 -0.0606  0.1021 -0.6609
  365MOL0     N49192   8.524   9.862   2.509  0.3837 -1.1797  0.2068
  365MOL0     C49193   8.214  10.095   3.180  0.1856 -0.1778  0.5419
  365MOL0     C49194   8.127  10.193   3.235  0.2535  1.2785 -0.3276
  365MOL0     C49195   7.810  10.379   3.482  1.0461 -0.2813  0.1034
  365MOL0     C49196   7.765  10.405   3.616  0.0344  0.7625  1.6528
  365MOL0     C49197   7.687  10.511   3.645  0.1900  0.6634 -1.1672
  365MOL0     C49198   7.655  10.610   3.547  0.3143  0.8006  0.7553
  365MOL0     O49199   7.571  10.712   3.566  0.3808  0.5687 -0.7170
  365MOL0     C49200   7.524  10.745   3.692 -0.1924  0.1605  0.5185
  365MOL0     C49201   7.389  10.680   3.726  0.3371  0.9428  0.8318
  365MOL0     C49202   7.289  10.721   3.622 -0.0489  0.0908  0.0661
  365MOL0     C49203   7.206  10.854   3.659  0.5095 -0.4660  0.7170
  365MOL0     C49204   7.181  10.933   3.530  0.4751  0.4369  0.1509
  365MOL0     C49205   7.149  10.984   3.429  0.0230 -0.3377  0.2077
  365MOL0     C49206   7.712  10.600   3.421 -0.2703 -0.2288 -1.6825
  365MOL0     C49207   7.784  10.486   3.395 -0.2626  0.4699 -0.0434
  365MOL0     H49208   7.844  10.011   3.184  0.4048 -1.9343 -0.0431
  365MOL0     H49209   7.996   9.854   3.089 -2.3379  1.7462 -0.1645
  365MOL0     H49210   8.346   9.762   3.241 -0.9961 -2.2934 -0.8131
  365MOL0     H49211   8.189   9.722   3.169  0.8945 -1.2809  2.8556
  365MOL0     H49212   8.366   9.566   3.093 -0.6842  0.6370  0.9248
  365MOL0     H49213   8.294   9.663   2.954 -0.5176 -1.6102  0.2543
  365MOL0     H49214   8.464   9.779   2.923 -3.0286 -0.1392  0.0270
  365MOL0     H49215   8.534   9.768   3.081  0.4694 -0.1320 -1.1424
  365MOL0     H49216   8.588   9.506   3.018  1.0838 -1.7406  0.3714
  365MOL0     H49217   8.561   9.562   2.856  2.9016 -0.1133  0.1642
  365MOL0     H49218   8.769   9.675   3.054  0.0748 -0.5487 -0.0949
  365MOL0     H49219   8.808   9.584   2.914 -2.1092 -1.3427 -3.2774
  365MOL0     H49220   8.707   9.869   2.924  1.2069 -0.3844 -0.5433
  365MOL0     H49221   8.862   9.808   2.875  0.8811 -2.1117 -0.7990
  365MOL0     H49222   8.770   9.703   2.681  0.2115 -0.5177  0.6488
  365MOL0     H49223   8.604   9.733   2.729  1.7805 -4.9300  0.3274
  365MOL0     H49224   8.820   9.939   2.665  0.6541 -0.4068  0.7879
  365MOL0     H49225   8.652   9.979   2.711 -1.3199 -0.9200  0.2651
  365MOL0     H49226   8.836   9.842   2.430  0.3460  0.4092  1.1525
  365MOL0     H49227   8.754   9.733   2.177  0.1990 -0.4218  2.2589
  365MOL0     H49228   8.613   9.642   2.181  3.4205 -0.7829 -1.5681
  365MOL0     H49229   8.635   9.935   2.093  0.5778  0.6047  1.8391
  365MOL0     H49230   8.473   9.867   2.125 -1.2603 -0.3002 -3.0270
  365MOL0     H49231   8.500   9.701   1.946 -0.9200  0.8060  0.1706
  365MOL0     H49232   8.664   9.754   1.917  0.6988  1.5616  1.8436
  365MOL0     H49233   8.577   9.967   1.831 -0.6556  1.9894 -0.2058
  365MOL0     H49234   8.420   9.938   1.908 -1.3750  2.0310 -2.9802
  365MOL0     H49235   8.299   9.766   1.911  1.0521 -2.4475 -0.2825
  365MOL0     H49236   7.970   9.701   1.942 -0.5689 -0.3150 -2.1553
  365MOL0     H49237   8.035   9.544   1.903  1.3437  0.6965 -3.0217
  365MOL0     H49238   8.128   9.656   2.007  0.8638  0.6321 -0.1378
  365MOL0     H49239   7.643   9.599   1.616  0.3274 -1.7084  1.7298
  365MOL0     H49240   7.462   9.510   1.488 -0.7805 -1.2647 -1.3313
  365MOL0     H49241   7.527   9.350   1.109  0.7797  0.9844  1.2609
  365MOL0     H49242   7.520   9.192   1.198  0.5375 -0.7482 -2.6308
  365MOL0     H49243   7.268   9.216   1.179  0.9953  0.8693  0.6838
  365MOL0     H49244   7.293   9.330   1.045 -2.3840 -1.4373 -0.7556
  365MOL0     H49245   7.234   9.134   0.951 -0.4175  0.3597  0.0536
  365MOL0     H49246   7.367   9.040   1.031 -1.8063 -0.8077 -0.0166
  365MOL0     H49247   7.404   9.270   0.839  1.8440  0.8741  1.1421
  365MOL0     H49248   7.532   9.184   0.895  0.7965 -0.3710 -2.3681
  365MOL0     H49249   7.310   9.091   0.690 -0.5667 -2.2111 -0.3505
  365MOL0     H49250   7.369   8.972   0.786 -3.6110  0.6187 -1.6180
  365MOL0     H49251   7.605   9.030   0.717 -0.1628  1.3666  0.3493
  365MOL0     H49252   7.492   8.991   0.577  0.7698  0.8739 -1.1472
  365MOL0     H49253   7.612   9.248   0.635  0.0721 -1.4671  0.5335
  365MOL0     H49254   7.444   9.247   0.578  1.7382  1.0924 -1.6713
  365MOL0     H49255   7.567   9.260   0.384  2.9776 -0.1926 -2.0233
  365MOL0     H49256   7.479   9.117   0.389 -0.8029  0.8261 -0.3612
  365MOL0     H49257   7.729   9.304   1.218 -0.0677  0.1815 -0.6127
  365MOL0     H49258   7.906   9.400   1.324 -0.3023  1.4157 -2.1032
  365MOL0     H49259   8.128   9.713   1.449 -3.5496 -0.9652  1.6030
  365MOL0     H49260   8.362   9.816   1.498  1.6052 -0.7723  0.6999
  365MOL0     H49261   8.319  10.115   3.161  0.2275 -1.1351 -0.3471
  365MOL0     H49262   8.161  10.289   3.272 -1.0046  1.6178  0.0067
  365MOL0     H49263   7.773  10.321   3.684  1.2134 -0.2219  0.3477
  365MOL0     H49264   7.647  10.508   3.746  1.7427 -5.5715 -0.3023
  365MOL0     H49265   7.603  10.728   3.765  0.5317 -1.2350 -0.5338
  365MOL0     H49266   7.515  10.854   3.694 -0.6784  0.1185  0.7450
  365MOL0     H49267   7.352  10.694   3.828  0.4116  0.3871  0.9392
  365MOL0     H49268   7.398  10.571   3.715 -0.2763  0.8576  1.1400
  365MOL0     H49269   7.214  10.642   3.621  0.1856 -0.1405  0.3701
  365MOL0     H49270   7.328  10.718   3.520 -1.4113 -2.4017 -0.4586
  365MOL0     H49271   7.262  10.914   3.732 -2.8203  0.8784  2.3928
  365MOL0     H49272   7.114  10.837   3.715 -1.9136  3.8408 -1.4537
  365MOL0     H49273   7.133  11.053   3.349  1.4420  2.4782  2.1958
  365MOL0     H49274   7.714  10.677   3.344  3.0840 -0.6902 -2.2016
  365MOL0     H49275   7.826  10.484   3.295  2.5542 -1.7978  1.0406
  366MOL0     O49276   6.044   4.046   3.024  0.9517 -1.0500 -0.0912
  366MOL0     C49277   6.132   3.980   2.972  0.3490 -0.2754 -0.2327
  366MOL0     O49278   6.118   3.915   2.853 -0.5788 -0.1235 -0.5404
  366MOL0     C49279   6.001   3.914   2.782  0.0885  0.1711 -1.2968
  366MOL0     C49280   5.961   3.802   2.711 -0.6396  0.9220 -0.8404
  366MOL0     C49281   5.861   3.792   2.627  0.2092  0.0085  0.3578
  366MOL0     C49282   5.785   3.905   2.596  0.2891 -0.2375 -0.3340
  366MOL0     O49283   5.673   3.908   2.517 -0.0813 -0.0575 -0.2788
  366MOL0     C49284   5.614   3.789   2.473  0.4829  0.8830 -1.1025
  366MOL0     C49285   5.473   3.825   2.437  0.4728  0.3420 -0.5212
  366MOL0     C49286   5.372   3.723   2.502 -0.2908 -0.4036  0.4194
  366MOL0     C49287   5.231   3.767   2.477  0.2591 -0.0375  0.2319
  366MOL0     C49288   5.126   3.655   2.485  0.7523 -0.1404 -1.2660
  366MOL0     C49289   4.980   3.697   2.503 -0.8053 -0.2658  0.4195
  366MOL0     C49290   4.878   3.591   2.537  0.3373 -0.7903  0.1897
  366MOL0     C49291   4.761   3.669   2.606 -0.6832 -0.0548  0.1384
  366MOL0     N49292   4.647   3.584   2.649  0.0656  0.0834 -0.0973
  366MOL0     C49293   4.518   3.618   2.609  0.9055  1.0265  0.1117
  366MOL0     C49294   4.440   3.531   2.675 -0.2963 -0.3762 -0.0789
  366MOL0     C49295   4.291   3.527   2.671  0.6620 -0.0447  0.2404
  366MOL0     C49296   4.236   3.564   2.808 -0.5624  0.7142 -0.1292
  366MOL0     C49297   4.242   3.724   2.825 -0.5169  0.1027 -0.6920
  366MOL0     C49298   4.143   3.777   2.936  0.6389 -0.1852 -0.7307
  366MOL0     O49299   4.017   3.713   2.929  0.7183 -0.3602  0.0432
  366MOL0     C49300   3.910   3.780   2.990  0.2224  0.9965 -0.1485
  366MOL0     C49301   3.922   3.903   3.058  0.1877  0.8461 -0.4632
  366MOL0     C49302   3.812   3.948   3.128 -0.2762  0.7679  0.0928
  366MOL0     C49303   3.834   4.073   3.205 -0.0422 -1.1484  0.4749
  366MOL0     C49304   3.683   3.883   3.129  0.2133  0.3507 -0.5912
  366MOL0     C49305   3.565   3.922   3.203 -0.0751 -0.3488  0.0701
  366MOL0     O49306   3.469   3.831   3.234  0.5937 -0.6602 -0.2636
  366MOL0     C49307   3.346   3.871   3.275  0.1595  0.2665 -0.2725
  366MOL0     C49308   3.323   3.914   3.407 -0.9270  0.0253 -0.0771
  366MOL0     C49309   3.194   3.946   3.443  0.0681 -0.6576  0.1730
  366MOL0     C49310   3.082   3.936   3.361  0.1527 -0.0210 -0.2149
  366MOL0     O49311   2.957   3.978   3.390  0.8066  0.6621 -0.2354
  366MOL0     C49312   2.958   4.123   3.406 -0.1095 -0.0972 -0.3128
  366MOL0     C49313   2.817   4.175   3.425 -0.1269  0.0184 -0.1527
  366MOL0     C49314   2.737   4.093   3.530  0.8406 -0.6152  0.8735
  366MOL0     C49315   2.604   4.153   3.556  0.4034  0.4581 -0.3926
  366MOL0     C49316   2.523   4.066   3.656 -0.8634 -0.0602  0.8720
  366MOL0     C49317   2.386   4.115   3.657  0.5567 -0.1183 -0.1833
  366MOL0     C49318   2.316   4.022   3.764 -0.0781  0.2350 -0.1330
  366MOL0     C49319   2.269   4.120   3.868 -0.5683 -0.1581 -0.5008
  366MOL0    Cl49320   2.415   4.184   3.957 -0.2648  0.2850 -0.1884
  366MOL0     C49321   3.114   3.899   3.231  0.6123  0.2723  0.3271
  366MOL0     C49322   3.244   3.866   3.188  0.3020  0.2185 -0.3326
  366MOL0     O49323   3.552   4.045   3.228 -0.2954 -0.3341  0.0267
  366MOL0     C49324   3.680   3.764   3.058 -0.2966 -0.5637 -1.5548
  366MOL0     C49325   3.788   3.705   2.987  0.3899 -0.2166  0.2367
  366MOL0     N49326   4.519   3.439   2.738  0.3863 -0.8878 -0.0470
  366MOL0     N49327   4.642   3.478   2.730 -0.4140 -0.7085 -0.4443
  366MOL0     C49328   5.817   4.023   2.662  0.4750  0.3194  0.1086
  366MOL0     C49329   5.930   4.031   2.751 -0.2688  0.8275 -0.6818
  366MOL0     C49330   6.263   3.994   3.032 -0.0478 -0.9979  0.3566
  366MOL0     C49331   6.287   4.081   3.136 -0.0205  0.1742 -0.8364
  366MOL0     C49332   6.420   4.106   3.178  0.2628  0.4865 -0.9698
  366MOL0     C49333   6.524   4.037   3.127 -0.7558  0.2692 -0.6586
  366MOL0     O49334   6.649   4.065   3.170  0.1309 -0.0499  0.0601
  366MOL0     C49335   6.762   4.009   3.103 -1.0595 -0.1146  0.7104
  366MOL0     C49336   6.891   4.040   3.175  0.3451  0.4223 -0.8673
  366MOL0     C49337   6.942   4.177   3.143 -0.6178 -0.4289 -0.1165
  366MOL0     C49338   7.062   4.202   3.239  0.0570 -0.4451 -0.3662
  366MOL0     C49339   7.136   4.324   3.203 -0.0532  0.4342  0.3432
  366MOL0     C49340   7.201   4.421   3.172  0.3883  1.0563  1.0850
  366MOL0     C49341   6.500   3.957   3.023  0.1526  0.5957  0.1947
  366MOL0     C49342   6.378   3.932   2.977  1.3108  0.8316  0.3224
  366MOL0     H49343   6.021   3.713   2.727 -3.1222 -0.9951 -1.6504
  366MOL0     H49344   5.830   3.694   2.592 -4.6979  1.3116  0.2413
  366MOL0     H49345   5.673   3.749   2.390  1.5579 -1.3328  0.6189
  366MOL0     H49346   5.614   3.717   2.555  1.5639  2.2746  0.1605
  366MOL0     H49347   5.462   3.925   2.480 -0.3854 -0.2001  0.5783
  366MOL0     H49348   5.447   3.841   2.332  0.0363  0.6296 -0.3747
  366MOL0     H49349   5.391   3.630   2.447  1.1921 -1.2173  2.2281
  366MOL0     H49350   5.400   3.702   2.605 -2.0703  2.7550  1.6753
  366MOL0     H49351   5.209   3.858   2.535  2.3558  2.2137 -2.2361
  366MOL0     H49352   5.229   3.802   2.374  0.9289  0.2873  0.3237
  366MOL0     H49353   5.138   3.575   2.412  1.0794 -2.9358  1.5966
  366MOL0     H49354   5.146   3.597   2.576  2.2347 -1.7431 -2.5651
  366MOL0     H49355   4.988   3.780   2.574  5.8849 -0.0586  0.0341
  366MOL0     H49356   4.949   3.748   2.411 -0.1107  1.4358  1.0783
  366MOL0     H49357   4.837   3.544   2.447  1.7436 -1.0801 -0.3215
  366MOL0     H49358   4.907   3.514   2.608 -1.0802 -3.5383 -2.0009
  366MOL0     H49359   4.733   3.745   2.533 -5.5010  1.1931  2.8467
  366MOL0     H49360   4.796   3.728   2.691 -0.6749 -0.8863  0.7307
  366MOL0     H49361   4.482   3.702   2.551  1.7054  1.1168 -0.2737
  366MOL0     H49362   4.251   3.592   2.592  0.9777  2.3457  1.9095
  366MOL0     H49363   4.268   3.425   2.640  0.6105 -0.5810  1.9472
  366MOL0     H49364   4.292   3.512   2.886 -1.3697 -1.5250 -0.9615
  366MOL0     H49365   4.136   3.520   2.805 -0.0983 -0.3636 -0.1269
  366MOL0     H49366   4.207   3.757   2.726  0.0874  0.2998 -0.8422
  366MOL0     H49367   4.347   3.750   2.833  0.1951 -1.7610 -2.8101
  366MOL0     H49368   4.143   3.884   2.914 -1.5814  0.2959  1.3000
  366MOL0     H49369   4.191   3.756   3.032  1.8290 -0.0298 -1.2747
  366MOL0     H49370   4.023   3.940   3.072 -0.0425  1.2733  0.0606
  366MOL0     H49371   3.938   4.101   3.222 -0.3532  0.5946 -0.2226
  366MOL0     H49372   3.796   4.158   3.147  1.4482 -0.8662 -0.1393
  366MOL0     H49373   3.793   4.070   3.307  1.0495 -0.2974  0.9605
  366MOL0     H49374   3.404   3.935   3.476 -2.5487 -0.7514  2.1455
  366MOL0     H49375   3.183   3.979   3.546  1.6250 -1.4722  0.6344
  366MOL0     H49376   3.013   4.164   3.491 -1.7848  2.5852 -0.4298
  366MOL0     H49377   3.001   4.164   3.315 -0.8126  0.1722 -0.5308
  366MOL0     H49378   2.811   4.282   3.443  2.3116  0.3997 -1.2945
  366MOL0     H49379   2.770   4.170   3.326 -1.5267  3.7621  0.1768
  366MOL0     H49380   2.789   4.078   3.625  0.4252 -0.6838  1.0923
  366MOL0     H49381   2.711   3.996   3.485  0.5104  0.2974 -1.0008
  366MOL0     H49382   2.613   4.249   3.607  1.7603 -0.2430  0.7575
  366MOL0     H49383   2.558   4.169   3.458  0.1898  1.6829 -0.0990
  366MOL0     H49384   2.579   4.084   3.749  1.2753  3.6275 -0.8707
  366MOL0     H49385   2.528   3.961   3.629  1.4387  0.3328 -0.5240
  366MOL0     H49386   2.371   4.221   3.678 -1.1033 -0.4147  0.3049
  366MOL0     H49387   2.354   4.095   3.554  1.1695  0.5406 -0.5079
  366MOL0     H49388   2.383   3.945   3.804 -0.2378 -0.3089 -0.8765
  366MOL0     H49389   2.228   3.966   3.733  0.5174 -1.2240  0.6907
  366MOL0     H49390   2.212   4.057   3.936  0.7140 -2.7791 -1.7090
  366MOL0     H49391   2.216   4.206   3.827  0.4651  0.0524 -1.4655
  366MOL0     H49392   3.036   3.891   3.156  2.8832  0.0190 -2.1595
  366MOL0     H49393   3.257   3.836   3.084 -1.4944 -0.7320 -0.3245
  366MOL0     H49394   3.591   3.702   3.061  1.4577 -3.2043  0.0399
  366MOL0     H49395   3.785   3.609   2.937  4.4933 -0.5220  0.2736
  366MOL0     H49396   5.773   4.117   2.631  3.6873  2.1904  0.7992
  366MOL0     H49397   5.973   4.126   2.783 -0.8732  1.2195 -1.0244
  366MOL0     H49398   6.202   4.132   3.181  0.8767 -1.5464  3.2500
  366MOL0     H49399   6.447   4.176   3.256  0.0531  0.2110 -0.6464
  366MOL0     H49400   6.764   3.899   3.107  0.1797 -0.0880  1.4884
  366MOL0     H49401   6.778   4.056   3.006 -1.5282 -1.6413 -0.1487
  366MOL0     H49402   6.954   3.963   3.130 -4.0380 -3.2205 -1.4972
  366MOL0     H49403   6.885   4.019   3.282 -1.6195  0.3693 -0.9448
  366MOL0     H49404   6.871   4.256   3.168  0.1391 -0.7911  3.7291
  366MOL0     H49405   6.972   4.190   3.038 -1.3517 -0.0406 -0.2894
  366MOL0     H49406   7.137   4.122   3.242  3.1758  2.2718  0.2820
  366MOL0     H49407   7.014   4.206   3.337 -0.9327  1.4937 -0.8728
  366MOL0     H49408   7.273   4.500   3.155 -1.1268  2.5060  1.1869
  366MOL0     H49409   6.575   3.905   2.964 -0.5464  0.1497 -0.3112
  366MOL0     H49410   6.368   3.856   2.901 -0.9986  0.1424  1.2326
  367MOL0     O49411  10.720   8.871   9.310 -0.4221  0.3981  0.0053
  367MOL0     C49412  10.800   8.929   9.240  1.5415  0.7219  0.4812
  367MOL0     O49413  10.803   9.063   9.221 -0.2267 -0.4175  0.2737
  367MOL0     C49414  10.715   9.160   9.274 -0.2236 -0.1286  0.3492
  367MOL0     C49415  10.593   9.129   9.343  0.2372 -0.2464 -0.1954
  367MOL0     C49416  10.513   9.222   9.398  0.1779 -0.3291 -0.5121
  367MOL0     C49417  10.554   9.354   9.394 -0.4668 -0.1120  0.4690
  367MOL0     O49418  10.480   9.450   9.455 -0.2644  0.0165 -0.0661
  367MOL0     C49419  10.478   9.585   9.413  0.0576 -0.0616  0.7425
  367MOL0     C49420  10.360   9.662   9.477  0.9732 -1.0284  0.7219
  367MOL0     C49421  10.225   9.603   9.438 -0.5577  0.4893 -0.1944
  367MOL0     C49422  10.103   9.673   9.479 -0.0502 -0.9902 -0.6269
  367MOL0     C49423   9.979   9.649   9.405 -0.3040  0.7178 -0.4114
  367MOL0     C49424   9.972   9.734   9.269  0.6029 -0.4453 -1.0870
  367MOL0     C49425   9.943   9.886   9.300 -0.9325 -0.2904 -0.5192
  367MOL0     C49426   9.956   9.981   9.182  0.9181  0.5994  0.8237
  367MOL0     N49427   9.899  10.115   9.208  0.7529 -0.3250 -0.5058
  367MOL0     C49428   9.933  10.207   9.302 -0.8426  0.5421  0.3680
  367MOL0     C49429   9.885  10.330   9.265  0.3508  0.4304 -0.5908
  367MOL0     C49430   9.903  10.461   9.337 -1.0796  0.2181 -0.1789
  367MOL0     C49431   9.772  10.539   9.354  0.0897 -0.6969  0.5018
  367MOL0     C49432   9.686  10.468   9.456  0.2067 -0.0190  0.4474
  367MOL0     C49433   9.547  10.522   9.462 -0.0809  0.7924  0.5649
  367MOL0     O49434   9.472  10.485   9.338 -0.6066 -0.1453 -0.6971
  367MOL0     C49435   9.339  10.503   9.323  0.5501 -0.6356  0.6961
  367MOL0     C49436   9.277  10.558   9.206  0.7053  0.6052 -0.0276
  367MOL0     C49437   9.129  10.563   9.200 -0.8752 -0.9183  0.0875
  367MOL0     C49438   9.079  10.636   9.077  1.5485  0.2417 -0.7618
  367MOL0     C49439   9.050  10.505   9.299  0.7177  0.1519 -0.6668
  367MOL0     C49440   8.896  10.493   9.293 -0.5711  0.3023 -0.5347
  367MOL0     O49441   8.836  10.408   9.386  0.1027 -0.4406 -0.3676
  367MOL0     C49442   8.698  10.394   9.394 -0.6352 -0.1457 -0.2479
  367MOL0     C49443   8.616  10.348   9.291  0.4081 -1.1949  0.6721
  367MOL0     C49444   8.475  10.338   9.305  0.0481  0.3773 -0.8515
  367MOL0     C49445   8.410  10.376   9.422  0.2118  0.0652  0.1801
  367MOL0     O49446   8.275  10.348   9.429 -0.3591  0.1366  0.6186
  367MOL0     C49447   8.202  10.437   9.508  0.4008  0.4189  0.2185
  367MOL0     C49448   8.051  10.406   9.493  0.7165  0.1390 -0.0298
  367MOL0     C49449   8.017  10.289   9.584  0.7442 -0.3347  1.0634
  367MOL0     C49450   7.870  10.281   9.594 -0.2239  0.4847  0.3278
  367MOL0     C49451   7.792  10.176   9.501 -0.3539 -0.2953  0.4067
  367MOL0     C49452   7.656  10.181   9.534  0.2354  1.1902 -0.0517
  367MOL0     C49453   7.594  10.040   9.541  0.1705  0.3663  0.2249
  367MOL0     C49454   7.585   9.966   9.411  0.3683 -0.0223  0.8935
  367MOL0    Cl49455   7.461  10.040   9.314  0.6827 -0.1227  0.4489
  367MOL0     C49456   8.496  10.440   9.517 -0.2475  0.1980  0.8701
  367MOL0     C49457   8.639  10.439   9.513  0.0328 -0.1317  0.7433
  367MOL0     O49458   8.836  10.547   9.204 -0.0937 -0.5699 -0.4632
  367MOL0     C49459   9.113  10.441   9.407 -0.0110  0.2931 -0.1495
  367MOL0     C49460   9.256  10.443   9.418 -0.5251 -0.1544 -0.5769
  367MOL0     N49461   9.809  10.307   9.152 -0.0363 -0.1384 -0.3197
  367MOL0     N49462   9.819  10.184   9.119 -0.1582  0.2082  0.1666
  367MOL0     C49463  10.666   9.389   9.326 -0.3595  0.1621  0.4058
  367MOL0     C49464  10.748   9.296   9.262 -0.0448  0.2912  0.1345
  367MOL0     C49465  10.881   8.848   9.150  0.3593  0.3180  1.0802
  367MOL0     C49466  10.839   8.722   9.107  1.1424  0.8651  0.6770
  367MOL0     C49467  10.918   8.653   9.013  0.4518  0.9903  0.0258
  367MOL0     C49468  11.039   8.706   8.962 -0.1800 -0.2357  0.4000
  367MOL0     O49469  11.106   8.638   8.858 -0.2047 -0.1311  0.6961
  367MOL0     C49470  11.245   8.664   8.834  1.7151  0.3896 -0.2850
  367MOL0     C49471  11.255   8.770   8.713 -0.2501  0.3120 -0.0482
  367MOL0     C49472  11.224   8.709   8.579  0.5714 -0.2713  0.2660
  367MOL0     C49473  11.321   8.599   8.530 -0.2511  0.1305 -0.0308
  367MOL0     C49474  11.452   8.656   8.496 -0.3798  0.2516  0.3585
  367MOL0     C49475  11.556   8.708   8.454  0.3453  0.3789  0.4674
  367MOL0     C49476  11.079   8.832   9.014  0.7272 -0.8926  0.4453
  367MOL0     C49477  10.998   8.895   9.105  0.4318  0.0849 -0.6857
  367MOL0     H49478  10.554   9.027   9.346 -1.0060  0.2213  0.0872
  367MOL0     H49479  10.421   9.199   9.451 -0.6663 -0.5570 -2.0114
  367MOL0     H49480  10.565   9.634   9.458 -1.1738  1.9760  1.0248
  367MOL0     H49481  10.458   9.594   9.306  1.1635  0.3135  0.5495
  367MOL0     H49482  10.367   9.662   9.586 -2.7270 -1.6453  1.0675
  367MOL0     H49483  10.364   9.766   9.445  4.1401 -0.6234  2.0189
  367MOL0     H49484  10.231   9.611   9.329  3.1432  0.5297 -0.1296
  367MOL0     H49485  10.219   9.496   9.461 -0.1796  0.3167 -0.8726
  367MOL0     H49486  10.089   9.645   9.584  1.4051  1.6345  0.3665
  367MOL0     H49487  10.118   9.781   9.488 -3.3914 -0.4719  0.0821
  367MOL0     H49488   9.981   9.546   9.368 -0.9225  0.8299 -0.7862
  367MOL0     H49489   9.898   9.664   9.477 -0.3852  0.2502 -0.3990
  367MOL0     H49490  10.062   9.730   9.207  1.1535  3.4330 -0.8000
  367MOL0     H49491   9.896   9.692   9.204  1.2949  1.9239 -3.6460
  367MOL0     H49492   9.837   9.885   9.330 -1.3581 -1.6043 -1.9204
  367MOL0     H49493  10.011   9.929   9.373 -1.4097 -0.0956 -0.1806
  367MOL0     H49494   9.893   9.933   9.106  0.1486  0.6917  1.3946
  367MOL0     H49495  10.060   9.980   9.149  1.5640 -1.2435  2.7201
  367MOL0     H49496   9.999  10.191   9.386 -1.4984 -1.6982  0.5264
  367MOL0     H49497   9.949  10.442   9.435 -1.2217 -2.2891 -0.5557
  367MOL0     H49498   9.973  10.520   9.277 -1.6959  0.9366 -0.2065
  367MOL0     H49499   9.715  10.538   9.261  0.3202  0.0457  0.3413
  367MOL0     H49500   9.786  10.644   9.379 -2.2318 -0.8408  2.8714
  367MOL0     H49501   9.730  10.469   9.556 -0.7039  0.2191  0.8625
  367MOL0     H49502   9.685  10.361   9.434 -0.5859  0.4305 -2.1442
  367MOL0     H49503   9.556  10.631   9.472 -0.1952  0.7731  0.8932
  367MOL0     H49504   9.497  10.491   9.554 -0.6889 -2.5433 -0.7654
  367MOL0     H49505   9.339  10.580   9.120  1.3881 -0.2610  0.2340
  367MOL0     H49506   9.168  10.672   9.023  1.9273  2.9081  1.4121
  367MOL0     H49507   9.020  10.570   9.013 -3.5577  2.8092  0.8174
  367MOL0     H49508   9.024  10.724   9.111  3.0061  0.6104  0.7775
  367MOL0     H49509   8.668  10.330   9.197  0.1616  4.0730 -0.7603
  367MOL0     H49510   8.420  10.302   9.220 -0.2729 -0.5409 -0.2698
  367MOL0     H49511   8.234  10.417   9.611 -1.8358  0.8200  1.0287
  367MOL0     H49512   8.215  10.545   9.494 -2.2493  0.8871  0.9887
  367MOL0     H49513   7.998  10.497   9.523  0.1967 -0.1021 -0.2087
  367MOL0     H49514   8.018  10.382   9.391 -1.6379 -0.0763  0.7268
  367MOL0     H49515   8.050  10.298   9.688 -3.1616  0.9025  2.3505
  367MOL0     H49516   8.054  10.201   9.532 -0.8442  0.2700 -1.2534
  367MOL0     H49517   7.858  10.237   9.693 -0.6663 -1.5555 -0.5599
  367MOL0     H49518   7.823  10.379   9.587  0.5445  0.7396 -2.4423
  367MOL0     H49519   7.847  10.083   9.519 -0.1584 -0.4092 -0.6850
  367MOL0     H49520   7.794  10.217   9.399  0.0662  0.9482  0.9010
  367MOL0     H49521   7.646  10.221   9.636  1.6039 -4.1246  2.5494
  367MOL0     H49522   7.602  10.245   9.464 -3.1918 -1.6553 -0.2622
  367MOL0     H49523   7.495  10.055   9.583 -0.0352 -2.2819  0.8606
  367MOL0     H49524   7.646   9.978   9.615  0.0639 -0.5033 -0.4117
  367MOL0     H49525   7.565   9.859   9.414 -3.3677  0.2613 -3.2976
  367MOL0     H49526   7.675   9.971   9.349  0.1290 -0.3559  0.5138
  367MOL0     H49527   8.462  10.495   9.604 -1.9664 -0.3710  0.5954
  367MOL0     H49528   8.703  10.480   9.590  1.2096 -0.1459 -0.2052
  367MOL0     H49529   9.049  10.392   9.480  2.1012 -1.3046  0.7526
  367MOL0     H49530   9.293  10.383   9.500 -0.2324  0.5154 -0.2036
  367MOL0     H49531  10.705   9.490   9.336 -0.7880  0.2301  1.5210
  367MOL0     H49532  10.842   9.334   9.222  0.0530 -0.3494 -0.2595
  367MOL0     H49533  10.740   8.693   9.143 -0.3177  0.1486 -3.4131
  367MOL0     H49534  10.882   8.564   8.963  0.5079  0.7529  0.4064
  367MOL0     H49535  11.290   8.710   8.922 -1.1758  0.5720  1.2010
  367MOL0     H49536  11.303   8.572   8.823  0.2895 -0.5196 -0.4912
  367MOL0     H49537  11.356   8.812   8.714 -0.1455  0.6613 -4.9027
  367MOL0     H49538  11.194   8.858   8.734 -2.4957 -0.7921 -1.5317
  367MOL0     H49539  11.230   8.796   8.513 -0.7785  0.2314  0.7841
  367MOL0     H49540  11.121   8.673   8.583  0.7382 -1.4072 -2.7149
  367MOL0     H49541  11.287   8.537   8.446 -0.1897  0.1689 -0.0827
  367MOL0     H49542  11.336   8.533   8.616  0.6696  0.0001 -0.2772
  367MOL0     H49543  11.643   8.764   8.424  0.9904  1.4205  3.8806
  367MOL0     H49544  11.172   8.875   8.979 -0.6928  0.7952 -1.4853
  367MOL0     H49545  11.032   8.990   9.144 -0.6989  0.0560  0.4386
  368MOL0     O49546   1.161   5.982  10.168  0.4709 -0.0659  0.3726
  368MOL0     C49547   1.117   5.988  10.285  1.5178  0.7808 -0.1498
  368MOL0     O49548   1.030   5.909  10.348 -0.0960  0.1680 -0.4533
  368MOL0     C49549   0.957   5.814  10.291  0.7942  0.2140  0.1868
  368MOL0     C49550   0.939   5.779  10.148  0.1106 -0.0305  0.1503
  368MOL0     C49551   0.841   5.689  10.108 -0.3203 -0.1406  0.4647
  368MOL0     C49552   0.769   5.630  10.209  0.8213  0.6924  1.1453
  368MOL0     O49553   0.691   5.526  10.174  0.3464  0.8358 -0.1373
  368MOL0     C49554   0.561   5.490  10.239 -0.6461 -0.1944  0.0406
  368MOL0     C49555   0.446   5.542  10.162  0.3680 -0.4517  0.9702
  368MOL0     C49556   0.301   5.515  10.226 -0.0787 -0.0910 -0.0379
  368MOL0     C49557   0.199   5.588  10.137 -0.6312  0.5409 -1.3382
  368MOL0     C49558   0.055   5.579  10.191  0.0559  0.3056 -0.9475
  368MOL0     C49559  -0.040   5.628  10.096  0.6059  0.4571  0.5159
  368MOL0     C49560  -0.188   5.619  10.149  0.2295 -0.2637  0.0387
  368MOL0     C49561  -0.280   5.680  10.040  0.6926  0.1988  0.1139
  368MOL0     N49562  -0.426   5.690  10.087  1.1486 -0.2580 -0.2847
  368MOL0     C49563  -0.468   5.667  10.218 -0.5067  0.1367  0.5711
  368MOL0     C49564  -0.596   5.713  10.228 -0.8620 -0.4367 -1.1350
  368MOL0     C49565  -0.682   5.750  10.342 -0.5212 -0.1756  0.3662
  368MOL0     C49566  -0.820   5.690  10.344 -0.0518  0.1298 -0.3484
  368MOL0     C49567  -0.911   5.744  10.237 -0.1363  1.1904  0.1366
  368MOL0     C49568  -1.066   5.728  10.277 -0.1121 -0.7085  0.7678
  368MOL0     O49569  -1.107   5.796  10.395  0.0785 -1.2075  0.4203
  368MOL0     C49570  -1.233   5.785  10.431  0.2686  0.4605 -0.5898
  368MOL0     C49571  -1.257   5.830  10.560  0.4649 -0.5161 -0.0272
  368MOL0     C49572  -1.385   5.820  10.602 -0.2876 -0.2066 -0.4187
  368MOL0     C49573  -1.397   5.857  10.749  0.1341  0.0370  0.8901
  368MOL0     C49574  -1.487   5.772  10.523  0.6291  0.1383 -0.7922
  368MOL0     C49575  -1.623   5.751  10.575  0.0382  0.0146 -0.4934
  368MOL0     O49576  -1.679   5.844  10.664 -0.3663  0.2149  0.7539
  368MOL0     C49577  -1.806   5.822  10.700  0.5222 -0.2155  0.4468
  368MOL0     C49578  -1.870   5.701  10.753  0.4609  0.8734  1.1031
  368MOL0     C49579  -1.994   5.699  10.794  0.5512  1.2677 -0.7398
  368MOL0     C49580  -2.076   5.816  10.774 -0.0381 -0.0756 -0.6972
  368MOL0     O49581  -2.214   5.800  10.796  0.1482  0.3071  0.1265
  368MOL0     C49582  -2.276   5.900  10.880 -0.0323  0.2937  0.0717
  368MOL0     C49583  -2.388   5.828  10.950 -0.4337  0.9212  0.9711
  368MOL0     C49584  -2.525   5.822  10.891 -0.1103 -0.2350  0.1790
  368MOL0     C49585  -2.540   5.765  10.759 -0.0307  0.3661 -0.2883
  368MOL0     C49586  -2.685   5.769  10.714  0.5363 -0.9283  1.1259
  368MOL0     C49587  -2.698   5.746  10.562 -0.1480 -0.2984 -0.3754
  368MOL0     C49588  -2.836   5.691  10.517  0.3430 -0.4085 -1.0000
  368MOL0     C49589  -2.952   5.755  10.589  1.1391  0.2562  0.3608
  368MOL0    Cl49590  -3.108   5.706  10.516  0.7084 -0.4494  0.2346
  368MOL0     C49591  -2.019   5.932  10.730  0.3604 -0.1772  0.4864
  368MOL0     C49592  -1.886   5.938  10.694  0.4851  0.0911  0.3430
  368MOL0     O49593  -1.680   5.654  10.521  0.0546  0.1809  0.2300
  368MOL0     C49594  -1.468   5.726  10.391 -0.9163 -0.2792 -0.2131
  368MOL0     C49595  -1.336   5.721  10.351  0.5006  0.9025  0.2561
  368MOL0     N49596  -0.634   5.747  10.099 -0.6457  0.0551  0.0639
  368MOL0     N49597  -0.537   5.722  10.013  0.3065  0.0732  0.5248
  368MOL0     C49598   0.777   5.663  10.343 -0.1285  0.1191 -0.6262
  368MOL0     C49599   0.870   5.758  10.381 -0.6594  0.1568  0.5353
  368MOL0     C49600   1.198   6.083  10.368 -0.6365 -0.6488 -1.3955
  368MOL0     C49601   1.162   6.112  10.498  0.3830  0.1750 -0.2529
  368MOL0     C49602   1.220   6.214  10.574  0.5730  0.1756  0.9038
  368MOL0     C49603   1.332   6.278  10.522  0.6118 -1.2756 -0.4250
  368MOL0     O49604   1.407   6.366  10.600 -0.2475 -0.3912  0.0749
  368MOL0     C49605   1.348   6.456  10.686  0.4912 -0.7153  0.2825
  368MOL0     C49606   1.445   6.546  10.755  0.3551 -0.7041  0.4175
  368MOL0     C49607   1.519   6.475  10.857 -0.0188 -0.0590 -0.9007
  368MOL0     C49608   1.636   6.561  10.923 -0.7070 -0.8013 -0.6830
  368MOL0     C49609   1.583   6.677  10.997 -0.2683 -0.7114  1.0604
  368MOL0     C49610   1.540   6.777  11.046  0.1028 -0.1241 -0.4560
  368MOL0     C49611   1.385   6.245  10.401 -0.0086  0.0603 -0.0001
  368MOL0     C49612   1.320   6.145  10.320 -0.2774  0.6398 -0.4626
  368MOL0     H49613   1.010   5.814  10.074 -0.9843  0.7039 -0.5827
  368MOL0     H49614   0.833   5.664  10.003  1.3280  2.6483 -0.4299
  368MOL0     H49615   0.543   5.383  10.247 -0.1354 -0.2172  1.0303
  368MOL0     H49616   0.561   5.520  10.344  2.3797 -2.7031  0.9200
  368MOL0     H49617   0.453   5.650  10.142 -0.4277 -0.6600 -0.6418
  368MOL0     H49618   0.439   5.498  10.062  0.1559  1.5081  0.0739
  368MOL0     H49619   0.283   5.408  10.236 -1.3535 -0.0365 -1.4630
  368MOL0     H49620   0.305   5.563  10.325  1.4823 -2.2446  1.0044
  368MOL0     H49621   0.239   5.690  10.134 -1.3767  0.8374 -1.3664
  368MOL0     H49622   0.209   5.550  10.035 -0.7867 -1.1958 -0.7550
  368MOL0     H49623   0.024   5.480  10.223 -1.9187  0.5407 -1.9852
  368MOL0     H49624   0.053   5.653  10.271 -0.8464  0.1278 -0.8018
  368MOL0     H49625  -0.020   5.734  10.074  1.1179  0.4934  1.1286
  368MOL0     H49626  -0.024   5.573  10.003  0.4208  1.9392 -0.4298
  368MOL0     H49627  -0.211   5.513  10.167 -1.6759  0.2597  0.9840
  368MOL0     H49628  -0.206   5.666  10.246 -4.2355  0.9352 -1.1636
  368MOL0     H49629  -0.282   5.615   9.952 -3.8948  1.0634 -0.6826
  368MOL0     H49630  -0.257   5.784  10.015  0.9057  0.5031  1.4811
  368MOL0     H49631  -0.392   5.649  10.294 -0.1200 -0.5622  0.0258
  368MOL0     H49632  -0.628   5.722  10.433  0.9869 -1.4317 -0.8631
  368MOL0     H49633  -0.685   5.859  10.348  0.3417 -0.0115 -1.5020
  368MOL0     H49634  -0.866   5.716  10.440 -2.5705 -1.3481 -1.0676
  368MOL0     H49635  -0.806   5.582  10.335  1.0224  0.1836  0.4917
  368MOL0     H49636  -0.875   5.696  10.146 -0.2375 -2.0062  1.6581
  368MOL0     H49637  -0.891   5.852  10.236  2.2770  0.8060  0.6033
  368MOL0     H49638  -1.080   5.619  10.276 -1.4284 -0.6077 -1.9544
  368MOL0     H49639  -1.126   5.773  10.197  0.6110 -1.1765 -0.0491
  368MOL0     H49640  -1.175   5.865  10.622 -1.0089  1.4700  0.9150
  368MOL0     H49641  -1.491   5.912  10.753 -0.4810 -0.6383 -2.0784
  368MOL0     H49642  -1.402   5.771  10.817  3.8945 -0.1293  1.1607
  368MOL0     H49643  -1.315   5.918  10.786  3.0402 -1.4766 -2.4909
  368MOL0     H49644  -1.813   5.609  10.761  0.8464  1.0569  0.5093
  368MOL0     H49645  -2.034   5.602  10.823 -1.0318  2.8103  2.8957
  368MOL0     H49646  -2.208   5.943  10.953  1.5513  0.6346 -1.5270
  368MOL0     H49647  -2.305   5.990  10.825  4.5420  1.6609 -0.4811
  368MOL0     H49648  -2.365   5.721  10.959  1.5421  1.0824 -1.2440
  368MOL0     H49649  -2.383   5.866  11.053  0.8395  2.3499  0.4157
  368MOL0     H49650  -2.580   5.916  10.899 -3.4561 -2.0992  0.9739
  368MOL0     H49651  -2.586   5.760  10.957 -1.5135  0.1218 -0.7346
  368MOL0     H49652  -2.480   5.834  10.699 -2.2104  0.5478 -2.3785
  368MOL0     H49653  -2.498   5.665  10.743  5.3524  2.1903  0.2772
  368MOL0     H49654  -2.744   5.859  10.734 -0.3670 -0.8626 -1.4303
  368MOL0     H49655  -2.741   5.695  10.773 -0.0847 -1.0832  0.3757
  368MOL0     H49656  -2.688   5.843  10.513 -3.2276 -1.3899 -3.6056
  368MOL0     H49657  -2.626   5.670  10.530 -2.2085 -3.1463  1.2656
  368MOL0     H49658  -2.828   5.584  10.539  1.7784  0.1512  1.5717
  368MOL0     H49659  -2.854   5.704  10.410  0.0177  1.5820 -0.7381
  368MOL0     H49660  -2.942   5.863  10.582  3.0601  0.0081 -3.7318
  368MOL0     H49661  -2.953   5.729  10.695  1.7844  1.0919  0.5838
  368MOL0     H49662  -2.075   6.021  10.702  0.6707 -1.2725 -4.7202
  368MOL0     H49663  -1.839   6.030  10.660  0.7297  0.3712  1.3837
  368MOL0     H49664  -1.547   5.698  10.323 -1.7739 -1.1903  1.1164
  368MOL0     H49665  -1.321   5.688  10.249 -0.0341  0.2420  0.3806
  368MOL0     H49666   0.709   5.628  10.419 -1.4908  0.6794 -1.5521
  368MOL0     H49667   0.869   5.790  10.484 -2.5451 -1.1550  0.9759
  368MOL0     H49668   1.077   6.060  10.542  0.0733 -0.1606 -1.2349
  368MOL0     H49669   1.173   6.237  10.669 -1.3885  1.5742 -0.3470
  368MOL0     H49670   1.265   6.513  10.644  1.2845  0.3753  0.1500
  368MOL0     H49671   1.302   6.405  10.772  1.3739  0.6472  1.5997
  368MOL0     H49672   1.391   6.635  10.791  1.5765 -0.1876  1.0226
  368MOL0     H49673   1.504   6.593  10.676 -0.3137 -0.5556 -0.0002
  368MOL0     H49674   1.571   6.390  10.812  2.7989  0.4294  1.2084
  368MOL0     H49675   1.456   6.442  10.940 -0.6701  1.4038 -0.7918
  368MOL0     H49676   1.721   6.581  10.858  2.2726 -1.1327  2.7517
  368MOL0     H49677   1.686   6.494  10.994 -0.9456  1.4262  1.7342
  368MOL0     H49678   1.508   6.871  11.087 -1.6644  0.7116 -3.4603
  368MOL0     H49679   1.479   6.292  10.375  0.3579 -0.2922  0.6707
  368MOL0     H49680   1.350   6.137  10.217  2.8757 -0.4027  0.4287
  369MOL0     O49681   2.747   7.873   2.924 -0.4561 -0.2380  0.1194
  369MOL0     C49682   2.780   7.961   2.850  0.2569  0.1398  0.6541
  369MOL0     O49683   2.692   8.017   2.757 -0.1089  0.6144 -0.3795
  369MOL0     C49684   2.559   8.005   2.768 -0.6867 -0.8746 -0.1449
  369MOL0     C49685   2.491   7.946   2.662 -0.0788 -0.2314 -0.8659
  369MOL0     C49686   2.355   7.914   2.668 -0.3878 -0.1377  0.0427
  369MOL0     C49687   2.281   7.951   2.779  0.5260 -0.3534  0.0169
  369MOL0     O49688   2.143   7.925   2.797  0.4579  0.3078 -1.2929
  369MOL0     C49689   2.075   7.856   2.694  0.0956  0.0399  0.4872
  369MOL0     C49690   1.923   7.875   2.703  1.0808  0.2319 -0.2922
  369MOL0     C49691   1.850   7.855   2.834 -0.2140  0.5266 -0.3015
  369MOL0     C49692   1.884   7.730   2.923  0.0605 -0.4404 -0.2206
  369MOL0     C49693   1.830   7.599   2.864 -0.5941  0.3278 -0.0017
  369MOL0     C49694   1.671   7.593   2.878 -1.3964  0.2373 -0.0564
  369MOL0     C49695   1.613   7.455   2.846  0.1129  0.0311 -0.1276
  369MOL0     C49696   1.456   7.468   2.859 -0.7427 -0.6611 -0.8676
  369MOL0     N49697   1.370   7.366   2.797 -0.2225  0.0355  0.9552
  369MOL0     C49698   1.237   7.358   2.827  0.4100 -0.4049 -0.3697
  369MOL0     C49699   1.195   7.258   2.756  0.0410 -0.0255  0.0961
  369MOL0     C49700   1.051   7.213   2.744  0.6211 -0.1270  0.3908
  369MOL0     C49701   1.037   7.066   2.770 -0.4795  0.1753  0.4466
  369MOL0     C49702   0.895   7.012   2.761  0.1369 -0.4764  0.6897
  369MOL0     C49703   0.891   6.881   2.693  0.0351 -0.2037  0.3540
  369MOL0     O49704   0.763   6.847   2.675  0.0511 -0.0640  0.1231
  369MOL0     C49705   0.725   6.756   2.578  1.2301 -0.1284  0.2047
  369MOL0     C49706   0.801   6.702   2.472 -0.9319  0.4577  0.0363
  369MOL0     C49707   0.752   6.619   2.372  0.1333 -0.3749  0.6259
  369MOL0     C49708   0.844   6.538   2.277 -0.2936  0.2055  0.3532
  369MOL0     C49709   0.613   6.584   2.382  0.2945 -1.0809 -0.0117
  369MOL0     C49710   0.550   6.478   2.299  0.7142  0.1892 -0.6201
  369MOL0     O49711   0.452   6.410   2.364  0.9362 -0.1420 -0.1663
  369MOL0     C49712   0.363   6.332   2.300  1.5246  0.6905 -0.5684
  369MOL0     C49713   0.293   6.366   2.178  0.5179 -1.2329 -0.0963
  369MOL0     C49714   0.202   6.274   2.118 -1.4338  0.2044  0.1494
  369MOL0     C49715   0.192   6.144   2.177  0.0507  0.4292 -0.0280
  369MOL0     O49716   0.104   6.050   2.141  0.4389 -0.5819  0.4623
  369MOL0     C49717   0.053   6.055   2.010 -0.7750  0.8773 -0.6050
  369MOL0     C49718   0.022   5.905   1.980  0.3905  0.0551  0.9965
  369MOL0     C49719   0.145   5.817   1.959 -0.5897  0.9859 -0.5802
  369MOL0     C49720   0.111   5.707   1.855 -1.0890 -0.2027 -0.0701
  369MOL0     C49721   0.190   5.577   1.874  0.2900 -0.1544 -1.3471
  369MOL0     C49722   0.312   5.557   1.788 -0.2784  0.1587 -0.1576
  369MOL0     C49723   0.418   5.666   1.831 -0.3326  0.3112 -0.3523
  369MOL0     C49724   0.554   5.659   1.756  0.3288  0.0614 -0.3967
  369MOL0    Cl49725   0.641   5.514   1.796  0.0402 -0.4303 -0.4069
  369MOL0     C49726   0.254   6.107   2.299 -0.3610 -0.0838 -0.4389
  369MOL0     C49727   0.341   6.201   2.356  0.2280 -0.1211  0.6928
  369MOL0     O49728   0.588   6.453   2.184 -0.4681 -0.4673 -1.0532
  369MOL0     C49729   0.535   6.639   2.489 -0.2404  0.1936  0.4927
  369MOL0     C49730   0.586   6.721   2.584  0.5230  0.2226 -0.0658
  369MOL0     N49731   1.301   7.205   2.683  0.0448 -0.0277  0.2297
  369MOL0     N49732   1.409   7.266   2.716 -0.0434  0.2137 -0.8494
  369MOL0     C49733   2.348   8.012   2.885 -0.2605  0.2708  0.5847
  369MOL0     C49734   2.486   8.034   2.882 -0.4357 -0.2182  0.4805
  369MOL0     C49735   2.914   8.015   2.848 -1.0794  0.8015  0.2763
  369MOL0     C49736   2.998   8.006   2.956  0.3074  1.1445 -0.3664
  369MOL0     C49737   3.121   8.074   2.955  0.3691 -0.7372 -0.5419
  369MOL0     C49738   3.158   8.155   2.852  0.0911  0.2551 -0.4226
  369MOL0     O49739   3.278   8.215   2.863 -0.3148 -0.4789 -0.1809
  369MOL0     C49740   3.375   8.147   2.786 -0.1260 -0.6650 -0.0593
  369MOL0     C49741   3.504   8.221   2.794 -0.7621  0.4069  0.0154
  369MOL0     C49742   3.600   8.201   2.919  0.5599 -0.8627 -0.9507
  369MOL0     C49743   3.704   8.090   2.905  0.3940  0.0979  0.4153
  369MOL0     C49744   3.826   8.134   2.823  0.1730 -0.0333 -0.9657
  369MOL0     C49745   3.915   8.179   2.753 -0.1587  0.1033  0.2426
  369MOL0     C49746   3.074   8.162   2.743 -0.4074  1.0138  0.0536
  369MOL0     C49747   2.959   8.086   2.737  0.2758 -0.3046 -0.3887
  369MOL0     H49748   2.532   7.920   2.565  1.8248  0.5897 -0.3149
  369MOL0     H49749   2.306   7.858   2.590 -2.6118  0.1605  1.1562
  369MOL0     H49750   2.107   7.875   2.591  0.5491 -3.9589 -0.2765
  369MOL0     H49751   2.106   7.751   2.697 -3.5643 -1.2365 -0.8029
  369MOL0     H49752   1.888   7.973   2.670 -0.4051  0.4218  1.6558
  369MOL0     H49753   1.873   7.810   2.631 -2.2268  0.1877  1.8169
  369MOL0     H49754   1.893   7.942   2.885  0.8638 -0.3463  0.3154
  369MOL0     H49755   1.741   7.866   2.826 -0.4459 -1.2757 -0.0793
  369MOL0     H49756   1.993   7.726   2.926  0.0396 -0.8976  1.9312
  369MOL0     H49757   1.852   7.733   3.028  1.8549  1.1790  0.3403
  369MOL0     H49758   1.877   7.591   2.765 -1.4631  3.2261 -0.7524
  369MOL0     H49759   1.864   7.512   2.921  0.5452  0.4180 -0.5157
  369MOL0     H49760   1.651   7.620   2.982  2.7198  0.7298  0.7720
  369MOL0     H49761   1.630   7.670   2.811  1.7003  1.8018 -0.3331
  369MOL0     H49762   1.639   7.436   2.741  1.0855  1.6067 -0.2047
  369MOL0     H49763   1.647   7.374   2.912 -0.6335 -0.2358 -0.0625
  369MOL0     H49764   1.426   7.565   2.819  1.2426 -0.7820 -2.8354
  369MOL0     H49765   1.428   7.472   2.965 -0.5830  3.9059 -0.8070
  369MOL0     H49766   1.188   7.438   2.882  0.0531  1.1374 -2.7892
  369MOL0     H49767   0.981   7.270   2.806  1.2448 -2.8438  3.9501
  369MOL0     H49768   1.026   7.230   2.639 -3.7245 -1.3136  1.0444
  369MOL0     H49769   1.084   7.038   2.865  2.0551  0.2728 -0.6984
  369MOL0     H49770   1.097   7.022   2.690 -0.3343  1.8662 -0.4303
  369MOL0     H49771   0.833   7.088   2.711  0.2306  0.2872  1.7005
  369MOL0     H49772   0.856   7.009   2.863 -0.1072  3.9376  0.9365
  369MOL0     H49773   0.931   6.795   2.749 -0.9285  0.1001  1.5393
  369MOL0     H49774   0.946   6.877   2.598  0.0829  1.8763  0.2525
  369MOL0     H49775   0.909   6.718   2.472 -0.9292  0.6270  1.9355
  369MOL0     H49776   0.945   6.579   2.287  0.4742 -0.9572 -1.8650
  369MOL0     H49777   0.851   6.432   2.304 -0.9910 -0.2880 -1.2827
  369MOL0     H49778   0.818   6.533   2.171 -0.7482 -1.3178  0.5161
  369MOL0     H49779   0.299   6.467   2.141 -2.3955 -0.4770  1.2085
  369MOL0     H49780   0.156   6.302   2.024 -1.5627  0.1956  0.2090
  369MOL0     H49781  -0.037   6.116   1.996 -1.1681  0.2217 -0.9791
  369MOL0     H49782   0.131   6.087   1.941  0.6565  0.9921  0.9805
  369MOL0     H49783  -0.033   5.871   2.068 -4.2769  2.5372 -0.6322
  369MOL0     H49784  -0.048   5.894   1.898 -0.0654  0.3954  1.3337
  369MOL0     H49785   0.166   5.776   2.059 -1.4785  2.8208  0.4138
  369MOL0     H49786   0.236   5.866   1.924 -0.4434 -0.2957 -2.1404
  369MOL0     H49787   0.003   5.693   1.852 -1.3320  1.5523 -1.2176
  369MOL0     H49788   0.143   5.756   1.762  0.2842  1.1991  1.0811
  369MOL0     H49789   0.123   5.492   1.855  0.1229 -0.5200  0.6504
  369MOL0     H49790   0.227   5.570   1.977 -0.3063 -0.6719 -1.1569
  369MOL0     H49791   0.356   5.457   1.799 -1.3204 -0.7287 -3.1357
  369MOL0     H49792   0.284   5.567   1.683 -1.2343  2.0500  0.2347
  369MOL0     H49793   0.442   5.659   1.938 -1.5765 -0.7493 -0.1230
  369MOL0     H49794   0.380   5.766   1.811  0.7319  1.1043  1.3536
  369MOL0     H49795   0.612   5.752   1.759  0.6252 -0.1329 -0.1410
  369MOL0     H49796   0.532   5.645   1.650 -0.5304 -1.3360 -0.0563
  369MOL0     H49797   0.243   6.005   2.333  1.1860 -0.1081  0.0881
  369MOL0     H49798   0.408   6.177   2.438 -0.7202  0.5170  1.6759
  369MOL0     H49799   0.433   6.607   2.506 -0.4352 -0.2683 -1.3055
  369MOL0     H49800   0.519   6.736   2.668  0.6438 -2.7524  0.6686
  369MOL0     H49801   2.297   8.029   2.980 -0.2397 -4.0558  1.6262
  369MOL0     H49802   2.525   8.082   2.971 -0.7738  0.9468  0.0105
  369MOL0     H49803   2.981   7.958   3.052 -1.1577  1.1774 -0.5889
  369MOL0     H49804   3.191   8.079   3.037  0.7860 -2.3621 -0.7649
  369MOL0     H49805   3.380   8.052   2.840  0.0115 -0.1667  0.8315
  369MOL0     H49806   3.346   8.140   2.681  1.5690  0.4733 -0.6592
  369MOL0     H49807   3.483   8.328   2.793 -0.3204  0.5563 -2.5643
  369MOL0     H49808   3.552   8.210   2.696 -0.7203 -0.1729  0.0972
  369MOL0     H49809   3.531   8.186   3.003  0.6642  0.5763 -0.5860
  369MOL0     H49810   3.648   8.298   2.934 -0.8326 -0.3084  0.1975
  369MOL0     H49811   3.662   8.011   2.843  1.5952  1.2981 -2.0923
  369MOL0     H49812   3.733   8.055   3.005 -0.4178  0.3214  0.7422
  369MOL0     H49813   3.995   8.215   2.691 -1.8023  3.2725 -0.2382
  369MOL0     H49814   3.118   8.202   2.653  0.3933 -1.4627 -0.7562
  369MOL0     H49815   2.900   8.088   2.646  1.8032  1.4730 -1.4073
  370MOL0     O49816   2.700   2.737   8.452  0.0228  0.0379 -0.1600
  370MOL0     C49817   2.741   2.632   8.496  0.7556 -0.6533  0.5100
  370MOL0     O49818   2.652   2.532   8.540 -0.0041 -1.3802 -0.2835
  370MOL0     C49819   2.518   2.537   8.511  0.1230  0.5210 -0.2858
  370MOL0     C49820   2.459   2.572   8.391 -0.0521  0.4815  0.0568
  370MOL0     C49821   2.325   2.544   8.366 -0.1270 -0.3664  0.3128
  370MOL0     C49822   2.237   2.503   8.463 -0.0052  0.0127 -0.1824
  370MOL0     O49823   2.105   2.475   8.448  0.4577 -0.0959 -0.6166
  370MOL0     C49824   2.038   2.501   8.327  0.1850  0.0543  0.2089
  370MOL0     C49825   1.882   2.502   8.363 -0.2900 -0.7453 -0.0085
  370MOL0     C49826   1.798   2.505   8.235 -0.3106 -0.2445 -0.0298
  370MOL0     C49827   1.649   2.475   8.257  0.8742  0.8044  0.1099
  370MOL0     C49828   1.574   2.504   8.123 -0.4581  0.0778 -0.6089
  370MOL0     C49829   1.461   2.406   8.095 -0.3367  0.2598 -0.5208
  370MOL0     C49830   1.368   2.434   7.976 -0.2864  0.9693 -0.1056
  370MOL0     C49831   1.239   2.525   8.007 -0.5969  0.5904  0.1565
  370MOL0     N49832   1.251   2.604   8.129 -0.2666 -1.0985 -0.4681
  370MOL0     C49833   1.328   2.718   8.147 -0.0730  1.2115 -0.0030
  370MOL0     C49834   1.320   2.754   8.280 -0.8491 -0.7145  0.3927
  370MOL0     C49835   1.390   2.867   8.351  0.8024 -0.8645  0.5471
  370MOL0     C49836   1.539   2.880   8.308 -0.3839  0.9805 -0.8246
  370MOL0     C49837   1.629   2.960   8.398 -0.0457 -0.1710 -0.0690
  370MOL0     C49838   1.565   3.087   8.458 -0.1443 -0.7697 -0.5721
  370MOL0     O49839   1.549   3.190   8.358  0.4364 -0.2639 -0.3022
  370MOL0     C49840   1.433   3.232   8.319  0.5313 -1.3660  1.0723
  370MOL0     C49841   1.401   3.211   8.183  0.1101  0.2084 -1.1529
  370MOL0     C49842   1.268   3.247   8.148 -0.2815 -0.4919  0.9883
  370MOL0     C49843   1.245   3.232   8.002 -1.3381  0.2083  0.4907
  370MOL0     C49844   1.169   3.297   8.239 -0.4860 -0.2354 -0.5290
  370MOL0     C49845   1.018   3.315   8.201 -0.0597  0.6837 -1.0475
  370MOL0     O49846   0.984   3.287   8.076 -1.0035  0.3931  0.1903
  370MOL0     C49847   0.867   3.346   8.027 -0.1460  0.1756  0.9056
  370MOL0     C49848   0.868   3.474   7.972  0.2854 -0.5176 -0.8781
  370MOL0     C49849   0.747   3.536   7.939 -0.4870 -0.0272 -0.3354
  370MOL0     C49850   0.628   3.466   7.963  0.0475  0.4397 -0.0645
  370MOL0     O49851   0.505   3.523   7.953  0.4990  0.3933 -0.6629
  370MOL0     C49852   0.477   3.617   7.853  0.6447 -0.1603  0.6030
  370MOL0     C49853   0.365   3.583   7.758  0.4470  0.2078  0.9666
  370MOL0     C49854   0.392   3.454   7.684 -0.1091 -0.1314  0.3539
  370MOL0     C49855   0.274   3.424   7.584 -0.2533 -0.0821  0.2925
  370MOL0     C49856   0.288   3.279   7.533  0.5151 -0.2920 -1.1856
  370MOL0     C49857   0.167   3.234   7.444 -0.1441  0.9894  1.8944
  370MOL0     C49858   0.032   3.273   7.502  0.2219  0.0892 -0.2146
  370MOL0     C49859  -0.083   3.230   7.420 -0.4015 -0.3520  0.5212
  370MOL0    Cl49860  -0.061   3.206   7.240  0.3657 -0.0039  0.0452
  370MOL0     C49861   0.629   3.342   8.012  1.2903  0.3795 -0.3360
  370MOL0     C49862   0.751   3.276   8.040 -0.3483  0.0368 -0.2484
  370MOL0     O49863   0.932   3.341   8.287 -0.0715 -0.2586  0.5171
  370MOL0     C49864   1.213   3.318   8.374 -0.4245  0.0296 -0.6012
  370MOL0     C49865   1.347   3.296   8.415 -0.6448 -0.9276 -0.0330
  370MOL0     N49866   1.232   2.659   8.343 -0.2340  0.7963 -0.3709
  370MOL0     N49867   1.198   2.570   8.252  0.3306 -0.2599 -0.1070
  370MOL0     C49868   2.285   2.474   8.589 -0.6375  0.5869 -1.5801
  370MOL0     C49869   2.431   2.496   8.614  0.0942 -0.1869  0.0810
  370MOL0     C49870   2.885   2.594   8.478 -0.2057  0.1553  0.0091
  370MOL0     C49871   2.927   2.461   8.483  0.0441  0.4153  0.3409
  370MOL0     C49872   3.061   2.426   8.462  0.1276  0.1207 -1.0116
  370MOL0     C49873   3.155   2.523   8.424 -0.3320 -0.8294 -1.1135
  370MOL0     O49874   3.288   2.487   8.422 -0.4079 -0.8007  0.6867
  370MOL0     C49875   3.377   2.588   8.360 -0.1239  0.7860  0.8794
  370MOL0     C49876   3.520   2.544   8.378 -0.1376  0.0854  0.4983
  370MOL0     C49877   3.617   2.659   8.335 -0.0596  0.4968 -0.7468
  370MOL0     C49878   3.631   2.672   8.181 -0.4222  0.5055 -0.3331
  370MOL0     C49879   3.698   2.802   8.141 -0.3114  0.5413  0.6951
  370MOL0     C49880   3.729   2.918   8.121  0.0209  0.8848  0.2275
  370MOL0     C49881   3.110   2.660   8.418  0.2693  1.0466 -0.0428
  370MOL0     C49882   2.976   2.690   8.439 -0.5050 -0.3467  0.3614
  370MOL0     H49883   2.523   2.588   8.305 -1.9707  0.8302 -1.3540
  370MOL0     H49884   2.305   2.570   8.263  1.8917 -1.0376 -0.3022
  370MOL0     H49885   2.070   2.598   8.285 -0.1265 -0.6171 -1.6898
  370MOL0     H49886   2.065   2.424   8.254  0.3901  1.0358 -0.7837
  370MOL0     H49887   1.856   2.409   8.414  2.4605 -1.5804  0.0202
  370MOL0     H49888   1.852   2.586   8.425  0.7738  0.8474 -1.5724
  370MOL0     H49889   1.813   2.598   8.179  0.0646 -0.3517 -0.1096
  370MOL0     H49890   1.837   2.428   8.168 -0.3188 -1.7884  1.6682
  370MOL0     H49891   1.638   2.369   8.281  2.8109  0.9246  1.7790
  370MOL0     H49892   1.600   2.529   8.338  0.6741 -0.1293  0.6232
  370MOL0     H49893   1.550   2.610   8.136 -1.3136 -0.1803 -0.0160
  370MOL0     H49894   1.642   2.502   8.037  0.4325  0.4076  0.0691
  370MOL0     H49895   1.515   2.313   8.074  1.1588  0.7694  0.8247
  370MOL0     H49896   1.403   2.380   8.184 -1.4229 -1.8254 -1.7611
  370MOL0     H49897   1.424   2.490   7.901 -0.3717 -0.8802 -1.6034
  370MOL0     H49898   1.336   2.343   7.925  2.0954 -0.7989  1.3394
  370MOL0     H49899   1.157   2.458   8.036  3.0548 -2.7808  4.0122
  370MOL0     H49900   1.220   2.587   7.919 -0.2449  1.0255  0.3848
  370MOL0     H49901   1.400   2.763   8.080  1.0576 -0.9835 -0.3264
  370MOL0     H49902   1.353   2.964   8.314  2.3856 -2.0131 -4.8589
  370MOL0     H49903   1.378   2.863   8.460 -0.8112  1.1901  0.5249
  370MOL0     H49904   1.548   2.924   8.208 -2.6179 -0.1715 -1.5989
  370MOL0     H49905   1.578   2.778   8.300  0.4890  1.2844 -0.5190
  370MOL0     H49906   1.719   2.996   8.348  1.4188 -0.1474  2.4117
  370MOL0     H49907   1.671   2.898   8.478  0.1364  0.2510  0.1673
  370MOL0     H49908   1.633   3.125   8.534 -1.0077  1.8774 -1.0304
  370MOL0     H49909   1.469   3.071   8.508  0.6397 -1.7967  0.6681
  370MOL0     H49910   1.477   3.167   8.119  0.7563 -1.3690  0.5989
  370MOL0     H49911   1.195   3.136   7.987  0.0231 -0.3451 -0.7953
  370MOL0     H49912   1.197   3.319   7.958  0.8544  2.4940  2.3172
  370MOL0     H49913   1.337   3.214   7.946 -1.7963  2.1022 -0.9437
  370MOL0     H49914   0.955   3.533   7.947  0.9678 -2.9658 -5.2355
  370MOL0     H49915   0.744   3.637   7.899  0.7958  0.6701  1.2454
  370MOL0     H49916   0.444   3.709   7.902  0.8730 -1.4759  3.4481
  370MOL0     H49917   0.561   3.634   7.784 -1.9080 -1.9536 -3.3268
  370MOL0     H49918   0.273   3.580   7.817 -1.6400  0.4597 -2.0495
  370MOL0     H49919   0.343   3.667   7.691 -1.2253 -0.0144  1.2076
  370MOL0     H49920   0.424   3.375   7.751 -1.8829 -2.1929 -1.0802
  370MOL0     H49921   0.481   3.480   7.626  0.6735 -2.6980  0.3069
  370MOL0     H49922   0.177   3.432   7.636 -1.1289 -2.3423 -0.8561
  370MOL0     H49923   0.264   3.507   7.513 -0.1387  1.7807  2.3350
  370MOL0     H49924   0.299   3.213   7.619  2.8835 -0.2976 -1.4338
  370MOL0     H49925   0.378   3.263   7.474  0.3988 -0.6186 -1.2732
  370MOL0     H49926   0.176   3.286   7.348 -1.5503 -2.0451 -0.0481
  370MOL0     H49927   0.171   3.128   7.420 -1.2145  1.5406 -1.2346
  370MOL0     H49928   0.027   3.382   7.499  2.8955  0.2831 -0.9175
  370MOL0     H49929   0.025   3.238   7.605 -1.1146  1.2617  0.1202
  370MOL0     H49930  -0.170   3.294   7.434 -0.2664 -0.2050  0.6932
  370MOL0     H49931  -0.126   3.140   7.467 -1.6468  0.8213  1.7062
  370MOL0     H49932   0.532   3.295   8.024  2.2263 -1.6948 -0.4393
  370MOL0     H49933   0.743   3.176   8.082 -2.3787 -0.5939 -1.9833
  370MOL0     H49934   1.150   3.370   8.445 -0.8141 -0.3735 -0.6458
  370MOL0     H49935   1.366   3.323   8.519 -1.2781  0.7132 -0.3232
  370MOL0     H49936   2.218   2.444   8.669  0.3317  1.6991 -0.3039
  370MOL0     H49937   2.468   2.485   8.716 -1.7069 -2.2998  0.5656
  370MOL0     H49938   2.858   2.384   8.516 -0.3483  0.7549  0.3225
  370MOL0     H49939   3.094   2.323   8.473 -0.3330  0.1989  1.5772
  370MOL0     H49940   3.344   2.603   8.257 -2.0784 -1.7156  1.0653
  370MOL0     H49941   3.364   2.679   8.420 -1.3003  0.4063  1.2231
  370MOL0     H49942   3.540   2.446   8.333 -2.9628 -0.9356  1.2673
  370MOL0     H49943   3.532   2.525   8.485 -0.6634  1.5270  0.8400
  370MOL0     H49944   3.717   2.643   8.376  0.6986  0.9292 -2.3652
  370MOL0     H49945   3.575   2.756   8.365 -4.5398 -1.4967  0.2426
  370MOL0     H49946   3.534   2.658   8.134 -0.3832  0.2481 -0.3375
  370MOL0     H49947   3.689   2.589   8.139 -0.8104  1.4460 -2.9401
  370MOL0     H49948   3.751   3.018   8.091 -1.4587  1.3917  0.7502
  370MOL0     H49949   3.161   2.737   8.360 -0.1921  0.0252 -1.8589
  370MOL0     H49950   2.942   2.792   8.424  1.2144  0.0852 -1.0174
  371MOL0     O49951   5.853   9.914   0.475  0.4964  0.1568  0.3422
  371MOL0     C49952   5.913   9.996   0.547  0.7265 -0.0022  0.2866
  371MOL0     O49953   5.850  10.066   0.643 -0.3649  0.1897 -0.4287
  371MOL0     C49954   5.728  10.038   0.701 -0.7380  0.4852  1.1961
  371MOL0     C49955   5.636  10.139   0.732  0.0571  0.6395 -0.6430
  371MOL0     C49956   5.517  10.110   0.793  0.8497 -0.0201  0.4027
  371MOL0     C49957   5.488   9.981   0.834 -0.4401 -0.6933  0.4452
  371MOL0     O49958   5.367   9.961   0.895  0.1179 -0.4052  0.3782
  371MOL0     C49959   5.322   9.837   0.951 -0.0940 -0.0807 -0.3037
  371MOL0     C49960   5.180   9.859   0.981  0.4221  0.1081 -1.2364
  371MOL0     C49961   5.082   9.881   0.862 -0.0657 -0.5920  0.1315
  371MOL0     C49962   4.945   9.914   0.924 -0.0391  0.9223 -0.5290
  371MOL0     C49963   4.832   9.925   0.834  0.0008  1.0043  0.3819
  371MOL0     C49964   4.863   9.997   0.701  0.5266 -0.3405  0.8252
  371MOL0     C49965   4.737  10.029   0.612  0.4012 -0.3386 -0.4505
  371MOL0     C49966   4.651   9.914   0.566 -0.2292 -1.2076  0.9737
  371MOL0     N49967   4.524   9.949   0.502  0.4700 -0.1536 -0.9559
  371MOL0     C49968   4.494  10.060   0.427  0.7091 -0.3036  0.5656
  371MOL0     C49969   4.362  10.077   0.434  0.3738  0.8538  0.7061
  371MOL0     C49970   4.263  10.167   0.367  0.1965  0.4179  0.1047
  371MOL0     C49971   4.274  10.165   0.215 -0.1100 -0.4394  0.2297
  371MOL0     C49972   4.245  10.306   0.160 -0.6553 -0.5840 -0.2418
  371MOL0     C49973   4.099  10.328   0.154  0.8311  0.2702  0.4175
  371MOL0     O49974   4.080  10.456   0.094 -0.6441  1.0862 -0.3389
  371MOL0     C49975   3.954  10.493   0.053  1.4490 -0.3424  0.8708
  371MOL0     C49976   3.947  10.565  -0.062  0.1859 -0.4407 -0.2794
  371MOL0     C49977   3.823  10.621  -0.105 -1.2501 -0.1166  0.7461
  371MOL0     C49978   3.833  10.701  -0.236  0.0326  0.2857 -0.1299
  371MOL0     C49979   3.709  10.603  -0.026 -0.4233 -0.5989 -0.3949
  371MOL0     C49980   3.580  10.665  -0.059 -0.2908  0.3136 -0.6059
  371MOL0     O49981   3.477  10.583  -0.062 -0.2977  0.2643  0.2075
  371MOL0     C49982   3.353  10.632  -0.096 -0.5098  0.6299 -0.0158
  371MOL0     C49983   3.249  10.594  -0.017  0.0871  0.4858  1.0832
  371MOL0     C49984   3.118  10.621  -0.045  0.5338 -0.4998 -0.6371
  371MOL0     C49985   3.081  10.694  -0.167 -0.6584  0.2037  0.2224
  371MOL0     O49986   2.954  10.721  -0.207 -0.4691 -0.4466  0.5604
  371MOL0     C49987   2.880  10.803  -0.115 -0.2206  0.3411 -0.5464
  371MOL0     C49988   2.754  10.861  -0.173  0.4850 -0.2434  0.8631
  371MOL0     C49989   2.656  10.749  -0.229  0.1148 -0.4259 -0.5611
  371MOL0     C49990   2.541  10.822  -0.309  0.0556  0.0076  0.4563
  371MOL0     C49991   2.404  10.757  -0.292  0.7288  0.0303  0.0769
  371MOL0     C49992   2.391  10.619  -0.346  0.2379  0.6595 -0.3279
  371MOL0     C49993   2.253  10.554  -0.320  0.2100  1.1576 -0.3530
  371MOL0     C49994   2.149  10.604  -0.424 -0.5230 -0.1714 -0.6274
  371MOL0    Cl49995   1.993  10.517  -0.392 -0.4491  0.2240  0.0457
  371MOL0     C49996   3.184  10.740  -0.243 -1.3353  0.0299 -0.5214
  371MOL0     C49997   3.324  10.711  -0.212 -0.7818  0.7497  0.1023
  371MOL0     O49998   3.576  10.776  -0.095  0.1172 -0.0471 -0.3441
  371MOL0     C49999   3.715  10.534   0.098 -1.1664  0.6482  0.1431
  371MOL0     C50000   3.837  10.476   0.133 -0.5530 -0.3083  0.7748
  371MOL0     N50001   4.309   9.982   0.520 -0.0170  0.2159 -0.3408
  371MOL0     N50002   4.407   9.907   0.567 -0.8429 -0.3739  0.1100
  371MOL0     C50003   5.588   9.881   0.819  0.4004  0.4347  0.8831
  371MOL0     C50004   5.706   9.908   0.750 -0.3306  0.8122  0.0613
  371MOL0     C50005   6.061  10.027   0.523 -0.8439  0.6327  0.0245
  371MOL0     C50006   6.116  10.000   0.399  0.6090  0.0914  0.3353
  371MOL0     C50007   6.244  10.022   0.374 -0.4772  0.2039 -0.2233
  371MOL0     C50008   6.319  10.092   0.468  0.2065  0.0066  0.6469
  371MOL0     O50009   6.436  10.152   0.422  0.0699 -0.5346 -0.4824
  371MOL0     C50010   6.550  10.072   0.445 -0.1456  0.3844 -0.0810
  371MOL0     C50011   6.621  10.103   0.574  0.0372 -0.6587 -0.1201
  371MOL0     C50012   6.651  10.258   0.589 -0.5892 -0.0232 -0.0013
  371MOL0     C50013   6.739  10.311   0.469 -0.2574  0.2636  0.5327
  371MOL0     C50014   6.785  10.453   0.482  0.0094  0.4495 -0.3020
  371MOL0     C50015   6.836  10.563   0.495  0.1873 -0.9621  0.0395
  371MOL0     C50016   6.274  10.112   0.597  0.1347  0.6461 -0.2574
  371MOL0     C50017   6.141  10.082   0.628 -0.1345 -0.0663  0.4791
  371MOL0     H50018   5.674  10.238   0.706  0.7226 -0.1493 -2.8883
  371MOL0     H50019   5.432  10.176   0.808 -3.1460 -4.1831 -1.6643
  371MOL0     H50020   5.327   9.758   0.875 -0.8919  0.6274 -1.1160
  371MOL0     H50021   5.379   9.807   1.039 -3.6403  1.9981  3.0292
  371MOL0     H50022   5.138   9.773   1.034  1.4394 -0.0769 -0.6913
  371MOL0     H50023   5.185   9.936   1.059 -0.5427 -1.7134  0.7325
  371MOL0     H50024   5.112   9.970   0.806 -4.7329 -0.4982 -2.8427
  371MOL0     H50025   5.068   9.788   0.805 -3.5558  0.5956 -1.2514
  371MOL0     H50026   4.922   9.834   0.994  0.5375  1.2054 -0.0015
  371MOL0     H50027   4.945  10.010   0.977 -0.6223  1.0148 -0.6888
  371MOL0     H50028   4.812   9.822   0.801 -1.2316  1.7862 -1.5211
  371MOL0     H50029   4.737   9.962   0.874 -0.3942  0.1680  0.2297
  371MOL0     H50030   4.913  10.092   0.721 -2.9604  2.0892 -1.0187
  371MOL0     H50031   4.921   9.933   0.634 -1.9275 -0.5557 -1.2512
  371MOL0     H50032   4.679  10.107   0.662  3.0782 -0.1179  2.6708
  371MOL0     H50033   4.770  10.073   0.517  1.3141 -0.3125 -0.1380
  371MOL0     H50034   4.636   9.845   0.651  3.0690 -0.3423  2.4435
  371MOL0     H50035   4.703   9.858   0.488  2.4317  0.3176  1.5302
  371MOL0     H50036   4.568  10.130   0.389 -0.4016  1.7466  1.9933
  371MOL0     H50037   4.165  10.128   0.396 -0.0129  2.1506  1.9339
  371MOL0     H50038   4.267  10.273   0.392  0.5790  0.5084 -0.3321
  371MOL0     H50039   4.214  10.088   0.167  1.6495 -2.1705  0.7079
  371MOL0     H50040   4.377  10.146   0.184 -0.5163 -0.3813 -1.2130
  371MOL0     H50041   4.286  10.316   0.059  1.4679  1.3527  0.7102
  371MOL0     H50042   4.289  10.384   0.223  1.7573 -1.9785 -0.0804
  371MOL0     H50043   4.063  10.346   0.256  2.4052  2.2577  0.6823
  371MOL0     H50044   4.051  10.241   0.109 -0.1264 -0.9518  3.5318
  371MOL0     H50045   4.038  10.580  -0.120 -0.3619 -0.9020 -1.2971
  371MOL0     H50046   3.755  10.673  -0.307  2.1106 -0.8794 -2.0835
  371MOL0     H50047   3.820  10.808  -0.216  3.0677  1.0338 -1.4870
  371MOL0     H50048   3.936  10.687  -0.270  1.8371  2.9346  3.4379
  371MOL0     H50049   3.282  10.535   0.068  1.6206  1.3353  1.1085
  371MOL0     H50050   3.042  10.584   0.023 -0.7790  0.5643 -1.4832
  371MOL0     H50051   2.867  10.743  -0.025 -1.7575  0.3134 -0.7510
  371MOL0     H50052   2.946  10.887  -0.092  0.6184 -0.0707 -1.3822
  371MOL0     H50053   2.711  10.915  -0.088  0.3108 -0.6371  1.0273
  371MOL0     H50054   2.780  10.931  -0.253 -1.8508 -1.1682 -0.8152
  371MOL0     H50055   2.612  10.684  -0.153 -2.8293  0.5935 -1.2495
  371MOL0     H50056   2.708  10.682  -0.297  0.4871 -1.1965  0.4587
  371MOL0     H50057   2.533  10.928  -0.281  1.7860  0.0376  0.9300
  371MOL0     H50058   2.571  10.821  -0.414 -2.2110 -1.1322 -0.2445
  371MOL0     H50059   2.321  10.823  -0.319  0.2387 -0.8349 -0.5705
  371MOL0     H50060   2.392  10.731  -0.186  4.8006  0.7052  0.8643
  371MOL0     H50061   2.424  10.610  -0.450  2.1195 -2.2435  0.4041
  371MOL0     H50062   2.469  10.553  -0.306  0.7406 -0.0067 -2.2778
  371MOL0     H50063   2.210  10.577  -0.222 -1.1736  0.5444 -0.8035
  371MOL0     H50064   2.274  10.447  -0.323  3.0784  1.6343 -0.6555
  371MOL0     H50065   2.194  10.587  -0.523  1.2006 -0.1727  0.1226
  371MOL0     H50066   2.125  10.711  -0.425 -0.6239 -0.1878 -1.8635
  371MOL0     H50067   3.170  10.789  -0.339  1.3998 -1.8601 -2.0506
  371MOL0     H50068   3.405  10.748  -0.275 -1.9461  2.5996 -0.3544
  371MOL0     H50069   3.626  10.530   0.161 -3.2348 -0.4003 -2.6362
  371MOL0     H50070   3.853  10.425   0.227 -3.0895  0.9652  1.9720
  371MOL0     H50071   5.572   9.788   0.872 -1.6928  0.6383  0.7109
  371MOL0     H50072   5.779   9.829   0.734  1.9297  2.7435  0.3116
  371MOL0     H50073   6.052   9.946   0.330 -1.1380  0.6368  1.4408
  371MOL0     H50074   6.283  10.020   0.273 -1.1320  0.7829 -0.5017
  371MOL0     H50075   6.517   9.967   0.444 -0.0857  0.3588  0.2475
  371MOL0     H50076   6.626  10.084   0.367  0.3443  2.8437  0.6948
  371MOL0     H50077   6.723  10.063   0.578 -0.1873 -1.1342  2.4073
  371MOL0     H50078   6.575  10.063   0.665  4.0705 -1.9637  1.6121
  371MOL0     H50079   6.701  10.280   0.684 -0.4739 -0.0833 -0.0476
  371MOL0     H50080   6.561  10.319   0.581  0.3128  1.6118  1.3739
  371MOL0     H50081   6.683  10.295   0.376 -1.5978  1.8490  1.0204
  371MOL0     H50082   6.829  10.253   0.451 -1.4053 -1.6633  0.7905
  371MOL0     H50083   6.881  10.660   0.500  1.5654 -1.2477 -3.6017
  371MOL0     H50084   6.337  10.160   0.672 -3.0415 -0.2923  3.3261
  371MOL0     H50085   6.104  10.101   0.728  1.6569 -2.3854  1.6711
  372MOL0     O50086   3.794   7.748   2.845 -0.3919 -0.0715  0.0511
  372MOL0     C50087   3.749   7.634   2.856  0.4638  0.5605 -1.1593
  372MOL0     O50088   3.617   7.604   2.846 -0.2670 -0.4247  0.0837
  372MOL0     C50089   3.533   7.677   2.765 -0.1864 -0.0659 -0.2530
  372MOL0     C50090   3.563   7.703   2.630 -0.3371  0.9277 -1.2020
  372MOL0     C50091   3.479   7.787   2.559  0.2887 -0.1560 -0.4147
  372MOL0     C50092   3.354   7.839   2.612 -0.2059  0.6455  0.7124
  372MOL0     O50093   3.262   7.903   2.533  0.3612 -0.4502  0.9288
  372MOL0     C50094   3.120   7.874   2.542 -0.1442  0.5681 -0.7276
  372MOL0     C50095   3.085   7.727   2.499  0.3444  0.2530  0.2809
  372MOL0     C50096   3.138   7.601   2.580 -0.3407  0.5844 -0.2607
  372MOL0     C50097   3.065   7.573   2.720  0.1302 -0.6851  0.7450
  372MOL0     C50098   3.085   7.427   2.762  0.2969  0.3145  0.3275
  372MOL0     C50099   3.229   7.392   2.774 -0.5022 -0.3621  0.4456
  372MOL0     C50100   3.247   7.280   2.875  0.1635  0.6484 -0.1982
  372MOL0     C50101   3.394   7.268   2.908  0.2781  0.8289 -0.0730
  372MOL0     N50102   3.466   7.230   2.779  0.3637  0.0055  0.1450
  372MOL0     C50103   3.447   7.117   2.698 -0.0013  0.3494 -0.2073
  372MOL0     C50104   3.516   7.149   2.581 -0.0200  0.3297  0.4444
  372MOL0     C50105   3.531   7.056   2.471 -0.8467  0.3708 -0.6333
  372MOL0     C50106   3.684   7.045   2.432 -0.1341  0.1483  0.0775
  372MOL0     C50107   3.692   6.921   2.348  0.6586 -0.6562  0.4353
  372MOL0     C50108   3.821   6.886   2.278  0.0919 -0.0162 -0.7361
  372MOL0     O50109   3.856   6.754   2.299  0.5711 -0.5690  0.1008
  372MOL0     C50110   3.963   6.718   2.374 -0.3261 -0.0286 -0.5542
  372MOL0     C50111   3.991   6.593   2.361 -0.2793  0.5980  0.2145
  372MOL0     C50112   4.103   6.532   2.420 -0.0666 -0.1648  0.0128
  372MOL0     C50113   4.139   6.397   2.375 -0.7483  1.1476  0.1726
  372MOL0     C50114   4.190   6.607   2.506 -0.1455  0.0677  0.8132
  372MOL0     C50115   4.321   6.566   2.562 -0.0735 -1.0494 -0.4792
  372MOL0     O50116   4.371   6.614   2.675 -0.6464 -0.4875 -0.3189
  372MOL0     C50117   4.495   6.588   2.720 -0.9480  0.0176  0.8489
  372MOL0     C50118   4.506   6.541   2.851 -1.1104  0.1412 -0.3018
  372MOL0     C50119   4.630   6.497   2.905 -0.1623 -0.6570 -0.5605
  372MOL0     C50120   4.753   6.523   2.835 -0.0076 -0.1695 -0.0316
  372MOL0     O50121   4.880   6.500   2.868 -0.4882  0.1378 -0.3993
  372MOL0     C50122   4.898   6.401   2.967  0.7452  0.7446 -0.1789
  372MOL0     C50123   5.043   6.363   2.968  0.0090 -0.7685  0.7185
  372MOL0     C50124   5.093   6.267   2.861  0.2730  0.1031  0.2837
  372MOL0     C50125   5.025   6.127   2.882 -0.2646 -0.4783 -0.0267
  372MOL0     C50126   5.063   6.016   2.785 -0.5957 -0.8520  0.9251
  372MOL0     C50127   5.051   6.057   2.627  0.3246 -0.0672 -0.9277
  372MOL0     C50128   5.195   6.073   2.567 -0.4158 -0.1754  0.6386
  372MOL0     C50129   5.199   6.100   2.418  0.0719  0.0484 -0.0617
  372MOL0    Cl50130   5.360   6.124   2.350 -0.3590  0.3091  0.1471
  372MOL0     C50131   4.742   6.590   2.706  0.5165  0.1194  0.3460
  372MOL0     C50132   4.614   6.617   2.656  0.8520 -0.3147 -0.4591
  372MOL0     O50133   4.379   6.485   2.484  0.0291  0.3911 -0.7522
  372MOL0     C50134   4.147   6.740   2.524 -0.1244 -0.5395  0.1792
  372MOL0     C50135   4.038   6.792   2.457  0.4218  0.4063  0.1974
  372MOL0     N50136   3.574   7.271   2.595  0.2297 -0.4793 -0.0277
  372MOL0     N50137   3.554   7.315   2.710  0.0653  0.3959 -0.2778
  372MOL0     C50138   3.337   7.812   2.749 -0.9920 -0.1422 -0.0176
  372MOL0     C50139   3.424   7.737   2.824  0.0700  0.1524 -0.6989
  372MOL0     C50140   3.834   7.528   2.915  0.0245 -0.0960 -0.5160
  372MOL0     C50141   3.772   7.415   2.973 -0.1862 -0.8729  0.1666
  372MOL0     C50142   3.846   7.323   3.046 -0.2070 -0.4451 -0.1464
  372MOL0     C50143   3.984   7.340   3.072 -0.2391 -0.2649 -0.2759
  372MOL0     O50144   4.060   7.254   3.138  0.1252 -0.5167 -0.3381
  372MOL0     C50145   4.017   7.129   3.150  0.2188 -0.7218  0.4440
  372MOL0     C50146   4.122   7.038   3.209 -0.2367  0.2162  0.0843
  372MOL0     C50147   4.173   7.089   3.345 -0.3885  0.0684  0.5225
  372MOL0     C50148   4.061   7.086   3.463 -0.1564 -0.3502  0.3780
  372MOL0     C50149   4.000   6.949   3.473  0.3914  0.1160 -0.4749
  372MOL0     C50150   3.956   6.831   3.481 -0.6015 -0.0257 -0.1846
  372MOL0     C50151   4.043   7.448   3.014  0.1689  0.1107 -0.3523
  372MOL0     C50152   3.970   7.548   2.945 -0.4684 -0.2156  0.1928
  372MOL0     H50153   3.647   7.652   2.582  0.5381  0.3247  0.8739
  372MOL0     H50154   3.501   7.816   2.456 -0.3636  0.2547 -0.4460
  372MOL0     H50155   3.099   7.883   2.649  2.1272  0.8294 -0.2552
  372MOL0     H50156   3.067   7.945   2.477  1.4145  3.3631  0.8906
  372MOL0     H50157   2.976   7.720   2.500  0.3303  0.3321 -0.3177
  372MOL0     H50158   3.108   7.715   2.393 -0.1307 -3.2446  0.4387
  372MOL0     H50159   3.112   7.515   2.517  0.9339 -1.0977  1.4083
  372MOL0     H50160   3.247   7.603   2.581 -0.3252 -0.2125  0.5697
  372MOL0     H50161   3.096   7.646   2.795  1.2039  0.5054 -0.8160
  372MOL0     H50162   2.961   7.597   2.694  0.2825  0.1821  0.9060
  372MOL0     H50163   3.034   7.391   2.852  1.2469 -1.4700  0.1914
  372MOL0     H50164   3.053   7.369   2.675  0.5869  0.5195  0.0824
  372MOL0     H50165   3.278   7.388   2.676 -4.7354  1.2813 -2.0212
  372MOL0     H50166   3.281   7.480   2.815  0.0070 -0.7405  0.6179
  372MOL0     H50167   3.192   7.313   2.964 -0.7489  1.1563 -0.9208
  372MOL0     H50168   3.217   7.182   2.837 -2.0073  0.8201  0.9327
  372MOL0     H50169   3.403   7.200   2.993 -3.3727  0.7458  0.3709
  372MOL0     H50170   3.423   7.366   2.948 -0.0689  0.4649  1.0978
  372MOL0     H50171   3.407   7.019   2.723  2.2377 -0.2731  1.1744
  372MOL0     H50172   3.496   6.957   2.504 -0.3077  0.0725 -0.9489
  372MOL0     H50173   3.470   7.084   2.385 -1.9704  0.9094  0.3075
  372MOL0     H50174   3.747   7.025   2.520  0.1221  0.8358  0.0551
  372MOL0     H50175   3.712   7.131   2.371  0.5079 -2.1667 -3.1847
  372MOL0     H50176   3.615   6.933   2.271  0.1601 -0.0056  1.0208
  372MOL0     H50177   3.666   6.833   2.408 -0.0714 -1.7035 -1.3406
  372MOL0     H50178   3.905   6.954   2.296  1.3397 -1.1177 -2.1458
  372MOL0     H50179   3.802   6.895   2.170  2.6404 -1.0497 -1.3621
  372MOL0     H50180   3.931   6.532   2.294  0.4815 -2.0339  1.7611
  372MOL0     H50181   4.050   6.337   2.352  1.5926 -3.4879  1.8516
  372MOL0     H50182   4.204   6.392   2.287  1.3238 -3.1086  1.6312
  372MOL0     H50183   4.198   6.337   2.445  3.6889  1.0983 -3.1680
  372MOL0     H50184   4.422   6.539   2.919  2.7025  1.7156  5.0289
  372MOL0     H50185   4.622   6.454   3.004  1.0338 -0.6718 -0.4592
  372MOL0     H50186   4.888   6.448   3.065  0.5707 -2.1241  1.2887
  372MOL0     H50187   4.831   6.315   2.967  0.5140  0.7226  4.2785
  372MOL0     H50188   5.105   6.452   2.955 -0.1145 -0.8864 -0.9944
  372MOL0     H50189   5.057   6.322   3.068  3.5740  0.5749  0.8944
  372MOL0     H50190   5.201   6.255   2.861  0.6063  2.5157  1.1886
  372MOL0     H50191   5.060   6.299   2.762 -1.1549 -2.3639 -0.1227
  372MOL0     H50192   5.048   6.093   2.983  1.9668  3.2546  0.9130
  372MOL0     H50193   4.919   6.143   2.862  0.1129  1.0595 -1.0456
  372MOL0     H50194   4.994   5.933   2.798 -0.9020 -0.7404  0.1032
  372MOL0     H50195   5.169   5.992   2.801  0.1068  1.0071 -0.5510
  372MOL0     H50196   4.996   5.978   2.575 -1.7716  0.5183  0.2763
  372MOL0     H50197   4.991   6.149   2.622 -0.9162 -0.6993  0.9429
  372MOL0     H50198   5.258   5.987   2.593  2.3140  1.1768 -1.0496
  372MOL0     H50199   5.249   6.153   2.619  1.7351 -1.4921  0.5953
  372MOL0     H50200   5.128   6.179   2.393  0.1800  0.9707  2.3032
  372MOL0     H50201   5.156   6.015   2.364 -1.1925  0.2172  0.6431
  372MOL0     H50202   4.835   6.617   2.656 -0.5357  0.6334 -1.4110
  372MOL0     H50203   4.600   6.673   2.564  2.7639  1.3222  0.1692
  372MOL0     H50204   4.210   6.801   2.588 -2.4189  2.5439 -0.2987
  372MOL0     H50205   4.010   6.894   2.481  3.7259  1.4868  0.0528
  372MOL0     H50206   3.250   7.847   2.803 -1.0088 -1.6000  0.9809
  372MOL0     H50207   3.412   7.741   2.932  0.7834  2.9995 -0.6446
  372MOL0     H50208   3.664   7.406   2.963 -0.2501  0.3776 -0.5183
  372MOL0     H50209   3.794   7.239   3.091 -2.5598 -0.0211 -1.8918
  372MOL0     H50210   3.921   7.127   3.203 -0.1008 -3.5687 -0.0853
  372MOL0     H50211   4.005   7.086   3.050  1.8148 -0.6170  0.1872
  372MOL0     H50212   4.212   7.039   3.147 -1.1217  0.0376 -1.2349
  372MOL0     H50213   4.086   6.936   3.222  1.4688 -0.3688  0.4493
  372MOL0     H50214   4.221   7.187   3.337  1.1043 -0.5950  1.0010
  372MOL0     H50215   4.252   7.021   3.379  0.2229 -0.5619 -1.9572
  372MOL0     H50216   3.978   7.154   3.442 -1.9310 -1.4677  3.1230
  372MOL0     H50217   4.105   7.107   3.561  0.0232 -3.6124  1.1371
  372MOL0     H50218   3.927   6.729   3.466  2.2047 -1.5721  3.4859
  372MOL0     H50219   4.151   7.449   3.028  0.4817 -2.1929 -1.9137
  372MOL0     H50220   4.016   7.641   2.913 -0.8567 -0.1471 -0.1611
  373MOL0     O50221   2.762   3.956   0.269 -0.0976  0.1204  0.8687
  373MOL0     C50222   2.728   4.037   0.182 -0.3272  0.1431  0.1420
  373MOL0     O50223   2.650   4.155   0.198  0.0484  0.0648 -0.2677
  373MOL0     C50224   2.560   4.162   0.304  0.3241  0.2232 -1.0673
  373MOL0     C50225   2.525   4.294   0.342  0.3553  0.1500  0.3481
  373MOL0     C50226   2.431   4.317   0.444 -0.1990  0.7439 -0.1343
  373MOL0     C50227   2.367   4.209   0.512  0.0259  0.0248  0.8770
  373MOL0     O50228   2.275   4.221   0.611  0.2801 -0.2549  0.0679
  373MOL0     C50229   2.182   4.331   0.608  0.1220 -0.4958  0.7256
  373MOL0     C50230   2.190   4.432   0.719 -0.9562 -0.0651  0.4305
  373MOL0     C50231   2.073   4.525   0.731 -0.0939  0.3715 -0.5929
  373MOL0     C50232   2.072   4.644   0.628  0.1082  1.4092  0.5327
  373MOL0     C50233   1.948   4.737   0.655 -0.0605 -0.1206 -0.2245
  373MOL0     C50234   1.956   4.851   0.554 -0.3423  0.2158  0.3192
  373MOL0     C50235   1.911   4.976   0.620 -0.7385 -0.8317 -0.2791
  373MOL0     C50236   1.895   5.098   0.531 -0.9563 -0.3776  0.2740
  373MOL0     N50237   2.040   5.148   0.494  1.0680  0.2587 -0.3562
  373MOL0     C50238   2.123   5.207   0.584  0.3836 -0.0449  0.1277
  373MOL0     C50239   2.246   5.194   0.528  0.5082 -0.7661 -0.0151
  373MOL0     C50240   2.374   5.232   0.597  0.2537  0.1989  0.3129
  373MOL0     C50241   2.449   5.122   0.669  0.1193 -0.8416  0.5554
  373MOL0     C50242   2.579   5.182   0.733 -0.2955  0.2210 -0.0689
  373MOL0     C50243   2.681   5.232   0.630  0.1214  0.0044  0.3558
  373MOL0     O50244   2.810   5.253   0.695  0.3657 -0.1960 -0.0367
  373MOL0     C50245   2.919   5.250   0.614  0.1986 -0.1060  0.1061
  373MOL0     C50246   3.037   5.180   0.652 -0.2698  0.2664 -0.0209
  373MOL0     C50247   3.153   5.178   0.569  0.0178 -0.2467  0.0636
  373MOL0     C50248   3.267   5.099   0.612 -0.0990  0.0185  0.1931
  373MOL0     C50249   3.165   5.253   0.449  0.3929  0.5186 -0.5837
  373MOL0     C50250   3.275   5.251   0.349 -0.1783  0.0032 -0.1325
  373MOL0     O50251   3.252   5.343   0.247 -0.0992 -0.9201 -1.2247
  373MOL0     C50252   3.338   5.352   0.143 -0.6511 -1.1689 -0.3953
  373MOL0     C50253   3.431   5.456   0.125  0.6508  0.5405 -0.6212
  373MOL0     C50254   3.489   5.479  -0.001  0.1977  0.2829 -0.0717
  373MOL0     C50255   3.459   5.396  -0.103 -0.4081 -0.1220 -0.1789
  373MOL0     O50256   3.521   5.416  -0.228 -0.1695 -0.8432  0.2139
  373MOL0     C50257   3.454   5.372  -0.347 -0.3851  0.1811 -0.7990
  373MOL0     C50258   3.526   5.449  -0.457  0.1392  0.0724  0.3823
  373MOL0     C50259   3.501   5.375  -0.583  0.2122 -0.4123  0.6112
  373MOL0     C50260   3.353   5.370  -0.633 -0.1455 -0.4584 -0.3838
  373MOL0     C50261   3.334   5.291  -0.767 -0.0326  0.4803 -0.3601
  373MOL0     C50262   3.189   5.314  -0.819  0.0285  0.5969  0.0188
  373MOL0     C50263   3.184   5.242  -0.951 -0.7135  0.3917  0.0946
  373MOL0     C50264   3.060   5.156  -0.982  0.4566 -0.9616 -0.1697
  373MOL0    Cl50265   2.912   5.259  -0.986  0.0968  0.3136 -0.0241
  373MOL0     C50266   3.382   5.282  -0.081 -0.1780 -0.1758  0.5179
  373MOL0     C50267   3.320   5.265   0.040  0.0270  0.0348  0.0190
  373MOL0     O50268   3.366   5.168   0.354  0.1244 -0.4756  0.6391
  373MOL0     C50269   3.047   5.325   0.423 -0.0149 -0.8596  0.2555
  373MOL0     C50270   2.931   5.325   0.501  0.4109  0.2070 -0.0504
  373MOL0     N50271   2.233   5.131   0.407  0.6611  0.1282  0.3125
  373MOL0     N50272   2.107   5.096   0.385  0.0031  0.1335 -0.5964
  373MOL0     C50273   2.409   4.076   0.478  0.2077 -0.0866  0.1549
  373MOL0     C50274   2.504   4.053   0.378 -0.2880  0.3983 -1.2094
  373MOL0     C50275   2.819   4.024   0.062  0.0004 -0.3073  1.1173
  373MOL0     C50276   2.822   4.135  -0.023  0.2146 -0.3130  0.2501
  373MOL0     C50277   2.915   4.133  -0.122  0.6183 -0.1694 -1.4843
  373MOL0     C50278   2.993   4.032  -0.160 -1.0294  0.5516  0.5014
  373MOL0     O50279   3.063   4.046  -0.276 -0.3045 -0.1840 -0.2103
  373MOL0     C50280   3.202   4.016  -0.269  0.7106 -0.6554 -0.2274
  373MOL0     C50281   3.285   4.121  -0.201  1.4716  0.1878  0.2879
  373MOL0     C50282   3.280   4.240  -0.299 -0.4319  0.0318  0.4499
  373MOL0     C50283   3.366   4.359  -0.236  0.6726 -0.6951  0.6024
  373MOL0     C50284   3.388   4.447  -0.349 -0.1465  0.5887 -0.0660
  373MOL0     C50285   3.425   4.509  -0.444 -0.2540 -0.0657  0.3740
  373MOL0     C50286   2.992   3.922  -0.071 -0.1728 -0.2474 -0.0550
  373MOL0     C50287   2.914   3.920   0.043 -0.3721  0.7203  0.6659
  373MOL0     H50288   2.575   4.379   0.297 -2.8084  2.4452  0.8347
  373MOL0     H50289   2.413   4.422   0.463 -1.0526  0.1410  2.8438
  373MOL0     H50290   2.184   4.380   0.511 -3.4909 -1.2270  0.1247
  373MOL0     H50291   2.080   4.292   0.616 -0.2431  0.6228  1.8721
  373MOL0     H50292   2.189   4.373   0.811 -0.8979  1.0783  1.1905
  373MOL0     H50293   2.282   4.490   0.708  1.9395 -4.5259 -1.5984
  373MOL0     H50294   1.980   4.468   0.721 -1.2437  1.8931  0.7383
  373MOL0     H50295   2.078   4.564   0.833 -1.0138 -0.1412 -0.3342
  373MOL0     H50296   2.166   4.699   0.614 -0.1786  1.2442 -2.8248
  373MOL0     H50297   2.059   4.597   0.531  0.2151 -0.3068  1.3203
  373MOL0     H50298   1.850   4.689   0.646 -0.1172  0.2822 -2.1175
  373MOL0     H50299   1.965   4.770   0.758  0.0819 -2.9468  0.7574
  373MOL0     H50300   2.057   4.876   0.521 -1.2259  5.3368  0.6435
  373MOL0     H50301   1.897   4.823   0.466  1.0611 -1.9046 -0.0317
  373MOL0     H50302   1.816   4.957   0.671 -0.8590 -1.6827 -0.7999
  373MOL0     H50303   1.988   4.996   0.695 -1.6149 -0.9357  0.6857
  373MOL0     H50304   1.833   5.170   0.584 -0.9384 -1.1977  1.4513
  373MOL0     H50305   1.847   5.059   0.441  0.2231 -2.3517  0.4413
  373MOL0     H50306   2.097   5.245   0.682  0.2139 -3.1376  1.4058
  373MOL0     H50307   2.431   5.272   0.513  0.5519 -2.2609 -0.7433
  373MOL0     H50308   2.356   5.311   0.671 -0.3758  0.5679 -0.2204
  373MOL0     H50309   2.478   5.045   0.596  2.5842 -0.0339  0.5809
  373MOL0     H50310   2.374   5.075   0.733 -3.1234  2.0459 -0.8198
  373MOL0     H50311   2.626   5.103   0.792 -3.8394 -1.9212  0.1355
  373MOL0     H50312   2.555   5.263   0.802  0.9136  2.1974 -1.8448
  373MOL0     H50313   2.639   5.319   0.579  2.4863  1.2962  0.4756
  373MOL0     H50314   2.710   5.151   0.562  0.6746  0.1243  0.4416
  373MOL0     H50315   3.042   5.124   0.745  1.1293 -2.0884 -1.4092
  373MOL0     H50316   3.241   5.030   0.693  1.1085  0.2429  0.7918
  373MOL0     H50317   3.291   5.035   0.526 -0.5563 -0.5858  0.5104
  373MOL0     H50318   3.351   5.162   0.642 -1.1192  0.7738  1.5753
  373MOL0     H50319   3.458   5.523   0.206  1.6017 -0.4379 -0.0977
  373MOL0     H50320   3.545   5.570  -0.017 -1.7137  1.6164  0.5057
  373MOL0     H50321   3.471   5.266  -0.367  1.0656  0.2151  0.1420
  373MOL0     H50322   3.348   5.399  -0.346 -1.4654 -3.2197  2.3658
  373MOL0     H50323   3.505   5.557  -0.455  0.0726  0.0560  1.9415
  373MOL0     H50324   3.632   5.425  -0.444  0.4693 -0.5610 -2.8446
  373MOL0     H50325   3.536   5.272  -0.573  0.9690 -0.1928  0.2841
  373MOL0     H50326   3.563   5.417  -0.662  0.2188 -0.9122  0.3472
  373MOL0     H50327   3.285   5.325  -0.560 -0.4183  0.9176  0.2394
  373MOL0     H50328   3.329   5.477  -0.634 -4.0519 -1.2020 -1.3665
  373MOL0     H50329   3.349   5.184  -0.748  0.2872  0.3674 -1.2025
  373MOL0     H50330   3.407   5.326  -0.840  0.3074  2.4526  0.8675
  373MOL0     H50331   3.122   5.277  -0.741  1.0848 -3.4904 -0.8017
  373MOL0     H50332   3.171   5.421  -0.834 -0.1025  1.2249  3.6616
  373MOL0     H50333   3.264   5.167  -0.953 -0.4129  0.5971  2.1484
  373MOL0     H50334   3.203   5.308  -1.036 -2.0687  0.1154 -0.4533
  373MOL0     H50335   3.052   5.076  -0.907 -0.8612  0.3594  1.1676
  373MOL0     H50336   3.068   5.109  -1.081 -2.0946 -4.5515  1.1218
  373MOL0     H50337   3.357   5.219  -0.166  3.3281 -0.3028 -0.6005
  373MOL0     H50338   3.249   5.183   0.043 -1.3471  1.1846  0.1602
  373MOL0     H50339   3.040   5.390   0.336  0.2679  3.2875  3.0793
  373MOL0     H50340   2.840   5.379   0.480 -0.9176 -1.6596  0.6589
  373MOL0     H50341   2.372   3.990   0.533 -0.0738 -0.0843 -0.0310
  373MOL0     H50342   2.536   3.952   0.354  2.6592  0.8849  0.2445
  373MOL0     H50343   2.768   4.225   0.004 -1.9889 -1.6854  0.5908
  373MOL0     H50344   2.910   4.217  -0.191  1.2986  0.9895 -0.1915
  373MOL0     H50345   3.219   3.923  -0.213 -0.8973 -0.5979  0.4011
  373MOL0     H50346   3.241   3.983  -0.366  2.3680 -0.0944  0.2183
  373MOL0     H50347   3.384   4.083  -0.176  0.8936 -0.8979  1.0334
  373MOL0     H50348   3.236   4.166  -0.114 -1.0047  1.2059 -1.5109
  373MOL0     H50349   3.177   4.264  -0.327 -0.1184 -0.3331 -1.1355
  373MOL0     H50350   3.322   4.211  -0.396 -1.2807 -1.4840  0.4983
  373MOL0     H50351   3.467   4.335  -0.201  0.2044 -1.4895  1.4555
  373MOL0     H50352   3.306   4.409  -0.160 -1.7146 -4.9862  1.9206
  373MOL0     H50353   3.455   4.584  -0.515  0.5170 -0.5807  0.1346
  373MOL0     H50354   3.057   3.837  -0.086  1.8814  0.8562  2.0537
  373MOL0     H50355   2.925   3.836   0.111  1.4493 -0.0327 -0.4978
  374MOL0     O50356   7.175   2.659   0.219  0.0384 -1.3712  0.2323
  374MOL0     C50357   7.260   2.631   0.301 -0.1837 -1.1187 -0.1730
  374MOL0     O50358   7.381   2.688   0.308  0.2488 -0.1903 -0.4770
  374MOL0     C50359   7.417   2.795   0.232  0.6318 -0.2652 -0.0673
  374MOL0     C50360   7.339   2.911   0.243  0.4093  0.0545 -0.0347
  374MOL0     C50361   7.378   3.018   0.161 -0.5158 -0.0971 -0.2277
  374MOL0     C50362   7.491   3.013   0.085  1.0232  0.2803 -0.5660
  374MOL0     O50363   7.545   3.117   0.012 -0.9410  0.0795  0.6855
  374MOL0     C50364   7.453   3.219  -0.033 -0.4374 -0.7919 -0.8614
  374MOL0     C50365   7.523   3.300  -0.151  1.0720 -0.5845  0.9963
  374MOL0     C50366   7.539   3.209  -0.269  0.2081  0.2631 -0.4065
  374MOL0     C50367   7.414   3.143  -0.317  0.3207 -0.8353 -0.3866
  374MOL0     C50368   7.299   3.242  -0.364  0.0697 -0.8724 -1.0878
  374MOL0     C50369   7.206   3.189  -0.474  0.8377 -0.0387 -0.3569
  374MOL0     C50370   7.180   3.042  -0.480 -0.1252  0.2888  0.8252
  374MOL0     C50371   7.059   3.017  -0.565  0.1560 -0.2593 -0.1503
  374MOL0     N50372   7.003   2.887  -0.545  0.0231  0.6858  1.3702
  374MOL0     C50373   7.011   2.764  -0.615  0.2583 -0.4577 -0.0104
  374MOL0     C50374   6.888   2.714  -0.584 -0.3271  0.3741  1.0056
  374MOL0     C50375   6.819   2.604  -0.652 -0.0009 -0.0638  0.5994
  374MOL0     C50376   6.736   2.658  -0.774  0.4972 -0.9350  0.3093
  374MOL0     C50377   6.830   2.683  -0.894  0.9693  0.5342 -0.6613
  374MOL0     C50378   6.763   2.679  -1.030  0.1638  0.0036 -0.4324
  374MOL0     O50379   6.729   2.543  -1.054 -0.4526 -0.4855 -0.2001
  374MOL0     C50380   6.809   2.464  -1.119  0.6508  0.0192  0.8548
  374MOL0     C50381   6.752   2.357  -1.189  0.8241  0.0138 -0.0585
  374MOL0     C50382   6.815   2.256  -1.253 -0.0216  0.3879 -0.0078
  374MOL0     C50383   6.735   2.150  -1.327 -0.2813 -0.4740 -0.1800
  374MOL0     C50384   6.955   2.248  -1.239 -0.2838  0.7084  0.4483
  374MOL0     C50385   7.036   2.122  -1.273  0.1844  0.5563  0.5322
  374MOL0     O50386   7.163   2.139  -1.312  0.1064 -0.4031  1.0389
  374MOL0     C50387   7.238   2.025  -1.300  0.2933 -0.2715  0.1906
  374MOL0     C50388   7.289   1.986  -1.181  0.2711  0.1013 -1.1153
  374MOL0     C50389   7.354   1.868  -1.153 -0.5642 -0.4455 -0.2619
  374MOL0     C50390   7.399   1.795  -1.259 -0.5730 -0.0389  0.7088
  374MOL0     O50391   7.473   1.685  -1.227  0.3076 -0.1912  0.1715
  374MOL0     C50392   7.443   1.568  -1.306  0.4191 -0.2381 -0.3720
  374MOL0     C50393   7.535   1.551  -1.422 -0.1677 -0.0025  0.7279
  374MOL0     C50394   7.678   1.497  -1.388 -0.0520 -0.1475  1.4550
  374MOL0     C50395   7.728   1.399  -1.493 -0.2457  0.3391 -0.1989
  374MOL0     C50396   7.711   1.444  -1.637  0.0191  0.0300 -0.4364
  374MOL0     C50397   7.735   1.346  -1.750 -0.2420 -0.0930  0.3047
  374MOL0     C50398   7.871   1.267  -1.743 -0.3596 -0.7487 -0.6161
  374MOL0     C50399   8.004   1.333  -1.730  0.5430 -0.6106  0.1809
  374MOL0    Cl50400   8.053   1.433  -1.872  0.1826 -0.7620 -0.3499
  374MOL0     C50401   7.345   1.828  -1.387 -0.4933 -0.6017  0.0074
  374MOL0     C50402   7.260   1.937  -1.404 -0.4381 -1.2221 -0.3586
  374MOL0     O50403   6.976   2.014  -1.268 -0.1219  0.7689  0.1645
  374MOL0     C50404   7.014   2.359  -1.176 -0.1093  0.3767 -0.0877
  374MOL0     C50405   6.945   2.467  -1.111 -0.2072 -0.3188 -0.0446
  374MOL0     N50406   6.815   2.784  -0.500  0.0448 -0.3800  0.1206
  374MOL0     N50407   6.892   2.879  -0.464 -0.8171 -0.6384  0.3227
  374MOL0     C50408   7.567   2.895   0.078  0.0596 -0.4858  0.1524
  374MOL0     C50409   7.531   2.782   0.153  0.8525 -0.1760  0.0413
  374MOL0     C50410   7.222   2.515   0.387  0.3132 -0.6317 -0.2463
  374MOL0     C50411   7.310   2.482   0.491  0.2068 -1.1318  0.7290
  374MOL0     C50412   7.284   2.387   0.585  0.2442  0.1475 -0.9833
  374MOL0     C50413   7.168   2.316   0.576 -0.7342 -0.2814  0.3915
  374MOL0     O50414   7.128   2.219   0.667 -0.0203 -0.3510 -0.0472
  374MOL0     C50415   7.219   2.172   0.770  0.0999  0.4179  0.2929
  374MOL0     C50416   7.313   2.056   0.725 -0.3368  0.0439  0.2156
  374MOL0     C50417   7.385   1.979   0.833  0.2104 -0.4657 -0.2528
  374MOL0     C50418   7.472   2.051   0.930 -0.0486 -0.2188 -0.9022
  374MOL0     C50419   7.606   2.088   0.869  0.0517 -0.5600 -0.4760
  374MOL0     C50420   7.712   2.118   0.815 -0.0232  0.1041 -0.6649
  374MOL0     C50421   7.073   2.352   0.477 -0.8718 -0.8567 -0.1478
  374MOL0     C50422   7.100   2.447   0.378  0.1026  0.9149 -0.6963
  374MOL0     H50423   7.261   2.919   0.318 -0.9399  0.2991 -1.4204
  374MOL0     H50424   7.329   3.113   0.179  1.6861  0.7734  1.7640
  374MOL0     H50425   7.354   3.175  -0.052 -0.6405 -1.3378  1.1596
  374MOL0     H50426   7.430   3.287   0.051 -0.9199 -1.7199 -0.2201
  374MOL0     H50427   7.460   3.387  -0.170  1.1898 -0.1584  2.4241
  374MOL0     H50428   7.611   3.348  -0.107 -0.4859  0.5000  3.1412
  374MOL0     H50429   7.584   3.264  -0.352  1.5198  1.1299  0.8396
  374MOL0     H50430   7.609   3.134  -0.231 -1.6476 -0.6756  1.3852
  374MOL0     H50431   7.434   3.089  -0.410 -0.9125 -0.4685 -0.8915
  374MOL0     H50432   7.377   3.071  -0.243  0.7158 -0.0809  0.5703
  374MOL0     H50433   7.244   3.251  -0.270  0.9085 -0.7486 -0.6051
  374MOL0     H50434   7.335   3.339  -0.397 -2.5140  0.1320 -1.1984
  374MOL0     H50435   7.114   3.247  -0.461  2.8590  3.3571  0.1655
  374MOL0     H50436   7.259   3.230  -0.561  0.0292  5.4351  1.3013
  374MOL0     H50437   7.265   2.978  -0.504 -0.9442 -1.0871  1.5130
  374MOL0     H50438   7.155   3.012  -0.378  1.5403 -1.2883  0.8245
  374MOL0     H50439   7.087   3.037  -0.669  1.2872 -1.2938 -0.0694
  374MOL0     H50440   6.982   3.091  -0.540  1.3886  0.4519  1.7230
  374MOL0     H50441   7.067   2.743  -0.706  0.2764  0.2025 -0.1567
  374MOL0     H50442   6.882   2.524  -0.691 -4.3114 -3.0743 -0.9297
  374MOL0     H50443   6.752   2.558  -0.579 -1.1688 -0.4896 -0.7050
  374MOL0     H50444   6.677   2.747  -0.752 -1.0660 -2.1428  1.2451
  374MOL0     H50445   6.665   2.578  -0.799  0.4644 -0.4414 -1.3042
  374MOL0     H50446   6.920   2.621  -0.888 -0.1641 -1.1313 -0.2327
  374MOL0     H50447   6.859   2.788  -0.885 -2.7963  1.5276  2.3699
  374MOL0     H50448   6.823   2.724  -1.109  1.6748  2.4588  1.9210
  374MOL0     H50449   6.664   2.726  -1.024 -0.1351 -0.7951  1.7161
  374MOL0     H50450   6.645   2.356  -1.171  0.6379 -2.2409 -0.9553
  374MOL0     H50451   6.717   2.057  -1.271 -1.2137  0.6744  1.5357
  374MOL0     H50452   6.639   2.198  -1.349  0.6916  0.5505 -2.5149
  374MOL0     H50453   6.780   2.123  -1.422 -0.3148 -2.9045  0.4352
  374MOL0     H50454   7.255   2.051  -1.101 -0.8012 -0.2476 -1.2730
  374MOL0     H50455   7.372   1.848  -1.048 -0.5454 -2.0264 -0.5431
  374MOL0     H50456   7.446   1.487  -1.233 -3.6685  0.4870  0.8758
  374MOL0     H50457   7.344   1.578  -1.353 -0.0590 -2.2194  0.1270
  374MOL0     H50458   7.483   1.483  -1.490 -1.2248 -0.9172  2.4061
  374MOL0     H50459   7.562   1.647  -1.468  0.1852 -1.4510 -2.3892
  374MOL0     H50460   7.660   1.441  -1.295 -0.5515 -2.1064  0.2259
  374MOL0     H50461   7.747   1.582  -1.389  0.9057 -0.8656 -1.2251
  374MOL0     H50462   7.833   1.381  -1.469 -0.8665  0.0313  2.5856
  374MOL0     H50463   7.669   1.308  -1.484 -0.5151  0.6388  1.3004
  374MOL0     H50464   7.788   1.522  -1.648 -2.6215  2.8573 -0.3823
  374MOL0     H50465   7.616   1.493  -1.661  0.0092  0.5375  0.5591
  374MOL0     H50466   7.660   1.267  -1.739 -1.6340  1.1761  0.2082
  374MOL0     H50467   7.716   1.395  -1.846  0.1724 -1.5629 -0.5599
  374MOL0     H50468   7.862   1.194  -1.824 -3.0465  0.7746 -1.8347
  374MOL0     H50469   7.876   1.202  -1.655  1.7197  0.3305  0.1382
  374MOL0     H50470   8.088   1.264  -1.718  0.8997  0.1039  2.1439
  374MOL0     H50471   7.997   1.403  -1.646 -4.0079  1.1304 -1.3654
  374MOL0     H50472   7.363   1.764  -1.473 -0.1258  1.5711 -1.6050
  374MOL0     H50473   7.243   1.960  -1.509  1.1548  2.9477  0.1074
  374MOL0     H50474   7.120   2.345  -1.158 -0.2049 -1.5461 -0.7788
  374MOL0     H50475   6.989   2.550  -1.057 -0.4862  0.0292 -0.3522
  374MOL0     H50476   7.652   2.888   0.012  0.4914 -0.8870  0.7380
  374MOL0     H50477   7.579   2.685   0.148 -0.3759 -1.0444  3.0002
  374MOL0     H50478   7.410   2.525   0.490  0.2823 -1.2550 -1.0525
  374MOL0     H50479   7.359   2.374   0.663 -1.3027  0.0489  0.5624
  374MOL0     H50480   7.272   2.258   0.813 -1.2261  1.3834  0.0456
  374MOL0     H50481   7.150   2.138   0.848 -2.3535  2.4311 -0.8620
  374MOL0     H50482   7.389   2.086   0.653  0.4753  0.8031  1.3532
  374MOL0     H50483   7.251   1.985   0.669 -2.1471  3.2047 -2.0710
  374MOL0     H50484   7.439   1.896   0.787  0.1218 -1.1143  0.7946
  374MOL0     H50485   7.305   1.922   0.881 -0.5144 -0.1041 -0.9950
  374MOL0     H50486   7.499   1.978   1.007  0.4609 -1.4046 -2.1733
  374MOL0     H50487   7.432   2.141   0.978  0.9669 -0.0161 -0.3963
  374MOL0     H50488   7.809   2.144   0.777  0.9668 -2.2089  0.1005
  374MOL0     H50489   6.971   2.316   0.477 -1.1699 -0.2408 -2.9454
  374MOL0     H50490   7.022   2.476   0.309  0.5205  0.8497 -1.2059
  375MOL0     O50491   5.831  10.067   8.090 -0.1772  0.1273 -0.5976
  375MOL0     C50492   5.827  10.193   8.071 -0.9618 -0.3771 -1.1225
  375MOL0     O50493   5.719  10.266   8.031  0.8414 -0.1645 -0.0810
  375MOL0     C50494   5.584  10.234   8.044  0.0338  0.3560 -0.5002
  375MOL0     C50495   5.531  10.112   8.083 -0.0909  0.2493 -1.1071
  375MOL0     C50496   5.390  10.088   8.067 -0.9263  0.5635 -0.2307
  375MOL0     C50497   5.310  10.192   8.028 -0.4224 -0.9466 -0.5641
  375MOL0     O50498   5.177  10.173   8.018  0.4018 -0.2500 -0.4448
  375MOL0     C50499   5.109  10.238   8.133 -0.0268 -0.3036 -0.1113
  375MOL0     C50500   4.984  10.311   8.083 -0.2797 -0.4755  1.3910
  375MOL0     C50501   4.885  10.217   8.023  0.2985  1.5490  0.8596
  375MOL0     C50502   4.751  10.296   7.997 -0.5893  0.1526  0.7666
  375MOL0     C50503   4.673  10.314   8.130  0.9478  0.4560 -0.8067
  375MOL0     C50504   4.525  10.371   8.118  0.1188 -1.1688  1.1653
  375MOL0     C50505   4.470  10.411   8.254  0.0010 -0.2277  0.2014
  375MOL0     C50506   4.332  10.481   8.238 -0.7308  0.3416  0.7282
  375MOL0     N50507   4.228  10.392   8.167  0.0334 -0.0066 -0.2822
  375MOL0     C50508   4.204  10.385   8.037  0.5720  0.3987  0.7296
  375MOL0     C50509   4.107  10.293   8.022 -0.8631 -0.6910  0.1324
  375MOL0     C50510   4.050  10.241   7.889  0.0738  0.0510  0.3871
  375MOL0     C50511   3.976  10.354   7.816  0.0739 -1.3319  0.9601
  375MOL0     C50512   3.902  10.296   7.690  0.8746  0.5474  0.9274
  375MOL0     C50513   3.810  10.390   7.614 -0.5787  0.1985 -0.0834
  375MOL0     O50514   3.705  10.327   7.548 -0.1151  0.2507 -0.7123
  375MOL0     C50515   3.605  10.406   7.496 -0.2649  0.7475 -0.7550
  375MOL0     C50516   3.620  10.537   7.447 -0.3630 -0.1235  0.2098
  375MOL0     C50517   3.524  10.591   7.353  0.1191  0.1407 -0.7257
  375MOL0     C50518   3.578  10.700   7.262  0.6965 -0.1141  0.2444
  375MOL0     C50519   3.408  10.514   7.314 -0.4435  0.3199 -1.0073
  375MOL0     C50520   3.302  10.564   7.223 -0.2808  0.1774  0.5012
  375MOL0     O50521   3.196  10.468   7.183 -0.3033 -0.8695  0.3417
  375MOL0     C50522   3.106  10.524   7.099  0.3374 -0.1096 -0.2678
  375MOL0     C50523   3.134  10.567   6.969  0.6640  0.3384  0.3181
  375MOL0     C50524   3.033  10.618   6.881  0.6253 -0.7115 -0.1028
  375MOL0     C50525   2.895  10.612   6.918  0.0238  0.5126 -0.3633
  375MOL0     O50526   2.800  10.693   6.870  1.1665  0.2356 -0.1378
  375MOL0     C50527   2.783  10.704   6.724 -0.0660  0.9016 -0.5164
  375MOL0     C50528   2.634  10.722   6.679  0.9202 -0.2372  0.3853
  375MOL0     C50529   2.551  10.824   6.763  0.3534  0.0812  0.6984
  375MOL0     C50530   2.432  10.879   6.676  0.7068 -0.6721 -0.5577
  375MOL0     C50531   2.342  10.967   6.753 -0.1857  0.1808 -0.6340
  375MOL0     C50532   2.398  11.092   6.825 -0.1383  0.2381 -0.1223
  375MOL0     C50533   2.295  11.181   6.890 -0.0617  0.5221  1.0231
  375MOL0     C50534   2.370  11.308   6.936  0.1833 -0.5656  0.7182
  375MOL0    Cl50535   2.283  11.405   7.067 -0.0866 -0.1282 -0.2151
  375MOL0     C50536   2.866  10.556   7.049  0.1865 -0.3821 -0.0982
  375MOL0     C50537   2.969  10.519   7.134 -0.3105 -0.4627  0.3674
  375MOL0     O50538   3.312  10.686   7.196  0.1625 -0.4810 -0.1607
  375MOL0     C50539   3.381  10.402   7.397  0.5260  0.1742  0.4004
  375MOL0     C50540   3.477  10.350   7.487 -0.6011  0.5296 -0.5631
  375MOL0     N50541   4.072  10.238   8.141 -0.1809 -0.4470 -0.7392
  375MOL0     N50542   4.163  10.284   8.225 -0.2924  0.0789 -0.0796
  375MOL0     C50543   5.355  10.320   7.990 -0.1904 -0.3011  0.4169
  375MOL0     C50544   5.494  10.336   8.003 -0.6339  0.2168 -0.5586
  375MOL0     C50545   5.951  10.266   8.092  0.8567 -0.0367  0.0853
  375MOL0     C50546   5.950  10.403   8.119  0.1820  0.0055  0.5670
  375MOL0     C50547   6.066  10.479   8.146 -0.0528  0.5133 -0.4308
  375MOL0     C50548   6.189  10.419   8.112 -0.1811 -0.6607 -0.3126
  375MOL0     O50549   6.304  10.483   8.108 -0.2200 -0.6127 -0.6753
  375MOL0     C50550   6.317  10.615   8.166 -0.0371  0.2925 -0.5934
  375MOL0     C50551   6.469  10.643   8.177 -0.2015 -0.4876  0.3744
  375MOL0     C50552   6.493  10.787   8.132 -0.5957  0.5618 -0.9943
  375MOL0     C50553   6.637  10.834   8.143 -0.0571 -0.1337  0.1737
  375MOL0     C50554   6.667  10.962   8.067 -0.0816  0.6623 -1.0489
  375MOL0     C50555   6.695  11.056   7.991 -0.8506  0.8322  0.2761
  375MOL0     C50556   6.195  10.287   8.074  0.9965 -0.5471 -0.0763
  375MOL0     C50557   6.074  10.211   8.076 -0.1406  0.2917  0.0608
  375MOL0     H50558   5.591  10.028   8.116 -1.8741 -1.2417 -1.4957
  375MOL0     H50559   5.340   9.992   8.073 -1.9927  0.9755 -1.9845
  375MOL0     H50560   5.098  10.149   8.196  1.6577  1.1126  2.3266
  375MOL0     H50561   5.163  10.301   8.204  0.3082 -1.1247  0.3763
  375MOL0     H50562   4.943  10.355   8.174 -0.7664  2.3665 -0.0660
  375MOL0     H50563   5.015  10.393   8.016  0.0417 -0.5478  1.4518
  375MOL0     H50564   4.922  10.183   7.926 -0.7232  0.7282  0.7307
  375MOL0     H50565   4.872  10.125   8.080 -6.5436  1.6506  0.3905
  375MOL0     H50566   4.767  10.395   7.952  1.6103 -0.0324  1.0311
  375MOL0     H50567   4.689  10.235   7.930  0.9761 -0.8282  0.1574
  375MOL0     H50568   4.671  10.210   8.166  1.9173  0.1675 -1.5359
  375MOL0     H50569   4.721  10.384   8.199  0.9784 -1.0172  0.7386
  375MOL0     H50570   4.514  10.444   8.037  1.6254  0.0239  1.9882
  375MOL0     H50571   4.472  10.288   8.072  1.6338 -0.4482 -2.1948
  375MOL0     H50572   4.448  10.318   8.306 -1.4479  1.1425  2.2110
  375MOL0     H50573   4.551  10.469   8.299 -0.9403  3.1878 -2.1107
  375MOL0     H50574   4.343  10.571   8.177 -0.1989 -1.3870 -1.8843
  375MOL0     H50575   4.300  10.492   8.342 -2.1206 -3.7160  0.9182
  375MOL0     H50576   4.245  10.435   7.950 -1.2417 -0.5266 -0.7322
  375MOL0     H50577   4.122  10.203   7.816  1.2510  2.9442 -0.0663
  375MOL0     H50578   3.975  10.171   7.929 -1.1519  1.1391  0.0394
  375MOL0     H50579   4.050  10.424   7.778 -1.9847 -0.3068 -1.3818
  375MOL0     H50580   3.900  10.400   7.879 -2.5197  1.0611 -3.4603
  375MOL0     H50581   3.832  10.216   7.717  2.3349  0.5234  5.5331
  375MOL0     H50582   3.975  10.262   7.617 -0.2163  1.8340 -0.8524
  375MOL0     H50583   3.873  10.447   7.545  0.3069 -0.0126  0.5483
  375MOL0     H50584   3.770  10.463   7.685  2.5180  0.9477  1.0378
  375MOL0     H50585   3.716  10.583   7.466 -1.0845  0.3281  3.1986
  375MOL0     H50586   3.553  10.674   7.159 -2.8526 -1.6270  1.3390
  375MOL0     H50587   3.545  10.803   7.276  0.9801  0.0716 -0.4063
  375MOL0     H50588   3.687  10.700   7.267  0.7702 -0.0683 -1.0756
  375MOL0     H50589   3.238  10.572   6.938  0.4053 -1.0606 -0.8892
  375MOL0     H50590   3.062  10.676   6.794  2.2557 -1.5390 -0.1525
  375MOL0     H50591   2.840  10.789   6.686  1.4781 -0.0675 -0.4584
  375MOL0     H50592   2.833  10.614   6.686 -0.7563  0.8280 -1.3012
  375MOL0     H50593   2.633  10.756   6.576 -0.3969 -2.5830 -0.4407
  375MOL0     H50594   2.593  10.621   6.672  0.7608 -0.0444 -2.7974
  375MOL0     H50595   2.623  10.899   6.801  1.7484  0.4464 -2.3863
  375MOL0     H50596   2.489  10.776   6.839 -3.9948 -2.1193 -3.7440
  375MOL0     H50597   2.470  10.940   6.594  1.0956 -0.3691 -0.1563
  375MOL0     H50598   2.375  10.798   6.629 -0.5763  0.7654 -1.5833
  375MOL0     H50599   2.281  10.912   6.825  0.6439 -0.6197 -0.5232
  375MOL0     H50600   2.272  11.009   6.681 -2.4070 -1.1059  0.6547
  375MOL0     H50601   2.466  11.058   6.904 -3.0630  0.6757  2.8002
  375MOL0     H50602   2.439  11.153   6.744 -2.7125  0.8610 -1.0634
  375MOL0     H50603   2.256  11.144   6.985  1.4479  2.9734  2.7177
  375MOL0     H50604   2.220  11.210   6.815 -0.2932 -0.6247  0.7859
  375MOL0     H50605   2.400  11.375   6.854 -0.4512 -0.1509  0.8160
  375MOL0     H50606   2.468  11.277   6.973  1.2168  0.7031 -0.7676
  375MOL0     H50607   2.765  10.558   7.090  1.1649 -0.2139  2.4903
  375MOL0     H50608   2.943  10.494   7.237  1.7861  0.3687  1.1479
  375MOL0     H50609   3.285  10.351   7.389 -0.5145  2.0280  0.5199
  375MOL0     H50610   3.466  10.248   7.522 -1.4172  0.8973  0.2984
  375MOL0     H50611   5.290  10.386   7.932 -2.1354 -1.5616  1.0482
  375MOL0     H50612   5.541  10.432   7.979  0.7620 -0.4847 -0.7650
  375MOL0     H50613   5.850  10.442   8.133  0.0410 -0.3072  0.4366
  375MOL0     H50614   6.057  10.574   8.196 -2.8256 -0.6438  1.4531
  375MOL0     H50615   6.257  10.679   8.101  0.8467  3.6168  1.5805
  375MOL0     H50616   6.273  10.613   8.266 -1.3985  4.0942 -0.9466
  375MOL0     H50617   6.520  10.571   8.112 -0.7469 -0.2084 -0.3804
  375MOL0     H50618   6.486  10.630   8.284 -2.2749  0.5565  0.8822
  375MOL0     H50619   6.436  10.854   8.196 -2.0074 -1.0260 -0.5102
  375MOL0     H50620   6.454  10.808   8.031 -0.4147  1.1466 -0.9444
  375MOL0     H50621   6.711  10.759   8.116  0.0410  0.6372 -1.8691
  375MOL0     H50622   6.665  10.863   8.245  0.2091  1.1366 -0.2383
  375MOL0     H50623   6.703  11.134   7.919 -2.6620  2.5220  1.7851
  375MOL0     H50624   6.295  10.245   8.063  1.0106 -0.2297 -1.3559
  375MOL0     H50625   6.089  10.105   8.057 -1.1972  0.1680 -0.1675
  376MOL0     O50626   3.051   9.398   4.258 -0.4373  0.1833 -0.0465
  376MOL0     C50627   3.044   9.308   4.171 -0.4675 -0.1965 -0.3584
  376MOL0     O50628   2.940   9.220   4.154 -0.0799 -0.6270  0.3092
  376MOL0     C50629   2.846   9.205   4.255 -0.2475 -0.0509  0.4030
  376MOL0     C50630   2.882   9.126   4.367 -0.6178  0.2882  0.9585
  376MOL0     C50631   2.795   9.104   4.476 -0.1724 -0.2443  0.1013
  376MOL0     C50632   2.668   9.170   4.476  0.2866 -0.0853 -0.2415
  376MOL0     O50633   2.575   9.177   4.583  0.5244 -0.5687 -0.2541
  376MOL0     C50634   2.626   9.145   4.715  0.3416 -0.0718  0.5715
  376MOL0     C50635   2.519   9.199   4.807 -0.6980  1.1938 -0.4842
  376MOL0     C50636   2.472   9.077   4.895 -0.3172  0.2666 -1.0639
  376MOL0     C50637   2.363   9.125   4.989  0.0507 -0.2003  0.2105
  376MOL0     C50638   2.305   9.017   5.081 -0.2497 -0.0665 -0.2654
  376MOL0     C50639   2.166   9.058   5.138  0.0085 -0.0192 -0.3180
  376MOL0     C50640   2.118   8.972   5.249 -0.6104 -0.0203  0.2506
  376MOL0     C50641   1.971   9.007   5.273 -0.6535 -0.3230  0.0719
  376MOL0     N50642   1.933   8.943   5.395 -0.4420 -0.1427 -0.7351
  376MOL0     C50643   1.891   8.812   5.408 -0.2930  0.2688 -0.2003
  376MOL0     C50644   1.876   8.788   5.538  1.0079 -0.1276  0.4958
  376MOL0     C50645   1.834   8.661   5.603 -0.0112 -0.0537 -0.3463
  376MOL0     C50646   1.963   8.570   5.595 -0.1755  0.3829  0.7549
  376MOL0     C50647   1.947   8.459   5.493  0.1330 -0.7962 -0.3579
  376MOL0     C50648   1.831   8.359   5.525 -0.5603 -0.5612  0.1138
  376MOL0     O50649   1.843   8.250   5.426  0.0868 -0.5579  0.2329
  376MOL0     C50650   1.739   8.174   5.387  0.0255 -0.1622 -0.3827
  376MOL0     C50651   1.602   8.183   5.443  0.5145 -0.1722 -0.1951
  376MOL0     C50652   1.498   8.098   5.402  0.5384  0.5204  0.5168
  376MOL0     C50653   1.372   8.098   5.485 -0.1621 -0.3237  0.6064
  376MOL0     C50654   1.515   8.024   5.279  0.3006 -0.8278 -0.0936
  376MOL0     C50655   1.403   7.958   5.204  0.1233  0.7278 -0.7371
  376MOL0     O50656   1.423   7.838   5.134 -0.1496 -0.3422 -0.4691
  376MOL0     C50657   1.308   7.765   5.091 -0.8577  0.1529 -0.1275
  376MOL0     C50658   1.261   7.657   5.172 -0.7762  0.1883  0.1779
  376MOL0     C50659   1.146   7.588   5.134  0.7449 -0.0676  0.1783
  376MOL0     C50660   1.057   7.630   5.035  0.7797 -0.8517 -0.1333
  376MOL0     O50661   0.955   7.552   4.995 -0.3315 -0.5056 -0.8872
  376MOL0     C50662   0.900   7.436   5.060 -0.2726  0.9173  0.6166
  376MOL0     C50663   0.775   7.386   4.979  0.3986  0.3290  0.7515
  376MOL0     C50664   0.812   7.341   4.829 -0.2638 -0.2235 -0.0631
  376MOL0     C50665   0.690   7.295   4.755 -0.6343 -0.5944 -0.0399
  376MOL0     C50666   0.718   7.256   4.610 -0.4013  0.3060  0.4371
  376MOL0     C50667   0.750   7.363   4.511 -0.7072 -0.1504  0.3631
  376MOL0     C50668   0.831   7.307   4.391  0.1552  0.2612 -0.2182
  376MOL0     C50669   0.740   7.217   4.307  0.2237  1.2821 -0.4920
  376MOL0    Cl50670   0.796   7.229   4.136  0.0884  0.3665 -0.0337
  376MOL0     C50671   1.099   7.744   4.960 -0.4179 -0.5188 -0.5675
  376MOL0     C50672   1.219   7.809   4.994  0.1707  0.4320  1.0080
  376MOL0     O50673   1.294   8.019   5.210 -0.0851  0.3493 -0.5295
  376MOL0     C50674   1.648   8.016   5.227 -0.2180  0.6591 -0.4113
  376MOL0     C50675   1.757   8.084   5.285 -0.1379 -0.8671  0.0068
  376MOL0     N50676   1.907   8.908   5.605 -0.7582  0.6515 -0.2215
  376MOL0     N50677   1.944   8.998   5.518 -0.8108  0.8764 -0.6360
  376MOL0     C50678   2.637   9.244   4.361 -0.7558 -0.2667  0.1948
  376MOL0     C50679   2.716   9.256   4.249 -0.2621  0.5330 -0.0784
  376MOL0     C50680   3.152   9.297   4.072 -0.7427 -0.2404  1.2430
  376MOL0     C50681   3.234   9.405   4.048 -0.3703 -0.3507 -0.0689
  376MOL0     C50682   3.314   9.410   3.938 -0.4076  0.0077  0.3727
  376MOL0     C50683   3.321   9.302   3.846  0.6418 -0.2836  0.3426
  376MOL0     O50684   3.394   9.321   3.731 -0.4494  0.2930  0.6056
  376MOL0     C50685   3.367   9.230   3.622  0.5148  1.0250 -0.4013
  376MOL0     C50686   3.426   9.276   3.489 -0.3171 -0.3880  1.1255
  376MOL0     C50687   3.576   9.305   3.501  0.2495 -0.0769 -0.3349
  376MOL0     C50688   3.639   9.355   3.379  0.1491  0.3122 -0.3152
  376MOL0     C50689   3.775   9.401   3.403 -0.1061 -0.9131 -1.4433
  376MOL0     C50690   3.888   9.435   3.439 -0.3246  0.2324  0.2800
  376MOL0     C50691   3.237   9.193   3.863  0.8661 -0.8441  0.4020
  376MOL0     C50692   3.148   9.189   3.970  0.9514 -0.2558 -0.6132
  376MOL0     H50693   2.986   9.096   4.372 -0.7592 -0.6970 -1.0639
  376MOL0     H50694   2.825   9.030   4.550  0.6865 -2.0621 -1.9463
  376MOL0     H50695   2.640   9.038   4.731  0.8928 -0.1481 -0.3191
  376MOL0     H50696   2.724   9.191   4.732  1.4881 -1.9972 -0.5195
  376MOL0     H50697   2.557   9.282   4.867 -1.5284  1.9931 -1.0452
  376MOL0     H50698   2.437   9.239   4.747 -2.9730  1.2267  2.4096
  376MOL0     H50699   2.425   9.000   4.834 -1.9074 -1.2967  1.8969
  376MOL0     H50700   2.559   9.042   4.952 -2.0388  0.2345  1.7311
  376MOL0     H50701   2.397   9.215   5.040 -1.1587 -0.1195  0.9012
  376MOL0     H50702   2.279   9.155   4.926  0.8326 -2.4773 -2.1174
  376MOL0     H50703   2.299   8.915   5.042  0.0208 -0.6328  1.0948
  376MOL0     H50704   2.368   9.000   5.169  1.8758 -3.6040 -2.2538
  376MOL0     H50705   2.182   9.157   5.182  0.1990 -1.9114  4.5395
  376MOL0     H50706   2.094   9.070   5.057  0.7528  0.1310 -0.9703
  376MOL0     H50707   2.129   8.867   5.223 -2.1405 -0.2441  0.4027
  376MOL0     H50708   2.176   9.005   5.335  0.8390  0.7171 -0.9540
  376MOL0     H50709   1.917   8.975   5.184  2.4847  0.7162 -2.3912
  376MOL0     H50710   1.952   9.113   5.293  0.5388  0.3001 -1.8929
  376MOL0     H50711   1.891   8.739   5.327  5.4297  0.7738 -1.0620
  376MOL0     H50712   1.819   8.680   5.709  2.6156  0.2652  0.0384
  376MOL0     H50713   1.743   8.625   5.553 -0.3583  2.2056 -1.4841
  376MOL0     H50714   1.976   8.526   5.695 -0.9984 -1.6053  0.0476
  376MOL0     H50715   2.050   8.629   5.565 -1.1819 -0.0216 -3.5377
  376MOL0     H50716   2.039   8.400   5.491  2.2659  1.9963  3.2211
  376MOL0     H50717   1.932   8.510   5.397 -0.7200  0.9644  0.6689
  376MOL0     H50718   1.739   8.412   5.497 -2.3167 -3.1688  0.5787
  376MOL0     H50719   1.813   8.332   5.629  0.1623  0.4287  0.5091
  376MOL0     H50720   1.580   8.262   5.514  3.3036  1.6186 -1.1894
  376MOL0     H50721   1.295   8.023   5.465 -0.5507  0.4069 -0.7479
  376MOL0     H50722   1.403   8.093   5.590 -0.8704  1.0811  0.9121
  376MOL0     H50723   1.321   8.194   5.481 -0.8639 -0.6836  0.6595
  376MOL0     H50724   1.333   7.622   5.245  0.4476  0.1830 -0.9882
  376MOL0     H50725   1.127   7.494   5.186 -0.8614 -0.3984 -0.9007
  376MOL0     H50726   0.977   7.358   5.062 -1.7612 -0.6112  0.1317
  376MOL0     H50727   0.858   7.455   5.159  0.6929 -0.6897  1.3929
  376MOL0     H50728   0.733   7.296   5.026 -1.0526 -0.0165 -1.1052
  376MOL0     H50729   0.698   7.463   4.973  0.2163  0.0886 -0.0640
  376MOL0     H50730   0.892   7.266   4.826 -1.1388 -1.1630 -1.9785
  376MOL0     H50731   0.857   7.426   4.776  1.6440 -0.8440  0.4701
  376MOL0     H50732   0.659   7.204   4.807  0.9347 -0.9660  0.2864
  376MOL0     H50733   0.610   7.370   4.759  0.3883  0.5279  0.1124
  376MOL0     H50734   0.627   7.203   4.581 -1.2141  1.0615  1.5202
  376MOL0     H50735   0.806   7.191   4.606  0.6070  1.6882 -2.4971
  376MOL0     H50736   0.661   7.424   4.497 -0.2274  0.8590  1.5795
  376MOL0     H50737   0.807   7.440   4.563 -3.4330  1.5532  1.0107
  376MOL0     H50738   0.920   7.254   4.427  1.6600  0.3636 -3.4052
  376MOL0     H50739   0.875   7.388   4.333 -1.8648  0.4808 -1.5363
  376MOL0     H50740   0.636   7.241   4.331  0.7363  1.5304  1.6686
  376MOL0     H50741   0.760   7.115   4.341 -1.6667  2.1860  4.0449
  376MOL0     H50742   1.038   7.784   4.879 -0.0384  0.6169 -0.3097
  376MOL0     H50743   1.253   7.887   4.926 -4.2342  0.9900 -0.8635
  376MOL0     H50744   1.667   7.978   5.127 -2.0355  0.6720 -0.8029
  376MOL0     H50745   1.851   8.079   5.230 -1.5703 -0.7826 -2.6490
  376MOL0     H50746   2.542   9.295   4.357 -0.6525 -0.1091 -0.4541
  376MOL0     H50747   2.688   9.310   4.158  0.2729 -1.0930 -1.2478
  376MOL0     H50748   3.244   9.492   4.111  0.4982 -0.7484  0.3522
  376MOL0     H50749   3.368   9.504   3.926  2.1931 -1.3738  0.5568
  376MOL0     H50750   3.408   9.129   3.637  0.0552  0.6983 -1.2742
  376MOL0     H50751   3.258   9.219   3.619  0.3483 -0.6364  4.1176
  376MOL0     H50752   3.377   9.370   3.464 -1.1233 -0.9086  0.7235
  376MOL0     H50753   3.406   9.200   3.412 -0.0969  1.7233 -1.1375
  376MOL0     H50754   3.628   9.220   3.547 -1.1788 -0.3995  0.7788
  376MOL0     H50755   3.589   9.379   3.580 -0.5101  0.7647 -0.9735
  376MOL0     H50756   3.587   9.438   3.330 -0.2232  0.5657  0.5058
  376MOL0     H50757   3.637   9.281   3.298  0.5804  0.8745 -0.8533
  376MOL0     H50758   3.991   9.446   3.470  0.3746 -2.0356 -1.0031
  376MOL0     H50759   3.227   9.111   3.793 -0.5448  0.0454 -0.4823
  376MOL0     H50760   3.064   9.123   3.987 -0.9270  2.0720 -0.2080
  377MOL0     O50761   7.254  11.007   6.254 -0.0663  0.3984  0.0658
  377MOL0     C50762   7.312  11.067   6.340 -0.0850  0.6025 -0.5439
  377MOL0     O50763   7.255  11.116   6.459 -0.1399  0.3494  1.1062
  377MOL0     C50764   7.122  11.107   6.479  0.7594  0.1447  0.5277
  377MOL0     C50765   7.069  11.042   6.589  0.4461 -0.2579 -0.4444
  377MOL0     C50766   6.930  11.038   6.623 -0.6674 -2.0129  0.0826
  377MOL0     C50767   6.840  11.088   6.534  0.0671  0.6315  0.3619
  377MOL0     O50768   6.705  11.090   6.550 -0.0174  0.1182  0.1624
  377MOL0     C50769   6.648  11.077   6.685  0.3436  0.4770 -1.0724
  377MOL0     C50770   6.499  11.117   6.684 -0.6690 -0.2778  0.6887
  377MOL0     C50771   6.418  11.109   6.807 -0.3788 -0.4306  0.2503
  377MOL0     C50772   6.270  11.143   6.775  0.1007 -0.4567  0.6494
  377MOL0     C50773   6.198  11.157   6.912 -0.3873  0.1502  0.3988
  377MOL0     C50774   6.042  11.192   6.901 -0.4874 -0.3275 -0.2742
  377MOL0     C50775   5.983  11.186   7.042 -0.9834 -0.2974 -1.1869
  377MOL0     C50776   5.866  11.283   7.064 -0.5722 -0.6421  0.0325
  377MOL0     N50777   5.829  11.303   7.198 -0.4516 -0.0596 -0.5331
  377MOL0     C50778   5.793  11.205   7.290  0.9952 -0.4369 -0.3518
  377MOL0     C50779   5.798  11.268   7.408 -0.2254 -0.5245  0.1324
  377MOL0     C50780   5.770  11.221   7.547  0.6551 -0.5045  0.4439
  377MOL0     C50781   5.619  11.235   7.588 -0.0987  0.2372 -0.5501
  377MOL0     C50782   5.577  11.386   7.618  0.7284 -0.7054  0.2405
  377MOL0     C50783   5.431  11.392   7.658  0.1893  0.0003 -0.3824
  377MOL0     O50784   5.420  11.370   7.798  0.2483  0.3145 -1.4469
  377MOL0     C50785   5.300  11.390   7.848  0.4009 -0.2223  0.2473
  377MOL0     C50786   5.257  11.513   7.891  0.2481 -0.4537 -0.0192
  377MOL0     C50787   5.127  11.539   7.937 -0.4035  0.4401 -0.2014
  377MOL0     C50788   5.087  11.686   7.963  0.9243  1.0693 -0.6118
  377MOL0     C50789   5.040  11.425   7.950 -0.5767 -0.1703  0.2726
  377MOL0     C50790   4.903  11.435   8.006 -0.2018 -0.2443 -0.2152
  377MOL0     O50791   4.808  11.391   7.929  0.8636 -1.0853  0.4751
  377MOL0     C50792   4.676  11.395   7.978 -0.2863  0.3873 -0.0768
  377MOL0     C50793   4.616  11.288   8.035  1.0054  1.3227 -1.0408
  377MOL0     C50794   4.481  11.287   8.087  0.1804  0.1339  0.7592
  377MOL0     C50795   4.405  11.407   8.060 -0.1635 -0.5042 -0.5413
  377MOL0     O50796   4.275  11.409   8.094 -0.2374  1.1050 -0.5366
  377MOL0     C50797   4.172  11.432   7.989  0.3780 -0.7798 -0.3722
  377MOL0     C50798   4.049  11.458   8.068  0.3330  0.2831  0.2800
  377MOL0     C50799   3.927  11.480   7.976 -0.3648 -0.1588 -0.4996
  377MOL0     C50800   3.809  11.556   8.030  0.1824 -0.3136 -0.2229
  377MOL0     C50801   3.683  11.493   7.978 -0.0624  0.6340 -0.7951
  377MOL0     C50802   3.558  11.549   8.048 -0.1962 -0.2311 -0.5234
  377MOL0     C50803   3.522  11.692   8.008 -0.1725 -0.9486 -0.2567
  377MOL0     C50804   3.389  11.751   8.071 -0.5110 -0.0093 -0.8059
  377MOL0    Cl50805   3.359  11.915   8.003 -0.0134 -0.2166  0.0088
  377MOL0     C50806   4.466  11.513   8.008  0.5303 -0.4081  0.0830
  377MOL0     C50807   4.601  11.507   7.967 -0.1809  1.1199  0.0879
  377MOL0     O50808   4.888  11.492   8.116 -0.3179 -0.5773  0.2106
  377MOL0     C50809   5.078  11.301   7.900 -0.2736 -0.3043  0.0010
  377MOL0     C50810   5.208  11.287   7.847 -0.2613  0.1418  0.4079
  377MOL0     N50811   5.819  11.403   7.383 -0.1158 -0.7287 -0.4873
  377MOL0     N50812   5.839  11.427   7.260 -0.4980 -0.5342  0.0091
  377MOL0     C50813   6.889  11.139   6.422 -0.0911  0.1994  1.1742
  377MOL0     C50814   7.025  11.154   6.388 -0.3311 -0.1199  0.9286
  377MOL0     C50815   7.457  11.104   6.316 -0.1717  0.1330  0.7085
  377MOL0     C50816   7.526  11.190   6.401 -0.4595  0.2866  0.2834
  377MOL0     C50817   7.654  11.232   6.362 -0.9815  0.3119  0.9941
  377MOL0     C50818   7.708  11.193   6.232  0.3129 -0.3917  0.0096
  377MOL0     O50819   7.829  11.246   6.213 -0.1265  0.3985 -0.2034
  377MOL0     C50820   7.906  11.216   6.096  0.3142 -0.3663 -1.6434
  377MOL0     C50821   7.998  11.103   6.136 -0.0531  0.4536  0.2242
  377MOL0     C50822   8.074  11.044   6.016 -0.7521 -0.3097  0.7535
  377MOL0     C50823   8.153  10.905   6.027 -0.0974  0.6389 -0.4800
  377MOL0     C50824   8.071  10.794   6.074  1.0962  1.0916  0.5758
  377MOL0     C50825   7.987  10.708   6.103  0.2807  0.6901 -0.4419
  377MOL0     C50826   7.634  11.113   6.139  0.1382  0.7748 -0.0125
  377MOL0     C50827   7.510  11.077   6.184  0.5217  0.2700  0.4514
  377MOL0     H50828   7.137  10.991   6.657 -0.4490  0.9102  1.4029
  377MOL0     H50829   6.892  10.982   6.707 -1.0629 -0.6891  0.8119
  377MOL0     H50830   6.640  10.973   6.718  1.0499  0.4848 -0.8535
  377MOL0     H50831   6.709  11.132   6.757  1.4623 -0.4983 -1.2438
  377MOL0     H50832   6.480  11.215   6.640 -1.5255 -0.0757  1.4789
  377MOL0     H50833   6.451  11.044   6.618  1.6721  0.4577 -2.0162
  377MOL0     H50834   6.431  11.009   6.850  0.1218 -0.6975 -0.5110
  377MOL0     H50835   6.460  11.186   6.872  0.3767  1.9627 -2.8524
  377MOL0     H50836   6.269  11.244   6.733 -1.0183 -0.2604  1.0890
  377MOL0     H50837   6.212  11.087   6.700 -1.9023 -1.2906  2.6916
  377MOL0     H50838   6.195  11.059   6.959  1.5760 -1.1814 -2.0230
  377MOL0     H50839   6.248  11.235   6.969 -0.5687 -0.5377  1.5179
  377MOL0     H50840   6.024  11.293   6.864  0.0777 -0.6818 -1.5796
  377MOL0     H50841   5.990  11.130   6.828 -1.8795  0.3024  0.1454
  377MOL0     H50842   5.954  11.088   7.081 -0.0886  0.3911  1.4479
  377MOL0     H50843   6.054  11.212   7.121 -2.2315 -1.1708  0.2933
  377MOL0     H50844   5.788  11.248   6.996 -2.2212 -1.0577  2.0383
  377MOL0     H50845   5.912  11.380   7.041  0.5107 -1.0999  0.2180
  377MOL0     H50846   5.771  11.103   7.261 -0.0429 -0.3381  0.0631
  377MOL0     H50847   5.812  11.121   7.566  1.5192 -0.2814 -0.2438
  377MOL0     H50848   5.832  11.286   7.610  0.7447 -2.5077  2.5494
  377MOL0     H50849   5.612  11.187   7.686  1.2595 -0.5595 -0.8134
  377MOL0     H50850   5.548  11.190   7.518 -0.4488 -2.1467  1.2095
  377MOL0     H50851   5.576  11.449   7.528 -3.8806 -0.8532 -0.0584
  377MOL0     H50852   5.640  11.427   7.698 -2.2959  2.3519  1.3380
  377MOL0     H50853   5.372  11.318   7.603 -0.1286  1.4530 -2.0916
  377MOL0     H50854   5.397  11.494   7.636 -0.8138 -0.2322  0.0177
  377MOL0     H50855   5.322  11.600   7.889 -0.2951 -0.0485 -0.8356
  377MOL0     H50856   5.037  11.688   8.060 -0.6270  0.7890 -1.3750
  377MOL0     H50857   5.182  11.740   7.968  0.7473  1.4481 -1.2537
  377MOL0     H50858   5.014  11.713   7.886 -0.5894 -2.8771 -0.7763
  377MOL0     H50859   4.678  11.207   8.073 -3.2258 -1.6236  0.3789
  377MOL0     H50860   4.446  11.198   8.138  0.5790  0.2286  1.2039
  377MOL0     H50861   4.216  11.513   7.930 -0.2975  0.7593  1.1537
  377MOL0     H50862   4.157  11.343   7.927  1.7730 -0.7479 -0.7849
  377MOL0     H50863   4.022  11.380   8.140  0.9860  0.3458  0.6046
  377MOL0     H50864   4.055  11.553   8.122  0.3663  0.7323 -0.5077
  377MOL0     H50865   3.894  11.386   7.930  0.6632 -1.5302  1.4170
  377MOL0     H50866   3.960  11.546   7.895 -1.8420  0.3841 -0.6960
  377MOL0     H50867   3.803  11.535   8.138  0.5752 -1.3265 -0.3854
  377MOL0     H50868   3.809  11.663   8.006  1.8262 -0.2082  0.0889
  377MOL0     H50869   3.694  11.385   7.993 -3.2833  0.1987 -0.8279
  377MOL0     H50870   3.664  11.513   7.872  1.2932  0.3093 -1.1200
  377MOL0     H50871   3.470  11.485   8.038 -0.3091 -0.2170  0.2912
  377MOL0     H50872   3.578  11.555   8.155 -0.6190 -0.2688 -0.4390
  377MOL0     H50873   3.495  11.694   7.902 -2.6988  1.8418  0.2887
  377MOL0     H50874   3.603  11.758   8.041 -3.1546  3.1429 -0.3306
  377MOL0     H50875   3.388  11.746   8.181 -0.2516  0.3583 -0.7863
  377MOL0     H50876   3.312  11.684   8.031 -0.4037 -0.2108 -0.6803
  377MOL0     H50877   4.410  11.605   7.993 -0.6976 -1.3496 -1.3319
  377MOL0     H50878   4.649  11.593   7.922 -1.5415  2.0643  0.3629
  377MOL0     H50879   5.019  11.211   7.911 -0.3123 -0.6129 -2.2244
  377MOL0     H50880   5.243  11.188   7.820  2.3717  1.8108 -2.9670
  377MOL0     H50881   6.812  11.152   6.346  0.3276 -2.7020  0.1172
  377MOL0     H50882   7.049  11.210   6.299  0.3084 -0.9852  0.5501
  377MOL0     H50883   7.478  11.216   6.494 -0.0437 -1.8149  1.1383
  377MOL0     H50884   7.703  11.284   6.443 -3.2121  1.4178  1.7381
  377MOL0     H50885   7.843  11.197   6.008  0.8297  1.6051 -2.5044
  377MOL0     H50886   7.969  11.303   6.074 -0.8404  1.0413  0.2761
  377MOL0     H50887   7.936  11.028   6.185  0.9256  0.4901  1.5989
  377MOL0     H50888   8.071  11.148   6.205  0.0812  0.2986  0.1827
  377MOL0     H50889   8.143  11.121   5.979 -0.0707 -1.5180 -0.6101
  377MOL0     H50890   8.009  11.029   5.929  0.6451  0.1757 -0.4125
  377MOL0     H50891   8.247  10.922   6.082 -0.7482  2.2503  0.2161
  377MOL0     H50892   8.179  10.877   5.925 -0.3753 -2.3312  0.1937
  377MOL0     H50893   7.900  10.654   6.137 -0.4969  0.7739 -2.1731
  377MOL0     H50894   7.681  11.067   6.052 -1.5573 -1.5215  0.1818
  377MOL0     H50895   7.454  11.016   6.114  1.4879  0.3396 -0.4201
  378MOL0     O50896   4.649   1.219   9.243 -0.8528 -0.2739 -0.9427
  378MOL0     C50897   4.632   1.097   9.238 -0.1811  0.6042  0.5124
  378MOL0     O50898   4.517   1.029   9.271  0.5452 -0.2462 -0.0910
  378MOL0     C50899   4.393   1.081   9.312  0.7276  0.1692  0.8019
  378MOL0     C50900   4.323   1.014   9.413 -0.4033  0.0328 -0.0033
  378MOL0     C50901   4.195   1.057   9.444  0.3008  0.6641 -0.5319
  378MOL0     C50902   4.129   1.164   9.393  0.5289  0.5886  0.1770
  378MOL0     O50903   4.000   1.198   9.425  0.2423 -0.1006  0.5365
  378MOL0     C50904   3.926   1.127   9.529  0.9501  0.2903 -0.8378
  378MOL0     C50905   3.787   1.185   9.529  0.2599 -0.7668 -0.9611
  378MOL0     C50906   3.680   1.112   9.592  0.9052 -0.5575 -0.6680
  378MOL0     C50907   3.647   0.978   9.532  0.0923  0.0197  0.3554
  378MOL0     C50908   3.510   0.931   9.587 -0.6066  0.3626 -0.2955
  378MOL0     C50909   3.454   0.808   9.511  0.0777 -0.2189 -0.7179
  378MOL0     C50910   3.317   0.779   9.566 -1.0356  1.0919 -0.7130
  378MOL0     C50911   3.207   0.887   9.560 -0.5885 -0.2770 -0.2741
  378MOL0     N50912   3.177   0.913   9.413  0.5256  0.1430  0.1014
  378MOL0     C50913   3.078   0.850   9.345 -0.0376 -0.0484  0.5541
  378MOL0     C50914   3.071   0.916   9.228 -0.1769 -0.1064  0.2036
  378MOL0     C50915   2.976   0.901   9.116  0.3343  0.2626  0.6581
  378MOL0     C50916   2.854   0.994   9.136 -0.2749  0.4972 -0.3311
  378MOL0     C50917   2.743   0.981   9.036 -0.1909 -0.1170  0.2459
  378MOL0     C50918   2.603   0.989   9.095  0.1191  0.0697 -0.4748
  378MOL0     O50919   2.567   1.124   9.131  0.8308  0.4134  0.4195
  378MOL0     C50920   2.451   1.140   9.193 -0.2052  0.5928 -0.1815
  378MOL0     C50921   2.375   1.037   9.240 -0.2532  0.0943 -0.1039
  378MOL0     C50922   2.254   1.058   9.310  0.3498  0.3191 -0.2267
  378MOL0     C50923   2.178   0.935   9.342  0.7768 -0.6397  1.3794
  378MOL0     C50924   2.213   1.187   9.344  0.2414  0.0851 -0.4303
  378MOL0     C50925   2.085   1.219   9.422  0.7347 -0.1596 -0.7362
  378MOL0     O50926   2.038   1.344   9.405 -0.7549 -0.5495 -0.0464
  378MOL0     C50927   1.924   1.382   9.471  1.1352 -0.4337  0.8055
  378MOL0     C50928   1.926   1.476   9.576  1.0657 -0.4038  0.1038
  378MOL0     C50929   1.821   1.494   9.664  0.4323  0.4433 -0.3569
  378MOL0     C50930   1.693   1.424   9.644 -1.0848 -0.3767 -0.2003
  378MOL0     O50931   1.589   1.450   9.721 -0.5807  0.0705 -0.1779
  378MOL0     C50932   1.621   1.452   9.862  0.2195  0.1942 -0.1198
  378MOL0     C50933   1.507   1.400   9.952 -0.2616  0.0866  1.1365
  378MOL0     C50934   1.535   1.384  10.103  1.5268  0.2836  0.4999
  378MOL0     C50935   1.425   1.309  10.182 -0.2117  0.1151  0.8372
  378MOL0     C50936   1.453   1.302  10.333 -0.3700  0.3389 -0.4512
  378MOL0     C50937   1.485   1.161  10.381 -0.1094  0.2172 -0.3572
  378MOL0     C50938   1.502   1.146  10.536  0.0063 -0.0588 -0.1710
  378MOL0     C50939   1.368   1.134  10.616  0.4279 -1.1475  0.3334
  378MOL0    Cl50940   1.256   1.000  10.557  0.3013 -0.4961 -0.5943
  378MOL0     C50941   1.682   1.328   9.544 -0.5961  0.0521  0.3193
  378MOL0     C50942   1.798   1.305   9.460  0.1609 -0.2263 -0.2654
  378MOL0     O50943   2.034   1.132   9.501  0.3679  0.4852  0.3186
  378MOL0     C50944   2.290   1.291   9.293  0.1967 -0.3090 -0.2389
  378MOL0     C50945   2.405   1.262   9.226  0.0523 -0.3501  0.0539
  378MOL0     N50946   3.182   1.010   9.219 -0.6667 -0.5335  0.3557
  378MOL0     N50947   3.240   1.005   9.336  0.2457  0.1717 -0.5491
  378MOL0     C50948   4.206   1.237   9.295  0.4393 -0.3788 -0.7739
  378MOL0     C50949   4.336   1.196   9.258  0.3896  0.8948  0.4165
  378MOL0     C50950   4.752   1.016   9.210  0.2092 -0.5400 -1.2562
  378MOL0     C50951   4.757   0.889   9.262 -0.2099  0.2443  1.0394
  378MOL0     C50952   4.872   0.813   9.255  0.2360 -0.4893  0.1549
  378MOL0     C50953   4.987   0.870   9.189 -0.8805 -1.3425  0.8536
  378MOL0     O50954   5.095   0.786   9.168  0.0402 -1.2674 -0.6147
  378MOL0     C50955   5.223   0.847   9.200  0.7349 -0.4603  0.6280
  378MOL0     C50956   5.326   0.733   9.225  0.5765 -1.3754 -0.4010
  378MOL0     C50957   5.377   0.676   9.095  0.3884 -0.9592  0.5225
  378MOL0     C50958   5.491   0.583   9.098 -1.2991  0.0087 -0.4631
  378MOL0     C50959   5.454   0.472   9.186 -0.8531  0.8666 -0.3189
  378MOL0     C50960   5.439   0.372   9.256 -0.3696  0.0979 -1.0459
  378MOL0     C50961   4.983   0.993   9.122 -0.8324 -0.0696 -0.1715
  378MOL0     C50962   4.866   1.072   9.143  0.5525 -0.2909 -0.5604
  378MOL0     H50963   4.353   0.924   9.466  0.2906  1.2265  1.7089
  378MOL0     H50964   4.142   0.994   9.515  2.8205 -0.6301  0.3322
  378MOL0     H50965   3.924   1.019   9.511  0.7716  0.5469 -2.6069
  378MOL0     H50966   3.969   1.140   9.628  0.6701 -3.4109 -0.1077
  378MOL0     H50967   3.792   1.283   9.576 -1.2153 -1.9646  1.9973
  378MOL0     H50968   3.753   1.199   9.426 -2.5182 -0.1550 -0.0492
  378MOL0     H50969   3.709   1.089   9.695 -0.3730  3.2440  0.7055
  378MOL0     H50970   3.587   1.168   9.607 -0.9385 -3.3536 -0.7407
  378MOL0     H50971   3.627   0.995   9.426 -1.9619  1.6600  0.9386
  378MOL0     H50972   3.723   0.901   9.552 -0.5690  0.0646  3.4900
  378MOL0     H50973   3.506   0.916   9.695 -4.6811  3.5004  0.2194
  378MOL0     H50974   3.437   1.010   9.563 -3.1802 -2.4718 -2.5795
  378MOL0     H50975   3.440   0.831   9.405  2.1669  0.5314 -0.8701
  378MOL0     H50976   3.525   0.725   9.524  1.0491  0.3884 -1.9287
  378MOL0     H50977   3.274   0.689   9.523  0.6957 -0.7742  1.2325
  378MOL0     H50978   3.345   0.761   9.670  0.1912  1.5027 -0.9430
  378MOL0     H50979   3.230   0.983   9.605 -2.8728  0.7857 -1.1890
  378MOL0     H50980   3.122   0.849   9.618  1.0102 -0.0417  2.3465
  378MOL0     H50981   3.007   0.776   9.382 -0.2208  0.1148  0.5271
  378MOL0     H50982   3.031   0.936   9.028 -3.0183  2.5268 -0.7162
  378MOL0     H50983   2.951   0.795   9.110 -1.0092  0.5735  0.5761
  378MOL0     H50984   2.882   1.099   9.141 -2.5107  1.1477 -0.4114
  378MOL0     H50985   2.814   0.951   9.229 -1.2223 -2.8086 -2.0930
  378MOL0     H50986   2.759   0.887   8.983 -0.6914  0.7657 -1.5253
  378MOL0     H50987   2.739   1.065   8.966 -1.6968  0.3916  0.8941
  378MOL0     H50988   2.603   0.923   9.182 -0.4906 -1.8161 -1.8245
  378MOL0     H50989   2.543   0.951   9.012 -0.4971  2.9177 -1.4407
  378MOL0     H50990   2.390   0.930   9.225 -1.8257 -0.2307  0.4264
  378MOL0     H50991   2.071   0.951   9.326  0.6916  1.0413  3.2269
  378MOL0     H50992   2.210   0.846   9.286  0.9892  1.0284 -1.3176
  378MOL0     H50993   2.190   0.912   9.448  0.4548 -3.6831  0.8663
  378MOL0     H50994   2.018   1.533   9.579  1.1520 -0.2577 -2.6174
  378MOL0     H50995   1.820   1.563   9.748 -1.6860  2.5386 -1.9685
  378MOL0     H50996   1.714   1.397   9.873  0.0709 -0.0301  0.0308
  378MOL0     H50997   1.634   1.558   9.884 -2.6357  0.8286 -0.9688
  378MOL0     H50998   1.420   1.465   9.940 -1.4486 -1.5516  0.5167
  378MOL0     H50999   1.483   1.304   9.906 -1.7932  0.7916  0.4061
  378MOL0     H51000   1.548   1.483  10.147  0.2262  0.4507  0.5399
  378MOL0     H51001   1.631   1.332  10.115  1.2019  0.1968  3.3775
  378MOL0     H51002   1.338   1.374  10.171  0.4206  1.6111  3.5963
  378MOL0     H51003   1.407   1.210  10.140  3.4102 -0.4986  0.4121
  378MOL0     H51004   1.364   1.339  10.384  1.1604  2.4621  0.8653
  378MOL0     H51005   1.533   1.369  10.367  1.4330 -1.4463 -0.9387
  378MOL0     H51006   1.412   1.090  10.341 -0.0204 -0.0174 -0.1015
  378MOL0     H51007   1.571   1.123  10.326 -2.2717 -0.5606 -3.5356
  378MOL0     H51008   1.566   1.223  10.579 -1.3668  0.9522  0.1442
  378MOL0     H51009   1.555   1.051  10.548 -0.0250 -0.5322 -3.2302
  378MOL0     H51010   1.318   1.226  10.584  1.1109 -1.0291 -0.4322
  378MOL0     H51011   1.378   1.127  10.725 -0.7885 -1.1455  0.4489
  378MOL0     H51012   1.585   1.282   9.530  0.9540 -3.6646  0.6373
  378MOL0     H51013   1.781   1.241   9.374 -0.2546  1.3250 -1.3860
  378MOL0     H51014   2.263   1.391   9.324 -0.1825 -0.2730 -0.6715
  378MOL0     H51015   2.464   1.349   9.201  1.3025 -1.3664 -0.6539
  378MOL0     H51016   4.184   1.333   9.249  0.6837 -0.3391 -0.8068
  378MOL0     H51017   4.381   1.261   9.184  0.4149  1.7019  1.1197
  378MOL0     H51018   4.662   0.862   9.306 -2.2628  0.1888 -3.0206
  378MOL0     H51019   4.869   0.712   9.294  0.3055 -2.7543 -5.0272
  378MOL0     H51020   5.254   0.915   9.120 -1.4732  0.3090  0.3811
  378MOL0     H51021   5.220   0.917   9.284  1.8153  1.6807 -1.0168
  378MOL0     H51022   5.280   0.662   9.294 -0.5726 -0.1205  0.1795
  378MOL0     H51023   5.408   0.773   9.286 -0.9049  1.6824 -0.1972
  378MOL0     H51024   5.400   0.756   9.024 -5.4320  0.8138  0.0248
  378MOL0     H51025   5.293   0.620   9.053  0.1222 -1.8141  2.0923
  378MOL0     H51026   5.583   0.621   9.143 -1.5904  0.9192 -0.6239
  378MOL0     H51027   5.518   0.540   9.001 -1.6582 -2.3239  0.4149
  378MOL0     H51028   5.422   0.301   9.334 -2.4105  2.4145  0.7647
  378MOL0     H51029   5.068   1.036   9.070  0.3683  0.0348  1.7713
  378MOL0     H51030   4.856   1.173   9.105 -3.3674 -0.3229  0.0127
  379MOL0     O51031   2.187   5.923   7.426  0.5558 -0.0690  0.5000
  379MOL0     C51032   2.165   6.038   7.394  0.1623 -0.8855  0.4598
  379MOL0     O51033   2.043   6.083   7.357  0.4168 -0.4623  0.3122
  379MOL0     C51034   1.926   6.013   7.337 -0.5379  0.0987  0.0129
  379MOL0     C51035   1.821   6.080   7.278 -0.6225 -0.0152 -0.0555
  379MOL0     C51036   1.698   6.023   7.247 -0.7804  0.0313 -0.4229
  379MOL0     C51037   1.673   5.900   7.295  0.4492  0.3455  0.1536
  379MOL0     O51038   1.539   5.863   7.274  0.5106 -0.5092  0.2512
  379MOL0     C51039   1.498   5.736   7.325  0.6087  0.4002  0.0737
  379MOL0     C51040   1.342   5.728   7.292 -0.6777  0.8552 -0.3227
  379MOL0     C51041   1.287   5.595   7.360  0.0323 -0.1763 -0.0327
  379MOL0     C51042   1.141   5.583   7.338  0.7217 -0.5406  0.3553
  379MOL0     C51043   1.071   5.464   7.400 -1.0926  0.5594  0.1977
  379MOL0     C51044   0.919   5.453   7.363 -0.2514  0.1119  0.0111
  379MOL0     C51045   0.845   5.344   7.430  0.5649 -1.1223  0.1404
  379MOL0     C51046   0.702   5.346   7.383  0.3980  1.3022 -0.4031
  379MOL0     N51047   0.613   5.286   7.488 -0.3874  0.1397 -0.2596
  379MOL0     C51048   0.651   5.198   7.588 -0.1184 -0.2130  0.7337
  379MOL0     C51049   0.530   5.174   7.655 -0.5849 -0.4452  0.3220
  379MOL0     C51050   0.510   5.113   7.789 -0.2750 -0.4298 -0.4894
  379MOL0     C51051   0.477   5.214   7.898  0.5823 -0.5047  0.4600
  379MOL0     C51052   0.342   5.285   7.869 -0.0018  0.4563 -0.1719
  379MOL0     C51053   0.223   5.189   7.863  0.3403  1.0191 -0.5993
  379MOL0     O51054   0.215   5.108   7.980  0.0633 -0.8003  0.0708
  379MOL0     C51055   0.101   5.031   7.993  0.4295  0.5045 -0.7481
  379MOL0     C51056   0.095   4.971   8.118 -0.0028 -0.2354  0.1186
  379MOL0     C51057  -0.009   4.902   8.170 -0.3215 -0.5914 -0.6596
  379MOL0     C51058   0.022   4.828   8.307  0.1137 -0.0950 -0.2696
  379MOL0     C51059  -0.123   4.891   8.085  0.1666  0.0454  0.3911
  379MOL0     C51060  -0.245   4.809   8.128  0.2209 -0.3425 -0.9920
  379MOL0     O51061  -0.237   4.744   8.253  0.4743 -0.8558 -1.1141
  379MOL0     C51062  -0.351   4.687   8.297  0.7017  0.1146 -0.0998
  379MOL0     C51063  -0.431   4.742   8.403  0.0275  0.4864 -0.6089
  379MOL0     C51064  -0.536   4.661   8.460 -0.0293  1.1129  0.4705
  379MOL0     C51065  -0.567   4.532   8.410 -0.1306 -0.3489 -0.2405
  379MOL0     O51066  -0.672   4.468   8.467  0.2391  0.0958 -0.8241
  379MOL0     C51067  -0.715   4.332   8.417 -0.3785 -0.6200 -0.4107
  379MOL0     C51068  -0.807   4.276   8.525  0.2819  0.4945  0.8679
  379MOL0     C51069  -0.760   4.287   8.670 -0.3649 -0.1376 -0.2132
  379MOL0     C51070  -0.879   4.266   8.772 -0.3969 -0.4710  0.7467
  379MOL0     C51071  -0.946   4.128   8.742  0.7251 -0.1096  0.3781
  379MOL0     C51072  -1.055   4.098   8.855 -0.1013 -0.6550  0.3718
  379MOL0     C51073  -1.131   3.965   8.851  0.0525  0.8814  0.1203
  379MOL0     C51074  -1.117   3.869   8.966  0.4629  0.1138 -0.3942
  379MOL0    Cl51075  -1.138   3.954   9.127  0.0258 -0.0503 -0.3728
  379MOL0     C51076  -0.485   4.480   8.312  0.7386 -0.2774  0.7789
  379MOL0     C51077  -0.381   4.554   8.253 -0.0360  0.3088 -0.4545
  379MOL0     O51078  -0.338   4.808   8.055  0.3575 -0.0813  0.5595
  379MOL0     C51079  -0.117   4.951   7.954 -0.7014  0.1114  0.4499
  379MOL0     C51080   0.000   5.010   7.907  0.1955  0.1744 -0.4378
  379MOL0     N51081   0.426   5.224   7.574  0.3554  0.3720 -0.1624
  379MOL0     N51082   0.470   5.292   7.481  0.1384  0.7756  0.3690
  379MOL0     C51083   1.771   5.833   7.370 -0.4919  0.4070  0.5906
  379MOL0     C51084   1.898   5.889   7.391  0.4170  0.8650  0.5214
  379MOL0     C51085   2.269   6.139   7.437  0.3375  0.0181 -0.1437
  379MOL0     C51086   2.251   6.273   7.415  0.6831 -0.0307 -0.0334
  379MOL0     C51087   2.352   6.365   7.450 -0.4186 -0.0276  0.6147
  379MOL0     C51088   2.474   6.332   7.504 -0.4624  0.8575  0.2484
  379MOL0     O51089   2.575   6.422   7.521  0.3087  0.2950 -1.0611
  379MOL0     C51090   2.533   6.556   7.568 -0.0734  0.7452  0.2262
  379MOL0     C51091   2.656   6.633   7.606 -0.2523  0.3852 -0.0762
  379MOL0     C51092   2.752   6.560   7.702  0.2318  0.7506 -0.2602
  379MOL0     C51093   2.757   6.619   7.849  0.8161  0.0559 -0.3317
  379MOL0     C51094   2.850   6.542   7.935  1.2469 -1.0902  0.0111
  379MOL0     C51095   2.932   6.488   8.004  0.6662 -0.3040  0.3319
  379MOL0     C51096   2.492   6.194   7.530  0.9101 -0.2767  0.4692
  379MOL0     C51097   2.393   6.098   7.497  0.4353  0.0001 -0.5589
  379MOL0     H51098   1.831   6.186   7.259 -4.1167  0.2910 -0.7418
  379MOL0     H51099   1.614   6.068   7.195 -0.2332  1.4528 -0.1155
  379MOL0     H51100   1.555   5.659   7.272 -1.3106 -1.0907  0.0678
  379MOL0     H51101   1.516   5.741   7.433 -2.2730  0.3718  0.6489
  379MOL0     H51102   1.286   5.811   7.337 -1.2437  0.0618  0.4635
  379MOL0     H51103   1.326   5.736   7.184 -1.7040 -1.1394 -0.3664
  379MOL0     H51104   1.346   5.517   7.311 -1.6669 -2.6495  1.6665
  379MOL0     H51105   1.304   5.606   7.467 -0.5983  0.0870  0.0471
  379MOL0     H51106   1.087   5.666   7.385 -0.3391 -0.4580 -0.9356
  379MOL0     H51107   1.119   5.590   7.231  0.9318  4.0598  0.3863
  379MOL0     H51108   1.119   5.370   7.369 -0.2952  0.2860  2.1215
  379MOL0     H51109   1.081   5.474   7.508  1.1920  0.3728  0.0639
  379MOL0     H51110   0.879   5.549   7.396 -0.0520  0.1818  0.0516
  379MOL0     H51111   0.912   5.440   7.255  0.2697  0.2110 -0.0391
  379MOL0     H51112   0.898   5.248   7.424  0.2122 -1.4045  1.2408
  379MOL0     H51113   0.841   5.366   7.537 -0.3315  2.1910 -0.4555
  379MOL0     H51114   0.686   5.286   7.293 -1.2629 -0.8390  1.2217
  379MOL0     H51115   0.668   5.448   7.365  0.4717  1.0576 -2.1026
  379MOL0     H51116   0.750   5.161   7.615  0.8246  0.6017 -1.4171
  379MOL0     H51117   0.440   5.030   7.774 -0.9919  0.3684 -1.7014
  379MOL0     H51118   0.611   5.080   7.818  0.3935  0.7037 -1.4580
  379MOL0     H51119   0.566   5.275   7.917  1.1123 -1.7783  2.2920
  379MOL0     H51120   0.465   5.153   7.988 -1.5821  0.0287  0.5951
  379MOL0     H51121   0.328   5.336   7.774 -1.9141  2.1075  0.8943
  379MOL0     H51122   0.321   5.359   7.947 -0.4914  0.8668 -0.6812
  379MOL0     H51123   0.217   5.125   7.775  0.2206  2.3311 -1.5797
  379MOL0     H51124   0.133   5.250   7.855 -0.0740  0.1930 -2.8850
  379MOL0     H51125   0.189   4.980   8.172  0.4321 -0.7572 -0.5292
  379MOL0     H51126  -0.056   4.845   8.382  0.3615 -2.9319  0.7136
  379MOL0     H51127   0.014   4.719   8.306 -0.6782 -0.1138  2.2965
  379MOL0     H51128   0.115   4.859   8.355 -1.0965  2.4195  0.6434
  379MOL0     H51129  -0.395   4.840   8.431  0.4761  0.7530 -2.0458
  379MOL0     H51130  -0.592   4.708   8.540  0.5949 -0.3981  1.8345
  379MOL0     H51131  -0.758   4.344   8.317  1.2908 -0.5561 -1.1490
  379MOL0     H51132  -0.625   4.272   8.404  0.4838  1.0859 -3.5931
  379MOL0     H51133  -0.908   4.320   8.531 -0.5573 -1.5225  3.8130
  379MOL0     H51134  -0.832   4.173   8.499 -0.2360  0.7885  0.1620
  379MOL0     H51135  -0.706   4.378   8.697 -1.1310  0.5570 -0.9696
  379MOL0     H51136  -0.691   4.206   8.694 -2.8812 -2.5094 -0.4734
  379MOL0     H51137  -0.842   4.266   8.875  0.8003 -1.8864  0.3400
  379MOL0     H51138  -0.943   4.352   8.751  2.4832  0.7507 -4.9981
  379MOL0     H51139  -0.869   4.052   8.748  2.0430  1.1723  0.2956
  379MOL0     H51140  -1.002   4.114   8.649  1.1181 -6.4766  0.7031
  379MOL0     H51141  -1.001   4.099   8.950 -0.7267 -0.3914  0.7320
  379MOL0     H51142  -1.139   4.168   8.860 -2.3654 -3.1655 -0.0775
  379MOL0     H51143  -1.093   3.914   8.761  1.9663  2.8112 -0.2494
  379MOL0     H51144  -1.239   3.983   8.853 -0.2776 -0.3995  4.9395
  379MOL0     H51145  -1.022   3.816   8.977 -0.7811 -1.8557  2.0893
  379MOL0     H51146  -1.184   3.782   8.963  0.9807 -0.4047  1.3958
  379MOL0     H51147  -0.485   4.373   8.293 -1.0944 -0.3468  1.0171
  379MOL0     H51148  -0.333   4.486   8.183 -0.9667 -1.4825  0.5797
  379MOL0     H51149  -0.204   4.950   7.890  0.4280  1.3177 -1.1819
  379MOL0     H51150   0.005   5.054   7.808  4.2828  2.5539  0.5820
  379MOL0     H51151   1.750   5.737   7.416  2.1764 -0.9694 -0.8734
  379MOL0     H51152   1.967   5.830   7.450  0.3994 -1.0610 -1.2797
  379MOL0     H51153   2.166   6.307   7.357  1.4988  1.6709 -0.2812
  379MOL0     H51154   2.331   6.468   7.423  1.3803  0.5916  1.4392
  379MOL0     H51155   2.480   6.610   7.489 -0.2927  0.3048  0.0675
  379MOL0     H51156   2.478   6.548   7.662 -0.2410 -1.6665 -0.0102
  379MOL0     H51157   2.632   6.727   7.657 -2.4926 -0.8081  1.2611
  379MOL0     H51158   2.708   6.651   7.512 -2.7609 -3.1150 -2.3783
  379MOL0     H51159   2.854   6.579   7.668  0.7863 -2.5375 -0.7645
  379MOL0     H51160   2.740   6.451   7.710 -0.5948  0.8111 -0.5623
  379MOL0     H51161   2.656   6.638   7.887 -0.3450 -0.3569 -2.9896
  379MOL0     H51162   2.796   6.721   7.841 -0.2335  0.5997  0.9907
  379MOL0     H51163   3.008   6.442   8.064 -0.8396 -1.0079  1.7694
  379MOL0     H51164   2.573   6.161   7.594 -0.4933  0.4892  2.7470
  379MOL0     H51165   2.406   5.994   7.523 -2.8559 -0.4920 -0.4619
  380MOL0     O51166   9.502   3.822   0.354  0.2836 -0.4814 -0.1327
  380MOL0     C51167   9.537   3.724   0.296 -0.3071  1.3800 -0.4563
  380MOL0     O51168   9.458   3.612   0.275 -0.2096  0.5775 -0.0678
  380MOL0     C51169   9.345   3.606   0.351  0.3803  0.5582  0.6504
  380MOL0     C51170   9.224   3.602   0.287 -0.0853 -0.8063  0.7304
  380MOL0     C51171   9.102   3.606   0.343  0.5714 -1.0666  0.1788
  380MOL0     C51172   9.098   3.601   0.487 -1.1684  1.4732  0.1719
  380MOL0     O51173   8.987   3.583   0.557  0.2503  0.6553 -0.2209
  380MOL0     C51174   8.852   3.569   0.500 -0.5935  0.3869 -1.1178
  380MOL0     C51175   8.745   3.563   0.612  0.6080 -0.3037  0.0434
  380MOL0     C51176   8.764   3.436   0.695  0.3371 -0.3366 -0.0777
  380MOL0     C51177   8.875   3.456   0.799 -0.2145  0.2642 -0.5341
  380MOL0     C51178   8.850   3.371   0.918  0.7645 -0.5371 -0.3402
  380MOL0     C51179   8.975   3.334   1.003  0.1804  0.4807  1.1051
  380MOL0     C51180   9.041   3.461   1.053  1.0544 -0.4717 -0.1658
  380MOL0     C51181   9.165   3.400   1.138  0.0272 -0.1454  0.1937
  380MOL0     N51182   9.224   3.505   1.211  0.1847  0.0956 -0.4902
  380MOL0     C51183   9.207   3.538   1.345  0.3247  1.0869 -0.1245
  380MOL0     C51184   9.293   3.651   1.351  1.1153  0.2152 -0.6846
  380MOL0     C51185   9.320   3.726   1.479  0.0324 -0.7051  0.8442
  380MOL0     C51186   9.383   3.633   1.580 -0.3325 -0.7505 -0.2010
  380MOL0     C51187   9.527   3.578   1.542  0.2247 -0.1076 -0.0887
  380MOL0     C51188   9.594   3.510   1.659 -0.1258 -0.3907 -0.4462
  380MOL0     O51189   9.521   3.401   1.712 -0.4808 -0.0442 -0.0011
  380MOL0     C51190   9.591   3.336   1.820  0.5669 -0.1145 -0.2357
  380MOL0     C51191   9.530   3.217   1.867 -0.8558 -0.2366  0.8278
  380MOL0     C51192   9.585   3.133   1.970  0.6372  0.4051 -0.1828
  380MOL0     C51193   9.524   2.998   1.994 -0.1063  0.0351  0.5771
  380MOL0     C51194   9.690   3.190   2.047 -0.2045 -0.0464 -0.0043
  380MOL0     C51195   9.758   3.130   2.163 -0.3496 -1.3031 -0.9082
  380MOL0     O51196   9.853   3.214   2.236  0.6523  0.2377  0.6457
  380MOL0     C51197   9.925   3.171   2.340 -0.2456 -0.1386  0.3976
  380MOL0     C51198   9.874   3.085   2.447 -0.6784  0.6461  0.2612
  380MOL0     C51199   9.962   3.057   2.550  0.4514 -0.2241 -0.1077
  380MOL0     C51200  10.094   3.110   2.552 -0.8908 -0.1179  0.5285
  380MOL0     O51201  10.190   3.093   2.653  0.1256  0.2160  0.3974
  380MOL0     C51202  10.311   3.011   2.623  0.4471  0.7347 -0.0572
  380MOL0     C51203  10.270   2.873   2.565 -0.3835  0.1517 -0.0694
  380MOL0     C51204  10.207   2.792   2.677  0.2294 -0.4638  0.2805
  380MOL0     C51205  10.216   2.644   2.664 -0.8550  0.0810 -0.1335
  380MOL0     C51206  10.126   2.574   2.758  0.2358 -0.1380 -0.0946
  380MOL0     C51207  10.128   2.431   2.746 -0.5455  0.6743 -0.7841
  380MOL0     C51208  10.040   2.377   2.857  0.2912 -0.5092  0.0572
  380MOL0     C51209   9.982   2.241   2.822 -0.6097 -0.1118 -0.1780
  380MOL0    Cl51210   9.959   2.168   2.978 -0.0297 -0.0208 -0.4721
  380MOL0     C51211  10.148   3.160   2.435  1.0145 -0.8379 -0.3030
  380MOL0     C51212  10.066   3.191   2.334  1.3824  0.3046  0.1942
  380MOL0     O51213   9.727   3.017   2.192 -0.1442 -0.2321 -0.6697
  380MOL0     C51214   9.751   3.309   1.991 -0.6103 -0.5413 -0.8783
  380MOL0     C51215   9.702   3.380   1.887 -0.4838  0.7196 -0.0176
  380MOL0     N51216   9.343   3.686   1.234 -1.1663  0.0070 -0.3058
  380MOL0     N51217   9.311   3.592   1.154 -0.7513  0.0303 -0.0342
  380MOL0     C51218   9.215   3.609   0.556 -1.2759 -0.2946 -0.3358
  380MOL0     C51219   9.342   3.608   0.496 -0.2582  0.4098  0.7133
  380MOL0     C51220   9.681   3.702   0.246  0.1393 -0.6867 -0.2684
  380MOL0     C51221   9.720   3.585   0.180  0.5149  0.0077  0.3407
  380MOL0     C51222   9.850   3.580   0.128 -0.6641 -0.4507  0.2336
  380MOL0     C51223   9.944   3.686   0.159  0.9409  0.6911  0.6257
  380MOL0     O51224  10.069   3.682   0.106 -0.9708  0.3691 -0.8030
  380MOL0     C51225  10.161   3.615   0.191  0.8742  0.1388 -0.3423
  380MOL0     C51226  10.303   3.668   0.156  1.4784  0.8637  0.5182
  380MOL0     C51227  10.413   3.572   0.187  0.4046 -0.3248 -0.4797
  380MOL0     C51228  10.425   3.520   0.331  0.3000 -0.1089  0.3768
  380MOL0     C51229  10.547   3.451   0.366  0.6698  0.5597  0.4370
  380MOL0     C51230  10.638   3.384   0.392 -0.8531  0.7427  0.0914
  380MOL0     C51231   9.906   3.802   0.223 -0.0913  0.1053 -0.6851
  380MOL0     C51232   9.779   3.801   0.276  0.3104  0.3456 -0.2961
  380MOL0     H51233   9.226   3.603   0.179  1.8644 -3.2325  0.6468
  380MOL0     H51234   9.011   3.612   0.284  1.0170 -1.1545 -0.5364
  380MOL0     H51235   8.840   3.648   0.425  0.5641  0.3824 -1.3165
  380MOL0     H51236   8.858   3.477   0.442  3.9336  0.4225 -0.9954
  380MOL0     H51237   8.750   3.652   0.675 -1.6233  0.1562 -0.3359
  380MOL0     H51238   8.648   3.558   0.561  1.7297  1.6886 -2.5360
  380MOL0     H51239   8.667   3.410   0.739 -0.3206  0.1461 -1.1853
  380MOL0     H51240   8.792   3.350   0.633  0.4409 -0.7147  0.4846
  380MOL0     H51241   8.973   3.427   0.760  0.9876 -0.7205  2.8381
  380MOL0     H51242   8.891   3.560   0.830  2.1118 -0.3124  0.4157
  380MOL0     H51243   8.779   3.430   0.977 -1.6134 -0.5273 -3.0031
  380MOL0     H51244   8.799   3.279   0.889  2.4717 -1.4857 -0.4591
  380MOL0     H51245   8.944   3.269   1.085 -0.3115  2.1769  2.3182
  380MOL0     H51246   9.044   3.282   0.936 -2.1800  0.2762 -1.3300
  380MOL0     H51247   9.059   3.532   0.972 -1.2979 -0.2064 -0.5077
  380MOL0     H51248   8.965   3.504   1.119  1.8478  1.8606 -0.6552
  380MOL0     H51249   9.240   3.363   1.067  0.9388 -0.2991  1.2161
  380MOL0     H51250   9.147   3.313   1.202  0.7696  0.1738  0.8545
  380MOL0     H51251   9.143   3.495   1.422  1.2809  0.7836  0.5308
  380MOL0     H51252   9.397   3.802   1.461  3.4327 -3.8859  0.5961
  380MOL0     H51253   9.229   3.771   1.520 -2.1253 -0.7517 -3.3564
  380MOL0     H51254   9.308   3.554   1.595  0.5242 -1.2686  1.5637
  380MOL0     H51255   9.404   3.687   1.672  2.1451 -1.4010 -0.3195
  380MOL0     H51256   9.584   3.656   1.492  0.3139 -2.1741 -3.5213
  380MOL0     H51257   9.516   3.500   1.466  1.4500 -0.3685 -0.0069
  380MOL0     H51258   9.582   3.586   1.737  2.9758 -2.4540  2.2926
  380MOL0     H51259   9.696   3.479   1.633 -1.3721 -1.9438 -4.0971
  380MOL0     H51260   9.446   3.184   1.805 -0.8453 -0.6265  1.0187
  380MOL0     H51261   9.430   2.995   1.938 -0.3054  0.2964  0.8916
  380MOL0     H51262   9.596   2.924   1.959 -0.8467 -0.4696  0.1123
  380MOL0     H51263   9.485   2.976   2.094  0.3850 -0.5632  0.6394
  380MOL0     H51264   9.769   3.057   2.450 -1.2655  2.6483  3.1445
  380MOL0     H51265   9.919   3.003   2.634 -2.7653  0.9269 -0.8849
  380MOL0     H51266  10.382   3.061   2.558  1.2215 -1.4407 -0.9833
  380MOL0     H51267  10.364   2.995   2.718 -0.1136  1.6819  0.4309
  380MOL0     H51268  10.210   2.886   2.474  0.3863 -1.9436 -0.9605
  380MOL0     H51269  10.359   2.822   2.527 -0.2901  1.9749 -2.5574
  380MOL0     H51270  10.100   2.816   2.682 -0.3583 -2.1790 -1.9257
  380MOL0     H51271  10.240   2.815   2.778  2.5251  2.2464 -0.9646
  380MOL0     H51272  10.185   2.614   2.563  4.1818 -4.0401 -0.8644
  380MOL0     H51273  10.322   2.618   2.670 -1.6030 -3.7194 -1.1242
  380MOL0     H51274  10.024   2.612   2.745  1.1574  2.6978  0.2251
  380MOL0     H51275  10.159   2.607   2.857 -0.6596 -1.7317  0.7800
  380MOL0     H51276  10.090   2.392   2.652 -0.4898  0.3675 -0.6791
  380MOL0     H51277  10.227   2.383   2.751  0.0080  1.8038 -0.4219
  380MOL0     H51278   9.963   2.452   2.878  2.0305  1.4299 -0.1400
  380MOL0     H51279  10.096   2.348   2.946  0.7412 -0.8274 -0.3197
  380MOL0     H51280  10.060   2.183   2.774 -0.0642  0.0129  0.5360
  380MOL0     H51281   9.890   2.238   2.762 -2.6364 -0.8700  2.7122
  380MOL0     H51282  10.253   3.188   2.434  1.3310 -1.8107  1.6632
  380MOL0     H51283  10.111   3.244   2.250  2.0931 -0.1968  0.2540
  380MOL0     H51284   9.848   3.327   2.036 -1.1011 -0.8456  0.3395
  380MOL0     H51285   9.776   3.455   1.862  1.5755 -1.5827 -1.2087
  380MOL0     H51286   9.205   3.613   0.664  1.3548  2.4481 -0.0577
  380MOL0     H51287   9.429   3.627   0.558  2.0295 -0.5856 -1.9796
  380MOL0     H51288   9.648   3.504   0.169  0.1095  0.1921  1.5536
  380MOL0     H51289   9.900   3.502   0.071  2.4265  0.4769  1.4366
  380MOL0     H51290  10.133   3.629   0.296  0.7433 -0.1950 -0.3304
  380MOL0     H51291  10.170   3.506   0.180  2.5107  0.3502 -1.6796
  380MOL0     H51292  10.317   3.767   0.201 -0.7726  1.1560  0.7017
  380MOL0     H51293  10.306   3.675   0.047  0.9046 -1.7432  0.2674
  380MOL0     H51294  10.511   3.613   0.162  1.4261 -0.3290  3.0475
  380MOL0     H51295  10.402   3.481   0.127  1.7040 -1.2877  0.6991
  380MOL0     H51296  10.337   3.457   0.343 -0.6003  1.5101  3.2529
  380MOL0     H51297  10.405   3.595   0.408 -1.3944 -1.1819  1.0426
  380MOL0     H51298  10.710   3.308   0.412  1.1014  2.4242 -0.1250
  380MOL0     H51299   9.979   3.878   0.247 -2.7928  2.4941  0.6869
  380MOL0     H51300   9.772   3.885   0.345  3.4807 -0.6006  1.3568
  381MOL0     O51301   0.065   9.267  11.333  0.3409  0.0091 -0.0662
  381MOL0     C51302   0.101   9.311  11.223  0.3202  0.3316  0.4536
  381MOL0     O51303   0.021   9.381  11.130 -0.2881  0.3338 -0.1609
  381MOL0     C51304  -0.111   9.384  11.156 -0.0168  0.1246 -0.2827
  381MOL0     C51305  -0.193   9.280  11.202  0.1472  0.1150 -0.6336
  381MOL0     C51306  -0.331   9.294  11.216  0.1209 -0.7052  0.1639
  381MOL0     C51307  -0.396   9.410  11.168  0.1038 -0.1995 -0.2133
  381MOL0     O51308  -0.530   9.412  11.157  0.7641  0.7227  0.0477
  381MOL0     C51309  -0.583   9.463  11.037  0.6337 -0.1436 -0.2471
  381MOL0     C51310  -0.733   9.427  11.023  0.0650 -0.2254 -0.4510
  381MOL0     C51311  -0.753   9.279  11.052  0.6179 -0.0267 -0.1271
  381MOL0     C51312  -0.890   9.227  11.008 -0.5143 -0.0697 -1.4364
  381MOL0     C51313  -0.911   9.072  11.016  0.2726  0.9483 -0.0418
  381MOL0     C51314  -1.028   9.005  10.946 -1.4031 -0.4407  0.8128
  381MOL0     C51315  -1.157   9.073  10.978  0.0421 -0.0864 -0.3553
  381MOL0     C51316  -1.194   9.063  11.126  0.3907  0.2852  0.1620
  381MOL0     N51317  -1.245   8.932  11.171  0.2268 -0.4712 -0.4376
  381MOL0     C51318  -1.364   8.871  11.143  0.4001 -1.3482  0.0403
  381MOL0     C51319  -1.372   8.760  11.219 -0.0090 -0.2222 -0.1163
  381MOL0     C51320  -1.487   8.663  11.239  0.9663  0.1247  0.8914
  381MOL0     C51321  -1.534   8.674  11.383  0.3953  0.1499 -0.3747
  381MOL0     C51322  -1.645   8.777  11.409 -0.2128 -0.0319  0.4280
  381MOL0     C51323  -1.779   8.713  11.438  0.2337 -0.2240  0.3623
  381MOL0     O51324  -1.873   8.820  11.429 -0.0920 -0.0188 -0.6796
  381MOL0     C51325  -2.004   8.794  11.447 -0.0089 -0.0041 -0.5855
  381MOL0     C51326  -2.080   8.901  11.400 -0.3670  0.5115  0.6727
  381MOL0     C51327  -2.218   8.894  11.421 -0.4326  0.0956 -0.1037
  381MOL0     C51328  -2.297   9.019  11.392  0.1594  0.2435 -0.1942
  381MOL0     C51329  -2.281   8.783  11.488  0.3131  0.7067  0.4121
  381MOL0     C51330  -2.423   8.766  11.527  0.0496 -0.6471 -0.6233
  381MOL0     O51331  -2.456   8.679  11.623 -0.6644  0.1156 -0.6797
  381MOL0     C51332  -2.578   8.635  11.644  0.7857 -0.1909 -0.0443
  381MOL0     C51333  -2.596   8.502  11.667 -0.0335  0.3549 -0.5984
  381MOL0     C51334  -2.718   8.459  11.720 -0.1121  0.9884 -0.0590
  381MOL0     C51335  -2.826   8.548  11.733 -0.3468 -0.1172  0.0827
  381MOL0     O51336  -2.944   8.499  11.779  0.0156 -0.2070  0.6576
  381MOL0     C51337  -3.035   8.466  11.674 -0.3950  0.0896 -0.3743
  381MOL0     C51338  -3.170   8.407  11.731  0.2195 -0.0972 -0.0917
  381MOL0     C51339  -3.229   8.483  11.850  0.1860 -0.8872  1.1211
  381MOL0     C51340  -3.296   8.618  11.796 -0.0807 -0.2353  0.0802
  381MOL0     C51341  -3.362   8.688  11.902 -0.4089 -0.7684 -1.1719
  381MOL0     C51342  -3.434   8.821  11.857  0.0083 -0.0314 -0.0056
  381MOL0     C51343  -3.344   8.929  11.793  0.4274 -0.3527 -0.9394
  381MOL0     C51344  -3.229   8.992  11.880  0.0380 -0.7126 -0.0444
  381MOL0    Cl51345  -3.308   9.105  12.002  0.2177  0.3234 -0.2940
  381MOL0     C51346  -2.806   8.686  11.704  0.9175  0.3898 -0.2940
  381MOL0     C51347  -2.681   8.723  11.659  0.1003 -0.2377 -0.0395
  381MOL0     O51348  -2.506   8.811  11.452 -0.4521  0.0530 -0.1495
  381MOL0     C51349  -2.192   8.680  11.525  0.7607  0.2854 -0.2889
  381MOL0     C51350  -2.055   8.682  11.509 -0.3138  0.0475  0.9741
  381MOL0     N51351  -1.245   8.752  11.289  0.7065  0.2490  0.0410
  381MOL0     N51352  -1.176   8.851  11.253  0.2305  0.1579  0.2507
  381MOL0     C51353  -0.314   9.506  11.105 -0.0944 -0.3157 -0.1683
  381MOL0     C51354  -0.175   9.496  11.112  0.2560  0.0506 -0.6265
  381MOL0     C51355   0.241   9.292  11.198 -0.9104 -0.4378  0.1578
  381MOL0     C51356   0.318   9.189  11.254  0.2999  0.1156 -0.2730
  381MOL0     C51357   0.455   9.178  11.230  0.4279 -0.8691  0.0065
  381MOL0     C51358   0.519   9.263  11.136 -0.3010  0.7464 -0.0902
  381MOL0     O51359   0.655   9.261  11.120 -0.0776 -0.8156  0.0624
  381MOL0     C51360   0.742   9.186  11.206 -0.0231 -0.1045 -0.3620
  381MOL0     C51361   0.880   9.224  11.172  0.4766  1.1876  0.0258
  381MOL0     C51362   0.984   9.154  11.267  1.1795  1.1030  0.2555
  381MOL0     C51363   1.128   9.137  11.207  0.0982  0.0913  0.1699
  381MOL0     C51364   1.207   9.079  11.324  0.3451  0.9931 -0.4649
  381MOL0     C51365   1.260   9.031  11.423  0.6864 -0.3039  0.4815
  381MOL0     C51366   0.432   9.351  11.063 -0.8895 -0.4456  0.2760
  381MOL0     C51367   0.304   9.366  11.099  0.2139  0.5155  0.0982
  381MOL0     H51368  -0.151   9.189  11.245 -1.7020 -1.1002 -1.3059
  381MOL0     H51369  -0.395   9.215  11.253 -1.4654 -0.0292 -1.0477
  381MOL0     H51370  -0.574   9.572  11.035 -3.7122  0.4314 -3.2466
  381MOL0     H51371  -0.536   9.420  10.948  0.6485  0.2761 -0.4448
  381MOL0     H51372  -0.785   9.489  11.096  0.1099 -0.2330 -0.4123
  381MOL0     H51373  -0.766   9.454  10.923  1.7257  1.1807 -0.6480
  381MOL0     H51374  -0.676   9.218  11.004 -0.8627 -0.6924 -1.7350
  381MOL0     H51375  -0.745   9.268  11.161  3.3332  0.1285 -0.2342
  381MOL0     H51376  -0.961   9.274  11.078  0.6515 -1.3908  0.7497
  381MOL0     H51377  -0.909   9.267  10.908  2.7663  0.2136 -2.0680
  381MOL0     H51378  -0.823   9.016  10.980 -1.0509 -1.8626  0.8438
  381MOL0     H51379  -0.917   9.051  11.123 -1.8343  1.7993  0.0435
  381MOL0     H51380  -1.000   9.020  10.842  2.4172 -2.9108  1.2849
  381MOL0     H51381  -1.039   8.899  10.968  0.8687 -0.9232 -0.1952
  381MOL0     H51382  -1.142   9.176  10.946 -0.1799 -0.0171 -0.2403
  381MOL0     H51383  -1.235   9.024  10.919  0.9935 -1.2051 -0.7203
  381MOL0     H51384  -1.277   9.129  11.154  0.6618  0.9969 -0.6918
  381MOL0     H51385  -1.113   9.099  11.191  0.4382  1.8572 -0.7185
  381MOL0     H51386  -1.453   8.909  11.094 -0.1771  0.2975  2.2006
  381MOL0     H51387  -1.570   8.685  11.171 -0.2167 -2.6786  1.2912
  381MOL0     H51388  -1.436   8.567  11.221  1.7959  0.4557  1.3966
  381MOL0     H51389  -1.450   8.684  11.452 -0.0705 -1.1509  0.4142
  381MOL0     H51390  -1.577   8.578  11.411 -1.7318  0.9514 -0.7118
  381MOL0     H51391  -1.659   8.840  11.321 -1.6740  1.2580  1.5280
  381MOL0     H51392  -1.616   8.846  11.489 -0.7405 -2.2621  2.6661
  381MOL0     H51393  -1.764   8.659  11.532  2.9589  0.4875  0.4058
  381MOL0     H51394  -1.797   8.633  11.366  0.0437 -1.3909  1.6603
  381MOL0     H51395  -2.021   8.975  11.348  2.3358 -3.8041 -3.2191
  381MOL0     H51396  -2.332   9.018  11.288 -3.4133 -1.2007  0.8727
  381MOL0     H51397  -2.385   9.046  11.451  1.2046  1.9787  0.6750
  381MOL0     H51398  -2.229   9.104  11.403  0.8567 -0.3009 -0.2312
  381MOL0     H51399  -2.520   8.427  11.648 -0.1022  0.0812  0.2011
  381MOL0     H51400  -2.729   8.355  11.748  3.6005  0.7562  1.1023
  381MOL0     H51401  -3.051   8.559  11.619  0.9612 -0.1760 -1.2765
  381MOL0     H51402  -2.982   8.388  11.618 -0.7074 -0.6739  0.3830
  381MOL0     H51403  -3.247   8.403  11.654 -1.4162  2.0394  1.2957
  381MOL0     H51404  -3.153   8.301  11.750 -0.1531 -0.8980 -3.5650
  381MOL0     H51405  -3.152   8.512  11.923  0.4448  1.7248 -0.0923
  381MOL0     H51406  -3.307   8.424  11.899 -0.6494 -2.2916 -1.6734
  381MOL0     H51407  -3.213   8.681  11.764 -1.1349 -0.1147 -2.7487
  381MOL0     H51408  -3.361   8.593  11.712 -1.2744 -0.6639  1.1037
  381MOL0     H51409  -3.294   8.712  11.984 -0.1477 -2.2377 -0.9295
  381MOL0     H51410  -3.434   8.621  11.948  0.1985 -0.3937  0.3782
  381MOL0     H51411  -3.512   8.789  11.787  1.2302 -3.8455  0.1608
  381MOL0     H51412  -3.486   8.877  11.935  1.9807 -0.4480  1.6762
  381MOL0     H51413  -3.387   9.024  11.758  1.8908  0.8334  0.3375
  381MOL0     H51414  -3.300   8.875  11.708 -0.2902 -1.7298 -0.4687
  381MOL0     H51415  -3.161   9.042  11.811 -0.6172  1.1162  0.5823
  381MOL0     H51416  -3.166   8.926  11.941  1.0271 -0.9202 -1.2626
  381MOL0     H51417  -2.886   8.757  11.721  0.9592  0.3804 -0.0628
  381MOL0     H51418  -2.661   8.830  11.657  0.4670 -0.1740  3.0225
  381MOL0     H51419  -2.224   8.594  11.583  1.2721  0.4627  0.2673
  381MOL0     H51420  -1.992   8.606  11.554  3.3838  0.6598 -2.5569
  381MOL0     H51421  -0.367   9.586  11.054 -2.1062 -1.5582 -0.1313
  381MOL0     H51422  -0.116   9.580  11.078  0.8238 -0.0370  0.1017
  381MOL0     H51423   0.266   9.117  11.317  0.7721  2.0379  2.5125
  381MOL0     H51424   0.514   9.107  11.287  1.9220 -0.1552 -0.5901
  381MOL0     H51425   0.731   9.210  11.312 -0.7259 -0.1604 -0.4173
  381MOL0     H51426   0.720   9.081  11.188  0.1565 -0.6486  2.1575
  381MOL0     H51427   0.891   9.332  11.184  1.1351  1.5972 -3.1870
  381MOL0     H51428   0.911   9.191  11.072 -1.4793 -1.7398  0.2689
  381MOL0     H51429   0.949   9.052  11.283  0.3748  0.9970 -1.8020
  381MOL0     H51430   0.997   9.193  11.368  3.3919 -0.6996  0.7563
  381MOL0     H51431   1.178   9.224  11.164  1.0094  0.0990  1.1949
  381MOL0     H51432   1.122   9.054  11.136  0.1813 -1.9207  2.3712
  381MOL0     H51433   1.307   8.976  11.502  2.4054 -0.5507 -0.6668
  381MOL0     H51434   0.464   9.401  10.973 -1.1325  0.0059  0.4398
  381MOL0     H51435   0.244   9.437  11.043  0.0097 -1.5907 -2.5696
  382MOL0     O51436   0.146   8.998   5.718 -0.0531 -0.5595  0.4581
  382MOL0     C51437   0.178   9.113   5.761  0.1720 -0.2203 -0.5254
  382MOL0     O51438   0.117   9.231   5.744  0.4272 -0.4059  0.6057
  382MOL0     C51439  -0.001   9.241   5.674  0.9510  0.1689 -0.5208
  382MOL0     C51440  -0.023   9.357   5.593 -0.0461  0.5470  0.4219
  382MOL0     C51441  -0.146   9.392   5.549 -0.0233  0.5006  1.0403
  382MOL0     C51442  -0.260   9.322   5.593  0.7083  0.1109  0.4711
  382MOL0     O51443  -0.393   9.353   5.560  0.7066  0.4476  0.2048
  382MOL0     C51444  -0.422   9.480   5.496 -0.6543  0.0075 -0.0580
  382MOL0     C51445  -0.576   9.485   5.476 -0.6904  0.0604 -0.3516
  382MOL0     C51446  -0.635   9.351   5.429 -1.0042  0.3081  0.9917
  382MOL0     C51447  -0.777   9.351   5.412  0.8381 -0.0513  0.3825
  382MOL0     C51448  -0.841   9.218   5.366 -0.9916 -0.3319 -0.0977
  382MOL0     C51449  -0.990   9.222   5.401 -0.5691 -0.4506 -0.3833
  382MOL0     C51450  -1.013   9.188   5.545  0.2184 -0.6223  0.0549
  382MOL0     C51451  -1.158   9.160   5.583 -0.3100  0.6134  0.3590
  382MOL0     N51452  -1.177   9.151   5.731  0.2140 -0.3158 -0.0053
  382MOL0     C51453  -1.073   9.119   5.817  0.3676 -0.5619 -0.4986
  382MOL0     C51454  -1.104   9.178   5.933 -0.0385  0.5602  0.3692
  382MOL0     C51455  -1.024   9.155   6.058 -0.1827  0.2631  0.0265
  382MOL0     C51456  -1.053   9.021   6.125 -0.1384  1.1360 -0.4713
  382MOL0     C51457  -1.193   9.011   6.189  0.8425  0.4202 -0.3240
  382MOL0     C51458  -1.217   9.131   6.290 -0.6262  0.2432  0.1967
  382MOL0     O51459  -1.116   9.136   6.389  0.2347  0.4504 -0.5040
  382MOL0     C51460  -1.161   9.209   6.502  0.3670  0.3045  0.6869
  382MOL0     C51461  -1.078   9.201   6.614 -0.3851 -0.1421  0.5271
  382MOL0     C51462  -1.112   9.262   6.738  0.4558 -0.4745  0.0022
  382MOL0     C51463  -1.019   9.230   6.855  0.1904  0.1537  0.3616
  382MOL0     C51464  -1.222   9.352   6.742  0.5537 -0.1545  0.4339
  382MOL0     C51465  -1.255   9.440   6.862  0.1367 -0.5203 -0.5202
  382MOL0     O51466  -1.365   9.523   6.862  0.0002  0.7541 -0.4442
  382MOL0     C51467  -1.415   9.594   6.966 -0.2982 -0.4225  1.1117
  382MOL0     C51468  -1.517   9.547   7.047  0.1494  0.0275  0.3037
  382MOL0     C51469  -1.570   9.622   7.146 -0.6824  0.1188  0.1679
  382MOL0     C51470  -1.527   9.754   7.177 -0.2177  0.5071 -0.1583
  382MOL0     O51471  -1.586   9.843   7.263 -0.5421 -0.7117  0.1285
  382MOL0     C51472  -1.630   9.783   7.386  0.4045 -0.7564 -0.5184
  382MOL0     C51473  -1.764   9.855   7.416  0.1848 -0.2178 -0.1220
  382MOL0     C51474  -1.824   9.832   7.548 -0.7049  0.4355 -0.2291
  382MOL0     C51475  -1.960   9.887   7.577  0.2992 -0.5155  0.8875
  382MOL0     C51476  -1.958  10.041   7.586  0.0146 -1.2554 -0.1126
  382MOL0     C51477  -2.104  10.090   7.603 -0.1263  0.6663 -0.9984
  382MOL0     C51478  -2.098  10.229   7.655 -0.4312  0.3318  0.3176
  382MOL0     C51479  -2.222  10.302   7.702 -0.3728  0.6733  0.2600
  382MOL0    Cl51480  -2.225  10.455   7.631 -0.2384 -0.0476  0.1930
  382MOL0     C51481  -1.419   9.801   7.096  0.2807  0.2578  0.1995
  382MOL0     C51482  -1.365   9.727   6.991  0.5155 -0.2836  0.1234
  382MOL0     O51483  -1.179   9.436   6.962 -0.1685  0.7024 -0.2427
  382MOL0     C51484  -1.306   9.366   6.621 -0.7462 -0.7730 -0.1903
  382MOL0     C51485  -1.277   9.296   6.504 -0.2525 -0.1055 -0.2916
  382MOL0     N51486  -1.212   9.251   5.916  0.2828 -0.0914  0.3638
  382MOL0     N51487  -1.268   9.233   5.798 -0.0805 -0.2352  0.4982
  382MOL0     C51488  -0.244   9.204   5.658  0.7262 -0.6238  0.5907
  382MOL0     C51489  -0.114   9.155   5.696 -0.6621  0.2463 -0.5288
  382MOL0     C51490   0.293   9.130   5.855 -0.0670  0.5915 -0.0152
  382MOL0     C51491   0.296   9.235   5.943  0.2270  0.7345  0.2186
  382MOL0     C51492   0.397   9.240   6.036  0.5601  0.5876 -1.0303
  382MOL0     C51493   0.501   9.146   6.039  0.6624  0.3668 -0.8173
  382MOL0     O51494   0.605   9.126   6.128  0.3349  0.1814  0.0990
  382MOL0     C51495   0.644   9.244   6.200  0.1407 -0.4386 -0.6327
  382MOL0     C51496   0.615   9.219   6.346  0.3927 -0.4276  0.1180
  382MOL0     C51497   0.673   9.079   6.396 -0.4440  1.1443  0.4911
  382MOL0     C51498   0.687   9.072   6.549 -0.4677  0.4824 -0.5332
  382MOL0     C51499   0.748   8.948   6.593 -0.4715  0.1603 -0.0528
  382MOL0     C51500   0.787   8.843   6.636 -0.3664  0.4331 -0.4391
  382MOL0     C51501   0.497   9.039   5.947 -0.0457 -0.0702  0.9769
  382MOL0     C51502   0.393   9.030   5.853 -0.5348  0.4974  0.3114
  382MOL0     H51503   0.060   9.423   5.569  0.2721 -0.1961 -0.5887
  382MOL0     H51504  -0.153   9.483   5.491  0.5432  0.5534  1.0464
  382MOL0     H51505  -0.390   9.568   5.552 -2.4495  1.2434 -0.8898
  382MOL0     H51506  -0.373   9.495   5.399 -1.6047 -0.8262 -0.6914
  382MOL0     H51507  -0.617   9.503   5.575  0.1397  2.9539 -0.4223
  382MOL0     H51508  -0.604   9.557   5.398  1.6794 -3.3428 -4.8681
  382MOL0     H51509  -0.571   9.332   5.342  0.8819  0.2953  2.3138
  382MOL0     H51510  -0.616   9.265   5.494  2.2691 -1.2072 -1.6849
  382MOL0     H51511  -0.824   9.381   5.506 -1.4349 -1.5369 -0.2043
  382MOL0     H51512  -0.793   9.434   5.342  0.3241  0.7576  1.4172
  382MOL0     H51513  -0.823   9.201   5.260  0.8431 -2.5285  0.4961
  382MOL0     H51514  -0.792   9.128   5.405  0.6722  0.5113 -0.1677
  382MOL0     H51515  -1.048   9.310   5.373  1.0952  1.4079  1.6422
  382MOL0     H51516  -1.030   9.140   5.341  2.8778 -2.2360 -0.4730
  382MOL0     H51517  -0.958   9.097   5.570 -0.1512 -0.8391  0.0904
  382MOL0     H51518  -0.978   9.279   5.596  3.5512 -1.2799 -0.8572
  382MOL0     H51519  -1.193   9.066   5.538 -2.4560  0.4403  2.1946
  382MOL0     H51520  -1.229   9.228   5.535  0.5411  0.6393 -0.9009
  382MOL0     H51521  -0.990   9.056   5.787  0.1821 -1.0127 -0.0915
  382MOL0     H51522  -0.917   9.152   6.040 -0.1875  3.0192 -0.7914
  382MOL0     H51523  -1.055   9.236   6.124 -0.2192  0.6686 -0.4913
  382MOL0     H51524  -0.968   8.998   6.190 -1.6800 -2.4943  0.5148
  382MOL0     H51525  -1.048   8.941   6.051 -1.5681 -0.1005  0.7242
  382MOL0     H51526  -1.188   8.914   6.238  0.3145  1.0814  1.1115
  382MOL0     H51527  -1.267   9.011   6.109  1.9188 -0.4582 -1.3539
  382MOL0     H51528  -1.317   9.118   6.332 -1.0720  1.0500 -0.5751
  382MOL0     H51529  -1.215   9.220   6.226  1.3934 -0.3071 -0.5851
  382MOL0     H51530  -0.985   9.147   6.616 -1.5416 -2.2421  0.0305
  382MOL0     H51531  -0.972   9.325   6.883 -2.1179  1.3962  0.2931
  382MOL0     H51532  -1.079   9.192   6.938 -0.6991  0.7543  0.0179
  382MOL0     H51533  -0.943   9.162   6.817 -0.8275 -0.3109 -0.9458
  382MOL0     H51534  -1.565   9.454   7.018  0.3395 -0.2048  0.7211
  382MOL0     H51535  -1.663   9.577   7.179 -1.4126 -0.8010 -2.8100
  382MOL0     H51536  -1.639   9.674   7.392  2.5696 -0.9875 -0.4610
  382MOL0     H51537  -1.558   9.812   7.464  0.2602  1.3333 -1.0918
  382MOL0     H51538  -1.736   9.960   7.403 -1.9399  0.4208  0.0436
  382MOL0     H51539  -1.834   9.830   7.335  2.7060 -0.8287 -2.2676
  382MOL0     H51540  -1.757   9.878   7.622 -0.1971  0.8512 -0.9319
  382MOL0     H51541  -1.821   9.724   7.564 -2.0803  0.5108  0.7568
  382MOL0     H51542  -2.017   9.865   7.487  2.7352 -2.5647 -0.2946
  382MOL0     H51543  -2.000   9.837   7.666  0.9624  0.4135  1.7310
  382MOL0     H51544  -1.933  10.079   7.487 -0.3609 -1.0770 -0.1415
  382MOL0     H51545  -1.884  10.072   7.659  0.0787 -0.0124 -0.6897
  382MOL0     H51546  -2.160  10.083   7.509  0.2279  4.1612 -1.6349
  382MOL0     H51547  -2.135  10.018   7.678  0.7062  1.0757 -0.2466
  382MOL0     H51548  -2.044  10.291   7.582 -0.2443 -1.7657 -1.4257
  382MOL0     H51549  -2.026  10.231   7.737 -0.1170  1.1377  0.0276
  382MOL0     H51550  -2.215  10.302   7.811 -0.3020 -2.2886  0.3310
  382MOL0     H51551  -2.312  10.246   7.674  1.3792 -1.6951 -0.9352
  382MOL0     H51552  -1.376   9.899   7.113  1.3516  0.0863 -1.3595
  382MOL0     H51553  -1.286   9.763   6.926 -0.5462 -0.5424 -1.3668
  382MOL0     H51554  -1.384   9.442   6.626 -0.3727 -0.4405  0.8154
  382MOL0     H51555  -1.344   9.298   6.419  1.0003  0.8428 -1.3175
  382MOL0     H51556  -0.331   9.148   5.691 -0.8729 -1.0484 -3.7837
  382MOL0     H51557  -0.105   9.071   5.765 -1.0491  2.0166  1.8174
  382MOL0     H51558   0.224   9.317   5.942  0.9394  1.4850  2.8706
  382MOL0     H51559   0.388   9.323   6.106 -0.9458 -2.1647  2.3476
  382MOL0     H51560   0.753   9.256   6.196  0.3176 -1.2377  1.1393
  382MOL0     H51561   0.595   9.337   6.169 -0.4631 -0.5186  0.0762
  382MOL0     H51562   0.508   9.234   6.360  0.6867  2.9333 -0.3048
  382MOL0     H51563   0.664   9.300   6.400 -0.1062  0.9174 -1.3744
  382MOL0     H51564   0.770   9.065   6.348  0.2062  0.5287  1.9410
  382MOL0     H51565   0.613   8.994   6.362  1.6871  0.2758 -1.3204
  382MOL0     H51566   0.592   9.083   6.602  0.2538 -1.6092  1.3568
  382MOL0     H51567   0.755   9.149   6.589  0.8358 -0.3971 -0.9976
  382MOL0     H51568   0.826   8.752   6.678 -0.5437  0.3645 -0.4233
  382MOL0     H51569   0.565   8.954   5.952  0.1173  0.0618  0.9893
  382MOL0     H51570   0.386   8.946   5.785 -0.3045 -0.0597  0.9644
  383MOL0     O51571   4.788   8.466  11.254 -0.2915 -0.6170 -0.0803
  383MOL0     C51572   4.894   8.485  11.317 -0.6287  0.1803  0.5462
  383MOL0     O51573   4.999   8.563  11.263 -0.1091  0.2880 -0.4701
  383MOL0     C51574   4.957   8.628  11.149  0.5192  0.7398 -0.1938
  383MOL0     C51575   4.898   8.754  11.158  0.2000  0.3274  0.4316
  383MOL0     C51576   4.870   8.830  11.047  0.8723 -0.2140 -0.0884
  383MOL0     C51577   4.879   8.770  10.924  0.2027 -0.2925  0.0311
  383MOL0     O51578   4.870   8.832  10.798 -0.9996  0.0202 -0.1429
  383MOL0     C51579   4.800   8.963  10.798  0.7487 -0.6605 -0.3333
  383MOL0     C51580   4.643   8.957  10.817 -0.1088 -0.2739  0.2287
  383MOL0     C51581   4.567   9.079  10.761  0.5087  0.5958 -0.3683
  383MOL0     C51582   4.422   9.049  10.797  0.1832 -1.0831  0.0459
  383MOL0     C51583   4.330   9.171  10.759  0.2933 -0.5603 -0.1599
  383MOL0     C51584   4.184   9.146  10.723 -0.3040  0.5767  0.4654
  383MOL0     C51585   4.127   9.273  10.659 -0.8223 -0.5958 -0.1431
  383MOL0     C51586   3.988   9.247  10.594 -0.0609 -0.1191  0.9370
  383MOL0     N51587   3.914   9.363  10.555 -0.7407 -0.5792  0.5252
  383MOL0     C51588   3.845   9.451  10.635 -0.1918  0.5584  0.0737
  383MOL0     C51589   3.803   9.549  10.551 -0.3767 -0.2838 -0.5291
  383MOL0     C51590   3.733   9.672  10.593  0.8387 -0.3200 -0.4436
  383MOL0     C51591   3.590   9.642  10.547 -0.3632  0.1614 -0.7473
  383MOL0     C51592   3.499   9.749  10.612  0.5059 -0.1222 -0.5733
  383MOL0     C51593   3.359   9.711  10.565  0.0024 -0.6014 -0.1766
  383MOL0     O51594   3.339   9.758  10.433  0.1662 -0.2673 -0.7906
  383MOL0     C51595   3.212   9.744  10.381 -0.4183  0.7392 -0.5877
  383MOL0     C51596   3.114   9.644  10.424 -0.5316 -0.7429  0.2876
  383MOL0     C51597   2.984   9.645  10.368 -0.7348 -0.4397 -0.2446
  383MOL0     C51598   2.888   9.532  10.410 -0.5196  0.5906 -0.8617
  383MOL0     C51599   2.944   9.753  10.287 -1.1029  0.6457  0.5559
  383MOL0     C51600   2.814   9.776  10.247  0.2707  0.0918  0.1982
  383MOL0     O51601   2.712   9.778  10.345  0.2075  0.0184 -0.0870
  383MOL0     C51602   2.590   9.831  10.308 -0.4822  0.8556  0.1686
  383MOL0     C51603   2.581   9.961  10.267 -0.7196 -0.6023 -0.1251
  383MOL0     C51604   2.461  10.019  10.235  0.1280 -0.7941  0.0815
  383MOL0     C51605   2.351   9.942  10.260  1.1173 -0.5242  0.2955
  383MOL0     O51606   2.232  10.006  10.235 -0.2399 -0.2530  0.6468
  383MOL0     C51607   2.113   9.992  10.307 -0.0065  0.5739 -0.2243
  383MOL0     C51608   2.083  10.082  10.432  0.2580 -0.9998 -0.2036
  383MOL0     C51609   1.946  10.032  10.489 -0.9776 -0.0414  0.1919
  383MOL0     C51610   1.944   9.878  10.522  0.4603 -0.3713 -0.1002
  383MOL0     C51611   1.852   9.867  10.640 -0.6418 -0.6082  0.0821
  383MOL0     C51612   1.715   9.937  10.618 -0.0316  0.1932 -0.3775
  383MOL0     C51613   1.622   9.918  10.741 -0.3576  0.1956  0.0329
  383MOL0     C51614   1.480   9.878  10.716  1.7648 -0.0616 -0.5700
  383MOL0    Cl51615   1.381   9.866  10.874 -0.1045  0.5093 -0.2970
  383MOL0     C51616   2.359   9.809  10.304  0.8564 -0.4052  1.0516
  383MOL0     C51617   2.479   9.751  10.320 -0.0298 -0.0000 -0.1227
  383MOL0     O51618   2.803   9.812  10.132  0.1743  0.0393 -0.1000
  383MOL0     C51619   3.043   9.847  10.243 -0.7199 -0.3434  0.0344
  383MOL0     C51620   3.171   9.836  10.294  0.2885 -0.1494  0.4414
  383MOL0     N51621   3.861   9.527  10.436 -0.5041  0.1621  0.0527
  383MOL0     N51622   3.918   9.416  10.432  0.6215 -1.0587 -0.3872
  383MOL0     C51623   4.925   8.635  10.911  1.0339 -0.7402 -0.6464
  383MOL0     C51624   4.969   8.567  11.024  0.2317 -0.4537  0.2298
  383MOL0     C51625   4.910   8.408  11.442 -0.1457 -0.4643  0.1304
  383MOL0     C51626   4.809   8.355  11.512  1.4981 -0.0104 -0.3034
  383MOL0     C51627   4.824   8.297  11.633 -0.6733  0.6016 -0.7903
  383MOL0     C51628   4.944   8.286  11.696 -0.3935  0.5022  0.3897
  383MOL0     O51629   4.936   8.210  11.809 -0.1582 -0.1450 -0.5527
  383MOL0     C51630   5.056   8.197  11.896 -0.1301 -0.9196 -0.6249
  383MOL0     C51631   5.085   8.336  11.972 -0.8669  0.4192  1.4028
  383MOL0     C51632   4.969   8.385  12.049 -0.0223 -0.5475 -0.7952
  383MOL0     C51633   5.009   8.520  12.111 -0.2054  0.2514 -0.6129
  383MOL0     C51634   4.889   8.559  12.190 -1.5500 -0.8842 -0.2183
  383MOL0     C51635   4.782   8.559  12.245 -0.5139 -0.0333 -0.0284
  383MOL0     C51636   5.053   8.341  11.628 -0.5881 -1.4093 -0.3484
  383MOL0     C51637   5.033   8.403  11.503 -0.2762 -0.1327 -0.6715
  383MOL0     H51638   4.874   8.789  11.258 -0.5448 -1.6133  0.9659
  383MOL0     H51639   4.847   8.936  11.057  2.6084  0.3805 -1.7827
  383MOL0     H51640   4.850   9.033  10.865  0.8464 -1.4404  0.4309
  383MOL0     H51641   4.820   9.004  10.699 -0.7241 -1.2868 -0.9235
  383MOL0     H51642   4.606   8.864  10.772  2.2906 -0.7955 -0.8180
  383MOL0     H51643   4.634   8.953  10.926 -0.0671 -0.5821  0.2227
  383MOL0     H51644   4.590   9.175  10.808  0.3879  0.5478 -0.2093
  383MOL0     H51645   4.584   9.096  10.655  0.8016 -0.3330 -0.4837
  383MOL0     H51646   4.391   8.959  10.743  0.1748 -2.2385  1.9113
  383MOL0     H51647   4.408   9.025  10.902  0.9292  2.2090  1.0042
  383MOL0     H51648   4.323   9.238  10.845 -4.4859 -0.4910 -0.3246
  383MOL0     H51649   4.381   9.219  10.675  3.2831 -1.3073  1.1180
  383MOL0     H51650   4.188   9.071  10.644 -0.5953 -0.4941  1.4402
  383MOL0     H51651   4.114   9.121  10.803 -0.3948  1.4806  0.6746
  383MOL0     H51652   4.132   9.350  10.736 -2.0989 -1.6901  1.0920
  383MOL0     H51653   4.190   9.309  10.576 -2.3803 -0.1615 -1.1860
  383MOL0     H51654   3.928   9.186  10.663  1.5664 -1.6557  1.0668
  383MOL0     H51655   3.996   9.187  10.503 -0.6986  2.2083 -0.7487
  383MOL0     H51656   3.827   9.436  10.741 -0.2438 -0.1272 -0.0278
  383MOL0     H51657   3.737   9.699  10.699  0.9311  0.0965 -0.5498
  383MOL0     H51658   3.753   9.758  10.529 -3.2812  0.4534 -0.9159
  383MOL0     H51659   3.558   9.551  10.600 -2.9586  1.5507  0.2274
  383MOL0     H51660   3.578   9.624  10.440  0.2729 -2.4936 -0.4615
  383MOL0     H51661   3.527   9.848  10.575  1.0096  0.1408  0.4675
  383MOL0     H51662   3.490   9.756  10.721 -1.5189  1.2382 -0.7826
  383MOL0     H51663   3.292   9.781  10.615 -1.1136 -2.0322  0.4216
  383MOL0     H51664   3.329   9.608  10.588 -0.7424 -0.5892 -1.0266
  383MOL0     H51665   3.142   9.580  10.507 -1.8489 -1.5549  0.1242
  383MOL0     H51666   2.818   9.565  10.487 -3.0102 -0.9783 -2.2867
  383MOL0     H51667   2.826   9.499  10.325 -1.1721  0.5948 -0.3922
  383MOL0     H51668   2.939   9.442  10.445 -0.2163  0.6297 -1.1897
  383MOL0     H51669   2.666  10.027  10.258 -2.5986  2.2329  1.3486
  383MOL0     H51670   2.444  10.124  10.209 -2.6867 -1.1724 -0.0021
  383MOL0     H51671   2.032  10.010  10.236  0.0373 -1.7405 -0.9421
  383MOL0     H51672   2.099   9.887  10.332 -2.2155  1.2034  1.5510
  383MOL0     H51673   2.159  10.093  10.509  0.8995  0.4900 -1.0094
  383MOL0     H51674   2.058  10.182  10.397 -0.8161 -1.5682 -1.1578
  383MOL0     H51675   1.866  10.048  10.416 -0.9779  1.7302  0.5454
  383MOL0     H51676   1.927  10.099  10.573 -0.2213 -0.9723  1.1313
  383MOL0     H51677   1.898   9.829  10.436  2.1782 -0.0562 -1.2491
  383MOL0     H51678   2.042   9.839  10.549  2.2653  3.3543 -0.6609
  383MOL0     H51679   1.900   9.910  10.729 -0.0332 -0.7421 -0.1757
  383MOL0     H51680   1.843   9.760  10.662  1.6189 -0.4851  1.9858
  383MOL0     H51681   1.732  10.045  10.614  0.6970  0.1309  0.7153
  383MOL0     H51682   1.666   9.909  10.525  0.5088  2.2592 -1.3479
  383MOL0     H51683   1.630  10.012  10.796  0.5295  0.2469 -0.1707
  383MOL0     H51684   1.646   9.840  10.813 -3.5154  0.3833  1.4320
  383MOL0     H51685   1.485   9.780  10.669  2.1290  0.5212 -1.7990
  383MOL0     H51686   1.431   9.944  10.643  0.1688 -0.3001  0.2501
  383MOL0     H51687   2.260   9.766  10.315 -0.4586  1.6941 -1.4629
  383MOL0     H51688   2.493   9.651  10.360  0.7510  0.7147  1.4826
  383MOL0     H51689   3.017   9.922  10.169 -2.6309 -1.5066 -0.5378
  383MOL0     H51690   3.247   9.905  10.257 -1.7210  3.2029  2.0144
  383MOL0     H51691   4.922   8.596  10.809 -1.0118 -0.9109 -0.5670
  383MOL0     H51692   5.011   8.467  11.015 -1.1477 -1.0364  0.0379
  383MOL0     H51693   4.710   8.346  11.469  2.2215  0.4381 -2.1592
  383MOL0     H51694   4.744   8.250  11.690 -1.7518 -0.6217 -3.1774
  383MOL0     H51695   5.037   8.129  11.979 -0.8480  0.0538  0.0250
  383MOL0     H51696   5.140   8.168  11.833  0.0007 -3.1462  0.4799
  383MOL0     H51697   5.116   8.410  11.898  0.3956 -0.2836  1.2087
  383MOL0     H51698   5.175   8.315  12.030 -1.3801 -1.2756  1.6493
  383MOL0     H51699   4.951   8.312  12.129  0.1555  1.8442  1.5790
  383MOL0     H51700   4.885   8.394  11.980 -2.2233  3.5898  2.0058
  383MOL0     H51701   5.045   8.591  12.035  0.6097  0.5850  0.0593
  383MOL0     H51702   5.087   8.503  12.186  0.7894  0.2571 -1.6194
  383MOL0     H51703   4.704   8.540  12.315 -0.2363  0.5505  0.4460
  383MOL0     H51704   5.151   8.313  11.666 -0.8309 -1.6848  0.0860
  383MOL0     H51705   5.120   8.433  11.445 -0.4242 -2.8002 -2.4260
  384MOL0     O51706   6.088   2.022   0.585  0.1390 -0.2201 -0.1121
  384MOL0     C51707   6.090   2.123   0.521 -0.1826  0.2744 -0.0119
  384MOL0     O51708   5.984   2.218   0.517 -0.9484  0.0419  0.7756
  384MOL0     C51709   5.852   2.177   0.564 -0.1830 -0.3713 -0.1477
  384MOL0     C51710   5.796   2.238   0.677 -0.0173 -0.1861  0.9424
  384MOL0     C51711   5.668   2.204   0.714  0.4284 -0.0463  0.4976
  384MOL0     C51712   5.587   2.122   0.625 -0.8150  0.3872 -0.0677
  384MOL0     O51713   5.464   2.080   0.666  0.6468 -0.1396 -1.2497
  384MOL0     C51714   5.368   2.054   0.560  0.1355  0.0035  0.2326
  384MOL0     C51715   5.224   2.061   0.615 -0.0069  0.4742 -0.2642
  384MOL0     C51716   5.200   2.205   0.656 -0.0482 -0.1269  0.3464
  384MOL0     C51717   5.049   2.232   0.683 -0.3391  0.6569  0.3548
  384MOL0     C51718   5.011   2.266   0.825  0.3984  0.4280  0.3135
  384MOL0     C51719   5.043   2.153   0.921 -0.1256 -0.6332  0.3271
  384MOL0     C51720   4.947   2.037   0.898 -0.1299  0.3708 -0.6150
  384MOL0     C51721   4.961   1.934   1.009 -0.1695  0.6221 -0.4784
  384MOL0     N51722   4.885   1.806   0.984  0.0064 -0.1127 -0.4472
  384MOL0     C51723   4.771   1.773   1.058  0.5136 -0.0976 -0.0559
  384MOL0     C51724   4.735   1.655   0.994  0.0787 -0.8021  0.6597
  384MOL0     C51725   4.612   1.579   1.005 -0.1788  0.0404 -0.7107
  384MOL0     C51726   4.602   1.478   0.886 -0.7305 -0.2578 -0.5118
  384MOL0     C51727   4.475   1.408   0.898 -0.0664  0.0687 -0.2065
  384MOL0     C51728   4.477   1.291   1.008 -0.1722 -0.2363 -0.0787
  384MOL0     O51729   4.488   1.165   0.943 -0.7124  0.6104 -0.7032
  384MOL0     C51730   4.374   1.111   0.896 -0.0650  1.0836  0.7122
  384MOL0     C51731   4.252   1.169   0.869 -0.0048  0.0473  0.0201
  384MOL0     C51732   4.142   1.088   0.824  0.3903  0.5736 -0.0040
  384MOL0     C51733   4.007   1.161   0.825  0.0520 -0.7861 -0.0886
  384MOL0     C51734   4.154   0.949   0.798  0.9214 -0.1932 -0.6084
  384MOL0     C51735   4.032   0.858   0.770  0.6163 -0.7201 -0.3648
  384MOL0     O51736   4.047   0.753   0.683 -0.0060 -0.4326 -0.5622
  384MOL0     C51737   3.962   0.648   0.667  0.6525 -0.1984  0.3705
  384MOL0     C51738   3.913   0.620   0.539  0.4590  0.6048 -0.2172
  384MOL0     C51739   3.822   0.507   0.533  0.2990  0.0458  0.4781
  384MOL0     C51740   3.781   0.438   0.636  0.4323  0.5004  0.3531
  384MOL0     O51741   3.693   0.331   0.621 -0.4936  0.6349  0.0162
  384MOL0     C51742   3.553   0.346   0.673  0.1229 -0.1635  0.0925
  384MOL0     C51743   3.431   0.312   0.576 -0.2538 -0.7714  0.4659
  384MOL0     C51744   3.415   0.166   0.537 -0.6627  0.1925  0.1867
  384MOL0     C51745   3.299   0.155   0.446  0.5655  0.2073  0.6103
  384MOL0     C51746   3.165   0.131   0.523  0.9297  0.9713  0.1182
  384MOL0     C51747   3.047   0.143   0.412 -0.0122  0.6907  0.2170
  384MOL0     C51748   2.921   0.081   0.468  0.0244  0.3869 -0.0389
  384MOL0     C51749   2.925  -0.073   0.473 -0.5299 -0.2335 -1.3254
  384MOL0    Cl51750   2.987  -0.155   0.324  0.1143 -0.0555 -0.1046
  384MOL0     C51751   3.825   0.472   0.761  0.5674  0.6963 -0.6749
  384MOL0     C51752   3.905   0.583   0.781 -0.0699  0.1045  0.6351
  384MOL0     O51753   3.928   0.883   0.831 -0.3592 -0.4880 -0.1173
  384MOL0     C51754   4.280   0.902   0.802  0.1356 -0.4920  0.0762
  384MOL0     C51755   4.389   0.977   0.859  0.2586 -0.2597  0.0762
  384MOL0     N51756   4.839   1.616   0.916 -0.4688  0.0147  0.9663
  384MOL0     N51757   4.936   1.693   0.935  0.2717 -0.3801  0.4398
  384MOL0     C51758   5.645   2.066   0.511 -0.7304  0.5842  0.5571
  384MOL0     C51759   5.778   2.095   0.486 -0.2046  0.0291  0.3926
  384MOL0     C51760   6.214   2.146   0.436  0.4884  0.1913  0.0833
  384MOL0     C51761   6.232   2.271   0.375  0.1874 -0.6366 -0.9195
  384MOL0     C51762   6.348   2.289   0.290 -0.0371  0.2285 -0.0227
  384MOL0     C51763   6.438   2.192   0.263 -0.4613  0.4176 -0.4508
  384MOL0     O51764   6.564   2.194   0.192  0.5246 -0.3917 -0.2340
  384MOL0     C51765   6.593   2.304   0.110  0.0913 -0.5530 -0.3821
  384MOL0     C51766   6.709   2.386   0.162 -0.6006  0.1984  0.0074
  384MOL0     C51767   6.665   2.489   0.266 -0.2919  0.3573  0.1142
  384MOL0     C51768   6.691   2.437   0.409 -0.2744  0.9214 -0.0071
  384MOL0     C51769   6.613   2.508   0.509 -0.1034 -0.4870 -0.9285
  384MOL0     C51770   6.548   2.562   0.599 -0.6891  0.4620 -0.4898
  384MOL0     C51771   6.426   2.065   0.331 -0.1823  0.2540  0.0578
  384MOL0     C51772   6.314   2.049   0.416  0.7670  0.2232 -0.6120
  384MOL0     H51773   5.854   2.303   0.742 -1.7352  1.2931  1.0704
  384MOL0     H51774   5.613   2.246   0.798  1.8266  1.9096  0.5237
  384MOL0     H51775   5.392   2.118   0.475  0.4466  0.8224  0.9174
  384MOL0     H51776   5.384   1.953   0.523  2.8717  0.0758  0.9920
  384MOL0     H51777   5.146   2.031   0.545 -0.8480 -0.5079  1.0584
  384MOL0     H51778   5.201   1.998   0.701 -2.6659  1.5178 -0.1140
  384MOL0     H51779   5.261   2.216   0.746  1.5612 -2.9574 -0.2891
  384MOL0     H51780   5.246   2.264   0.576  0.6291 -1.4297 -0.2579
  384MOL0     H51781   5.048   2.323   0.623  2.4212 -0.1977 -1.1632
  384MOL0     H51782   4.985   2.160   0.631  1.8254  0.3284 -2.0408
  384MOL0     H51783   5.060   2.358   0.858  2.5655 -0.5305 -0.0324
  384MOL0     H51784   4.904   2.284   0.822  0.1062 -1.1914  0.1553
  384MOL0     H51785   5.145   2.115   0.920 -1.0181 -3.3466  1.8496
  384MOL0     H51786   5.034   2.192   1.023 -1.3492 -0.5515  0.2085
  384MOL0     H51787   4.841   2.062   0.899 -0.3535 -0.2440 -2.8504
  384MOL0     H51788   4.962   1.992   0.799  1.4974 -2.1651  0.6724
  384MOL0     H51789   4.931   1.971   1.107 -0.9772  0.4012 -0.6396
  384MOL0     H51790   5.066   1.907   1.028 -0.1602  1.3145  0.5043
  384MOL0     H51791   4.721   1.836   1.130 -1.2521  1.8152 -2.7582
  384MOL0     H51792   4.622   1.519   1.096 -3.0220 -2.9795 -2.1609
  384MOL0     H51793   4.531   1.652   1.011  0.6904  1.0657 -1.1418
  384MOL0     H51794   4.690   1.413   0.889  0.3832  1.1901  2.4273
  384MOL0     H51795   4.618   1.527   0.790  2.1791  0.2355  0.1058
  384MOL0     H51796   4.460   1.353   0.805  0.6409  2.4726 -1.8315
  384MOL0     H51797   4.388   1.473   0.913  1.0509  1.5435  0.1746
  384MOL0     H51798   4.388   1.295   1.072  2.2897 -1.5535  3.7998
  384MOL0     H51799   4.566   1.289   1.072  1.6834  1.1582 -2.4442
  384MOL0     H51800   4.245   1.275   0.890  2.4765  0.1092  0.8705
  384MOL0     H51801   3.942   1.139   0.741  0.5487 -0.5477 -0.5398
  384MOL0     H51802   3.954   1.148   0.920 -1.6985 -1.1660 -1.0709
  384MOL0     H51803   4.023   1.268   0.807 -2.5177 -0.6379 -1.9429
  384MOL0     H51804   3.949   0.687   0.461  0.0429  1.8186  0.6052
  384MOL0     H51805   3.795   0.463   0.438 -1.7286  0.6150  0.7664
  384MOL0     H51806   3.550   0.284   0.764  1.1131 -0.1691  0.1305
  384MOL0     H51807   3.541   0.448   0.710 -1.2707 -0.3640  0.2317
  384MOL0     H51808   3.339   0.345   0.624 -1.2844 -1.9760 -0.6014
  384MOL0     H51809   3.462   0.373   0.491 -2.5431  2.4619  1.7563
  384MOL0     H51810   3.401   0.109   0.629 -1.0034 -0.1362 -0.0662
  384MOL0     H51811   3.511   0.132   0.496  0.3532  1.7532  1.1618
  384MOL0     H51812   3.273   0.244   0.389  0.8773 -0.6224 -0.8579
  384MOL0     H51813   3.318   0.067   0.384 -0.6581  0.2159  0.1933
  384MOL0     H51814   3.143   0.192   0.611  3.2906  0.8129  0.9030
  384MOL0     H51815   3.170   0.031   0.568  1.6075  1.2396  0.6593
  384MOL0     H51816   3.038   0.247   0.380  3.5501  1.0096 -0.1842
  384MOL0     H51817   3.090   0.093   0.325  1.0909  1.7266  0.1460
  384MOL0     H51818   2.836   0.115   0.407 -1.0506 -2.1139 -0.0212
  384MOL0     H51819   2.910   0.117   0.571  0.1544  0.3172 -0.0015
  384MOL0     H51820   2.826  -0.113   0.497 -0.2390 -1.0934 -1.5367
  384MOL0     H51821   2.992  -0.107   0.552  0.1226  2.1853 -0.7537
  384MOL0     H51822   3.782   0.420   0.845 -0.0721 -0.5720 -1.7633
  384MOL0     H51823   3.939   0.622   0.876  0.8591  3.3007 -0.8768
  384MOL0     H51824   4.300   0.798   0.783 -0.4332 -1.2944  3.2051
  384MOL0     H51825   4.477   0.913   0.866 -0.1540 -0.8640 -0.1724
  384MOL0     H51826   5.608   1.983   0.451  0.4942 -0.1182  0.7385
  384MOL0     H51827   5.834   2.048   0.406  0.2210  1.9106 -0.4779
  384MOL0     H51828   6.154   2.345   0.389 -0.7234 -1.4800 -1.4291
  384MOL0     H51829   6.348   2.388   0.246 -0.2514  0.3575  0.2646
  384MOL0     H51830   6.631   2.248   0.024  5.0190 -1.8936  2.2937
  384MOL0     H51831   6.507   2.369   0.088 -0.5639 -1.8728 -1.8701
  384MOL0     H51832   6.745   2.450   0.081 -0.8721  0.7888  0.3529
  384MOL0     H51833   6.791   2.330   0.209 -3.2784 -0.5498  4.2841
  384MOL0     H51834   6.559   2.497   0.243 -0.6748  1.6602  2.1126
  384MOL0     H51835   6.710   2.587   0.249  1.1293 -0.4074 -0.7756
  384MOL0     H51836   6.798   2.447   0.428 -0.1613 -2.5394  2.0077
  384MOL0     H51837   6.694   2.328   0.424  4.3446  0.9784  0.9686
  384MOL0     H51838   6.484   2.598   0.678  0.2833 -0.0999  0.5792
  384MOL0     H51839   6.499   1.986   0.317 -1.5024 -1.2339  1.2748
  384MOL0     H51840   6.300   1.955   0.469 -2.1989  0.5686 -0.6536
  385MOL0     O51841   3.460   7.394  10.704 -0.0798  0.4299 -0.1013
  385MOL0     C51842   3.499   7.332  10.602  0.2129  0.2615  0.1538
  385MOL0     O51843   3.421   7.309  10.495 -0.1397 -0.5627 -0.2099
  385MOL0     C51844   3.285   7.335  10.490 -0.1418 -0.2302 -0.3969
  385MOL0     C51845   3.223   7.244  10.399  0.1619 -0.2087  0.0140
  385MOL0     C51846   3.085   7.245  10.379  0.8629  0.1768  0.4999
  385MOL0     C51847   3.008   7.334  10.448  0.2776  0.0521 -0.6305
  385MOL0     O51848   2.876   7.326  10.440  0.8577  0.0309  0.0073
  385MOL0     C51849   2.791   7.392  10.538 -0.0516  0.1748  0.2827
  385MOL0     C51850   2.635   7.370  10.524  0.4471  0.0518  0.5748
  385MOL0     C51851   2.549   7.448  10.629 -0.3640  0.8111  0.1066
  385MOL0     C51852   2.589   7.389  10.766  0.3662  0.0885  1.0532
  385MOL0     C51853   2.499   7.444  10.872  1.3551  0.2359 -0.5491
  385MOL0     C51854   2.536   7.398  11.019 -0.0022  0.1588 -0.3426
  385MOL0     C51855   2.481   7.266  11.065  0.2968  0.2598 -0.4202
  385MOL0     C51856   2.330   7.262  11.067 -0.4857  0.6660  0.3792
  385MOL0     N51857   2.271   7.380  11.121  0.4559  0.7441 -0.1251
  385MOL0     C51858   2.289   7.410  11.253 -0.4705  0.6899  1.3133
  385MOL0     C51859   2.237   7.531  11.264 -1.5742  0.1278 -1.5041
  385MOL0     C51860   2.243   7.609  11.392  0.2353 -0.8717  0.3616
  385MOL0     C51861   2.308   7.749  11.375  0.3051 -0.3916 -0.2625
  385MOL0     C51862   2.230   7.864  11.317 -0.0546 -0.4631 -0.5005
  385MOL0     C51863   2.310   7.998  11.330 -0.4994 -0.0224 -0.0096
  385MOL0     O51864   2.230   8.119  11.352 -0.4421  0.0591 -0.1872
  385MOL0     C51865   2.157   8.175  11.252  1.0906  0.5519 -0.3255
  385MOL0     C51866   2.068   8.276  11.279  0.5261 -0.5404 -0.2401
  385MOL0     C51867   1.976   8.329  11.186 -0.0962  0.8826 -0.0349
  385MOL0     C51868   1.880   8.438  11.242  0.5937  0.3297 -0.1760
  385MOL0     C51869   1.963   8.265  11.058  0.1777  0.0170 -1.2054
  385MOL0     C51870   1.866   8.301  10.955  0.0367  0.8943  1.6233
  385MOL0     O51871   1.819   8.430  10.954  0.2240  0.1322  0.0872
  385MOL0     C51872   1.701   8.467  10.893 -0.2211  0.6689 -0.1332
  385MOL0     C51873   1.682   8.605  10.876  0.7090 -0.1783 -0.6047
  385MOL0     C51874   1.559   8.660  10.824  0.6775  0.2865  0.3334
  385MOL0     C51875   1.460   8.568  10.784  0.9733 -0.7815 -0.2846
  385MOL0     O51876   1.344   8.619  10.734  0.4442 -0.5226  0.2595
  385MOL0     C51877   1.217   8.552  10.730  0.1211  0.3464  0.6777
  385MOL0     C51878   1.157   8.525  10.874 -0.2438 -0.3124  0.2622
  385MOL0     C51879   1.102   8.652  10.930 -0.6578 -0.0613 -0.3712
  385MOL0     C51880   0.976   8.691  10.842  0.1834 -0.4025  0.5517
  385MOL0     C51881   0.894   8.801  10.921 -0.2589 -0.0420  0.1226
  385MOL0     C51882   0.820   8.744  11.034  1.4313 -0.7121 -0.2723
  385MOL0     C51883   0.748   8.856  11.117 -0.7510  0.1008 -0.7651
  385MOL0     C51884   0.629   8.814  11.201 -0.2007  0.5176  0.0973
  385MOL0    Cl51885   0.692   8.682  11.313 -0.1703  0.0315 -0.2336
  385MOL0     C51886   1.481   8.427  10.794 -0.5151  0.3979 -0.3876
  385MOL0     C51887   1.605   8.377  10.845  0.1474  0.5768  0.7601
  385MOL0     O51888   1.836   8.209  10.874  0.6617 -0.3653 -0.4720
  385MOL0     C51889   2.061   8.172  11.025  0.3544 -0.0809 -0.0764
  385MOL0     C51890   2.148   8.119  11.123 -0.2441 -0.1465  0.9095
  385MOL0     N51891   2.182   7.562  11.140  0.0117  0.3005  0.1880
  385MOL0     N51892   2.199   7.475  11.055  0.5426 -0.6337 -0.7002
  385MOL0     C51893   3.061   7.424  10.534  0.1645  0.0150 -0.2136
  385MOL0     C51894   3.198   7.435  10.551 -0.2540  0.1898 -0.3207
  385MOL0     C51895   3.635   7.293  10.597  0.1569  1.0003 -0.1445
  385MOL0     C51896   3.727   7.344  10.688 -1.0950 -0.2402 -0.3273
  385MOL0     C51897   3.853   7.290  10.683 -0.0155 -0.7834  0.3590
  385MOL0     C51898   3.892   7.186  10.593 -0.4843 -0.7513 -0.3023
  385MOL0     O51899   4.013   7.127  10.603  0.0977 -0.2062 -0.9287
  385MOL0     C51900   4.108   7.191  10.690  0.3990 -0.8994 -0.2022
  385MOL0     C51901   4.235   7.110  10.711  0.3921 -0.4018  0.1540
  385MOL0     C51902   4.325   7.104  10.590  0.2907 -0.2142 -0.5322
  385MOL0     C51903   4.442   6.999  10.595 -0.0781  0.3674 -0.8704
  385MOL0     C51904   4.544   7.014  10.486  0.3994 -0.0440 -0.5652
  385MOL0     C51905   4.624   7.009  10.400  0.3573 -0.9174  0.5193
  385MOL0     C51906   3.799   7.132  10.516  0.7338  0.4606 -0.5008
  385MOL0     C51907   3.674   7.185  10.514 -1.1514  0.8432 -0.6722
  385MOL0     H51908   3.291   7.174  10.352  2.1074  1.7163 -0.1607
  385MOL0     H51909   3.029   7.172  10.322 -3.6179  0.5444  3.7970
  385MOL0     H51910   2.816   7.357  10.639 -1.9463 -0.3940  0.5872
  385MOL0     H51911   2.806   7.500  10.528  1.6632 -0.1617 -1.7090
  385MOL0     H51912   2.601   7.379  10.421 -1.2322  1.1252  1.1824
  385MOL0     H51913   2.619   7.263  10.540 -1.4045  0.2383  0.2143
  385MOL0     H51914   2.565   7.556  10.622  2.8592  0.4089 -0.0966
  385MOL0     H51915   2.444   7.425  10.607  0.3124 -0.1861 -2.4522
  385MOL0     H51916   2.582   7.281  10.752  2.3915  0.0135  0.2634
  385MOL0     H51917   2.690   7.415  10.800  0.0295  1.8826  0.7925
  385MOL0     H51918   2.495   7.554  10.869 -0.1091  0.4278  3.1720
  385MOL0     H51919   2.397   7.412  10.850  1.2461  0.0102  0.2734
  385MOL0     H51920   2.644   7.396  11.033  0.2100 -2.3244 -1.6644
  385MOL0     H51921   2.508   7.476  11.091  0.8564  3.1197 -2.9810
  385MOL0     H51922   2.532   7.187  11.008 -0.8332  0.7124 -2.1030
  385MOL0     H51923   2.512   7.257  11.170 -2.9720 -2.1687  0.4810
  385MOL0     H51924   2.291   7.170  11.113  2.4171 -0.3902  0.9559
  385MOL0     H51925   2.295   7.250  10.964  0.7449  0.4242 -0.0332
  385MOL0     H51926   2.340   7.354  11.331 -0.2581 -2.3581 -0.8706
  385MOL0     H51927   2.140   7.632  11.418  0.0908  1.2316 -1.7441
  385MOL0     H51928   2.286   7.541  11.466  0.9968  0.1597  0.9008
  385MOL0     H51929   2.404   7.744  11.324  2.4119  1.9820  3.0695
  385MOL0     H51930   2.348   7.780  11.472  2.1212  1.2506 -1.4699
  385MOL0     H51931   2.142   7.885  11.379 -0.4887 -1.4833 -0.7601
  385MOL0     H51932   2.212   7.849  11.210  0.7314  0.8715 -0.8464
  385MOL0     H51933   2.371   8.019  11.242 -0.5889 -3.9521 -1.1802
  385MOL0     H51934   2.377   8.000  11.416 -2.0060 -1.9546  1.3098
  385MOL0     H51935   2.072   8.307  11.383  3.7431  1.4565 -0.8233
  385MOL0     H51936   1.779   8.396  11.240  0.7969 -0.1425 -1.1343
  385MOL0     H51937   1.911   8.469  11.342 -0.8184  1.0384  0.0610
  385MOL0     H51938   1.894   8.534  11.190  1.8123  0.9343  1.2037
  385MOL0     H51939   1.753   8.676  10.919 -0.7072  1.2840 -0.5900
  385MOL0     H51940   1.539   8.767  10.818 -0.4166  0.0421 -0.6951
  385MOL0     H51941   1.159   8.611  10.658  2.0799 -0.5324 -1.7749
  385MOL0     H51942   1.234   8.458  10.676  2.5655  1.4073 -0.6105
  385MOL0     H51943   1.081   8.447  10.871 -1.1604  0.5318  1.0698
  385MOL0     H51944   1.234   8.486  10.941 -1.1287 -0.7954  1.0194
  385MOL0     H51945   1.170   8.736  10.915 -0.9931  0.4190  0.6776
  385MOL0     H51946   1.090   8.635  11.037  3.3532 -0.9526  0.0962
  385MOL0     H51947   1.012   8.744  10.753 -4.9904 -0.2898 -1.8361
  385MOL0     H51948   0.914   8.605  10.815 -1.4435  0.7215  0.5845
  385MOL0     H51949   0.830   8.858  10.853  1.0762 -1.7764 -2.7446
  385MOL0     H51950   0.964   8.873  10.964 -2.1368  2.2413 -0.4148
  385MOL0     H51951   0.748   8.671  10.997 -0.2039  0.9750 -0.5720
  385MOL0     H51952   0.881   8.682  11.100  2.3418  0.1203 -0.3016
  385MOL0     H51953   0.706   8.934  11.054 -0.9734  1.4060  0.9182
  385MOL0     H51954   0.829   8.887  11.184  1.7527 -2.9123 -2.1275
  385MOL0     H51955   0.551   8.766  11.141  1.5621  0.9214 -2.6879
  385MOL0     H51956   0.574   8.901  11.238 -0.1861 -0.2124  1.9349
  385MOL0     H51957   1.403   8.357  10.764 -2.9955  2.2953  1.2065
  385MOL0     H51958   1.618   8.271  10.860 -1.0362  0.5144  1.4791
  385MOL0     H51959   2.066   8.137  10.922 -2.9362 -1.8568  0.2294
  385MOL0     H51960   2.222   8.048  11.087  0.6815  1.3321 -0.2410
  385MOL0     H51961   3.002   7.502  10.581  3.3251  2.5028 -0.0567
  385MOL0     H51962   3.247   7.502  10.621 -1.4565  1.7051 -0.8613
  385MOL0     H51963   3.693   7.424  10.753 -0.3335 -1.7266  2.0322
  385MOL0     H51964   3.914   7.327  10.765 -1.5797 -0.2899  1.3343
  385MOL0     H51965   4.147   7.286  10.652 -0.1763 -0.6474 -0.1727
  385MOL0     H51966   4.078   7.207  10.795 -2.0286 -1.6705 -0.7193
  385MOL0     H51967   4.197   7.010  10.733  0.0436 -0.4161 -0.4777
  385MOL0     H51968   4.290   7.146  10.799 -0.5320  0.7200  0.3100
  385MOL0     H51969   4.370   7.203  10.580  0.5189 -0.4199 -1.7370
  385MOL0     H51970   4.266   7.083  10.500 -0.2235  1.6894 -0.6756
  385MOL0     H51971   4.410   6.895  10.593  0.7113  0.1199 -1.1430
  385MOL0     H51972   4.486   7.014  10.695 -0.9552  1.8627 -0.6759
  385MOL0     H51973   4.706   7.007  10.332 -1.0113  1.3388 -1.3331
  385MOL0     H51974   3.835   7.047  10.459  1.8589  0.4031  0.2688
  385MOL0     H51975   3.603   7.131  10.453  2.2258 -4.0078 -0.8619
  386MOL0     O51976  10.921   2.611   0.543  0.7355  0.5754 -0.1991
  386MOL0     C51977  10.922   2.482   0.556  0.0280 -0.1345  0.1655
  386MOL0     O51978  10.813   2.411   0.568  1.2418  0.0143  1.0255
  386MOL0     C51979  10.683   2.467   0.543 -0.0731  1.0628 -0.2425
  386MOL0     C51980  10.646   2.591   0.492  0.5029 -0.4571 -0.2302
  386MOL0     C51981  10.508   2.624   0.478  0.2747  0.1918  0.0169
  386MOL0     C51982  10.404   2.530   0.507  0.0871  0.4188 -0.2295
  386MOL0     O51983  10.267   2.545   0.494 -0.0882 -0.9054 -0.5429
  386MOL0     C51984  10.220   2.649   0.407  0.9743  0.0580 -0.1571
  386MOL0     C51985  10.066   2.640   0.397  0.3428 -0.2774 -0.4127
  386MOL0     C51986  10.025   2.748   0.295 -0.5282  0.3596  1.0084
  386MOL0     C51987   9.884   2.757   0.253  1.3923 -0.8346  0.0023
  386MOL0     C51988   9.841   2.905   0.221 -0.9813 -0.5614 -0.1801
  386MOL0     C51989   9.927   2.985   0.120  0.3983 -0.3750  0.2052
  386MOL0     C51990   9.937   2.928  -0.021  0.7994 -0.1820  0.0969
  386MOL0     C51991  10.009   3.024  -0.119 -0.4920  0.8183  0.0926
  386MOL0     N51992  10.129   3.082  -0.050  0.3740 -0.7599 -0.2166
  386MOL0     C51993  10.237   3.012  -0.005  0.1912 -0.8356  0.0414
  386MOL0     C51994  10.302   3.092   0.085  0.2072  0.4559 -0.1502
  386MOL0     C51995  10.413   3.053   0.172 -0.5877  0.4987  0.2480
  386MOL0     C51996  10.357   2.993   0.302 -0.3854 -0.1136 -0.6836
  386MOL0     C51997  10.295   3.108   0.389 -0.0569 -0.0341 -0.1595
  386MOL0     C51998  10.261   3.063   0.535  0.1684 -0.3654 -0.9755
  386MOL0     O51999  10.343   2.960   0.591 -0.9907  0.1550 -0.0752
  386MOL0     C52000  10.473   2.979   0.639 -0.0967 -0.7603  0.5381
  386MOL0     C52001  10.544   3.103   0.633  0.3440 -0.2508 -0.3092
  386MOL0     C52002  10.680   3.109   0.676  0.4210 -0.4329  0.4789
  386MOL0     C52003  10.741   3.251   0.703 -1.1248  0.2043  0.5135
  386MOL0     C52004  10.740   2.992   0.731  0.1358 -1.1395  0.6958
  386MOL0     C52005  10.877   2.992   0.771  0.2362 -0.3674 -0.7611
  386MOL0     O52006  10.894   2.902   0.874 -0.5024  0.7933 -0.1232
  386MOL0     C52007  11.017   2.898   0.924  0.1978  0.1370  0.7176
  386MOL0     C52008  11.027   2.934   1.056 -0.1459  0.9307  0.0291
  386MOL0     C52009  11.153   2.914   1.123  0.8866  0.2793  0.0801
  386MOL0     C52010  11.249   2.832   1.056 -0.0878  0.1646  0.0616
  386MOL0     O52011  11.369   2.792   1.108  0.5881  0.6509 -1.1524
  386MOL0     C52012  11.421   2.857   1.221 -0.2410  0.5371  0.4531
  386MOL0     C52013  11.552   2.799   1.265  0.7440 -0.0798  0.8085
  386MOL0     C52014  11.653   2.811   1.153  0.1805  0.5565 -0.1222
  386MOL0     C52015  11.793   2.830   1.226 -0.2542  0.9850  1.1049
  386MOL0     C52016  11.895   2.883   1.117 -0.0385  0.3358  0.1383
  386MOL0     C52017  12.001   2.775   1.098  0.0144  0.2191  0.7717
  386MOL0     C52018  12.081   2.817   0.970  0.0668 -0.2555 -0.6238
  386MOL0     C52019  12.023   2.744   0.851  0.1679  0.2851 -0.3718
  386MOL0    Cl52020  12.140   2.744   0.715 -0.3656  0.3245 -0.0547
  386MOL0     C52021  11.229   2.778   0.928 -0.5223 -0.1211 -0.1292
  386MOL0     C52022  11.116   2.810   0.861  0.2156 -0.1262  0.2578
  386MOL0     O52023  10.964   3.069   0.724  0.1559  0.7479  0.3314
  386MOL0     C52024  10.671   2.873   0.727 -0.6389 -1.1649 -0.6123
  386MOL0     C52025  10.543   2.870   0.683  0.7132  0.4407  0.2986
  386MOL0     N52026  10.235   3.211   0.091 -0.2010  0.2561  0.2334
  386MOL0     N52027  10.138   3.207   0.013 -0.5635  0.4556  0.3431
  386MOL0     C52028  10.441   2.409   0.560  0.3695  0.5655 -1.3490
  386MOL0     C52029  10.573   2.380   0.585 -0.9047 -0.7637  0.0049
  386MOL0     C52030  11.053   2.418   0.588 -0.1153 -1.1007 -0.4345
  386MOL0     C52031  11.067   2.293   0.645 -0.2841 -0.6938  0.8501
  386MOL0     C52032  11.193   2.231   0.655  0.0565  0.3717 -0.8369
  386MOL0     C52033  11.314   2.285   0.613  0.7685 -0.5598  0.1366
  386MOL0     O52034  11.435   2.221   0.637 -0.4534 -0.1969 -0.0066
  386MOL0     C52035  11.555   2.278   0.590 -0.0543 -0.0553  0.2761
  386MOL0     C52036  11.677   2.194   0.610 -0.6910  0.3915  0.0627
  386MOL0     C52037  11.688   2.155   0.759  0.2546  0.0226  0.3062
  386MOL0     C52038  11.796   2.062   0.789 -0.0987  0.1899 -0.1199
  386MOL0     C52039  11.771   2.000   0.926 -0.8875 -0.3887 -0.9548
  386MOL0     C52040  11.758   1.944   1.037  0.5021 -0.2149  0.7460
  386MOL0     C52041  11.303   2.416   0.563 -0.6761 -0.3128 -0.1612
  386MOL0     C52042  11.182   2.474   0.554  0.4612 -0.1306  0.3015
  386MOL0     H52043  10.717   2.666   0.460 -0.8875  0.3799 -1.5284
  386MOL0     H52044  10.466   2.717   0.443 -0.2312 -1.0263 -2.8432
  386MOL0     H52045  10.258   2.744   0.446 -1.7082  1.0395  0.3181
  386MOL0     H52046  10.270   2.643   0.311  0.8309 -0.0292 -0.2265
  386MOL0     H52047  10.038   2.542   0.357  3.2705 -0.6615 -1.7920
  386MOL0     H52048  10.017   2.655   0.494  1.8075  2.1893  0.0250
  386MOL0     H52049  10.062   2.840   0.340  0.8003  1.7356 -2.5589
  386MOL0     H52050  10.083   2.729   0.204  0.7376 -2.3137  2.2503
  386MOL0     H52051   9.862   2.700   0.163 -1.0774  3.5508 -2.5051
  386MOL0     H52052   9.814   2.729   0.332 -0.4897  2.9798 -0.0984
  386MOL0     H52053   9.738   2.908   0.185 -0.5957 -0.0444 -1.2796
  386MOL0     H52054   9.841   2.958   0.317  0.9744 -2.5794  1.0329
  386MOL0     H52055   9.873   3.080   0.118 -0.4491 -0.8687 -1.0807
  386MOL0     H52056  10.028   3.001   0.158  1.5839  0.6103 -3.0586
  386MOL0     H52057   9.984   2.831  -0.002 -1.3789 -1.5389 -0.9978
  386MOL0     H52058   9.836   2.895  -0.048  1.6670 -1.7361 -1.4357
  386MOL0     H52059   9.940   3.101  -0.153 -1.3660 -1.4687 -4.0121
  386MOL0     H52060  10.037   2.968  -0.209 -0.8704 -2.0607  1.6457
  386MOL0     H52061  10.265   2.911  -0.031  2.1126 -1.2514  3.1209
  386MOL0     H52062  10.485   2.986   0.124  0.8207  2.9381 -1.3000
  386MOL0     H52063  10.471   3.144   0.189 -0.0051 -0.1437  1.8315
  386MOL0     H52064  10.435   2.947   0.363 -1.5880 -1.7516 -0.3152
  386MOL0     H52065  10.275   2.924   0.282 -1.7305  1.1638  0.1953
  386MOL0     H52066  10.213   3.144   0.327 -0.6150 -3.9129 -1.9317
  386MOL0     H52067  10.365   3.193   0.396 -1.4814  1.1803 -0.1548
  386MOL0     H52068  10.159   3.026   0.542 -0.0343  0.5083  2.7561
  386MOL0     H52069  10.263   3.139   0.613  0.3531 -0.8892 -0.4606
  386MOL0     H52070  10.504   3.193   0.588  0.0669 -0.3466 -0.2568
  386MOL0     H52071  10.773   3.263   0.807 -2.0573  2.1117  0.6312
  386MOL0     H52072  10.826   3.253   0.634 -0.7150 -4.4747  0.6336
  386MOL0     H52073  10.665   3.328   0.685 -0.9857  0.0855 -0.6668
  386MOL0     H52074  10.937   2.978   1.099 -0.7514 -0.6017  0.3949
  386MOL0     H52075  11.167   2.964   1.218  1.3281  1.7646 -0.7271
  386MOL0     H52076  11.444   2.959   1.188  1.2281 -0.0181 -0.3432
  386MOL0     H52077  11.344   2.847   1.298 -1.5986  0.7884 -0.8371
  386MOL0     H52078  11.588   2.846   1.356 -2.7095  2.4049  1.0929
  386MOL0     H52079  11.534   2.693   1.286 -0.1593  0.1429  1.1928
  386MOL0     H52080  11.638   2.892   1.081  1.8554  0.4802 -0.5847
  386MOL0     H52081  11.648   2.709   1.113 -0.2265  0.0137  1.2469
  386MOL0     H52082  11.783   2.905   1.304  2.1015 -1.5684  4.1354
  386MOL0     H52083  11.820   2.734   1.272  1.4411  1.2263  0.7013
  386MOL0     H52084  11.944   2.967   1.167 -2.7607  1.2317  1.5132
  386MOL0     H52085  11.839   2.909   1.027 -2.7813 -2.4164  0.8732
  386MOL0     H52086  12.066   2.777   1.186 -0.4111 -1.0002  1.1280
  386MOL0     H52087  11.961   2.673   1.094 -1.3885  0.6761  2.2027
  386MOL0     H52088  12.186   2.789   0.988 -0.3093 -0.3421  1.7365
  386MOL0     H52089  12.076   2.925   0.957 -1.3607 -0.5470 -2.9828
  386MOL0     H52090  11.926   2.779   0.815  2.4904  2.4151 -5.7132
  386MOL0     H52091  12.020   2.636   0.865  4.5543 -0.0445 -0.4309
  386MOL0     H52092  11.291   2.702   0.882  0.0766  0.4491 -0.2738
  386MOL0     H52093  11.076   2.773   0.767 -1.4211  1.8563  0.1034
  386MOL0     H52094  10.720   2.779   0.754 -0.1237 -0.5903  0.5116
  386MOL0     H52095  10.498   2.771   0.686 -0.3076  0.7191 -2.7429
  386MOL0     H52096  10.361   2.343   0.592  1.3312  0.3396  0.7751
  386MOL0     H52097  10.598   2.282   0.625  0.8222 -1.0577 -1.6519
  386MOL0     H52098  10.983   2.237   0.685  1.4287 -1.1425  4.1904
  386MOL0     H52099  11.208   2.133   0.700  0.2493  1.0107  0.5495
  386MOL0     H52100  11.538   2.300   0.484  0.0720  1.5332  0.5640
  386MOL0     H52101  11.577   2.375   0.636 -0.9097  0.0316  0.5162
  386MOL0     H52102  11.765   2.252   0.579 -0.4511  0.5336  0.9953
  386MOL0     H52103  11.665   2.101   0.555 -0.5178  0.1884  0.3661
  386MOL0     H52104  11.588   2.120   0.788 -0.2781  0.5622 -0.8154
  386MOL0     H52105  11.722   2.243   0.814  1.1977 -0.2823  0.2293
  386MOL0     H52106  11.893   2.114   0.791  1.3855 -2.3948 -0.1310
  386MOL0     H52107  11.804   1.982   0.715 -0.3436 -0.7273  0.8258
  386MOL0     H52108  11.731   1.901   1.131 -2.3329  0.9111  0.5394
  386MOL0     H52109  11.377   2.484   0.524 -1.9704  0.0777 -2.0647
  386MOL0     H52110  11.175   2.573   0.510  3.0219 -1.4258 -3.4277
  387MOL0     O52111   0.240   1.369   9.694  0.0661 -0.2518 -0.8674
  387MOL0     C52112   0.152   1.384   9.776 -0.1368 -0.0136  0.3880
  387MOL0     O52113   0.166   1.384   9.914 -0.6096  0.0951  0.7607
  387MOL0     C52114   0.286   1.400   9.977 -0.0161 -0.2180  0.2981
  387MOL0     C52115   0.405   1.330   9.948 -0.1423  0.5881  0.8610
  387MOL0     C52116   0.517   1.339  10.034 -0.0957 -0.3562 -0.6295
  387MOL0     C52117   0.511   1.415  10.152  0.1997 -0.7080  0.3074
  387MOL0     O52118   0.605   1.431  10.247  0.9268  0.6449  0.7770
  387MOL0     C52119   0.659   1.312  10.305 -0.5743 -0.3550  0.8726
  387MOL0     C52120   0.804   1.284  10.261 -0.0011  0.3653 -0.7370
  387MOL0     C52121   0.905   1.413  10.271  0.9897 -0.4128 -0.3486
  387MOL0     C52122   0.960   1.462  10.136  0.1485 -0.6511 -0.1554
  387MOL0     C52123   1.058   1.578  10.161  0.2909 -0.2016  0.6195
  387MOL0     C52124   1.146   1.600  10.037 -0.1909 -0.6607  0.0936
  387MOL0     C52125   1.238   1.718  10.067 -0.8802 -0.1859 -0.4880
  387MOL0     C52126   1.306   1.778   9.940  0.3760 -0.2132 -0.8160
  387MOL0     N52127   1.238   1.780   9.813 -0.4752 -0.0772 -0.7676
  387MOL0     C52128   1.134   1.863   9.784 -0.1488 -0.4876 -0.4372
  387MOL0     C52129   1.082   1.818   9.667  0.4408 -0.3519  0.2493
  387MOL0     C52130   0.993   1.884   9.570 -0.6742  0.0650  0.6612
  387MOL0     C52131   0.889   1.797   9.505 -0.2808 -0.1006  0.1595
  387MOL0     C52132   0.770   1.889   9.447  0.7716  0.0818  0.3331
  387MOL0     C52133   0.678   1.791   9.376  0.8300  0.0027  0.7971
  387MOL0     O52134   0.558   1.862   9.334 -0.0844 -0.1904  0.2715
  387MOL0     C52135   0.440   1.794   9.301 -0.3852  0.0380  0.2662
  387MOL0     C52136   0.354   1.856   9.209 -0.6889 -0.0729  0.6300
  387MOL0     C52137   0.231   1.796   9.158 -0.6547  0.2043  0.7065
  387MOL0     C52138   0.128   1.877   9.082 -0.1838  0.7993 -0.5212
  387MOL0     C52139   0.199   1.664   9.203 -0.4424 -0.4944  0.2366
  387MOL0     C52140   0.067   1.611   9.181 -0.2456 -1.1539  0.0963
  387MOL0     O52141   0.015   1.613   9.051 -1.0666  0.4150  0.4040
  387MOL0     C52142  -0.106   1.572   9.006  0.2427  0.7922 -0.2726
  387MOL0     C52143  -0.190   1.486   9.070 -0.8062 -0.6628 -0.3563
  387MOL0     C52144  -0.309   1.434   9.020 -0.4117 -1.3082 -0.7421
  387MOL0     C52145  -0.352   1.473   8.896  0.8987  0.2868  0.7243
  387MOL0     O52146  -0.473   1.449   8.841  0.6867 -0.5070 -0.4505
  387MOL0     C52147  -0.564   1.377   8.916  0.5133  0.4344 -0.1851
  387MOL0     C52148  -0.706   1.391   8.886 -0.3273 -0.7339 -0.3294
  387MOL0     C52149  -0.742   1.332   8.750  0.0337  0.4952  0.6826
  387MOL0     C52150  -0.897   1.340   8.712 -0.4758 -0.6697 -0.1007
  387MOL0     C52151  -0.936   1.267   8.587 -0.4888  0.1275 -0.6575
  387MOL0     C52152  -0.901   1.351   8.464 -0.2174 -0.4755 -0.7215
  387MOL0     C52153  -0.889   1.270   8.331 -0.2524  1.1044 -1.0435
  387MOL0     C52154  -0.749   1.210   8.318  0.6150 -0.2005 -0.5662
  387MOL0    Cl52155  -0.637   1.329   8.251 -0.0830 -0.5661  0.2606
  387MOL0     C52156  -0.271   1.567   8.831 -0.2214 -0.4358  0.1210
  387MOL0     C52157  -0.156   1.618   8.884 -0.3106 -0.4996  0.3299
  387MOL0     O52158   0.007   1.572   9.278  0.2046 -0.0646 -0.2300
  387MOL0     C52159   0.282   1.610   9.303  0.4406 -0.2456 -0.9044
  387MOL0     C52160   0.403   1.669   9.343 -0.8179 -0.1363  0.3055
  387MOL0     N52161   1.142   1.697   9.635 -0.3870 -0.4277  0.2230
  387MOL0     N52162   1.241   1.677   9.722  0.2412  0.1318  0.6305
  387MOL0     C52163   0.397   1.497  10.174  0.0407 -0.8142 -0.1076
  387MOL0     C52164   0.286   1.484  10.084 -0.4937  0.1908 -0.2807
  387MOL0     C52165   0.015   1.371   9.726  0.5225 -0.4758 -0.3390
  387MOL0     C52166  -0.013   1.393   9.589  0.1179 -0.2644 -0.2279
  387MOL0     C52167  -0.147   1.406   9.547 -0.5694  0.6400  0.0057
  387MOL0     C52168  -0.253   1.380   9.637  0.0508 -0.2986  0.6295
  387MOL0     O52169  -0.388   1.383   9.591  0.3082  0.4512 -0.3254
  387MOL0     C52170  -0.421   1.393   9.452  0.6527  0.0670  0.0298
  387MOL0     C52171  -0.573   1.398   9.440 -0.8829 -0.4303 -0.0604
  387MOL0     C52172  -0.643   1.296   9.521 -0.0109 -0.3313  0.5153
  387MOL0     C52173  -0.780   1.275   9.455 -0.5068 -0.1324  0.3416
  387MOL0     C52174  -0.853   1.164   9.512  0.1259 -0.4550 -0.0371
  387MOL0     C52175  -0.922   1.085   9.565  1.1714 -0.3072  0.2426
  387MOL0     C52176  -0.224   1.360   9.769  0.0199  0.5224  0.0013
  387MOL0     C52177  -0.096   1.363   9.821 -0.1846 -0.4870 -0.1387
  387MOL0     H52178   0.417   1.268   9.860  3.2645  1.9372  0.2475
  387MOL0     H52179   0.607   1.284  10.008  0.4390 -1.7538  3.4638
  387MOL0     H52180   0.654   1.322  10.414  0.7787 -4.1121  1.4322
  387MOL0     H52181   0.598   1.223  10.290  0.1787 -0.8484  0.7265
  387MOL0     H52182   0.850   1.208  10.324  0.5643  1.7008  0.5239
  387MOL0     H52183   0.796   1.242  10.160 -2.7259 -1.4548  0.1181
  387MOL0     H52184   0.861   1.503  10.315  1.1738  0.4209 -1.8014
  387MOL0     H52185   0.986   1.377  10.335 -1.1834 -2.9809  1.2338
  387MOL0     H52186   1.019   1.387  10.081  0.3701 -0.0503 -0.7472
  387MOL0     H52187   0.875   1.479  10.070 -1.6072 -1.4301  1.7669
  387MOL0     H52188   0.998   1.667  10.182 -1.3002 -0.4557 -2.4104
  387MOL0     H52189   1.124   1.550  10.244  1.5524 -0.1408 -0.3518
  387MOL0     H52190   1.207   1.511  10.019  0.5939 -0.2498  0.6510
  387MOL0     H52191   1.084   1.622   9.950  0.3585  3.3329  0.5417
  387MOL0     H52192   1.172   1.799  10.103  0.1035  1.0351 -1.3477
  387MOL0     H52193   1.304   1.689  10.149 -2.7911 -0.5579  0.9959
  387MOL0     H52194   1.391   1.709   9.933  0.1409 -1.0410  2.5201
  387MOL0     H52195   1.326   1.881   9.969 -1.5831 -0.4806  1.8514
  387MOL0     H52196   1.114   1.958   9.834 -0.5611  0.2465 -1.9185
  387MOL0     H52197   0.953   1.970   9.624  0.5639  0.3735  1.1155
  387MOL0     H52198   1.057   1.916   9.486 -0.6842  0.2946  0.7406
  387MOL0     H52199   0.846   1.724   9.575  0.8531  0.2835  1.3148
  387MOL0     H52200   0.944   1.743   9.427  1.5633  0.2596  1.1313
  387MOL0     H52201   0.806   1.968   9.381 -1.0235  1.5964  1.0877
  387MOL0     H52202   0.709   1.925   9.530 -2.1453 -2.0691 -0.7175
  387MOL0     H52203   0.656   1.708   9.444 -0.3054  0.6380  1.2309
  387MOL0     H52204   0.736   1.747   9.294 -0.3117  0.6173 -0.3871
  387MOL0     H52205   0.384   1.955   9.176  1.6463 -0.3819  1.6320
  387MOL0     H52206   0.175   1.975   9.062  0.7009  0.3347 -0.7864
  387MOL0     H52207   0.105   1.817   8.993  0.9180 -1.6831  0.7686
  387MOL0     H52208   0.034   1.882   9.137  0.4426  0.1696  0.6188
  387MOL0     H52209  -0.172   1.464   9.175  0.7140  1.3996 -0.1182
  387MOL0     H52210  -0.371   1.366   9.079 -0.8263  0.5961  1.1202
  387MOL0     H52211  -0.548   1.272   8.888  0.9385  0.9216 -1.9064
  387MOL0     H52212  -0.553   1.404   9.021  2.1858 -2.1180  0.3812
  387MOL0     H52213  -0.761   1.348   8.970  0.6333 -0.9910  0.1897
  387MOL0     H52214  -0.734   1.497   8.890 -1.0259 -0.9410  3.5449
  387MOL0     H52215  -0.707   1.229   8.752 -1.0962  0.1046  1.2743
  387MOL0     H52216  -0.690   1.375   8.663 -1.0587 -0.9099 -0.7298
  387MOL0     H52217  -0.961   1.309   8.795 -0.3247  0.0429  0.2925
  387MOL0     H52218  -0.919   1.446   8.698  0.7929 -0.2259  0.9447
  387MOL0     H52219  -1.045   1.259   8.593 -0.3341 -1.2580  1.6076
  387MOL0     H52220  -0.900   1.165   8.575 -3.0198 -0.9780  0.4410
  387MOL0     H52221  -0.975   1.431   8.456  0.2940 -0.1755 -3.1271
  387MOL0     H52222  -0.809   1.409   8.479 -0.1834 -0.9584  1.1534
  387MOL0     H52223  -0.907   1.333   8.244 -1.1108 -1.5707 -2.9321
  387MOL0     H52224  -0.970   1.196   8.338  2.2325 -1.6533  1.8167
  387MOL0     H52225  -0.751   1.123   8.252 -0.4987 -0.2709 -0.4602
  387MOL0     H52226  -0.714   1.177   8.417 -3.7690 -0.1105  1.2322
  387MOL0     H52227  -0.314   1.606   8.739 -0.5552 -0.0149  0.4539
  387MOL0     H52228  -0.104   1.694   8.827  2.3027 -1.3895  1.3794
  387MOL0     H52229   0.262   1.509   9.337 -0.1267  0.8125  2.1958
  387MOL0     H52230   0.462   1.626   9.424 -1.0218 -0.6567  0.1765
  387MOL0     H52231   0.398   1.565  10.259  2.2726  0.3092 -0.9594
  387MOL0     H52232   0.200   1.548  10.100  0.2842  2.1280 -3.1248
  387MOL0     H52233   0.075   1.399   9.525  0.3361 -0.9058  0.0029
  387MOL0     H52234  -0.163   1.416   9.441  0.9610  1.1877 -0.1962
  387MOL0     H52235  -0.380   1.481   9.400 -0.1783 -0.1044 -0.9465
  387MOL0     H52236  -0.396   1.305   9.392 -0.9874 -1.5758  1.6556
  387MOL0     H52237  -0.594   1.398   9.332 -0.7896 -0.1563 -0.0791
  387MOL0     H52238  -0.604   1.493   9.484 -0.8755  0.2392 -1.4275
  387MOL0     H52239  -0.661   1.343   9.618 -1.5432  0.9969 -0.3766
  387MOL0     H52240  -0.582   1.205   9.514  3.4160  1.8544 -0.8559
  387MOL0     H52241  -0.774   1.266   9.347 -3.2235  1.5201 -0.0394
  387MOL0     H52242  -0.841   1.366   9.450  1.0284  0.8528 -3.1973
  387MOL0     H52243  -0.988   1.021   9.620 -0.5507  2.0325  1.0981
  387MOL0     H52244  -0.308   1.334   9.832 -0.0628 -1.3949 -0.8219
  387MOL0     H52245  -0.083   1.349   9.928 -0.5546  0.9789  0.1175
  388MOL0     O52246  11.222   4.242   8.089 -0.7223 -0.0085  0.5294
  388MOL0     C52247  11.264   4.132   8.031 -0.8597 -0.2022 -0.1151
  388MOL0     O52248  11.314   4.020   8.092 -0.3070 -0.2224  0.6175
  388MOL0     C52249  11.315   4.033   8.230  0.6810 -0.2849  0.1122
  388MOL0     C52250  11.194   4.036   8.306  0.0223 -0.8373 -0.4697
  388MOL0     C52251  11.193   4.035   8.447 -0.4225 -0.5084 -0.2070
  388MOL0     C52252  11.316   4.017   8.512  0.9840 -0.1312  0.1412
  388MOL0     O52253  11.315   4.003   8.650  0.4747  0.5623 -0.1661
  388MOL0     C52254  11.432   4.020   8.730  0.4164  0.5170 -0.1985
  388MOL0     C52255  11.502   3.892   8.767  0.7268 -0.5110  0.1796
  388MOL0     C52256  11.447   3.822   8.892  0.5701  0.0411 -0.7685
  388MOL0     C52257  11.292   3.816   8.898 -0.3764  0.2738 -0.0859
  388MOL0     C52258  11.242   3.770   9.032 -1.5598  0.4526  0.4039
  388MOL0     C52259  11.096   3.737   9.020  0.1212 -0.5112 -0.3802
  388MOL0     C52260  11.038   3.735   9.163 -0.9649 -0.1012  0.5306
  388MOL0     C52261  10.895   3.680   9.150 -0.6616 -0.1896  0.3130
  388MOL0     N52262  10.830   3.693   9.278 -0.3225 -0.8387 -0.0822
  388MOL0     C52263  10.729   3.607   9.326  0.3881 -0.1943  0.6614
  388MOL0     C52264  10.686   3.678   9.437  0.4427  0.2433 -0.4151
  388MOL0     C52265  10.576   3.639   9.534 -0.3700  0.4236 -0.0340
  388MOL0     C52266  10.491   3.520   9.489  0.1108 -0.0017 -0.9905
  388MOL0     C52267  10.544   3.388   9.544 -0.0905 -0.4623  0.4472
  388MOL0     C52268  10.488   3.278   9.454 -0.5583  0.8636  0.1822
  388MOL0     O52269  10.348   3.243   9.471  0.9410 -0.0513  0.0033
  388MOL0     C52270  10.303   3.201   9.598  0.1919 -0.4747  0.6172
  388MOL0     C52271  10.382   3.144   9.695  0.3888  0.1095  0.3641
  388MOL0     C52272  10.327   3.116   9.819  0.9857  0.3563  0.4702
  388MOL0     C52273  10.417   3.063   9.923  0.5636  0.3609  0.0882
  388MOL0     C52274  10.191   3.136   9.841  0.8314 -0.1266  0.4005
  388MOL0     C52275  10.123   3.119   9.970  0.6567  0.7530  0.9144
  388MOL0     O52276  10.017   3.200   9.997 -0.7280  0.2757  0.1046
  388MOL0     C52277   9.911   3.158  10.065  0.2438  0.4734 -0.1857
  388MOL0     C52278   9.842   3.035  10.041 -0.2482  0.6803 -0.5815
  388MOL0     C52279   9.727   3.009  10.107 -0.0729  0.2241 -0.4736
  388MOL0     C52280   9.674   3.098  10.217  0.4516 -1.0523  1.1526
  388MOL0     O52281   9.573   3.040  10.297  0.6484 -0.2249 -0.5488
  388MOL0     C52282   9.499   3.122  10.388 -0.3142 -0.4363  0.0658
  388MOL0     C52283   9.372   3.059  10.421  0.1134 -0.0648 -0.2762
  388MOL0     C52284   9.307   2.995  10.293 -0.4768 -0.5730 -0.6782
  388MOL0     C52285   9.173   2.922  10.328 -0.4201  0.1217 -0.1005
  388MOL0     C52286   9.101   2.916  10.195  0.2106  0.4182 -0.4199
  388MOL0     C52287   8.982   2.811  10.205  0.1026  0.0068  0.2800
  388MOL0     C52288   8.921   2.811  10.063  0.3579  0.1114  0.5489
  388MOL0     C52289   8.836   2.692  10.058  0.1054  0.0433  0.2193
  388MOL0    Cl52290   8.774   2.668   9.897  0.4504 -0.3689  0.2255
  388MOL0     C52291   9.745   3.220  10.240  0.1106  1.2324  1.0590
  388MOL0     C52292   9.857   3.252  10.161 -0.6031  0.0939 -0.1766
  388MOL0     O52293  10.162   3.024  10.043  0.5572  0.9300  0.7346
  388MOL0     C52294  10.107   3.182   9.738  0.1568 -0.3151 -0.3894
  388MOL0     C52295  10.167   3.216   9.617 -0.1987 -0.3628  0.3412
  388MOL0     N52296  10.762   3.796   9.459  0.5879  0.5362 -0.2564
  388MOL0     N52297  10.832   3.807   9.357 -0.9408  0.0982  0.3909
  388MOL0     C52298  11.435   4.004   8.435  0.2494 -0.1908  1.2301
  388MOL0     C52299  11.434   3.998   8.295 -0.6859 -0.1507 -0.1212
  388MOL0     C52300  11.266   4.131   7.885  0.0171 -0.8583 -0.2211
  388MOL0     C52301  11.219   4.247   7.815  0.7900 -0.2685 -1.0171
  388MOL0     C52302  11.228   4.249   7.675  0.0269 -0.0692  0.2690
  388MOL0     C52303  11.279   4.142   7.606 -0.3711 -0.2780  0.5288
  388MOL0     O52304  11.279   4.137   7.467  0.3277 -0.1806  0.0600
  388MOL0     C52305  11.233   4.245   7.390  1.3301  0.2791  0.4875
  388MOL0     C52306  11.232   4.192   7.248  0.2185 -0.9287  0.2015
  388MOL0     C52307  11.110   4.098   7.214  0.3681  0.0399  0.2728
  388MOL0     C52308  11.129   4.039   7.072 -0.2849  0.5956 -0.5449
  388MOL0     C52309  11.013   3.943   7.047  0.0742 -0.5308 -0.7268
  388MOL0     C52310  10.918   3.869   7.026 -0.0244  0.6644  0.8961
  388MOL0     C52311  11.334   4.028   7.670 -0.4532  0.5511  0.2895
  388MOL0     C52312  11.335   4.032   7.813 -0.6724 -0.0701  0.4739
  388MOL0     H52313  11.105   4.038   8.244 -0.6070 -3.5379  0.2416
  388MOL0     H52314  11.098   4.041   8.498 -0.5905  1.4230 -0.6653
  388MOL0     H52315  11.511   4.084   8.688  1.3600 -1.4451 -1.5662
  388MOL0     H52316  11.402   4.071   8.822 -0.0625  2.0554 -1.1793
  388MOL0     H52317  11.486   3.820   8.686 -0.0758  0.5664 -0.6439
  388MOL0     H52318  11.610   3.911   8.770  0.4753  0.9470  2.5964
  388MOL0     H52319  11.490   3.722   8.899  0.3321 -0.0053  0.0753
  388MOL0     H52320  11.477   3.891   8.972  0.7145  2.9074 -3.1089
  388MOL0     H52321  11.255   3.917   8.881  1.5388  0.7623 -1.7487
  388MOL0     H52322  11.257   3.753   8.816  2.2355  1.0660 -1.9317
  388MOL0     H52323  11.293   3.674   9.046 -0.5989  0.4563 -2.5092
  388MOL0     H52324  11.257   3.844   9.111 -2.2047 -0.6864  1.6320
  388MOL0     H52325  11.044   3.810   8.957  1.2257  0.4460 -0.2200
  388MOL0     H52326  11.098   3.641   8.967  2.0036  0.1965 -1.7205
  388MOL0     H52327  11.100   3.661   9.216 -0.0543 -0.7362 -1.3253
  388MOL0     H52328  11.050   3.833   9.210 -0.0405  0.4122 -0.7136
  388MOL0     H52329  10.910   3.578   9.114 -2.0624  0.5969 -2.8987
  388MOL0     H52330  10.826   3.742   9.092 -4.6984 -2.1645  2.5501
  388MOL0     H52331  10.691   3.519   9.275  0.0999  0.3171 -0.0159
  388MOL0     H52332  10.621   3.614   9.631 -0.9238  2.2424  0.7355
  388MOL0     H52333  10.522   3.730   9.560 -1.4463  0.1490 -1.2431
  388MOL0     H52334  10.496   3.524   9.380 -0.2705 -1.7303 -1.0977
  388MOL0     H52335  10.388   3.545   9.513  0.8093  1.1993  1.0533
  388MOL0     H52336  10.521   3.371   9.649 -1.1838 -0.1080  0.2766
  388MOL0     H52337  10.651   3.405   9.527 -0.3417 -0.2969 -1.1497
  388MOL0     H52338  10.544   3.187   9.477 -1.6535 -0.3902 -1.7243
  388MOL0     H52339  10.498   3.317   9.352 -0.1381 -0.9804 -0.5405
  388MOL0     H52340  10.488   3.131   9.675  0.2338 -1.5410  0.4789
  388MOL0     H52341  10.519   3.040   9.890  0.4742 -1.7567  1.0686
  388MOL0     H52342  10.417   3.126  10.013  1.5824  0.6356 -0.0896
  388MOL0     H52343  10.386   2.967   9.967  1.4088 -0.6366 -1.4355
  388MOL0     H52344   9.883   2.981   9.957  0.1247  2.3723 -1.5384
  388MOL0     H52345   9.676   2.915  10.089 -1.1248  0.7300 -0.2184
  388MOL0     H52346   9.563   3.134  10.476 -0.7385 -1.8788  0.6033
  388MOL0     H52347   9.470   3.219  10.345 -1.5500 -1.3949 -1.3757
  388MOL0     H52348   9.382   2.978  10.494 -1.0307 -0.0869 -0.1157
  388MOL0     H52349   9.307   3.134  10.468 -1.4728 -0.6209 -1.4707
  388MOL0     H52350   9.373   2.911  10.268 -1.9412 -1.8780 -0.3413
  388MOL0     H52351   9.300   3.068  10.212  2.9820 -0.9092 -1.4411
  388MOL0     H52352   9.196   2.823  10.368 -1.1320 -0.1040 -0.2333
  388MOL0     H52353   9.109   2.975  10.399  1.8682  1.6036  0.9471
  388MOL0     H52354   9.175   2.879  10.123 -1.2218  0.7822 -2.1644
  388MOL0     H52355   9.067   3.016  10.167  0.8647  1.7089  2.9720
  388MOL0     H52356   9.033   2.722  10.241  0.7425 -0.0749 -0.7735
  388MOL0     H52357   8.909   2.846  10.278  0.2261  0.1193  0.3521
  388MOL0     H52358   9.001   2.812   9.988  0.8768 -0.5041  1.0761
  388MOL0     H52359   8.849   2.891  10.046 -1.3065 -1.1941  1.2036
  388MOL0     H52360   8.750   2.701  10.126 -0.7413 -1.2274 -0.6359
  388MOL0     H52361   8.894   2.607  10.093 -0.6556 -0.0416  1.3013
  388MOL0     H52362   9.704   3.283  10.319 -2.9846  0.3704  0.2845
  388MOL0     H52363   9.905   3.346  10.183  1.2592 -1.0871  1.1188
  388MOL0     H52364  10.005   3.212   9.761  0.8198  0.0969  2.3927
  388MOL0     H52365  10.122   3.269   9.534 -0.2365  0.5885  0.9546
  388MOL0     H52366  11.526   3.978   8.488  0.1314 -0.7102  1.1886
  388MOL0     H52367  11.524   3.982   8.236  1.3342 -1.1401  2.9687
  388MOL0     H52368  11.183   4.331   7.874  2.2092 -0.9201  0.8920
  388MOL0     H52369  11.201   4.343   7.627  1.1099 -0.1789 -0.5972
  388MOL0     H52370  11.132   4.278   7.414  1.4109  0.2554  0.8760
  388MOL0     H52371  11.289   4.334   7.421 -0.7492  0.4812  4.2901
  388MOL0     H52372  11.327   4.139   7.238  1.9947  1.4715  2.8538
  388MOL0     H52373  11.243   4.275   7.178  2.6585 -1.9318 -0.7110
  388MOL0     H52374  11.016   4.153   7.204 -2.2663 -4.3635 -4.1727
  388MOL0     H52375  11.093   4.021   7.290  0.9829 -0.4061 -0.0343
  388MOL0     H52376  11.226   3.989   7.070  0.3599  1.7364  0.6594
  388MOL0     H52377  11.141   4.116   6.996 -0.6665 -0.9367 -2.2416
  388MOL0     H52378  10.838   3.804   6.997 -1.4277  3.3478 -1.7524
  388MOL0     H52379  11.367   3.945   7.609 -0.2963  2.0072 -1.6811
  388MOL0     H52380  11.397   3.959   7.864  1.5842  2.2132  1.1788
  389MOL0     O52381   9.138   4.042   2.299 -0.4878 -0.2607  0.4169
  389MOL0     C52382   9.199   4.143   2.343  0.2765 -0.3590 -0.3957
  389MOL0     O52383   9.133   4.252   2.395 -0.3963 -0.8351  0.2970
  389MOL0     C52384   9.010   4.273   2.351 -0.2481  0.2988  0.2678
  389MOL0     C52385   8.995   4.354   2.242 -0.3268  0.6331 -0.5579
  389MOL0     C52386   8.870   4.385   2.189 -1.2066 -0.4943  0.0172
  389MOL0     C52387   8.754   4.353   2.258  0.1002 -0.1538 -0.2627
  389MOL0     O52388   8.640   4.403   2.213  0.4333  0.4045 -0.4424
  389MOL0     C52389   8.597   4.332   2.097 -0.1459 -0.6876 -0.3921
  389MOL0     C52390   8.444   4.321   2.101 -0.1725 -0.6155 -0.0360
  389MOL0     C52391   8.393   4.295   1.964  0.5525  0.2308  0.0783
  389MOL0     C52392   8.234   4.303   1.960 -0.4025 -0.1329  0.9544
  389MOL0     C52393   8.189   4.298   1.813 -0.4394 -0.4184  0.2306
  389MOL0     C52394   8.201   4.151   1.750 -0.8115 -0.2695 -0.4417
  389MOL0     C52395   8.108   4.052   1.820  0.0265 -0.2964  0.0136
  389MOL0     C52396   7.967   4.073   1.762 -0.3806 -0.0988 -0.3444
  389MOL0     N52397   7.900   3.944   1.771 -0.3113  1.3165  0.2084
  389MOL0     C52398   7.824   3.892   1.871  0.0341 -0.9642  1.4369
  389MOL0     C52399   7.798   3.764   1.835 -0.4538 -0.1550 -0.5111
  389MOL0     C52400   7.728   3.667   1.925 -0.4747  0.6459 -0.1625
  389MOL0     C52401   7.699   3.543   1.839 -0.0859 -0.0799 -0.0472
  389MOL0     C52402   7.622   3.431   1.914  0.4611 -0.1256 -0.0228
  389MOL0     C52403   7.701   3.377   2.029 -0.1862 -0.1460  0.3754
  389MOL0     O52404   7.670   3.461   2.134  0.3181  0.1229  0.0163
  389MOL0     C52405   7.692   3.407   2.258  0.8089 -0.2758  0.0498
  389MOL0     C52406   7.609   3.303   2.311 -0.6693  1.1610 -0.1263
  389MOL0     C52407   7.623   3.261   2.448 -0.4710  0.1489 -0.2371
  389MOL0     C52408   7.525   3.162   2.499  0.1916 -0.0621  0.1597
  389MOL0     C52409   7.731   3.315   2.522  0.4812 -0.1703 -0.1822
  389MOL0     C52410   7.756   3.285   2.663 -0.7577 -1.0443 -0.5657
  389MOL0     O52411   7.880   3.343   2.707  0.0244  0.7163 -0.1065
  389MOL0     C52412   7.914   3.328   2.837 -0.3235  0.6907  0.8726
  389MOL0     C52413   7.912   3.198   2.900  0.8214 -0.1787 -0.4852
  389MOL0     C52414   7.939   3.191   3.042 -0.4856 -0.2171 -0.7925
  389MOL0     C52415   7.983   3.299   3.114  0.3936  0.1147 -0.3746
  389MOL0     O52416   8.019   3.311   3.247  0.1712  0.0381  0.2135
  389MOL0     C52417   8.031   3.192   3.322  0.6110  0.1227  0.3808
  389MOL0     C52418   8.037   3.230   3.467  0.4228 -0.1664 -0.1670
  389MOL0     C52419   8.067   3.121   3.573  0.2343 -1.0824  1.0168
  389MOL0     C52420   7.967   3.014   3.579  0.5149 -0.1692 -0.0777
  389MOL0     C52421   7.843   3.049   3.657  0.4403 -0.4713  0.3594
  389MOL0     C52422   7.746   2.932   3.687  1.1915 -0.6929 -0.4054
  389MOL0     C52423   7.801   2.850   3.801  0.4252  0.3340 -0.0289
  389MOL0     C52424   7.704   2.736   3.823 -0.2286 -0.4458  0.1677
  389MOL0    Cl52425   7.760   2.617   3.944 -0.1447  0.3814  0.0192
  389MOL0     C52426   8.000   3.419   3.042 -0.5694 -0.0306  0.2696
  389MOL0     C52427   7.964   3.435   2.908 -0.5776  0.0990 -0.6676
  389MOL0     O52428   7.677   3.233   2.738  0.2469  0.0955  0.5763
  389MOL0     C52429   7.827   3.402   2.462 -0.9631  0.2274  0.3991
  389MOL0     C52430   7.812   3.456   2.338  0.6246 -0.4920  1.4167
  389MOL0     N52431   7.860   3.733   1.716 -0.5403 -0.7769 -0.2639
  389MOL0     N52432   7.920   3.844   1.678 -1.1917  0.5183 -0.2590
  389MOL0     C52433   8.768   4.269   2.371  0.4095  0.8629  0.5952
  389MOL0     C52434   8.899   4.224   2.418  1.0008  0.0886 -0.8377
  389MOL0     C52435   9.346   4.134   2.358 -1.1896  0.9974  0.4013
  389MOL0     C52436   9.420   4.223   2.437  0.4007 -0.1790 -0.2033
  389MOL0     C52437   9.552   4.206   2.473 -0.2807  0.4495 -0.0894
  389MOL0     C52438   9.624   4.094   2.420  0.4156 -0.1836  0.0080
  389MOL0     O52439   9.761   4.085   2.454 -1.1713 -0.4756 -0.2899
  389MOL0     C52440   9.826   3.962   2.416 -0.3971  0.2585  0.1857
  389MOL0     C52441   9.963   3.952   2.479  0.2189 -0.4689  0.2216
  389MOL0     C52442   9.964   3.957   2.640  0.2489 -0.3368 -0.1379
  389MOL0     C52443  10.091   3.892   2.705  0.3043 -0.0273 -0.3705
  389MOL0     C52444  10.216   3.947   2.654  0.0134  0.2221  0.0793
  389MOL0     C52445  10.318   4.004   2.616  1.1941 -0.3838 -0.0980
  389MOL0     C52446   9.553   4.001   2.342  0.5970 -0.4510 -0.2856
  389MOL0     C52447   9.418   4.013   2.316  0.4605 -0.0369  0.4595
  389MOL0     H52448   9.089   4.385   2.198 -0.4881 -1.1282 -2.2724
  389MOL0     H52449   8.865   4.434   2.093  1.4662  2.6833  1.2869
  389MOL0     H52450   8.618   4.389   2.006 -1.5699  0.7414  0.1247
  389MOL0     H52451   8.638   4.231   2.093 -0.7157 -1.0812  2.1550
  389MOL0     H52452   8.413   4.239   2.165 -0.9813 -0.7651 -0.6064
  389MOL0     H52453   8.397   4.415   2.134 -2.9385 -1.8849 -0.1058
  389MOL0     H52454   8.433   4.370   1.896 -0.5806  0.9116  0.1310
  389MOL0     H52455   8.425   4.197   1.928 -1.7440  0.6797 -3.7935
  389MOL0     H52456   8.181   4.220   2.008  0.1907 -2.6618 -2.4282
  389MOL0     H52457   8.208   4.400   2.004  0.4733  1.3955 -1.6912
  389MOL0     H52458   8.088   4.340   1.814  0.4671  1.8978  1.1368
  389MOL0     H52459   8.246   4.366   1.749 -1.6646  1.1154  0.7093
  389MOL0     H52460   8.174   4.149   1.644 -0.8990 -0.3957 -0.4165
  389MOL0     H52461   8.304   4.114   1.753 -0.9297 -0.7727 -1.7994
  389MOL0     H52462   8.123   3.945   1.803 -1.8065 -1.0303  2.4057
  389MOL0     H52463   8.104   4.060   1.929  4.2300  1.2659  0.2120
  389MOL0     H52464   7.965   4.105   1.658 -0.4695  1.8071  0.1931
  389MOL0     H52465   7.924   4.157   1.819  3.4777  0.3632  2.2503
  389MOL0     H52466   7.803   3.947   1.962 -3.6846  0.8375 -0.2979
  389MOL0     H52467   7.805   3.648   2.000  0.8301  1.8073 -1.1466
  389MOL0     H52468   7.646   3.719   1.973  0.3852  3.6337 -1.6697
  389MOL0     H52469   7.793   3.494   1.813  1.4574  1.4390  2.2499
  389MOL0     H52470   7.642   3.578   1.753  2.0286  0.7535 -1.1915
  389MOL0     H52471   7.598   3.346   1.849 -0.6388 -0.1703  0.4104
  389MOL0     H52472   7.529   3.479   1.947 -0.4779 -2.5679  1.0671
  389MOL0     H52473   7.808   3.363   2.011 -0.2084 -0.2560  0.3281
  389MOL0     H52474   7.664   3.279   2.060  2.1629 -1.1914  0.1203
  389MOL0     H52475   7.522   3.264   2.260  0.0640 -0.3186 -0.2878
  389MOL0     H52476   7.498   3.176   2.604  3.4167 -0.4055  1.1418
  389MOL0     H52477   7.435   3.175   2.437  0.8251  1.9571 -0.4263
  389MOL0     H52478   7.560   3.059   2.493  1.1380  0.1045  2.0103
  389MOL0     H52479   7.881   3.111   2.842 -1.4315  1.4945 -1.9380
  389MOL0     H52480   7.948   3.098   3.097 -3.0253  0.2501  0.5607
  389MOL0     H52481   7.939   3.132   3.318 -0.0593  0.6276  4.2334
  389MOL0     H52482   8.121   3.140   3.288  0.1142  0.3334 -1.3479
  389MOL0     H52483   8.103   3.317   3.478  1.8604 -1.4449  2.0349
  389MOL0     H52484   7.937   3.264   3.493  0.3752 -1.0474  0.8626
  389MOL0     H52485   8.066   3.169   3.671  0.7473  1.2408 -0.0241
  389MOL0     H52486   8.167   3.079   3.558  0.0797 -0.9291 -0.6351
  389MOL0     H52487   7.941   2.970   3.482  1.2178 -1.4388  0.2826
  389MOL0     H52488   8.020   2.940   3.640 -1.0770 -1.5983 -0.3491
  389MOL0     H52489   7.796   3.112   3.581 -0.2750 -0.9143  0.4267
  389MOL0     H52490   7.859   3.105   3.750  0.7302 -2.5089  1.6125
  389MOL0     H52491   7.649   2.978   3.705  2.6516  2.7886 -0.5667
  389MOL0     H52492   7.737   2.876   3.593 -0.1383  0.9267 -1.3054
  389MOL0     H52493   7.811   2.911   3.891  0.0868  2.3944 -1.3120
  389MOL0     H52494   7.901   2.812   3.775  1.1156  0.9919  1.5770
  389MOL0     H52495   7.683   2.682   3.730  0.0298 -1.0644  0.4624
  389MOL0     H52496   7.607   2.778   3.850 -0.4963  0.6506 -2.2582
  389MOL0     H52497   8.028   3.511   3.093  0.6560  0.9781 -2.0239
  389MOL0     H52498   7.980   3.534   2.865 -1.4640  0.1744 -0.8445
  389MOL0     H52499   7.920   3.434   2.510 -1.9466  1.6415  1.4530
  389MOL0     H52500   7.875   3.524   2.283 -3.0551  2.1711  0.1246
  389MOL0     H52501   8.672   4.251   2.419 -1.2215  0.6359 -2.4795
  389MOL0     H52502   8.890   4.161   2.506 -2.4651 -1.5925 -2.2094
  389MOL0     H52503   9.361   4.312   2.456 -0.6097 -0.3110 -2.4242
  389MOL0     H52504   9.609   4.278   2.531  0.3807  2.2293 -2.7887
  389MOL0     H52505   9.772   3.878   2.462 -0.8057  0.1484 -0.4847
  389MOL0     H52506   9.829   3.952   2.307 -1.8925  1.7487 -0.0340
  389MOL0     H52507  10.031   4.028   2.439 -1.0805 -0.3722 -2.0067
  389MOL0     H52508  10.007   3.861   2.437 -0.3896  0.2258 -2.1085
  389MOL0     H52509   9.867   3.928   2.681 -0.4316  0.5167 -1.1080
  389MOL0     H52510   9.959   4.061   2.673  2.3865 -1.1847  3.4104
  389MOL0     H52511  10.094   3.783   2.695 -0.0283  0.1702 -3.6839
  389MOL0     H52512  10.084   3.905   2.814 -1.8873 -0.5319 -0.4076
  389MOL0     H52513  10.403   4.063   2.587  2.9504 -2.9929 -0.5794
  389MOL0     H52514   9.595   3.914   2.292 -2.2892 -1.4032 -1.3013
  389MOL0     H52515   9.374   3.933   2.257 -0.1976  1.2002 -0.7922
  390MOL0     O52516   4.317   3.216  11.112 -1.2316  0.1352  0.9684
  390MOL0     C52517   4.321   3.097  11.153 -1.0681  0.3866 -0.1002
  390MOL0     O52518   4.248   3.043  11.257  0.2989 -0.1268  0.1043
  390MOL0     C52519   4.200   3.133  11.349  0.6201 -0.0662 -0.6239
  390MOL0     C52520   4.282   3.151  11.454  0.4215  0.4825 -1.3274
  390MOL0     C52521   4.238   3.231  11.567 -0.4685 -0.8261  0.3290
  390MOL0     C52522   4.120   3.306  11.569  0.6458 -0.2430  0.2201
  390MOL0     O52523   4.087   3.393  11.671 -0.1397 -0.2840  0.4316
  390MOL0     C52524   4.086   3.347  11.805  0.8501  0.0070  0.6816
  390MOL0     C52525   4.011   3.447  11.893  0.4059  0.2887 -0.1320
  390MOL0     C52526   3.863   3.393  11.898 -0.0475 -0.6799  1.0333
  390MOL0     C52527   3.757   3.489  11.965  0.4499  1.0212  0.5183
  390MOL0     C52528   3.626   3.419  11.991 -0.3238 -0.2395 -0.3294
  390MOL0     C52529   3.512   3.513  12.020 -0.6155  0.2225  0.3375
  390MOL0     C52530   3.388   3.429  12.056 -0.0713  0.5255 -0.6684
  390MOL0     C52531   3.375   3.400  12.210 -0.2886 -0.3418  0.4321
  390MOL0     N52532   3.272   3.300  12.256  0.9076  0.4817  0.4074
  390MOL0     C52533   3.238   3.186  12.192  0.8443 -0.3628 -0.4825
  390MOL0     C52534   3.113   3.169  12.241  0.3454 -0.1730  0.0527
  390MOL0     C52535   3.049   3.039  12.201  0.2348 -0.0004  0.1615
  390MOL0     C52536   2.905   3.045  12.250  0.4966  0.1273  0.3715
  390MOL0     C52537   2.888   3.017  12.401 -0.3861 -0.1918  0.1509
  390MOL0     C52538   2.738   2.999  12.438 -0.6047  0.6765  0.6357
  390MOL0     O52539   2.730   2.938  12.564  0.1518  0.1779 -0.3373
  390MOL0     C52540   2.606   2.904  12.613  0.2842 -0.6230 -0.2601
  390MOL0     C52541   2.602   2.805  12.706 -0.0764 -0.1603 -0.0231
  390MOL0     C52542   2.480   2.750  12.758  0.9207  0.3554  0.0941
  390MOL0     C52543   2.498   2.645  12.865 -0.1071  0.1507 -0.4087
  390MOL0     C52544   2.360   2.787  12.700  0.0321  0.8067  0.6510
  390MOL0     C52545   2.222   2.733  12.733 -0.1472  0.4053 -0.3670
  390MOL0     O52546   2.112   2.799  12.683  0.8077  0.0260  0.8902
  390MOL0     C52547   1.986   2.780  12.721 -0.5992  0.0451  0.3429
  390MOL0     C52548   1.932   2.648  12.742 -0.2517 -0.2745 -0.3129
  390MOL0     C52549   1.801   2.629  12.774  0.8751  0.3095 -1.2958
  390MOL0     C52550   1.709   2.740  12.783 -0.2374  0.5212  0.2768
  390MOL0     O52551   1.573   2.717  12.799 -0.2946 -0.0202  0.1577
  390MOL0     C52552   1.500   2.787  12.908 -0.3180 -0.4871  0.5353
  390MOL0     C52553   1.340   2.779  12.901  0.2115 -0.3234 -0.4134
  390MOL0     C52554   1.266   2.893  12.833 -0.0408 -0.5329  0.0576
  390MOL0     C52555   1.113   2.877  12.843 -0.9042  0.3020 -0.5518
  390MOL0     C52556   1.024   2.991  12.799  0.0600 -1.4428  0.2219
  390MOL0     C52557   1.047   3.017  12.645 -0.1953 -0.1761 -0.1564
  390MOL0     C52558   1.025   2.898  12.559  0.3922  0.3629  0.7143
  390MOL0     C52559   0.994   2.954  12.418 -0.5222 -0.6487  0.3968
  390MOL0    Cl52560   1.123   3.060  12.359 -0.1601 -0.3699 -0.3124
  390MOL0     C52561   1.757   2.868  12.750 -0.6905  0.4698  0.0418
  390MOL0     C52562   1.893   2.888  12.728  0.7812 -1.1071 -0.4798
  390MOL0     O52563   2.213   2.641  12.817 -0.6120  0.1649 -0.5633
  390MOL0     C52564   2.366   2.884  12.591  0.1567  0.4097 -0.4231
  390MOL0     C52565   2.484   2.952  12.554 -0.1907  0.8979  0.1611
  390MOL0     N52566   3.093   3.261  12.341 -0.4541 -0.2824 -0.8824
  390MOL0     N52567   3.189   3.340  12.344  0.6263 -0.1364 -0.7476
  390MOL0     C52568   4.046   3.286  11.453  0.0327 -0.8597  0.8824
  390MOL0     C52569   4.079   3.204  11.343 -0.1924 -0.0573 -0.0303
  390MOL0     C52570   4.410   3.006  11.077  0.8888  0.4493 -0.2640
  390MOL0     C52571   4.472   2.893  11.138 -0.0799 -1.8223 -0.1827
  390MOL0     C52572   4.561   2.816  11.066  0.6595  0.3127  0.1670
  390MOL0     C52573   4.589   2.827  10.931  0.4750  0.5427 -0.0978
  390MOL0     O52574   4.680   2.749  10.868 -0.3131  0.3641 -0.0210
  390MOL0     C52575   4.722   2.777  10.737 -0.2756  0.8371 -0.1494
  390MOL0     C52576   4.860   2.717  10.705 -0.0924  0.5916  0.1783
  390MOL0     C52577   4.862   2.583  10.642 -0.3599 -0.4363 -0.2242
  390MOL0     C52578   4.999   2.528  10.600  0.6242 -0.3101  0.4336
  390MOL0     C52579   5.063   2.609  10.498 -0.1318 -0.1754  0.1565
  390MOL0     C52580   5.122   2.665  10.411  0.6496  0.8158  0.2674
  390MOL0     C52581   4.516   2.926  10.866  0.1786 -0.4816 -0.8555
  390MOL0     C52582   4.425   3.019  10.937  0.2181 -0.0470 -0.9521
  390MOL0     H52583   4.365   3.082  11.458 -0.2896 -0.3321  1.5811
  390MOL0     H52584   4.299   3.229  11.656  0.8733  0.6454 -0.5216
  390MOL0     H52585   4.037   3.250  11.805  0.0231  0.4134 -0.1259
  390MOL0     H52586   4.182   3.320  11.850  1.2445  1.0890  0.5290
  390MOL0     H52587   4.050   3.454  11.995  0.0440  0.7216 -0.0214
  390MOL0     H52588   4.014   3.543  11.839  1.6997  0.4812  0.2591
  390MOL0     H52589   3.827   3.378  11.796 -1.2760  0.6617  1.2316
  390MOL0     H52590   3.862   3.291  11.938 -0.9317 -1.0845  0.0285
  390MOL0     H52591   3.794   3.509  12.066  1.2767  0.0323  0.4188
  390MOL0     H52592   3.748   3.582  11.908  0.1798  2.8852  3.3975
  390MOL0     H52593   3.583   3.366  11.906 -4.0270 -1.1244  1.8699
  390MOL0     H52594   3.631   3.346  12.073 -5.1471  0.1141  0.5850
  390MOL0     H52595   3.540   3.573  12.108  0.1608  0.2638  0.0643
  390MOL0     H52596   3.493   3.586  11.941 -0.4587  1.6260  1.5485
  390MOL0     H52597   3.292   3.474  12.030 -1.2013 -1.0930  0.5143
  390MOL0     H52598   3.391   3.337  11.998  1.4854 -0.3092  0.6320
  390MOL0     H52599   3.361   3.497  12.258  0.0917  1.3899 -2.7135
  390MOL0     H52600   3.473   3.368  12.249  0.1120 -1.8579 -1.6444
  390MOL0     H52601   3.284   3.139  12.105 -3.0492 -0.8319 -2.5250
  390MOL0     H52602   3.054   3.033  12.092  4.1286  1.8565  0.0383
  390MOL0     H52603   3.100   2.954  12.248 -1.5864 -0.4890  1.3328
  390MOL0     H52604   2.845   2.966  12.203 -0.2944 -0.3830  2.1499
  390MOL0     H52605   2.868   3.143  12.220  0.4862 -1.0617 -4.3816
  390MOL0     H52606   2.919   3.104  12.459 -0.2739  0.7932 -1.3280
  390MOL0     H52607   2.944   2.925  12.421 -0.4840 -0.5562 -1.1204
  390MOL0     H52608   2.697   2.929  12.365  1.7459 -0.5844  0.4327
  390MOL0     H52609   2.675   3.089  12.433 -0.0083  1.1667  1.6608
  390MOL0     H52610   2.696   2.765  12.743 -0.2906  0.1672  0.9096
  390MOL0     H52611   2.438   2.558  12.833 -1.0541  1.2916 -1.8774
  390MOL0     H52612   2.602   2.613  12.875 -0.0225 -0.3803 -2.4297
  390MOL0     H52613   2.467   2.675  12.965 -1.5437  1.9726 -1.3470
  390MOL0     H52614   2.003   2.568  12.726  0.8423  0.4807  0.6106
  390MOL0     H52615   1.767   2.528  12.793  1.3028  0.6834  2.1171
  390MOL0     H52616   1.532   2.751  13.006 -2.7062  1.2581  2.0709
  390MOL0     H52617   1.527   2.892  12.901 -0.5920 -0.5202 -1.7975
  390MOL0     H52618   1.311   2.683  12.858  1.3194  0.4410 -3.1137
  390MOL0     H52619   1.315   2.794  13.006  0.6818  1.0218 -0.4755
  390MOL0     H52620   1.300   2.914  12.731  2.0321 -0.0032  0.8256
  390MOL0     H52621   1.295   2.982  12.889 -2.5637  0.0321  0.6260
  390MOL0     H52622   1.082   2.789  12.787 -0.7566  0.2255 -0.5113
  390MOL0     H52623   1.080   2.856  12.945  0.7358  1.7793  0.3340
  390MOL0     H52624   1.051   3.083  12.854  0.3989 -1.6871  0.4684
  390MOL0     H52625   0.925   2.955  12.826 -0.1674 -4.2483 -3.6285
  390MOL0     H52626   0.970   3.091  12.619  0.2151  0.0843 -0.6360
  390MOL0     H52627   1.145   3.060  12.623 -0.5579 -0.4538 -2.6441
  390MOL0     H52628   0.939   2.835  12.583  0.3506 -2.2956 -4.7761
  390MOL0     H52629   1.115   2.835  12.561  1.5926  1.9168 -1.0780
  390MOL0     H52630   0.908   3.021  12.412  2.2825  3.1438 -2.7409
  390MOL0     H52631   0.979   2.875  12.344 -0.0677 -1.6026  1.2913
  390MOL0     H52632   1.684   2.946  12.730 -0.8177  0.4455  0.4018
  390MOL0     H52633   1.946   2.982  12.721 -1.2314  0.0454 -1.1916
  390MOL0     H52634   2.274   2.904  12.537  0.9189 -1.4116 -2.5057
  390MOL0     H52635   2.488   3.025  12.474  0.5412  0.2102 -0.4548
  390MOL0     H52636   3.951   3.340  11.453 -0.1369 -1.1501  1.0986
  390MOL0     H52637   4.021   3.198  11.252 -0.7435 -2.5558  0.4391
  390MOL0     H52638   4.458   2.887  11.246 -1.0771  0.0922 -0.1458
  390MOL0     H52639   4.606   2.734  11.122  0.3537  1.6413  2.4796
  390MOL0     H52640   4.649   2.746  10.661 -0.3849  0.8993 -0.0687
  390MOL0     H52641   4.738   2.885  10.735  0.8941  0.6996 -2.1786
  390MOL0     H52642   4.916   2.712  10.799 -2.3700  1.6824  1.6730
  390MOL0     H52643   4.918   2.790  10.647  3.0420 -0.3044  1.9628
  390MOL0     H52644   4.802   2.579  10.551 -0.1153 -2.4372 -0.3481
  390MOL0     H52645   4.822   2.510  10.712 -1.1276 -1.9323 -2.1392
  390MOL0     H52646   4.964   2.449  10.533 -0.4918  0.5834 -0.0567
  390MOL0     H52647   5.068   2.487  10.675 -0.1076 -1.0655  0.7104
  390MOL0     H52648   5.155   2.714  10.321 -0.6871  0.7878 -0.2570
  390MOL0     H52649   4.521   2.944  10.759  0.1382  0.3947 -0.7198
  390MOL0     H52650   4.376   3.103  10.888  0.4859  0.6271 -0.1075
  391MOL0     O52651   8.327   8.693  11.317 -0.1655  0.0489  0.3132
  391MOL0     C52652   8.336   8.574  11.326 -0.6633  1.0790 -0.7825
  391MOL0     O52653   8.238   8.482  11.366 -0.1975  0.2531  0.4187
  391MOL0     C52654   8.109   8.526  11.377 -0.0512  0.1457 -0.8190
  391MOL0     C52655   8.008   8.450  11.322 -0.0249  0.1414 -0.2985
  391MOL0     C52656   7.874   8.493  11.318  0.3031  0.1624  0.3298
  391MOL0     C52657   7.847   8.615  11.385  1.0420  0.2245  0.4109
  391MOL0     O52658   7.716   8.659  11.403 -0.8018 -0.7681  0.3469
  391MOL0     C52659   7.644   8.585  11.496 -0.2120  0.1370  1.0104
  391MOL0     C52660   7.671   8.633  11.638 -0.2379 -0.3801 -0.4344
  391MOL0     C52661   7.563   8.600  11.742 -0.2315 -0.5446  0.4713
  391MOL0     C52662   7.589   8.657  11.878  0.6048  0.1100  0.1914
  391MOL0     C52663   7.467   8.643  11.968 -0.7358 -0.7421  0.1301
  391MOL0     C52664   7.344   8.709  11.913  0.0916 -0.3692  0.1124
  391MOL0     C52665   7.242   8.736  12.030 -0.2683 -0.4231  0.1993
  391MOL0     C52666   7.169   8.612  12.076  0.1461  0.3243 -0.2982
  391MOL0     N52667   7.105   8.542  11.968 -0.4421 -0.9667 -0.0047
  391MOL0     C52668   7.148   8.419  11.914  1.3109 -0.4876  0.4243
  391MOL0     C52669   7.062   8.407  11.804  0.0193 -0.7807 -0.2229
  391MOL0     C52670   7.076   8.295  11.704 -0.1505  0.6867 -0.2982
  391MOL0     C52671   7.149   8.326  11.579  0.5410 -0.1219 -0.0460
  391MOL0     C52672   7.271   8.241  11.578  0.2416 -0.0580  0.3502
  391MOL0     C52673   7.345   8.271  11.449  0.3630 -0.4246 -0.0576
  391MOL0     O52674   7.262   8.275  11.331 -0.4533 -0.2614 -0.0623
  391MOL0     C52675   7.252   8.392  11.261 -0.5260 -0.0046 -0.2011
  391MOL0     C52676   7.371   8.465  11.213 -0.1669 -0.1534  1.3187
  391MOL0     C52677   7.364   8.596  11.166 -0.1685  0.6186 -0.2208
  391MOL0     C52678   7.489   8.660  11.109 -0.0249  0.2252  0.3586
  391MOL0     C52679   7.235   8.653  11.167 -1.1880 -0.2131  0.7406
  391MOL0     C52680   7.216   8.801  11.121 -0.5737 -0.0939  0.3059
  391MOL0     O52681   7.319   8.893  11.153  0.1888  0.2328 -0.0848
  391MOL0     C52682   7.315   9.024  11.124  0.4082  0.1549 -0.2172
  391MOL0     C52683   7.442   9.079  11.100 -0.1213  0.1149 -0.1948
  391MOL0     C52684   7.462   9.219  11.082 -0.5997 -0.4357  0.3102
  391MOL0     C52685   7.351   9.301  11.071  0.3874  0.2288 -0.1497
  391MOL0     O52686   7.379   9.435  11.038 -0.1624  0.0374 -0.3431
  391MOL0     C52687   7.339   9.530  11.145 -0.4536  0.3782  0.2036
  391MOL0     C52688   7.388   9.500  11.286 -0.6976  0.2482 -0.5550
  391MOL0     C52689   7.552   9.501  11.287  0.3653 -0.6680  0.3587
  391MOL0     C52690   7.617   9.556  11.411  0.2480  0.1149 -0.7304
  391MOL0     C52691   7.753   9.490  11.414 -0.0681 -0.8314 -0.5064
  391MOL0     C52692   7.833   9.568  11.523 -0.3906  0.2136 -0.1495
  391MOL0     C52693   7.978   9.511  11.542  0.1302 -0.0803 -0.0718
  391MOL0     C52694   8.058   9.592  11.637 -0.3668  0.9185  0.0013
  391MOL0    Cl52695   8.216   9.504  11.635 -0.3021  0.0642 -0.4840
  391MOL0     C52696   7.222   9.243  11.097  0.1345 -0.0949  1.3469
  391MOL0     C52697   7.201   9.110  11.127  0.4386  0.8966  0.3622
  391MOL0     O52698   7.116   8.834  11.049  1.0712 -0.0853 -0.1558
  391MOL0     C52699   7.119   8.585  11.204  0.5290  0.4733  0.2922
  391MOL0     C52700   7.130   8.456  11.248  0.3492  0.3019  0.0312
  391MOL0     N52701   6.973   8.511  11.807 -0.1326 -0.1982  0.4291
  391MOL0     N52702   7.000   8.594  11.900  0.1879 -0.1549 -0.7844
  391MOL0     C52703   7.949   8.682  11.449  0.5979 -0.2087 -0.9709
  391MOL0     C52704   8.080   8.642  11.453  0.0511 -0.1413  0.6990
  391MOL0     C52705   8.471   8.512  11.314  0.7350 -0.5317 -0.5712
  391MOL0     C52706   8.500   8.383  11.351  0.2492  0.6699  0.0975
  391MOL0     C52707   8.631   8.332  11.346  0.4516  0.8227 -0.0265
  391MOL0     C52708   8.734   8.402  11.296 -0.9827  0.1579 -0.6696
  391MOL0     O52709   8.863   8.353  11.318  0.3137  0.7767 -0.2166
  391MOL0     C52710   8.968   8.443  11.301  0.0742  0.4554 -0.1092
  391MOL0     C52711   9.105   8.385  11.349  0.0008 -0.2773  0.5059
  391MOL0     C52712   9.147   8.263  11.259  0.1653  0.1600 -0.3604
  391MOL0     C52713   9.296   8.228  11.261  0.6940 -0.4845  0.1414
  391MOL0     C52714   9.357   8.208  11.387  0.3222 -0.0368  0.1293
  391MOL0     C52715   9.396   8.180  11.497  0.4309 -0.3539 -1.0977
  391MOL0     C52716   8.703   8.529  11.255 -0.7992  0.7613 -0.4156
  391MOL0     C52717   8.574   8.588  11.256  0.4923  0.0187 -0.7375
  391MOL0     H52718   8.049   8.357  11.282 -1.1571 -0.5354  0.0625
  391MOL0     H52719   7.794   8.431  11.280 -1.5692  1.6522  1.6396
  391MOL0     H52720   7.539   8.591  11.470  0.4157  1.5546 -1.4913
  391MOL0     H52721   7.663   8.478  11.482 -0.5014  0.3246 -1.0705
  391MOL0     H52722   7.763   8.577  11.656 -0.0255 -0.1709 -0.8466
  391MOL0     H52723   7.698   8.739  11.635 -0.7681 -0.1995  0.6165
  391MOL0     H52724   7.472   8.649  11.706 -0.5910  0.2563  2.3218
  391MOL0     H52725   7.546   8.493  11.748  1.7782 -1.2718 -3.6638
  391MOL0     H52726   7.679   8.610  11.920 -0.5775 -1.9029  0.6000
  391MOL0     H52727   7.609   8.765  11.874 -0.6270  0.3263 -0.8433
  391MOL0     H52728   7.445   8.536  11.977  1.8581 -1.2171  1.7538
  391MOL0     H52729   7.493   8.667  12.071  0.5063 -2.1753  0.1824
  391MOL0     H52730   7.369   8.803  11.862  1.6014 -0.9548 -0.2676
  391MOL0     H52731   7.307   8.640  11.837 -0.0730  1.7010 -1.8111
  391MOL0     H52732   7.302   8.778  12.111  0.7443 -1.0878 -0.1744
  391MOL0     H52733   7.169   8.807  11.992 -1.3547 -3.9834 -5.6339
  391MOL0     H52734   7.098   8.646  12.152  1.2807  1.9146  0.1186
  391MOL0     H52735   7.236   8.538  12.120 -1.4002 -2.6514 -2.6558
  391MOL0     H52736   7.241   8.367  11.936  0.0049 -2.9712  0.4429
  391MOL0     H52737   7.110   8.199  11.745 -0.1823 -0.1652 -2.1713
  391MOL0     H52738   6.973   8.275  11.675 -0.2051 -0.5087  0.6577
  391MOL0     H52739   7.180   8.430  11.571  0.2331  0.0807  1.1989
  391MOL0     H52740   7.084   8.296  11.496  1.9893 -4.0158 -0.0188
  391MOL0     H52741   7.264   8.132  11.582  1.9900 -0.1442  3.6664
  391MOL0     H52742   7.338   8.272  11.658  1.5066  0.4369 -0.8761
  391MOL0     H52743   7.420   8.191  11.440  0.4698 -0.3638  0.2746
  391MOL0     H52744   7.400   8.364  11.464 -1.3009  0.5063  0.5591
  391MOL0     H52745   7.472   8.425  11.208 -0.3606 -0.5056 -1.0505
  391MOL0     H52746   7.563   8.589  11.069 -0.4488  0.6757 -1.2778
  391MOL0     H52747   7.458   8.727  11.029 -0.2567 -0.7448 -0.3875
  391MOL0     H52748   7.538   8.714  11.190  0.7518 -0.9480  0.7024
  391MOL0     H52749   7.530   9.016  11.103  0.1505  0.4728 -0.5084
  391MOL0     H52750   7.560   9.264  11.074 -0.5069 -0.4352  1.3411
  391MOL0     H52751   7.379   9.625  11.108 -1.8465  0.3415 -1.5426
  391MOL0     H52752   7.231   9.533  11.158 -0.4743  3.2123 -0.0767
  391MOL0     H52753   7.348   9.573  11.358  1.3066  1.5558 -0.6852
  391MOL0     H52754   7.351   9.406  11.327 -2.4144  1.3359  0.5646
  391MOL0     H52755   7.587   9.562  11.202  2.0664 -0.6990  0.9945
  391MOL0     H52756   7.596   9.403  11.265 -0.0878 -0.6602 -0.6377
  391MOL0     H52757   7.625   9.665  11.417 -0.8043  0.1343  1.0088
  391MOL0     H52758   7.567   9.537  11.506  0.9172 -0.4379 -0.4828
  391MOL0     H52759   7.805   9.518  11.322  2.5197  3.0851  1.8754
  391MOL0     H52760   7.751   9.383  11.437 -3.0870 -0.9830 -1.1096
  391MOL0     H52761   7.832   9.667  11.478  0.3168  0.3335  0.0967
  391MOL0     H52762   7.782   9.569  11.620 -3.1201  1.9409 -1.4576
  391MOL0     H52763   8.030   9.515  11.446 -0.3020 -5.5019 -0.8852
  391MOL0     H52764   7.973   9.407  11.576 -0.5425 -0.2332 -0.6078
  391MOL0     H52765   8.012   9.618  11.733 -3.3442 -0.4505 -0.9519
  391MOL0     H52766   8.073   9.693  11.597 -0.7684  2.2698  2.9984
  391MOL0     H52767   7.141   9.311  11.070 -0.5508 -2.8671 -5.4894
  391MOL0     H52768   7.104   9.064  11.139 -0.8373  2.9324 -1.5605
  391MOL0     H52769   7.025   8.636  11.184 -1.6018 -3.3884 -0.5709
  391MOL0     H52770   7.041   8.409  11.289  0.7743 -1.4030 -0.9265
  391MOL0     H52771   7.931   8.781  11.491  1.7828 -0.4397  0.1468
  391MOL0     H52772   8.159   8.682  11.515 -0.1795  1.6088 -0.0933
  391MOL0     H52773   8.417   8.315  11.368  0.6504  0.9246  3.8314
  391MOL0     H52774   8.654   8.230  11.374  0.8822  0.9835  0.2175
  391MOL0     H52775   8.972   8.478  11.197  1.2097  1.4481  0.2519
  391MOL0     H52776   8.953   8.534  11.358 -0.9771 -0.8873  1.8868
  391MOL0     H52777   9.109   8.379  11.458  1.4095  3.1150  0.7517
  391MOL0     H52778   9.173   8.470  11.336 -1.3852  1.3124  2.9994
  391MOL0     H52779   9.115   8.284  11.156  0.5088 -2.6362 -1.1225
  391MOL0     H52780   9.092   8.175  11.291 -0.6032  0.7561  0.0052
  391MOL0     H52781   9.354   8.309  11.215 -1.5777  1.6633  0.8610
  391MOL0     H52782   9.303   8.140  11.196  3.3797  0.5934 -1.1812
  391MOL0     H52783   9.428   8.170  11.599 -1.9809 -0.3912 -0.2888
  391MOL0     H52784   8.766   8.617  11.239 -2.0785  1.4892 -1.6586
  391MOL0     H52785   8.566   8.694  11.231  1.8684  0.7027  1.4712
  392MOL0     O52786   7.556   1.841  10.549 -0.3235  0.0787 -0.3314
  392MOL0     C52787   7.538   1.830  10.673  0.0746  0.3733  0.0344
  392MOL0     O52788   7.425   1.771  10.728 -0.0716 -0.0969  0.2943
  392MOL0     C52789   7.326   1.725  10.641  1.0113  0.1013  0.5488
  392MOL0     C52790   7.192   1.777  10.627 -0.4427 -0.9838  0.3287
  392MOL0     C52791   7.094   1.720  10.547  0.9450  0.4071  0.1083
  392MOL0     C52792   7.133   1.630  10.449  0.9567  0.3984 -0.4083
  392MOL0     O52793   7.047   1.600  10.351  0.2355 -0.8684  0.1190
  392MOL0     C52794   7.048   1.691  10.240  0.0071 -0.2903  0.5031
  392MOL0     C52795   6.984   1.616  10.131  0.0260  0.1482 -0.4610
  392MOL0     C52796   6.957   1.706  10.013 -0.1926 -1.0555  0.2316
  392MOL0     C52797   6.919   1.625   9.887 -0.9469 -0.8786 -0.2502
  392MOL0     C52798   6.930   1.709   9.761  0.1428  0.6744 -0.7507
  392MOL0     C52799   7.066   1.763   9.715  0.0142 -0.4294  0.2297
  392MOL0     C52800   7.160   1.641   9.672  0.3527 -0.4083 -0.7353
  392MOL0     C52801   7.252   1.665   9.551 -0.1004  0.1875  0.5304
  392MOL0     N52802   7.370   1.734   9.597 -0.1773 -0.9494  0.1427
  392MOL0     C52803   7.491   1.683   9.621  0.6728  0.5177  0.5447
  392MOL0     C52804   7.572   1.789   9.650 -0.3889 -0.3361 -0.4015
  392MOL0     C52805   7.716   1.773   9.672 -0.0099 -0.1078 -0.5482
  392MOL0     C52806   7.797   1.893   9.619  0.1776  0.4104  1.1719
  392MOL0     C52807   7.946   1.887   9.640 -0.0663 -0.2503  0.0830
  392MOL0     C52808   8.029   2.025   9.593  1.0044  0.9412 -0.1859
  392MOL0     O52809   8.019   2.055   9.452  0.0582  0.1491  0.5464
  392MOL0     C52810   8.086   1.967   9.356 -0.1133 -0.3020 -0.2867
  392MOL0     C52811   8.149   1.850   9.384  0.5387  0.1080  0.1867
  392MOL0     C52812   8.203   1.763   9.289 -0.1358 -0.7957  0.9030
  392MOL0     C52813   8.254   1.626   9.333  1.1222 -0.1993 -0.1070
  392MOL0     C52814   8.223   1.816   9.155 -0.1689  0.2957 -0.1251
  392MOL0     C52815   8.296   1.745   9.040  0.3375 -0.6473  0.5817
  392MOL0     O52816   8.271   1.794   8.916 -0.6405 -0.0955  0.2975
  392MOL0     C52817   8.353   1.753   8.815  0.4715 -0.1958 -0.8622
  392MOL0     C52818   8.484   1.807   8.807  0.5186 -0.4127  0.8134
  392MOL0     C52819   8.552   1.778   8.690 -0.7967  0.1620 -0.1873
  392MOL0     C52820   8.502   1.701   8.594  0.5662  0.8218 -0.1499
  392MOL0     O52821   8.566   1.667   8.476 -0.2164 -1.1873 -0.6911
  392MOL0     C52822   8.697   1.720   8.458 -0.7030 -0.1138  0.9484
  392MOL0     C52823   8.775   1.645   8.356  0.2525  0.6023  0.0619
  392MOL0     C52824   8.911   1.711   8.334  0.0126 -0.8522 -0.3184
  392MOL0     C52825   8.998   1.632   8.237  0.4930  0.2049 -0.2570
  392MOL0     C52826   9.143   1.660   8.218  0.6710  0.1578  0.8743
  392MOL0     C52827   9.178   1.745   8.095 -0.0230 -0.5430 -0.3838
  392MOL0     C52828   9.334   1.780   8.104 -0.0776 -0.5742 -0.8880
  392MOL0     C52829   9.358   1.924   8.060 -0.9196  0.4723  0.3911
  392MOL0    Cl52830   9.329   1.931   7.893 -0.2375 -0.0283  0.3340
  392MOL0     C52831   8.375   1.650   8.601  1.4259 -0.3274  0.3945
  392MOL0     C52832   8.300   1.681   8.717  0.6256 -1.2143  1.5447
  392MOL0     O52833   8.374   1.659   9.074  0.0030  0.1143 -0.2812
  392MOL0     C52834   8.165   1.935   9.125  1.3059  0.2252 -0.1485
  392MOL0     C52835   8.094   2.015   9.221  0.9441 -0.0138  0.4915
  392MOL0     N52836   7.498   1.902   9.629  0.1805  0.8798  0.2298
  392MOL0     N52837   7.371   1.870   9.617 -0.1590 -0.8833  0.3718
  392MOL0     C52838   7.261   1.571  10.461  0.2049  0.9449 -0.6487
  392MOL0     C52839   7.352   1.617  10.557 -0.8573 -0.8746  0.5225
  392MOL0     C52840   7.650   1.872  10.754 -0.1386 -0.4274 -0.7505
  392MOL0     C52841   7.748   1.963  10.704 -0.1009 -0.2832 -0.0956
  392MOL0     C52842   7.862   1.992  10.783  0.7308 -0.0137  0.1749
  392MOL0     C52843   7.881   1.914  10.907 -0.3711 -0.1588  0.4642
  392MOL0     O52844   7.983   1.927  10.992 -0.4001 -0.6277  0.6936
  392MOL0     C52845   8.087   2.025  10.975 -0.3007  0.7713 -0.5863
  392MOL0     C52846   8.208   2.013  11.075  0.0113 -0.7125  0.6182
  392MOL0     C52847   8.155   2.029  11.215 -0.2201 -0.1791 -0.2598
  392MOL0     C52848   8.266   2.026  11.324  0.5264  0.0896  0.3254
  392MOL0     C52849   8.353   2.149  11.306  0.0648  0.7374 -0.1972
  392MOL0     C52850   8.421   2.249  11.290  0.0219  1.3886  0.0473
  392MOL0     C52851   7.788   1.830  10.954  0.6044  0.1217  0.6194
  392MOL0     C52852   7.664   1.814  10.880  0.1695 -0.4819 -0.9549
  392MOL0     H52853   7.169   1.857  10.698 -0.6720 -1.2061  0.5061
  392MOL0     H52854   6.990   1.752  10.542  0.4488 -1.2585 -1.8109
  392MOL0     H52855   6.990   1.782  10.262  0.6505 -0.3551  2.7492
  392MOL0     H52856   7.148   1.722  10.210 -1.6888  3.2734 -2.2841
  392MOL0     H52857   7.068   1.554  10.099  1.0950  1.3378 -0.0511
  392MOL0     H52858   6.896   1.560  10.161 -1.2591  1.9582 -0.6563
  392MOL0     H52859   6.872   1.772  10.032 -0.4261 -1.3415  0.2032
  392MOL0     H52860   7.039   1.770   9.980 -1.0852 -0.0037  0.0082
  392MOL0     H52861   6.988   1.541   9.876  0.7190  0.5363 -1.0742
  392MOL0     H52862   6.818   1.582   9.892 -1.1878 -0.3161 -0.1655
  392MOL0     H52863   6.892   1.648   9.679  3.5828 -0.1184 -1.9286
  392MOL0     H52864   6.862   1.791   9.784  0.3979  0.3374  1.5190
  392MOL0     H52865   7.049   1.826   9.627  0.3550  1.0085  1.1518
  392MOL0     H52866   7.110   1.816   9.801  0.3489 -0.2615 -0.0379
  392MOL0     H52867   7.225   1.607   9.752  1.2071 -0.3380 -1.3770
  392MOL0     H52868   7.095   1.558   9.642 -0.6499 -0.1340  0.5582
  392MOL0     H52869   7.201   1.732   9.481 -0.6657  0.9479  1.6337
  392MOL0     H52870   7.277   1.572   9.498 -1.8514 -0.6855  1.1494
  392MOL0     H52871   7.498   1.575   9.608 -0.4024  0.4133  0.7446
  392MOL0     H52872   7.729   1.758   9.780  2.2544 -1.1527 -0.9031
  392MOL0     H52873   7.753   1.687   9.615  0.7775  1.2123 -2.1127
  392MOL0     H52874   7.759   1.989   9.655 -0.1983  0.7902 -0.1896
  392MOL0     H52875   7.784   1.897   9.510 -0.3333  1.2395  1.2533
  392MOL0     H52876   7.987   1.798   9.591  0.4787  0.7698 -1.4216
  392MOL0     H52877   7.968   1.875   9.746  1.7788  0.1347 -0.2251
  392MOL0     H52878   8.126   2.023   9.643 -1.5835 -0.8989  5.4650
  392MOL0     H52879   7.976   2.108   9.641  3.0498  3.6479 -2.2316
  392MOL0     H52880   8.161   1.809   9.484  0.5816 -0.2444  0.0374
  392MOL0     H52881   8.204   1.544   9.281 -1.9861 -0.4175  2.8676
  392MOL0     H52882   8.360   1.637   9.308  0.8500 -0.9736 -1.7141
  392MOL0     H52883   8.227   1.604   9.437 -1.1067  0.4401 -0.5175
  392MOL0     H52884   8.528   1.878   8.876  1.9345 -0.5597  0.1019
  392MOL0     H52885   8.650   1.825   8.687 -0.3860 -0.5023  1.5931
  392MOL0     H52886   8.691   1.827   8.436  1.9276  0.0887  0.9843
  392MOL0     H52887   8.753   1.717   8.552 -0.8171 -1.6149  0.9925
  392MOL0     H52888   8.794   1.545   8.396 -0.0310  0.4967 -0.0645
  392MOL0     H52889   8.715   1.644   8.265 -1.6113  0.8101  1.2458
  392MOL0     H52890   8.960   1.706   8.432  0.3423 -0.4705 -0.4628
  392MOL0     H52891   8.911   1.814   8.299  0.5080 -0.6038  0.3865
  392MOL0     H52892   8.990   1.527   8.263 -1.4414  0.3230 -0.1967
  392MOL0     H52893   8.957   1.636   8.135  3.2262 -1.4730 -1.5304
  392MOL0     H52894   9.178   1.559   8.196 -2.7796 -0.8697 -0.7146
  392MOL0     H52895   9.197   1.688   8.308 -0.0898  2.6978  0.6220
  392MOL0     H52896   9.154   1.706   7.996 -0.1851  0.9386 -0.9488
  392MOL0     H52897   9.120   1.836   8.111  0.1248 -0.2569 -1.4155
  392MOL0     H52898   9.403   1.721   8.043  2.9938 -1.2367  2.8696
  392MOL0     H52899   9.359   1.770   8.210 -1.8460 -2.9722 -0.6136
  392MOL0     H52900   9.464   1.944   8.077 -0.8697 -0.0280  0.6938
  392MOL0     H52901   9.301   1.995   8.121 -1.8249  1.1737 -1.2092
  392MOL0     H52902   8.339   1.581   8.525  0.6756  2.1517 -1.6489
  392MOL0     H52903   8.202   1.636   8.725  0.1850 -0.1604  2.3706
  392MOL0     H52904   8.180   1.971   9.024  0.8274  1.7223  0.2777
  392MOL0     H52905   8.055   2.114   9.200  0.3571 -0.6952 -1.9100
  392MOL0     H52906   7.275   1.483  10.399 -2.3175 -0.4574  0.5763
  392MOL0     H52907   7.451   1.573  10.562 -0.2707  0.5379  3.5769
  392MOL0     H52908   7.733   2.005  10.605 -1.5573 -1.4401 -0.3915
  392MOL0     H52909   7.928   2.071  10.748 -0.6889  0.7318 -0.9262
  392MOL0     H52910   8.128   2.005  10.876  0.1981 -1.3839  0.0063
  392MOL0     H52911   8.054   2.129  10.964 -0.4464  0.7816 -0.1039
  392MOL0     H52912   8.277   2.094  11.049  1.2161 -2.6385 -2.8271
  392MOL0     H52913   8.263   1.919  11.065  0.2460 -0.8599  2.7966
  392MOL0     H52914   8.088   1.945  11.240 -1.6324  0.8944 -0.3022
  392MOL0     H52915   8.104   2.124  11.233  1.7220  1.2970 -2.0944
  392MOL0     H52916   8.325   1.936  11.309  1.7147  0.8153  0.5247
  392MOL0     H52917   8.223   2.008  11.423  1.0438 -2.2548  0.1648
  392MOL0     H52918   8.495   2.325  11.277  0.8381  0.2309 -3.2087
  392MOL0     H52919   7.810   1.780  11.048 -0.7861  1.2881  1.5946
  392MOL0     H52920   7.582   1.748  10.909 -0.7464  0.3850 -1.5109
  393MOL0     O52921   8.386   9.882   0.374 -0.0939 -0.3871  0.5985
  393MOL0     C52922   8.502   9.908   0.350 -0.8787  0.4570 -0.0037
  393MOL0     O52923   8.561  10.040   0.357 -0.6330  0.3099 -0.8065
  393MOL0     C52924   8.477  10.146   0.380  0.2741 -0.5432 -0.1593
  393MOL0     C52925   8.500  10.238   0.484 -0.3616 -0.4225  0.2982
  393MOL0     C52926   8.423  10.359   0.500  0.2475  0.4416 -0.4551
  393MOL0     C52927   8.318  10.387   0.403  0.4395  0.5821 -0.3849
  393MOL0     O52928   8.244  10.501   0.421 -0.0612 -0.8901  0.9194
  393MOL0     C52929   8.125  10.532   0.344  0.9036 -0.5091 -0.0541
  393MOL0     C52930   8.158  10.589   0.201 -0.1292 -0.8404 -0.1248
  393MOL0     C52931   8.207  10.733   0.188 -0.4235  1.4895  0.0736
  393MOL0     C52932   8.248  10.750   0.036  0.7908  0.6031  1.6256
  393MOL0     C52933   8.248  10.899  -0.005 -0.2361  0.8993  0.5309
  393MOL0     C52934   8.306  10.914  -0.149 -0.7076 -0.4408 -0.1155
  393MOL0     C52935   8.290  11.067  -0.196  0.8902  0.6286  0.2119
  393MOL0     C52936   8.324  11.079  -0.345  0.5168  0.0765  0.1496
  393MOL0     N52937   8.215  11.016  -0.424  0.0936  0.6739  0.5756
  393MOL0     C52938   8.080  11.034  -0.406  0.7028 -0.8656  0.4946
  393MOL0     C52939   8.020  10.956  -0.500  0.1432 -1.1398  0.5487
  393MOL0     C52940   7.869  10.949  -0.523  0.4223  0.6491  0.6008
  393MOL0     C52941   7.805  11.085  -0.517  0.4292 -0.3283  0.0823
  393MOL0     C52942   7.837  11.183  -0.633 -0.4398 -0.3195  0.3087
  393MOL0     C52943   7.749  11.308  -0.625  0.4911 -0.1488  0.6209
  393MOL0     O52944   7.784  11.393  -0.521 -0.1760  0.0973 -0.0323
  393MOL0     C52945   7.716  11.507  -0.499 -1.0302  0.6268  0.5266
  393MOL0     C52946   7.782  11.615  -0.445  0.3548  0.0189  0.4896
  393MOL0     C52947   7.724  11.743  -0.442 -0.4823 -0.5253 -0.0618
  393MOL0     C52948   7.823  11.855  -0.440  0.7790 -0.4630  0.3335
  393MOL0     C52949   7.582  11.756  -0.462 -0.4655  0.4061  0.2795
  393MOL0     C52950   7.511  11.891  -0.474 -0.0158  0.9422 -0.3034
  393MOL0     O52951   7.372  11.874  -0.472  0.3519  0.1634  0.6711
  393MOL0     C52952   7.300  11.982  -0.510  0.1834 -0.1689 -0.7346
  393MOL0     C52953   7.283  12.088  -0.418  0.0319 -0.5965  0.0979
  393MOL0     C52954   7.207  12.197  -0.454 -0.5661 -0.1512 -0.6280
  393MOL0     C52955   7.139  12.191  -0.577 -0.9979  0.5256  0.7372
  393MOL0     O52956   7.065  12.296  -0.630 -0.3003  0.4557  0.0736
  393MOL0     C52957   6.976  12.359  -0.534  0.1947  0.0381 -0.0352
  393MOL0     C52958   6.849  12.417  -0.597 -0.1789  0.8965  0.5384
  393MOL0     C52959   6.741  12.485  -0.518 -0.9108  0.3031 -0.3371
  393MOL0     C52960   6.646  12.389  -0.451  1.1320 -0.3608  0.4049
  393MOL0     C52961   6.510  12.446  -0.395 -0.1846 -0.4939  0.0619
  393MOL0     C52962   6.414  12.518  -0.492 -0.8330  0.9208  0.3514
  393MOL0     C52963   6.332  12.424  -0.591 -0.4080  0.8953  0.1535
  393MOL0     C52964   6.279  12.509  -0.712 -0.1176  0.4752  0.8714
  393MOL0    Cl52965   6.168  12.644  -0.665  0.0524  0.0600 -0.4076
  393MOL0     C52966   7.157  12.089  -0.669  0.4903 -0.0459 -0.7964
  393MOL0     C52967   7.234  11.984  -0.631  0.0336  0.3852  0.9766
  393MOL0     O52968   7.568  11.998  -0.472 -0.7810  0.2753  0.8226
  393MOL0     C52969   7.512  11.640  -0.498  0.3358 -0.5270  0.1599
  393MOL0     C52970   7.576  11.521  -0.532 -0.6002 -0.5599  0.3999
  393MOL0     N52971   8.115  10.885  -0.557  0.2674  0.2007  0.4537
  393MOL0     N52972   8.233  10.915  -0.512 -0.1887 -0.4016 -0.2998
  393MOL0     C52973   8.316  10.303   0.288  0.0667  0.5861 -0.5391
  393MOL0     C52974   8.385  10.181   0.283  0.1724  0.6245 -0.2253
  393MOL0     C52975   8.588   9.797   0.308  0.2531  0.5955 -0.0110
  393MOL0     C52976   8.531   9.673   0.269  0.3824 -0.8640  0.0770
  393MOL0     C52977   8.617   9.570   0.242 -0.6021 -0.4079  0.6893
  393MOL0     C52978   8.753   9.588   0.234 -0.1532  0.6773 -0.5686
  393MOL0     O52979   8.830   9.475   0.206 -0.2952 -0.5092  0.1548
  393MOL0     C52980   8.972   9.490   0.180  0.3509  0.2969 -0.5109
  393MOL0     C52981   9.056   9.360   0.172  0.8334 -0.1515  0.4214
  393MOL0     C52982   9.045   9.268   0.290  0.1109  0.2912  0.5898
  393MOL0     C52983   9.153   9.163   0.289  0.5813  0.1121  0.0296
  393MOL0     C52984   9.113   9.038   0.343 -0.8195 -0.2147  0.5824
  393MOL0     C52985   9.078   8.940   0.409  0.0227 -0.1492  0.4227
  393MOL0     C52986   8.804   9.715   0.269 -0.0076 -0.1383 -0.4625
  393MOL0     C52987   8.726   9.814   0.317  1.0538 -0.0572  0.8983
  393MOL0     H52988   8.570  10.215   0.564 -1.5411  0.9618  1.7857
  393MOL0     H52989   8.433  10.430   0.581  1.0467  4.1208 -3.4696
  393MOL0     H52990   8.057  10.447   0.346  0.7198 -0.4425 -2.0203
  393MOL0     H52991   8.071  10.616   0.388  1.7836  0.7988 -1.3742
  393MOL0     H52992   8.227  10.523   0.147  1.3090 -0.3486  1.0469
  393MOL0     H52993   8.066  10.579   0.143  0.2662 -1.3829 -0.6784
  393MOL0     H52994   8.136  10.811   0.219 -0.3329  1.4809  0.3045
  393MOL0     H52995   8.296  10.746   0.251 -0.9737  0.7403  1.0192
  393MOL0     H52996   8.351  10.713   0.033  0.7099  0.0696 -3.7073
  393MOL0     H52997   8.174  10.697  -0.023 -0.2450  2.9416  0.7214
  393MOL0     H52998   8.151  10.949   0.000 -0.8069  0.3367 -2.5924
  393MOL0     H52999   8.318  10.953   0.058  0.0728  1.1084  0.0194
  393MOL0     H53000   8.409  10.876  -0.144 -0.7061 -0.7554 -1.7423
  393MOL0     H53001   8.251  10.848  -0.218  1.0450 -2.3981  0.2631
  393MOL0     H53002   8.190  11.111  -0.188 -0.2917 -1.7216 -0.6709
  393MOL0     H53003   8.360  11.129  -0.138  2.1392 -0.2891 -0.2604
  393MOL0     H53004   8.411  11.019  -0.372  0.6164 -0.4703  1.5911
  393MOL0     H53005   8.340  11.184  -0.370 -1.0701  0.0638 -1.0434
  393MOL0     H53006   8.034  11.113  -0.347  2.1597 -0.0908  0.6398
  393MOL0     H53007   7.854  10.910  -0.624 -0.7497 -1.4531  1.5249
  393MOL0     H53008   7.837  10.876  -0.448  0.8463  0.9486  1.0780
  393MOL0     H53009   7.836  11.134  -0.425 -0.6221 -0.5992  0.5952
  393MOL0     H53010   7.697  11.068  -0.514  0.3250  0.4331  2.8491
  393MOL0     H53011   7.801  11.134  -0.724 -1.0669  2.3040 -0.9566
  393MOL0     H53012   7.942  11.209  -0.650 -1.2126  0.8965 -3.7146
  393MOL0     H53013   7.646  11.272  -0.626 -0.1776  1.6610  1.4539
  393MOL0     H53014   7.750  11.356  -0.724 -0.4566  3.1725  2.1018
  393MOL0     H53015   7.889  11.601  -0.439  0.1644 -3.0544 -1.2168
  393MOL0     H53016   7.824  11.897  -0.541 -0.5889 -1.3605 -0.0824
  393MOL0     H53017   7.803  11.926  -0.360  1.4104  0.7090 -0.5230
  393MOL0     H53018   7.920  11.812  -0.412 -0.1266 -1.3030  2.3627
  393MOL0     H53019   7.346  12.089  -0.329  0.1787 -2.4832  0.0641
  393MOL0     H53020   7.196  12.278  -0.383  1.0401  0.8960 -1.5234
  393MOL0     H53021   6.939  12.284  -0.463  1.4119 -1.4644 -0.9195
  393MOL0     H53022   7.042  12.429  -0.483 -1.2945 -0.1581  2.3095
  393MOL0     H53023   6.886  12.479  -0.679 -2.0699  0.7386 -0.5128
  393MOL0     H53024   6.812  12.337  -0.661  2.6882  0.0706 -0.2227
  393MOL0     H53025   6.695  12.557  -0.586  0.5858  0.2191 -1.5063
  393MOL0     H53026   6.791  12.554  -0.449 -2.1447  1.5531 -0.6445
  393MOL0     H53027   6.611  12.321  -0.528 -1.1421 -1.5461  2.3706
  393MOL0     H53028   6.705  12.338  -0.374  0.3590 -0.2961  1.0463
  393MOL0     H53029   6.548  12.511  -0.317  1.2685  0.8138 -1.6592
  393MOL0     H53030   6.459  12.363  -0.344 -1.5077  0.5249  0.4478
  393MOL0     H53031   6.359  12.594  -0.436  0.8722  1.9808  0.6798
  393MOL0     H53032   6.475  12.577  -0.562  1.5362 -0.4132  1.1700
  393MOL0     H53033   6.246  12.381  -0.540  1.4722 -1.7159  1.3865
  393MOL0     H53034   6.397  12.337  -0.607  0.6032  1.0863  2.6101
  393MOL0     H53035   6.226  12.449  -0.787 -1.9771  2.6620  0.3447
  393MOL0     H53036   6.367  12.545  -0.767  1.1171  0.3298  2.6599
  393MOL0     H53037   7.098  12.088  -0.760  3.7539 -2.7715 -3.1490
  393MOL0     H53038   7.247  11.899  -0.696 -1.9747 -0.5573  1.7167
  393MOL0     H53039   7.405  11.646  -0.515  0.6903  0.8543 -1.9762
  393MOL0     H53040   7.527  11.426  -0.553 -0.0153 -1.0827  1.3381
  393MOL0     H53041   8.234  10.314   0.218 -0.0811 -0.9476 -0.6316
  393MOL0     H53042   8.367  10.112   0.200 -2.4365 -1.2475  1.7258
  393MOL0     H53043   8.423   9.668   0.259  0.2386 -1.0263  1.5767
  393MOL0     H53044   8.578   9.474   0.208 -1.6441 -0.7517  2.7573
  393MOL0     H53045   8.985   9.546   0.087  4.5211  0.3059 -0.1035
  393MOL0     H53046   9.011   9.559   0.255 -0.3553  1.7474 -1.4229
  393MOL0     H53047   9.157   9.385   0.139  1.2539 -0.7657  1.2294
  393MOL0     H53048   9.012   9.305   0.088 -0.9867  1.1850  0.4252
  393MOL0     H53049   8.943   9.229   0.292 -0.0841  0.7349 -0.4594
  393MOL0     H53050   9.048   9.324   0.384  0.3197 -0.1675  0.8575
  393MOL0     H53051   9.228   9.198   0.362 -1.0975  2.5089  0.7250
  393MOL0     H53052   9.195   9.147   0.190 -1.9640 -0.4796 -1.0053
  393MOL0     H53053   9.050   8.862   0.478 -3.1103  1.2669  0.9401
  393MOL0     H53054   8.910   9.737   0.261 -0.1674  0.7582 -0.2359
  393MOL0     H53055   8.761   9.913   0.343 -2.0649  1.0151  1.3452
  394MOL0     O53056   0.010  11.399   0.220 -0.2953 -0.4674 -0.2296
  394MOL0     C53057   0.013  11.435   0.101 -0.6994 -0.1243  0.9523
  394MOL0     O53058   0.113  11.504   0.035  0.6852 -0.7855  0.2322
  394MOL0     C53059   0.240  11.507   0.073  0.5854 -0.5447 -0.4813
  394MOL0     C53060   0.318  11.598   0.012  0.3501  0.1825 -0.0222
  394MOL0     C53061   0.456  11.613   0.046  0.1394  0.7041 -0.0657
  394MOL0     C53062   0.513  11.538   0.146 -0.2270  0.0961  0.3719
  394MOL0     O53063   0.639  11.555   0.198  0.3332  0.1653  0.1279
  394MOL0     C53064   0.698  11.687   0.188  0.1320 -0.7950  0.5116
  394MOL0     C53065   0.824  11.707   0.278  0.6738  0.2398 -0.4912
  394MOL0     C53066   0.933  11.802   0.229  0.4507  0.0560 -0.5217
  394MOL0     C53067   0.887  11.939   0.187 -0.0625  0.6769  0.2592
  394MOL0     C53068   1.006  12.039   0.144  0.5379  0.4195 -0.6205
  394MOL0     C53069   0.970  12.183   0.180 -0.2716 -0.0769  0.5857
  394MOL0     C53070   1.083  12.285   0.144  0.9074  0.3076 -0.6857
  394MOL0     C53071   1.035  12.424   0.144 -0.0669 -0.4071  0.6377
  394MOL0     N53072   0.951  12.459   0.025 -0.2680  0.6488  0.8566
  394MOL0     C53073   0.996  12.515  -0.094  0.4885 -0.0050  0.8489
  394MOL0     C53074   0.886  12.533  -0.174 -0.3558  1.0683 -0.1922
  394MOL0     C53075   0.888  12.582  -0.315  0.0931  0.0523 -0.1242
  394MOL0     C53076   0.743  12.614  -0.365 -0.6380  0.1393 -0.2744
  394MOL0     C53077   0.678  12.728  -0.297  0.4210  0.2056 -0.1166
  394MOL0     C53078   0.526  12.733  -0.337  0.3379 -0.2151  0.1301
  394MOL0     O53079   0.523  12.727  -0.486  0.5181 -0.4542  0.1577
  394MOL0     C53080   0.408  12.771  -0.552 -1.1506  0.1751 -0.2144
  394MOL0     C53081   0.424  12.802  -0.684 -0.2655 -0.1777 -0.7445
  394MOL0     C53082   0.305  12.835  -0.761 -0.1916 -0.5594  0.2736
  394MOL0     C53083   0.330  12.900  -0.905 -0.2749  0.2761 -0.1767
  394MOL0     C53084   0.175  12.852  -0.702 -0.1280 -0.2910  0.4388
  394MOL0     C53085   0.045  12.894  -0.767  0.2550 -0.3934  0.0047
  394MOL0     O53086  -0.057  12.926  -0.685 -0.6298  0.1714  0.6329
  394MOL0     C53087  -0.183  12.932  -0.728  0.9566  0.0138  1.2358
  394MOL0     C53088  -0.241  12.831  -0.804 -0.2007 -0.5624 -0.0651
  394MOL0     C53089  -0.372  12.835  -0.847 -0.1122  0.7397  0.4248
  394MOL0     C53090  -0.450  12.949  -0.815 -0.0695  0.4159  0.6911
  394MOL0     O53091  -0.575  12.969  -0.865 -0.6231  0.2743  0.0161
  394MOL0     C53092  -0.648  12.854  -0.903 -0.6832  0.1709 -0.1644
  394MOL0     C53093  -0.796  12.889  -0.927 -0.7936 -0.2888  0.2764
  394MOL0     C53094  -0.814  12.883  -1.077  0.4889  0.6291  0.8236
  394MOL0     C53095  -0.927  12.968  -1.136  1.2167 -0.9115 -0.3517
  394MOL0     C53096  -1.064  12.921  -1.088  0.0918  0.3542 -0.4665
  394MOL0     C53097  -1.181  13.017  -1.136  0.5583  0.4492  0.3136
  394MOL0     C53098  -1.176  13.160  -1.076  0.6288  0.0440 -0.0354
  394MOL0     C53099  -1.186  13.274  -1.174 -0.0306  0.1531 -0.8891
  394MOL0    Cl53100  -1.344  13.267  -1.242 -0.1397  0.5852 -0.2299
  394MOL0     C53101  -0.388  13.054  -0.746 -0.8184 -0.3409  0.3380
  394MOL0     C53102  -0.257  13.046  -0.700 -0.8259 -0.5656 -0.2532
  394MOL0     O53103   0.036  12.880  -0.890 -0.1148  0.9673 -0.0763
  394MOL0     C53104   0.174  12.835  -0.564  0.3409 -0.7871 -0.7919
  394MOL0     C53105   0.286  12.788  -0.490 -0.4959 -0.0261  0.9749
  394MOL0     N53106   0.779  12.510  -0.085 -0.5100 -0.4782 -0.0624
  394MOL0     N53107   0.817  12.465   0.034 -0.7250  0.2190 -0.0885
  394MOL0     C53108   0.433  11.444   0.207  0.1820  1.1190 -0.1135
  394MOL0     C53109   0.296  11.426   0.179 -0.6558 -0.5236 -0.2655
  394MOL0     C53110  -0.088  11.393   0.011  0.6876 -0.9373  1.2248
  394MOL0     C53111  -0.184  11.305   0.039  0.8396  0.9785  0.7716
  394MOL0     C53112  -0.274  11.256  -0.060  0.6353  0.2433 -0.8564
  394MOL0     C53113  -0.280  11.313  -0.192  0.1806 -0.4767 -1.0700
  394MOL0     O53114  -0.377  11.291  -0.290  0.2086  0.3603  0.4177
  394MOL0     C53115  -0.502  11.238  -0.247  0.0184  0.3775 -0.1339
  394MOL0     C53116  -0.605  11.221  -0.357  0.0591 -0.5231 -0.0454
  394MOL0     C53117  -0.634  11.353  -0.427  0.2690 -0.7038  0.3404
  394MOL0     C53118  -0.753  11.336  -0.526 -0.5864  0.2823 -0.2008
  394MOL0     C53119  -0.821  11.454  -0.563 -0.4053 -0.1810 -0.6821
  394MOL0     C53120  -0.880  11.556  -0.593  0.8419 -0.0686 -0.6284
  394MOL0     C53121  -0.179  11.405  -0.224  0.3431 -0.7003 -0.0251
  394MOL0     C53122  -0.088  11.442  -0.124 -0.1305 -0.3661  0.4619
  394MOL0     H53123   0.288  11.659  -0.072  2.0442 -1.2679 -1.7982
  394MOL0     H53124   0.513  11.690  -0.004  0.4942  1.3716  1.2998
  394MOL0     H53125   0.730  11.701   0.085 -0.7900  0.2911  0.3644
  394MOL0     H53126   0.632  11.770   0.216 -0.9140 -0.9244 -1.4482
  394MOL0     H53127   0.788  11.725   0.380  1.1437  0.6529 -0.3978
  394MOL0     H53128   0.869  11.607   0.282  0.3220  0.0870 -0.2918
  394MOL0     H53129   1.002  11.818   0.312 -1.2659  0.7905  0.8309
  394MOL0     H53130   0.982  11.758   0.142  1.6245  1.3163 -0.5440
  394MOL0     H53131   0.827  11.931   0.096 -2.7536  0.8033  1.9412
  394MOL0     H53132   0.830  11.973   0.274 -0.5437 -2.6409  1.3865
  394MOL0     H53133   1.102  12.021   0.192  0.3729  2.9928  0.8367
  394MOL0     H53134   1.012  12.017   0.037  0.4393 -0.3984 -0.4644
  394MOL0     H53135   0.875  12.214   0.135  0.6968  2.3185  0.0405
  394MOL0     H53136   0.953  12.192   0.287 -0.1939  1.2934  0.5033
  394MOL0     H53137   1.169  12.279   0.212  1.5942 -0.9778 -1.6237
  394MOL0     H53138   1.125  12.260   0.046 -0.0795 -1.9894 -0.5774
  394MOL0     H53139   1.130  12.476   0.140  0.1592 -0.8776 -1.2761
  394MOL0     H53140   0.969  12.445   0.229 -0.8851 -1.3377  0.2656
  394MOL0     H53141   1.097  12.517  -0.132  0.6122  2.4264  1.1568
  394MOL0     H53142   0.942  12.676  -0.316  1.6295 -0.7090  2.5755
  394MOL0     H53143   0.934  12.505  -0.378 -1.8932 -1.4857  0.1706
  394MOL0     H53144   0.680  12.525  -0.360  0.7296 -0.9455 -1.6511
  394MOL0     H53145   0.764  12.647  -0.467 -0.5154  4.9445  1.0234
  394MOL0     H53146   0.720  12.824  -0.331  0.0235  0.1452 -0.7938
  394MOL0     H53147   0.682  12.722  -0.188  2.8015 -0.7465 -0.2083
  394MOL0     H53148   0.483  12.825  -0.294 -0.3437 -1.4169  2.1454
  394MOL0     H53149   0.490  12.643  -0.287 -1.4485  1.2997  1.7255
  394MOL0     H53150   0.522  12.817  -0.729  0.3780  2.3866  1.2099
  394MOL0     H53151   0.324  12.821  -0.980  0.9817 -1.2264  1.2298
  394MOL0     H53152   0.255  12.977  -0.926 -1.8337 -1.0732  0.2414
  394MOL0     H53153   0.429  12.944  -0.889 -0.5747  0.4335  1.4415
  394MOL0     H53154  -0.180  12.743  -0.820 -0.3141 -1.0116  1.7866
  394MOL0     H53155  -0.406  12.765  -0.922  0.4046  3.7112 -2.8669
  394MOL0     H53156  -0.599  12.806  -0.987 -2.0366  0.3980 -1.1088
  394MOL0     H53157  -0.633  12.799  -0.809  1.1729 -0.2982 -0.7068
  394MOL0     H53158  -0.853  12.808  -0.879 -1.7448 -1.5442 -2.7313
  394MOL0     H53159  -0.821  12.988  -0.887  2.4787  0.7886 -0.0510
  394MOL0     H53160  -0.836  12.781  -1.109 -2.9830  1.2550  0.8606
  394MOL0     H53161  -0.719  12.909  -1.126  0.4231 -0.4952  0.0614
  394MOL0     H53162  -0.912  13.072  -1.105 -0.7078 -0.3361 -1.2167
  394MOL0     H53163  -0.924  12.960  -1.245 -1.6884 -0.8251 -0.5107
  394MOL0     H53164  -1.059  12.913  -0.979  1.1104 -1.4124 -0.5949
  394MOL0     H53165  -1.087  12.820  -1.124 -0.5828  0.9337 -1.7363
  394MOL0     H53166  -1.171  13.031  -1.244  5.9091  0.8495  0.6068
  394MOL0     H53167  -1.283  12.991  -1.105  1.0183  0.4003  1.8949
  394MOL0     H53168  -1.092  13.171  -1.007  0.0104  1.3071  0.5446
  394MOL0     H53169  -1.261  13.170  -1.007  0.1635  3.2777 -0.9362
  394MOL0     H53170  -1.107  13.263  -1.249  0.0309 -3.8995 -0.4405
  394MOL0     H53171  -1.159  13.362  -1.116  0.2433 -1.0359  0.8619
  394MOL0     H53172  -0.437  13.150  -0.742  0.5627  0.3504  1.9506
  394MOL0     H53173  -0.207  13.131  -0.655 -1.7083  0.2665 -0.7907
  394MOL0     H53174   0.080  12.837  -0.511 -0.5257  0.0729 -2.2908
  394MOL0     H53175   0.279  12.751  -0.388 -0.1861  0.9664  1.3650
  394MOL0     H53176   0.476  11.378   0.282  1.7148  0.9451 -1.0830
  394MOL0     H53177   0.243  11.355   0.242 -0.6965 -1.6697 -1.5460
  394MOL0     H53178  -0.186  11.265   0.140  0.0341 -0.5427  0.1848
  394MOL0     H53179  -0.338  11.171  -0.037 -0.7206  1.2801 -0.7262
  394MOL0     H53180  -0.474  11.147  -0.193 -0.1745  1.1762  1.3947
  394MOL0     H53181  -0.547  11.302  -0.170  0.8204  0.8630 -0.0523
  394MOL0     H53182  -0.700  11.191  -0.312 -0.2425  2.8994  1.9318
  394MOL0     H53183  -0.566  11.142  -0.422  0.3692 -1.4883  1.2836
  394MOL0     H53184  -0.545  11.402  -0.469 -1.1023  1.6237 -0.0491
  394MOL0     H53185  -0.659  11.433  -0.356  1.4513  0.0872 -0.0969
  394MOL0     H53186  -0.825  11.273  -0.474 -0.3179  3.1705  4.1797
  394MOL0     H53187  -0.723  11.270  -0.609 -0.9213  0.7330 -0.6878
  394MOL0     H53188  -0.937  11.640  -0.625 -0.3565  0.1310  1.8563
  394MOL0     H53189  -0.168  11.456  -0.320  1.5980  0.6889  0.8098
  394MOL0     H53190  -0.006  11.511  -0.144 -1.1312  0.7094 -0.0644
  395MOL0     O53191  10.942   0.222   3.195 -1.0636 -1.3316 -0.1589
  395MOL0     C53192  10.930   0.205   3.313  0.1273  0.7605  0.0685
  395MOL0     O53193  10.965   0.099   3.387  0.3583  0.7756  0.4166
  395MOL0     C53194  11.044   0.006   3.332 -0.6204 -0.9017 -0.9419
  395MOL0     C53195  11.119  -0.059   3.432  0.5334  0.1530 -0.6415
  395MOL0     C53196  11.211  -0.153   3.396  0.5996 -0.1270 -0.1065
  395MOL0     C53197  11.221  -0.191   3.264  0.7644  1.3420  1.0284
  395MOL0     O53198  11.330  -0.271   3.225 -0.3342 -0.5184  0.3578
  395MOL0     C53199  11.456  -0.203   3.242  0.1838 -0.7260 -1.1738
  395MOL0     C53200  11.559  -0.272   3.150 -0.3885 -0.4030  0.7669
  395MOL0     C53201  11.684  -0.195   3.149 -0.2497  0.3075  0.6042
  395MOL0     C53202  11.785  -0.248   3.048 -0.3245 -0.0910  0.3075
  395MOL0     C53203  11.929  -0.181   3.039 -0.1195  0.3567  0.5540
  395MOL0     C53204  12.042  -0.263   2.965 -0.0046 -0.6013 -0.0004
  395MOL0     C53205  12.187  -0.212   2.972  0.7758 -0.3490  0.1436
  395MOL0     C53206  12.237  -0.102   2.867 -0.1803  0.2638  0.1102
  395MOL0     N53207  12.290  -0.168   2.749 -0.0159  0.0772 -0.1217
  395MOL0     C53208  12.421  -0.176   2.717 -0.8427 -0.3540  0.3048
  395MOL0     C53209  12.423  -0.263   2.618 -0.1387  0.2076  0.0986
  395MOL0     C53210  12.526  -0.318   2.534  0.4068  0.3276  0.2233
  395MOL0     C53211  12.622  -0.226   2.457 -0.0886 -0.4352  0.2868
  395MOL0     C53212  12.736  -0.314   2.396 -0.3343  0.1420  0.7577
  395MOL0     C53213  12.824  -0.244   2.296 -0.8241  0.1754 -0.2703
  395MOL0     O53214  12.957  -0.292   2.304 -0.0190 -0.5013  0.4295
  395MOL0     C53215  13.047  -0.265   2.206  0.1992 -0.1716 -0.9145
  395MOL0     C53216  13.038  -0.180   2.097 -0.8018 -0.5378 -0.4781
  395MOL0     C53217  13.153  -0.134   2.030  0.4912 -0.3105  0.2516
  395MOL0     C53218  13.132  -0.028   1.918 -0.1743 -0.4034  0.0162
  395MOL0     C53219  13.278  -0.201   2.055 -0.0100  0.6178 -0.4275
  395MOL0     C53220  13.403  -0.192   1.974 -0.4100  0.0207 -0.3173
  395MOL0     O53221  13.514  -0.240   2.015 -0.1411 -0.0249 -0.3954
  395MOL0     C53222  13.629  -0.255   1.933 -0.4511  0.5883  0.2116
  395MOL0     C53223  13.645  -0.369   1.853  0.6398  0.4940 -0.8130
  395MOL0     C53224  13.762  -0.384   1.769  1.0059  0.4270 -0.5551
  395MOL0     C53225  13.860  -0.284   1.762 -0.4747  0.1134  0.3979
  395MOL0     O53226  13.966  -0.286   1.668  0.0213  0.0692 -0.4681
  395MOL0     C53227  13.957  -0.391   1.566 -0.2414 -0.5165 -0.2301
  395MOL0     C53228  14.022  -0.341   1.435 -0.4888  0.0649 -0.2366
  395MOL0     C53229  14.052  -0.459   1.344 -0.4354 -0.1218 -0.3061
  395MOL0     C53230  14.074  -0.415   1.198  0.1316 -0.3429  0.5295
  395MOL0     C53231  14.127  -0.526   1.107 -0.1315 -0.2349 -0.1781
  395MOL0     C53232  14.282  -0.530   1.100  0.5756 -0.2333  0.0556
  395MOL0     C53233  14.326  -0.612   0.977  1.0210 -1.0578 -0.2729
  395MOL0     C53234  14.476  -0.640   0.984 -0.2256  0.7364  0.1258
  395MOL0    Cl53235  14.514  -0.764   1.105 -0.3778  0.4339  0.5257
  395MOL0     C53236  13.845  -0.171   1.841 -0.6800  1.2667 -0.2801
  395MOL0     C53237  13.728  -0.154   1.926 -0.1708 -0.1342  0.1082
  395MOL0     O53238  13.399  -0.123   1.880  0.3095 -0.5389  0.0414
  395MOL0     C53239  13.278  -0.299   2.153 -0.1791 -0.7043  0.9023
  395MOL0     C53240  13.166  -0.322   2.227  0.2318 -0.0683 -0.4794
  395MOL0     N53241  12.291  -0.303   2.582  0.3743  0.3382  0.1875
  395MOL0     N53242  12.208  -0.237   2.659  1.0766  0.0690 -0.2885
  395MOL0     C53243  11.146  -0.140   3.166 -0.0631 -0.4071 -0.7128
  395MOL0     C53244  11.047  -0.046   3.202  0.6692  0.1183  0.1398
  395MOL0     C53245  10.844   0.313   3.385 -0.2745 -0.2223 -0.0751
  395MOL0     C53246  10.758   0.410   3.321  0.1460 -0.1355 -0.0355
  395MOL0     C53247  10.685   0.502   3.399  0.5977  0.3874  0.1853
  395MOL0     C53248  10.677   0.489   3.540  0.1364 -0.1340 -0.0227
  395MOL0     O53249  10.582   0.562   3.594  0.4251 -0.6146 -0.2499
  395MOL0     C53250  10.508   0.518   3.711  0.3446  0.2546 -0.2910
  395MOL0     C53251  10.445   0.639   3.762 -0.1852 -0.8133 -1.0882
  395MOL0     C53252  10.333   0.688   3.664 -0.0723 -0.2047  0.2010
  395MOL0     C53253  10.311   0.837   3.664 -0.0563 -0.4716 -0.0034
  395MOL0     C53254  10.260   0.871   3.802 -0.7135  0.6501 -0.1075
  395MOL0     C53255  10.217   0.880   3.911  1.1152  0.3848 -0.8363
  395MOL0     C53256  10.766   0.408   3.608  0.1182  0.1527  0.3575
  395MOL0     C53257  10.842   0.318   3.528  0.1718 -1.1562 -0.1012
  395MOL0     H53258  11.107  -0.049   3.540 -2.5275 -1.6328 -0.7193
  395MOL0     H53259  11.283  -0.188   3.470 -0.5938 -1.4660  0.4729
  395MOL0     H53260  11.440  -0.095   3.232  1.1387 -0.7438 -3.4574
  395MOL0     H53261  11.475  -0.222   3.348  1.0401  1.7417 -0.8098
  395MOL0     H53262  11.584  -0.372   3.186 -0.9673 -0.8400 -0.0095
  395MOL0     H53263  11.516  -0.264   3.050 -1.9598 -1.9808  1.2760
  395MOL0     H53264  11.664  -0.093   3.116 -1.8418  0.0832  0.7879
  395MOL0     H53265  11.738  -0.192   3.244  1.4144 -0.8842 -0.2599
  395MOL0     H53266  11.806  -0.350   3.083  0.2254 -0.3620 -0.7864
  395MOL0     H53267  11.745  -0.255   2.947  0.4848 -1.3910  0.0547
  395MOL0     H53268  11.901  -0.097   2.975  0.7138 -0.8670 -1.5201
  395MOL0     H53269  11.964  -0.149   3.138  0.9842  0.1969  0.2256
  395MOL0     H53270  12.038  -0.366   3.002 -1.2356 -1.0945 -1.3784
  395MOL0     H53271  12.016  -0.269   2.858  0.5295  2.5142 -0.3981
  395MOL0     H53272  12.205  -0.167   3.070 -0.7491  0.6451  0.0119
  395MOL0     H53273  12.252  -0.299   2.963  1.9838  0.4007  1.3458
  395MOL0     H53274  12.315  -0.044   2.916  0.2856 -2.5139  3.0149
  395MOL0     H53275  12.152  -0.035   2.848  0.4696  1.1561  0.2962
  395MOL0     H53276  12.507  -0.132   2.767 -1.0269 -0.2934  0.5707
  395MOL0     H53277  12.590  -0.372   2.604  3.4046  1.6468 -1.3610
  395MOL0     H53278  12.481  -0.396   2.470  1.3281 -1.5987  1.8117
  395MOL0     H53279  12.664  -0.149   2.523  0.9862 -1.0643  0.3536
  395MOL0     H53280  12.573  -0.174   2.374 -1.8782  1.9435  2.6261
  395MOL0     H53281  12.703  -0.405   2.346 -1.6338 -0.0610  1.9354
  395MOL0     H53282  12.797  -0.350   2.479  2.0974  0.3002 -0.8670
  395MOL0     H53283  12.830  -0.136   2.313 -0.8052 -0.2574  3.2190
  395MOL0     H53284  12.777  -0.259   2.198 -1.6187  1.0112 -0.0343
  395MOL0     H53285  12.943  -0.148   2.055  0.3005 -1.1186 -3.7403
  395MOL0     H53286  13.145  -0.063   1.815 -2.6425  0.7762 -0.7830
  395MOL0     H53287  13.028   0.007   1.919 -0.1452 -0.2134 -1.1577
  395MOL0     H53288  13.192   0.062   1.935 -1.2264  0.0324  1.6241
  395MOL0     H53289  13.571  -0.449   1.858 -0.6398  1.6351  3.5047
  395MOL0     H53290  13.765  -0.484   1.726 -0.6654  0.7580 -1.5067
  395MOL0     H53291  14.002  -0.483   1.606 -2.8055 -0.4258  3.3373
  395MOL0     H53292  13.857  -0.421   1.532 -0.9415  1.3309  0.0812
  395MOL0     H53293  13.968  -0.262   1.382 -0.3011  1.2431  1.2613
  395MOL0     H53294  14.125  -0.316   1.460 -0.6031  0.0386  0.2598
  395MOL0     H53295  13.968  -0.529   1.352  0.8188 -1.4238  2.6253
  395MOL0     H53296  14.134  -0.523   1.377 -0.6994 -1.0681 -1.4197
  395MOL0     H53297  13.993  -0.373   1.137  1.6485 -0.4609 -1.6816
  395MOL0     H53298  14.151  -0.338   1.199  0.6329 -0.8441  0.5053
  395MOL0     H53299  14.100  -0.513   1.002 -1.0354  1.3418  0.2211
  395MOL0     H53300  14.088  -0.616   1.156  1.9039 -0.0358  2.0154
  395MOL0     H53301  14.321  -0.430   1.082  1.0142 -0.3145  0.5159
  395MOL0     H53302  14.322  -0.577   1.191  1.5203 -0.8867 -0.6802
  395MOL0     H53303  14.293  -0.566   0.883 -1.1738 -3.2177 -0.6728
  395MOL0     H53304  14.275  -0.708   0.979  1.2513 -1.2122  2.7851
  395MOL0     H53305  14.529  -0.547   1.005 -0.6246  1.2808 -1.1786
  395MOL0     H53306  14.511  -0.686   0.891 -0.0848 -0.5542  0.7906
  395MOL0     H53307  13.926  -0.099   1.843 -0.7793  1.3821  1.1803
  395MOL0     H53308  13.705  -0.065   1.983 -4.1982 -0.0001 -1.4076
  395MOL0     H53309  13.367  -0.356   2.177  1.0484  1.4637  1.8217
  395MOL0     H53310  13.170  -0.387   2.314  0.2321 -1.3912 -1.4237
  395MOL0     H53311  11.162  -0.180   3.066  1.4619 -0.4342 -0.4834
  395MOL0     H53312  10.975  -0.013   3.128  2.7301 -0.4655 -2.2863
  395MOL0     H53313  10.752   0.406   3.213 -1.4563 -2.1038  0.0721
  395MOL0     H53314  10.624   0.582   3.358  3.1096  2.1712 -0.3055
  395MOL0     H53315  10.427   0.447   3.688 -1.9150  3.2760 -2.4457
  395MOL0     H53316  10.575   0.476   3.786 -0.2341  0.5667  0.4172
  395MOL0     H53317  10.519   0.719   3.774 -4.4597  4.1199 -3.5250
  395MOL0     H53318  10.408   0.603   3.859  0.8486  3.1714  1.0178
  395MOL0     H53319  10.240   0.632   3.679  1.0760 -2.3004 -0.1429
  395MOL0     H53320  10.358   0.655   3.563 -3.2273  0.1691 -0.8122
  395MOL0     H53321  10.235   0.874   3.594 -0.6178 -0.4960  0.5867
  395MOL0     H53322  10.405   0.886   3.638  1.9042 -4.5333 -1.4019
  395MOL0     H53323  10.195   0.905   4.013 -0.5713 -0.6365 -0.9052
  395MOL0     H53324  10.781   0.417   3.715 -0.8951  2.3197  0.3639
  395MOL0     H53325  10.891   0.249   3.596 -0.7292  2.2444  4.5552
  396MOL0     O53326   3.896   1.549  10.144  0.5745  0.6363 -0.7915
  396MOL0     C53327   3.976   1.637  10.176 -0.0327 -1.3172 -0.2840
  396MOL0     O53328   3.949   1.745  10.246 -0.7880 -0.9291  0.7637
  396MOL0     C53329   3.817   1.776  10.272 -0.1700 -0.0139  0.5476
  396MOL0     C53330   3.725   1.831  10.181  0.0626 -0.4320 -0.3862
  396MOL0     C53331   3.591   1.856  10.202  1.1221  0.6621  0.5279
  396MOL0     C53332   3.546   1.842  10.334  0.0506 -0.1336 -0.1266
  396MOL0     O53333   3.425   1.891  10.364 -0.6685  0.3445  0.3055
  396MOL0     C53334   3.371   1.845  10.487  0.3963 -0.6811  0.2114
  396MOL0     C53335   3.216   1.834  10.479 -0.0033  0.1623 -0.2275
  396MOL0     C53336   3.149   1.813  10.618  0.5658 -0.0698  0.2909
  396MOL0     C53337   3.012   1.757  10.596  0.0728  0.4227  0.0282
  396MOL0     C53338   2.936   1.735  10.731 -0.2473  0.0395  0.3143
  396MOL0     C53339   2.893   1.867  10.810 -0.4191 -0.3342  0.0050
  396MOL0     C53340   2.911   1.860  10.962  0.1518 -0.3047  0.0816
  396MOL0     C53341   2.795   1.800  11.040  0.8593  0.7107  0.3489
  396MOL0     N53342   2.706   1.895  11.102 -0.0488  0.2317  0.3808
  396MOL0     C53343   2.612   1.871  11.197  0.1492  0.8979 -0.3939
  396MOL0     C53344   2.552   1.998  11.226  0.4993 -0.5548 -0.1725
  396MOL0     C53345   2.432   2.034  11.308 -0.4076 -1.1496 -0.1183
  396MOL0     C53346   2.482   2.093  11.436  0.9950  0.2961  0.4587
  396MOL0     C53347   2.357   2.128  11.524  0.0524 -0.6533  0.9364
  396MOL0     C53348   2.406   2.119  11.667  0.0483  0.4565  1.0403
  396MOL0     O53349   2.460   1.983  11.694 -0.4070 -0.7508  0.5264
  396MOL0     C53350   2.378   1.878  11.731  0.0956  0.4744  0.4366
  396MOL0     C53351   2.431   1.771  11.801 -1.0369  0.8560  0.2739
  396MOL0     C53352   2.362   1.652  11.819  0.7615 -0.3728 -0.8300
  396MOL0     C53353   2.439   1.536  11.882 -0.3718  0.3372  0.5168
  396MOL0     C53354   2.223   1.642  11.787 -0.5120 -0.0841  0.2081
  396MOL0     C53355   2.131   1.523  11.815  0.0723 -0.6932  0.2305
  396MOL0     O53356   2.005   1.531  11.768 -0.2156  0.9943  0.5003
  396MOL0     C53357   1.915   1.433  11.793  0.2830  0.2467  1.0910
  396MOL0     C53358   1.816   1.473  11.881 -0.1660 -0.7230  0.3823
  396MOL0     C53359   1.722   1.379  11.913 -0.0502  0.0516 -0.6034
  396MOL0     C53360   1.715   1.249  11.855  0.4367 -0.1228 -0.5120
  396MOL0     O53361   1.601   1.181  11.907 -0.2024 -0.1489  0.2260
  396MOL0     C53362   1.635   1.067  11.981 -0.6265  0.5611 -0.1326
  396MOL0     C53363   1.540   1.059  12.096 -0.8777  0.0285 -0.2848
  396MOL0     C53364   1.572   0.945  12.193 -0.2675 -0.6311  0.4999
  396MOL0     C53365   1.462   0.906  12.294  0.0241 -0.3019  0.0144
  396MOL0     C53366   1.498   0.809  12.412  0.5590  0.4630  0.2400
  396MOL0     C53367   1.533   0.656  12.363  0.2491  0.7233  0.8314
  396MOL0     C53368   1.438   0.555  12.442  0.3851  0.3418 -0.6034
  396MOL0     C53369   1.292   0.565  12.408  1.2485 -0.1514 -0.0305
  396MOL0    Cl53370   1.207   0.405  12.455 -0.1526 -0.3533  0.8917
  396MOL0     C53371   1.825   1.214  11.775  0.8438 -0.1423 -1.2906
  396MOL0     C53372   1.924   1.304  11.740  0.9414  0.4258  0.9986
  396MOL0     O53373   2.176   1.426  11.880  0.2120  0.1167  0.3033
  396MOL0     C53374   2.169   1.758  11.724  0.8741 -0.4084 -0.1236
  396MOL0     C53375   2.243   1.875  11.701 -0.7938  0.1145  0.5735
  396MOL0     N53376   2.616   2.085  11.142 -0.5093 -0.3206  0.0282
  396MOL0     N53377   2.712   2.030  11.087 -0.1988 -0.1991  0.2478
  396MOL0     C53378   3.640   1.793  10.429 -0.1053  0.8267 -0.6206
  396MOL0     C53379   3.768   1.753  10.398 -0.5586 -0.7878 -0.6144
  396MOL0     C53380   4.120   1.618  10.156 -0.5523 -0.3129 -0.0509
  396MOL0     C53381   4.150   1.501  10.082 -0.2952 -0.7535  0.0819
  396MOL0     C53382   4.281   1.470  10.053 -0.6101 -0.6003  0.1704
  396MOL0     C53383   4.385   1.557  10.107  0.4725  0.9672 -0.2509
  396MOL0     O53384   4.517   1.531  10.107  0.2934  0.8645 -0.2047
  396MOL0     C53385   4.568   1.454  10.000  0.3615 -0.8721 -0.1489
  396MOL0     C53386   4.707   1.511   9.958  0.8251 -0.0109 -0.9646
  396MOL0     C53387   4.768   1.437   9.835 -1.0231 -0.7570 -0.2836
  396MOL0     C53388   4.912   1.475   9.826  0.7241 -0.2467 -0.1386
  396MOL0     C53389   4.989   1.415   9.933  0.0310  0.2299 -0.1928
  396MOL0     C53390   5.050   1.372  10.023  0.2540  0.7534  0.0293
  396MOL0     C53391   4.360   1.668  10.185  1.8134  0.3729  0.3701
  396MOL0     C53392   4.220   1.695  10.219 -0.5389  0.0803 -0.0805
  396MOL0     H53393   3.762   1.841  10.079 -1.1508 -3.6782 -1.2721
  396MOL0     H53394   3.530   1.904  10.127  3.0616 -1.7971 -2.9311
  396MOL0     H53395   3.415   1.748  10.510  1.2726  0.1478  2.3227
  396MOL0     H53396   3.401   1.922  10.560  1.6937 -0.0522 -0.9363
  396MOL0     H53397   3.181   1.929  10.437 -2.1285 -1.7218 -3.0604
  396MOL0     H53398   3.192   1.753  10.409  0.7181  0.8100 -1.2544
  396MOL0     H53399   3.210   1.762  10.693 -1.0858 -0.8604  1.1708
  396MOL0     H53400   3.129   1.916  10.650 -0.5529 -0.7557  1.9998
  396MOL0     H53401   2.953   1.823  10.531  2.4896  1.2091 -1.4959
  396MOL0     H53402   3.029   1.667  10.536  1.7524  2.8553 -3.4765
  396MOL0     H53403   2.853   1.664  10.724 -0.3516  0.2541 -0.8895
  396MOL0     H53404   3.001   1.674  10.794 -2.3753  0.0096  2.6244
  396MOL0     H53405   2.963   1.944  10.776 -0.9521  0.9763  1.7209
  396MOL0     H53406   2.792   1.903  10.789 -0.0290  1.8840  1.5285
  396MOL0     H53407   3.001   1.798  10.977  1.3794  2.0002  3.6546
  396MOL0     H53408   2.945   1.958  10.997  1.5205 -1.2132  1.4685
  396MOL0     H53409   2.835   1.728  11.112  0.3701  0.5181  0.4326
  396MOL0     H53410   2.736   1.738  10.971 -1.4828  0.4689  2.4372
  396MOL0     H53411   2.579   1.784  11.253 -1.5642  2.1452  0.6452
  396MOL0     H53412   2.372   2.105  11.249 -0.0413  1.7479  2.6712
  396MOL0     H53413   2.362   1.951  11.319 -3.2405  0.3210 -4.3402
  396MOL0     H53414   2.542   2.182  11.415 -0.3710  0.6899 -2.2612
  396MOL0     H53415   2.548   2.013  11.471  3.1143  0.4582 -2.7366
  396MOL0     H53416   2.270   2.069  11.496  0.6398 -0.1659 -2.3586
  396MOL0     H53417   2.329   2.232  11.506  0.2474 -0.6501  0.6414
  396MOL0     H53418   2.323   2.148  11.732 -0.0167 -1.5005  1.9077
  396MOL0     H53419   2.479   2.198  11.687 -0.2709  0.6349  1.5081
  396MOL0     H53420   2.534   1.798  11.821  0.2158 -2.5160 -1.0359
  396MOL0     H53421   2.436   1.455  11.809  1.0136  3.3703 -3.3257
  396MOL0     H53422   2.544   1.568  11.884  1.0880 -3.8518  0.0430
  396MOL0     H53423   2.405   1.508  11.982  2.3611 -1.3442  1.0687
  396MOL0     H53424   1.826   1.564  11.940  1.9951 -1.3783  1.1478
  396MOL0     H53425   1.637   1.398  11.978 -3.1136  0.8642 -4.5051
  396MOL0     H53426   1.613   0.983  11.914  2.3569  1.1824 -2.0924
  396MOL0     H53427   1.738   1.070  12.018  0.0552  1.0244 -1.9478
  396MOL0     H53428   1.543   1.154  12.151 -0.3741 -0.5911  0.7995
  396MOL0     H53429   1.437   1.054  12.057 -1.9639 -0.0256  2.3615
  396MOL0     H53430   1.661   0.973  12.251 -0.4466  0.2495  0.3683
  396MOL0     H53431   1.604   0.854  12.141 -1.9382  0.1872 -2.1947
  396MOL0     H53432   1.417   0.991  12.345  0.2189  0.4806 -1.0936
  396MOL0     H53433   1.388   0.846  12.242  0.2914 -2.1479  1.6456
  396MOL0     H53434   1.411   0.801  12.478  1.7946 -2.2646  1.7330
  396MOL0     H53435   1.583   0.850  12.467 -0.4183  1.7172  0.8653
  396MOL0     H53436   1.499   0.641  12.260  0.5204  0.6039  0.7588
  396MOL0     H53437   1.635   0.633  12.395  0.5521  1.2529  0.2481
  396MOL0     H53438   1.443   0.571  12.550 -1.6138 -5.3954  0.6894
  396MOL0     H53439   1.474   0.456  12.415 -0.1875  0.2946 -1.2347
  396MOL0     H53440   1.289   0.574  12.299  1.5032 -0.3697 -0.0567
  396MOL0     H53441   1.237   0.650  12.449 -0.2040 -2.1542  2.5049
  396MOL0     H53442   1.825   1.114  11.732  3.8345 -0.5906 -0.4522
  396MOL0     H53443   2.006   1.277  11.675 -1.0083 -0.7119 -1.1086
  396MOL0     H53444   2.065   1.762  11.694  0.7041  0.0740  0.5033
  396MOL0     H53445   2.184   1.954  11.656 -2.7968 -0.8309  1.4201
  396MOL0     H53446   3.605   1.782  10.531  0.7292 -2.8669 -0.5868
  396MOL0     H53447   3.822   1.715  10.484 -2.0673  2.0654  1.7845
  396MOL0     H53448   4.074   1.428  10.058 -1.9558  0.5226  1.2304
  396MOL0     H53449   4.287   1.382   9.989 -2.6055  0.3460 -1.4440
  396MOL0     H53450   4.592   1.360  10.050  1.4471 -0.6843 -0.3005
  396MOL0     H53451   4.506   1.429   9.913  1.2634 -2.3799 -0.3988
  396MOL0     H53452   4.765   1.501  10.050 -1.8021  1.2526  0.9573
  396MOL0     H53453   4.682   1.616   9.936 -1.2419 -0.6653 -2.0041
  396MOL0     H53454   4.716   1.485   9.752 -1.9588 -1.3482 -0.0476
  396MOL0     H53455   4.754   1.329   9.820  2.2742 -1.1355 -1.5760
  396MOL0     H53456   4.932   1.582   9.826  2.1845 -0.3913 -3.3534
  396MOL0     H53457   4.948   1.435   9.731  0.9539  0.6251 -0.4267
  396MOL0     H53458   5.116   1.350  10.105  2.4545  0.7553 -1.6402
  396MOL0     H53459   4.453   1.716  10.213  1.5281  0.2710  1.5421
  396MOL0     H53460   4.195   1.782  10.278  2.7702  1.7051 -0.8195
  397MOL0     O53461   1.060   6.536   9.792  0.4710 -0.3884  0.5676
  397MOL0     C53462   1.178   6.574   9.798 -0.5696 -0.7110 -0.4107
  397MOL0     O53463   1.228   6.692   9.746 -0.8661 -0.7303  0.0965
  397MOL0     C53464   1.136   6.787   9.703 -0.1003  0.3689  0.3400
  397MOL0     C53465   1.172   6.922   9.725 -0.9098 -0.0948 -0.5156
  397MOL0     C53466   1.091   7.028   9.694  0.6841 -0.0389 -0.2439
  397MOL0     C53467   0.977   7.002   9.615 -0.1640 -0.7627 -0.8078
  397MOL0     O53468   0.898   7.101   9.558 -0.4563  0.4040  0.0227
  397MOL0     C53469   0.924   7.242   9.579  0.1149  0.5837  1.2689
  397MOL0     C53470   0.823   7.314   9.512  0.8072 -0.7889  0.1723
  397MOL0     C53471   0.719   7.376   9.606  0.6781 -1.2089 -0.4092
  397MOL0     C53472   0.619   7.265   9.644  0.7522 -0.3271 -0.4501
  397MOL0     C53473   0.496   7.332   9.701  0.8223 -0.9002  0.1563
  397MOL0     C53474   0.389   7.238   9.752  0.6278  0.5485  0.6863
  397MOL0     C53475   0.333   7.142   9.644 -0.0546  0.0330  0.4246
  397MOL0     C53476   0.212   7.065   9.689 -0.3646  0.6655 -0.0578
  397MOL0     N53477   0.111   7.167   9.736 -0.2874 -0.8978 -0.5676
  397MOL0     C53478   0.068   7.266   9.661  0.3625 -0.2492  0.5182
  397MOL0     C53479   0.005   7.347   9.751  0.8485 -0.5660  0.0868
  397MOL0     C53480  -0.073   7.476   9.719  0.5090  0.1014  0.0717
  397MOL0     C53481  -0.187   7.445   9.623  0.7383 -1.2368  0.4953
  397MOL0     C53482  -0.269   7.561   9.583  0.4068 -0.8131 -0.3180
  397MOL0     C53483  -0.391   7.520   9.497  0.4147 -0.4210  0.2311
  397MOL0     O53484  -0.517   7.532   9.573 -0.5531  0.6070  0.8387
  397MOL0     C53485  -0.632   7.534   9.499  0.4917  0.1077  0.4909
  397MOL0     C53486  -0.755   7.551   9.575  1.5003 -0.5156  0.5059
  397MOL0     C53487  -0.886   7.539   9.524 -0.2244 -1.1998  0.6466
  397MOL0     C53488  -0.996   7.559   9.625  0.9393 -0.1998 -0.0026
  397MOL0     C53489  -0.896   7.505   9.390  0.8665 -0.0817  0.3844
  397MOL0     C53490  -1.028   7.471   9.325  0.5095 -0.2304 -0.2405
  397MOL0     O53491  -1.045   7.516   9.197 -0.0059 -0.4160  0.4162
  397MOL0     C53492  -1.172   7.512   9.136 -0.1217 -0.4053 -0.0161
  397MOL0     C53493  -1.290   7.549   9.210 -0.0232  0.3053  0.7859
  397MOL0     C53494  -1.415   7.524   9.153 -1.1230 -0.2014 -0.6495
  397MOL0     C53495  -1.426   7.469   9.025  1.0231  0.6689 -0.5502
  397MOL0     O53496  -1.555   7.450   8.988  0.1257  0.6620  0.0102
  397MOL0     C53497  -1.589   7.363   8.882  0.1628  0.1440  0.1556
  397MOL0     C53498  -1.721   7.393   8.827 -0.0720 -0.0920  0.4664
  397MOL0     C53499  -1.847   7.344   8.893  0.6454  0.2824  0.4484
  397MOL0     C53500  -1.859   7.391   9.041  0.3718 -0.4402 -1.0488
  397MOL0     C53501  -1.840   7.267   9.129  0.4022  0.3038 -0.0637
  397MOL0     C53502  -1.947   7.149   9.121 -0.3550  0.3447  0.3145
  397MOL0     C53503  -2.092   7.202   9.093 -0.4163 -0.1922  0.1400
  397MOL0     C53504  -2.195   7.092   9.120 -0.5075  0.0450  0.1780
  397MOL0    Cl53505  -2.362   7.152   9.119  0.1713 -0.4896  0.3363
  397MOL0     C53506  -1.313   7.432   8.955  0.4213  0.5484  0.1177
  397MOL0     C53507  -1.184   7.460   9.001  1.3369 -0.6137 -0.6459
  397MOL0     O53508  -1.094   7.388   9.389  0.6583 -0.3589 -0.7405
  397MOL0     C53509  -0.779   7.491   9.311 -0.2903  0.2355 -0.4921
  397MOL0     C53510  -0.654   7.501   9.365 -0.7416  0.2791 -0.0231
  397MOL0     N53511   0.027   7.297   9.884  0.1910 -0.3577 -0.0112
  397MOL0     N53512   0.085   7.183   9.871 -1.0745 -0.2117 -0.3594
  397MOL0     C53513   0.958   6.875   9.570 -0.5041  0.3136  0.0635
  397MOL0     C53514   1.027   6.771   9.620 -0.6494  0.6456 -0.0362
  397MOL0     C53515   1.281   6.478   9.844  1.2599  0.3645  0.4414
  397MOL0     C53516   1.409   6.514   9.881  0.1567  0.1134  0.5677
  397MOL0     C53517   1.500   6.422   9.926 -0.2605  0.1092  0.3067
  397MOL0     C53518   1.455   6.288   9.952 -0.4028 -0.2464 -0.4100
  397MOL0     O53519   1.566   6.212   9.987 -0.1234  0.0907  0.1714
  397MOL0     C53520   1.555   6.070   9.999 -0.1475  0.2185 -0.0075
  397MOL0     C53521   1.593   6.004   9.859 -0.0180  0.2012 -0.3905
  397MOL0     C53522   1.539   5.860   9.837  0.2040  1.2190  0.0142
  397MOL0     C53523   1.385   5.867   9.809 -0.0254  0.4128 -0.5951
  397MOL0     C53524   1.343   5.970   9.714 -0.9125  0.4280  0.3030
  397MOL0     C53525   1.297   6.053   9.641 -0.3984  0.0564  0.8032
  397MOL0     C53526   1.325   6.245   9.920  0.3114 -0.4823 -0.2531
  397MOL0     C53527   1.242   6.343   9.860 -0.8016  0.2548  0.0672
  397MOL0     H53528   1.256   6.942   9.791 -1.3214 -0.0305 -0.0040
  397MOL0     H53529   1.115   7.130   9.723  0.2936 -0.2393  0.8525
  397MOL0     H53530   0.928   7.263   9.686  0.7372 -1.8131  1.7952
  397MOL0     H53531   1.019   7.266   9.530 -0.7980 -1.8454 -2.1538
  397MOL0     H53532   0.873   7.402   9.470  3.7714 -1.7460  1.3966
  397MOL0     H53533   0.782   7.258   9.428  3.0210  0.2824 -1.7497
  397MOL0     H53534   0.773   7.411   9.695 -0.5900 -2.5973  0.9744
  397MOL0     H53535   0.663   7.456   9.556  0.5178 -2.1279 -1.7382
  397MOL0     H53536   0.588   7.212   9.553  1.3362  0.8851 -1.3921
  397MOL0     H53537   0.661   7.188   9.709 -0.3424 -0.6145 -0.0691
  397MOL0     H53538   0.528   7.404   9.777 -0.8485  1.3196 -1.1530
  397MOL0     H53539   0.456   7.385   9.614  2.2052 -0.6328 -0.3456
  397MOL0     H53540   0.432   7.180   9.834  2.0071 -0.6333 -0.7939
  397MOL0     H53541   0.309   7.295   9.799 -0.8473 -0.2558 -0.7580
  397MOL0     H53542   0.306   7.197   9.553 -0.7891  0.0282  0.6274
  397MOL0     H53543   0.403   7.069   9.604  2.2327  2.1510  0.3615
  397MOL0     H53544   0.232   6.990   9.767 -2.9347 -2.3659 -2.0627
  397MOL0     H53545   0.164   7.007   9.610 -1.8310  1.3156  0.3116
  397MOL0     H53546   0.075   7.286   9.554 -2.8970  0.0234  0.2313
  397MOL0     H53547  -0.102   7.535   9.806  1.6342 -0.1408  0.6322
  397MOL0     H53548  -0.008   7.547   9.667  0.0494  0.1345 -0.4655
  397MOL0     H53549  -0.248   7.374   9.680 -1.0796 -0.7005 -0.7164
  397MOL0     H53550  -0.164   7.383   9.536 -1.7594 -0.9582 -0.4176
  397MOL0     H53551  -0.222   7.638   9.522  0.7794  0.1523  1.1612
  397MOL0     H53552  -0.313   7.615   9.667 -0.1338 -0.1604 -1.0084
  397MOL0     H53553  -0.374   7.413   9.480  2.2966  0.3212 -3.6944
  397MOL0     H53554  -0.392   7.576   9.403 -3.4830 -0.6103  0.0159
  397MOL0     H53555  -0.735   7.573   9.679  1.3472  2.9170 -0.0903
  397MOL0     H53556  -1.066   7.631   9.581  2.4523  0.8095 -0.8309
  397MOL0     H53557  -1.041   7.462   9.650  0.4338  0.1901  0.6601
  397MOL0     H53558  -0.969   7.608   9.719 -1.0663  2.2651 -0.5849
  397MOL0     H53559  -1.283   7.596   9.308 -0.6619  2.6238 -0.2212
  397MOL0     H53560  -1.502   7.544   9.214 -0.6459  1.2262 -0.4005
  397MOL0     H53561  -1.517   7.369   8.799 -1.1068 -1.5994 -1.1177
  397MOL0     H53562  -1.599   7.258   8.909  0.5670 -0.0122 -0.3000
  397MOL0     H53563  -1.730   7.501   8.817 -2.1194  0.1932  3.6741
  397MOL0     H53564  -1.725   7.350   8.727 -0.0354 -1.3272  0.9689
  397MOL0     H53565  -1.858   7.236   8.877 -1.6738  0.8492 -2.8151
  397MOL0     H53566  -1.932   7.396   8.847  1.4752  1.4636  0.2042
  397MOL0     H53567  -1.787   7.468   9.068  0.1841 -0.4164 -0.6175
  397MOL0     H53568  -1.961   7.427   9.053  0.4027 -0.1219 -1.6875
  397MOL0     H53569  -1.844   7.302   9.232  2.9947  1.3397 -0.2495
  397MOL0     H53570  -1.739   7.228   9.117  1.4760  3.1549 -1.0168
  397MOL0     H53571  -1.913   7.073   9.050 -0.8952 -0.0418  0.4589
  397MOL0     H53572  -1.939   7.104   9.221  1.3569  1.1761  0.5923
  397MOL0     H53573  -2.099   7.248   8.994 -1.9046 -0.0050  0.3093
  397MOL0     H53574  -2.114   7.288   9.158 -0.6588 -0.0541 -0.1257
  397MOL0     H53575  -2.167   7.040   9.212  0.0154 -0.8956 -0.4938
  397MOL0     H53576  -2.193   7.020   9.038 -3.4310 -0.1828  0.2000
  397MOL0     H53577  -1.326   7.378   8.862 -1.4561 -0.5439  0.9507
  397MOL0     H53578  -1.093   7.438   8.946  1.9520  1.5877 -0.6025
  397MOL0     H53579  -0.801   7.464   9.208 -0.6903  3.4163 -1.3471
  397MOL0     H53580  -0.568   7.493   9.299  1.2697 -0.0009  2.4749
  397MOL0     H53581   0.874   6.862   9.502 -0.7937  0.8370  0.3123
  397MOL0     H53582   0.988   6.673   9.591  0.3623 -0.4957  2.2201
  397MOL0     H53583   1.438   6.614   9.853  1.3736 -0.0698  1.1096
  397MOL0     H53584   1.603   6.451   9.945  0.6107 -2.6412  0.2978
  397MOL0     H53585   1.615   6.022  10.077  0.6116  0.3135 -0.5309
  397MOL0     H53586   1.452   6.046  10.030 -0.4047  1.2073 -0.0714
  397MOL0     H53587   1.699   5.980   9.850 -0.2506 -1.1356  0.2891
  397MOL0     H53588   1.563   6.070   9.776  0.2502  2.7107  1.3811
  397MOL0     H53589   1.568   5.786   9.912 -0.0219  1.6355  0.5205
  397MOL0     H53590   1.581   5.809   9.751 -3.1788 -0.8191 -0.5831
  397MOL0     H53591   1.351   5.889   9.911  2.0584 -0.9768  0.4866
  397MOL0     H53592   1.345   5.770   9.778  2.2124 -0.5427 -0.7251
  397MOL0     H53593   1.260   6.136   9.584 -0.6002 -0.4053  0.2518
  397MOL0     H53594   1.292   6.143   9.936 -1.5071  0.1664  0.3765
  397MOL0     H53595   1.142   6.307   9.837 -1.1021 -0.9696  2.9270
  398MOL0     O53596   5.157   7.057   5.675  0.4114  0.1644  0.2382
  398MOL0     C53597   5.239   7.089   5.761  0.0022 -0.5559 -1.3033
  398MOL0     O53598   5.212   7.096   5.896  0.0997 -0.0686  0.0301
  398MOL0     C53599   5.084   7.055   5.929  0.2436  0.5938  0.2479
  398MOL0     C53600   5.054   6.921   5.958  0.2428  0.1419 -0.3687
  398MOL0     C53601   4.931   6.885   6.012  0.3452  0.1411 -0.5138
  398MOL0     C53602   4.825   6.971   6.024  0.4870 -1.7619 -0.6243
  398MOL0     O53603   4.703   6.916   6.038  0.1208 -0.2152 -0.0687
  398MOL0     C53604   4.635   6.957   6.153 -0.3188  0.4046 -0.0481
  398MOL0     C53605   4.605   6.828   6.231 -0.3581 -0.6001 -0.4877
  398MOL0     C53606   4.508   6.891   6.340 -0.0484 -0.1305 -0.5697
  398MOL0     C53607   4.465   6.796   6.448  0.5356  0.7739 -1.3278
  398MOL0     C53608   4.392   6.672   6.393 -0.2128 -0.7600  0.2713
  398MOL0     C53609   4.346   6.588   6.505 -0.4087  0.3753 -0.4056
  398MOL0     C53610   4.306   6.450   6.477  0.4259  0.6116  0.5955
  398MOL0     C53611   4.317   6.345   6.596 -0.1168  0.5476 -0.3002
  398MOL0     N53612   4.269   6.206   6.572  0.0412 -0.5077  0.4362
  398MOL0     C53613   4.143   6.155   6.590 -0.0199  0.6634  0.0611
  398MOL0     C53614   4.133   6.032   6.537 -0.1418 -0.0668 -0.2144
  398MOL0     C53615   4.011   5.942   6.522 -0.3565 -0.9823  0.4621
  398MOL0     C53616   3.928   5.977   6.397 -0.8437  0.1604 -0.3976
  398MOL0     C53617   3.795   5.912   6.392  0.0559 -0.0018  0.4262
  398MOL0     C53618   3.750   5.908   6.244  0.8980  0.3143  0.6180
  398MOL0     O53619   3.767   6.042   6.196 -0.0228 -0.2471  0.1005
  398MOL0     C53620   3.654   6.105   6.149  0.1026  0.6646 -0.2213
  398MOL0     C53621   3.666   6.207   6.058 -0.1828 -0.2282  0.3846
  398MOL0     C53622   3.558   6.281   6.009 -0.4688 -0.3087 -0.8505
  398MOL0     C53623   3.588   6.391   5.915 -0.5631 -0.2779 -1.0605
  398MOL0     C53624   3.429   6.244   6.050  1.0594  0.2310 -0.7041
  398MOL0     C53625   3.304   6.321   6.015 -0.4243  0.3549 -0.1316
  398MOL0     O53626   3.191   6.299   6.093 -1.0632  0.7961 -0.0478
  398MOL0     C53627   3.072   6.361   6.057 -0.3347  0.5423 -0.3285
  398MOL0     C53628   3.004   6.359   5.936 -0.6711 -0.4435  1.1746
  398MOL0     C53629   2.890   6.430   5.911  0.7727 -0.4852 -0.1912
  398MOL0     C53630   2.833   6.506   6.017  0.3906 -0.3097  0.2554
  398MOL0     O53631   2.727   6.585   5.996  0.1973  0.4367 -0.5583
  398MOL0     C53632   2.660   6.596   5.872 -0.1046 -0.8173  1.0495
  398MOL0     C53633   2.549   6.703   5.883  0.3359 -0.1621  0.2465
  398MOL0     C53634   2.476   6.726   5.747 -0.5567 -0.4344 -0.3826
  398MOL0     C53635   2.387   6.604   5.703 -0.3831  0.3720 -0.2452
  398MOL0     C53636   2.307   6.645   5.576 -0.3518  0.6058 -0.0668
  398MOL0     C53637   2.198   6.730   5.623  0.1542 -0.2571  0.5036
  398MOL0     C53638   2.121   6.768   5.491 -0.4685  0.4241  0.1593
  398MOL0     C53639   1.991   6.844   5.528 -0.6838  0.6869  0.0244
  398MOL0    Cl53640   1.894   6.874   5.378 -0.1689 -0.3604 -0.1668
  398MOL0     C53641   2.879   6.504   6.154 -0.5964  0.4210  0.7769
  398MOL0     C53642   3.001   6.423   6.168 -0.1600 -0.2655  0.5034
  398MOL0     O53643   3.309   6.403   5.929 -0.1251 -0.4651  0.1291
  398MOL0     C53644   3.416   6.139   6.148 -1.0333  0.6472  0.3230
  398MOL0     C53645   3.528   6.077   6.204  0.2775 -0.9245 -0.5085
  398MOL0     N53646   4.254   6.013   6.483 -0.3627  0.4393  0.3668
  398MOL0     N53647   4.336   6.112   6.496  0.5140 -0.6711 -0.7814
  398MOL0     C53648   4.847   7.104   5.992  0.5017  0.8306  0.1340
  398MOL0     C53649   4.980   7.147   5.943 -0.2325 -0.4803 -0.3698
  398MOL0     C53650   5.376   7.127   5.724  1.1307 -0.4794 -0.5588
  398MOL0     C53651   5.423   7.139   5.594  0.3879 -0.8770 -0.7578
  398MOL0     C53652   5.560   7.158   5.567  0.7453 -0.4070 -0.7046
  398MOL0     C53653   5.648   7.174   5.667  0.5879  0.0329 -0.3914
  398MOL0     O53654   5.776   7.196   5.626  0.5415 -0.0889 -0.1178
  398MOL0     C53655   5.835   7.091   5.547  0.2832 -0.2523 -0.3840
  398MOL0     C53656   5.972   7.129   5.507 -0.4700 -0.5473 -0.6935
  398MOL0     C53657   6.040   7.009   5.441  0.8596  0.5282 -0.0886
  398MOL0     C53658   6.090   7.049   5.298 -0.5049 -1.2789  0.7555
  398MOL0     C53659   5.977   7.014   5.219  0.1872  0.1640  1.1782
  398MOL0     C53660   5.885   6.972   5.151 -0.5103  0.4937 -0.3485
  398MOL0     C53661   5.607   7.159   5.797 -0.6962 -1.0356  0.4756
  398MOL0     C53662   5.474   7.142   5.824 -0.1227 -0.1973 -0.2012
  398MOL0     H53663   5.131   6.845   5.950  2.3209  2.3270 -4.4498
  398MOL0     H53664   4.916   6.783   6.046 -0.0515  0.3947  0.1058
  398MOL0     H53665   4.697   7.025   6.212  3.4041 -1.2417 -1.7174
  398MOL0     H53666   4.543   7.002   6.115  0.1339  1.5497  0.1533
  398MOL0     H53667   4.549   6.760   6.166 -2.1874  0.0156  0.3699
  398MOL0     H53668   4.697   6.779   6.262 -0.4017 -0.1327  0.3938
  398MOL0     H53669   4.548   6.985   6.379 -0.3213 -0.8296  1.5645
  398MOL0     H53670   4.418   6.918   6.285 -0.8776 -1.0578  0.2791
  398MOL0     H53671   4.548   6.759   6.509 -2.3963 -0.7452  2.1045
  398MOL0     H53672   4.391   6.843   6.512 -0.7430 -0.5948 -1.7414
  398MOL0     H53673   4.306   6.703   6.334  0.9999  2.8023  0.1531
  398MOL0     H53674   4.468   6.619   6.336 -0.0030  0.2054 -0.3662
  398MOL0     H53675   4.416   6.588   6.590 -1.0044  2.9359  0.1642
  398MOL0     H53676   4.256   6.635   6.544  0.8793  2.2025  0.5524
  398MOL0     H53677   4.200   6.459   6.451  0.1554  1.2002  1.8288
  398MOL0     H53678   4.363   6.405   6.395  0.0657  3.1392 -1.1301
  398MOL0     H53679   4.261   6.385   6.681  0.0812 -0.4369  0.2985
  398MOL0     H53680   4.425   6.341   6.608 -0.2148 -1.5871  0.2191
  398MOL0     H53681   4.063   6.208   6.640 -2.0289 -0.3908 -1.8474
  398MOL0     H53682   4.040   5.837   6.505  2.2133 -0.4120  0.8672
  398MOL0     H53683   3.955   5.953   6.615  2.5257  0.1251  2.1713
  398MOL0     H53684   3.991   5.951   6.311 -0.6675 -1.0619  0.0868
  398MOL0     H53685   3.901   6.082   6.412 -0.1850  0.5894 -2.0075
  398MOL0     H53686   3.719   5.968   6.447  0.6714 -0.5947  1.9287
  398MOL0     H53687   3.804   5.816   6.443  2.9808 -1.3992 -2.3273
  398MOL0     H53688   3.653   5.858   6.236  2.4670 -2.7812 -0.5383
  398MOL0     H53689   3.811   5.842   6.182  0.1923  0.0508  0.1895
  398MOL0     H53690   3.765   6.225   6.019 -1.2509 -1.0678 -3.0098
  398MOL0     H53691   3.544   6.481   5.958 -0.8095 -0.5529 -0.7224
  398MOL0     H53692   3.694   6.408   5.897 -0.2266 -1.1362 -0.0020
  398MOL0     H53693   3.540   6.362   5.821 -2.9767  2.0022 -0.6642
  398MOL0     H53694   3.055   6.298   5.861  1.2584 -1.4616  3.1796
  398MOL0     H53695   2.859   6.449   5.809 -0.9008 -0.2523  0.3334
  398MOL0     H53696   2.734   6.634   5.802 -1.8060  1.2869  0.2890
  398MOL0     H53697   2.625   6.498   5.838  2.4596 -0.9516 -1.5653
  398MOL0     H53698   2.471   6.671   5.952  0.2488 -2.0054 -0.6400
  398MOL0     H53699   2.595   6.794   5.922 -1.7056 -0.4978  3.7674
  398MOL0     H53700   2.553   6.742   5.670 -1.0930  0.4048 -0.7603
  398MOL0     H53701   2.419   6.820   5.747  0.1111 -0.0099 -0.8523
  398MOL0     H53702   2.454   6.525   5.670 -0.9232  1.5277 -4.9865
  398MOL0     H53703   2.325   6.561   5.782  0.5844 -1.7473 -0.5722
  398MOL0     H53704   2.274   6.554   5.526 -2.2365  1.1870  0.0364
  398MOL0     H53705   2.373   6.693   5.503 -1.3527 -1.5810 -2.5692
  398MOL0     H53706   2.147   6.666   5.696 -0.4385  1.5429  1.7244
  398MOL0     H53707   2.234   6.828   5.656 -0.7778  1.4328 -2.9827
  398MOL0     H53708   2.103   6.673   5.442 -1.4500 -1.1390  3.2553
  398MOL0     H53709   2.186   6.822   5.421 -1.9770  2.1110 -0.0216
  398MOL0     H53710   2.026   6.939   5.568 -0.0233  0.9433 -1.0999
  398MOL0     H53711   1.933   6.794   5.606  0.5806  1.1981  1.3158
  398MOL0     H53712   2.838   6.546   6.246  0.5598  0.1890  1.4304
  398MOL0     H53713   3.038   6.396   6.266  0.5309  1.4100  0.7373
  398MOL0     H53714   3.316   6.110   6.180 -1.4255  2.0820  0.4677
  398MOL0     H53715   3.506   6.016   6.291  3.1570 -1.2025  0.1471
  398MOL0     H53716   4.765   7.175   5.990  0.3609  0.6783  0.3833
  398MOL0     H53717   4.996   7.253   5.925 -0.0679 -0.4457 -0.0343
  398MOL0     H53718   5.346   7.118   5.520  0.0658  2.5180 -1.5507
  398MOL0     H53719   5.597   7.162   5.465  0.4697  0.6520 -0.7815
  398MOL0     H53720   5.830   6.997   5.603 -2.4290 -1.6311 -2.6365
  398MOL0     H53721   5.775   7.078   5.456  2.0190  2.7834 -2.1061
  398MOL0     H53722   6.033   7.144   5.597 -0.9044  0.2883 -0.5234
  398MOL0     H53723   5.976   7.220   5.446  1.8523  0.1220  0.3408
  398MOL0     H53724   5.980   6.918   5.443  1.4239  0.0318 -2.3800
  398MOL0     H53725   6.130   6.982   5.496  1.6350  1.5750 -0.7912
  398MOL0     H53726   6.179   6.990   5.273  2.3325  1.4852  3.5206
  398MOL0     H53727   6.113   7.154   5.281  0.8372 -1.4005  1.6909
  398MOL0     H53728   5.802   6.928   5.100 -2.8068  1.3211  2.4505
  398MOL0     H53729   5.686   7.173   5.871 -0.5686  1.1326  0.0143
  398MOL0     H53730   5.452   7.118   5.928  3.0499  1.6016  1.0058
  399MOL0     O53731   1.024   4.240  10.631 -0.7878 -0.2842 -0.4009
  399MOL0     C53732   1.079   4.127  10.610  0.4715 -0.8058  0.0142
  399MOL0     O53733   1.016   4.012  10.568 -0.3258 -0.0326  0.9719
  399MOL0     C53734   0.887   4.011  10.528 -0.3654 -0.5925 -0.3446
  399MOL0     C53735   0.822   3.891  10.546  0.0588  1.0080  1.0004
  399MOL0     C53736   0.687   3.865  10.506 -0.3474 -0.1631  0.2333
  399MOL0     C53737   0.614   3.972  10.460  0.1719 -0.2746  0.0335
  399MOL0     O53738   0.487   3.986  10.426  0.1789 -0.1755 -0.1979
  399MOL0     C53739   0.391   3.932  10.519  0.7360  0.0381  0.6237
  399MOL0     C53740   0.239   3.979  10.484  0.1494 -0.2897  0.0726
  399MOL0     C53741   0.174   3.904  10.366  0.1885 -0.5791  0.5483
  399MOL0     C53742   0.069   3.807  10.418 -0.0891  0.7228  0.1420
  399MOL0     C53743  -0.032   3.760  10.313 -0.4316  0.2698 -0.1862
  399MOL0     C53744  -0.150   3.846  10.312  0.5143 -0.1118  0.3898
  399MOL0     C53745  -0.242   3.806  10.199  0.0755  0.9332 -0.7899
  399MOL0     C53746  -0.348   3.904  10.160 -0.4596  0.0065  0.0581
  399MOL0     N53747  -0.480   3.879  10.225 -0.3495 -1.1844 -0.6834
  399MOL0     C53748  -0.608   3.936  10.196 -1.3828  0.6994  0.7779
  399MOL0     C53749  -0.700   3.889  10.294  0.1046  0.5523 -0.0021
  399MOL0     C53750  -0.843   3.938  10.314 -0.3842  0.1684  0.7400
  399MOL0     C53751  -0.866   3.927  10.467  0.3207 -0.6387 -0.2277
  399MOL0     C53752  -1.021   3.951  10.503 -1.0974 -0.0678  0.1191
  399MOL0     C53753  -1.098   3.827  10.505 -0.0796  0.2189  0.3815
  399MOL0     O53754  -1.224   3.866  10.550  0.6507  0.1934 -0.4677
  399MOL0     C53755  -1.326   3.779  10.568  0.5638  0.1812  0.3546
  399MOL0     C53756  -1.316   3.642  10.550 -0.1745  0.2972 -1.1124
  399MOL0     C53757  -1.421   3.554  10.589 -0.3235  0.2082 -0.1400
  399MOL0     C53758  -1.395   3.408  10.570 -0.0470  0.4442  0.9367
  399MOL0     C53759  -1.546   3.614  10.629 -0.4203  0.1195 -0.0747
  399MOL0     C53760  -1.656   3.527  10.672  0.2055  0.8008  0.2338
  399MOL0     O53761  -1.744   3.590  10.757 -0.7743  0.4103  0.0638
  399MOL0     C53762  -1.847   3.525  10.815 -0.3554 -0.9272  0.6811
  399MOL0     C53763  -1.966   3.595  10.817  0.5334  0.0083  0.1950
  399MOL0     C53764  -2.083   3.538  10.872  0.0446 -0.2821 -1.0486
  399MOL0     C53765  -2.096   3.403  10.911 -1.0078  0.4261 -0.1696
  399MOL0     O53766  -2.221   3.342  10.940  0.5213 -0.3833  0.3989
  399MOL0     C53767  -2.241   3.209  10.977  0.3560  0.0381  0.0222
  399MOL0     C53768  -2.316   3.127  10.867 -0.8152 -0.5420  0.5489
  399MOL0     C53769  -2.465   3.155  10.859 -1.3063 -0.0475  0.0539
  399MOL0     C53770  -2.545   3.052  10.775  0.1045  0.2665 -0.3327
  399MOL0     C53771  -2.700   3.094  10.762  0.5186  0.1195  0.1866
  399MOL0     C53772  -2.765   3.023  10.632  0.8840  0.4105  0.6600
  399MOL0     C53773  -2.790   2.873  10.664  0.2685  0.3638  0.4755
  399MOL0     C53774  -2.842   2.785  10.543 -0.2090 -1.3012  0.1072
  399MOL0    Cl53775  -2.715   2.787  10.415 -0.0144 -0.2129 -0.1601
  399MOL0     C53776  -1.968   3.335  10.929  0.9618 -0.7698  0.6904
  399MOL0     C53777  -1.851   3.396  10.869  0.6432 -0.4810  0.2267
  399MOL0     O53778  -1.663   3.406  10.646  0.2569  0.0673 -0.3464
  399MOL0     C53779  -1.557   3.754  10.644  0.1555 -0.7332  0.7702
  399MOL0     C53780  -1.446   3.835  10.610  0.1399  0.6228 -0.3513
  399MOL0     N53781  -0.619   3.804  10.371 -0.2898  0.5539  0.0381
  399MOL0     N53782  -0.494   3.796  10.329  0.6081 -0.3655 -0.7193
  399MOL0     C53783   0.675   4.099  10.440 -0.9354 -0.5150 -0.3733
  399MOL0     C53784   0.806   4.119  10.479  0.2708  0.3244 -0.0363
  399MOL0     C53785   1.215   4.108  10.654 -0.2068 -0.0803 -0.0083
  399MOL0     C53786   1.294   4.224  10.677 -0.8467  0.4018  1.1995
  399MOL0     C53787   1.430   4.210  10.694  0.6382 -0.1144 -0.2792
  399MOL0     C53788   1.494   4.090  10.709  0.8316  0.8304  0.2345
  399MOL0     O53789   1.622   4.075  10.732 -0.3712  1.0068  0.1448
  399MOL0     C53790   1.716   4.187  10.740 -0.8795  0.5620  0.1978
  399MOL0     C53791   1.723   4.240  10.881 -0.2896  0.6957 -0.0981
  399MOL0     C53792   1.812   4.151  10.970  0.1284 -0.2305  0.2262
  399MOL0     C53793   1.893   4.235  11.062 -0.1297  0.2811 -0.4483
  399MOL0     C53794   1.907   4.194  11.207  0.5726 -0.0745 -0.8400
  399MOL0     C53795   1.909   4.178  11.329 -0.3513  0.0751  0.7970
  399MOL0     C53796   1.417   3.972  10.699 -0.4261 -0.3126  0.3122
  399MOL0     C53797   1.280   3.983  10.665  0.3409 -0.6863 -0.2745
  399MOL0     H53798   0.887   3.808  10.572  0.6784  0.7260 -1.2268
  399MOL0     H53799   0.640   3.767  10.508  0.2474 -0.4433  0.6456
  399MOL0     H53800   0.402   3.824  10.535  0.1856  0.0314  0.9951
  399MOL0     H53801   0.408   3.985  10.613 -0.2587  2.3451 -0.4238
  399MOL0     H53802   0.175   3.983  10.572 -1.4849 -0.3028 -1.0514
  399MOL0     H53803   0.242   4.079  10.439 -4.9486 -0.0492 -0.3189
  399MOL0     H53804   0.118   3.979  10.309  1.1624  0.6327  1.1182
  399MOL0     H53805   0.237   3.850  10.295  0.6254  1.1132 -0.3965
  399MOL0     H53806   0.122   3.719  10.457 -0.9256 -1.5330 -3.3485
  399MOL0     H53807   0.026   3.834  10.515  0.7807 -3.0137  1.7803
  399MOL0     H53808   0.023   3.752  10.218  1.6917  0.9195  0.9360
  399MOL0     H53809  -0.061   3.657  10.335  0.2026 -0.2422 -1.5972
  399MOL0     H53810  -0.210   3.839  10.403 -1.1653  1.4189 -0.5365
  399MOL0     H53811  -0.131   3.953  10.298 -2.0479  0.5127  1.1544
  399MOL0     H53812  -0.189   3.775  10.109 -1.5410 -0.0072 -1.4645
  399MOL0     H53813  -0.287   3.710  10.230  0.7561  1.2012  1.1593
  399MOL0     H53814  -0.356   3.905  10.051  2.9920  0.6749 -0.2959
  399MOL0     H53815  -0.311   4.006  10.173 -0.3328  0.4324 -2.8463
  399MOL0     H53816  -0.634   3.995  10.109 -0.9362  1.9068  1.4395
  399MOL0     H53817  -0.860   4.039  10.277 -0.6950 -0.4489 -0.9115
  399MOL0     H53818  -0.909   3.863  10.267  1.8088 -1.4197  0.0223
  399MOL0     H53819  -0.795   3.982  10.530  0.7924 -0.0944 -1.2123
  399MOL0     H53820  -0.842   3.828  10.506 -0.2375  0.4246  3.1590
  399MOL0     H53821  -1.056   4.013  10.420  0.0081 -1.2637 -1.2964
  399MOL0     H53822  -1.023   3.998  10.602  1.4236  0.1915  0.0961
  399MOL0     H53823  -1.051   3.741  10.555  3.9358  0.7452 -2.0830
  399MOL0     H53824  -1.104   3.793  10.401  1.1092  0.1972  0.3104
  399MOL0     H53825  -1.222   3.604  10.510 -0.0138 -0.6850  0.1405
  399MOL0     H53826  -1.444   3.334  10.633 -1.0153  0.7996  0.6199
  399MOL0     H53827  -1.420   3.363  10.473  1.4185 -2.1768  1.6638
  399MOL0     H53828  -1.286   3.393  10.577  0.0317 -1.3436 -2.1866
  399MOL0     H53829  -1.968   3.696  10.777  0.0808  0.1493  0.5627
  399MOL0     H53830  -2.171   3.601  10.869  0.1736 -0.1170 -1.4114
  399MOL0     H53831  -2.147   3.153  10.983  1.3520  1.3921 -1.9051
  399MOL0     H53832  -2.283   3.210  11.078 -1.6949 -2.8774 -0.6800
  399MOL0     H53833  -2.269   3.171  10.778 -2.5073  1.0499  0.3939
  399MOL0     H53834  -2.299   3.019  10.866  0.6981 -0.3581  1.8067
  399MOL0     H53835  -2.483   3.260  10.835 -3.1199 -0.0343  1.2695
  399MOL0     H53836  -2.489   3.145  10.966  1.8667 -2.6762  0.6833
  399MOL0     H53837  -2.491   3.054  10.680  0.4178 -0.6929 -0.1794
  399MOL0     H53838  -2.520   2.961  10.830  1.0733  0.4509 -0.4565
  399MOL0     H53839  -2.700   3.201  10.742  0.9746 -0.0237 -0.6366
  399MOL0     H53840  -2.762   3.080  10.851 -2.2848  2.0639 -1.3223
  399MOL0     H53841  -2.859   3.074  10.614  2.3815  2.9296 -0.5226
  399MOL0     H53842  -2.697   3.032  10.546  2.1785  1.7901  1.7808
  399MOL0     H53843  -2.868   2.859  10.740  1.1661 -3.2365  0.9089
  399MOL0     H53844  -2.698   2.831  10.704  2.8044  1.8655 -3.2697
  399MOL0     H53845  -2.935   2.835  10.514  1.1705  0.7571 -0.9352
  399MOL0     H53846  -2.865   2.680  10.565  3.2569 -2.4107 -0.9158
  399MOL0     H53847  -1.957   3.236  10.971 -0.0588 -0.9310  0.6103
  399MOL0     H53848  -1.765   3.329  10.862  0.5920 -0.7663  1.9133
  399MOL0     H53849  -1.647   3.795  10.688 -2.5909 -0.2695 -4.4438
  399MOL0     H53850  -1.443   3.939  10.643  0.0053 -0.0680  2.0969
  399MOL0     H53851   0.622   4.192  10.423  2.4296  1.8016  0.9006
  399MOL0     H53852   0.849   4.216  10.454 -1.5893  0.8433 -1.3766
  399MOL0     H53853   1.245   4.321  10.679 -1.7726 -0.0091 -0.3125
  399MOL0     H53854   1.487   4.303  10.693 -2.6409  2.1630  1.9309
  399MOL0     H53855   1.815   4.156  10.706 -0.8002 -0.0551  0.9685
  399MOL0     H53856   1.694   4.267  10.668 -2.5581 -0.3147 -0.3017
  399MOL0     H53857   1.621   4.230  10.919 -1.7420  1.2143 -3.4995
  399MOL0     H53858   1.757   4.344  10.885  2.2241 -0.0934  1.7654
  399MOL0     H53859   1.885   4.097  10.908  1.8486  2.5551 -0.3651
  399MOL0     H53860   1.748   4.078  11.021  1.6699 -1.0090  1.1363
  399MOL0     H53861   1.862   4.340  11.066 -1.9166 -0.2080 -0.1586
  399MOL0     H53862   1.997   4.243  11.030 -0.3026  0.1591 -1.0592
  399MOL0     H53863   1.913   4.156  11.434  1.7142  0.5081  0.8442
  399MOL0     H53864   1.471   3.879  10.708 -1.9128 -1.1965  0.5538
  399MOL0     H53865   1.225   3.892  10.642  0.1475 -0.7192  0.2979
  400MOL0     O53866   7.692   4.172   2.067 -0.5637 -0.6172  1.1971
  400MOL0     C53867   7.805   4.220   2.094  0.4309 -0.9006 -0.0610
  400MOL0     O53868   7.897   4.156   2.168 -0.2002 -0.2007 -0.0702
  400MOL0     C53869   7.863   4.052   2.258 -0.6359  0.6378 -0.3180
  400MOL0     C53870   7.900   3.917   2.238 -0.7440  0.3496 -0.1231
  400MOL0     C53871   7.874   3.821   2.339  0.2321  0.2346  0.7702
  400MOL0     C53872   7.828   3.868   2.464 -0.1215  1.0563 -0.3266
  400MOL0     O53873   7.823   3.773   2.564 -0.8019 -0.7257 -1.2201
  400MOL0     C53874   7.687   3.757   2.599  0.0966 -0.2357 -0.0224
  400MOL0     C53875   7.693   3.692   2.734  0.0248 -0.9122  0.5167
  400MOL0     C53876   7.562   3.624   2.776  0.7279  0.4605  0.1468
  400MOL0     C53877   7.582   3.532   2.895  0.0047  0.2468 -0.1988
  400MOL0     C53878   7.465   3.484   2.979 -0.0898  0.6635  0.4079
  400MOL0     C53879   7.428   3.346   2.937 -0.2443  0.2227 -0.1509
  400MOL0     C53880   7.518   3.235   3.008  0.3033 -0.5593  0.1321
  400MOL0     C53881   7.474   3.096   2.968  0.0096 -0.3816 -0.6190
  400MOL0     N53882   7.326   3.081   2.959 -0.3889  0.1424  0.5162
  400MOL0     C53883   7.230   3.074   3.058 -0.0578  0.4890 -0.0320
  400MOL0     C53884   7.114   3.064   2.993  0.0600  0.5254  1.5524
  400MOL0     C53885   6.981   3.063   3.063  0.4052  0.0540 -1.0109
  400MOL0     C53886   6.969   2.975   3.188 -0.3058  0.3059 -0.1669
  400MOL0     C53887   7.008   2.830   3.179  0.3461 -0.1855  0.2210
  400MOL0     C53888   6.909   2.736   3.262 -0.3874  0.1038 -1.7815
  400MOL0     O53889   6.880   2.793   3.392 -0.0351 -0.5267  0.1512
  400MOL0     C53890   6.745   2.812   3.416 -0.0668 -0.5953  0.5592
  400MOL0     C53891   6.649   2.715   3.406  0.1013 -0.0371 -0.2494
  400MOL0     C53892   6.514   2.736   3.420  0.2607  0.0844  0.1843
  400MOL0     C53893   6.422   2.621   3.408 -0.3987  0.8191  0.4650
  400MOL0     C53894   6.468   2.862   3.460 -0.1816 -1.0563  1.0124
  400MOL0     C53895   6.327   2.902   3.486 -0.6875 -0.0466 -1.4456
  400MOL0     O53896   6.299   3.028   3.452 -0.0336 -0.7042  0.5373
  400MOL0     C53897   6.181   3.077   3.493  0.2856  0.5937 -0.5820
  400MOL0     C53898   6.073   3.062   3.412  0.0108 -0.4468 -0.3704
  400MOL0     C53899   5.955   3.115   3.463  0.5728  0.1096  0.2201
  400MOL0     C53900   5.937   3.163   3.596  0.0778  0.6560 -0.2120
  400MOL0     O53901   5.827   3.212   3.655 -0.0075  0.1958 -0.3230
  400MOL0     C53902   5.712   3.136   3.668  0.1796  0.1983 -0.0075
  400MOL0     C53903   5.609   3.214   3.734  0.6471 -0.7536  0.2253
  400MOL0     C53904   5.468   3.158   3.704  0.0584  0.3754 -0.6816
  400MOL0     C53905   5.382   3.211   3.820  0.7966 -0.2763 -0.0721
  400MOL0     C53906   5.237   3.181   3.797 -0.2182  0.2535 -0.2774
  400MOL0     C53907   5.150   3.268   3.876  0.5264 -0.0033  0.1474
  400MOL0     C53908   5.192   3.287   4.023  1.5713  0.4043 -0.0725
  400MOL0     C53909   5.083   3.356   4.117  0.5249 -0.0166  0.0246
  400MOL0    Cl53910   5.006   3.503   4.049 -0.0097  0.7446 -0.1824
  400MOL0     C53911   6.051   3.168   3.676  0.7040 -0.0333  0.8756
  400MOL0     C53912   6.172   3.123   3.621  0.1706 -0.1615 -0.2509
  400MOL0     O53913   6.255   2.827   3.545 -0.5770 -0.2512  0.1655
  400MOL0     C53914   6.563   2.971   3.455 -1.1184  0.8528 -0.2306
  400MOL0     C53915   6.702   2.945   3.438  0.3598 -0.1045  0.0687
  400MOL0     N53916   7.136   3.073   2.856  0.2126  0.5867 -0.0299
  400MOL0     N53917   7.261   3.080   2.841 -0.5556  0.6348 -0.0375
  400MOL0     C53918   7.800   4.001   2.479  0.0302 -0.0489 -0.4312
  400MOL0     C53919   7.827   4.093   2.382  0.8554  0.0554 -0.2718
  400MOL0     C53920   7.836   4.353   2.041  0.2361 -0.4812 -0.1467
  400MOL0     C53921   7.763   4.420   1.937 -0.1809  0.0772 -0.3480
  400MOL0     C53922   7.786   4.549   1.913  0.3706 -0.5663  0.8237
  400MOL0     C53923   7.903   4.608   1.963 -1.1010  0.2319 -0.1153
  400MOL0     O53924   7.932   4.738   1.914  0.1849 -0.1993  0.4752
  400MOL0     C53925   8.067   4.764   1.889 -0.6282  0.3695  0.0391
  400MOL0     C53926   8.098   4.910   1.851 -0.3248  0.8872  0.1023
  400MOL0     C53927   8.233   4.959   1.894 -0.4343 -0.0930 -1.6810
  400MOL0     C53928   8.280   5.079   1.808 -0.7307  0.2017  0.1101
  400MOL0     C53929   8.425   5.112   1.830 -0.0615  0.4723  0.0167
  400MOL0     C53930   8.533   5.157   1.854  0.8471 -0.7095 -0.4128
  400MOL0     C53931   7.982   4.536   2.054  0.6897 -0.3774 -0.5476
  400MOL0     C53932   7.946   4.414   2.095 -0.4157 -0.3479 -0.4004
  400MOL0     H53933   7.948   3.897   2.142 -4.1974  1.0452 -2.1473
  400MOL0     H53934   7.909   3.721   2.314 -2.4436 -0.5398 -0.1674
  400MOL0     H53935   7.627   3.848   2.606 -0.6777 -0.8797  2.9559
  400MOL0     H53936   7.629   3.692   2.532 -1.3856  0.2299  0.7580
  400MOL0     H53937   7.766   3.611   2.726  4.2325  2.4302  1.2712
  400MOL0     H53938   7.735   3.771   2.797 -1.8814 -0.4593  1.3121
  400MOL0     H53939   7.488   3.702   2.796  1.0813  1.8253 -3.3154
  400MOL0     H53940   7.528   3.565   2.691  0.4871 -1.9579  1.8021
  400MOL0     H53941   7.635   3.443   2.859 -3.2828 -1.9195 -0.1557
  400MOL0     H53942   7.650   3.574   2.969 -0.9570  0.1712  0.7568
  400MOL0     H53943   7.489   3.489   3.086 -1.7417 -0.1212  0.8509
  400MOL0     H53944   7.377   3.548   2.972 -0.9875 -0.0382  3.4229
  400MOL0     H53945   7.332   3.334   2.989  0.8701 -0.1404  1.9241
  400MOL0     H53946   7.413   3.331   2.830 -2.2741  0.2430  0.0783
  400MOL0     H53947   7.624   3.251   2.987 -0.0484  0.6939 -0.8506
  400MOL0     H53948   7.494   3.250   3.114  0.6609  0.4534  0.0873
  400MOL0     H53949   7.499   3.022   3.045 -1.4738 -0.2811 -0.0122
  400MOL0     H53950   7.519   3.065   2.873 -1.0518 -1.4730 -0.7941
  400MOL0     H53951   7.248   3.078   3.165  2.4814  0.1371 -0.3861
  400MOL0     H53952   6.968   3.168   3.091  2.2838  0.2170 -0.6176
  400MOL0     H53953   6.902   3.032   2.993 -0.4400 -0.1425  0.0023
  400MOL0     H53954   6.865   2.968   3.221  0.6381 -0.4796  2.9651
  400MOL0     H53955   7.019   3.028   3.270 -0.4494  1.7766 -0.9944
  400MOL0     H53956   7.114   2.819   3.204  1.6862  1.4954 -3.8756
  400MOL0     H53957   6.996   2.799   3.074  1.5608 -1.3280  0.3882
  400MOL0     H53958   6.955   2.637   3.276 -2.6638 -0.9164 -0.9592
  400MOL0     H53959   6.825   2.704   3.200 -0.1085 -1.9602 -1.2048
  400MOL0     H53960   6.679   2.615   3.380 -2.2164 -0.7312 -0.4851
  400MOL0     H53961   6.381   2.592   3.505 -1.5869  0.7993 -0.0363
  400MOL0     H53962   6.337   2.654   3.349 -0.1955  0.2061 -0.1733
  400MOL0     H53963   6.455   2.538   3.345  1.2926  1.9799 -0.2630
  400MOL0     H53964   6.088   3.017   3.314  0.3355 -0.5541 -0.2731
  400MOL0     H53965   5.864   3.092   3.408 -0.6912 -2.3127  3.0646
  400MOL0     H53966   5.680   3.104   3.569 -2.4249  0.2025  0.7659
  400MOL0     H53967   5.731   3.045   3.726  1.1019  0.3764 -0.0111
  400MOL0     H53968   5.634   3.210   3.841 -1.5034 -0.2043  0.7995
  400MOL0     H53969   5.611   3.319   3.705 -0.5014 -1.2295 -1.7157
  400MOL0     H53970   5.458   3.049   3.715 -3.9364  0.7202  1.0086
  400MOL0     H53971   5.433   3.195   3.608 -0.1202  1.3402 -0.2595
  400MOL0     H53972   5.411   3.162   3.913 -3.6137 -2.3997  0.4297
  400MOL0     H53973   5.386   3.320   3.819 -0.9582 -0.1835 -1.1213
  400MOL0     H53974   5.211   3.079   3.826  0.8659  0.0813  0.1329
  400MOL0     H53975   5.210   3.190   3.692 -1.4209  1.1395  0.0882
  400MOL0     H53976   5.150   3.363   3.822 -0.7535 -0.9064 -1.5789
  400MOL0     H53977   5.048   3.229   3.867  1.4824 -3.2790  1.9030
  400MOL0     H53978   5.279   3.353   4.033  0.1637  2.4206 -0.5818
  400MOL0     H53979   5.206   3.190   4.071  2.3766  0.9515  0.8228
  400MOL0     H53980   5.124   3.384   4.214 -1.5463  2.6766  0.2615
  400MOL0     H53981   5.008   3.280   4.140  0.8553  0.0050  1.2258
  400MOL0     H53982   6.042   3.210   3.776  0.8687  1.5372  0.2555
  400MOL0     H53983   6.264   3.117   3.678 -0.3506 -0.5967  0.5541
  400MOL0     H53984   6.535   3.072   3.485 -0.4907  0.1567  3.0767
  400MOL0     H53985   6.771   3.028   3.438  1.7372 -1.2135 -0.2371
  400MOL0     H53986   7.759   4.034   2.573  2.0475 -1.2148  0.9364
  400MOL0     H53987   7.803   4.197   2.399 -0.8549 -0.2729 -0.4441
  400MOL0     H53988   7.683   4.371   1.883  0.1105  2.3903 -3.1019
  400MOL0     H53989   7.722   4.604   1.845  0.7240 -2.7359 -1.3851
  400MOL0     H53990   8.130   4.751   1.978 -1.0631 -2.1088  0.0318
  400MOL0     H53991   8.106   4.695   1.814 -0.7086 -0.8891  1.1183
  400MOL0     H53992   8.027   4.976   1.903 -0.2874  1.1154 -0.1324
  400MOL0     H53993   8.086   4.927   1.744 -0.1316 -2.7635 -0.6103
  400MOL0     H53994   8.303   4.879   1.870 -1.1088 -1.4276  0.5394
  400MOL0     H53995   8.225   4.975   2.002 -4.1697  2.0028 -2.1022
  400MOL0     H53996   8.223   5.172   1.823  1.3384  1.5870 -0.2733
  400MOL0     H53997   8.253   5.054   1.705 -1.8967  1.1032  0.1722
  400MOL0     H53998   8.633   5.195   1.854  1.5844 -2.4993  0.9578
  400MOL0     H53999   8.065   4.575   2.112 -1.2022 -1.3267  3.0614
  400MOL0     H54000   7.998   4.370   2.180 -1.2564  1.8918  1.3677
  401MOL0     O54001   6.223   2.870   9.941 -0.1670 -0.3166 -0.0709
  401MOL0     C54002   6.191   2.895  10.057  0.6959 -0.0751 -0.5136
  401MOL0     O54003   6.283   2.908  10.161  0.0566 -0.2533  0.5387
  401MOL0     C54004   6.412   2.873  10.127 -0.2886 -0.4585 -0.0862
  401MOL0     C54005   6.439   2.738  10.134 -0.4924 -0.7851 -0.2547
  401MOL0     C54006   6.571   2.692  10.106  1.4452  0.3499 -0.2525
  401MOL0     C54007   6.676   2.780  10.074 -0.0469 -0.1157 -0.4185
  401MOL0     O54008   6.800   2.741  10.056 -0.2036  0.4573  0.0821
  401MOL0     C54009   6.811   2.671   9.928 -0.1050  0.9068 -0.5509
  401MOL0     C54010   6.950   2.631   9.915 -0.0931 -0.3035  0.1911
  401MOL0     C54011   6.975   2.517   9.814  0.2919 -0.0787 -0.3817
  401MOL0     C54012   7.108   2.441   9.826 -0.4084 -0.4142 -0.3023
  401MOL0     C54013   7.115   2.322   9.730  0.5323  0.1307  0.1488
  401MOL0     C54014   7.233   2.228   9.761  0.2755  0.5391 -1.3730
  401MOL0     C54015   7.366   2.295   9.772  0.3481 -0.1320  0.2934
  401MOL0     C54016   7.476   2.198   9.739 -0.5643 -0.1602 -0.1250
  401MOL0     N54017   7.601   2.264   9.729  0.5333 -0.6072  0.0152
  401MOL0     C54018   7.668   2.300   9.615 -0.3528  0.8059  0.4340
  401MOL0     C54019   7.792   2.349   9.657  0.4378 -0.2447  0.0004
  401MOL0     C54020   7.905   2.396   9.573 -0.5448 -0.6252  1.0251
  401MOL0     C54021   7.848   2.489   9.453 -0.1724  1.0393 -0.0058
  401MOL0     C54022   7.941   2.604   9.405 -0.0225  0.5375 -0.2708
  401MOL0     C54023   8.080   2.554   9.367  0.9881  0.1123 -0.5640
  401MOL0     O54024   8.062   2.500   9.236 -0.7710  0.2724 -0.1252
  401MOL0     C54025   8.176   2.429   9.193 -0.5738  0.3617 -0.3575
  401MOL0     C54026   8.177   2.407   9.057  1.1296  0.5244 -0.4658
  401MOL0     C54027   8.266   2.327   8.993 -0.6327  1.3358 -0.2883
  401MOL0     C54028   8.262   2.313   8.843  0.6358  0.1229  0.5240
  401MOL0     C54029   8.366   2.267   9.071 -0.2425 -0.4230  0.3155
  401MOL0     C54030   8.464   2.172   9.014 -0.4355  0.1377 -0.2148
  401MOL0     O54031   8.574   2.146   9.090 -0.5193 -0.7522 -0.2080
  401MOL0     C54032   8.659   2.050   9.045 -0.0608 -1.2620  0.1518
  401MOL0     C54033   8.750   2.076   8.940  0.5024 -0.0630 -0.6573
  401MOL0     C54034   8.847   1.990   8.897 -0.4894  0.3993 -0.3337
  401MOL0     C54035   8.836   1.862   8.940 -0.3661  0.3012  0.2104
  401MOL0     O54036   8.909   1.749   8.898 -0.3672  0.0287 -0.4218
  401MOL0     C54037   9.023   1.770   8.817  0.3337 -0.5931 -0.0037
  401MOL0     C54038   9.051   1.635   8.744  0.1119 -0.2193  0.0193
  401MOL0     C54039   9.173   1.639   8.642 -0.7331 -0.3753  1.1871
  401MOL0     C54040   9.306   1.653   8.712  0.2484 -0.2435  0.6809
  401MOL0     C54041   9.426   1.671   8.609 -0.5463  0.4104 -0.1707
  401MOL0     C54042   9.505   1.537   8.586  0.1021 -0.2281  0.6094
  401MOL0     C54043   9.576   1.530   8.451  0.5553  1.4912  0.6856
  401MOL0     C54044   9.591   1.377   8.414 -0.9125 -0.2358 -0.3404
  401MOL0    Cl54045   9.682   1.377   8.255  0.2988  0.2330  0.2078
  401MOL0     C54046   8.756   1.825   9.048  0.5828  0.3951 -0.8572
  401MOL0     C54047   8.667   1.920   9.100  0.1266  0.1379  0.3103
  401MOL0     O54048   8.435   2.108   8.913  0.2067 -0.3878  0.5502
  401MOL0     C54049   8.371   2.293   9.212 -0.2918  0.3799  0.5116
  401MOL0     C54050   8.274   2.371   9.270 -0.2145  0.2857 -0.7136
  401MOL0     N54051   7.801   2.337   9.789 -0.4526  0.3272 -1.0057
  401MOL0     N54052   7.697   2.279   9.825  0.5458  1.4574  0.8778
  401MOL0     C54053   6.646   2.911  10.063  0.0089 -1.0120 -1.3450
  401MOL0     C54054   6.516   2.958  10.084  0.3853 -0.3164 -0.3081
  401MOL0     C54055   6.048   2.897  10.098  0.6100 -0.4330  0.0531
  401MOL0     C54056   5.999   2.978  10.206  0.1215  0.5601 -0.2440
  401MOL0     C54057   5.857   2.984  10.229 -0.3886  0.2369 -0.7252
  401MOL0     C54058   5.777   2.900  10.164  0.4498  0.6835 -1.3217
  401MOL0     O54059   5.640   2.902  10.199 -0.2310 -0.3161  0.4171
  401MOL0     C54060   5.588   2.805  10.293  0.1878 -0.4652  0.5041
  401MOL0     C54061   5.601   2.659  10.263 -0.1224  0.5410 -0.4338
  401MOL0     C54062   5.511   2.603  10.150 -0.8516 -0.2060 -0.4350
  401MOL0     C54063   5.490   2.450  10.162  0.7410  0.4962 -0.6361
  401MOL0     C54064   5.391   2.407  10.256  0.5810  0.6977 -0.3429
  401MOL0     C54065   5.294   2.387  10.329  0.3860 -0.2657  0.5839
  401MOL0     C54066   5.821   2.828  10.062  0.1831  0.3864  0.0164
  401MOL0     C54067   5.951   2.829  10.026 -0.0547 -0.6311 -0.2175
  401MOL0     H54068   6.370   2.662  10.170  1.5345 -1.6318  2.1451
  401MOL0     H54069   6.582   2.584  10.105  0.0842  0.0309  3.6348
  401MOL0     H54070   6.744   2.585   9.918 -2.0441  2.4156 -0.9297
  401MOL0     H54071   6.787   2.741   9.848  0.9775 -0.0837 -1.7827
  401MOL0     H54072   7.016   2.718   9.908  1.2681 -1.1615  1.5633
  401MOL0     H54073   6.993   2.585  10.005  2.2839  2.0061  0.3787
  401MOL0     H54074   6.905   2.437   9.839  0.2256  0.7257  2.3589
  401MOL0     H54075   6.967   2.545   9.708  0.4213 -3.5473 -1.4375
  401MOL0     H54076   7.194   2.507   9.815 -3.4979  4.7000  2.2019
  401MOL0     H54077   7.131   2.403   9.926 -0.3856 -3.7957 -1.4705
  401MOL0     H54078   7.018   2.272   9.735  1.5625 -2.0135 -0.0372
  401MOL0     H54079   7.126   2.353   9.626  0.1896 -3.9112 -1.2801
  401MOL0     H54080   7.217   2.180   9.857 -1.0926 -1.6398 -2.6080
  401MOL0     H54081   7.237   2.150   9.684 -1.2697 -2.0589  1.0285
  401MOL0     H54082   7.365   2.357   9.682  1.4543 -1.5977 -0.7773
  401MOL0     H54083   7.380   2.357   9.861  0.8335 -2.0455  1.6097
  401MOL0     H54084   7.453   2.154   9.641 -0.2344 -0.4285 -0.0824
  401MOL0     H54085   7.478   2.117   9.813 -3.6376 -0.3132 -0.0514
  401MOL0     H54086   7.638   2.288   9.511  2.9865 -2.8219 -0.3215
  401MOL0     H54087   7.981   2.445   9.635 -2.5594  0.5754  2.7046
  401MOL0     H54088   7.953   2.310   9.526  0.5978  0.5807 -0.0824
  401MOL0     H54089   7.755   2.533   9.491 -1.9139 -2.1490 -0.2250
  401MOL0     H54090   7.820   2.421   9.372 -1.2045 -1.7782  2.5131
  401MOL0     H54091   7.958   2.678   9.484 -0.1394  2.6144 -2.1066
  401MOL0     H54092   7.885   2.664   9.333 -0.9171  0.6990  0.5257
  401MOL0     H54093   8.120   2.485   9.441  0.1844  0.7644  0.5141
  401MOL0     H54094   8.151   2.637   9.359 -2.0196  2.6628 -4.6609
  401MOL0     H54095   8.091   2.438   8.999  0.8007  1.7700  0.6178
  401MOL0     H54096   8.228   2.410   8.804 -2.5448 -0.9122  0.4278
  401MOL0     H54097   8.364   2.298   8.809  0.2435 -0.2013 -0.5183
  401MOL0     H54098   8.192   2.238   8.805  0.9114 -0.4830  1.1989
  401MOL0     H54099   8.748   2.171   8.888  3.1761 -1.0114 -2.6662
  401MOL0     H54100   8.927   2.016   8.830  1.8295  1.1579  2.5361
  401MOL0     H54101   8.990   1.841   8.741 -0.3428  1.0352  1.7323
  401MOL0     H54102   9.103   1.806   8.881 -0.3046 -0.1131  0.5338
  401MOL0     H54103   9.054   1.545   8.806 -1.0200 -0.3632 -0.1216
  401MOL0     H54104   8.964   1.624   8.679  0.1419  0.7051 -0.2047
  401MOL0     H54105   9.159   1.722   8.571 -1.7700 -3.0882 -2.0614
  401MOL0     H54106   9.166   1.558   8.569 -1.5924  0.6636  0.0718
  401MOL0     H54107   9.319   1.741   8.776  4.1888  0.0208 -0.2398
  401MOL0     H54108   9.324   1.562   8.769 -0.4293 -1.0442 -0.3522
  401MOL0     H54109   9.498   1.742   8.649 -1.2346  0.9411  0.1590
  401MOL0     H54110   9.376   1.717   8.524 -0.8022 -0.6431 -0.6076
  401MOL0     H54111   9.576   1.536   8.669 -1.1811  0.2106  1.7586
  401MOL0     H54112   9.432   1.455   8.592 -1.2181  0.8299 -0.3458
  401MOL0     H54113   9.673   1.580   8.462  0.9356  0.8575  0.2736
  401MOL0     H54114   9.520   1.584   8.374 -0.3003  1.1685  1.0719
  401MOL0     H54115   9.503   1.313   8.415  0.1197 -1.7144 -0.0538
  401MOL0     H54116   9.654   1.323   8.485  0.5198 -1.2177 -2.2756
  401MOL0     H54117   8.749   1.722   9.083  0.2050  1.6569  3.2995
  401MOL0     H54118   8.596   1.887   9.176  1.6795 -4.2177  0.1500
  401MOL0     H54119   8.439   2.237   9.275 -0.0324 -2.1211 -1.8228
  401MOL0     H54120   8.275   2.380   9.378  0.4948  1.5885 -0.8194
  401MOL0     H54121   6.721   2.983  10.033 -0.1193  0.4141  1.3890
  401MOL0     H54122   6.489   3.064  10.086 -0.7135 -0.5817 -0.4318
  401MOL0     H54123   6.073   3.042  10.254 -0.2945  1.0493 -0.2414
  401MOL0     H54124   5.818   3.053  10.303 -0.6701 -0.2045 -0.4582
  401MOL0     H54125   5.649   2.819  10.382 -0.2135 -1.0066  0.8719
  401MOL0     H54126   5.487   2.826  10.329  0.0361  0.2271 -0.2780
  401MOL0     H54127   5.574   2.600  10.351  0.5011 -0.0180 -0.6130
  401MOL0     H54128   5.704   2.629  10.240 -0.2809  1.7256 -3.1754
  401MOL0     H54129   5.560   2.634  10.058 -3.2106 -0.1366 -1.7359
  401MOL0     H54130   5.410   2.647  10.146 -0.6476  0.8271  2.6006
  401MOL0     H54131   5.584   2.396  10.177 -0.2489 -0.8501  1.0281
  401MOL0     H54132   5.457   2.410  10.066 -1.2947  0.5449  0.0159
  401MOL0     H54133   5.216   2.386  10.402  1.5561  1.9148  1.9930
  401MOL0     H54134   5.756   2.760  10.007 -0.8353  2.1823 -1.0760
  401MOL0     H54135   5.977   2.776   9.935  1.9136 -1.0764  0.5476
  402MOL0     O54136   3.868   4.572   9.941  0.3533 -0.3731 -0.4906
  402MOL0     C54137   3.962   4.559   9.871  0.1089  0.6222 -0.1710
  402MOL0     O54138   3.964   4.514   9.744  0.1245 -0.0544 -0.3392
  402MOL0     C54139   3.852   4.447   9.689 -0.3910  0.2177 -0.1350
  402MOL0     C54140   3.762   4.377   9.774 -0.3865  0.3275 -0.1298
  402MOL0     C54141   3.648   4.314   9.729 -0.6310  0.4173 -0.2668
  402MOL0     C54142   3.611   4.334   9.597  0.0827 -0.3694 -0.6094
  402MOL0     O54143   3.496   4.291   9.546 -0.3601  0.1117  0.5268
  402MOL0     C54144   3.409   4.197   9.606 -0.1007 -1.2982 -0.3392
  402MOL0     C54145   3.279   4.199   9.523 -0.2335  0.0982 -0.0946
  402MOL0     C54146   3.187   4.313   9.531 -0.8022  0.5628 -0.4601
  402MOL0     C54147   3.094   4.321   9.652 -1.3456  0.0358  0.7704
  402MOL0     C54148   2.970   4.394   9.609  1.4831  0.5090 -1.1058
  402MOL0     C54149   2.884   4.442   9.733 -0.0611 -0.4824 -0.1354
  402MOL0     C54150   2.773   4.538   9.696 -0.3924 -0.2395  0.1702
  402MOL0     C54151   2.672   4.584   9.808  0.2540 -0.1122  0.3604
  402MOL0     N54152   2.554   4.643   9.735 -0.5843 -0.3333  0.1973
  402MOL0     C54153   2.449   4.573   9.676 -0.0175 -0.4851  0.0611
  402MOL0     C54154   2.360   4.667   9.641  0.4015  0.6156 -0.5735
  402MOL0     C54155   2.245   4.650   9.560  0.3204 -0.4988  0.0705
  402MOL0     C54156   2.130   4.760   9.571 -1.4855  0.9379  0.0469
  402MOL0     C54157   1.996   4.712   9.521 -0.0585 -0.4981  0.1699
  402MOL0     C54158   1.893   4.829   9.520  0.6016  0.3200  0.8950
  402MOL0     O54159   1.762   4.778   9.490  0.0507  0.0728 -0.0820
  402MOL0     C54160   1.648   4.848   9.513  0.4621  0.0780  0.5641
  402MOL0     C54161   1.654   4.984   9.555  0.1797 -0.0693  0.2056
  402MOL0     C54162   1.533   5.058   9.566 -0.6862 -0.6933  0.0775
  402MOL0     C54163   1.537   5.206   9.586 -0.7896 -0.0189  0.4855
  402MOL0     C54164   1.411   5.008   9.525 -0.7753  0.4159  0.1157
  402MOL0     C54165   1.286   5.081   9.516 -0.6650  0.2481  0.9836
  402MOL0     O54166   1.217   5.054   9.405 -0.1069 -0.9804  0.4202
  402MOL0     C54167   1.108   5.126   9.370  0.2989 -0.1087  0.6287
  402MOL0     C54168   1.093   5.268   9.378  0.6169 -0.0834  0.4710
  402MOL0     C54169   0.981   5.343   9.333  0.2481 -0.0832  0.0531
  402MOL0     C54170   0.874   5.276   9.277 -0.0815 -0.2481  0.1671
  402MOL0     O54171   0.776   5.352   9.217 -0.6291  0.4588  0.4945
  402MOL0     C54172   0.737   5.323   9.081  0.3584  0.9030 -0.8705
  402MOL0     C54173   0.645   5.434   9.017  0.2210 -0.4228 -0.3872
  402MOL0     C54174   0.692   5.573   9.032  0.6025 -0.1633 -0.4381
  402MOL0     C54175   0.607   5.672   8.959  0.1547 -1.3037 -0.7298
  402MOL0     C54176   0.640   5.819   9.007 -0.3763  1.1269 -0.7289
  402MOL0     C54177   0.657   5.903   8.879 -1.0225 -0.4093 -0.4090
  402MOL0     C54178   0.703   6.053   8.915 -0.7427  0.5422  0.5736
  402MOL0     C54179   0.818   6.091   8.834 -0.5821 -0.0348  0.4528
  402MOL0    Cl54180   0.974   6.030   8.904 -0.1067  0.2242  0.3902
  402MOL0     C54181   0.886   5.137   9.266 -0.4149  0.2676  0.1752
  402MOL0     C54182   0.998   5.061   9.306  0.2292  0.8664  0.1197
  402MOL0     O54183   1.254   5.166   9.598  1.0726  0.2154 -0.3443
  402MOL0     C54184   1.408   4.871   9.486  0.9593  0.6384 -0.0334
  402MOL0     C54185   1.522   4.795   9.481 -0.7201  0.1120 -0.0634
  402MOL0     N54186   2.408   4.790   9.675 -0.3230 -0.3173  0.2591
  402MOL0     N54187   2.522   4.772   9.730 -0.1565 -0.6023 -0.2008
  402MOL0     C54188   3.692   4.416   9.511 -0.7265  0.0317 -0.4762
  402MOL0     C54189   3.815   4.466   9.553  0.5894  0.3063  0.1191
  402MOL0     C54190   4.079   4.612   9.931  0.1323  0.9731  0.4954
  402MOL0     C54191   4.104   4.620  10.067 -0.8481 -0.5624 -0.5377
  402MOL0     C54192   4.223   4.675  10.119  0.1299 -0.5538 -0.0918
  402MOL0     C54193   4.321   4.724  10.039  0.3854  0.3453 -0.7849
  402MOL0     O54194   4.434   4.765  10.096  0.6695  0.8562  0.7939
  402MOL0     C54195   4.486   4.897  10.062  0.5519  0.1238  0.7275
  402MOL0     C54196   4.591   4.936  10.156  0.3274  0.0224  0.3941
  402MOL0     C54197   4.544   5.005  10.286 -0.2594 -0.0752 -0.0929
  402MOL0     C54198   4.420   4.940  10.365 -0.1117  0.5625 -0.0063
  402MOL0     C54199   4.444   4.892  10.503  0.0948 -0.1171 -0.2123
  402MOL0     C54200   4.468   4.850  10.617  0.1235 -0.8099  0.4903
  402MOL0     C54201   4.299   4.718   9.901  0.1316 -0.6409  1.3567
  402MOL0     C54202   4.180   4.664   9.846  0.0144  0.4857 -0.1784
  402MOL0     H54203   3.801   4.355   9.872  0.1449  3.0995  0.3759
  402MOL0     H54204   3.593   4.258   9.804 -0.9638 -0.1171 -0.8944
  402MOL0     H54205   3.459   4.101   9.594  1.7367 -0.7971  2.4392
  402MOL0     H54206   3.389   4.214   9.712  0.0429  0.3340 -0.5389
  402MOL0     H54207   3.304   4.176   9.419  4.2330 -1.6712  1.1747
  402MOL0     H54208   3.216   4.113   9.551  2.2542 -2.3368 -1.4509
  402MOL0     H54209   3.238   4.409   9.523  1.0207 -0.2328  0.7844
  402MOL0     H54210   3.120   4.306   9.444 -2.1358  1.8730  0.4271
  402MOL0     H54211   3.079   4.220   9.692  1.1482 -0.2714  1.0978
  402MOL0     H54212   3.147   4.376   9.730 -1.2506  1.4850 -0.2678
  402MOL0     H54213   2.992   4.492   9.564 -0.6945  0.9860 -1.2574
  402MOL0     H54214   2.902   4.339   9.544 -0.4557  1.6458 -0.1196
  402MOL0     H54215   2.846   4.359   9.794  1.8378  1.5515  4.2347
  402MOL0     H54216   2.950   4.493   9.804  0.6172  0.0181 -1.1116
  402MOL0     H54217   2.813   4.628   9.647  0.5348 -0.3236  0.7560
  402MOL0     H54218   2.714   4.483   9.622 -2.6224 -0.3128  1.9126
  402MOL0     H54219   2.712   4.658   9.878  0.9419  1.6716 -1.7894
  402MOL0     H54220   2.643   4.499   9.870 -3.0835  0.4505 -0.2134
  402MOL0     H54221   2.445   4.465   9.671 -0.5798 -0.4718  0.1626
  402MOL0     H54222   2.268   4.649   9.453 -0.7541  4.1585 -0.4500
  402MOL0     H54223   2.206   4.556   9.598  0.4714  0.1150  1.8473
  402MOL0     H54224   2.152   4.853   9.518 -0.8873 -0.8534 -3.1074
  402MOL0     H54225   2.134   4.784   9.677 -0.2572 -0.0254  0.2456
  402MOL0     H54226   1.961   4.628   9.582  0.5659 -2.0135 -1.4655
  402MOL0     H54227   2.000   4.667   9.422 -3.1340 -2.2622  0.6917
  402MOL0     H54228   1.920   4.903   9.444  5.1321  2.4146  4.1191
  402MOL0     H54229   1.896   4.871   9.621 -2.1916 -1.6633  1.9420
  402MOL0     H54230   1.748   5.025   9.590  0.2351 -1.9513  2.5101
  402MOL0     H54231   1.477   5.244   9.669 -1.9109 -2.3357  0.8221
  402MOL0     H54232   1.640   5.233   9.608  0.4775 -2.4708 -1.8077
  402MOL0     H54233   1.516   5.264   9.495  1.5018 -0.3129 -0.2962
  402MOL0     H54234   1.178   5.330   9.406 -0.1643  1.2445  0.0020
  402MOL0     H54235   0.975   5.451   9.332  2.8537  0.1272 -1.1416
  402MOL0     H54236   0.825   5.312   9.016  0.4616  0.0895 -0.6085
  402MOL0     H54237   0.678   5.231   9.083 -0.3279  1.2743  2.7891
  402MOL0     H54238   0.636   5.421   8.909  3.4861  2.5981 -1.2016
  402MOL0     H54239   0.547   5.431   9.066 -0.1184 -1.7195 -1.0861
  402MOL0     H54240   0.799   5.587   9.018  0.7216  0.5252  1.0382
  402MOL0     H54241   0.677   5.595   9.138 -1.2631 -3.1720  0.0501
  402MOL0     H54242   0.619   5.657   8.851 -2.7296 -1.5078 -1.1142
  402MOL0     H54243   0.502   5.663   8.988  0.1755  2.3854  1.0173
  402MOL0     H54244   0.728   5.823   9.071 -0.2460  0.2701 -0.8378
  402MOL0     H54245   0.554   5.849   9.067 -1.9855 -3.7136 -0.1455
  402MOL0     H54246   0.731   5.857   8.814  0.0677  2.0441 -1.0141
  402MOL0     H54247   0.560   5.910   8.828 -2.2000  1.2485  1.8509
  402MOL0     H54248   0.712   6.066   9.023 -2.0352 -0.4781  0.8312
  402MOL0     H54249   0.617   6.114   8.884 -1.5358 -0.8774 -0.1106
  402MOL0     H54250   0.828   6.199   8.820 -0.7880  0.3123  2.7270
  402MOL0     H54251   0.815   6.053   8.731  0.1358  0.2310  0.3303
  402MOL0     H54252   0.809   5.081   9.214  1.0704 -1.2714 -0.4539
  402MOL0     H54253   1.017   4.956   9.289  2.2159  1.3603 -0.9860
  402MOL0     H54254   1.320   4.820   9.448  0.6129  2.3656 -1.7502
  402MOL0     H54255   1.509   4.691   9.452 -0.5320  0.3345 -0.9545
  402MOL0     H54256   3.663   4.432   9.408  1.1148 -2.4280 -1.4579
  402MOL0     H54257   3.883   4.517   9.485  0.8023  0.2186  0.2650
  402MOL0     H54258   4.031   4.584  10.139 -0.6471  1.4731  0.7602
  402MOL0     H54259   4.240   4.670  10.226 -1.1259 -2.0015  0.0762
  402MOL0     H54260   4.532   4.904   9.963  2.5165  3.3100  1.7015
  402MOL0     H54261   4.407   4.972  10.075 -0.0113 -0.4159  0.4651
  402MOL0     H54262   4.665   5.005  10.116  0.2035 -1.3148 -2.3084
  402MOL0     H54263   4.642   4.843  10.181 -0.5566 -0.5104  0.2696
  402MOL0     H54264   4.500   5.101  10.261 -4.3324 -2.0433 -1.2690
  402MOL0     H54265   4.631   5.023  10.350 -1.0040  0.1235  0.8828
  402MOL0     H54266   4.379   4.852  10.314 -1.8390 -0.1259  2.4133
  402MOL0     H54267   4.344   5.018  10.376 -1.2411 -0.6021  0.7609
  402MOL0     H54268   4.495   4.799  10.707  1.5529  3.9753  3.0911
  402MOL0     H54269   4.366   4.763   9.829 -0.9091 -3.1170 -1.3494
  402MOL0     H54270   4.171   4.668   9.738 -1.6166 -0.4569 -0.1188
  403MOL0     O54271   3.071   1.293   7.844  0.0029  0.5605  0.4171
  403MOL0     C54272   2.975   1.333   7.914  0.3257  0.0585 -0.5795
  403MOL0     O54273   2.871   1.252   7.969 -0.9646 -0.6542  0.0095
  403MOL0     C54274   2.875   1.115   7.962 -0.3802  0.6133 -0.5763
  403MOL0     C54275   2.999   1.046   7.972 -0.0627  0.1271 -0.4789
  403MOL0     C54276   3.002   0.906   7.995 -0.2312 -0.2928 -1.4635
  403MOL0     C54277   2.878   0.832   7.997 -0.8196 -0.1577  0.3458
  403MOL0     O54278   2.867   0.693   8.004  0.1646 -0.4517  0.0890
  403MOL0     C54279   2.979   0.624   8.059  0.6967  0.5785 -0.9235
  403MOL0     C54280   2.936   0.478   8.082  0.2212  0.7347  0.0779
  403MOL0     C54281   3.042   0.396   8.170 -0.2400 -0.0317 -0.3123
  403MOL0     C54282   2.987   0.262   8.203  0.1934  1.0926 -0.4245
  403MOL0     C54283   3.091   0.165   8.263 -0.0131 -0.1225 -0.0868
  403MOL0     C54284   3.020   0.037   8.322 -0.7020 -0.4837  0.1191
  403MOL0     C54285   3.124  -0.052   8.382 -0.3910 -0.0692  0.6694
  403MOL0     C54286   3.041  -0.163   8.442  0.3260  0.0151  0.9091
  403MOL0     N54287   3.112  -0.287   8.474 -0.0492 -0.1564  0.1265
  403MOL0     C54288   3.086  -0.377   8.576  0.1831  0.1796  0.5120
  403MOL0     C54289   3.179  -0.480   8.568 -0.4062 -0.6133  0.2745
  403MOL0     C54290   3.174  -0.606   8.651  0.5588 -0.3436  0.6064
  403MOL0     C54291   3.033  -0.659   8.663 -0.7449  0.1115 -0.2319
  403MOL0     C54292   3.043  -0.784   8.750  0.3712  0.3646 -0.5058
  403MOL0     C54293   2.910  -0.852   8.760  0.1706  0.4393  0.2143
  403MOL0     O54294   2.821  -0.763   8.835  0.0669 -0.4531 -0.6462
  403MOL0     C54295   2.689  -0.785   8.818  0.1825 -0.4363 -1.0491
  403MOL0     C54296   2.625  -0.905   8.780  0.7870 -0.5990  0.7657
  403MOL0     C54297   2.479  -0.903   8.752  0.3789 -0.3159  0.3126
  403MOL0     C54298   2.419  -1.037   8.712 -0.2644 -0.4464  0.4840
  403MOL0     C54299   2.402  -0.782   8.789  0.2770 -0.0947 -0.0462
  403MOL0     C54300   2.253  -0.764   8.778 -0.6095  1.1378  0.2414
  403MOL0     O54301   2.196  -0.650   8.827  0.7706 -0.6089  0.1379
  403MOL0     C54302   2.064  -0.633   8.791 -0.4106  0.2251 -0.4938
  403MOL0     C54303   2.014  -0.597   8.659 -0.3398  0.3077 -0.2379
  403MOL0     C54304   1.879  -0.572   8.654 -0.1261 -0.1375  0.4717
  403MOL0     C54305   1.792  -0.566   8.759 -0.5251 -0.1924 -0.1016
  403MOL0     O54306   1.656  -0.551   8.749  0.9560  0.4789 -0.0450
  403MOL0     C54307   1.624  -0.423   8.701 -0.8446  0.7029  0.0212
  403MOL0     C54308   1.482  -0.387   8.758 -0.7597 -0.5485  1.2899
  403MOL0     C54309   1.475  -0.401   8.908 -0.1513 -0.6400 -0.2100
  403MOL0     C54310   1.336  -0.405   8.940 -0.4394  0.0978 -1.4097
  403MOL0     C54311   1.317  -0.432   9.089  0.1447  0.0247  0.2577
  403MOL0     C54312   1.329  -0.576   9.131  0.0924  0.2411  1.3997
  403MOL0     C54313   1.292  -0.584   9.280  0.3165  0.0510  0.2135
  403MOL0     C54314   1.312  -0.729   9.338  0.4197  0.2366 -0.3435
  403MOL0    Cl54315   1.181  -0.828   9.279  0.1616  0.0702 -0.0845
  403MOL0     C54316   1.839  -0.601   8.884 -0.0559  0.6717 -0.7640
  403MOL0     C54317   1.974  -0.640   8.898  1.1408 -0.2796 -0.0429
  403MOL0     O54318   2.188  -0.867   8.746  0.2525  0.5883  0.4370
  403MOL0     C54319   2.475  -0.667   8.817  0.1323  0.5542 -0.7161
  403MOL0     C54320   2.603  -0.673   8.837  0.2222 -0.0311 -0.7079
  403MOL0     N54321   3.263  -0.445   8.468  0.4525  0.0505  0.5140
  403MOL0     N54322   3.232  -0.328   8.421  0.1266  0.0379  0.1109
  403MOL0     C54323   2.754   0.899   7.977 -0.2622  0.2550 -0.4549
  403MOL0     C54324   2.759   1.039   7.971 -0.4033  0.4103  0.0495
  403MOL0     C54325   2.966   1.482   7.932 -0.3670 -0.7509 -0.1558
  403MOL0     C54326   2.850   1.535   8.000 -0.6954  0.0235  0.9496
  403MOL0     C54327   2.842   1.675   8.017 -0.5896  0.9509  0.9923
  403MOL0     C54328   2.954   1.751   7.982 -0.4122 -0.3134 -0.2767
  403MOL0     O54329   2.943   1.885   8.002  0.7297  0.5519  1.0245
  403MOL0     C54330   3.007   1.910   8.120  0.1709 -0.1644  0.0353
  403MOL0     C54331   2.995   2.049   8.165  0.0893  0.1016 -0.0037
  403MOL0     C54332   3.088   2.139   8.097 -0.5725 -0.6627 -0.1475
  403MOL0     C54333   3.132   2.254   8.183 -0.3002  0.0364 -0.4096
  403MOL0     C54334   3.238   2.329   8.114 -0.9285  0.2861  0.5222
  403MOL0     C54335   3.317   2.402   8.051 -0.0535 -0.4483  0.3463
  403MOL0     C54336   3.066   1.702   7.913 -0.0865  0.7528 -1.0354
  403MOL0     C54337   3.071   1.564   7.886  0.1689 -0.5221  1.0226
  403MOL0     H54338   3.096   1.094   7.964  0.6070 -1.1584 -0.3690
  403MOL0     H54339   3.098   0.858   8.011  1.1273  2.7347  0.4680
  403MOL0     H54340   3.064   0.624   7.991  0.7084  0.9769 -0.9138
  403MOL0     H54341   3.002   0.662   8.159 -2.2264 -1.9452  0.9127
  403MOL0     H54342   2.838   0.486   8.129  0.9160 -1.0541  1.9940
  403MOL0     H54343   2.916   0.439   7.982 -3.2263 -0.9576  1.2749
  403MOL0     H54344   3.137   0.394   8.116  3.3782  0.3203  5.3115
  403MOL0     H54345   3.064   0.450   8.262 -3.2207  0.7329  0.0631
  403MOL0     H54346   2.908   0.276   8.276 -1.1770 -3.4513 -0.7231
  403MOL0     H54347   2.945   0.218   8.112  3.8319  0.3659 -1.9602
  403MOL0     H54348   3.162   0.143   8.183 -0.5485  0.4085 -0.7226
  403MOL0     H54349   3.142   0.211   8.348 -0.5642 -1.2326  0.8761
  403MOL0     H54350   2.954   0.074   8.401 -1.5056 -1.5344 -0.0424
  403MOL0     H54351   2.958  -0.005   8.243  1.5098 -1.4833 -1.2041
  403MOL0     H54352   3.203  -0.089   8.317  2.2345  0.5255  3.2990
  403MOL0     H54353   3.159  -0.005   8.475  1.8774 -0.8146  0.2512
  403MOL0     H54354   2.964  -0.191   8.370  1.6925  0.0186 -0.5886
  403MOL0     H54355   2.990  -0.114   8.526  0.5075  3.0788 -0.6247
  403MOL0     H54356   3.003  -0.372   8.645  0.5410  3.2467  0.8491
  403MOL0     H54357   3.234  -0.690   8.615 -0.7020 -1.6382  1.3802
  403MOL0     H54358   3.209  -0.575   8.750  0.0720  0.7817  0.4375
  403MOL0     H54359   3.003  -0.681   8.560  0.5879  0.6882 -0.7643
  403MOL0     H54360   2.964  -0.586   8.708 -0.0401  1.0854 -0.6818
  403MOL0     H54361   3.085  -0.758   8.847  0.3593  0.5185 -0.5424
  403MOL0     H54362   3.104  -0.855   8.693 -1.5183  0.4120 -2.7854
  403MOL0     H54363   2.903  -0.956   8.793  3.0325 -0.7181 -2.3419
  403MOL0     H54364   2.875  -0.857   8.657  0.1244  1.9406  0.1424
  403MOL0     H54365   2.681  -0.994   8.751 -2.6058 -3.0763  1.1885
  403MOL0     H54366   2.499  -1.111   8.703  0.3970  0.0351  1.9611
  403MOL0     H54367   2.358  -1.073   8.795  0.3733  0.8347  1.5632
  403MOL0     H54368   2.367  -1.017   8.618 -0.9545 -1.6109  0.5932
  403MOL0     H54369   2.090  -0.595   8.582  1.7826 -1.2981  1.6785
  403MOL0     H54370   1.845  -0.546   8.555  1.2837  0.9418  0.2342
  403MOL0     H54371   1.705  -0.355   8.729  0.4032 -1.8307  3.1808
  403MOL0     H54372   1.617  -0.426   8.592 -1.6721  0.4348  0.0706
  403MOL0     H54373   1.444  -0.292   8.719  0.4173 -1.8241 -3.7365
  403MOL0     H54374   1.416  -0.456   8.705 -2.7128  2.5301 -0.6132
  403MOL0     H54375   1.536  -0.322   8.952 -0.7111 -0.5382  0.3971
  403MOL0     H54376   1.525  -0.491   8.947  0.6029  0.9959  2.8708
  403MOL0     H54377   1.284  -0.311   8.919  2.4326  2.0565 -0.3361
  403MOL0     H54378   1.292  -0.488   8.883 -2.5580 -0.6910  1.1532
  403MOL0     H54379   1.210  -0.411   9.103 -0.0969 -2.0229  1.9071
  403MOL0     H54380   1.380  -0.363   9.146 -0.1643 -0.2828  0.9702
  403MOL0     H54381   1.262  -0.631   9.065  0.3157  1.8096 -0.2213
  403MOL0     H54382   1.428  -0.621   9.119 -0.7425 -1.6422  1.2696
  403MOL0     H54383   1.186  -0.560   9.294  0.0573 -0.6739 -0.4196
  403MOL0     H54384   1.356  -0.512   9.331  1.4427 -2.6431  2.9135
  403MOL0     H54385   1.307  -0.726   9.448 -2.6489  1.6846 -0.3986
  403MOL0     H54386   1.406  -0.777   9.312  0.8197  0.4636  0.6217
  403MOL0     H54387   1.778  -0.614   8.973  0.5321 -4.8641 -0.7794
  403MOL0     H54388   2.002  -0.669   8.998 -1.4971  2.5971  1.7052
  403MOL0     H54389   2.426  -0.572   8.836 -0.2549  0.4566 -1.1870
  403MOL0     H54390   2.654  -0.581   8.863 -1.7234  0.1554  3.0022
  403MOL0     H54391   2.653   0.861   7.989 -0.3433 -0.6285 -3.2536
  403MOL0     H54392   2.665   1.090   7.986 -0.8101 -1.3213  5.9169
  403MOL0     H54393   2.763   1.473   8.022  0.7785 -2.5606 -0.0141
  403MOL0     H54394   2.746   1.713   8.050 -0.8720  0.2399  1.0031
  403MOL0     H54395   2.972   1.838   8.195 -1.3630 -2.7953 -2.9849
  403MOL0     H54396   3.115   1.891   8.112 -0.0787 -1.5866 -0.3337
  403MOL0     H54397   3.021   2.047   8.271 -2.0970 -0.9342  0.5716
  403MOL0     H54398   2.894   2.090   8.156  0.1373  0.0976 -0.6046
  403MOL0     H54399   3.041   2.181   8.007  0.7000  1.9413  0.2936
  403MOL0     H54400   3.181   2.088   8.072  0.5967  1.9636 -1.6486
  403MOL0     H54401   3.174   2.227   8.280 -2.9938 -0.2413  0.7856
  403MOL0     H54402   3.052   2.326   8.204  0.7072  1.5001 -1.3232
  403MOL0     H54403   3.388   2.460   7.995 -1.5329  0.0806 -1.0706
  403MOL0     H54404   3.155   1.760   7.890 -0.9749  1.1662 -3.7569
  403MOL0     H54405   3.158   1.532   7.828  0.7090  2.0635  0.2997
  404MOL0     O54406   6.932   5.405   0.570  0.0789 -0.1493  0.2882
  404MOL0     C54407   7.022   5.347   0.632  0.1110 -0.3695  0.6415
  404MOL0     O54408   7.008   5.241   0.717  0.3680 -0.6080 -0.1421
  404MOL0     C54409   6.890   5.193   0.757 -0.0880  0.1711  1.0577
  404MOL0     C54410   6.775   5.276   0.770 -0.4706 -0.0321  0.1904
  404MOL0     C54411   6.653   5.223   0.802  0.3174 -0.1301 -0.3661
  404MOL0     C54412   6.644   5.088   0.828  0.4012 -0.3273 -0.7990
  404MOL0     O54413   6.528   5.016   0.857  0.1685 -0.4256  0.6603
  404MOL0     C54414   6.426   5.091   0.924  0.5473  0.5704 -0.2252
  404MOL0     C54415   6.294   5.012   0.932 -0.8759  0.1845 -0.5925
  404MOL0     C54416   6.259   4.999   1.081  0.0980 -0.4514 -0.2619
  404MOL0     C54417   6.124   4.937   1.097 -0.2584  0.2973 -0.0646
  404MOL0     C54418   6.073   4.945   1.247  0.4679 -0.5284  1.1670
  404MOL0     C54419   5.929   4.901   1.260  0.1999 -0.0669  0.0580
  404MOL0     C54420   5.871   4.939   1.398  0.5914  0.4042 -0.3094
  404MOL0     C54421   5.736   4.873   1.435  0.1843  0.3414 -0.4033
  404MOL0     N54422   5.627   4.973   1.435  0.5357 -0.0951  0.6673
  404MOL0     C54423   5.586   5.044   1.324  0.7272  0.1061 -0.2755
  404MOL0     C54424   5.490   5.132   1.373 -0.3610  0.5279  0.2325
  404MOL0     C54425   5.431   5.242   1.310 -0.0158  0.4260 -0.3331
  404MOL0     C54426   5.285   5.273   1.365  0.2735 -0.3553  0.2559
  404MOL0     C54427   5.297   5.385   1.473  0.0200 -0.5504  0.1321
  404MOL0     C54428   5.167   5.401   1.558 -0.2172 -0.0395 -0.1616
  404MOL0     O54429   5.057   5.472   1.498  0.1107  0.4411  0.3125
  404MOL0     C54430   4.953   5.506   1.574 -0.2413  0.2334 -0.5665
  404MOL0     C54431   4.830   5.509   1.515 -0.4273  0.0122 -0.5636
  404MOL0     C54432   4.713   5.541   1.580  1.3116 -0.2686 -0.4332
  404MOL0     C54433   4.587   5.557   1.495 -1.0014  0.6320  0.5699
  404MOL0     C54434   4.717   5.577   1.720 -0.0097 -1.1602  0.1008
  404MOL0     C54435   4.595   5.603   1.792 -0.5565  0.5771 -0.2007
  404MOL0     O54436   4.606   5.578   1.922 -0.0842 -0.0007  1.7335
  404MOL0     C54437   4.482   5.556   1.988 -0.1587 -0.1305  0.0384
  404MOL0     C54438   4.367   5.495   1.932  0.0538 -0.2258 -0.6525
  404MOL0     C54439   4.248   5.487   2.006  0.3270  0.2546 -0.2208
  404MOL0     C54440   4.253   5.524   2.140 -0.4694 -0.1549  0.4792
  404MOL0     O54441   4.134   5.518   2.218 -0.7310 -0.2926  0.9272
  404MOL0     C54442   4.047   5.399   2.210  0.2955 -1.1660  0.7461
  404MOL0     C54443   3.962   5.386   2.329 -0.6323  0.1942  0.9747
  404MOL0     C54444   3.861   5.269   2.309 -0.3380  0.2071  0.1358
  404MOL0     C54445   3.783   5.241   2.432  0.2269 -0.5647 -0.6784
  404MOL0     C54446   3.671   5.125   2.423 -0.6556  0.3695  0.7204
  404MOL0     C54447   3.646   5.066   2.560 -0.7265  0.7297  0.2337
  404MOL0     C54448   3.550   4.945   2.560  0.4040 -0.2811 -0.1093
  404MOL0     C54449   3.569   4.837   2.444 -0.4047  0.1101 -0.7915
  404MOL0    Cl54450   3.486   4.911   2.299  0.4775 -0.0951 -0.0853
  404MOL0     C54451   4.373   5.571   2.200  0.2471 -0.5147  0.1690
  404MOL0     C54452   4.485   5.590   2.122  0.1557 -0.0286 -0.0937
  404MOL0     O54453   4.504   5.668   1.739  0.4540  0.6997  0.5129
  404MOL0     C54454   4.850   5.568   1.783 -0.1365  0.2175 -0.0857
  404MOL0     C54455   4.969   5.545   1.703  0.0664 -0.3504  0.4040
  404MOL0     N54456   5.492   5.126   1.511  0.5524 -0.3060  0.3264
  404MOL0     N54457   5.571   5.029   1.543 -0.2529 -0.8124 -0.5524
  404MOL0     C54458   6.761   4.999   0.823  0.3696  0.1177 -0.1627
  404MOL0     C54459   6.876   5.056   0.789  0.1571  0.8216  0.5924
  404MOL0     C54460   7.149   5.398   0.594  0.2421  0.9473  0.0645
  404MOL0     C54461   7.262   5.326   0.625  0.4612  0.9079 -0.8767
  404MOL0     C54462   7.383   5.380   0.595 -0.1449 -0.6647  0.5940
  404MOL0     C54463   7.408   5.506   0.539 -0.2457 -0.1179 -0.1738
  404MOL0     O54464   7.537   5.549   0.528  0.1915  0.1481  0.4241
  404MOL0     C54465   7.567   5.666   0.445  0.5811  0.5929  0.0083
  404MOL0     C54466   7.541   5.799   0.509  0.0331  0.1138  0.3331
  404MOL0     C54467   7.572   5.795   0.660  0.5564  0.7148 -0.1287
  404MOL0     C54468   7.529   5.928   0.718  0.6682  0.3125  0.6395
  404MOL0     C54469   7.379   5.953   0.716  0.0727 -0.4159 -0.8103
  404MOL0     C54470   7.253   5.963   0.715  0.1653 -0.4013  0.2446
  404MOL0     C54471   7.291   5.569   0.487  0.1286 -0.2762  0.5772
  404MOL0     C54472   7.165   5.508   0.520 -0.5436 -0.6330 -0.0258
  404MOL0     H54473   6.777   5.383   0.752  1.4333 -0.1302 -0.4109
  404MOL0     H54474   6.555   5.270   0.807  0.8641  1.0679 -0.7075
  404MOL0     H54475   6.458   5.108   1.027 -1.4195  0.5347  0.4467
  404MOL0     H54476   6.398   5.182   0.870  0.6334 -0.6026 -2.3525
  404MOL0     H54477   6.225   5.075   0.874  2.2224  3.5724 -0.9864
  404MOL0     H54478   6.300   4.915   0.883  0.4469  0.0743 -0.2375
  404MOL0     H54479   6.333   4.940   1.136  1.3068  0.5081 -0.7839
  404MOL0     H54480   6.260   5.099   1.124 -0.7624 -0.6929  0.3352
  404MOL0     H54481   6.055   4.985   1.028 -0.0214  1.8812  0.7536
  404MOL0     H54482   6.136   4.833   1.067  1.3010  0.5007 -0.2445
  404MOL0     H54483   6.145   4.887   1.305  0.2494 -2.7751 -0.6883
  404MOL0     H54484   6.086   5.051   1.271  3.4593 -0.8008  1.1375
  404MOL0     H54485   5.861   4.941   1.184 -1.5312 -4.4232 -1.0217
  404MOL0     H54486   5.927   4.793   1.241 -0.7618 -0.4811  2.1544
  404MOL0     H54487   5.946   4.905   1.471 -0.2912 -1.0998 -0.0439
  404MOL0     H54488   5.867   5.047   1.408  2.3665  0.6056 -1.3451
  404MOL0     H54489   5.741   4.830   1.535  1.1359  0.8487 -0.2238
  404MOL0     H54490   5.695   4.804   1.360  0.0041  2.2772 -2.1741
  404MOL0     H54491   5.626   5.039   1.223  1.4194 -1.5700  0.0408
  404MOL0     H54492   5.501   5.325   1.319  2.4331 -1.6660  1.1204
  404MOL0     H54493   5.428   5.226   1.201  0.3907 -0.7063 -0.1880
  404MOL0     H54494   5.241   5.182   1.408  2.3609  0.3054  4.3260
  404MOL0     H54495   5.223   5.301   1.279 -0.1926  1.3497  1.1056
  404MOL0     H54496   5.338   5.474   1.425 -0.4892 -1.4326 -2.0805
  404MOL0     H54497   5.378   5.362   1.542 -0.3117  0.5513  0.9280
  404MOL0     H54498   5.200   5.455   1.647 -2.4367 -1.1079  1.3955
  404MOL0     H54499   5.140   5.303   1.600  1.5472 -0.6230 -0.2797
  404MOL0     H54500   4.831   5.486   1.408 -0.2529  6.0919 -2.2392
  404MOL0     H54501   4.512   5.492   1.541 -2.4857  1.7701 -0.1719
  404MOL0     H54502   4.537   5.653   1.487 -1.7151  0.1964 -0.3335
  404MOL0     H54503   4.606   5.514   1.396 -0.2650  1.8568  0.1637
  404MOL0     H54504   4.361   5.465   1.828 -0.2492 -2.2115 -0.1159
  404MOL0     H54505   4.159   5.453   1.954 -1.6625  2.7155  1.3347
  404MOL0     H54506   3.982   5.398   2.122  1.4048  0.1174 -0.1314
  404MOL0     H54507   4.108   5.309   2.209  0.2793 -1.1854 -0.3864
  404MOL0     H54508   4.018   5.368   2.420  1.7701 -0.4431 -0.5425
  404MOL0     H54509   3.904   5.479   2.334 -1.0800  0.2033 -2.1551
  404MOL0     H54510   3.908   5.179   2.268  0.9950  0.9265  0.0431
  404MOL0     H54511   3.795   5.300   2.228  0.1300 -1.0278 -0.7515
  404MOL0     H54512   3.854   5.204   2.507 -1.6244 -0.5917  1.1399
  404MOL0     H54513   3.747   5.337   2.469  2.2155  0.1575 -0.4800
  404MOL0     H54514   3.715   5.051   2.356 -3.1235  1.1697 -1.9957
  404MOL0     H54515   3.578   5.156   2.373 -0.5135 -2.6114 -1.7216
  404MOL0     H54516   3.745   5.047   2.602 -0.4795  0.9056 -0.2716
  404MOL0     H54517   3.603   5.141   2.628 -0.6939 -0.9858  2.2511
  404MOL0     H54518   3.445   4.972   2.577 -0.3448 -3.1131  0.3462
  404MOL0     H54519   3.580   4.892   2.651  1.1625 -0.9513 -0.7288
  404MOL0     H54520   3.517   4.744   2.468 -0.0999  0.2423  0.4738
  404MOL0     H54521   3.676   4.822   2.431  0.1187  1.6725  1.1511
  404MOL0     H54522   4.376   5.589   2.307  1.1170 -3.4176  0.7051
  404MOL0     H54523   4.573   5.621   2.178 -0.5613  2.3775 -0.1833
  404MOL0     H54524   4.869   5.609   1.882 -2.9592 -0.9799  1.0463
  404MOL0     H54525   5.059   5.585   1.749 -1.2959  4.0351 -0.2677
  404MOL0     H54526   6.741   4.893   0.828 -2.9340  0.6449  0.6546
  404MOL0     H54527   6.964   4.993   0.788 -2.0666 -2.5171  0.0504
  404MOL0     H54528   7.272   5.225   0.663  2.9133  2.1003  2.0990
  404MOL0     H54529   7.480   5.333   0.609  0.3677  0.6189  1.5720
  404MOL0     H54530   7.673   5.659   0.420  0.6432  0.7590  0.2170
  404MOL0     H54531   7.508   5.665   0.353 -1.7803  2.6855  1.3566
  404MOL0     H54532   7.439   5.827   0.484  1.5553  3.6098 -3.1189
  404MOL0     H54533   7.599   5.885   0.472 -2.2555  1.7552  0.3527
  404MOL0     H54534   7.678   5.775   0.678  0.2228  2.0131  4.5648
  404MOL0     H54535   7.503   5.720   0.700 -0.1768  0.4282 -1.8220
  404MOL0     H54536   7.576   6.011   0.664  2.2353 -0.8429  0.1539
  404MOL0     H54537   7.557   5.934   0.824  0.1290  0.8545  0.7570
  404MOL0     H54538   7.148   5.980   0.704 -0.1120 -2.1626 -0.1623
  404MOL0     H54539   7.276   5.664   0.436 -2.2018 -2.2763 -2.8934
  404MOL0     H54540   7.080   5.565   0.484 -0.8023 -0.4383  0.8751
  405MOL0     O54541   4.432   1.415   9.651 -0.2641 -0.1600 -0.5961
  405MOL0     C54542   4.408   1.298   9.689  0.1235 -0.6451 -0.7619
  405MOL0     O54543   4.297   1.264   9.751  0.3772 -0.4002 -0.4514
  405MOL0     C54544   4.183   1.342   9.735 -0.7244 -0.0107 -0.0693
  405MOL0     C54545   4.075   1.321   9.824  0.5118  0.6117 -0.2851
  405MOL0     C54546   3.954   1.398   9.817 -0.1207 -0.0582 -0.3177
  405MOL0     C54547   3.944   1.496   9.722 -0.1022  0.4887 -0.5755
  405MOL0     O54548   3.839   1.590   9.721 -0.4638  0.2383  0.1531
  405MOL0     C54549   3.743   1.586   9.823 -0.6688 -1.2070  0.8839
  405MOL0     C54550   3.650   1.705   9.809  0.5505 -0.0746  0.2681
  405MOL0     C54551   3.515   1.662   9.870 -0.3892  0.1568  0.7334
  405MOL0     C54552   3.405   1.768   9.860  0.4215 -0.0293 -0.8169
  405MOL0     C54553   3.284   1.704   9.922  0.5009  0.2282 -0.9867
  405MOL0     C54554   3.274   1.704  10.080  0.4838  0.8782 -0.7912
  405MOL0     C54555   3.129   1.675  10.118 -1.6720 -0.0300  0.7317
  405MOL0     C54556   3.102   1.524  10.108 -0.4699 -1.0634  0.8623
  405MOL0     N54557   2.958   1.491  10.142 -0.6661  0.8931  0.4275
  405MOL0     C54558   2.913   1.470  10.268  0.0587 -1.2065  0.5562
  405MOL0     C54559   2.780   1.456  10.247 -0.6347 -0.2283  0.3560
  405MOL0     C54560   2.688   1.424  10.363 -1.1198  0.1012 -0.1583
  405MOL0     C54561   2.601   1.547  10.398 -0.0410  0.3663 -0.8248
  405MOL0     C54562   2.689   1.661  10.463  0.7489 -0.0514  0.1728
  405MOL0     C54563   2.600   1.743  10.558 -0.5398  0.4700  1.2120
  405MOL0     O54564   2.537   1.676  10.664  0.3296  0.3335  0.3827
  405MOL0     C54565   2.466   1.763  10.749  0.0839  1.1098  0.5266
  405MOL0     C54566   2.425   1.895  10.724  0.6257  0.2666  0.8716
  405MOL0     C54567   2.335   1.964  10.806 -0.7699  0.8336 -0.0064
  405MOL0     C54568   2.300   2.103  10.759  0.2485  0.3541  0.1379
  405MOL0     C54569   2.283   1.903  10.923 -0.2425 -1.0897  0.1814
  405MOL0     C54570   2.197   1.980  11.019 -0.6583 -0.3272 -0.6264
  405MOL0     O54571   2.210   2.116  11.022  0.1339 -0.0874 -0.0543
  405MOL0     C54572   2.130   2.192  11.103  0.5737  0.8028 -0.4751
  405MOL0     C54573   2.095   2.153  11.233  1.0797  0.7608 -0.0017
  405MOL0     C54574   2.002   2.227  11.304  0.4479 -0.6626  0.6409
  405MOL0     C54575   1.947   2.351  11.256  1.1805  0.7574  0.4938
  405MOL0     O54576   1.869   2.434  11.336  0.0219 -0.4021 -1.0750
  405MOL0     C54577   1.819   2.558  11.282  0.4897 -1.1072  1.0824
  405MOL0     C54578   1.771   2.657  11.391 -0.5050 -0.6491  0.8801
  405MOL0     C54579   1.764   2.794  11.325 -0.4166 -1.2935  0.2334
  405MOL0     C54580   1.714   2.893  11.429 -0.4075  0.3655 -0.1192
  405MOL0     C54581   1.689   3.038  11.381  0.4628  0.3324 -0.2638
  405MOL0     C54582   1.811   3.122  11.333  0.5512  0.2167 -0.1076
  405MOL0     C54583   1.764   3.255  11.269 -0.6605 -0.0691  0.5417
  405MOL0     C54584   1.866   3.342  11.217 -0.9018 -0.0209 -0.2377
  405MOL0    Cl54585   1.987   3.249  11.131 -0.3430 -0.0237  0.2209
  405MOL0     C54586   1.980   2.384  11.120 -0.4508  0.9456  0.0408
  405MOL0     C54587   2.066   2.301  11.044 -0.1719 -1.1132 -0.2065
  405MOL0     O54588   2.106   1.912  11.063 -0.0121  0.8383  0.1099
  405MOL0     C54589   2.334   1.778  10.963  0.3460 -0.0870 -0.3216
  405MOL0     C54590   2.417   1.706  10.875  0.8208 -0.4841  0.7591
  405MOL0     N54591   2.752   1.477  10.115  0.4475 -0.4058  0.2788
  405MOL0     N54592   2.858   1.516  10.055  0.7454 -0.2908 -0.0657
  405MOL0     C54593   4.048   1.515   9.631  0.2926 -0.1906  0.0368
  405MOL0     C54594   4.165   1.434   9.635  0.0565 -0.6601 -0.3724
  405MOL0     C54595   4.526   1.204   9.689  0.5483 -0.0429  0.0294
  405MOL0     C54596   4.629   1.231   9.590  0.1434  0.3323  0.2917
  405MOL0     C54597   4.738   1.145   9.591  0.2184  0.5506  0.2427
  405MOL0     C54598   4.751   1.027   9.660  0.1967  0.5415  0.0988
  405MOL0     O54599   4.844   0.930   9.642  0.1626  0.1045 -0.3540
  405MOL0     C54600   4.971   0.965   9.587  0.6392 -0.3854  0.2918
  405MOL0     C54601   5.055   0.838   9.590  0.2191  0.9542  0.3982
  405MOL0     C54602   5.200   0.860   9.591 -1.0753  0.5739  1.4835
  405MOL0     C54603   5.273   0.735   9.657 -0.6897 -0.0105 -0.3192
  405MOL0     C54604   5.244   0.608   9.578  0.1366 -1.2870  0.2949
  405MOL0     C54605   5.213   0.517   9.501  0.2288  0.2940 -1.0389
  405MOL0     C54606   4.638   0.999   9.750 -0.0518 -0.4429  0.0266
  405MOL0     C54607   4.527   1.088   9.767 -1.2370 -0.3967 -0.1150
  405MOL0     H54608   4.078   1.243   9.899 -0.6713  0.5343 -0.2940
  405MOL0     H54609   3.880   1.374   9.892  1.0935 -1.7672  0.3987
  405MOL0     H54610   3.691   1.489   9.826 -2.4828 -0.2776  1.1240
  405MOL0     H54611   3.790   1.613   9.917  2.0189 -1.4164 -0.3195
  405MOL0     H54612   3.692   1.797   9.852  0.8969  1.5650 -3.2441
  405MOL0     H54613   3.630   1.716   9.702 -0.0368 -0.3227  0.3490
  405MOL0     H54614   3.478   1.572   9.820  2.8952 -0.1158 -1.4960
  405MOL0     H54615   3.533   1.640   9.976  2.6312  2.2755  0.7879
  405MOL0     H54616   3.430   1.859   9.916 -1.1763  1.9532 -3.1142
  405MOL0     H54617   3.378   1.800   9.758  0.7806  0.6024 -0.7212
  405MOL0     H54618   3.197   1.758   9.881 -1.5948 -1.5827  0.8324
  405MOL0     H54619   3.275   1.601   9.887 -0.1499 -0.7085  1.7320
  405MOL0     H54620   3.333   1.623  10.123 -3.3667 -2.3223 -0.9858
  405MOL0     H54621   3.307   1.796  10.129  0.7625  0.8665 -0.9558
  405MOL0     H54622   3.100   1.702  10.220  0.8836 -1.6260  1.9608
  405MOL0     H54623   3.069   1.728  10.043  2.8598  0.9274 -2.6081
  405MOL0     H54624   3.181   1.469  10.160  1.0455  0.7660  0.5857
  405MOL0     H54625   3.129   1.492  10.007  1.7995 -1.2531  1.4570
  405MOL0     H54626   2.973   1.467  10.358  1.8490  0.6139 -0.4894
  405MOL0     H54627   2.618   1.343  10.341  0.0669 -1.7419  2.3465
  405MOL0     H54628   2.749   1.380  10.443 -2.3043  0.3814  0.9357
  405MOL0     H54629   2.531   1.510  10.473  1.4899 -0.8590  0.0789
  405MOL0     H54630   2.554   1.583  10.306 -0.7401 -0.7827 -0.9285
  405MOL0     H54631   2.739   1.721  10.387  1.9368 -0.2955  0.7286
  405MOL0     H54632   2.771   1.620  10.523  2.0563 -1.0337 -2.1414
  405MOL0     H54633   2.521   1.791  10.501  0.3374  0.7201  0.1737
  405MOL0     H54634   2.658   1.827  10.599  0.9816  0.1596 -0.1770
  405MOL0     H54635   2.463   1.945  10.636 -0.2750 -3.2982 -1.7581
  405MOL0     H54636   2.348   2.180  10.820  0.8839  0.9906 -1.1152
  405MOL0     H54637   2.338   2.128  10.659 -0.1736 -0.2858 -0.1878
  405MOL0     H54638   2.191   2.110  10.757 -0.0849 -3.2719 -0.9257
  405MOL0     H54639   2.144   2.066  11.277  0.6500  0.7871  0.5451
  405MOL0     H54640   1.960   2.201  11.401 -2.5969  1.0863 -0.0538
  405MOL0     H54641   1.896   2.613  11.226 -0.8143  1.7286  1.8663
  405MOL0     H54642   1.739   2.551  11.208 -1.4299  3.3189  2.3962
  405MOL0     H54643   1.674   2.623  11.427 -0.4853 -0.4340  1.1356
  405MOL0     H54644   1.838   2.659  11.477  0.7223  5.0610  0.1515
  405MOL0     H54645   1.695   2.798  11.240  1.2244  2.2658 -1.1413
  405MOL0     H54646   1.858   2.831  11.283 -1.7116  0.4083 -1.3421
  405MOL0     H54647   1.617   2.863  11.470 -0.1594  0.3735  0.4914
  405MOL0     H54648   1.786   2.895  11.511 -0.4246 -0.0401 -0.0921
  405MOL0     H54649   1.637   3.095  11.458 -0.0869 -0.8727  0.2870
  405MOL0     H54650   1.616   3.030  11.300 -0.7259 -0.1845  0.8385
  405MOL0     H54651   1.890   3.131  11.409  2.4834 -0.3254 -1.9393
  405MOL0     H54652   1.856   3.073  11.246  3.9205  4.2523 -0.9752
  405MOL0     H54653   1.697   3.314  11.332  1.0283  1.4339  1.0010
  405MOL0     H54654   1.695   3.220  11.191  0.1969 -1.9804  0.5781
  405MOL0     H54655   1.922   3.404  11.288  0.9534 -2.2042  0.3411
  405MOL0     H54656   1.799   3.403  11.156 -1.3957 -2.2028 -2.0113
  405MOL0     H54657   1.933   2.472  11.080 -0.1564  0.7273 -0.8080
  405MOL0     H54658   2.084   2.332  10.942  3.0956 -0.4869  0.4454
  405MOL0     H54659   2.306   1.747  11.064  0.3635  0.5643 -0.1127
  405MOL0     H54660   2.457   1.609  10.903 -1.3026 -1.4951  0.5292
  405MOL0     H54661   4.046   1.588   9.550  0.5623 -2.1787 -1.8646
  405MOL0     H54662   4.238   1.446   9.555  0.9744  2.0646  0.7513
  405MOL0     H54663   4.623   1.314   9.520  0.4084  0.3776  0.3208
  405MOL0     H54664   4.806   1.165   9.509  0.8398  1.7298  1.0069
  405MOL0     H54665   4.967   1.012   9.489  1.6038  0.9367  0.8562
  405MOL0     H54666   5.009   1.039   9.658  0.8808  0.2663 -0.5112
  405MOL0     H54667   5.020   0.782   9.503  3.1501 -1.3484  0.5220
  405MOL0     H54668   5.029   0.779   9.679 -1.0478  0.1164 -0.4935
  405MOL0     H54669   5.237   0.947   9.645  2.1020 -0.1711  0.7224
  405MOL0     H54670   5.228   0.876   9.487 -0.5188 -1.5270  1.2740
  405MOL0     H54671   5.231   0.718   9.757 -1.3060 -0.7573 -0.6984
  405MOL0     H54672   5.378   0.758   9.679 -0.2204 -2.8354  0.7575
  405MOL0     H54673   5.179   0.442   9.432 -1.3584  1.6986 -1.8545
  405MOL0     H54674   4.641   0.903   9.800  1.9045 -0.1678  0.5147
  405MOL0     H54675   4.443   1.054   9.827  0.7682 -1.9687  1.9674
  406MOL0     O54676   2.942  11.334   1.556  0.3742 -0.7240  0.3590
  406MOL0     C54677   2.889  11.380   1.454  0.1154 -0.9154  0.2640
  406MOL0     O54678   2.927  11.360   1.325  0.0319  0.5893  1.0476
  406MOL0     C54679   3.046  11.291   1.320  0.2715 -0.5806  0.3869
  406MOL0     C54680   3.043  11.149   1.339  0.7698 -0.9146 -0.1178
  406MOL0     C54681   3.165  11.075   1.321  0.0988 -0.0130  0.8282
  406MOL0     C54682   3.287  11.137   1.272 -0.4351  0.8555  0.1986
  406MOL0     O54683   3.407  11.064   1.254 -0.5734  0.1322  0.1062
  406MOL0     C54684   3.406  10.925   1.263  0.2613  0.1233 -0.1744
  406MOL0     C54685   3.540  10.877   1.202  0.0495  0.6743 -0.1704
  406MOL0     C54686   3.527  10.735   1.170 -0.7621 -0.4639  0.1033
  406MOL0     C54687   3.656  10.675   1.099  0.1704  0.0111  0.5914
  406MOL0     C54688   3.798  10.699   1.172  0.4535  0.0940 -0.1420
  406MOL0     C54689   3.912  10.619   1.121 -0.0967 -0.2705 -0.1003
  406MOL0     C54690   4.048  10.668   1.145 -0.5202 -0.2004 -0.3011
  406MOL0     C54691   4.162  10.568   1.123  0.0984  0.3860  0.4380
  406MOL0     N54692   4.157  10.504   0.988  0.3304  0.1347  0.5310
  406MOL0     C54693   4.118  10.377   0.961 -0.3748  0.5633 -0.3449
  406MOL0     C54694   4.098  10.366   0.828 -0.1426  0.4731 -0.0215
  406MOL0     C54695   4.049  10.236   0.765 -0.0668  0.0171  0.2795
  406MOL0     C54696   3.945  10.248   0.644 -0.8070  0.1164  0.0569
  406MOL0     C54697   3.809  10.288   0.691  0.4018 -0.2655 -0.9014
  406MOL0     C54698   3.687  10.262   0.602 -0.0193  0.5036  0.2974
  406MOL0     O54699   3.700  10.331   0.470  0.5510  0.3738 -0.3825
  406MOL0     C54700   3.663  10.256   0.360  0.3461  0.2449  0.2530
  406MOL0     C54701   3.757  10.173   0.300  0.1061 -0.4548 -0.3752
  406MOL0     C54702   3.731  10.082   0.192  0.8978 -0.6037 -0.4946
  406MOL0     C54703   3.845   9.992   0.146 -0.1436  0.0439 -0.8903
  406MOL0     C54704   3.602  10.088   0.137 -1.4797 -0.1492 -0.5056
  406MOL0     C54705   3.555   9.996   0.035  0.1519  0.6078  0.3827
  406MOL0     O54706   3.444  10.030  -0.035 -0.1379 -0.1494  0.4574
  406MOL0     C54707   3.396   9.963  -0.144  0.3618  0.2851  0.9907
  406MOL0     C54708   3.263   9.938  -0.156  0.1940 -0.1974  0.0416
  406MOL0     C54709   3.205   9.859  -0.257 -0.1279 -0.6085 -0.2022
  406MOL0     C54710   3.287   9.797  -0.355 -0.3492  0.0704 -0.3269
  406MOL0     O54711   3.235   9.730  -0.463  0.6951  0.5268 -0.5715
  406MOL0     C54712   3.097   9.689  -0.466 -0.2122  0.1826 -0.6398
  406MOL0     C54713   3.043   9.650  -0.603  0.3764  0.1031  0.2024
  406MOL0     C54714   2.935   9.741  -0.653  0.7449 -0.3697  0.8402
  406MOL0     C54715   2.793   9.727  -0.599  0.5121  0.5518  0.2792
  406MOL0     C54716   2.685   9.790  -0.685 -0.1671  0.2798 -0.9627
  406MOL0     C54717   2.542   9.767  -0.631  0.7566 -0.1200 -0.3494
  406MOL0     C54718   2.436   9.834  -0.720 -0.6326  0.3041  0.7380
  406MOL0     C54719   2.287   9.830  -0.692  0.3978  0.2629  0.4399
  406MOL0    Cl54720   2.236   9.957  -0.575  0.3584 -0.0487 -0.1205
  406MOL0     C54721   3.432   9.820  -0.349  0.6286  0.1888 -0.2734
  406MOL0     C54722   3.485   9.902  -0.237  0.7087 -0.8120 -0.9192
  406MOL0     O54723   3.614   9.886   0.023 -0.1840 -0.2864  0.2646
  406MOL0     C54724   3.509  10.178   0.198  0.4548 -0.2472  0.6316
  406MOL0     C54725   3.539  10.256   0.312  0.0865  0.4156  0.4671
  406MOL0     N54726   4.128  10.490   0.770 -0.2505 -0.1498  0.5663
  406MOL0     N54727   4.162  10.569   0.864 -1.3109 -0.3645 -0.5010
  406MOL0     C54728   3.278  11.276   1.252  0.4932 -0.1361 -0.2726
  406MOL0     C54729   3.160  11.343   1.277 -1.1903  0.4272  0.0440
  406MOL0     C54730   2.762  11.450   1.469  0.4237 -0.1673  0.2120
  406MOL0     C54731   2.704  11.536   1.360  0.3103 -0.2366 -0.0059
  406MOL0     C54732   2.586  11.604   1.381 -0.6613 -0.2049  0.6955
  406MOL0     C54733   2.516  11.596   1.498  0.5331  0.7649 -0.1893
  406MOL0     O54734   2.407  11.674   1.503  0.8231 -0.2883  0.9782
  406MOL0     C54735   2.372  11.752   1.619 -0.3830 -0.2321  0.7146
  406MOL0     C54736   2.472  11.861   1.647  0.0494  0.1561 -0.4244
  406MOL0     C54737   2.503  11.955   1.531  0.3089  0.2590  0.0128
  406MOL0     C54738   2.579  12.072   1.586 -0.1434 -0.2743 -0.1702
  406MOL0     C54739   2.725  12.040   1.607  0.3558  0.4390 -0.1061
  406MOL0     C54740   2.832  11.981   1.636 -0.1216  0.3280 -0.2625
  406MOL0     C54741   2.561  11.518   1.597 -0.6403  1.0376 -0.5835
  406MOL0     C54742   2.671  11.436   1.581  0.1951 -0.1965 -0.3653
  406MOL0     H54743   2.947  11.102   1.354 -0.7583  2.4655  1.9175
  406MOL0     H54744   3.161  10.968   1.339 -1.2048  0.2197  2.0363
  406MOL0     H54745   3.401  10.894   1.368 -4.3584  0.1330 -0.1923
  406MOL0     H54746   3.321  10.876   1.214  0.7949 -1.4040  0.3635
  406MOL0     H54747   3.565  10.938   1.115 -1.5131 -2.0110 -2.6715
  406MOL0     H54748   3.629  10.885   1.265  2.2520 -0.4884 -2.9064
  406MOL0     H54749   3.523  10.682   1.265  2.9184 -2.8789 -0.8507
  406MOL0     H54750   3.436  10.731   1.110 -0.8337 -3.1152  0.2732
  406MOL0     H54751   3.642  10.568   1.080 -1.0694  0.6168 -2.2983
  406MOL0     H54752   3.681  10.726   1.006  3.6383  0.7707  1.7879
  406MOL0     H54753   3.816  10.807   1.179  0.2969  0.1524 -0.5818
  406MOL0     H54754   3.791  10.669   1.276  0.0989  0.2928 -0.1054
  406MOL0     H54755   3.914  10.527   1.180  3.2575  0.7888  1.6356
  406MOL0     H54756   3.903  10.595   1.014  0.4592  0.8666 -0.4144
  406MOL0     H54757   4.063  10.744   1.068  1.9143  0.2332  0.5092
  406MOL0     H54758   4.060  10.716   1.243 -1.3844  1.5044 -0.9803
  406MOL0     H54759   4.167  10.493   1.202  2.0597 -1.4209 -1.2654
  406MOL0     H54760   4.255  10.624   1.118 -2.0859  4.2947 -0.5753
  406MOL0     H54761   4.086  10.303   1.034  0.9864  1.0457  0.7914
  406MOL0     H54762   4.141  10.188   0.731 -0.3359 -1.3796  1.4191
  406MOL0     H54763   4.010  10.158   0.832 -2.0776  1.8015  1.3105
  406MOL0     H54764   3.931  10.151   0.596 -0.9480  0.1698 -0.0103
  406MOL0     H54765   3.983  10.320   0.570 -1.2867 -0.7196 -1.0244
  406MOL0     H54766   3.814  10.395   0.710  0.5960 -0.6326  1.4520
  406MOL0     H54767   3.796  10.237   0.787  0.4544  1.4182  0.0432
  406MOL0     H54768   3.592  10.284   0.651 -1.3400 -3.6879  0.0546
  406MOL0     H54769   3.683  10.155   0.578 -0.5242  0.8315 -1.1734
  406MOL0     H54770   3.861  10.173   0.331 -0.1331  1.9544  0.5725
  406MOL0     H54771   3.886  10.029   0.052  0.3840 -0.3375 -0.8136
  406MOL0     H54772   3.926  10.011   0.217  0.3197 -0.0832 -1.3853
  406MOL0     H54773   3.827   9.884   0.155 -2.0915  0.0158 -3.6881
  406MOL0     H54774   3.195   9.982  -0.084  0.3363  2.0937 -1.1359
  406MOL0     H54775   3.099   9.850  -0.238  0.5918 -0.4774  5.7538
  406MOL0     H54776   3.075   9.601  -0.405 -0.0249 -1.9762 -3.4825
  406MOL0     H54777   3.042   9.777  -0.430 -2.6907 -0.8481 -1.7206
  406MOL0     H54778   3.119   9.649  -0.681 -0.1381  0.6401 -0.3108
  406MOL0     H54779   2.994   9.552  -0.598 -2.0534  1.2642  0.4781
  406MOL0     H54780   2.942   9.735  -0.763  0.6048  0.8833  0.7515
  406MOL0     H54781   2.959   9.846  -0.638  0.6919 -0.2390  0.0786
  406MOL0     H54782   2.760   9.623  -0.590 -1.0886  0.8890 -1.2313
  406MOL0     H54783   2.797   9.778  -0.503  1.7747  0.5046  0.2665
  406MOL0     H54784   2.695   9.747  -0.785  3.5136  1.7759 -1.4158
  406MOL0     H54785   2.699   9.896  -0.711 -1.3080 -0.0123 -2.8998
  406MOL0     H54786   2.518   9.660  -0.621  0.1916  0.1900  2.0174
  406MOL0     H54787   2.530   9.809  -0.531  1.2211  2.3055 -1.2524
  406MOL0     H54788   2.452   9.777  -0.812 -0.3487 -0.6227  1.3536
  406MOL0     H54789   2.465   9.938  -0.740  2.8243 -0.6491  0.0466
  406MOL0     H54790   2.266   9.729  -0.655  3.1699 -0.9177 -0.9170
  406MOL0     H54791   2.232   9.842  -0.786 -1.3296  0.7981  1.4701
  406MOL0     H54792   3.480   9.786  -0.440 -1.7407  1.3324 -2.0785
  406MOL0     H54793   3.592   9.915  -0.228  0.2170  2.9671  2.6630
  406MOL0     H54794   3.406  10.173   0.165  1.4374  1.3824 -3.3819
  406MOL0     H54795   3.465  10.324   0.350 -1.8164 -0.4489 -1.4562
  406MOL0     H54796   3.374  11.321   1.230  0.9818 -0.8007  0.4344
  406MOL0     H54797   3.161  11.451   1.289  1.9410  0.6132 -0.9578
  406MOL0     H54798   2.756  11.545   1.265  0.2522  1.7706  0.1098
  406MOL0     H54799   2.549  11.663   1.297  1.0402 -0.2634 -0.1272
  406MOL0     H54800   2.272  11.795   1.606 -0.4822 -0.4402  0.7870
  406MOL0     H54801   2.368  11.690   1.709 -2.6684  2.5993  2.7747
  406MOL0     H54802   2.563  11.810   1.681  1.2892  2.2665 -0.4334
  406MOL0     H54803   2.437  11.915   1.735 -1.3816 -0.3753 -0.6493
  406MOL0     H54804   2.414  11.975   1.470 -0.2239 -3.0881 -0.4985
  406MOL0     H54805   2.574  11.909   1.461  0.0351  0.5911 -0.4923
  406MOL0     H54806   2.533  12.108   1.678  2.7547  3.0340  0.2037
  406MOL0     H54807   2.566  12.162   1.525  0.6807  1.4312  2.0469
  406MOL0     H54808   2.919  11.924   1.663  0.4912  1.1803 -0.3771
  406MOL0     H54809   2.504  11.520   1.689 -2.8820  2.6743 -1.8887
  406MOL0     H54810   2.689  11.372   1.667 -0.9014  0.5230  0.4210
  407MOL0     O54811   9.927   8.707   7.205  0.3267  0.2551 -0.4740
  407MOL0     C54812  10.033   8.652   7.244  0.1946  0.8757 -1.0175
  407MOL0     O54813  10.030   8.562   7.358 -0.0727  0.1496  0.0935
  407MOL0     C54814   9.907   8.548   7.423 -0.5999  0.1862 -0.5593
  407MOL0     C54815   9.828   8.657   7.472  0.0645 -0.2287 -0.3884
  407MOL0     C54816   9.733   8.625   7.577 -0.8612 -0.2373 -0.1897
  407MOL0     C54817   9.715   8.493   7.611  0.3118  1.2882 -0.3842
  407MOL0     O54818   9.608   8.442   7.680 -0.5969  0.1553 -0.0859
  407MOL0     C54819   9.494   8.527   7.684 -0.8725  0.4269  0.2888
  407MOL0     C54820   9.384   8.437   7.743  0.1898  0.1494 -0.6297
  407MOL0     C54821   9.267   8.521   7.794  0.2977 -0.3662  0.7388
  407MOL0     C54822   9.137   8.441   7.815 -0.8458  0.0445  0.4309
  407MOL0     C54823   9.030   8.515   7.893  0.5656 -1.1076 -0.5125
  407MOL0     C54824   8.897   8.426   7.895  0.4243 -0.5914 -0.4253
  407MOL0     C54825   8.772   8.495   7.967  0.7388  0.0141 -1.0108
  407MOL0     C54826   8.650   8.404   7.983 -0.0786  0.1900 -0.3375
  407MOL0     N54827   8.599   8.369   7.853  0.1734 -0.2631 -0.1428
  407MOL0     C54828   8.512   8.453   7.787 -0.0288  0.2096  0.0218
  407MOL0     C54829   8.429   8.373   7.712  0.2122  0.0041 -0.0764
  407MOL0     C54830   8.310   8.415   7.636  0.9787 -0.2557 -0.1276
  407MOL0     C54831   8.194   8.327   7.661  0.6940 -0.4830  0.0185
  407MOL0     C54832   8.078   8.395   7.583 -0.5247 -0.5561  0.2368
  407MOL0     C54833   7.934   8.336   7.606 -0.3236 -0.2300 -0.0849
  407MOL0     O54834   7.859   8.412   7.507 -0.1688  0.1307 -1.0901
  407MOL0     C54835   7.761   8.337   7.449  0.9777 -0.3233 -0.9844
  407MOL0     C54836   7.706   8.220   7.516  0.2320  0.1038  0.8718
  407MOL0     C54837   7.602   8.141   7.463 -0.7651  0.1531 -0.8020
  407MOL0     C54838   7.572   8.019   7.551  0.1889 -0.0811 -0.1315
  407MOL0     C54839   7.538   8.182   7.343  0.6322  0.3147 -0.1809
  407MOL0     C54840   7.409   8.130   7.284  0.3653  0.2260 -0.6570
  407MOL0     O54841   7.357   8.186   7.171 -0.0531  0.1603  0.1305
  407MOL0     C54842   7.258   8.121   7.108 -0.0418 -0.5388 -0.1801
  407MOL0     C54843   7.275   8.053   6.991  0.3529  0.6311 -0.0696
  407MOL0     C54844   7.168   7.986   6.934 -0.5464  0.6425 -0.3042
  407MOL0     C54845   7.037   8.006   6.977  0.0396 -0.3534 -0.1260
  407MOL0     O54846   6.934   7.959   6.907 -0.0777 -0.5156  0.3699
  407MOL0     C54847   6.796   7.953   6.964  0.5463 -0.5458 -0.6019
  407MOL0     C54848   6.700   7.940   6.848  0.3141  0.1914 -0.3083
  407MOL0     C54849   6.554   7.903   6.887  0.0214 -0.7237  0.6787
  407MOL0     C54850   6.468   8.017   6.946  0.3100 -0.9387  0.7236
  407MOL0     C54851   6.317   7.981   6.944 -1.5086  0.0681 -0.2480
  407MOL0     C54852   6.231   8.098   6.992  0.3195  0.4627  0.0143
  407MOL0     C54853   6.167   8.099   7.138 -0.2393  0.3384 -0.5414
  407MOL0     C54854   6.276   8.105   7.254  1.2073 -0.1571  0.5943
  407MOL0    Cl54855   6.218   8.087   7.418  0.4978  0.2578  0.4121
  407MOL0     C54856   7.014   8.088   7.092 -0.1381  0.1613 -0.3343
  407MOL0     C54857   7.125   8.143   7.159 -0.6404 -0.8275  0.5497
  407MOL0     O54858   7.359   8.039   7.346 -0.2932 -0.5215 -0.5959
  407MOL0     C54859   7.593   8.286   7.270  1.0406 -0.6117 -0.5268
  407MOL0     C54860   7.695   8.369   7.334  0.5175  0.0605  0.4682
  407MOL0     N54861   8.467   8.250   7.727  0.0453  0.4493 -0.1316
  407MOL0     N54862   8.563   8.243   7.813 -0.4004 -0.7057  0.7347
  407MOL0     C54863   9.796   8.398   7.571 -0.5701  1.0136 -0.2976
  407MOL0     C54864   9.891   8.415   7.471 -0.2976  0.1209 -0.2399
  407MOL0     C54865  10.151   8.687   7.162 -1.4257  0.2518 -0.0492
  407MOL0     C54866  10.161   8.813   7.097 -0.0722  0.3772 -0.3021
  407MOL0     C54867  10.281   8.833   7.022  0.3566 -0.1101 -0.0933
  407MOL0     C54868  10.388   8.740   7.017 -0.8713  0.6490 -1.3681
  407MOL0     O54869  10.490   8.774   6.935 -0.3960  0.3672  0.4534
  407MOL0     C54870  10.590   8.674   6.905 -0.2558 -0.1796 -0.4186
  407MOL0     C54871  10.699   8.737   6.820 -0.2172 -0.1568 -0.0944
  407MOL0     C54872  10.670   8.783   6.679  0.9776 -1.3828 -0.8395
  407MOL0     C54873  10.627   8.925   6.670 -0.3743  0.0868  1.0507
  407MOL0     C54874  10.615   8.955   6.529  0.0728 -0.4583  0.2364
  407MOL0     C54875  10.614   8.965   6.406 -0.7941 -0.3890  0.7277
  407MOL0     C54876  10.383   8.631   7.101 -0.6273  0.4170 -0.4979
  407MOL0     C54877  10.263   8.603   7.163  0.3503  0.4735 -0.0456
  407MOL0     H54878   9.839   8.762   7.447  1.6592 -0.0742  0.8217
  407MOL0     H54879   9.669   8.698   7.625 -1.0577 -0.0876 -0.6696
  407MOL0     H54880   9.527   8.609   7.748  1.9434  1.0260 -1.7412
  407MOL0     H54881   9.463   8.566   7.587 -0.1671 -0.1522 -0.1802
  407MOL0     H54882   9.352   8.367   7.665  1.9160  1.3940 -2.5558
  407MOL0     H54883   9.425   8.389   7.832  0.3627  2.5358  0.6545
  407MOL0     H54884   9.302   8.575   7.882  1.6877 -0.4609  0.2652
  407MOL0     H54885   9.243   8.601   7.723  1.4146  1.0592  1.8980
  407MOL0     H54886   9.102   8.422   7.713 -0.5319 -0.8425  0.4783
  407MOL0     H54887   9.158   8.343   7.860  1.8142 -1.1347 -2.9263
  407MOL0     H54888   9.068   8.543   7.991 -1.7183 -0.1454  0.1637
  407MOL0     H54889   9.011   8.607   7.836  0.4038 -0.6352  0.2888
  407MOL0     H54890   8.864   8.403   7.793 -0.7076 -1.4612  0.1099
  407MOL0     H54891   8.938   8.336   7.940  3.2449  0.2813 -1.0545
  407MOL0     H54892   8.806   8.509   8.070 -0.1366  2.6488 -1.0178
  407MOL0     H54893   8.739   8.589   7.923 -1.9381  0.0049  0.7317
  407MOL0     H54894   8.573   8.457   8.040  0.8317 -2.4303  3.8471
  407MOL0     H54895   8.680   8.314   8.039  1.2230  2.0506  2.1790
  407MOL0     H54896   8.506   8.560   7.806 -0.8306  0.3119 -0.7676
  407MOL0     H54897   8.283   8.515   7.671  0.7148 -0.1367 -0.6725
  407MOL0     H54898   8.324   8.412   7.528 -1.0677 -1.4530 -0.4049
  407MOL0     H54899   8.194   8.333   7.770  2.5565  0.1616  0.0170
  407MOL0     H54900   8.214   8.229   7.616  1.4735  0.8319 -2.7996
  407MOL0     H54901   8.096   8.393   7.475 -2.9852 -0.2707 -0.2245
  407MOL0     H54902   8.072   8.503   7.597  3.1421 -0.0305 -1.1245
  407MOL0     H54903   7.891   8.369   7.701 -1.7357  0.4337 -0.9295
  407MOL0     H54904   7.929   8.228   7.596 -3.5353 -0.6405  3.6498
  407MOL0     H54905   7.737   8.196   7.618  3.1529 -0.4900 -0.0683
  407MOL0     H54906   7.606   8.037   7.653 -1.9299  2.6927  0.2081
  407MOL0     H54907   7.465   7.996   7.555 -0.2086  1.7813  1.6869
  407MOL0     H54908   7.632   7.943   7.501  0.1927 -1.0079  1.2303
  407MOL0     H54909   7.379   8.032   6.969 -0.2596 -3.1486 -0.0371
  407MOL0     H54910   7.197   7.915   6.857  1.8327  1.9399 -0.7115
  407MOL0     H54911   6.790   7.863   7.026  1.7490 -1.0230 -1.1521
  407MOL0     H54912   6.769   8.045   7.016  0.4076  0.4916 -2.4289
  407MOL0     H54913   6.696   8.022   6.776  2.3231  0.5091 -0.0973
  407MOL0     H54914   6.731   7.861   6.779 -2.4390 -0.6140 -0.7760
  407MOL0     H54915   6.542   7.818   6.954 -0.0335  0.1107  1.7513
  407MOL0     H54916   6.508   7.895   6.788  0.8115 -1.4296  0.3512
  407MOL0     H54917   6.501   8.027   7.050  3.8669  0.0150 -0.3504
  407MOL0     H54918   6.493   8.106   6.888 -0.5481 -2.9449 -3.0389
  407MOL0     H54919   6.298   7.897   7.011  0.1741  1.6852  2.4358
  407MOL0     H54920   6.296   7.962   6.838  1.3741  1.2120 -1.1325
  407MOL0     H54921   6.279   8.192   6.964 -0.3033  0.1108 -2.4462
  407MOL0     H54922   6.151   8.079   6.920  3.8882 -2.6654 -3.5491
  407MOL0     H54923   6.093   8.019   7.149 -1.2210  1.2621 -0.1740
  407MOL0     H54924   6.112   8.194   7.138 -1.8530 -0.5386  0.5888
  407MOL0     H54925   6.313   8.208   7.245 -0.4701  0.2983 -2.1696
  407MOL0     H54926   6.361   8.037   7.242  1.3783  0.4028 -1.7166
  407MOL0     H54927   6.921   8.105   7.146  1.7544  3.6169  2.1839
  407MOL0     H54928   7.101   8.202   7.247 -1.3783  1.0390 -0.8279
  407MOL0     H54929   7.553   8.309   7.171 -2.3056 -0.3873  0.7492
  407MOL0     H54930   7.741   8.450   7.278  1.1342  0.6712  1.8220
  407MOL0     H54931   9.770   8.296   7.595  0.6488  0.4373 -1.3410
  407MOL0     H54932   9.949   8.325   7.455  1.4584  0.3523  3.7091
  407MOL0     H54933  10.072   8.875   7.104 -1.5250 -1.5324 -0.9706
  407MOL0     H54934  10.286   8.922   6.959  4.8019 -1.8561 -2.6865
  407MOL0     H54935  10.632   8.636   6.998  1.2176  4.7279  1.2643
  407MOL0     H54936  10.542   8.591   6.852  2.4228 -1.5972 -0.7575
  407MOL0     H54937  10.761   8.648   6.808 -0.4891 -0.2330 -1.0493
  407MOL0     H54938  10.750   8.813   6.881  0.2392 -1.8303  1.7065
  407MOL0     H54939  10.583   8.722   6.650 -0.9493  0.5112  0.5964
  407MOL0     H54940  10.752   8.755   6.613  1.3225 -0.5985 -0.7480
  407MOL0     H54941  10.707   8.988   6.709 -1.3141 -0.6220  4.4557
  407MOL0     H54942  10.534   8.943   6.726 -1.3185 -1.4951  0.0988
  407MOL0     H54943  10.610   8.997   6.304 -4.3380 -0.0526  0.8398
  407MOL0     H54944  10.461   8.556   7.114 -1.1344  0.3045  2.6222
  407MOL0     H54945  10.246   8.514   7.223 -1.5152  1.0237  0.3066
  408MOL0     O54946   0.109   5.754   3.913  0.5253  0.3718  0.2836
  408MOL0     C54947   0.134   5.871   3.889  0.6062  0.3080 -0.2755
  408MOL0     O54948   0.112   5.973   3.976  0.6581  0.3136 -0.6050
  408MOL0     C54949   0.066   5.959   4.103  0.4606  0.3032  0.8114
  408MOL0     C54950  -0.033   6.048   4.127  0.4926  0.2350 -0.3676
  408MOL0     C54951  -0.101   6.053   4.250  0.4060  0.3049  0.2266
  408MOL0     C54952  -0.074   5.951   4.342 -0.2204  0.9195 -0.7797
  408MOL0     O54953  -0.145   5.942   4.460  1.0636  0.3803 -0.3216
  408MOL0     C54954  -0.226   6.047   4.514  1.1035 -0.1120 -0.7256
  408MOL0     C54955  -0.376   6.039   4.467 -0.5138 -0.4060  0.6466
  408MOL0     C54956  -0.461   6.122   4.560 -0.1337 -0.6701  0.5576
  408MOL0     C54957  -0.477   6.272   4.514  0.6090 -0.0171 -0.2911
  408MOL0     C54958  -0.611   6.348   4.535 -0.3728 -0.3267 -0.0082
  408MOL0     C54959  -0.608   6.493   4.475 -0.3554 -0.1224 -0.1059
  408MOL0     C54960  -0.590   6.489   4.323 -0.1580  1.2858  1.1280
  408MOL0     C54961  -0.572   6.626   4.250 -0.6544  0.4548  0.3793
  408MOL0     N54962  -0.686   6.713   4.272 -0.6110 -0.2462 -0.0699
  408MOL0     C54963  -0.808   6.704   4.219  0.6834  0.4764 -0.0502
  408MOL0     C54964  -0.885   6.794   4.277 -0.0501  0.1362 -0.1340
  408MOL0     C54965  -1.032   6.824   4.243 -0.3996  0.0715 -0.8461
  408MOL0     C54966  -1.136   6.749   4.324 -0.1852 -0.1861  0.3519
  408MOL0     C54967  -1.276   6.805   4.305 -0.1268  0.1983  0.2243
  408MOL0     C54968  -1.315   6.954   4.332  0.1702 -1.1720  0.1767
  408MOL0     O54969  -1.280   7.003   4.458  0.2742 -0.4637 -0.1000
  408MOL0     C54970  -1.364   7.109   4.490  0.4158 -0.3405  0.3177
  408MOL0     C54971  -1.486   7.106   4.563 -0.4982 -0.2100  0.6258
  408MOL0     C54972  -1.558   7.218   4.595 -0.0392 -0.5967  0.1184
  408MOL0     C54973  -1.683   7.211   4.677  0.0465 -0.9466  0.1473
  408MOL0     C54974  -1.516   7.345   4.537  0.1465 -0.2631 -0.6731
  408MOL0     C54975  -1.588   7.474   4.556  0.2334  1.0453  1.1594
  408MOL0     O54976  -1.520   7.585   4.536 -0.1580  0.5457  0.4628
  408MOL0     C54977  -1.583   7.706   4.569 -0.2749  0.6395  0.3475
  408MOL0     C54978  -1.610   7.803   4.476 -0.1383  0.0764  0.9011
  408MOL0     C54979  -1.679   7.919   4.511 -0.8090  0.3785 -1.1047
  408MOL0     C54980  -1.713   7.947   4.641 -0.0688  0.9783 -0.2675
  408MOL0     O54981  -1.787   8.056   4.688 -0.4171  0.2553  0.1762
  408MOL0     C54982  -1.829   8.158   4.593 -0.4651 -0.4612 -0.1537
  408MOL0     C54983  -1.915   8.267   4.662 -0.4464  0.6848  0.6378
  408MOL0     C54984  -2.056   8.209   4.704  0.0017  0.3987 -1.1064
  408MOL0     C54985  -2.118   8.311   4.806 -0.8093  0.3656  0.0412
  408MOL0     C54986  -2.258   8.264   4.848 -0.2876 -0.4414  0.3262
  408MOL0     C54987  -2.375   8.295   4.743  0.0706  0.3387 -0.1723
  408MOL0     C54988  -2.515   8.258   4.792  0.6703 -0.2383  0.4560
  408MOL0     C54989  -2.559   8.344   4.916  1.4748 -0.3823 -0.0582
  408MOL0    Cl54990  -2.606   8.511   4.875  0.1407  0.1922  0.3403
  408MOL0     C54991  -1.678   7.851   4.737  0.2067  0.1787  0.7644
  408MOL0     C54992  -1.617   7.728   4.704 -0.8869  0.3359  0.4821
  408MOL0     O54993  -1.714   7.462   4.551 -0.0087 -0.1657 -0.2474
  408MOL0     C54994  -1.398   7.340   4.464 -0.3124 -0.7167  0.4821
  408MOL0     C54995  -1.315   7.225   4.446 -0.3662 -0.5704 -0.1482
  408MOL0     N54996  -0.809   6.863   4.367 -0.6927 -0.1048 -0.5832
  408MOL0     N54997  -0.691   6.809   4.366 -0.2997  0.4226 -0.1221
  408MOL0     C54998   0.035   5.866   4.326  1.0764  0.6227 -0.1634
  408MOL0     C54999   0.100   5.855   4.195 -0.4912  0.1739 -0.5506
  408MOL0     C55000   0.184   5.900   3.753 -0.1287 -0.3226  0.0022
  408MOL0     C55001   0.227   6.031   3.719 -0.3217 -0.2330 -0.1209
  408MOL0     C55002   0.240   6.071   3.578 -0.4956  0.2796 -0.8649
  408MOL0     C55003   0.236   5.979   3.484  0.4910 -0.3396 -0.3026
  408MOL0     O55004   0.276   5.987   3.352  0.2400 -0.2141 -0.1239
  408MOL0     C55005   0.359   6.098   3.320 -1.1905  0.2688 -0.2767
  408MOL0     C55006   0.427   6.070   3.188 -0.8398  1.2399  0.4786
  408MOL0     C55007   0.457   5.920   3.157 -0.4495 -0.7934  0.1444
  408MOL0     C55008   0.593   5.873   3.216  0.0241  0.2936  0.9189
  408MOL0     C55009   0.588   5.851   3.359 -0.8257 -0.2610 -0.7667
  408MOL0     C55010   0.572   5.835   3.482 -0.8801  0.4841  0.6434
  408MOL0     C55011   0.223   5.845   3.525  0.0085 -0.5264 -0.7680
  408MOL0     C55012   0.193   5.803   3.656 -0.1973  0.4988 -0.3697
  408MOL0     H55013  -0.067   6.128   4.062 -0.1904 -0.2382 -0.6059
  408MOL0     H55014  -0.177   6.127   4.272  1.4998  0.3725  4.7527
  408MOL0     H55015  -0.231   6.024   4.620 -0.9970 -3.8301 -1.4450
  408MOL0     H55016  -0.169   6.139   4.501  3.5481 -1.4669 -0.0572
  408MOL0     H55017  -0.390   6.058   4.360  1.1001 -2.7051 -0.0510
  408MOL0     H55018  -0.417   5.939   4.484 -1.2566  0.3505  3.8282
  408MOL0     H55019  -0.558   6.070   4.556  0.2840 -1.4416  0.0441
  408MOL0     H55020  -0.427   6.123   4.663 -0.9678  1.1777  0.8542
  408MOL0     H55021  -0.402   6.335   4.563  1.3772 -1.4369  0.4082
  408MOL0     H55022  -0.448   6.261   4.409  0.8288 -1.5045 -0.0999
  408MOL0     H55023  -0.686   6.288   4.484  1.6594 -1.3543 -1.9443
  408MOL0     H55024  -0.640   6.352   4.640 -0.6983  2.6388 -0.1213
  408MOL0     H55025  -0.704   6.542   4.495 -1.0247 -1.3494 -0.2297
  408MOL0     H55026  -0.521   6.549   4.511 -0.1560  1.4421 -2.7930
  408MOL0     H55027  -0.498   6.431   4.314  0.8040  2.3842  3.0529
  408MOL0     H55028  -0.674   6.431   4.285  0.4300  0.3260  1.2778
  408MOL0     H55029  -0.558   6.613   4.142 -0.7668 -0.9339  0.5031
  408MOL0     H55030  -0.479   6.676   4.279 -0.7385  0.0232  1.4564
  408MOL0     H55031  -0.829   6.635   4.137  2.3539 -1.1987  0.8548
  408MOL0     H55032  -1.047   6.931   4.259 -2.8811 -0.0372 -2.0440
  408MOL0     H55033  -1.036   6.805   4.136  1.5312 -1.4654 -0.7112
  408MOL0     H55034  -1.098   6.761   4.426  3.0556  2.6489 -0.9895
  408MOL0     H55035  -1.119   6.648   4.286 -0.4838 -1.6497  3.7726
  408MOL0     H55036  -1.333   6.751   4.381 -0.7903  1.0905  0.3694
  408MOL0     H55037  -1.321   6.777   4.209 -2.3744 -0.6865  1.4452
  408MOL0     H55038  -1.420   6.962   4.304  0.2189  2.4375  0.5478
  408MOL0     H55039  -1.273   7.029   4.264 -0.3271 -0.4345  0.6688
  408MOL0     H55040  -1.528   7.015   4.605 -3.2467  0.2182 -0.9251
  408MOL0     H55041  -1.685   7.300   4.740 -1.8617 -1.7974  1.3535
  408MOL0     H55042  -1.768   7.211   4.608  0.5975 -2.5410 -0.5829
  408MOL0     H55043  -1.695   7.122   4.739 -0.2014  0.0845  1.6461
  408MOL0     H55044  -1.578   7.787   4.374 -0.1576  0.0689  0.8961
  408MOL0     H55045  -1.698   7.997   4.438 -0.2889  2.8011  1.1948
  408MOL0     H55046  -1.737   8.208   4.562  1.8871 -1.3269  4.4957
  408MOL0     H55047  -1.884   8.110   4.512 -1.1646 -0.2790  0.2003
  408MOL0     H55048  -1.858   8.313   4.743 -1.4164  2.7020  0.2410
  408MOL0     H55049  -1.937   8.342   4.585 -2.4433 -3.4211 -3.2300
  408MOL0     H55050  -2.028   8.118   4.757  0.6202  1.7682  1.0088
  408MOL0     H55051  -2.118   8.194   4.614  1.9018  0.5729 -2.5111
  408MOL0     H55052  -2.061   8.316   4.900 -0.0230 -1.6161 -0.2654
  408MOL0     H55053  -2.116   8.412   4.765  2.5067  0.9745  1.3876
  408MOL0     H55054  -2.276   8.338   4.926 -0.8277  2.2630 -2.1512
  408MOL0     H55055  -2.260   8.161   4.885 -0.9504 -1.3273 -2.0070
  408MOL0     H55056  -2.376   8.402   4.717  3.9297 -0.0037 -2.6301
  408MOL0     H55057  -2.345   8.242   4.652 -0.3854  0.4427 -0.3865
  408MOL0     H55058  -2.529   8.155   4.827 -0.3750  0.1881  1.3372
  408MOL0     H55059  -2.596   8.287   4.725  1.6099  1.2867 -0.0689
  408MOL0     H55060  -2.483   8.354   4.994  1.2947  1.0138 -0.0510
  408MOL0     H55061  -2.656   8.308   4.952  0.9095  1.6894  0.6141
  408MOL0     H55062  -1.705   7.866   4.841 -0.4501 -0.5261  0.7065
  408MOL0     H55063  -1.580   7.660   4.781 -2.0934  0.8473  1.5596
  408MOL0     H55064  -1.357   7.431   4.423 -0.2219 -0.7835  0.4256
  408MOL0     H55065  -1.217   7.225   4.398  1.2739 -1.8974  2.8776
  408MOL0     H55066   0.061   5.795   4.404 -0.1937  0.6328  0.2928
  408MOL0     H55067   0.164   5.769   4.177 -1.5766 -0.9374  0.6272
  408MOL0     H55068   0.224   6.108   3.796 -0.5399 -0.3256 -0.0344
  408MOL0     H55069   0.272   6.173   3.561 -0.0890  0.5554  1.2744
  408MOL0     H55070   0.311   6.197   3.323 -0.5968  0.5546  2.9891
  408MOL0     H55071   0.439   6.105   3.394 -0.3230 -0.5302 -1.1173
  408MOL0     H55072   0.525   6.118   3.189  0.5618 -1.4077  1.7737
  408MOL0     H55073   0.375   6.122   3.107  1.3419  0.4934 -1.5520
  408MOL0     H55074   0.462   5.917   3.048  0.8785 -3.6218  0.2014
  408MOL0     H55075   0.375   5.853   3.185 -1.1260 -0.7641 -1.5964
  408MOL0     H55076   0.661   5.956   3.196 -1.2474  1.3109  0.6730
  408MOL0     H55077   0.615   5.784   3.155 -0.6173 -0.4138  1.6939
  408MOL0     H55078   0.577   5.817   3.588 -1.6809 -2.5280  0.2720
  408MOL0     H55079   0.246   5.776   3.445 -0.8710  1.5510 -2.9042
  408MOL0     H55080   0.181   5.699   3.681 -3.2332  1.2073  1.6680
  409MOL0     O55081   5.769   7.893   1.951 -0.0426  0.5605  0.3050
  409MOL0     C55082   5.854   7.862   2.043  1.0724  0.0880 -0.2557
  409MOL0     O55083   5.829   7.886   2.178  0.1618 -0.3380 -0.4061
  409MOL0     C55084   5.709   7.930   2.230  0.4630 -0.1133 -1.2306
  409MOL0     C55085   5.577   7.939   2.171 -0.2040  0.0135 -0.2056
  409MOL0     C55086   5.467   7.964   2.253  0.8711  0.4126 -0.0905
  409MOL0     C55087   5.478   7.973   2.392  0.5839 -0.3439 -0.5924
  409MOL0     O55088   5.378   7.986   2.482 -0.1969  0.6624  0.3321
  409MOL0     C55089   5.236   7.994   2.442  0.0214  0.2497 -0.8573
  409MOL0     C55090   5.207   8.143   2.408  0.1496  0.1931 -0.2273
  409MOL0     C55091   5.239   8.256   2.509 -0.2925  0.5857  0.9268
  409MOL0     C55092   5.181   8.238   2.647  0.3674 -0.9759  0.0400
  409MOL0     C55093   5.029   8.258   2.657  0.5589 -0.3287  0.1279
  409MOL0     C55094   4.989   8.229   2.806  0.2372 -0.2764  0.3807
  409MOL0     C55095   4.850   8.259   2.844  1.5637  0.5499  0.8646
  409MOL0     C55096   4.749   8.227   2.730 -0.1678 -0.1231 -0.2073
  409MOL0     N55097   4.750   8.093   2.678  1.0916 -0.3238  0.1423
  409MOL0     C55098   4.778   7.983   2.743 -0.4673  0.1508 -0.2294
  409MOL0     C55099   4.754   7.881   2.661  0.6191  0.3462  0.3830
  409MOL0     C55100   4.761   7.739   2.694 -0.1525  0.1091 -0.1315
  409MOL0     C55101   4.896   7.682   2.671  0.2503 -0.5994  0.0804
  409MOL0     C55102   5.005   7.743   2.765  0.1567  0.0355 -0.1127
  409MOL0     C55103   5.147   7.709   2.713 -0.5091 -1.1466 -0.0130
  409MOL0     O55104   5.243   7.789   2.788  0.2319 -0.1013 -0.6042
  409MOL0     C55105   5.376   7.776   2.762  0.3478 -0.0616 -0.3426
  409MOL0     C55106   5.433   7.695   2.657 -1.0487 -1.0833 -0.5190
  409MOL0     C55107   5.576   7.699   2.642 -0.2622  0.1252 -0.0603
  409MOL0     C55108   5.618   7.633   2.511  0.1209  0.6827 -0.1012
  409MOL0     C55109   5.662   7.775   2.721  0.0420 -0.0485 -0.7603
  409MOL0     C55110   5.808   7.787   2.702 -0.6241 -0.2364 -0.1967
  409MOL0     O55111   5.880   7.690   2.632  0.6061  0.0032 -0.1886
  409MOL0     C55112   6.008   7.692   2.640 -0.9206  0.9221 -0.3650
  409MOL0     C55113   6.082   7.612   2.736 -0.7849  0.0347  0.2049
  409MOL0     C55114   6.221   7.607   2.729  0.0629 -0.5464 -0.5069
  409MOL0     C55115   6.296   7.675   2.629  0.1809 -0.1359  0.3797
  409MOL0     O55116   6.436   7.660   2.622  0.8160 -0.6561  0.3032
  409MOL0     C55117   6.494   7.673   2.493  0.1507 -0.2605  0.6791
  409MOL0     C55118   6.635   7.622   2.468 -0.4787 -0.1877 -0.4828
  409MOL0     C55119   6.743   7.709   2.528 -1.1523  0.0525 -0.1660
  409MOL0     C55120   6.881   7.645   2.498  0.3841  0.1724 -0.5991
  409MOL0     C55121   7.010   7.732   2.532 -0.0869  1.0635 -0.0452
  409MOL0     C55122   7.125   7.639   2.498  0.6832  0.5310  0.0210
  409MOL0     C55123   7.268   7.696   2.505  0.7991 -1.1650 -1.2565
  409MOL0     C55124   7.371   7.586   2.474  0.1341  0.6232 -0.3085
  409MOL0    Cl55125   7.347   7.552   2.312  0.4215  0.8633  0.2403
  409MOL0     C55126   6.220   7.755   2.538 -0.0368  0.1704 -0.2309
  409MOL0     C55127   6.084   7.762   2.540  0.5091 -0.1136  0.9412
  409MOL0     O55128   5.863   7.880   2.764 -0.0234 -0.4377 -0.1677
  409MOL0     C55129   5.601   7.848   2.831  0.5717  0.4861  0.3265
  409MOL0     C55130   5.462   7.847   2.846  0.2157  0.2309 -0.1509
  409MOL0     N55131   4.694   7.924   2.543 -0.4580 -0.7468 -0.4980
  409MOL0     N55132   4.703   8.054   2.553  0.5060 -0.0738  0.0413
  409MOL0     C55133   5.605   7.976   2.450 -0.4551  0.2130 -0.0010
  409MOL0     C55134   5.717   7.965   2.370  0.2941  1.0637 -0.4263
  409MOL0     C55135   5.971   7.787   2.000 -0.2831  0.3512  0.1055
  409MOL0     C55136   6.042   7.730   2.108 -0.1360 -0.3698 -0.7855
  409MOL0     C55137   6.165   7.666   2.080  0.5373 -0.9032  0.4733
  409MOL0     C55138   6.205   7.649   1.947 -0.1236 -0.0312  0.2921
  409MOL0     O55139   6.320   7.577   1.929  0.4326  0.2055  0.1737
  409MOL0     C55140   6.316   7.442   1.866 -0.1889 -0.0949 -0.1157
  409MOL0     C55141   6.449   7.376   1.909  0.1575  0.4533  0.5811
  409MOL0     C55142   6.472   7.388   2.057  0.0456  0.0978  0.3220
  409MOL0     C55143   6.567   7.283   2.122 -0.1403  0.4474  0.5389
  409MOL0     C55144   6.499   7.152   2.134  0.4861  0.1930  0.1014
  409MOL0     C55145   6.457   7.043   2.119  0.3385  0.0507 -0.4896
  409MOL0     C55146   6.131   7.698   1.844 -0.7672 -0.3950  0.6155
  409MOL0     C55147   6.023   7.775   1.870 -0.2800 -0.5056 -0.3953
  409MOL0     H55148   5.566   7.930   2.063 -1.2477 -0.4399 -0.0805
  409MOL0     H55149   5.370   7.950   2.206  1.6108 -0.4431 -1.4030
  409MOL0     H55150   5.213   7.920   2.364  1.7026 -0.2473 -0.9182
  409MOL0     H55151   5.172   7.975   2.528  0.9122  1.5444  0.1175
  409MOL0     H55152   5.244   8.168   2.308  0.1992  1.4173  0.0815
  409MOL0     H55153   5.098   8.146   2.400 -0.1852 -4.5831 -0.4169
  409MOL0     H55154   5.347   8.274   2.506  0.0041 -1.0224 -1.8585
  409MOL0     H55155   5.198   8.347   2.466  1.8263  1.6172  0.9599
  409MOL0     H55156   5.215   8.144   2.691  0.0128 -0.9694  0.3247
  409MOL0     H55157   5.226   8.321   2.703 -1.3752  0.2368 -0.2969
  409MOL0     H55158   4.990   8.353   2.618  3.4804 -0.1008 -2.6604
  409MOL0     H55159   4.981   8.181   2.596  3.0293 -3.0075  1.3400
  409MOL0     H55160   5.011   8.133   2.852  4.0648  0.3685  0.2305
  409MOL0     H55161   5.053   8.299   2.861 -0.6227 -0.6952  1.9746
  409MOL0     H55162   4.828   8.197   2.932  1.5405  0.2190  0.6256
  409MOL0     H55163   4.833   8.359   2.884 -3.3120  1.4801 -2.6410
  409MOL0     H55164   4.775   8.291   2.645 -0.5234 -0.4998 -0.6029
  409MOL0     H55165   4.644   8.253   2.749 -0.6667  1.2943 -3.9587
  409MOL0     H55166   4.811   7.980   2.846  0.9216  0.5544 -0.6442
  409MOL0     H55167   4.723   7.718   2.794  0.6753 -3.3736 -0.4317
  409MOL0     H55168   4.707   7.686   2.614 -0.6010 -0.3070  0.4432
  409MOL0     H55169   4.918   7.706   2.567 -1.6119  0.4271 -0.1094
  409MOL0     H55170   4.901   7.574   2.686 -0.1990 -1.0425 -2.5533
  409MOL0     H55171   4.994   7.701   2.865  1.8894  1.7854  0.8892
  409MOL0     H55172   4.998   7.852   2.766 -0.9170 -0.0152  1.2982
  409MOL0     H55173   5.161   7.742   2.610  1.6298 -3.9533 -0.7432
  409MOL0     H55174   5.170   7.607   2.746  1.2057  0.2774  3.9239
  409MOL0     H55175   5.368   7.647   2.584 -1.4272 -0.0690 -0.8537
  409MOL0     H55176   5.696   7.558   2.528 -0.7267 -0.7795 -2.1785
  409MOL0     H55177   5.533   7.572   2.478 -0.1815 -0.0242  1.8306
  409MOL0     H55178   5.653   7.705   2.436  2.7357 -0.2989  0.0849
  409MOL0     H55179   6.027   7.555   2.810  0.5812  1.8623  2.7995
  409MOL0     H55180   6.280   7.558   2.805 -3.1830  0.7042  3.1503
  409MOL0     H55181   6.423   7.632   2.420 -2.7080  0.7607  2.7061
  409MOL0     H55182   6.496   7.781   2.481  1.2636 -0.4092 -0.8831
  409MOL0     H55183   6.633   7.521   2.509  0.3060  0.1293  0.3667
  409MOL0     H55184   6.646   7.621   2.360 -4.1661  0.9411 -1.0271
  409MOL0     H55185   6.741   7.724   2.636  2.4957 -1.1473  0.1801
  409MOL0     H55186   6.740   7.809   2.483  0.6853  1.6396  2.9046
  409MOL0     H55187   6.887   7.553   2.557 -2.9721  0.6948  0.8340
  409MOL0     H55188   6.893   7.623   2.392  3.0836 -2.0635  0.0717
  409MOL0     H55189   7.021   7.766   2.636  1.0695 -2.1355  0.9980
  409MOL0     H55190   7.007   7.828   2.480  1.1440  1.5462  0.7326
  409MOL0     H55191   7.128   7.563   2.576  0.0684  1.5887  1.1196
  409MOL0     H55192   7.114   7.584   2.404  2.3512 -0.6653  0.4863
  409MOL0     H55193   7.286   7.742   2.603  0.9406 -2.4661 -0.6514
  409MOL0     H55194   7.279   7.779   2.435 -2.0151 -1.0810 -1.6903
  409MOL0     H55195   7.362   7.504   2.546  0.6275  0.6093 -0.2656
  409MOL0     H55196   7.471   7.629   2.482  1.8021 -2.8464 -0.6025
  409MOL0     H55197   6.275   7.822   2.472 -0.5826 -0.4042 -1.2834
  409MOL0     H55198   6.025   7.821   2.471  1.1804  0.6715  1.0356
  409MOL0     H55199   5.661   7.902   2.904 -3.3049 -0.2041  4.4971
  409MOL0     H55200   5.416   7.891   2.934 -0.1785 -0.7344  0.1400
  409MOL0     H55201   5.620   7.982   2.557  1.0128  0.1336 -0.1778
  409MOL0     H55202   5.813   7.953   2.420  0.4527  2.8516 -0.2356
  409MOL0     H55203   6.012   7.735   2.212  4.3828  0.4047  0.7064
  409MOL0     H55204   6.240   7.621   2.144  0.9422 -3.2440 -1.4986
  409MOL0     H55205   6.225   7.408   1.915 -0.6784  0.4877 -0.6030
  409MOL0     H55206   6.301   7.447   1.758 -0.6110  2.3889  0.0051
  409MOL0     H55207   6.524   7.434   1.854 -0.5971  1.7407  0.8850
  409MOL0     H55208   6.454   7.273   1.873 -3.6178 -1.4740  4.6466
  409MOL0     H55209   6.376   7.382   2.110 -0.7495  2.0802 -0.8221
  409MOL0     H55210   6.513   7.487   2.077  0.8522 -0.0594 -0.4884
  409MOL0     H55211   6.598   7.326   2.218  1.0393  1.7961 -0.4120
  409MOL0     H55212   6.657   7.281   2.061 -0.3955  0.4187  0.1640
  409MOL0     H55213   6.421   6.944   2.098  1.5385  0.2585 -4.2164
  409MOL0     H55214   6.175   7.674   1.748  3.2417 -0.9359  2.3940
  409MOL0     H55215   5.971   7.817   1.785 -1.5815 -2.6743 -0.7483
  410MOL0     O55216   3.258   5.818   6.080  0.4230  0.1092  0.8072
  410MOL0     C55217   3.286   5.850   5.960 -0.2451  0.1002 -0.3684
  410MOL0     O55218   3.204   5.912   5.874 -0.1928  0.4126 -0.1086
  410MOL0     C55219   3.079   5.947   5.907  0.2281  0.4314  0.9478
  410MOL0     C55220   3.052   6.008   6.023  0.1364  1.1499 -0.5099
  410MOL0     C55221   2.920   6.054   6.055  0.2254 -0.1687  0.3768
  410MOL0     C55222   2.810   6.039   5.961 -0.8203 -0.6802 -0.5296
  410MOL0     O55223   2.676   6.069   5.991 -0.1664  1.1068 -0.1551
  410MOL0     C55224   2.656   6.171   6.091  0.2220  1.1367 -0.6861
  410MOL0     C55225   2.544   6.269   6.039 -0.8254  0.0594 -0.1272
  410MOL0     C55226   2.408   6.207   6.010 -0.4338 -0.2081  0.0270
  410MOL0     C55227   2.331   6.279   5.906  0.1668  0.1047 -0.1170
  410MOL0     C55228   2.181   6.273   5.923  0.5098 -0.0998  0.7725
  410MOL0     C55229   2.109   6.339   5.799 -0.3927  0.1758  0.1247
  410MOL0     C55230   1.963   6.303   5.811  0.3674 -0.8545 -0.6920
  410MOL0     C55231   1.875   6.392   5.730 -0.0547 -0.2748 -0.1278
  410MOL0     N55232   1.857   6.520   5.802 -0.1953 -0.1195 -0.0764
  410MOL0     C55233   1.751   6.545   5.887 -1.1413  0.2662 -0.2696
  410MOL0     C55234   1.751   6.680   5.914  0.1046  0.3745 -0.8292
  410MOL0     C55235   1.661   6.734   6.025  0.4013  0.1419 -0.1404
  410MOL0     C55236   1.624   6.884   5.991 -0.2151  0.1311  0.1593
  410MOL0     C55237   1.507   6.882   5.891  0.0847  0.1579  0.5161
  410MOL0     C55238   1.483   7.000   5.809 -0.7893  0.0881  0.6298
  410MOL0     O55239   1.349   6.999   5.757 -0.5537 -0.8255 -0.0800
  410MOL0     C55240   1.321   6.928   5.642 -0.2317 -0.5193 -0.2921
  410MOL0     C55241   1.414   6.872   5.548 -0.0206 -0.2142  0.5638
  410MOL0     C55242   1.373   6.804   5.437  0.4396  0.8994  0.2042
  410MOL0     C55243   1.487   6.725   5.361  0.5581  0.3063 -0.0783
  410MOL0     C55244   1.238   6.798   5.406 -0.1795  0.4419  0.9676
  410MOL0     C55245   1.192   6.700   5.296 -0.2866  0.1321 -0.5967
  410MOL0     O55246   1.178   6.761   5.174  1.1799 -0.3099 -0.0416
  410MOL0     C55247   1.174   6.689   5.059 -0.0911 -0.5665 -0.1445
  410MOL0     C55248   1.291   6.699   4.981  1.1381 -0.2648  0.1124
  410MOL0     C55249   1.311   6.624   4.865  0.5106  0.1435  0.3598
  410MOL0     C55250   1.215   6.522   4.824 -0.4196 -0.8478 -0.3365
  410MOL0     O55251   1.209   6.444   4.702  0.3775 -0.1753 -0.7077
  410MOL0     C55252   1.334   6.425   4.628 -0.0686  0.3110 -0.9285
  410MOL0     C55253   1.341   6.281   4.583  0.1381 -0.3302  0.4203
  410MOL0     C55254   1.487   6.245   4.551  0.0022 -0.6914  0.5712
  410MOL0     C55255   1.488   6.107   4.482 -0.4883  0.5974 -0.2885
  410MOL0     C55256   1.627   6.035   4.458 -0.1719 -0.4105 -0.1410
  410MOL0     C55257   1.730   6.126   4.382  0.6947 -0.8040  0.6203
  410MOL0     C55258   1.863   6.044   4.363 -0.0363 -0.1406 -1.4482
  410MOL0     C55259   1.922   5.984   4.491 -0.2078  1.0044  0.0982
  410MOL0    Cl55260   2.085   5.930   4.463  0.2231 -0.5330 -0.0019
  410MOL0     C55261   1.105   6.510   4.906 -0.5975 -0.1492  0.5801
  410MOL0     C55262   1.091   6.584   5.019  0.6257  0.1523 -0.0016
  410MOL0     O55263   1.180   6.583   5.328  0.7723  0.2372 -0.1481
  410MOL0     C55264   1.145   6.873   5.477  0.0098  1.2625 -0.0949
  410MOL0     C55265   1.191   6.928   5.600  1.2794 -0.4171 -0.8103
  410MOL0     N55266   1.863   6.729   5.864 -0.9803  0.2822  0.3889
  410MOL0     N55267   1.934   6.635   5.798 -0.2911  0.7121 -0.4925
  410MOL0     C55268   2.848   5.988   5.840 -0.2112  0.3776  0.3771
  410MOL0     C55269   2.980   5.952   5.809  0.0105 -0.1459 -0.5874
  410MOL0     C55270   3.423   5.829   5.904 -1.0171 -0.0261  0.5102
  410MOL0     C55271   3.517   5.758   5.979 -0.2407 -0.3997  0.6307
  410MOL0     C55272   3.634   5.713   5.917 -0.1822 -0.5292 -1.0377
  410MOL0     C55273   3.686   5.776   5.801  0.4115  0.6665 -0.8057
  410MOL0     O55274   3.815   5.765   5.759  0.0879  0.3764  0.3335
  410MOL0     C55275   3.918   5.710   5.849  0.7760 -0.2106  0.5497
  410MOL0     C55276   4.049   5.762   5.782 -0.2341  0.9208 -0.1598
  410MOL0     C55277   4.184   5.744   5.863 -0.9159  0.4051 -0.2488
  410MOL0     C55278   4.284   5.823   5.774 -0.2051 -0.2490 -0.4898
  410MOL0     C55279   4.418   5.810   5.837 -0.6861  1.4218 -0.2232
  410MOL0     C55280   4.526   5.788   5.887 -0.5898 -0.0281 -0.4196
  410MOL0     C55281   3.596   5.867   5.731 -0.6689 -0.7775 -0.6983
  410MOL0     C55282   3.468   5.901   5.784  0.9207  1.2031  0.1559
  410MOL0     H55283   3.124   6.029   6.102  0.2951  2.6039 -1.0129
  410MOL0     H55284   2.884   6.104   6.144 -2.4063  2.1144 -1.7734
  410MOL0     H55285   2.621   6.126   6.184  0.9485  1.4129 -0.2771
  410MOL0     H55286   2.742   6.238   6.099  0.0795  1.3464 -0.8689
  410MOL0     H55287   2.540   6.358   6.102  1.7427 -0.1850  0.4983
  410MOL0     H55288   2.585   6.304   5.944  0.5735  0.8483  0.7421
  410MOL0     H55289   2.433   6.103   5.985  1.8590 -0.0165  1.2757
  410MOL0     H55290   2.354   6.196   6.105  1.2296  1.2752  1.2265
  410MOL0     H55291   2.360   6.384   5.898  2.4953 -0.4859 -0.2458
  410MOL0     H55292   2.354   6.238   5.807 -1.0415 -2.1389  0.4646
  410MOL0     H55293   2.162   6.166   5.937 -0.1539 -0.0875  0.0474
  410MOL0     H55294   2.155   6.332   6.012  1.7876  2.4193 -0.4334
  410MOL0     H55295   2.121   6.447   5.800 -2.5328  0.4472 -0.0935
  410MOL0     H55296   2.161   6.297   5.712  0.9746 -2.9258  2.2398
  410MOL0     H55297   1.945   6.201   5.775 -2.7000 -0.3842 -0.7154
  410MOL0     H55298   1.930   6.301   5.916  1.1266 -0.4681 -0.4396
  410MOL0     H55299   1.775   6.351   5.712 -0.4850  0.5416  0.3620
  410MOL0     H55300   1.908   6.401   5.625  0.5510 -0.7609  0.0132
  410MOL0     H55301   1.670   6.480   5.920 -1.1619  0.6053  0.3714
  410MOL0     H55302   1.577   6.665   6.028  0.3986  0.1405 -0.2529
  410MOL0     H55303   1.709   6.735   6.124 -1.0684 -1.4523  0.6305
  410MOL0     H55304   1.714   6.935   5.954 -0.5415  2.4359  2.2969
  410MOL0     H55305   1.591   6.933   6.083 -0.7852  1.7294 -0.8598
  410MOL0     H55306   1.415   6.853   5.942  0.9227  0.8964  2.5753
  410MOL0     H55307   1.530   6.807   5.815  4.2756  1.9396 -0.2473
  410MOL0     H55308   1.557   7.004   5.730  1.4965 -2.3701  2.4566
  410MOL0     H55309   1.502   7.081   5.880 -0.0409 -0.4603  1.0754
  410MOL0     H55310   1.520   6.867   5.572  0.0939  2.5709  0.8906
  410MOL0     H55311   1.556   6.792   5.310 -2.0822  2.3746 -1.1623
  410MOL0     H55312   1.542   6.667   5.435  0.9753 -1.9894 -2.0640
  410MOL0     H55313   1.444   6.660   5.284  1.6283 -2.3167  1.3963
  410MOL0     H55314   1.378   6.759   5.003 -0.1132  1.0325  1.7491
  410MOL0     H55315   1.397   6.653   4.806 -0.6221  1.1565 -0.8826
  410MOL0     H55316   1.334   6.487   4.538 -0.0151  2.5261  0.5184
  410MOL0     H55317   1.421   6.454   4.688  0.1151  1.4876 -1.7410
  410MOL0     H55318   1.313   6.213   4.664 -0.7836 -0.3690  0.0794
  410MOL0     H55319   1.273   6.275   4.497  1.8928  1.9501 -1.2459
  410MOL0     H55320   1.555   6.233   4.636  0.1475  2.1310  0.9569
  410MOL0     H55321   1.537   6.326   4.498 -0.6870  1.1600  2.5764
  410MOL0     H55322   1.440   6.029   4.543  0.5153 -1.5184 -2.0766
  410MOL0     H55323   1.428   6.110   4.391 -0.4260 -2.2599 -0.5409
  410MOL0     H55324   1.614   5.941   4.404  0.6768 -0.1034 -0.9122
  410MOL0     H55325   1.660   6.007   4.559 -0.5414  1.8649  0.6489
  410MOL0     H55326   1.693   6.154   4.283 -2.2270  2.6426  2.4329
  410MOL0     H55327   1.744   6.217   4.441  1.3105  1.7130 -3.1149
  410MOL0     H55328   1.927   6.125   4.327 -1.2481  2.7655  2.2519
  410MOL0     H55329   1.838   5.963   4.294 -2.4330 -0.7774  0.0630
  410MOL0     H55330   1.862   5.899   4.523 -0.0054 -0.7367 -3.6090
  410MOL0     H55331   1.931   6.064   4.564 -1.6835  0.4396  0.9450
  410MOL0     H55332   1.027   6.435   4.893 -2.3009  1.8500 -1.5071
  410MOL0     H55333   1.001   6.573   5.080  2.2659 -1.7003  2.2759
  410MOL0     H55334   1.040   6.873   5.454  0.1612  4.6118 -1.2796
  410MOL0     H55335   1.118   6.969   5.669  1.1446 -2.7850  0.6026
  410MOL0     H55336   2.776   5.983   5.759 -1.1484 -1.7047  1.2700
  410MOL0     H55337   2.990   5.923   5.704 -1.9285  0.3921 -0.9561
  410MOL0     H55338   3.489   5.714   6.073  2.6345  0.8106  2.1951
  410MOL0     H55339   3.690   5.633   5.965  0.0482  0.5242  0.5318
  410MOL0     H55340   3.906   5.753   5.949  0.1108 -0.3198  0.5179
  410MOL0     H55341   3.915   5.602   5.862  0.6129 -0.3811 -0.7806
  410MOL0     H55342   4.038   5.867   5.757 -1.4335  0.9657  0.4986
  410MOL0     H55343   4.059   5.705   5.689 -1.7975 -1.2525  0.9137
  410MOL0     H55344   4.202   5.637   5.854  1.3094  0.8959 -3.5453
  410MOL0     H55345   4.189   5.780   5.966 -0.0039  2.0395 -0.8196
  410MOL0     H55346   4.256   5.929   5.775 -2.3086 -0.6868 -2.8472
  410MOL0     H55347   4.291   5.777   5.675  2.5334  0.1470 -0.5828
  410MOL0     H55348   4.620   5.771   5.936  0.7152  3.3205 -1.5003
  410MOL0     H55349   3.638   5.906   5.639  0.3822 -0.6505 -0.1739
  410MOL0     H55350   3.417   5.985   5.738  0.2293 -0.0103 -1.3810
  411MOL0     O55351  10.025   1.945   8.661  0.5669  0.0821  0.2458
  411MOL0     C55352   9.948   2.015   8.728  0.0602 -0.6409 -0.3714
  411MOL0     O55353   9.839   2.076   8.680  0.5245  0.2263 -0.7242
  411MOL0     C55354   9.809   2.056   8.549  0.7732  0.3025 -0.8160
  411MOL0     C55355   9.904   2.103   8.451 -0.3560  0.3415  0.0140
  411MOL0     C55356   9.870   2.061   8.317  0.5435  0.2094 -0.2060
  411MOL0     C55357   9.767   1.970   8.287  0.0688 -0.3930  0.2626
  411MOL0     O55358   9.761   1.927   8.156 -0.2859 -0.5913 -0.3706
  411MOL0     C55359   9.705   1.797   8.121  0.4807  0.1136 -0.0956
  411MOL0     C55360   9.823   1.703   8.126  0.1944 -1.0609 -0.1021
  411MOL0     C55361   9.953   1.750   8.059 -0.5597 -0.3104  0.3215
  411MOL0     C55362  10.072   1.662   8.102  0.5304 -0.1317 -0.5511
  411MOL0     C55363  10.195   1.685   8.020 -0.1062 -0.1242 -0.1373
  411MOL0     C55364  10.324   1.665   8.102 -0.3148  0.2604 -0.8462
  411MOL0     C55365  10.451   1.698   8.024  0.1968 -0.5131  0.3918
  411MOL0     C55366  10.576   1.663   8.105 -0.4580  0.0106  0.8642
  411MOL0     N55367  10.694   1.683   8.016 -0.4709  0.2971 -0.6864
  411MOL0     C55368  10.743   1.797   7.967 -0.2242 -0.0616 -0.0756
  411MOL0     C55369  10.855   1.768   7.892  0.6631 -0.6520 -0.7689
  411MOL0     C55370  10.934   1.865   7.815  0.1007 -0.0977 -0.1790
  411MOL0     C55371  10.993   1.792   7.692  0.7047 -0.2623  0.2940
  411MOL0     C55372  10.875   1.754   7.608  0.0143  0.5986  0.1173
  411MOL0     C55373  10.921   1.698   7.466  0.4612  0.1179  0.3720
  411MOL0     O55374  10.828   1.617   7.392 -0.1159 -0.3394  0.1088
  411MOL0     C55375  10.745   1.688   7.310  0.1630  0.2550 -0.5937
  411MOL0     C55376  10.740   1.822   7.278  0.1863 -0.1611  0.1954
  411MOL0     C55377  10.650   1.871   7.191 -0.5502 -0.7316  0.1255
  411MOL0     C55378  10.673   2.014   7.161 -0.0922 -0.5759  0.8888
  411MOL0     C55379  10.548   1.789   7.141  0.0249  1.1765  0.2590
  411MOL0     C55380  10.436   1.826   7.052  0.1260  0.7855  1.2027
  411MOL0     O55381  10.390   1.946   7.065  0.3343 -0.3380  0.5676
  411MOL0     C55382  10.290   1.989   6.990 -0.2243 -0.9588  0.8322
  411MOL0     C55383  10.173   1.919   6.971 -0.4487  0.2760 -0.3576
  411MOL0     C55384  10.066   1.965   6.901  0.3159  0.3866  0.3696
  411MOL0     C55385  10.071   2.096   6.846 -0.7252 -0.1986 -0.4211
  411MOL0     O55386   9.973   2.171   6.788 -0.3352  0.0379 -0.0221
  411MOL0     C55387   9.844   2.123   6.823  0.9136 -0.1722 -0.2175
  411MOL0     C55388   9.723   2.205   6.769  0.0097 -0.5173 -0.1096
  411MOL0     C55389   9.582   2.126   6.756  0.6827 -0.6527 -0.8084
  411MOL0     C55390   9.492   2.213   6.656 -0.2177 -0.4927 -0.4563
  411MOL0     C55391   9.343   2.156   6.636 -0.5539 -0.2982 -0.0444
  411MOL0     C55392   9.263   2.188   6.768 -0.3884 -0.3775  0.8145
  411MOL0     C55393   9.119   2.123   6.768  0.4152 -0.0581  0.6195
  411MOL0     C55394   9.036   2.191   6.877  0.4788  0.3662  0.2333
  411MOL0    Cl55395   8.888   2.094   6.872  0.2635 -0.2855  0.2238
  411MOL0     C55396  10.197   2.169   6.857  0.6789  0.9471  0.0942
  411MOL0     C55397  10.303   2.111   6.931 -0.3354 -1.0981 -0.6920
  411MOL0     O55398  10.391   1.735   6.972  0.3158  0.0516 -0.0640
  411MOL0     C55399  10.558   1.648   7.164 -0.4847 -1.0125  0.2427
  411MOL0     C55400  10.660   1.602   7.242 -0.5437  0.4097 -0.2050
  411MOL0     N55401  10.856   1.629   7.886  0.5257  0.6716 -1.1298
  411MOL0     N55402  10.758   1.584   7.957 -0.2691  0.1492 -0.6629
  411MOL0     C55403   9.684   1.928   8.390  0.2411  0.6200  0.3453
  411MOL0     C55404   9.699   1.973   8.523 -0.0040  0.1477 -0.5084
  411MOL0     C55405   9.988   2.050   8.870 -0.0759  0.2931  0.9985
  411MOL0     C55406  10.106   2.002   8.917 -0.3528  0.0067  0.6951
  411MOL0     C55407  10.146   2.041   9.046  0.7273 -0.1079  0.3380
  411MOL0     C55408  10.056   2.113   9.123  0.0641 -0.8134 -0.8403
  411MOL0     O55409  10.073   2.150   9.258 -0.0113 -0.1640  0.2255
  411MOL0     C55410  10.207   2.186   9.292  0.1152  0.2390 -1.3855
  411MOL0     C55411  10.259   2.083   9.388 -0.2357  0.8849 -0.1281
  411MOL0     C55412  10.403   2.116   9.433  0.3054  0.2770  0.1971
  411MOL0     C55413  10.470   1.987   9.472 -0.1996 -0.8962  0.4178
  411MOL0     C55414  10.602   2.009   9.522 -0.5349 -0.3491 -0.0732
  411MOL0     C55415  10.708   2.010   9.582 -0.2027 -0.1010 -0.6815
  411MOL0     C55416   9.937   2.155   9.076 -0.2689  0.9112  0.3413
  411MOL0     C55417   9.901   2.129   8.947 -0.0951  1.1172  0.1988
  411MOL0     H55418   9.984   2.168   8.485  0.8268 -1.2426  0.3748
  411MOL0     H55419   9.935   2.098   8.239 -0.7066 -0.7355 -1.7759
  411MOL0     H55420   9.627   1.770   8.193  1.3731 -1.3197  0.3809
  411MOL0     H55421   9.652   1.799   8.026 -0.5333  0.8987  0.4633
  411MOL0     H55422   9.837   1.681   8.232  0.0028 -0.0212  0.1579
  411MOL0     H55423   9.790   1.613   8.075 -2.5914 -0.2472  0.1147
  411MOL0     H55424   9.944   1.735   7.951  2.4689 -1.6723  0.1661
  411MOL0     H55425   9.983   1.851   8.088 -0.0074 -0.3156 -0.2263
  411MOL0     H55426  10.089   1.685   8.208  2.3147  0.2834 -0.8919
  411MOL0     H55427  10.047   1.557   8.086  1.4340 -0.5313  0.5708
  411MOL0     H55428  10.195   1.617   7.935 -1.1256 -0.7973  0.3825
  411MOL0     H55429  10.204   1.789   7.985 -0.5694 -0.9313 -2.8719
  411MOL0     H55430  10.310   1.733   8.186 -3.3804  0.7577 -1.6532
  411MOL0     H55431  10.338   1.568   8.150 -0.1779  0.7581  0.1350
  411MOL0     H55432  10.445   1.648   7.927 -2.2049  1.1124 -0.4032
  411MOL0     H55433  10.465   1.805   8.006  4.1885 -1.0727 -0.6544
  411MOL0     H55434  10.573   1.557   8.132  1.0991  0.0131  1.1483
  411MOL0     H55435  10.571   1.732   8.189 -1.5788  0.8409  0.1506
  411MOL0     H55436  10.696   1.894   7.978  2.5230  1.3447  0.2704
  411MOL0     H55437  10.871   1.952   7.793 -1.4327 -1.2438 -0.4381
  411MOL0     H55438  11.023   1.889   7.874  0.6972  0.0099 -1.1070
  411MOL0     H55439  11.051   1.702   7.716  4.1132  1.4398 -0.8910
  411MOL0     H55440  11.059   1.855   7.632  0.8684 -1.4453 -0.7960
  411MOL0     H55441  10.794   1.828   7.600 -2.4968 -1.8798  1.1594
  411MOL0     H55442  10.832   1.670   7.663 -0.1119  0.5172 -0.1050
  411MOL0     H55443  11.014   1.641   7.478  1.8845  2.5858  2.1809
  411MOL0     H55444  10.967   1.781   7.411 -1.2036  2.2457  2.0372
  411MOL0     H55445  10.805   1.884   7.339  0.8324 -0.3844 -0.2573
  411MOL0     H55446  10.777   2.047   7.167 -0.5178  0.8195  0.8684
  411MOL0     H55447  10.632   2.048   7.065  0.8232 -0.5353  0.5026
  411MOL0     H55448  10.625   2.078   7.235  0.6190  0.5952  0.3616
  411MOL0     H55449  10.151   1.820   7.010  1.8624  0.0506  0.5638
  411MOL0     H55450   9.976   1.905   6.895  0.2183  0.6219 -0.8086
  411MOL0     H55451   9.838   2.021   6.784  2.6759 -0.4113  0.0796
  411MOL0     H55452   9.832   2.115   6.932 -3.0491  1.5192 -0.3305
  411MOL0     H55453   9.719   2.285   6.843  2.3042 -2.3104  2.0921
  411MOL0     H55454   9.749   2.244   6.670  0.4637  1.9849  0.9232
  411MOL0     H55455   9.528   2.118   6.851  1.6842 -0.6794 -0.2301
  411MOL0     H55456   9.587   2.023   6.720 -0.5446 -1.0749  0.1596
  411MOL0     H55457   9.487   2.314   6.697 -0.3803 -0.9070  0.5961
  411MOL0     H55458   9.552   2.199   6.566  2.0661 -1.6504  1.1434
  411MOL0     H55459   9.345   2.049   6.614  2.1580 -0.0878 -1.1651
  411MOL0     H55460   9.295   2.201   6.549  3.8976  0.2326 -2.5277
  411MOL0     H55461   9.318   2.143   6.851  1.3797 -0.9828 -0.6355
  411MOL0     H55462   9.260   2.297   6.765  1.3996 -0.3222 -2.0855
  411MOL0     H55463   9.129   2.015   6.784  2.9436  0.2775  1.7751
  411MOL0     H55464   9.061   2.149   6.680 -0.6651  0.6437  1.5120
  411MOL0     H55465   9.000   2.291   6.849  0.3530  0.1708 -0.3111
  411MOL0     H55466   9.087   2.199   6.973 -1.6542  0.8412  1.3987
  411MOL0     H55467  10.211   2.267   6.812 -1.0250  1.2751  0.1826
  411MOL0     H55468  10.401   2.157   6.940  0.0657 -1.9681 -0.4882
  411MOL0     H55469  10.482   1.574   7.140 -1.7016 -0.4376  2.1370
  411MOL0     H55470  10.660   1.499   7.276  2.0340  0.8044  1.3082
  411MOL0     H55471   9.607   1.852   8.385  2.1641 -1.5331  1.3355
  411MOL0     H55472   9.641   1.939   8.608 -1.0775 -2.0984 -2.0405
  411MOL0     H55473  10.168   1.941   8.853 -0.1391  1.5461 -0.6223
  411MOL0     H55474  10.245   2.007   9.075  0.4073 -0.8414  0.6079
  411MOL0     H55475  10.268   2.199   9.202  2.2154 -1.6269 -0.3582
  411MOL0     H55476  10.202   2.281   9.345 -1.5020 -0.2567 -0.5776
  411MOL0     H55477  10.252   1.979   9.354  4.6330  0.8464 -1.7555
  411MOL0     H55478  10.194   2.083   9.477 -1.9399 -2.1613 -1.2118
  411MOL0     H55479  10.406   2.189   9.514  0.2009 -0.6530  1.0584
  411MOL0     H55480  10.462   2.157   9.350 -1.1413  1.6739 -0.2012
  411MOL0     H55481  10.476   1.916   9.389  1.1748 -0.7861  0.4052
  411MOL0     H55482  10.400   1.942   9.542 -2.0191 -0.5058 -1.0555
  411MOL0     H55483  10.790   1.979   9.643 -2.7509 -0.3683  2.9081
  411MOL0     H55484   9.878   2.216   9.144 -2.2996 -1.8268  1.1903
  411MOL0     H55485   9.812   2.174   8.904 -0.4100 -0.6347 -1.1300
  412MOL0     O55486   9.872   0.075   7.089 -0.6044 -1.1373 -0.4778
  412MOL0     C55487   9.914  -0.024   7.143  0.2519  0.1322 -0.4890
  412MOL0     O55488   9.859  -0.144   7.154 -0.0472  0.7817  0.3010
  412MOL0     C55489   9.754  -0.183   7.075  0.4681  0.5424  0.2709
  412MOL0     C55490   9.790  -0.253   6.959  0.5127  0.1810 -0.3553
  412MOL0     C55491   9.696  -0.261   6.861 -0.3333  0.5989 -0.3411
  412MOL0     C55492   9.562  -0.228   6.879  0.5558  0.9323  0.0569
  412MOL0     O55493   9.483  -0.261   6.768 -0.0290 -0.5280 -0.7805
  412MOL0     C55494   9.339  -0.251   6.790  0.5956 -0.5243 -0.1968
  412MOL0     C55495   9.263  -0.352   6.708 -0.1905 -0.5562  1.2261
  412MOL0     C55496   9.118  -0.371   6.745  0.4922 -0.5757  0.2395
  412MOL0     C55497   9.032  -0.259   6.688 -0.0845  0.6714  0.2947
  412MOL0     C55498   8.954  -0.283   6.555 -0.4159 -0.0112  0.0411
  412MOL0     C55499   8.827  -0.371   6.589  0.3126 -0.2764  0.0250
  412MOL0     C55500   8.750  -0.411   6.459  0.1499  0.1556 -0.0378
  412MOL0     C55501   8.664  -0.291   6.415 -0.7693  0.3101 -0.0623
  412MOL0     N55502   8.633  -0.315   6.282  0.6802  0.0609  0.3492
  412MOL0     C55503   8.701  -0.265   6.169 -0.0071 -0.8342  0.3233
  412MOL0     C55504   8.622  -0.318   6.068  0.3513 -0.6258  0.2673
  412MOL0     C55505   8.655  -0.290   5.928  0.3292 -1.0576  0.2075
  412MOL0     C55506   8.557  -0.182   5.861  0.0954  0.3806 -0.3587
  412MOL0     C55507   8.571  -0.036   5.921 -0.3101  0.4594  0.1392
  412MOL0     C55508   8.459   0.054   5.878 -0.3745 -0.4490  0.9290
  412MOL0     O55509   8.381   0.004   5.774 -0.1242  0.3509  0.8722
  412MOL0     C55510   8.245   0.015   5.791  0.1310  0.0529 -0.1487
  412MOL0     C55511   8.183   0.129   5.817 -0.2619  1.5174  0.0275
  412MOL0     C55512   8.049   0.131   5.832 -0.6297 -0.3447 -0.5734
  412MOL0     C55513   8.000   0.272   5.871 -0.0803 -0.0264  0.3989
  412MOL0     C55514   7.967   0.015   5.812 -0.6543 -0.2847  0.2254
  412MOL0     C55515   7.821   0.017   5.819  0.0218 -0.6924 -0.1482
  412MOL0     O55516   7.757   0.129   5.857  0.2832  0.0055 -0.2385
  412MOL0     C55517   7.632   0.115   5.908 -0.9993 -0.4677  0.1388
  412MOL0     C55518   7.535   0.208   5.875 -1.1336  0.0947 -0.2119
  412MOL0     C55519   7.401   0.187   5.921 -0.2691  0.1919 -0.3266
  412MOL0     C55520   7.364   0.087   6.011  0.2831 -2.1520 -0.1879
  412MOL0     O55521   7.230   0.075   6.031  0.1711 -0.0818  1.1190
  412MOL0     C55522   7.182   0.007   6.152 -0.0437 -0.9564  0.1501
  412MOL0     C55523   7.049   0.078   6.192  0.0957  0.2943  0.3138
  412MOL0     C55524   6.928   0.053   6.099  0.2148 -0.4601 -0.2171
  412MOL0     C55525   6.811   0.149   6.141  0.4711 -0.3149  0.2640
  412MOL0     C55526   6.723   0.081   6.241  0.7706 -0.5275  0.4854
  412MOL0     C55527   6.626  -0.006   6.168  0.6192  0.4535  0.6265
  412MOL0     C55528   6.523  -0.076   6.254 -0.2048 -0.1152  0.9126
  412MOL0     C55529   6.422   0.022   6.318 -0.2588 -0.1735  0.3760
  412MOL0    Cl55530   6.380   0.174   6.228 -0.1868 -0.1627 -0.1063
  412MOL0     C55531   7.468   0.005   6.056  0.6136  0.4130  0.1885
  412MOL0     C55532   7.598   0.016   6.002  0.1594  0.1198  0.0530
  412MOL0     O55533   7.764  -0.091   5.780  0.0906 -0.1462  0.0612
  412MOL0     C55534   8.035  -0.100   5.778 -0.0628  0.1322  0.7087
  412MOL0     C55535   8.172  -0.104   5.768 -0.3735  0.0541 -0.1067
  412MOL0     N55536   8.512  -0.380   6.115 -0.6473 -0.0542  0.7080
  412MOL0     N55537   8.515  -0.382   6.247  0.1226  0.0050 -0.1505
  412MOL0     C55538   9.522  -0.160   6.992 -0.2253 -0.4315  0.5779
  412MOL0     C55539   9.620  -0.131   7.088 -0.0646  0.5925  0.1277
  412MOL0     C55540  10.033   0.000   7.221  0.0067 -0.0890 -0.5144
  412MOL0     C55541  10.054  -0.074   7.339 -1.1805  0.5155  0.1871
  412MOL0     C55542  10.170  -0.062   7.411  0.2067  0.0182  0.3300
  412MOL0     C55543  10.268   0.038   7.367  0.5426  0.2208  0.1740
  412MOL0     O55544  10.395   0.052   7.414 -0.0914 -0.7175 -0.3156
  412MOL0     C55545  10.454  -0.048   7.506 -0.3734  0.6938  0.1951
  412MOL0     C55546  10.606  -0.027   7.517 -0.9801  0.4743 -0.6012
  412MOL0     C55547  10.645   0.113   7.553  0.0248 -0.4257 -0.3145
  412MOL0     C55548  10.794   0.140   7.590  0.6241  0.4724  0.3104
  412MOL0     C55549  10.854   0.057   7.695  0.6880 -0.2267  0.8385
  412MOL0     C55550  10.914  -0.022   7.768 -0.8559 -0.3885  0.2748
  412MOL0     C55551  10.241   0.111   7.250 -0.4090 -1.1672 -0.1576
  412MOL0     C55552  10.125   0.091   7.173  0.1711 -0.3062  0.0347
  412MOL0     H55553   9.892  -0.282   6.935  0.0289 -0.0701 -2.2425
  412MOL0     H55554   9.723  -0.325   6.777  1.4564  0.7000  0.1046
  412MOL0     H55555   9.310  -0.256   6.895  1.0979  0.0085 -0.0275
  412MOL0     H55556   9.296  -0.157   6.757 -0.4764 -0.5346  1.1023
  412MOL0     H55557   9.268  -0.323   6.602  1.9627  2.9089  2.1321
  412MOL0     H55558   9.306  -0.452   6.719  0.5949 -0.2678  0.8377
  412MOL0     H55559   9.088  -0.467   6.703 -0.0482 -0.2524 -0.1256
  412MOL0     H55560   9.108  -0.378   6.854 -0.7891 -2.8835  0.0389
  412MOL0     H55561   8.957  -0.237   6.765  2.0276  0.0167  2.6859
  412MOL0     H55562   9.098  -0.173   6.673  2.6759 -1.5074 -0.8371
  412MOL0     H55563   8.919  -0.190   6.510  3.0126  1.3933 -0.0475
  412MOL0     H55564   9.026  -0.321   6.482  0.6443  0.4939  0.7901
  412MOL0     H55565   8.865  -0.465   6.632 -2.9136 -1.0982  1.3659
  412MOL0     H55566   8.750  -0.326   6.652 -0.3280 -1.8441  0.4060
  412MOL0     H55567   8.829  -0.425   6.385 -0.9096  0.2540 -1.2122
  412MOL0     H55568   8.691  -0.502   6.475 -3.3716  2.3877  0.7238
  412MOL0     H55569   8.724  -0.200   6.415 -0.2067 -0.0349  1.7410
  412MOL0     H55570   8.581  -0.270   6.482  0.7830 -0.2872  2.1685
  412MOL0     H55571   8.795  -0.210   6.159 -0.8569  0.7812  0.8298
  412MOL0     H55572   8.757  -0.256   5.907  0.1683 -0.0213  1.0071
  412MOL0     H55573   8.647  -0.383   5.870  3.4205 -1.7912  0.7905
  412MOL0     H55574   8.455  -0.219   5.876  0.6444 -0.0434  3.3415
  412MOL0     H55575   8.595  -0.191   5.759  3.2835  0.3468  0.6922
  412MOL0     H55576   8.667   0.007   5.893  0.0807  0.5740  1.5590
  412MOL0     H55577   8.571  -0.035   6.031 -1.7258  0.5645  0.1585
  412MOL0     H55578   8.491   0.156   5.853 -3.0983  0.5538  1.1635
  412MOL0     H55579   8.395   0.062   5.967 -3.5964 -5.3477 -0.5454
  412MOL0     H55580   8.232   0.225   5.805 -1.6351  2.0799 -1.5566
  412MOL0     H55581   7.966   0.318   5.778  0.0239  0.2982  0.5182
  412MOL0     H55582   7.945   0.277   5.966  0.6963  1.3113  0.8063
  412MOL0     H55583   8.078   0.342   5.903 -1.0308  2.5216 -2.4464
  412MOL0     H55584   7.557   0.285   5.801  6.3363 -1.5774 -0.4868
  412MOL0     H55585   7.323   0.256   5.892  0.2076  0.1899 -1.6471
  412MOL0     H55586   7.162  -0.099   6.136 -0.1076 -0.7465 -1.2647
  412MOL0     H55587   7.254   0.017   6.233 -0.8415  3.7687  0.5951
  412MOL0     H55588   7.020   0.033   6.288  0.5556 -1.6693 -0.4392
  412MOL0     H55589   7.071   0.185   6.201  2.1637  0.1007 -1.6876
  412MOL0     H55590   6.896  -0.051   6.097  0.4104 -0.5196 -0.2971
  412MOL0     H55591   6.962   0.079   5.998  0.7664  0.3109  0.1564
  412MOL0     H55592   6.840   0.242   6.190 -1.1755 -0.8907  2.5799
  412MOL0     H55593   6.753   0.173   6.052  2.0964 -1.4889 -1.1669
  412MOL0     H55594   6.660   0.148   6.300 -3.8202 -5.0396  1.4074
  412MOL0     H55595   6.764   0.021   6.323 -2.7812 -1.5373  1.6986
  412MOL0     H55596   6.576   0.057   6.093  1.6322 -1.0324 -1.4010
  412MOL0     H55597   6.683  -0.074   6.104  1.5517  2.2754 -0.5697
  412MOL0     H55598   6.570  -0.135   6.334 -1.2257  1.0295  2.4230
  412MOL0     H55599   6.471  -0.150   6.192 -2.1830  0.9982  1.1530
  412MOL0     H55600   6.456   0.040   6.421  2.4514  1.6274 -0.7318
  412MOL0     H55601   6.328  -0.032   6.328 -1.3305  1.4700 -0.3499
  412MOL0     H55602   7.450  -0.080   6.121 -0.4119  0.6481  0.2317
  412MOL0     H55603   7.666  -0.067   6.017 -1.6189 -1.2199  1.0377
  412MOL0     H55604   7.980  -0.190   5.755 -0.9538  0.5298  1.2276
  412MOL0     H55605   8.227  -0.196   5.751 -0.8104  0.1778 -2.4956
  412MOL0     H55606   9.421  -0.123   7.008  0.5912  3.1818 -1.3825
  412MOL0     H55607   9.588  -0.077   7.176  1.9395  0.4908  0.9586
  412MOL0     H55608   9.982  -0.143   7.380 -1.3334  1.9114  2.3975
  412MOL0     H55609  10.177  -0.135   7.491 -0.9941  2.1093  2.4431
  412MOL0     H55610  10.402  -0.051   7.602 -4.0362  0.6536 -1.5990
  412MOL0     H55611  10.443  -0.147   7.461  5.1038 -0.9606  1.8213
  412MOL0     H55612  10.661  -0.054   7.426 -1.1334  1.6020 -1.0410
  412MOL0     H55613  10.644  -0.088   7.599 -1.5988  0.1367 -0.5598
  412MOL0     H55614  10.594   0.141   7.645  0.6121 -1.9589  0.5147
  412MOL0     H55615  10.618   0.184   7.474  1.4020  1.5117  0.8702
  412MOL0     H55616  10.798   0.245   7.620 -0.3299  0.4871  0.4301
  412MOL0     H55617  10.847   0.114   7.498  1.5369  0.3784  0.8481
  412MOL0     H55618  10.970  -0.095   7.823  0.4377 -4.3911 -5.4333
  412MOL0     H55619  10.311   0.186   7.216 -1.7006 -0.1272 -0.6297
  412MOL0     H55620  10.106   0.149   7.083  1.8579 -1.6211 -1.2463
  413MOL0     O55621   8.037   9.948   2.319 -0.6570  0.3612  0.1044
  413MOL0     C55622   8.006   9.831   2.325  0.2212 -0.7278  0.5851
  413MOL0     O55623   7.904   9.781   2.265 -0.6329  0.1134 -0.0924
  413MOL0     C55624   7.834   9.848   2.171 -0.3536  0.2028 -0.1620
  413MOL0     C55625   7.895   9.929   2.072 -0.2009  0.8956  1.2571
  413MOL0     C55626   7.824   9.998   1.977 -0.7928  0.8590 -0.3081
  413MOL0     C55627   7.689   9.973   1.971 -0.0163  0.2712 -0.6893
  413MOL0     O55628   7.622  10.031   1.865 -0.2273  0.3839  0.1810
  413MOL0     C55629   7.668   9.995   1.738 -0.1817  0.9497  0.9413
  413MOL0     C55630   7.547   9.951   1.656 -0.0696  0.6275  0.6452
  413MOL0     C55631   7.587   9.920   1.515 -0.8119  1.0760  0.2025
  413MOL0     C55632   7.477   9.878   1.427 -0.4508 -0.4151 -0.0978
  413MOL0     C55633   7.531   9.838   1.296  0.0959  0.6451 -1.1429
  413MOL0     C55634   7.422   9.767   1.219  0.7277  0.4459 -0.5361
  413MOL0     C55635   7.447   9.719   1.083 -0.3707 -0.3519 -0.3816
  413MOL0     C55636   7.322   9.695   0.997 -0.1377 -0.8857  0.4023
  413MOL0     N55637   7.340   9.663   0.855  0.2379 -0.1295  0.2911
  413MOL0     C55638   7.331   9.757   0.752 -0.8218  0.1851  0.4782
  413MOL0     C55639   7.384   9.690   0.649 -0.3535  0.6384 -0.1907
  413MOL0     C55640   7.409   9.730   0.506 -0.1485  0.0995  0.5863
  413MOL0     C55641   7.434   9.879   0.473 -0.3713 -0.3779  0.1179
  413MOL0     C55642   7.582   9.905   0.490  0.9068  0.0298  0.1185
  413MOL0     C55643   7.630   9.898   0.635  0.5585  0.1206 -0.3151
  413MOL0     O55644   7.560   9.988   0.729 -0.5238  1.0449 -0.5262
  413MOL0     C55645   7.630  10.012   0.849  0.3158  0.3815 -0.2212
  413MOL0     C55646   7.712   9.931   0.926 -0.3744 -0.2871 -0.3643
  413MOL0     C55647   7.767   9.958   1.055  1.1499  0.4687  0.2429
  413MOL0     C55648   7.862   9.865   1.131  0.0838  0.4890  0.1535
  413MOL0     C55649   7.730  10.077   1.113  0.0258 -0.7630 -0.9972
  413MOL0     C55650   7.773  10.132   1.253  0.0283 -0.4408  0.2094
  413MOL0     O55651   7.899  10.099   1.296  0.5570  0.9636 -0.2716
  413MOL0     C55652   7.939  10.126   1.423 -0.1263 -0.1970  0.0834
  413MOL0     C55653   7.949  10.271   1.461 -0.9846  1.1250  0.0554
  413MOL0     C55654   8.004  10.296   1.586 -0.3326  0.1675  0.3049
  413MOL0     C55655   8.040  10.198   1.675  0.1907 -0.7806  0.2836
  413MOL0     O55656   8.074  10.232   1.800  0.2127  0.5966 -0.6654
  413MOL0     C55657   8.213  10.221   1.817  0.1232 -0.5283 -0.4573
  413MOL0     C55658   8.240  10.209   1.967 -0.0214  0.5519  1.4587
  413MOL0     C55659   8.171  10.316   2.059 -0.5353 -0.8947  0.2874
  413MOL0     C55660   8.251  10.449   2.054  0.2352  0.7400 -0.3524
  413MOL0     C55661   8.229  10.532   2.175 -0.3602  0.1119  0.3656
  413MOL0     C55662   8.316  10.659   2.178  0.0897 -0.6397 -0.3695
  413MOL0     C55663   8.369  10.697   2.313 -0.8658  0.2481  1.0574
  413MOL0     C55664   8.260  10.718   2.417  0.4944 -0.6930 -0.8412
  413MOL0    Cl55665   8.326  10.697   2.583  0.0357 -0.1282 -0.2519
  413MOL0     C55666   8.039  10.067   1.633  0.8976 -0.5638  1.2356
  413MOL0     C55667   7.982  10.034   1.511  0.7802  0.1207  0.0864
  413MOL0     O55668   7.692  10.196   1.311  0.0218 -0.7721  0.1609
  413MOL0     C55669   7.637  10.162   1.043  1.3797  0.1869  0.2908
  413MOL0     C55670   7.585  10.124   0.917 -0.5072 -0.7123 -0.4514
  413MOL0     N55671   7.393   9.553   0.689  0.1494  0.0005 -0.4777
  413MOL0     N55672   7.369   9.537   0.817  0.3024 -0.8957  0.3381
  413MOL0     C55673   7.622   9.894   2.060  0.3067 -0.3053  0.1458
  413MOL0     C55674   7.694   9.826   2.154  0.4764  0.1482 -0.6174
  413MOL0     C55675   8.044   9.745   2.422 -0.4300 -0.4041 -0.1524
  413MOL0     C55676   8.180   9.769   2.475 -0.1867 -0.8399 -0.1842
  413MOL0     C55677   8.221   9.691   2.581 -0.2640 -0.3072  0.0029
  413MOL0     C55678   8.138   9.592   2.637  0.0783  0.1739 -0.2585
  413MOL0     O55679   8.192   9.531   2.752  0.1791  0.6495 -0.6003
  413MOL0     C55680   8.125   9.404   2.803  1.2400  0.5715  0.1755
  413MOL0     C55681   8.233   9.300   2.840  0.4116 -0.7510 -0.6691
  413MOL0     C55682   8.334   9.264   2.734  0.6496 -1.1192  0.0367
  413MOL0     C55683   8.418   9.144   2.770  1.0579  0.0074 -0.0456
  413MOL0     C55684   8.505   9.115   2.657 -0.4606  0.1673 -0.8045
  413MOL0     C55685   8.579   9.082   2.566  0.6849  0.0276  0.3033
  413MOL0     C55686   8.013   9.573   2.588 -0.2025  1.3393  0.5555
  413MOL0     C55687   7.962   9.648   2.479  0.4872 -0.2698 -0.6873
  413MOL0     H55688   8.001   9.944   2.057 -0.4578 -0.3641 -3.2621
  413MOL0     H55689   7.867  10.073   1.912 -0.4655  2.8128  2.0119
  413MOL0     H55690   7.703  10.092   1.700 -0.8179  1.6188  2.0190
  413MOL0     H55691   7.748   9.920   1.735 -0.7561  0.3268  1.1484
  413MOL0     H55692   7.517   9.856   1.701  0.7442  0.8022  1.6090
  413MOL0     H55693   7.461  10.018   1.664 -1.6342 -0.9096 -1.9227
  413MOL0     H55694   7.636  10.011   1.480  0.9167  0.0948 -0.0413
  413MOL0     H55695   7.663   9.840   1.515 -3.4463 -1.6276  1.0274
  413MOL0     H55696   7.417   9.799   1.474 -2.1708  1.4279  0.9639
  413MOL0     H55697   7.417   9.968   1.420  0.3345  0.0927 -0.4479
  413MOL0     H55698   7.562   9.921   1.232  0.3755 -0.0221 -1.8891
  413MOL0     H55699   7.610   9.765   1.315 -2.0734 -1.2157  1.7150
  413MOL0     H55700   7.393   9.674   1.271  4.3693 -0.6247 -0.1396
  413MOL0     H55701   7.335   9.833   1.217  0.1478 -0.2543  0.2986
  413MOL0     H55702   7.503   9.799   1.032 -0.3518  0.8017  1.3808
  413MOL0     H55703   7.503   9.625   1.079 -3.2323 -2.1536 -2.2447
  413MOL0     H55704   7.256   9.782   1.007  0.7467  0.1815 -2.1383
  413MOL0     H55705   7.270   9.608   1.038 -3.1725  0.6275  0.0268
  413MOL0     H55706   7.307   9.862   0.759 -1.7715 -0.0550  0.9273
  413MOL0     H55707   7.493   9.674   0.465 -1.3011  0.9427 -3.3722
  413MOL0     H55708   7.324   9.686   0.453  0.9594  0.3614 -1.5115
  413MOL0     H55709   7.365   9.937   0.535 -0.5920  0.3189 -0.7541
  413MOL0     H55710   7.405   9.898   0.369  0.0892  2.1872  0.3950
  413MOL0     H55711   7.608  10.005   0.456  2.9917 -0.2750  0.6737
  413MOL0     H55712   7.635   9.837   0.422 -0.5991  1.3216 -2.5339
  413MOL0     H55713   7.733   9.934   0.634 -0.7391  4.4388  1.0512
  413MOL0     H55714   7.632   9.799   0.682  0.9014  0.3084  0.0714
  413MOL0     H55715   7.715   9.829   0.888 -3.2904 -0.6181  0.0575
  413MOL0     H55716   7.960   9.911   1.115  1.2124 -1.5340  0.9250
  413MOL0     H55717   7.837   9.853   1.237  2.2824  4.6650  1.3544
  413MOL0     H55718   7.868   9.770   1.078  1.0489  0.2539  0.6483
  413MOL0     H55719   7.927  10.350   1.390 -1.4028  2.1072  1.2450
  413MOL0     H55720   8.010  10.401   1.612 -1.9181  0.7782 -1.5820
  413MOL0     H55721   8.246  10.134   1.760 -1.6410 -1.2320 -0.4490
  413MOL0     H55722   8.275  10.309   1.798 -0.4812  0.8183  3.0728
  413MOL0     H55723   8.204  10.109   1.990 -0.5641  0.3762 -0.0594
  413MOL0     H55724   8.347  10.217   1.992 -0.3525  1.6670  2.6385
  413MOL0     H55725   8.160  10.277   2.161 -0.6834 -1.6766 -0.0149
  413MOL0     H55726   8.065  10.324   2.031 -0.4750 -4.2814 -1.5174
  413MOL0     H55727   8.359  10.432   2.056  0.3681  1.3611  2.6630
  413MOL0     H55728   8.218  10.498   1.962 -1.7794  0.8574  0.3925
  413MOL0     H55729   8.268  10.480   2.264 -0.2153  2.4228  1.7268
  413MOL0     H55730   8.124  10.536   2.203 -1.6737 -1.6664 -3.5865
  413MOL0     H55731   8.396  10.641   2.106  1.6961 -1.6071  1.5766
  413MOL0     H55732   8.257  10.747   2.148  0.8240  0.7325  1.9690
  413MOL0     H55733   8.445  10.776   2.317  1.5404 -1.9166  0.8838
  413MOL0     H55734   8.437  10.613   2.331  0.0796  0.4393 -1.2262
  413MOL0     H55735   8.176  10.650   2.403  0.5197 -1.2314  1.3515
  413MOL0     H55736   8.220  10.819   2.409 -0.9918 -1.2349 -0.5577
  413MOL0     H55737   8.070   9.988   1.701  1.9311 -0.1577  1.2583
  413MOL0     H55738   7.976   9.929   1.484 -0.8877 -0.3172  1.8756
  413MOL0     H55739   7.594  10.255   1.080  0.6175  0.6070 -1.5180
  413MOL0     H55740   7.511  10.191   0.874 -0.7499  0.5195  1.7217
  413MOL0     H55741   7.517   9.876   2.037  0.1984  0.2359  0.2073
  413MOL0     H55742   7.649   9.756   2.225  0.6098  0.5859 -0.0929
  413MOL0     H55743   8.233   9.852   2.429  0.8229 -3.0164 -3.2797
  413MOL0     H55744   8.325   9.704   2.612  0.1232  1.6028 -1.9002
  413MOL0     H55745   8.083   9.427   2.901  0.6631 -2.5281  0.7697
  413MOL0     H55746   8.051   9.363   2.733  4.1321 -1.5897 -1.8796
  413MOL0     H55747   8.195   9.209   2.886 -1.0572  1.5750  3.2580
  413MOL0     H55748   8.300   9.343   2.915  1.3008  1.9030 -2.7739
  413MOL0     H55749   8.399   9.351   2.717  2.6810 -2.3190  1.1506
  413MOL0     H55750   8.275   9.245   2.644 -1.0347 -0.8015  1.0297
  413MOL0     H55751   8.358   9.059   2.805  1.1913 -0.8051 -1.6888
  413MOL0     H55752   8.479   9.160   2.859  2.0518 -0.7717 -0.5689
  413MOL0     H55753   8.648   9.051   2.490  1.2413  3.1182 -0.5825
  413MOL0     H55754   7.938   9.509   2.633 -0.2376  0.5954 -0.5223
  413MOL0     H55755   7.856   9.640   2.457  0.7258 -3.8461 -1.0700
  414MOL0     O55756  11.182   0.319   4.259 -0.2554  0.4325  0.6489
  414MOL0     C55757  11.295   0.337   4.214  0.3861 -0.4010 -0.5530
  414MOL0     O55758  11.324   0.445   4.127 -0.3928 -0.4556 -0.0539
  414MOL0     C55759  11.222   0.494   4.049  0.4406  0.3742 -0.3238
  414MOL0     C55760  11.138   0.410   3.972 -0.0852 -0.0255  0.1878
  414MOL0     C55761  11.050   0.469   3.887 -0.2920  0.6304  0.0409
  414MOL0     C55762  11.029   0.603   3.879 -0.5433  0.6756  0.4298
  414MOL0     O55763  10.921   0.644   3.802  0.2036  0.2836  0.9758
  414MOL0     C55764  10.924   0.779   3.760 -0.2162 -0.0459  0.0133
  414MOL0     C55765  10.811   0.802   3.652  0.0092  0.0106 -0.4053
  414MOL0     C55766  10.818   0.952   3.600  0.6201 -0.6778  0.2099
  414MOL0     C55767  10.702   0.978   3.515  0.3112  0.2992  0.3474
  414MOL0     C55768  10.701   1.123   3.473  0.5429 -0.0163 -0.3697
  414MOL0     C55769  10.591   1.135   3.375 -0.5103 -0.1031  0.9427
  414MOL0     C55770  10.464   1.199   3.428  0.0746 -0.4867 -0.7607
  414MOL0     C55771  10.371   1.219   3.312  0.4677  1.0671  0.7801
  414MOL0     N55772  10.300   1.096   3.293  0.4434  0.2655 -0.1679
  414MOL0     C55773  10.335   0.999   3.199 -0.3730 -0.2491  0.7635
  414MOL0     C55774  10.237   0.911   3.204 -0.1446  0.8841  0.9892
  414MOL0     C55775  10.221   0.793   3.109 -0.8437  0.1388 -0.7832
  414MOL0     C55776  10.258   0.665   3.177  0.4090  0.9621 -0.2761
  414MOL0     C55777  10.161   0.624   3.291  0.1064 -0.6011  0.2922
  414MOL0     C55778  10.230   0.515   3.364  0.7080  0.1132 -0.6834
  414MOL0     O55779  10.205   0.390   3.294 -0.2587 -0.1880  0.2150
  414MOL0     C55780  10.300   0.292   3.308  0.6479 -0.1397  1.0283
  414MOL0     C55781  10.285   0.177   3.221  0.6991 -0.0571  0.0145
  414MOL0     C55782  10.374   0.068   3.215 -0.2347 -0.3211 -0.6067
  414MOL0     C55783  10.338  -0.055   3.135 -0.5161  0.0840 -0.5582
  414MOL0     C55784  10.487   0.072   3.297 -0.0028 -0.2414  0.1171
  414MOL0     C55785  10.590  -0.033   3.295  0.4431 -0.2441  0.4449
  414MOL0     O55786  10.615  -0.090   3.179 -0.5477  0.5731  0.1984
  414MOL0     C55787  10.681  -0.212   3.186 -0.6926  0.3704 -0.7637
  414MOL0     C55788  10.661  -0.307   3.285 -0.2031  0.2122  1.5293
  414MOL0     C55789  10.756  -0.409   3.299  0.1185  0.5665 -0.3432
  414MOL0     C55790  10.865  -0.428   3.210 -0.4753 -0.3791  0.1270
  414MOL0     O55791  10.947  -0.537   3.211  0.5453  0.7686  0.4793
  414MOL0     C55792  11.040  -0.521   3.315  0.1930  0.1305 -0.1792
  414MOL0     C55793  11.184  -0.572   3.264 -0.4675 -0.0058 -0.6894
  414MOL0     C55794  11.292  -0.548   3.378  0.2078  0.3809 -0.2794
  414MOL0     C55795  11.432  -0.605   3.338  0.4572 -0.2771 -0.5152
  414MOL0     C55796  11.539  -0.601   3.449  0.2299  0.5832  0.1508
  414MOL0     C55797  11.616  -0.473   3.462  0.0533 -0.5912  0.4254
  414MOL0     C55798  11.695  -0.468   3.592 -0.5451 -0.6714 -0.4637
  414MOL0     C55799  11.803  -0.573   3.610  0.1119 -0.2943  0.2728
  414MOL0    Cl55800  11.901  -0.529   3.753 -0.6160  0.1831  0.3464
  414MOL0     C55801  10.877  -0.332   3.108 -0.4611 -0.1656 -0.3461
  414MOL0     C55802  10.787  -0.224   3.088  0.2969  0.0117 -0.7961
  414MOL0     O55803  10.666  -0.041   3.395  0.4625 -0.0346 -0.2015
  414MOL0     C55804  10.496   0.180   3.395  0.3001  0.5219 -0.1968
  414MOL0     C55805  10.403   0.282   3.403  0.0766  0.4099 -0.4113
  414MOL0     N55806  10.143   0.957   3.290 -0.2570 -0.2770  0.0016
  414MOL0     N55807  10.183   1.058   3.354 -0.4632  0.7702  0.2986
  414MOL0     C55808  11.121   0.684   3.948 -0.2287 -0.2047  0.2461
  414MOL0     C55809  11.221   0.631   4.031 -0.1400  0.4321  0.9648
  414MOL0     C55810  11.412   0.263   4.260  0.4866  0.2008  0.6387
  414MOL0     C55811  11.386   0.137   4.311  0.6607 -0.3623  0.0537
  414MOL0     C55812  11.487   0.055   4.341  0.2255  0.2382 -0.1958
  414MOL0     C55813  11.625   0.089   4.322  0.6490  0.8738 -0.6134
  414MOL0     O55814  11.716  -0.008   4.363 -0.8582 -0.1687  0.1173
  414MOL0     C55815  11.849   0.036   4.371 -0.2523 -0.0083  0.3233
  414MOL0     C55816  11.925  -0.060   4.450  0.2341  0.2508  0.6471
  414MOL0     C55817  11.932  -0.202   4.381 -0.3386 -0.2187 -0.7002
  414MOL0     C55818  12.021  -0.302   4.456 -0.7755  0.1863  0.4677
  414MOL0     C55819  12.167  -0.277   4.457 -0.2807 -0.5490  0.5195
  414MOL0     C55820  12.286  -0.231   4.469  0.5218 -0.2227  0.6590
  414MOL0     C55821  11.653   0.208   4.255  0.7167 -0.0344  0.1807
  414MOL0     C55822  11.548   0.299   4.220 -0.3335  0.0413 -0.1727
  414MOL0     H55823  11.144   0.302   3.959 -1.9412  0.0851 -2.1735
  414MOL0     H55824  10.981   0.401   3.839  0.5424 -1.5550  1.7695
  414MOL0     H55825  10.905   0.847   3.843  0.3675  0.0688  0.0553
  414MOL0     H55826  11.022   0.794   3.713  0.5295 -2.1479  0.7906
  414MOL0     H55827  10.815   0.733   3.567 -2.4699  1.4088 -1.7743
  414MOL0     H55828  10.711   0.781   3.689 -1.0652 -1.2366 -3.6882
  414MOL0     H55829  10.825   1.019   3.686 -0.7194 -2.0161  1.4313
  414MOL0     H55830  10.909   0.978   3.545 -0.0137  3.2740  0.7641
  414MOL0     H55831  10.726   0.918   3.427  0.2297  0.4807  0.2001
  414MOL0     H55832  10.611   0.946   3.566  0.9686 -4.3578 -0.9505
  414MOL0     H55833  10.692   1.195   3.556 -2.3697  0.3876 -0.9518
  414MOL0     H55834  10.796   1.156   3.429  2.1182 -0.5898  2.3249
  414MOL0     H55835  10.632   1.209   3.306  3.3434  1.0069  4.0261
  414MOL0     H55836  10.575   1.041   3.320 -2.3975  0.6539  0.1320
  414MOL0     H55837  10.413   1.142   3.506 -1.2423  0.0393 -1.2019
  414MOL0     H55838  10.503   1.290   3.474  0.9403 -2.0340  1.7781
  414MOL0     H55839  10.426   1.250   3.222  0.7269 -0.8610  0.2363
  414MOL0     H55840  10.302   1.300   3.337  1.4287  3.5782 -3.5204
  414MOL0     H55841  10.421   0.995   3.134 -1.7947 -1.5211 -1.1603
  414MOL0     H55842  10.126   0.798   3.055 -1.0187  0.8335 -0.4118
  414MOL0     H55843  10.299   0.801   3.032 -0.9554 -0.9292 -1.0232
  414MOL0     H55844  10.361   0.683   3.209 -0.6125  2.0767  2.7764
  414MOL0     H55845  10.261   0.585   3.103  1.8760  0.3224  0.4314
  414MOL0     H55846  10.068   0.584   3.248  1.0155  1.1580 -3.6998
  414MOL0     H55847  10.141   0.711   3.356  1.0291  2.0430 -2.7327
  414MOL0     H55848  10.179   0.502   3.460  0.2551 -0.6414 -1.0142
  414MOL0     H55849  10.337   0.525   3.382  0.6060 -1.0508  0.7309
  414MOL0     H55850  10.210   0.173   3.144 -0.0686  0.0896  0.7441
  414MOL0     H55851  10.393  -0.043   3.041  1.7406 -0.3409  0.6380
  414MOL0     H55852  10.374  -0.145   3.186  2.9430  2.2916  1.3577
  414MOL0     H55853  10.230  -0.059   3.124 -0.6064  0.1536  0.2536
  414MOL0     H55854  10.583  -0.309   3.360 -1.4380 -3.5402  0.3960
  414MOL0     H55855  10.750  -0.462   3.394  1.8221  5.6781  3.0230
  414MOL0     H55856  11.056  -0.415   3.337  2.9012 -0.5127  1.4309
  414MOL0     H55857  11.000  -0.577   3.400  1.2341  2.7789  2.2014
  414MOL0     H55858  11.166  -0.680   3.259  0.2941 -0.2569  1.2631
  414MOL0     H55859  11.217  -0.534   3.167  0.2963  1.7987  0.2278
  414MOL0     H55860  11.267  -0.599   3.472 -0.3180  0.8247 -0.1746
  414MOL0     H55861  11.304  -0.446   3.414 -1.1629  0.2047  0.8004
  414MOL0     H55862  11.410  -0.711   3.317 -1.6312 -0.0448  0.2340
  414MOL0     H55863  11.479  -0.561   3.250  1.1113 -0.9808 -0.5313
  414MOL0     H55864  11.606  -0.687   3.436 -1.3876 -0.5161 -1.4154
  414MOL0     H55865  11.492  -0.623   3.546 -0.4888  0.0524 -0.3122
  414MOL0     H55866  11.674  -0.470   3.369 -0.7737 -2.2251 -0.1954
  414MOL0     H55867  11.538  -0.396   3.463 -0.9071 -1.4908 -0.8235
  414MOL0     H55868  11.624  -0.466   3.676 -0.6277 -1.5260 -0.5094
  414MOL0     H55869  11.743  -0.370   3.601  1.2701 -1.6268  0.7596
  414MOL0     H55870  11.862  -0.568   3.518  0.5117  1.2984  0.5794
  414MOL0     H55871  11.758  -0.672   3.623 -2.6487  1.0998  2.4463
  414MOL0     H55872  10.960  -0.333   3.038  0.3048  1.5867  0.4577
  414MOL0     H55873  10.811  -0.141   3.023  0.6466  0.3722 -0.2138
  414MOL0     H55874  10.562   0.178   3.481 -0.4905  1.0617  0.4375
  414MOL0     H55875  10.422   0.354   3.482  3.5806  0.8466 -1.5003
  414MOL0     H55876  11.125   0.792   3.936  1.6880 -0.5022 -3.1039
  414MOL0     H55877  11.287   0.700   4.082  2.4044 -1.4329  0.4027
  414MOL0     H55878  11.281   0.112   4.328 -0.1163  1.9201 -1.0452
  414MOL0     H55879  11.457  -0.045   4.370 -1.0773  0.8086  0.5071
  414MOL0     H55880  11.897   0.050   4.274 -1.8698 -0.8946 -0.6482
  414MOL0     H55881  11.856   0.136   4.415 -0.6997  0.1715 -0.0091
  414MOL0     H55882  11.871  -0.063   4.545 -0.9710  0.9025  0.0014
  414MOL0     H55883  12.026  -0.022   4.461 -0.1359  1.0055  1.4797
  414MOL0     H55884  11.960  -0.205   4.275  3.7267 -0.6428  0.2339
  414MOL0     H55885  11.830  -0.241   4.392 -0.6786  0.0668 -2.6032
  414MOL0     H55886  12.013  -0.403   4.415  1.5230 -0.5402  1.5952
  414MOL0     H55887  11.994  -0.308   4.561 -1.5302 -0.4336  0.2437
  414MOL0     H55888  12.381  -0.184   4.483  0.6422 -1.0808  3.0766
  414MOL0     H55889  11.753   0.233   4.221  0.9046 -1.1353 -0.1127
  414MOL0     H55890  11.574   0.386   4.161  2.9606  0.1514  1.2427
  415MOL0     O55891   2.003  10.128   8.318 -0.1828  0.4545  0.1787
  415MOL0     C55892   2.027  10.241   8.362 -0.2412 -0.1201  0.3057
  415MOL0     O55893   2.155  10.296   8.387  0.2622  0.0961 -0.1155
  415MOL0     C55894   2.261  10.211   8.384  0.3023  0.3894  0.2508
  415MOL0     C55895   2.362  10.223   8.288 -0.5295 -1.0793  0.7524
  415MOL0     C55896   2.463  10.123   8.281 -0.3671 -0.5685 -0.2346
  415MOL0     C55897   2.468  10.013   8.373 -0.0553  0.0657 -0.0384
  415MOL0     O55898   2.556   9.913   8.372 -0.0943 -0.2983 -0.3963
  415MOL0     C55899   2.645   9.898   8.254 -0.2018 -1.2640 -0.1216
  415MOL0     C55900   2.696   9.761   8.233 -0.2801 -0.4471 -0.4831
  415MOL0     C55901   2.817   9.766   8.144  0.6706  0.9707  0.5606
  415MOL0     C55902   2.855   9.625   8.129  0.5808  0.5418  0.0093
  415MOL0     C55903   2.938   9.569   8.249  0.2516  0.4703  0.0586
  415MOL0     C55904   3.010   9.439   8.213 -0.2244  0.2017  0.8412
  415MOL0     C55905   3.106   9.403   8.318 -0.7914  0.1405  0.0021
  415MOL0     C55906   3.160   9.264   8.329  0.1745 -0.1421 -1.3113
  415MOL0     N55907   3.264   9.265   8.426  0.1323 -0.0299 -0.9080
  415MOL0     C55908   3.398   9.272   8.394 -0.3348  0.0145 -0.6642
  415MOL0     C55909   3.468   9.260   8.514  0.8235  0.2740 -1.1159
  415MOL0     C55910   3.616   9.278   8.539  0.6188 -0.0031  0.0073
  415MOL0     C55911   3.668   9.425   8.507 -0.1793 -0.2854 -0.9500
  415MOL0     C55912   3.802   9.456   8.568 -0.4662  0.6314  0.1114
  415MOL0     C55913   3.913   9.361   8.524 -0.4704 -0.3272 -0.0625
  415MOL0     O55914   4.030   9.407   8.589 -0.3499  1.1618  0.0755
  415MOL0     C55915   4.140   9.321   8.593  0.1055 -0.4212  0.2993
  415MOL0     C55916   4.252   9.370   8.660 -0.4307  0.1731 -0.3183
  415MOL0     C55917   4.374   9.304   8.657 -0.1348  0.6645  0.1877
  415MOL0     C55918   4.492   9.357   8.726 -0.1576 -0.3547  0.2978
  415MOL0     C55919   4.378   9.177   8.591  0.0432  0.7884  0.0842
  415MOL0     C55920   4.500   9.093   8.593 -0.5421  0.2844 -0.6623
  415MOL0     O55921   4.572   9.063   8.711 -0.0608 -0.2206  0.0528
  415MOL0     C55922   4.697   9.002   8.696 -0.0834  0.3847 -1.2332
  415MOL0     C55923   4.717   8.886   8.772 -0.5384  0.9048 -0.2663
  415MOL0     C55924   4.832   8.813   8.769 -0.6236  0.5117  0.5969
  415MOL0     C55925   4.933   8.841   8.677  0.1433  0.5983  0.8501
  415MOL0     O55926   5.042   8.750   8.671  0.6759  0.0448 -0.8817
  415MOL0     C55927   5.148   8.771   8.581  0.2103  0.1265  0.6670
  415MOL0     C55928   5.245   8.658   8.564 -0.1152  0.3786 -0.5662
  415MOL0     C55929   5.381   8.692   8.624 -0.1206 -0.1928 -0.6160
  415MOL0     C55930   5.491   8.597   8.579 -0.5952  0.3300  0.1092
  415MOL0     C55931   5.607   8.603   8.685 -0.1391  0.4357 -0.2980
  415MOL0     C55932   5.712   8.498   8.662 -0.2551  0.4104 -0.4391
  415MOL0     C55933   5.797   8.519   8.534 -0.1409  1.0455 -0.1202
  415MOL0     C55934   5.863   8.394   8.470  0.2404 -0.2621 -0.0702
  415MOL0    Cl55935   5.754   8.263   8.425  0.0603  0.3539  0.3291
  415MOL0     C55936   4.913   8.959   8.604 -0.0576  0.3807  0.2905
  415MOL0     C55937   4.799   9.041   8.615  0.8470  0.2552  0.2181
  415MOL0     O55938   4.544   9.079   8.476 -0.1668  0.4965 -0.3293
  415MOL0     C55939   4.263   9.120   8.526 -0.2270  0.4910 -0.3507
  415MOL0     C55940   4.150   9.196   8.520  0.6881  0.1720  0.4403
  415MOL0     N55941   3.370   9.257   8.613 -0.2344  1.1271  0.1771
  415MOL0     N55942   3.254   9.245   8.565  0.6097  0.6814  0.7311
  415MOL0     C55943   2.367  10.012   8.470  0.6755 -0.7700 -0.0630
  415MOL0     C55944   2.262  10.099   8.469  0.3686  0.1824  0.1892
  415MOL0     C55945   1.909  10.326   8.385  0.4022 -0.1866 -0.1429
  415MOL0     C55946   1.924  10.444   8.464 -0.7737  0.4130 -0.3117
  415MOL0     C55947   1.818  10.531   8.494 -0.7784  0.4927 -0.2649
  415MOL0     C55948   1.696  10.500   8.440  0.7649  0.5631  0.7765
  415MOL0     O55949   1.597  10.591   8.450 -0.2928  0.2532 -0.3795
  415MOL0     C55950   1.589  10.689   8.350  1.0262  0.5515 -0.2126
  415MOL0     C55951   1.459  10.771   8.393  0.4459  0.0111 -0.7326
  415MOL0     C55952   1.399  10.837   8.276  0.2704 -0.2306  0.4950
  415MOL0     C55953   1.280  10.923   8.323 -0.4535 -0.0611 -0.6548
  415MOL0     C55954   1.328  11.048   8.378 -0.1780 -1.0387 -0.6529
  415MOL0     C55955   1.379  11.152   8.415 -0.6741  0.6250  0.0168
  415MOL0     C55956   1.678  10.386   8.364 -0.3264 -0.8063 -0.0320
  415MOL0     C55957   1.779  10.294   8.338  0.2398 -0.1627  0.4737
  415MOL0     H55958   2.348  10.302   8.215 -2.6910  0.4828  2.7243
  415MOL0     H55959   2.528  10.131   8.194 -0.5507 -2.5990 -0.6010
  415MOL0     H55960   2.594   9.928   8.162 -1.6141  2.7364  1.7646
  415MOL0     H55961   2.729   9.966   8.270 -3.0937  2.1197  2.1185
  415MOL0     H55962   2.727   9.724   8.331  1.1325 -1.0398 -1.1341
  415MOL0     H55963   2.611   9.704   8.193 -1.5245  1.0301  0.0007
  415MOL0     H55964   2.768   9.800   8.052 -1.7861 -1.4641  0.8204
  415MOL0     H55965   2.901   9.832   8.168  0.2636  1.4575  0.6590
  415MOL0     H55966   2.765   9.565   8.111  1.6970 -1.1638 -0.2273
  415MOL0     H55967   2.907   9.600   8.035 -1.0658 -1.6823 -0.4207
  415MOL0     H55968   3.019   9.637   8.276  2.9272 -2.4514 -0.0104
  415MOL0     H55969   2.884   9.562   8.344 -0.0635  0.1682 -0.1405
  415MOL0     H55970   2.937   9.359   8.195 -0.4610  0.3336  1.2018
  415MOL0     H55971   3.058   9.446   8.115 -2.0485  3.2677  0.0440
  415MOL0     H55972   3.194   9.468   8.308 -0.5880 -0.1478 -0.1076
  415MOL0     H55973   3.056   9.423   8.413 -1.9734 -1.7597 -0.1627
  415MOL0     H55974   3.207   9.238   8.234  1.5029 -0.2986 -0.6296
  415MOL0     H55975   3.085   9.188   8.355  0.3168  0.1956  0.1280
  415MOL0     H55976   3.449   9.276   8.298 -0.2448 -0.9854 -0.6680
  415MOL0     H55977   3.642   9.251   8.641 -0.8890  1.7108  0.9008
  415MOL0     H55978   3.667   9.206   8.475 -0.5131 -2.1339  1.3899
  415MOL0     H55979   3.595   9.496   8.545  0.5634 -1.1337  2.4309
  415MOL0     H55980   3.683   9.448   8.401  2.0433  4.9974  0.2308
  415MOL0     H55981   3.795   9.456   8.677 -2.6753  0.8998  0.0217
  415MOL0     H55982   3.818   9.560   8.536 -1.9630  0.7758 -0.2469
  415MOL0     H55983   3.926   9.345   8.416 -2.8592  1.7592 -0.7482
  415MOL0     H55984   3.902   9.261   8.567 -2.3865 -0.3707 -0.5424
  415MOL0     H55985   4.249   9.462   8.716  0.3826  0.4153 -0.6553
  415MOL0     H55986   4.484   9.466   8.722  0.6613 -0.0573  3.7279
  415MOL0     H55987   4.491   9.329   8.832 -0.8077  2.7533  1.2033
  415MOL0     H55988   4.584   9.327   8.674 -0.8678 -0.6495 -0.8278
  415MOL0     H55989   4.635   8.856   8.837  1.1212 -3.4965  0.1384
  415MOL0     H55990   4.844   8.720   8.824 -0.3478 -0.4924 -1.0830
  415MOL0     H55991   5.102   8.785   8.483  3.1229  0.4447 -0.7553
  415MOL0     H55992   5.200   8.865   8.605  0.2387 -0.1456  1.7352
  415MOL0     H55993   5.204   8.570   8.614 -1.8004  2.0820  1.2629
  415MOL0     H55994   5.255   8.647   8.456  0.5383  1.5176 -0.6335
  415MOL0     H55995   5.371   8.679   8.732  1.9884 -3.2670 -0.6859
  415MOL0     H55996   5.415   8.793   8.601  0.6632  0.5969  3.2866
  415MOL0     H55997   5.456   8.494   8.574 -3.1277  1.0954  0.7539
  415MOL0     H55998   5.530   8.636   8.484  0.0245  1.1924  0.6982
  415MOL0     H55999   5.570   8.577   8.785 -0.5862  1.5305 -0.1644
  415MOL0     H56000   5.657   8.701   8.684 -1.2569  1.0665 -2.9733
  415MOL0     H56001   5.785   8.511   8.742  1.4284 -0.2317 -1.8062
  415MOL0     H56002   5.662   8.404   8.685  0.6399 -0.0476 -0.3210
  415MOL0     H56003   5.871   8.589   8.575  2.0768 -2.1318  1.7144
  415MOL0     H56004   5.752   8.572   8.450  2.1413 -0.4318 -2.4520
  415MOL0     H56005   5.924   8.352   8.551 -0.3645 -0.7731  0.1187
  415MOL0     H56006   5.921   8.433   8.385  0.4563  0.8972  0.5810
  415MOL0     H56007   4.989   8.996   8.536 -2.6716  2.3864 -1.7724
  415MOL0     H56008   4.790   9.124   8.546 -0.5329 -1.1794 -1.4243
  415MOL0     H56009   4.275   9.022   8.482  3.4111  0.4215  0.4533
  415MOL0     H56010   4.069   9.160   8.457 -0.4929 -0.6394  2.3268
  415MOL0     H56011   2.365   9.933   8.545  0.7197 -0.6100  0.1080
  415MOL0     H56012   2.187  10.088   8.546 -2.9393 -0.8537 -2.9008
  415MOL0     H56013   2.020  10.452   8.513 -1.2082 -2.3789  1.1291
  415MOL0     H56014   1.838  10.620   8.552  1.1840  1.1392 -1.8467
  415MOL0     H56015   1.673  10.757   8.334  0.7692  0.3288 -2.9724
  415MOL0     H56016   1.568  10.638   8.255  1.3466 -1.2381  0.6575
  415MOL0     H56017   1.505  10.838   8.466  1.6388 -0.9395 -0.5765
  415MOL0     H56018   1.378  10.712   8.436 -1.6314  2.8559 -0.4821
  415MOL0     H56019   1.353  10.762   8.211 -2.0232  0.5578  1.1097
  415MOL0     H56020   1.474  10.903   8.230 -2.1940  1.8833 -0.7531
  415MOL0     H56021   1.223  10.877   8.404  2.2926  1.5987  2.4576
  415MOL0     H56022   1.218  10.953   8.238  0.3984 -0.8701 -1.5714
  415MOL0     H56023   1.428  11.239   8.453  0.0647 -0.3027  1.2526
  415MOL0     H56024   1.586  10.357   8.314  0.5637 -2.8925 -0.5749
  415MOL0     H56025   1.755  10.203   8.284 -3.2438  1.4375 -0.9698
  416MOL0     O56026  10.766   0.853   3.166  0.1384 -0.4528  0.0278
  416MOL0     C56027  10.825   0.761   3.117 -0.3680 -0.0000  0.8259
  416MOL0     O56028  10.793   0.702   2.989 -0.0963 -0.1955 -0.4410
  416MOL0     C56029  10.703   0.765   2.915 -0.6384  0.8316  1.9001
  416MOL0     C56030  10.583   0.696   2.881  0.1903 -0.5340 -0.6510
  416MOL0     C56031  10.486   0.753   2.801 -0.8075  0.1322  0.1525
  416MOL0     C56032  10.511   0.883   2.741  0.3176 -0.6934 -0.1999
  416MOL0     O56033  10.427   0.952   2.654 -0.0615 -0.3243 -0.1172
  416MOL0     C56034  10.294   0.909   2.660 -0.3567  0.5545  0.9203
  416MOL0     C56035  10.209   1.017   2.598 -0.5029 -0.2726 -0.4265
  416MOL0     C56036  10.057   0.981   2.611 -0.7271 -0.3168 -0.0129
  416MOL0     C56037   9.958   1.050   2.512 -0.5936 -0.2962 -0.3201
  416MOL0     C56038   9.809   1.022   2.547 -0.1218 -0.0821 -0.8218
  416MOL0     C56039   9.718   1.044   2.426 -0.1533  0.2512  0.2415
  416MOL0     C56040   9.754   0.933   2.323 -0.3746 -0.1844  0.0382
  416MOL0     C56041   9.658   0.944   2.205 -0.7084  0.5066 -0.6230
  416MOL0     N56042   9.514   0.920   2.239  0.6237 -0.4163  0.2309
  416MOL0     C56043   9.421   1.019   2.284 -0.9389 -0.6596  0.2147
  416MOL0     C56044   9.301   0.957   2.307 -0.6799  0.3246  0.5759
  416MOL0     C56045   9.175   1.019   2.356 -0.4155 -0.1552  0.2532
  416MOL0     C56046   9.108   1.120   2.264 -0.5004 -0.0539 -0.1491
  416MOL0     C56047   9.052   1.060   2.138  0.3012 -0.7751  0.2455
  416MOL0     C56048   8.930   1.147   2.089  0.3694 -0.6087 -0.1914
  416MOL0     O56049   8.985   1.276   2.053  0.1555  0.0241 -0.4225
  416MOL0     C56050   8.900   1.380   2.029  0.5814 -0.0537 -0.1263
  416MOL0     C56051   8.968   1.505   2.018 -0.5653  0.3301 -0.6938
  416MOL0     C56052   8.904   1.622   1.996  0.6342  0.1930 -0.2122
  416MOL0     C56053   8.983   1.743   2.004 -1.0552  0.2364 -0.8394
  416MOL0     C56054   8.760   1.617   1.973  0.0165  0.1466  0.7028
  416MOL0     C56055   8.667   1.741   1.970 -0.8712 -0.3275 -0.0815
  416MOL0     O56056   8.723   1.862   1.956 -0.4728 -0.7953  0.1073
  416MOL0     C56057   8.646   1.974   1.954 -0.0339 -1.0612  0.3899
  416MOL0     C56058   8.601   2.026   2.077 -0.4383 -0.0430 -0.3095
  416MOL0     C56059   8.522   2.152   2.084 -0.8934  0.0852  1.1480
  416MOL0     C56060   8.506   2.227   1.968 -0.3217 -0.2818 -0.4701
  416MOL0     O56061   8.428   2.343   1.970 -0.3981  0.9717  0.0200
  416MOL0     C56062   8.397   2.402   2.096  0.5532  0.7713  0.6725
  416MOL0     C56063   8.322   2.528   2.074 -0.7153 -0.9209 -0.1489
  416MOL0     C56064   8.389   2.648   2.032 -1.1319 -0.4028  0.0753
  416MOL0     C56065   8.313   2.784   2.037  1.0848  0.0543  0.3166
  416MOL0     C56066   8.236   2.819   1.907 -0.1190  0.4018  0.9884
  416MOL0     C56067   8.331   2.862   1.793  0.1045  1.2090  0.1989
  416MOL0     C56068   8.269   2.878   1.648  0.0203  0.2463 -0.1082
  416MOL0     C56069   8.146   2.973   1.627 -0.0132  0.9736  0.5401
  416MOL0    Cl56070   8.196   3.130   1.611  0.5383  0.1159  0.0088
  416MOL0     C56071   8.553   2.176   1.849 -0.1501 -0.5817  0.7701
  416MOL0     C56072   8.624   2.047   1.835  0.2289 -0.7361 -0.1307
  416MOL0     O56073   8.547   1.725   1.979 -0.0166  0.2881  0.0072
  416MOL0     C56074   8.696   1.489   1.971  0.1563  0.1695  0.5783
  416MOL0     C56075   8.763   1.375   2.008  0.0421  0.2482 -0.9177
  416MOL0     N56076   9.319   0.826   2.263  1.3970  0.8591 -0.1941
  416MOL0     N56077   9.444   0.804   2.234  0.1643  0.4381  0.1205
  416MOL0     C56078  10.636   0.952   2.763 -1.1139  0.5696  0.3552
  416MOL0     C56079  10.733   0.889   2.848 -0.1749  0.9321 -0.5417
  416MOL0     C56080  10.943   0.711   3.198  0.5793 -0.0889  0.5963
  416MOL0     C56081  11.017   0.597   3.164  0.3740  0.3915  0.4071
  416MOL0     C56082  11.104   0.542   3.259 -0.5769 -0.1285 -0.4133
  416MOL0     C56083  11.140   0.608   3.375  0.2751  0.7318 -0.4248
  416MOL0     O56084  11.240   0.571   3.458 -1.3502 -0.2191 -0.2520
  416MOL0     C56085  11.197   0.526   3.590 -0.0148  0.2097  0.3835
  416MOL0     C56086  11.256   0.406   3.639 -1.0285  1.8258  0.8993
  416MOL0     C56087  11.401   0.422   3.676 -0.6786  0.3871 -0.2805
  416MOL0     C56088  11.477   0.296   3.721 -0.0936  0.1291  0.4626
  416MOL0     C56089  11.603   0.332   3.781 -0.4264  0.4840  0.5263
  416MOL0     C56090  11.713   0.344   3.836 -0.4854 -0.0298  0.3119
  416MOL0     C56091  11.090   0.739   3.391  0.1216  0.1785  0.1876
  416MOL0     C56092  10.995   0.791   3.300 -0.0587 -0.5426 -0.0118
  416MOL0     H56093  10.569   0.596   2.921  2.0830 -1.4358 -2.0651
  416MOL0     H56094  10.399   0.692   2.779  1.5832 -2.2526 -4.1486
  416MOL0     H56095  10.289   0.814   2.604 -0.4594  1.1125 -0.0485
  416MOL0     H56096  10.247   0.894   2.757 -1.8530  1.5295  0.3893
  416MOL0     H56097  10.229   1.110   2.652  2.5312 -2.2876  2.2667
  416MOL0     H56098  10.235   1.033   2.493  2.7013  2.9810  0.6445
  416MOL0     H56099  10.043   0.873   2.605  1.0669 -0.5861  0.0809
  416MOL0     H56100  10.024   1.011   2.711 -3.0870 -1.7427 -0.2847
  416MOL0     H56101   9.975   1.158   2.516  1.1335 -0.4963 -1.1475
  416MOL0     H56102   9.974   1.018   2.408 -2.0146 -1.6324 -0.1560
  416MOL0     H56103   9.813   0.916   2.573 -0.5675 -0.2842 -1.5637
  416MOL0     H56104   9.785   1.081   2.636  1.2088 -1.9230  0.8602
  416MOL0     H56105   9.617   1.043   2.468 -0.4539  0.6565 -0.4662
  416MOL0     H56106   9.742   1.144   2.390 -1.7178  0.0572 -1.5261
  416MOL0     H56107   9.853   0.955   2.281 -0.3117 -0.3388  0.1076
  416MOL0     H56108   9.743   0.834   2.369 -0.0527 -0.5101 -0.5740
  416MOL0     H56109   9.690   0.879   2.123 -2.5650 -1.3107  0.0178
  416MOL0     H56110   9.663   1.048   2.171  0.3165  2.4144  4.5635
  416MOL0     H56111   9.443   1.124   2.302  0.4763 -1.3502  3.0564
  416MOL0     H56112   9.113   0.933   2.384 -0.7834  0.5024  1.5425
  416MOL0     H56113   9.202   1.073   2.448  2.1048 -0.4125 -0.2521
  416MOL0     H56114   9.169   1.204   2.231  1.8698 -1.2580  0.9634
  416MOL0     H56115   9.031   1.154   2.335 -1.3320  0.5850 -1.3181
  416MOL0     H56116   9.013   0.961   2.162 -1.6769  0.1599  1.1349
  416MOL0     H56117   9.130   1.060   2.061  0.2669  1.3497  0.1384
  416MOL0     H56118   8.862   1.138   2.174  1.7032 -1.7509  0.8122
  416MOL0     H56119   8.874   1.097   2.010 -1.9248  1.0449  0.2985
  416MOL0     H56120   9.071   1.495   2.051 -1.5713  0.5975  2.9741
  416MOL0     H56121   9.088   1.714   1.996 -0.1096  2.2050  2.3611
  416MOL0     H56122   8.967   1.819   1.927  2.3004  0.5007 -1.3978
  416MOL0     H56123   8.973   1.786   2.104 -0.8811  1.5720 -1.3762
  416MOL0     H56124   8.630   1.966   2.162  0.8641 -1.3343 -1.6165
  416MOL0     H56125   8.480   2.181   2.180 -3.5732  1.1029 -0.2288
  416MOL0     H56126   8.348   2.331   2.162 -1.3203 -1.8656 -3.2025
  416MOL0     H56127   8.495   2.427   2.138  1.2592  1.5919 -1.3337
  416MOL0     H56128   8.247   2.512   1.996 -1.4525  0.6975  0.1959
  416MOL0     H56129   8.274   2.559   2.167  0.2002 -1.4431  0.5160
  416MOL0     H56130   8.419   2.628   1.929 -1.2977 -1.2455  0.1851
  416MOL0     H56131   8.481   2.660   2.090 -1.8635 -0.7235  1.3369
  416MOL0     H56132   8.238   2.774   2.116 -1.3788 -0.8843 -1.9800
  416MOL0     H56133   8.388   2.862   2.051  0.3178  0.4443  2.7408
  416MOL0     H56134   8.168   2.904   1.918 -0.9401  0.3840 -2.5775
  416MOL0     H56135   8.170   2.735   1.880  2.1845 -0.6380 -1.9932
  416MOL0     H56136   8.391   2.950   1.817  3.1870 -0.7903  0.3795
  416MOL0     H56137   8.412   2.790   1.778 -0.0702  0.4038  2.6981
  416MOL0     H56138   8.221   2.783   1.623 -0.5574  0.3600  0.5380
  416MOL0     H56139   8.348   2.889   1.574 -0.0291 -1.4972 -0.4655
  416MOL0     H56140   8.079   2.970   1.713  1.0140 -3.8124  1.4603
  416MOL0     H56141   8.089   2.951   1.537  0.8220  1.1605 -0.0540
  416MOL0     H56142   8.535   2.240   1.763  1.8033 -1.5030 -0.3811
  416MOL0     H56143   8.668   2.002   1.747  2.0564  1.2297 -0.2962
  416MOL0     H56144   8.591   1.470   1.954  0.6319  0.3723 -3.6402
  416MOL0     H56145   8.708   1.282   2.008  1.7809 -0.8362 -2.0628
  416MOL0     H56146  10.663   1.038   2.702  0.5160 -0.3362 -0.2761
  416MOL0     H56147  10.833   0.926   2.867  0.3823 -0.4840 -0.6117
  416MOL0     H56148  10.999   0.545   3.071  0.0757  2.5272 -0.7969
  416MOL0     H56149  11.155   0.448   3.242  2.3873  0.9288  1.7251
  416MOL0     H56150  11.207   0.615   3.653 -1.7609  0.2682  0.6496
  416MOL0     H56151  11.090   0.503   3.593  0.2913 -1.2168  2.8173
  416MOL0     H56152  11.243   0.326   3.565  0.2499  2.4385 -0.0376
  416MOL0     H56153  11.209   0.352   3.721 -0.4702  2.5150  1.6914
  416MOL0     H56154  11.396   0.482   3.767 -0.1392 -0.1543  0.1210
  416MOL0     H56155  11.451   0.476   3.594  1.9092  1.9996  2.1792
  416MOL0     H56156  11.494   0.233   3.634 -1.1364  0.4527  0.0087
  416MOL0     H56157  11.426   0.253   3.807 -1.5078  1.3963  0.3118
  416MOL0     H56158  11.812   0.333   3.877  0.6958 -0.3277 -2.4355
  416MOL0     H56159  11.129   0.803   3.470 -0.6948  0.0824  0.6756
  416MOL0     H56160  10.961   0.894   3.301  2.2752  0.3349 -2.3194
  417MOL0     O56161  10.881   0.675   2.634 -0.2706  0.1776 -0.2203
  417MOL0     C56162  10.858   0.561   2.672 -0.2577  1.1311 -0.2487
  417MOL0     O56163  10.757   0.479   2.624  0.1720  0.1653 -0.6209
  417MOL0     C56164  10.660   0.527   2.542  0.0234  0.6131 -0.1166
  417MOL0     C56165  10.591   0.436   2.466 -1.1038 -0.0287  0.1624
  417MOL0     C56166  10.476   0.474   2.401  0.6493 -0.2394  0.1599
  417MOL0     C56167  10.436   0.609   2.396  0.0178 -0.0386 -0.1910
  417MOL0     O56168  10.327   0.629   2.314  0.0945 -0.1850 -0.2394
  417MOL0     C56169  10.263   0.758   2.309  0.0001 -0.3817  0.4470
  417MOL0     C56170  10.184   0.764   2.178  0.7507  0.3856 -1.2677
  417MOL0     C56171  10.131   0.904   2.139 -0.0825 -0.3892 -0.4430
  417MOL0     C56172  10.061   0.895   2.008 -0.3999 -1.2901 -1.0704
  417MOL0     C56173  10.065   1.028   1.924  0.4827  0.9662  0.9492
  417MOL0     C56174   9.971   1.126   1.994 -0.5041  0.3185 -0.4505
  417MOL0     C56175   9.952   1.252   1.921 -0.0460  0.3438  0.6754
  417MOL0     C56176   9.872   1.356   1.989 -0.1356  0.8587 -0.1768
  417MOL0     N56177   9.736   1.317   2.017 -0.5547 -0.9168  0.1405
  417MOL0     C56178   9.641   1.275   1.926  0.2394  0.6400  0.4675
  417MOL0     C56179   9.527   1.256   2.001  0.3520  0.2753 -0.6482
  417MOL0     C56180   9.392   1.202   1.961  0.2977  0.2752 -0.3874
  417MOL0     C56181   9.320   1.261   1.832  0.2812 -0.2018  1.0249
  417MOL0     C56182   9.326   1.411   1.814  0.1834 -1.0204 -0.3168
  417MOL0     C56183   9.213   1.469   1.719  0.1991  0.7776 -0.0906
  417MOL0     O56184   9.187   1.611   1.722 -0.4140  0.1527  0.1160
  417MOL0     C56185   9.087   1.664   1.636  0.1430 -0.7939  0.0801
  417MOL0     C56186   9.004   1.592   1.542 -0.1906 -0.0551 -1.0688
  417MOL0     C56187   8.900   1.656   1.475  0.1724  0.0790 -0.8721
  417MOL0     C56188   8.805   1.569   1.397 -0.6968  0.7721  0.8853
  417MOL0     C56189   8.890   1.798   1.489  0.4178  0.5451 -1.0318
  417MOL0     C56190   8.779   1.875   1.428 -0.5355  0.2014  0.0422
  417MOL0     O56191   8.741   1.994   1.486 -0.3653  0.0875 -0.6710
  417MOL0     C56192   8.628   2.064   1.443  0.0359 -0.6268 -0.1917
  417MOL0     C56193   8.513   2.019   1.370 -0.0962  0.7679  0.2599
  417MOL0     C56194   8.412   2.117   1.338  0.8718  0.4602  0.9766
  417MOL0     C56195   8.405   2.247   1.387 -0.5146 -0.4532  0.5281
  417MOL0     O56196   8.303   2.337   1.373 -0.1052  0.4565 -0.6140
  417MOL0     C56197   8.241   2.406   1.483 -0.8990 -0.5483  0.0333
  417MOL0     C56198   8.173   2.309   1.582 -0.9378 -0.4978  0.3958
  417MOL0     C56199   8.111   2.381   1.704 -0.1568  0.5188 -0.7293
  417MOL0     C56200   8.019   2.500   1.674  0.9268  0.0456  0.8424
  417MOL0     C56201   7.921   2.525   1.793 -0.7749 -0.2678  0.1070
  417MOL0     C56202   7.824   2.626   1.746  0.5283 -0.9768  0.8513
  417MOL0     C56203   7.701   2.659   1.838 -0.0961  0.0884  0.5258
  417MOL0     C56204   7.732   2.705   1.979  0.0772 -0.3270  0.3232
  417MOL0    Cl56205   7.840   2.849   1.968  0.3122 -0.0181 -0.0836
  417MOL0     C56206   8.514   2.282   1.462 -0.4999  0.4172 -0.0387
  417MOL0     C56207   8.624   2.197   1.488 -0.5294 -0.7494  0.6915
  417MOL0     O56208   8.732   1.838   1.321  0.5016  0.2361  0.1823
  417MOL0     C56209   8.970   1.870   1.573 -0.6003 -0.6561 -0.0991
  417MOL0     C56210   9.064   1.800   1.646 -0.0351  0.3459 -0.3468
  417MOL0     N56211   9.551   1.311   2.132  0.1113 -0.0321  0.4788
  417MOL0     N56212   9.674   1.340   2.130 -0.2354  0.3580 -0.7203
  417MOL0     C56213  10.509   0.702   2.464  0.4706  0.8181 -0.4702
  417MOL0     C56214  10.620   0.659   2.534 -0.5606  0.2680  0.9813
  417MOL0     C56215  10.961   0.503   2.760  0.4445  0.3054  0.5458
  417MOL0     C56216  11.080   0.572   2.799  0.5564 -0.1346 -0.4569
  417MOL0     C56217  11.179   0.518   2.873  0.8885  0.3230 -0.4490
  417MOL0     C56218  11.162   0.400   2.936  0.4864 -0.2208 -0.3894
  417MOL0     O56219  11.270   0.365   3.005  0.4338  0.7032  0.0916
  417MOL0     C56220  11.289   0.247   3.085  0.7280  0.6106  0.2854
  417MOL0     C56221  11.371   0.141   3.023 -0.4049 -0.5231  0.4277
  417MOL0     C56222  11.502   0.194   2.967  0.1060 -0.3121 -0.5776
  417MOL0     C56223  11.595   0.257   3.066  0.7234 -0.7742 -0.8238
  417MOL0     C56224  11.632   0.176   3.185  0.4601 -0.4781  0.3569
  417MOL0     C56225  11.649   0.126   3.293 -0.4294 -0.3402  0.0317
  417MOL0     C56226  11.043   0.329   2.915  0.7310 -0.9575 -0.3714
  417MOL0     C56227  10.946   0.379   2.823  0.5222 -0.2203  0.1459
  417MOL0     H56228  10.623   0.332   2.466  1.9217  0.7962  2.1176
  417MOL0     H56229  10.418   0.406   2.339 -0.9686  1.5407 -0.3891
  417MOL0     H56230  10.190   0.753   2.390  1.4543 -2.3866  1.7348
  417MOL0     H56231  10.330   0.845   2.309  1.4026 -1.4255  0.6513
  417MOL0     H56232  10.239   0.731   2.089  0.1962 -0.5446 -1.2719
  417MOL0     H56233  10.103   0.691   2.187  0.7395  0.4843 -0.4769
  417MOL0     H56234  10.075   0.955   2.218  0.5727 -1.0893  0.5079
  417MOL0     H56235  10.220   0.964   2.118 -0.9918  1.5053  0.8640
  417MOL0     H56236  10.085   0.812   1.941 -1.0246 -2.2399 -0.1410
  417MOL0     H56237   9.957   0.875   2.036 -0.2871  0.7273  1.0775
  417MOL0     H56238  10.162   1.078   1.917 -1.1619  4.1755 -1.3710
  417MOL0     H56239  10.025   1.004   1.826 -0.3434  1.3907  1.1743
  417MOL0     H56240   9.877   1.078   2.023  1.0454 -3.3137 -0.9157
  417MOL0     H56241  10.012   1.152   2.092 -0.9424 -0.1233 -0.1446
  417MOL0     H56242  10.055   1.290   1.916  1.1636 -2.7384 -3.0748
  417MOL0     H56243   9.930   1.236   1.815 -0.4622 -3.1254  1.1869
  417MOL0     H56244   9.873   1.440   1.919 -2.1913 -0.4915 -1.9847
  417MOL0     H56245   9.930   1.386   2.077  1.8366  0.9441 -1.4543
  417MOL0     H56246   9.653   1.246   1.823  1.5243  1.2550  0.4185
  417MOL0     H56247   9.391   1.094   1.949  2.4357  0.3147 -1.2690
  417MOL0     H56248   9.325   1.226   2.044 -1.2222 -0.7433 -1.2745
  417MOL0     H56249   9.214   1.238   1.813  0.4749  1.7834 -4.0666
  417MOL0     H56250   9.374   1.221   1.746 -1.2158  2.7056 -1.4579
  417MOL0     H56251   9.424   1.430   1.769 -0.5704 -2.9594 -3.0481
  417MOL0     H56252   9.331   1.453   1.914  2.3843 -3.1612  0.5838
  417MOL0     H56253   9.125   1.411   1.746  0.4482 -1.2380 -3.1516
  417MOL0     H56254   9.236   1.445   1.615 -1.6795  1.1319 -0.6203
  417MOL0     H56255   9.013   1.484   1.531  4.1021  0.0249 -0.0772
  417MOL0     H56256   8.838   1.586   1.294 -0.9926 -0.3757  0.5904
  417MOL0     H56257   8.827   1.463   1.407  1.1498  0.8555 -1.3929
  417MOL0     H56258   8.701   1.596   1.417 -0.6170  0.3019  1.9960
  417MOL0     H56259   8.497   1.914   1.347  1.9436  0.6388 -0.7776
  417MOL0     H56260   8.333   2.079   1.273  0.1055 -2.4845  3.3907
  417MOL0     H56261   8.310   2.480   1.525  0.1885 -0.9738 -0.9508
  417MOL0     H56262   8.155   2.463   1.447 -2.4598 -0.8864  2.9023
  417MOL0     H56263   8.092   2.256   1.531 -1.0586  0.5938 -0.5560
  417MOL0     H56264   8.249   2.235   1.609 -2.5558 -2.0064  1.0798
  417MOL0     H56265   8.198   2.411   1.763  1.3496 -0.7334 -2.2572
  417MOL0     H56266   8.055   2.307   1.762  0.9258 -0.7740 -1.2860
  417MOL0     H56267   8.076   2.590   1.651 -2.4653  2.5245  1.3074
  417MOL0     H56268   7.957   2.480   1.585  0.9203  3.7118 -0.1214
  417MOL0     H56269   7.975   2.563   1.880 -2.9996 -2.2957  2.5461
  417MOL0     H56270   7.871   2.431   1.816 -2.4021  0.3765 -0.6412
  417MOL0     H56271   7.868   2.721   1.715 -2.1838 -0.2344 -1.1146
  417MOL0     H56272   7.786   2.589   1.650  4.5393  1.1068 -1.8315
  417MOL0     H56273   7.628   2.578   1.845 -1.3577  1.0068 -1.3094
  417MOL0     H56274   7.643   2.743   1.798 -0.0645  0.1990  0.7089
  417MOL0     H56275   7.799   2.635   2.030  2.5493  2.2862  0.8733
  417MOL0     H56276   7.637   2.717   2.033 -2.0224 -3.7410 -2.1361
  417MOL0     H56277   8.521   2.384   1.499  0.2276 -0.1327  1.3993
  417MOL0     H56278   8.708   2.218   1.555 -0.3660 -0.7221  0.4791
  417MOL0     H56279   8.957   1.975   1.599  2.0699 -0.7214  1.9376
  417MOL0     H56280   9.118   1.861   1.718 -1.4527  2.4140 -0.9538
  417MOL0     H56281  10.480   0.806   2.460 -2.5687  0.0507 -3.0113
  417MOL0     H56282  10.665   0.736   2.596 -0.5353  0.3720  0.8338
  417MOL0     H56283  11.081   0.674   2.762 -0.9670  0.1038  0.0893
  417MOL0     H56284  11.265   0.583   2.886  3.0347 -2.5568  0.8854
  417MOL0     H56285  11.331   0.270   3.183  0.9683  2.6963 -0.2647
  417MOL0     H56286  11.198   0.187   3.096  1.9566 -1.3952  0.0972
  417MOL0     H56287  11.316   0.106   2.936  2.0715 -1.1138 -0.9852
  417MOL0     H56288  11.386   0.067   3.102  0.4554  0.1985  0.9568
  417MOL0     H56289  11.481   0.265   2.886  1.0294 -0.2881 -0.8080
  417MOL0     H56290  11.547   0.109   2.916  0.0268 -0.2726 -0.7146
  417MOL0     H56291  11.549   0.352   3.096  0.6534 -0.8591 -0.6640
  417MOL0     H56292  11.690   0.284   3.018  0.7217  1.2083  0.1731
  417MOL0     H56293  11.654   0.087   3.392 -0.9674  2.3642  1.2196
  417MOL0     H56294  11.029   0.234   2.965 -1.6914 -0.0803  0.7999
  417MOL0     H56295  10.859   0.315   2.809  0.7823 -0.4447 -0.4779
  418MOL0     O56296  11.373   1.183  10.115 -0.0451 -0.4511  0.1493
  418MOL0     C56297  11.356   1.191  10.236  0.0091  0.5964 -0.2163
  418MOL0     O56298  11.242   1.225  10.296  0.4867  0.3073 -0.9517
  418MOL0     C56299  11.123   1.230  10.231 -0.9433 -0.3049  0.0660
  418MOL0     C56300  11.090   1.327  10.133  0.3366 -0.1077 -0.2109
  418MOL0     C56301  10.970   1.309  10.062 -0.0685  0.5533  0.3177
  418MOL0     C56302  10.880   1.199  10.085 -0.4161 -0.5690  0.1725
  418MOL0     O56303  10.759   1.182  10.022 -0.0037 -0.2631 -0.5956
  418MOL0     C56304  10.705   1.298   9.955  0.3664 -0.5569  0.6135
  418MOL0     C56305  10.571   1.267   9.888  0.5668  0.1125 -0.0320
  418MOL0     C56306  10.462   1.290   9.990 -0.1284  0.3788 -1.2989
  418MOL0     C56307  10.314   1.281   9.933  0.5441 -0.9154  0.0592
  418MOL0     C56308  10.207   1.307  10.041 -0.1417  0.3671  0.8250
  418MOL0     C56309  10.056   1.299   9.991  0.3650 -0.2910 -0.5983
  418MOL0     C56310   9.971   1.413  10.046  0.6204 -0.2280  0.3317
  418MOL0     C56311   9.828   1.372   9.999  0.3546  0.6222 -0.3001
  418MOL0     N56312   9.740   1.475  10.045  0.7825 -0.7738 -0.2406
  418MOL0     C56313   9.741   1.606  10.002  0.5701 -0.3513 -0.5589
  418MOL0     C56314   9.653   1.672  10.084 -0.3313  0.7332 -0.4642
  418MOL0     C56315   9.631   1.823  10.065 -0.4693  0.3916  0.7466
  418MOL0     C56316   9.743   1.910  10.125 -0.0448  0.8207  1.0873
  418MOL0     C56317   9.727   2.061  10.113 -0.6043  0.7504  0.0748
  418MOL0     C56318   9.851   2.125  10.151  0.0002 -0.4207 -0.0929
  418MOL0     O56319   9.875   2.105  10.283 -0.7200  0.8055 -0.8639
  418MOL0     C56320  10.003   2.136  10.330 -0.1181  0.7741  0.0095
  418MOL0     C56321  10.041   2.100  10.461 -0.6077  0.1783 -0.7692
  418MOL0     C56322  10.163   2.133  10.519  0.9914  0.5754  0.5079
  418MOL0     C56323  10.187   2.086  10.659 -0.5733 -0.1353 -0.6630
  418MOL0     C56324  10.263   2.196  10.444  0.1789  0.6129 -0.4301
  418MOL0     C56325  10.403   2.214  10.489 -0.6375 -0.8025  0.2084
  418MOL0     O56326  10.458   2.102  10.536  0.6191  0.0403 -0.1626
  418MOL0     C56327  10.578   2.087  10.590  0.1111  0.0695  0.2111
  418MOL0     C56328  10.627   1.957  10.596 -0.9521  0.6649  0.1618
  418MOL0     C56329  10.742   1.918  10.669 -0.5709  0.1425  1.3380
  418MOL0     C56330  10.808   2.018  10.742 -0.1362  0.8697  0.2971
  418MOL0     O56331  10.926   1.980  10.808  0.8304 -0.5581  0.0790
  418MOL0     C56332  10.989   2.062  10.908 -0.4066  0.3521  0.1563
  418MOL0     C56333  11.100   2.144  10.849  0.3676 -0.3111 -0.4933
  418MOL0     C56334  11.211   2.054  10.797  0.4066 -1.5459 -0.4225
  418MOL0     C56335  11.338   2.093  10.853  0.3560  0.7611  0.1060
  418MOL0     C56336  11.461   2.031  10.782  0.6739  0.3007 -0.0951
  418MOL0     C56337  11.461   1.877  10.805  0.0509 -0.1989  0.2020
  418MOL0     C56338  11.594   1.814  10.770  0.0288 -0.5629  0.1246
  418MOL0     C56339  11.706   1.859  10.854  0.4549  0.1831  0.3115
  418MOL0    Cl56340  11.735   1.738  10.984 -0.2383 -0.2497 -0.1558
  418MOL0     C56341  10.759   2.155  10.738 -0.1668 -0.8853  0.1575
  418MOL0     C56342  10.649   2.177  10.663  0.3615 -0.0197  0.1348
  418MOL0     O56343  10.469   2.314  10.456  0.1318 -0.0538 -0.7179
  418MOL0     C56344  10.234   2.224  10.315  1.1087 -0.0731 -0.5311
  418MOL0     C56345  10.106   2.197  10.254 -0.3694 -0.6311 -0.0505
  418MOL0     N56346   9.598   1.575  10.168  0.2863 -1.4872 -0.5877
  418MOL0     N56347   9.660   1.464  10.149 -0.1352 -0.3690 -0.0019
  418MOL0     C56348  10.912   1.109  10.184  0.0439  0.5031 -0.8434
  418MOL0     C56349  11.028   1.130  10.263  0.0009 -0.2623  0.4106
  418MOL0     C56350  11.486   1.164  10.318 -0.2239  0.4003 -0.1910
  418MOL0     C56351  11.603   1.134  10.248  0.3726 -0.1550  0.2632
  418MOL0     C56352  11.725   1.114  10.320 -0.1921  0.3728 -0.1028
  418MOL0     C56353  11.736   1.117  10.456  0.1263  0.4908  0.8224
  418MOL0     O56354  11.860   1.071  10.509  0.2119 -0.3973  0.3575
  418MOL0     C56355  11.876   1.039  10.647 -0.0704  0.4120 -0.0669
  418MOL0     C56356  12.018   1.022  10.711 -0.1385  0.8911  0.2746
  418MOL0     C56357  12.102   0.932  10.622 -0.2522  0.1895 -0.5309
  418MOL0     C56358  12.209   0.856  10.708  0.1220  0.1346 -0.4867
  418MOL0     C56359  12.322   0.931  10.737 -0.1319  0.2982 -0.0744
  418MOL0     C56360  12.418   0.990  10.772 -1.0999 -0.4896 -0.1435
  418MOL0     C56361  11.618   1.149  10.525 -1.0561 -0.1515 -0.1829
  418MOL0     C56362  11.500   1.176  10.457  0.5524 -0.3358 -0.3284
  418MOL0     H56363  11.144   1.422  10.123 -2.0482  1.4625  0.9523
  418MOL0     H56364  10.958   1.384   9.984 -2.1307  1.5220  1.5061
  418MOL0     H56365  10.696   1.381  10.026  0.0667 -0.1930  0.1573
  418MOL0     H56366  10.781   1.324   9.881 -0.7911  1.9684  0.2079
  418MOL0     H56367  10.550   1.340   9.809 -0.4736 -0.3957 -0.2443
  418MOL0     H56368  10.568   1.162   9.858 -0.5945  1.0314 -3.7453
  418MOL0     H56369  10.474   1.217  10.071  0.2487  0.9360 -0.8500
  418MOL0     H56370  10.467   1.391  10.032 -1.7122 -1.0068  2.7639
  418MOL0     H56371  10.294   1.359   9.858  3.3925 -1.1462 -1.0666
  418MOL0     H56372  10.301   1.183   9.887  1.2462 -0.9001 -0.1766
  418MOL0     H56373  10.225   1.240  10.126  4.2687 -3.9927 -2.9103
  418MOL0     H56374  10.223   1.409  10.075 -3.0540  1.3523 -0.4230
  418MOL0     H56375  10.053   1.308   9.882  1.6021 -2.7407 -0.8849
  418MOL0     H56376  10.017   1.199  10.010 -1.4984  0.2533 -1.3097
  418MOL0     H56377   9.982   1.433  10.153 -3.0448  5.9317  0.0667
  418MOL0     H56378  10.003   1.506   9.998  0.7642  0.2503  1.3320
  418MOL0     H56379   9.795   1.281  10.051  0.5741  1.5061  1.4730
  418MOL0     H56380   9.820   1.376   9.890  0.8394  2.3105 -0.3011
  418MOL0     H56381   9.802   1.658   9.930  0.6992 -0.2634 -0.3883
  418MOL0     H56382   9.617   1.844   9.959 -2.6247  1.6047  1.1924
  418MOL0     H56383   9.535   1.850  10.110  1.0053  4.5322  1.8560
  418MOL0     H56384   9.836   1.883  10.073 -0.4179 -1.6253  1.5473
  418MOL0     H56385   9.754   1.878  10.229  1.0434  4.9385  2.3862
  418MOL0     H56386   9.647   2.095  10.178  0.1495  2.3978  0.1900
  418MOL0     H56387   9.714   2.089  10.008 -0.8602  0.5409  0.0505
  418MOL0     H56388   9.824   2.230  10.139  0.4397 -0.6091 -3.5536
  418MOL0     H56389   9.923   2.092  10.075  2.0838  2.0724  0.6538
  418MOL0     H56390   9.966   2.039  10.511  0.5850  0.6943  1.8064
  418MOL0     H56391  10.249   2.158  10.715  0.3509  0.4896 -2.4080
  418MOL0     H56392  10.096   2.084  10.719  0.8129  0.6033  1.6013
  418MOL0     H56393  10.208   1.979  10.662 -1.5726 -0.3263  1.8968
  418MOL0     H56394  10.562   1.883  10.551 -0.4189  0.6692 -0.6454
  418MOL0     H56395  10.774   1.816  10.688 -0.4112 -0.3646 -1.2819
  418MOL0     H56396  10.913   2.123  10.957  0.6867  0.6768  1.5437
  418MOL0     H56397  11.039   1.996  10.980 -1.2632 -0.0645  0.3867
  418MOL0     H56398  11.073   2.211  10.766  1.8233 -0.9691 -1.5488
  418MOL0     H56399  11.136   2.209  10.928  0.8170 -2.6034  1.2855
  418MOL0     H56400  11.206   2.070  10.689 -2.2588 -0.3294 -0.1956
  418MOL0     H56401  11.192   1.947  10.812  1.4975 -1.8592 -1.2035
  418MOL0     H56402  11.336   2.203  10.847  1.7412  0.8118  0.3372
  418MOL0     H56403  11.329   2.056  10.955 -4.4201  0.5946 -0.1386
  418MOL0     H56404  11.555   2.079  10.809 -0.1271  1.2659  1.0817
  418MOL0     H56405  11.458   2.060  10.676  2.1457  1.1417  0.0684
  418MOL0     H56406  11.434   1.872  10.911 -1.4540  1.9245 -0.0130
  418MOL0     H56407  11.381   1.828  10.750  0.9977 -0.5787 -0.8744
  418MOL0     H56408  11.610   1.838  10.665 -3.8843 -1.1750 -0.7569
  418MOL0     H56409  11.589   1.705  10.780  3.4542 -0.8026  0.3918
  418MOL0     H56410  11.707   1.960  10.897  0.4544 -0.5771  2.1594
  418MOL0     H56411  11.798   1.861  10.795 -0.1159  0.7352 -0.5976
  418MOL0     H56412  10.801   2.234  10.800  1.6785 -0.2246 -1.7773
  418MOL0     H56413  10.613   2.278  10.682  0.5138 -0.4517  3.1276
  418MOL0     H56414  10.314   2.275  10.263  2.0684 -1.7604 -0.7630
  418MOL0     H56415  10.088   2.223  10.150  1.1374 -0.3389 -0.2672
  418MOL0     H56416  10.844   1.031  10.214  0.5812  0.0717 -0.7354
  418MOL0     H56417  11.052   1.062  10.344 -0.7199  1.1865  1.9208
  418MOL0     H56418  11.601   1.093  10.147 -1.8547 -2.7823  1.2563
  418MOL0     H56419  11.800   1.086  10.248 -1.2067 -2.2336 -0.2963
  418MOL0     H56420  11.824   1.118  10.702  1.1547  1.2720 -0.1223
  418MOL0     H56421  11.817   0.946  10.651 -1.7152  1.2382 -2.5232
  418MOL0     H56422  12.016   0.990  10.815  4.4050  1.1615  0.6376
  418MOL0     H56423  12.070   1.117  10.700 -0.4744  1.0365 -0.0971
  418MOL0     H56424  12.143   0.995  10.542 -0.9748 -0.8406 -1.7257
  418MOL0     H56425  12.043   0.854  10.574  1.7923 -0.2475 -2.5448
  418MOL0     H56426  12.226   0.757  10.664  1.0217 -0.4784  1.1470
  418MOL0     H56427  12.152   0.840  10.799 -0.4397  3.1129 -0.2049
  418MOL0     H56428  12.512   1.022  10.813 -1.4283 -2.4456  2.4754
  418MOL0     H56429  11.615   1.167  10.632 -0.3503 -2.9917  0.3925
  418MOL0     H56430  11.404   1.206  10.497 -0.5557 -0.5742 -2.6398
  419MOL0     O56431  11.300   7.381   4.377  0.4591 -0.5234  0.1344
  419MOL0     C56432  11.349   7.484   4.325 -0.8876  0.7790 -0.3564
  419MOL0     O56433  11.278   7.566   4.246  0.4962 -0.9856 -0.6894
  419MOL0     C56434  11.152   7.544   4.210 -0.1975  0.3290  0.1540
  419MOL0     C56435  11.049   7.473   4.274 -0.6570 -0.3546  0.3861
  419MOL0     C56436  10.932   7.435   4.205  0.8547 -0.9132  0.4455
  419MOL0     C56437  10.910   7.489   4.072  0.0389 -0.0906 -0.5624
  419MOL0     O56438  10.796   7.456   4.009  0.1295  0.0194  0.6366
  419MOL0     C56439  10.801   7.424   3.860  0.2442 -0.1577  0.0167
  419MOL0     C56440  10.662   7.390   3.804  0.1314  0.6161 -0.8005
  419MOL0     C56441  10.562   7.510   3.800 -0.2144  0.6510  0.5279
  419MOL0     C56442  10.451   7.486   3.699 -0.4633 -0.3329 -0.1681
  419MOL0     C56443  10.341   7.579   3.719  0.4192  1.1015 -0.0479
  419MOL0     C56444  10.221   7.530   3.643  0.5321 -0.0827  0.4931
  419MOL0     C56445  10.085   7.595   3.698  0.0020  0.8365  0.4941
  419MOL0     C56446   9.975   7.537   3.609  0.4874 -0.5009  0.6590
  419MOL0     N56447   9.850   7.620   3.629  0.2900 -0.7480 -0.3958
  419MOL0     C56448   9.793   7.653   3.755  0.0349  0.4681 -0.1839
  419MOL0     C56449   9.692   7.734   3.728 -0.5808  0.2730  0.1243
  419MOL0     C56450   9.631   7.802   3.848  0.7942  0.2858 -0.1055
  419MOL0     C56451   9.728   7.903   3.914  0.2685  0.0005 -0.2476
  419MOL0     C56452   9.747   8.028   3.822  0.1034  0.2315  0.6036
  419MOL0     C56453   9.621   8.098   3.762  0.6394 -0.6763 -0.6769
  419MOL0     O56454   9.556   8.179   3.856  0.3972  0.0819  0.3283
  419MOL0     C56455   9.420   8.192   3.854  0.5524 -0.3767  0.5049
  419MOL0     C56456   9.381   8.312   3.911  0.1505  1.0470  0.7528
  419MOL0     C56457   9.247   8.357   3.923 -0.1808 -0.3567 -1.8499
  419MOL0     C56458   9.235   8.494   3.993  0.2899  0.3505 -0.1795
  419MOL0     C56459   9.145   8.276   3.880  0.7257 -0.0568 -0.0835
  419MOL0     C56460   9.002   8.313   3.886 -1.4271  1.4443  0.1822
  419MOL0     O56461   8.977   8.439   3.898  0.5605 -1.0211 -0.0331
  419MOL0     C56462   8.843   8.486   3.893  0.9643 -0.2534 -0.2919
  419MOL0     C56463   8.820   8.627   3.922 -1.6415  0.7651  0.3366
  419MOL0     C56464   8.694   8.686   3.915 -0.3121  0.5680 -0.6696
  419MOL0     C56465   8.582   8.611   3.892  0.7171  0.2316  0.0800
  419MOL0     O56466   8.448   8.657   3.905  0.1592 -0.1263 -0.2352
  419MOL0     C56467   8.421   8.797   3.903  0.0949 -0.0757  0.8836
  419MOL0     C56468   8.282   8.813   3.955  0.6336  0.1069 -0.0349
  419MOL0     C56469   8.240   8.956   3.971  0.0578  0.4760  0.0090
  419MOL0     C56470   8.089   8.958   3.992 -0.6977  0.5118  1.1004
  419MOL0     C56471   8.010   9.086   3.982 -1.0693  0.5150  0.0969
  419MOL0     C56472   7.976   9.145   4.121 -0.4595  0.2787 -0.2076
  419MOL0     C56473   8.095   9.190   4.202  0.0541 -0.3347  0.2528
  419MOL0     C56474   8.066   9.172   4.357 -0.5511  0.5869  0.3572
  419MOL0    Cl56475   7.925   9.278   4.409 -0.3617  0.2528  0.1647
  419MOL0     C56476   8.597   8.475   3.867 -0.2827 -0.0419  0.4961
  419MOL0     C56477   8.724   8.407   3.874  0.4328 -0.5290 -0.2656
  419MOL0     O56478   8.924   8.227   3.853  0.7747  0.7946 -0.1483
  419MOL0     C56479   9.190   8.151   3.818  0.9317 -0.8327 -1.0629
  419MOL0     C56480   9.319   8.111   3.809  0.1149  0.0640 -0.6323
  419MOL0     N56481   9.697   7.764   3.591  0.2984  0.5803  0.7841
  419MOL0     N56482   9.779   7.685   3.530 -0.2264  0.2692 -0.0066
  419MOL0     C56483  11.009   7.575   4.018 -0.0319  0.4047  0.1158
  419MOL0     C56484  11.131   7.596   4.080 -0.2098  0.4544  0.0603
  419MOL0     C56485  11.486   7.532   4.366 -0.2318  0.7055  0.6913
  419MOL0     C56486  11.527   7.667   4.340  0.2404  0.5303  0.1078
  419MOL0     C56487  11.666   7.699   4.365  0.0887 -0.2037 -0.5405
  419MOL0     C56488  11.750   7.611   4.431  0.4188  0.2279  0.2340
  419MOL0     O56489  11.882   7.638   4.485  0.6138  0.2488 -0.2369
  419MOL0     C56490  11.949   7.759   4.467  0.1233 -0.3250 -0.3853
  419MOL0     C56491  12.103   7.748   4.475  0.5177 -0.2394  0.3283
  419MOL0     C56492  12.146   7.794   4.607  0.0829 -1.2759 -0.6595
  419MOL0     C56493  12.157   7.953   4.629  0.1481  0.5753 -0.5199
  419MOL0     C56494  12.191   7.983   4.772 -0.2629  0.1730  0.4914
  419MOL0     C56495  12.228   7.998   4.886 -0.4856  0.4531 -0.0832
  419MOL0     C56496  11.699   7.494   4.473 -0.0741 -0.5519  0.4679
  419MOL0     C56497  11.578   7.450   4.432 -0.0181 -0.3429  0.9082
  419MOL0     H56498  11.070   7.434   4.373  2.8037 -0.4997 -0.2871
  419MOL0     H56499  10.853   7.381   4.255  2.2995 -1.3851  2.3482
  419MOL0     H56500  10.849   7.514   3.818 -0.9655  2.1054  3.1212
  419MOL0     H56501  10.856   7.330   3.850  0.0306 -0.6896  2.8827
  419MOL0     H56502  10.678   7.347   3.705 -0.7330 -0.2438 -0.5729
  419MOL0     H56503  10.613   7.312   3.863  0.5851 -0.6444 -2.0540
  419MOL0     H56504  10.520   7.537   3.897 -1.4048  0.7675  0.0075
  419MOL0     H56505  10.613   7.598   3.760  0.5656  0.1163  0.3193
  419MOL0     H56506  10.499   7.491   3.601 -1.0136 -1.3212 -0.5045
  419MOL0     H56507  10.423   7.382   3.714  0.0798 -0.0191  4.4637
  419MOL0     H56508  10.313   7.595   3.823  1.2284 -0.8027  0.4978
  419MOL0     H56509  10.379   7.669   3.671 -0.3130  0.3364 -2.2282
  419MOL0     H56510  10.238   7.566   3.541  3.0685 -1.0168  0.5257
  419MOL0     H56511  10.205   7.422   3.651  0.8207 -0.0501  1.5937
  419MOL0     H56512  10.080   7.567   3.804  2.2389  2.1616  1.0182
  419MOL0     H56513  10.086   7.704   3.695 -0.4923  0.8743  1.3382
  419MOL0     H56514   9.957   7.432   3.636 -0.4774 -0.5454 -0.1048
  419MOL0     H56515  10.008   7.554   3.506 -1.0024  1.0166  0.3920
  419MOL0     H56516   9.830   7.620   3.852 -2.1589 -2.0807 -0.0800
  419MOL0     H56517   9.539   7.852   3.817  0.1825 -0.1769  0.9184
  419MOL0     H56518   9.614   7.721   3.920  4.1825 -0.7729 -0.3172
  419MOL0     H56519   9.831   7.867   3.928  0.5526  1.3414  1.5714
  419MOL0     H56520   9.693   7.943   4.010  0.0058 -0.8174  0.0049
  419MOL0     H56521   9.803   7.992   3.735 -3.1746 -0.3206 -1.4306
  419MOL0     H56522   9.804   8.108   3.871  0.4630  0.4635 -0.1688
  419MOL0     H56523   9.556   8.013   3.738  2.9979 -2.8776  0.3312
  419MOL0     H56524   9.649   8.143   3.666 -2.5797  1.0844 -0.9407
  419MOL0     H56525   9.459   8.370   3.958  1.9484 -1.0352  0.5220
  419MOL0     H56526   9.168   8.559   3.935 -2.4402 -0.9413  1.3426
  419MOL0     H56527   9.193   8.473   4.091  1.0024 -1.4071 -0.2241
  419MOL0     H56528   9.333   8.539   4.015  0.4849 -0.9365  1.8280
  419MOL0     H56529   8.909   8.689   3.929 -2.4599  1.9011  0.8851
  419MOL0     H56530   8.689   8.794   3.929 -0.5451  0.3703  1.0308
  419MOL0     H56531   8.500   8.846   3.961  0.4109 -0.1726  0.5340
  419MOL0     H56532   8.426   8.845   3.805 -1.4880  1.9854  1.7125
  419MOL0     H56533   8.220   8.759   3.882  1.7241  1.3838 -1.9943
  419MOL0     H56534   8.270   8.754   4.047  0.4342 -2.6043 -1.6898
  419MOL0     H56535   8.266   9.009   3.879  2.3057  1.3063  1.0367
  419MOL0     H56536   8.297   9.001   4.054  2.2608  0.9909 -1.6622
  419MOL0     H56537   8.054   8.884   3.919 -3.0561  0.2424  2.4223
  419MOL0     H56538   8.064   8.914   4.089 -0.2900 -0.1821  0.8988
  419MOL0     H56539   7.918   9.079   3.922 -0.3076  0.7792 -1.1375
  419MOL0     H56540   8.074   9.150   3.921  0.0013  0.4953  1.1683
  419MOL0     H56541   7.902   9.225   4.126 -1.7029 -0.6699 -2.0626
  419MOL0     H56542   7.928   9.063   4.175  1.0974 -0.4649  0.1317
  419MOL0     H56543   8.107   9.296   4.177 -1.9256  0.0123  0.6302
  419MOL0     H56544   8.188   9.140   4.174  0.7427  1.9284 -1.8163
  419MOL0     H56545   8.157   9.205   4.407  1.7997 -0.8292 -2.7072
  419MOL0     H56546   8.055   9.070   4.394 -0.1723  0.7407  0.9164
  419MOL0     H56547   8.507   8.418   3.844  1.0595 -2.2220  0.3801
  419MOL0     H56548   8.714   8.300   3.863 -1.3485 -0.2075 -2.5020
  419MOL0     H56549   9.115   8.090   3.767  0.7432 -1.0512 -0.5327
  419MOL0     H56550   9.325   8.010   3.768  0.2647  0.3357 -1.2988
  419MOL0     H56551  10.995   7.609   3.916  0.0685  2.9003  0.8808
  419MOL0     H56552  11.198   7.665   4.029 -0.8120 -0.3884 -1.9877
  419MOL0     H56553  11.468   7.750   4.303  1.6316  1.6671  0.3839
  419MOL0     H56554  11.690   7.802   4.340  2.5312 -0.9264 -1.4910
  419MOL0     H56555  11.923   7.794   4.366  0.0324 -1.3834 -0.7397
  419MOL0     H56556  11.916   7.833   4.540  0.6715 -1.2151  0.7837
  419MOL0     H56557  12.147   7.816   4.402 -0.7269  2.1574  1.6824
  419MOL0     H56558  12.119   7.641   4.457 -0.5235 -0.1081 -1.5905
  419MOL0     H56559  12.249   7.764   4.629  0.8808 -0.8874 -3.4881
  419MOL0     H56560  12.088   7.748   4.688 -1.1917 -0.5923 -1.1620
  419MOL0     H56561  12.060   8.001   4.609 -1.4607 -2.2581 -0.0091
  419MOL0     H56562  12.236   7.997   4.567  0.3920  1.3281  0.2930
  419MOL0     H56563  12.257   8.005   4.989 -0.4472 -0.9985  0.0216
  419MOL0     H56564  11.765   7.425   4.524  1.0211  0.8408  1.0276
  419MOL0     H56565  11.532   7.354   4.451  0.5249 -0.2858  2.6516
  420MOL0     O56566   2.265   1.471   6.026 -0.1894 -0.2968  0.0269
  420MOL0     C56567   2.356   1.547   6.049 -0.2979 -0.0584  0.0016
  420MOL0     O56568   2.441   1.548   6.152 -0.2621 -0.3031  0.1695
  420MOL0     C56569   2.461   1.437   6.225 -0.3012 -0.5445  0.1865
  420MOL0     C56570   2.497   1.458   6.357  0.1790 -0.6361  0.1799
  420MOL0     C56571   2.547   1.352   6.445  0.2428  0.2823  0.3202
  420MOL0     C56572   2.545   1.223   6.397 -0.3028  0.3539 -0.5331
  420MOL0     O56573   2.575   1.120   6.476  0.1329 -0.7730  0.0463
  420MOL0     C56574   2.644   1.144   6.591 -0.8041  0.8891 -0.4967
  420MOL0     C56575   2.695   1.015   6.644 -0.0175 -0.1935 -0.0754
  420MOL0     C56576   2.774   1.040   6.770  0.6844 -0.3103  0.6218
  420MOL0     C56577   2.786   0.907   6.847 -0.2455 -0.2871  0.1974
  420MOL0     C56578   2.883   0.916   6.956  0.3518  0.1322  0.5761
  420MOL0     C56579   2.880   0.796   7.047 -0.5419  0.4140  1.0903
  420MOL0     C56580   2.947   0.670   6.984  0.3924 -0.1203  0.6650
  420MOL0     C56581   3.105   0.665   6.988  0.4126  0.6423 -0.6186
  420MOL0     N56582   3.144   0.549   6.911 -0.0384  0.1023 -0.1288
  420MOL0     C56583   3.164   0.423   6.976 -0.7422  0.1768 -0.2022
  420MOL0     C56584   3.231   0.352   6.879 -0.1215  0.1903  0.1842
  420MOL0     C56585   3.275   0.216   6.902 -0.3281  0.1202  0.2828
  420MOL0     C56586   3.430   0.198   6.929  0.9371 -0.0160  0.1691
  420MOL0     C56587   3.497   0.230   6.798 -0.0624 -0.4679 -0.6688
  420MOL0     C56588   3.629   0.175   6.793 -0.9167 -0.2338  0.0623
  420MOL0     O56589   3.691   0.209   6.666 -0.2370  0.0293 -0.2264
  420MOL0     C56590   3.830   0.231   6.670 -0.3203  0.4462 -1.0528
  420MOL0     C56591   3.912   0.268   6.784  0.0305  0.2240 -0.9162
  420MOL0     C56592   4.056   0.273   6.778  0.6628 -0.8060  0.7043
  420MOL0     C56593   4.143   0.301   6.903  0.2595 -1.1584  0.4024
  420MOL0     C56594   4.112   0.256   6.650 -0.4565 -0.1455 -1.2884
  420MOL0     C56595   4.253   0.256   6.625  0.3163 -0.6915  0.1135
  420MOL0     O56596   4.315   0.134   6.634 -0.4544  0.2170  0.1838
  420MOL0     C56597   4.456   0.134   6.614 -0.1493 -0.1414  0.2151
  420MOL0     C56598   4.487   0.073   6.500  0.1712 -0.2607 -0.1161
  420MOL0     C56599   4.624   0.060   6.470  0.1117 -0.2916  0.3478
  420MOL0     C56600   4.730   0.099   6.560  0.5402 -0.5508  0.1875
  420MOL0     O56601   4.862   0.085   6.538 -0.5123  0.9971  0.1466
  420MOL0     C56602   4.903   0.025   6.413  0.2310  0.2895  0.1491
  420MOL0     C56603   5.048  -0.026   6.412 -0.2443  0.3551  0.9583
  420MOL0     C56604   5.100  -0.097   6.289  0.1147  0.7080  0.0511
  420MOL0     C56605   5.220  -0.187   6.306 -0.1539  0.2304  0.4676
  420MOL0     C56606   5.260  -0.280   6.185  0.2977 -0.1291  0.2122
  420MOL0     C56607   5.349  -0.404   6.214  0.1129 -0.4560 -0.2080
  420MOL0     C56608   5.414  -0.469   6.092 -0.3333  0.0258 -0.9228
  420MOL0     C56609   5.323  -0.486   5.971 -0.7425  0.4967 -0.1732
  420MOL0    Cl56610   5.361  -0.647   5.887 -0.2313 -0.3335 -0.0255
  420MOL0     C56611   4.690   0.161   6.680 -0.1808  0.2074  0.3342
  420MOL0     C56612   4.556   0.187   6.700 -0.3969  0.2878  0.3948
  420MOL0     O56613   4.309   0.363   6.604 -0.3584  0.8091  0.0357
  420MOL0     C56614   4.033   0.208   6.544 -0.0244  0.0912  0.2561
  420MOL0     C56615   3.894   0.200   6.549  0.2396 -0.2081  0.2711
  420MOL0     N56616   3.242   0.421   6.759  0.2640 -0.1589 -0.3069
  420MOL0     N56617   3.184   0.539   6.778  0.0658  0.6776 -0.3995
  420MOL0     C56618   2.499   1.202   6.270 -0.7242  0.0308 -0.9143
  420MOL0     C56619   2.471   1.304   6.181  1.2507  0.7281 -0.0285
  420MOL0     C56620   2.364   1.663   5.959 -0.5115 -0.7829  0.6167
  420MOL0     C56621   2.271   1.678   5.847 -0.3082 -0.3767  0.1555
  420MOL0     C56622   2.283   1.792   5.763  0.6636  0.0643 -0.5269
  420MOL0     C56623   2.393   1.880   5.781 -0.1428  0.7976  0.3340
  420MOL0     O56624   2.416   1.986   5.689  0.1740  0.1181 -0.7909
  420MOL0     C56625   2.304   2.040   5.606 -0.2939 -0.5377 -0.2778
  420MOL0     C56626   2.318   2.196   5.584  0.2611 -0.1895 -0.1864
  420MOL0     C56627   2.197   2.233   5.499 -1.2722  0.0369  0.1652
  420MOL0     C56628   2.154   2.380   5.530  0.0224 -0.1077  0.2836
  420MOL0     C56629   2.075   2.422   5.422  0.4116 -0.2854  0.2933
  420MOL0     C56630   2.000   2.430   5.326 -0.2686  0.7281 -0.0862
  420MOL0     C56631   2.485   1.861   5.882  0.6232  0.1793 -0.7618
  420MOL0     C56632   2.464   1.755   5.972 -0.6315 -0.2474 -0.1012
  420MOL0     H56633   2.496   1.559   6.395  0.0444 -0.4755 -0.2558
  420MOL0     H56634   2.576   1.383   6.544  2.4119 -1.7489  0.4223
  420MOL0     H56635   2.728   1.212   6.576 -0.7688  0.8402 -0.5212
  420MOL0     H56636   2.571   1.187   6.659 -1.4573  0.4642 -0.9187
  420MOL0     H56637   2.616   0.940   6.654 -1.5434  0.9671 -2.4677
  420MOL0     H56638   2.764   0.969   6.572 -1.1702 -2.6360  0.2748
  420MOL0     H56639   2.866   1.079   6.725 -1.9508  1.2414 -4.2719
  420MOL0     H56640   2.734   1.122   6.830 -2.0089 -0.0434 -1.3494
  420MOL0     H56641   2.689   0.886   6.893 -0.5119 -2.5666 -1.2122
  420MOL0     H56642   2.794   0.821   6.780 -0.2883  1.3495 -2.0428
  420MOL0     H56643   2.982   0.925   6.911 -0.6835 -0.0952 -1.9045
  420MOL0     H56644   2.854   1.010   7.004  3.5528  2.1954 -1.2091
  420MOL0     H56645   2.935   0.833   7.134 -1.9639 -0.7499  2.5367
  420MOL0     H56646   2.777   0.773   7.077 -0.3747  0.2613  1.5621
  420MOL0     H56647   2.909   0.578   7.030 -0.0995 -0.2172  0.0858
  420MOL0     H56648   2.928   0.664   6.876  0.7340 -5.2555  0.6260
  420MOL0     H56649   3.140   0.658   7.091  0.2767  0.0835 -0.6088
  420MOL0     H56650   3.152   0.752   6.940  0.1326  2.1244  1.6711
  420MOL0     H56651   3.137   0.408   7.080 -2.3929 -1.8596 -0.8641
  420MOL0     H56652   3.215   0.179   6.985  1.2765 -1.5337  0.7756
  420MOL0     H56653   3.243   0.155   6.817 -2.6942  0.1167  1.1223
  420MOL0     H56654   3.448   0.093   6.955  0.7017  0.3922  2.1244
  420MOL0     H56655   3.454   0.267   7.011 -1.8903  0.5443  0.6188
  420MOL0     H56656   3.497   0.339   6.789  0.5519 -0.4527 -0.5286
  420MOL0     H56657   3.448   0.205   6.704  0.7850  0.6684 -1.4335
  420MOL0     H56658   3.612   0.068   6.810  0.5626 -0.3981  0.6931
  420MOL0     H56659   3.679   0.212   6.883  2.7240 -2.9343 -0.6038
  420MOL0     H56660   3.864   0.287   6.880  0.2097 -2.1014 -0.2941
  420MOL0     H56661   4.249   0.321   6.885 -0.8989  4.2848 -2.7637
  420MOL0     H56662   4.112   0.401   6.937 -1.3953 -1.0175 -1.3653
  420MOL0     H56663   4.126   0.233   6.987 -3.7500  2.6350  3.1183
  420MOL0     H56664   4.407   0.051   6.429 -0.5524 -1.2667  0.9727
  420MOL0     H56665   4.656   0.015   6.376 -0.2298 -1.0643  0.5958
  420MOL0     H56666   4.835  -0.051   6.373  0.9997  1.0693 -2.8866
  420MOL0     H56667   4.894   0.102   6.335  1.1395 -0.3979 -0.6708
  420MOL0     H56668   5.106   0.065   6.430 -3.4926  2.8380 -0.1348
  420MOL0     H56669   5.058  -0.099   6.494 -1.5941 -0.3752  0.5014
  420MOL0     H56670   5.136  -0.023   6.217 -1.0126  2.7847  1.5255
  420MOL0     H56671   5.015  -0.135   6.233  0.2487  2.7523 -1.6666
  420MOL0     H56672   5.308  -0.132   6.340  0.9176 -1.3742  0.3604
  420MOL0     H56673   5.200  -0.262   6.383 -0.1612 -1.5077 -1.1738
  420MOL0     H56674   5.317  -0.210   6.123 -2.3741  1.3822 -0.7038
  420MOL0     H56675   5.165  -0.301   6.135 -1.6711  0.5934  3.3842
  420MOL0     H56676   5.431  -0.382   6.283  2.1146 -0.5978 -2.4055
  420MOL0     H56677   5.292  -0.483   6.265 -0.5516  1.2748  1.8521
  420MOL0     H56678   5.451  -0.563   6.135  0.0887  0.5878 -0.0346
  420MOL0     H56679   5.505  -0.420   6.057 -0.7012  0.6237 -1.0656
  420MOL0     H56680   5.362  -0.400   5.915  0.3448  1.9785  2.6293
  420MOL0     H56681   5.218  -0.475   5.999  0.0617 -0.3228  3.8292
  420MOL0     H56682   4.769   0.184   6.751  0.1009 -2.6987  1.0695
  420MOL0     H56683   4.530   0.239   6.791  1.7762 -1.6610  2.2567
  420MOL0     H56684   4.078   0.180   6.449 -1.4912 -4.2199  0.6052
  420MOL0     H56685   3.832   0.164   6.468  0.9380  0.1283 -0.4280
  420MOL0     H56686   2.511   1.100   6.234  2.1777 -1.2214  2.9024
  420MOL0     H56687   2.451   1.281   6.077  0.2007 -1.7036  0.6499
  420MOL0     H56688   2.192   1.607   5.827 -0.9007 -0.0324  1.1932
  420MOL0     H56689   2.202   1.813   5.693 -1.6865 -2.0583  1.3726
  420MOL0     H56690   2.306   1.995   5.506 -0.0252  0.5538 -0.7831
  420MOL0     H56691   2.211   2.009   5.654 -0.9962  0.7411 -0.7579
  420MOL0     H56692   2.418   2.220   5.546  0.8097 -1.8084  0.1473
  420MOL0     H56693   2.308   2.234   5.686 -0.7468  1.6062 -0.9193
  420MOL0     H56694   2.104   2.176   5.508 -1.5623 -0.1153 -2.8726
  420MOL0     H56695   2.220   2.217   5.394 -1.9565 -3.3916  0.4131
  420MOL0     H56696   2.242   2.444   5.535 -1.9066  2.6073  1.7468
  420MOL0     H56697   2.095   2.387   5.622  0.5422  2.3173  0.5039
  420MOL0     H56698   1.930   2.427   5.244 -0.7326  0.0064  0.3256
  420MOL0     H56699   2.578   1.917   5.884  0.3337  0.6390  0.6524
  420MOL0     H56700   2.538   1.755   6.051  0.2307 -2.0028 -0.8534
  421MOL0     O56701   6.792   8.546   6.683 -0.0546 -0.7579  0.0124
  421MOL0     C56702   6.886   8.470   6.702  0.1506  0.7540  0.7633
  421MOL0     O56703   6.970   8.467   6.804  0.0188  0.4451  0.5157
  421MOL0     C56704   6.938   8.533   6.924 -0.2908  0.3689  0.0433
  421MOL0     C56705   6.874   8.665   6.947  0.1744  0.3132  1.0623
  421MOL0     C56706   6.862   8.712   7.075 -0.3577  0.3733 -0.0003
  421MOL0     C56707   6.911   8.642   7.181  0.6149 -0.3411  0.5648
  421MOL0     O56708   6.893   8.696   7.305 -0.0764  0.8242  0.6695
  421MOL0     C56709   6.846   8.615   7.413  0.2647 -0.1004  0.9051
  421MOL0     C56710   6.928   8.659   7.530 -0.1755 -0.4881 -0.4535
  421MOL0     C56711   7.075   8.643   7.521  0.7570  0.1438 -1.2174
  421MOL0     C56712   7.132   8.505   7.544  0.2766  0.1065  0.6487
  421MOL0     C56713   7.274   8.497   7.585  0.1589 -0.8059  0.4440
  421MOL0     C56714   7.330   8.349   7.597 -1.0383 -0.5681  0.6802
  421MOL0     C56715   7.248   8.247   7.678  0.1279 -0.0301  1.3166
  421MOL0     C56716   7.146   8.183   7.593  0.0415 -0.4938 -0.0076
  421MOL0     N56717   7.026   8.169   7.675 -0.4603  0.6532 -0.6321
  421MOL0     C56718   7.016   8.082   7.784 -0.9180  0.0260  0.2858
  421MOL0     C56719   6.901   8.123   7.846 -0.8176  0.9380  0.7980
  421MOL0     C56720   6.853   8.063   7.979  0.5887  0.0496  0.2640
  421MOL0     C56721   6.770   7.941   7.954  0.3823  0.6834 -0.1890
  421MOL0     C56722   6.712   7.890   8.084  0.1368  0.2375 -0.9017
  421MOL0     C56723   6.575   7.806   8.074 -0.6955  0.1823  0.6563
  421MOL0     O56724   6.549   7.739   8.192 -0.2304 -0.4018 -0.0340
  421MOL0     C56725   6.472   7.797   8.293  0.4111  0.0824 -0.7089
  421MOL0     C56726   6.447   7.712   8.400 -0.8867  0.0790 -0.8739
  421MOL0     C56727   6.378   7.775   8.505  0.2664  0.7827  0.0637
  421MOL0     C56728   6.350   7.694   8.626 -0.5989  0.0139  0.0333
  421MOL0     C56729   6.321   7.897   8.488  0.4339  0.3896 -0.4869
  421MOL0     C56730   6.225   7.954   8.586 -0.8399  0.3382  1.1132
  421MOL0     O56731   6.117   7.860   8.623 -0.3191 -0.5724  0.4635
  421MOL0     C56732   6.014   7.916   8.691 -0.4634 -0.1259  0.5425
  421MOL0     C56733   5.987   7.851   8.808  0.8172 -0.4821 -0.8080
  421MOL0     C56734   5.880   7.896   8.883  0.3677 -0.4690 -0.2925
  421MOL0     C56735   5.804   8.015   8.845  0.0979 -0.5222 -0.5789
  421MOL0     O56736   5.692   8.036   8.923  0.0311 -0.2430 -0.4480
  421MOL0     C56737   5.571   8.074   8.858 -0.1980 -0.0897  0.0918
  421MOL0     C56738   5.456   8.065   8.969 -0.0427  0.5554  0.1311
  421MOL0     C56739   5.327   8.110   8.904 -0.1137  0.3331  0.3239
  421MOL0     C56740   5.208   8.120   8.998 -0.0088 -0.3317  0.0656
  421MOL0     C56741   5.088   8.182   8.920  0.5787  0.5118  0.0155
  421MOL0     C56742   5.105   8.340   8.913  0.4876 -0.3628 -0.6336
  421MOL0     C56743   5.037   8.434   9.026  0.5479 -0.4260  0.5822
  421MOL0     C56744   5.067   8.587   9.017 -0.4622  0.3156  0.4599
  421MOL0    Cl56745   5.239   8.621   9.014  0.4778 -0.1465  0.1915
  421MOL0     C56746   5.846   8.084   8.732  0.9434 -0.3969 -0.3501
  421MOL0     C56747   5.945   8.032   8.648 -0.2780  0.4164 -0.7232
  421MOL0     O56748   6.235   8.080   8.613 -0.2802  0.5205  0.2690
  421MOL0     C56749   6.361   7.979   8.386 -0.3312 -0.0004  0.2198
  421MOL0     C56750   6.434   7.933   8.290  0.1807  0.5491 -0.1247
  421MOL0     N56751   6.838   8.214   7.766 -0.3106  0.8887  0.7399
  421MOL0     N56752   6.918   8.250   7.666  0.5013  0.8965 -1.2685
  421MOL0     C56753   6.967   8.515   7.158  0.2585 -0.4263  0.0608
  421MOL0     C56754   6.987   8.463   7.031  0.5366 -0.0192 -0.9333
  421MOL0     C56755   6.930   8.374   6.601 -0.1160  0.1386 -0.6928
  421MOL0     C56756   6.917   8.409   6.471  1.0495 -0.5373  0.1843
  421MOL0     C56757   6.943   8.320   6.364  0.4106  0.5312 -0.4292
  421MOL0     C56758   6.984   8.193   6.396 -0.6910  0.0507 -0.3790
  421MOL0     O56759   7.021   8.104   6.302  0.5215 -0.2694  0.4592
  421MOL0     C56760   6.925   8.075   6.192 -0.0203  0.1331 -0.6095
  421MOL0     C56761   6.893   7.931   6.204  0.2124  0.2889  0.9588
  421MOL0     C56762   6.811   7.879   6.334 -0.3017  0.6906  0.4316
  421MOL0     C56763   6.676   7.949   6.353  0.0682 -1.0156 -0.6302
  421MOL0     C56764   6.599   7.879   6.459 -0.2527  0.2785  0.0240
  421MOL0     C56765   6.542   7.816   6.540  0.2753 -0.0159 -0.5932
  421MOL0     C56766   6.989   8.154   6.534  0.8694  0.3152 -0.8677
  421MOL0     C56767   6.957   8.243   6.641  0.3854  0.0931  0.0143
  421MOL0     H56768   6.812   8.722   6.878 -1.0251 -2.2781 -0.1440
  421MOL0     H56769   6.811   8.808   7.077  0.8701  1.1310 -2.0368
  421MOL0     H56770   6.738   8.625   7.422  0.0573 -1.2493 -0.0369
  421MOL0     H56771   6.867   8.509   7.399  0.3133 -0.0874  0.8796
  421MOL0     H56772   6.894   8.756   7.568  1.7655 -0.0258  0.1948
  421MOL0     H56773   6.889   8.585   7.601 -0.9412  1.2108  0.9627
  421MOL0     H56774   7.119   8.691   7.433  1.0543 -2.2182 -2.4432
  421MOL0     H56775   7.108   8.691   7.614 -4.4729  2.0109  0.0114
  421MOL0     H56776   7.073   8.453   7.620 -1.8077 -0.9539 -1.5736
  421MOL0     H56777   7.109   8.452   7.451  0.2152  3.7383 -1.5759
  421MOL0     H56778   7.340   8.545   7.512  0.0463 -1.1336  0.1184
  421MOL0     H56779   7.277   8.542   7.684  1.2635 -2.2708  1.1139
  421MOL0     H56780   7.353   8.303   7.500  1.6686  1.8181  0.0242
  421MOL0     H56781   7.424   8.359   7.651 -0.6664 -2.1868  0.3899
  421MOL0     H56782   7.313   8.174   7.726  0.4079 -0.1472  0.7636
  421MOL0     H56783   7.200   8.303   7.759  0.6570  1.8464  0.3837
  421MOL0     H56784   7.177   8.081   7.565  0.3742 -0.4961  0.3663
  421MOL0     H56785   7.120   8.234   7.500 -0.2686 -1.3338 -0.3938
  421MOL0     H56786   7.080   7.997   7.807  0.1920  0.8771  0.4024
  421MOL0     H56787   6.943   8.031   8.032  0.1489 -3.3623 -0.8014
  421MOL0     H56788   6.799   8.145   8.028  0.0295  0.2571 -0.6632
  421MOL0     H56789   6.834   7.867   7.905  0.7555  1.2145 -0.5099
  421MOL0     H56790   6.690   7.973   7.887  0.3636  0.3259 -0.3419
  421MOL0     H56791   6.692   7.974   8.151  0.4411  2.4686 -3.4358
  421MOL0     H56792   6.791   7.824   8.124 -0.2879  0.5716  0.5639
  421MOL0     H56793   6.580   7.723   8.003  0.6228 -0.3028  1.2805
  421MOL0     H56794   6.494   7.870   8.038 -0.0738 -0.5409 -2.3141
  421MOL0     H56795   6.502   7.619   8.398 -0.1910  0.4837 -0.9436
  421MOL0     H56796   6.430   7.621   8.642 -0.3313 -0.0974 -1.6460
  421MOL0     H56797   6.343   7.755   8.716  2.2795 -0.1156  0.4604
  421MOL0     H56798   6.259   7.636   8.610 -0.4755 -0.2250  0.1866
  421MOL0     H56799   6.039   7.761   8.839  0.1864 -1.4055 -2.3139
  421MOL0     H56800   5.848   7.841   8.971  3.2930 -1.3736  0.3130
  421MOL0     H56801   5.574   8.175   8.815 -3.9506  0.9591  1.8447
  421MOL0     H56802   5.546   8.009   8.773 -0.1727  1.1494 -0.8901
  421MOL0     H56803   5.442   7.964   9.009 -0.4842  0.6846  0.3104
  421MOL0     H56804   5.484   8.137   9.046 -1.5723  1.3051  0.0150
  421MOL0     H56805   5.305   8.049   8.816  0.1490 -0.5871  0.8822
  421MOL0     H56806   5.344   8.211   8.864 -0.1460  0.3054  0.2394
  421MOL0     H56807   5.185   8.018   9.029 -0.0518 -0.8664 -1.6023
  421MOL0     H56808   5.237   8.182   9.083 -0.0843  2.8638 -2.0531
  421MOL0     H56809   4.999   8.162   8.980  0.0283 -3.0352 -1.6697
  421MOL0     H56810   5.079   8.130   8.824  1.1986 -1.0475  0.7562
  421MOL0     H56811   5.213   8.358   8.907  0.0116  3.4166 -0.5042
  421MOL0     H56812   5.057   8.373   8.820 -0.9714  1.6659  0.7510
  421MOL0     H56813   5.078   8.401   9.122  5.4302 -2.9699 -2.0058
  421MOL0     H56814   4.928   8.433   9.011  0.9089  0.6373 -2.9703
  421MOL0     H56815   5.017   8.640   9.098 -1.3879 -0.9300  0.7429
  421MOL0     H56816   5.031   8.613   8.917 -2.1226  0.5307  1.0843
  421MOL0     H56817   5.787   8.168   8.698 -2.4748 -1.3019  2.7431
  421MOL0     H56818   5.977   8.077   8.554  1.0474 -1.0328 -1.0131
  421MOL0     H56819   6.342   8.085   8.374 -1.4762 -0.2250 -0.0988
  421MOL0     H56820   6.457   7.996   8.205 -1.2090  0.4614 -0.5886
  421MOL0     H56821   6.992   8.457   7.246 -3.4625  0.4045  1.8873
  421MOL0     H56822   7.039   8.368   7.025  1.5818  0.4609  0.2188
  421MOL0     H56823   6.888   8.513   6.464 -0.0560 -0.7767  0.9844
  421MOL0     H56824   6.931   8.345   6.259  0.9991 -2.1767 -1.2289
  421MOL0     H56825   6.833   8.133   6.193  0.4367  0.8982  0.8911
  421MOL0     H56826   6.991   8.100   6.108  3.1402  3.9248  2.5791
  421MOL0     H56827   6.988   7.878   6.187  0.6308  1.4041 -0.3798
  421MOL0     H56828   6.832   7.904   6.118  1.0265 -0.2677  0.5379
  421MOL0     H56829   6.870   7.878   6.426  1.7754  1.3944 -0.8296
  421MOL0     H56830   6.783   7.776   6.309 -0.7840  1.6223 -3.6440
  421MOL0     H56831   6.616   7.929   6.264  1.3836 -1.6169 -1.4109
  421MOL0     H56832   6.678   8.054   6.384  2.1328 -0.9722 -0.7810
  421MOL0     H56833   6.510   7.752   6.620  3.5750 -2.9028 -1.3527
  421MOL0     H56834   7.012   8.052   6.561 -3.0607 -0.7162 -0.8216
  421MOL0     H56835   6.958   8.215   6.745  0.6188  0.9921  0.2620
  422MOL0     O56836   2.695   8.178   1.021  0.2374 -0.4463  0.5711
  422MOL0     C56837   2.625   8.090   1.078 -0.2355 -0.3660 -0.3585
  422MOL0     O56838   2.676   7.984   1.147  0.3926 -0.0697  0.3070
  422MOL0     C56839   2.808   7.988   1.192  0.4689 -0.3843  0.6428
  422MOL0     C56840   2.877   8.092   1.235 -0.1508 -0.5294 -0.3189
  422MOL0     C56841   3.007   8.093   1.275  0.3631  1.0480 -0.2296
  422MOL0     C56842   3.077   7.974   1.273  0.5882 -0.8411 -0.1147
  422MOL0     O56843   3.200   7.973   1.331 -0.0350  0.6006  0.2638
  422MOL0     C56844   3.302   8.060   1.286  0.3579  0.0136 -0.6525
  422MOL0     C56845   3.424   8.060   1.381  0.6320 -0.6332  0.4162
  422MOL0     C56846   3.505   7.936   1.352  0.8747  0.2597  0.7049
  422MOL0     C56847   3.630   7.942   1.436 -0.0149 -0.0022  0.4087
  422MOL0     C56848   3.709   7.810   1.457 -0.5520  0.3470  0.2392
  422MOL0     C56849   3.660   7.721   1.573 -0.1320 -0.8275  0.2863
  422MOL0     C56850   3.740   7.587   1.591 -0.8294 -0.0742 -0.7344
  422MOL0     C56851   3.721   7.491   1.479 -0.4838 -1.2588 -0.9077
  422MOL0     N56852   3.757   7.346   1.520 -0.1794 -0.6380 -0.2428
  422MOL0     C56853   3.886   7.303   1.551 -0.5623  1.2614  0.8830
  422MOL0     C56854   3.872   7.170   1.569 -0.0272 -0.1215  0.0391
  422MOL0     C56855   3.982   7.065   1.604 -0.1892 -0.3419 -0.5421
  422MOL0     C56856   3.931   6.923   1.574  0.4969 -0.8909  1.0964
  422MOL0     C56857   3.929   6.883   1.421 -0.0297 -0.4765 -0.2789
  422MOL0     C56858   3.797   6.807   1.389  0.5049 -0.3841 -0.0088
  422MOL0     O56859   3.807   6.687   1.471 -0.2862  0.6427  0.4906
  422MOL0     C56860   3.703   6.593   1.475 -0.2232 -0.8395  0.0367
  422MOL0     C56861   3.701   6.517   1.594  0.7139 -0.4157 -0.5607
  422MOL0     C56862   3.590   6.429   1.622  0.3695 -0.6436 -0.4663
  422MOL0     C56863   3.611   6.337   1.741  0.4439 -1.0780 -0.6641
  422MOL0     C56864   3.480   6.431   1.535  0.7311  0.4755  0.2422
  422MOL0     C56865   3.359   6.347   1.554  0.6032  0.4472 -0.4434
  422MOL0     O56866   3.336   6.298   1.678  0.1566  0.1783 -0.2702
  422MOL0     C56867   3.244   6.196   1.682  0.0171  0.9502 -0.0801
  422MOL0     C56868   3.295   6.063   1.725  0.5631 -1.4054  0.1251
  422MOL0     C56869   3.216   5.949   1.729  0.2390  0.1084 -1.2486
  422MOL0     C56870   3.081   5.964   1.714 -0.9030 -0.2601 -0.3088
  422MOL0     O56871   3.009   5.847   1.721  0.7831 -0.3171 -0.8524
  422MOL0     C56872   2.865   5.871   1.695 -0.2554 -0.7539 -0.0857
  422MOL0     C56873   2.795   5.734   1.697  0.2476  0.8571 -0.2757
  422MOL0     C56874   2.641   5.735   1.716 -0.2073  0.4746 -0.0077
  422MOL0     C56875   2.615   5.808   1.851  0.0001 -0.2735  0.2223
  422MOL0     C56876   2.488   5.769   1.916 -0.6778  0.4969  0.0161
  422MOL0     C56877   2.375   5.870   1.878  0.3592 -0.5455 -0.2822
  422MOL0     C56878   2.317   5.847   1.737 -0.5129  0.0523 -0.1864
  422MOL0     C56879   2.341   5.977   1.662 -0.1846 -0.7266  0.0476
  422MOL0    Cl56880   2.263   5.955   1.507 -0.0597  0.4234  0.3059
  422MOL0     C56881   3.026   6.095   1.685  0.0673 -0.7254  0.3880
  422MOL0     C56882   3.105   6.212   1.668 -0.0608  0.1576 -0.1837
  422MOL0     O56883   3.292   6.333   1.455  0.6814 -0.2982 -1.0927
  422MOL0     C56884   3.487   6.516   1.418  0.5832  0.6126 -1.1026
  422MOL0     C56885   3.593   6.596   1.391 -0.1800  0.3133  0.0342
  422MOL0     N56886   3.734   7.145   1.560  0.2896  1.1554 -0.2489
  422MOL0     N56887   3.672   7.245   1.516 -0.1684  0.1460 -0.4598
  422MOL0     C56888   3.005   7.859   1.240 -0.0862 -0.7863  0.0887
  422MOL0     C56889   2.874   7.864   1.191  0.0018 -0.1485 -0.1820
  422MOL0     C56890   2.488   8.076   1.028  1.1373 -0.0086  0.2669
  422MOL0     C56891   2.422   7.944   1.006 -0.5270 -0.5838  0.7300
  422MOL0     C56892   2.297   7.927   0.947 -0.6027 -0.7833 -0.1827
  422MOL0     C56893   2.220   8.037   0.913  0.4472 -0.7233  0.5200
  422MOL0     O56894   2.092   8.026   0.856 -0.1034 -0.3314  0.5440
  422MOL0     C56895   2.097   8.074   0.714 -1.1179 -0.0180 -0.4326
  422MOL0     C56896   2.000   8.184   0.683 -1.0389 -0.6008 -0.2540
  422MOL0     C56897   2.006   8.242   0.543 -0.0000 -0.0327  0.7865
  422MOL0     C56898   1.946   8.142   0.435  0.3273 -0.3936  0.1770
  422MOL0     C56899   2.062   8.072   0.376  0.1419 -0.5197 -0.0654
  422MOL0     C56900   2.144   7.988   0.346  0.2142  0.5389 -0.3134
  422MOL0     C56901   2.286   8.166   0.937  0.6028  1.3269 -0.5698
  422MOL0     C56902   2.414   8.187   0.979 -0.4811 -0.3392  0.5063
  422MOL0     H56903   2.821   8.185   1.248  1.5175  0.1805  2.8573
  422MOL0     H56904   3.064   8.180   1.306  2.8836 -1.0882  1.6508
  422MOL0     H56905   3.332   8.030   1.185 -0.2028 -1.2543 -0.4698
  422MOL0     H56906   3.280   8.167   1.279 -0.9742 -0.2496 -0.7197
  422MOL0     H56907   3.492   8.144   1.360 -0.1039 -0.6253 -2.3099
  422MOL0     H56908   3.392   8.066   1.485 -3.4175 -2.6100 -0.5247
  422MOL0     H56909   3.449   7.845   1.376  3.0463 -0.6770  2.5179
  422MOL0     H56910   3.526   7.938   1.244 -2.1950  0.9038  0.0197
  422MOL0     H56911   3.696   8.012   1.383  0.8130  1.1714  2.8334
  422MOL0     H56912   3.614   7.988   1.533  2.9800  0.4466  0.7784
  422MOL0     H56913   3.691   7.746   1.369 -1.2069 -1.0322  1.3317
  422MOL0     H56914   3.816   7.822   1.475 -0.2140 -1.6035 -0.1750
  422MOL0     H56915   3.676   7.781   1.663 -2.8657 -0.6672  0.7450
  422MOL0     H56916   3.552   7.707   1.564  0.0170 -1.7023 -0.2871
  422MOL0     H56917   3.849   7.597   1.602 -0.4410 -2.8373 -1.2838
  422MOL0     H56918   3.693   7.562   1.686 -2.2717  1.5496 -0.9700
  422MOL0     H56919   3.796   7.514   1.403  1.1828  0.3016  1.1041
  422MOL0     H56920   3.621   7.497   1.435 -1.0811  1.1079  0.6203
  422MOL0     H56921   3.980   7.357   1.555 -0.1774  0.6376  0.5105
  422MOL0     H56922   4.079   7.089   1.559 -0.8961  3.0081 -0.5491
  422MOL0     H56923   3.993   7.075   1.712 -0.8641  0.6582 -0.5473
  422MOL0     H56924   3.830   6.923   1.616  0.5468  1.8185  1.4105
  422MOL0     H56925   4.004   6.858   1.623  1.8039  0.6720  1.3183
  422MOL0     H56926   4.009   6.813   1.396  0.6627 -0.7617  2.4706
  422MOL0     H56927   3.938   6.971   1.356 -2.9213 -0.5480 -0.9199
  422MOL0     H56928   3.784   6.777   1.284 -1.5728 -0.7336  0.3106
  422MOL0     H56929   3.708   6.862   1.418  0.7602  1.1545 -1.9572
  422MOL0     H56930   3.792   6.525   1.653  0.3742 -0.5471 -0.0144
  422MOL0     H56931   3.542   6.357   1.824  1.2116 -1.2258  0.0144
  422MOL0     H56932   3.593   6.233   1.709  1.1514 -1.5048  0.2781
  422MOL0     H56933   3.712   6.339   1.781 -0.2755 -4.2694  1.7625
  422MOL0     H56934   3.398   6.052   1.758  1.2195  0.4638 -1.1037
  422MOL0     H56935   3.255   5.848   1.742 -1.7169 -0.6250 -0.5336
  422MOL0     H56936   2.833   5.940   1.773  3.3607  1.8908 -0.6892
  422MOL0     H56937   2.849   5.921   1.599 -2.9954 -1.6524 -0.1805
  422MOL0     H56938   2.823   5.688   1.602  2.3774  0.3393  0.5385
  422MOL0     H56939   2.840   5.665   1.769  0.5736  1.4113  0.0634
  422MOL0     H56940   2.614   5.629   1.723 -0.2835  0.5545  1.1656
  422MOL0     H56941   2.591   5.789   1.635  0.7694 -0.9387 -1.6280
  422MOL0     H56942   2.698   5.800   1.921  0.5299 -1.2109 -0.4790
  422MOL0     H56943   2.610   5.915   1.831  0.6046 -0.0984  0.9943
  422MOL0     H56944   2.495   5.753   2.024 -0.7730 -0.5065 -0.1116
  422MOL0     H56945   2.456   5.671   1.877 -3.5330  0.7272  1.5325
  422MOL0     H56946   2.289   5.877   1.945 -2.8940  0.9562 -4.1747
  422MOL0     H56947   2.408   5.971   1.900 -1.5868 -0.4120  2.5066
  422MOL0     H56948   2.211   5.819   1.748 -1.3395  2.3166 -1.6065
  422MOL0     H56949   2.365   5.760   1.693  0.9296  1.2069 -0.9735
  422MOL0     H56950   2.448   5.992   1.646  0.0778  0.3633  2.2953
  422MOL0     H56951   2.304   6.060   1.723  0.6685 -1.0837  1.0970
  422MOL0     H56952   2.919   6.113   1.693  0.4366  1.7559  0.7299
  422MOL0     H56953   3.076   6.316   1.660  2.5236  0.9491 -0.3264
  422MOL0     H56954   3.407   6.523   1.345  1.2343 -3.3696 -2.4363
  422MOL0     H56955   3.594   6.667   1.309  0.0385 -0.9364 -1.0775
  422MOL0     H56956   3.047   7.761   1.259  3.2478  0.5111  0.0636
  422MOL0     H56957   2.805   7.783   1.171 -0.0942  0.1765 -1.2273
  422MOL0     H56958   2.479   7.861   1.045 -2.4003 -1.6056  1.4276
  422MOL0     H56959   2.253   7.831   0.923 -0.9408 -0.4566 -0.9079
  422MOL0     H56960   2.193   8.118   0.685 -1.4102  2.1678  1.5629
  422MOL0     H56961   2.078   7.985   0.654  1.6726 -0.5746 -0.6516
  422MOL0     H56962   2.020   8.272   0.743 -1.9270 -1.1035  0.8130
  422MOL0     H56963   1.897   8.155   0.708 -0.8299 -2.7136 -1.5727
  422MOL0     H56964   2.111   8.263   0.521  0.9543 -0.9421  3.9913
  422MOL0     H56965   1.949   8.333   0.525  1.3866  0.4489 -1.6663
  422MOL0     H56966   1.899   8.205   0.359  2.0582  4.1649  2.5388
  422MOL0     H56967   1.879   8.064   0.472  1.8606 -0.4339  3.1717
  422MOL0     H56968   2.213   7.924   0.295 -0.5779 -0.0904 -0.6108
  422MOL0     H56969   2.217   8.248   0.922 -3.0379 -1.7812 -2.7306
  422MOL0     H56970   2.459   8.286   0.986 -0.0147 -0.5845  1.0404
  423MOL0     O56971   4.433   9.761   3.932  0.7486  0.3602  0.0794
  423MOL0     C56972   4.386   9.874   3.902 -0.2599  0.2599 -0.2854
  423MOL0     O56973   4.462   9.980   3.841  0.6437 -0.4969  0.0513
  423MOL0     C56974   4.594   9.949   3.825  0.3839  0.3167 -0.2358
  423MOL0     C56975   4.687   9.932   3.926 -0.4023  0.8530  0.5335
  423MOL0     C56976   4.815   9.896   3.907 -0.1107 -0.6541  0.5274
  423MOL0     C56977   4.874   9.873   3.781 -0.0078 -0.8948 -0.7246
  423MOL0     O56978   4.999   9.843   3.749 -0.6960 -0.8306  0.7152
  423MOL0     C56979   5.105   9.849   3.852  0.0444 -0.0187  0.7155
  423MOL0     C56980   5.202   9.962   3.823  0.4344  0.2034 -0.0599
  423MOL0     C56981   5.150  10.094   3.888  0.4597  0.2949 -0.3378
  423MOL0     C56982   5.265  10.190   3.913  0.6936 -0.1932  0.1514
  423MOL0     C56983   5.333  10.253   3.790  0.6726  0.3642 -0.4622
  423MOL0     C56984   5.446  10.348   3.829  1.1398  0.1660 -0.3376
  423MOL0     C56985   5.518  10.430   3.719 -0.7941  0.0433  0.0157
  423MOL0     C56986   5.648  10.508   3.768  0.1545 -0.6212  0.1407
  423MOL0     N56987   5.768  10.423   3.758  0.4105  0.2832 -0.2093
  423MOL0     C56988   5.837  10.403   3.649  0.0719 -0.5095 -0.7525
  423MOL0     C56989   5.953  10.343   3.694  0.5222  0.7096  0.3107
  423MOL0     C56990   6.076  10.341   3.609  0.0095  0.0145  0.7409
  423MOL0     C56991   6.211  10.374   3.672  0.2822 -0.2086  0.2496
  423MOL0     C56992   6.238  10.525   3.675 -0.8006 -0.2795  0.3826
  423MOL0     C56993   6.140  10.595   3.770 -0.1738  1.3630  0.6193
  423MOL0     O56994   6.206  10.708   3.821 -0.1608 -0.8787  0.1328
  423MOL0     C56995   6.143  10.768   3.934  0.2579 -0.1637  0.1165
  423MOL0     C56996   6.031  10.726   3.996 -0.4011 -0.2459  0.7063
  423MOL0     C56997   5.975  10.800   4.098  0.0142 -0.8762  0.3951
  423MOL0     C56998   5.842  10.757   4.149  0.0008 -0.1420  0.5001
  423MOL0     C56999   6.042  10.918   4.143 -0.5345  0.4375  0.4786
  423MOL0     C57000   5.989  11.004   4.252  0.0618 -0.6454 -0.3877
  423MOL0     O57001   5.941  10.952   4.366  0.5640  0.6296 -0.0192
  423MOL0     C57002   5.864  11.024   4.451 -0.0838 -0.2450  0.5172
  423MOL0     C57003   5.924  11.110   4.549 -1.1239  1.1880  0.0604
  423MOL0     C57004   5.849  11.193   4.632  0.5662  0.6066  0.7303
  423MOL0     C57005   5.708  11.184   4.625  0.1626  0.7320  0.0747
  423MOL0     O57006   5.612  11.244   4.695 -0.1303 -0.2181  0.0405
  423MOL0     C57007   5.661  11.348   4.783  0.1203  0.7201 -0.6327
  423MOL0     C57008   5.531  11.422   4.826 -0.9207  0.3228  0.6858
  423MOL0     C57009   5.482  11.372   4.964 -0.0241  0.2246 -1.1806
  423MOL0     C57010   5.340  11.424   5.010 -0.7335  0.7431 -0.0898
  423MOL0     C57011   5.291  11.343   5.133  0.0486  0.5347  0.2908
  423MOL0     C57012   5.137  11.370   5.161 -0.6967 -0.3933  0.5956
  423MOL0     C57013   5.106  11.337   5.311  0.3464 -0.2152  0.4536
  423MOL0     C57014   4.978  11.411   5.340 -0.4051 -0.3919 -0.5876
  423MOL0    Cl57015   4.831  11.361   5.241  0.3263  0.0198 -0.0845
  423MOL0     C57016   5.652  11.097   4.529 -0.4920 -0.8226  0.4646
  423MOL0     C57017   5.729  11.012   4.449 -0.1815  0.0773 -0.7581
  423MOL0     O57018   6.002  11.127   4.232 -0.1618 -0.6439 -0.2734
  423MOL0     C57019   6.159  10.959   4.081 -0.1233  0.0673  0.1015
  423MOL0     C57020   6.202  10.892   3.971  0.4001  0.1553 -0.0090
  423MOL0     N57021   5.935  10.300   3.825  0.9336 -0.3162  0.2859
  423MOL0     N57022   5.823  10.352   3.858 -0.2824  0.0149 -0.5478
  423MOL0     C57023   4.777   9.900   3.679  0.1273  0.4281  0.6874
  423MOL0     C57024   4.646   9.930   3.694  0.1087  0.6611  0.3213
  423MOL0     C57025   4.240   9.898   3.920  0.0408 -0.3866 -0.1432
  423MOL0     C57026   4.186  10.020   3.913 -0.2766 -0.8231  0.1234
  423MOL0     C57027   4.050  10.048   3.944 -0.3597  0.4668 -0.4395
  423MOL0     C57028   3.969   9.936   3.977 -0.5244 -0.9024 -0.6138
  423MOL0     O57029   3.836   9.968   4.000 -0.1465  0.2140  0.7638
  423MOL0     C57030   3.772   9.881   4.095  0.3303  0.3446  0.1390
  423MOL0     C57031   3.621   9.927   4.113 -0.5772 -0.0072  0.8794
  423MOL0     C57032   3.541   9.812   4.168  0.1957 -0.9794  0.7556
  423MOL0     C57033   3.402   9.851   4.220 -0.2052 -1.2112 -0.0456
  423MOL0     C57034   3.308   9.901   4.121  0.1534 -0.2438 -0.6265
  423MOL0     C57035   3.214   9.916   4.055 -0.2316 -0.6712 -0.0205
  423MOL0     C57036   4.019   9.807   3.973  0.6852 -0.1573 -0.2250
  423MOL0     C57037   4.155   9.787   3.957  0.8146 -0.4687  0.2098
  423MOL0     H57038   4.639   9.932   4.024  0.9704  2.0053  1.2409
  423MOL0     H57039   4.880   9.875   3.991  1.6207 -0.7368 -0.7871
  423MOL0     H57040   5.061   9.867   3.950  1.1194  0.7623  1.0801
  423MOL0     H57041   5.165   9.757   3.851 -0.2069 -0.2050 -1.0895
  423MOL0     H57042   5.298   9.941   3.872  2.1817 -0.3257 -3.4276
  423MOL0     H57043   5.218   9.976   3.716  2.5967  1.7613  0.3992
  423MOL0     H57044   5.068  10.142   3.835  0.5500  3.4509  2.0697
  423MOL0     H57045   5.110  10.073   3.988 -0.9662  0.5064 -0.8493
  423MOL0     H57046   5.225  10.277   3.965  2.3989  0.6768  0.0706
  423MOL0     H57047   5.335  10.131   3.972  0.8016 -0.7487 -0.5251
  423MOL0     H57048   5.377  10.179   3.722  1.2629 -2.5303  2.7972
  423MOL0     H57049   5.257  10.312   3.738 -0.0643  3.0886  3.2920
  423MOL0     H57050   5.393  10.408   3.904 -0.1317  1.1109 -1.9025
  423MOL0     H57051   5.517  10.281   3.876  2.0056  3.6498  4.0747
  423MOL0     H57052   5.541  10.364   3.635 -1.5778  0.7023 -0.7289
  423MOL0     H57053   5.436  10.487   3.676 -0.3012  1.4194  0.8524
  423MOL0     H57054   5.641  10.552   3.868 -0.2932  0.4034 -0.3272
  423MOL0     H57055   5.658  10.595   3.702  0.9099 -0.0280  1.0244
  423MOL0     H57056   5.827  10.456   3.555  0.8020  3.0636  1.0339
  423MOL0     H57057   6.088  10.244   3.561 -1.4927  0.4132 -0.4948
  423MOL0     H57058   6.060  10.418   3.533  0.3240  1.3279  1.9453
  423MOL0     H57059   6.284  10.330   3.604  2.4186  1.1656  1.5456
  423MOL0     H57060   6.221  10.321   3.766 -1.0212 -0.5523  0.2162
  423MOL0     H57061   6.229  10.575   3.578 -1.9892 -0.4954  0.3670
  423MOL0     H57062   6.340  10.541   3.711  0.3185  0.6922 -2.8671
  423MOL0     H57063   6.121  10.524   3.851 -0.5224  0.3750 -0.2902
  423MOL0     H57064   6.043  10.607   3.721 -0.0591  0.6746  0.2006
  423MOL0     H57065   5.983  10.638   3.955 -0.4537 -0.0972  0.4473
  423MOL0     H57066   5.845  10.687   4.233  1.9605 -0.1845  0.4296
  423MOL0     H57067   5.789  10.847   4.182  0.6398  1.8218 -3.2960
  423MOL0     H57068   5.785  10.705   4.071 -0.5631 -1.4075  1.7057
  423MOL0     H57069   6.032  11.124   4.554 -0.5796 -1.2674 -2.4051
  423MOL0     H57070   5.904  11.267   4.689  0.0729  1.7888 -0.2755
  423MOL0     H57071   5.710  11.305   4.871 -0.8480  3.5284  1.4226
  423MOL0     H57072   5.731  11.416   4.734  1.2902  1.2957  1.6966
  423MOL0     H57073   5.557  11.529   4.822  0.9842 -0.1249 -1.6190
  423MOL0     H57074   5.451  11.403   4.754 -0.3366  2.0226 -0.4795
  423MOL0     H57075   5.550  11.403   5.044 -3.2483  2.3642  0.9835
  423MOL0     H57076   5.481  11.263   4.968  0.1713  0.2451 -0.2239
  423MOL0     H57077   5.363  11.528   5.035  1.3686  0.1484  0.7138
  423MOL0     H57078   5.271  11.426   4.926  2.1425 -1.2809 -2.7341
  423MOL0     H57079   5.363  11.363   5.213  2.0712 -3.8638 -0.1340
  423MOL0     H57080   5.297  11.237   5.109 -5.0692 -0.4504  1.9992
  423MOL0     H57081   5.101  11.470   5.136 -2.1201 -0.8450  0.7765
  423MOL0     H57082   5.081  11.301   5.097  1.1865 -2.4119  1.0000
  423MOL0     H57083   5.187  11.382   5.369 -0.2219  2.2518 -0.5251
  423MOL0     H57084   5.095  11.231   5.336 -0.4296 -0.0566  0.7937
  423MOL0     H57085   4.991  11.519   5.330 -0.6953 -0.1955  0.8987
  423MOL0     H57086   4.962  11.388   5.446  2.7785 -1.2690 -0.2027
  423MOL0     H57087   5.543  11.100   4.535 -0.3889  0.0694  2.5299
  423MOL0     H57088   5.673  10.944   4.386 -0.7387  0.8062 -1.0704
  423MOL0     H57089   6.209  11.050   4.111 -0.8997  1.0412 -1.4056
  423MOL0     H57090   6.282  10.936   3.912 -1.1549  0.3982 -2.0762
  423MOL0     H57091   4.811   9.877   3.578 -1.5219  0.5659  0.0618
  423MOL0     H57092   4.567   9.914   3.621 -0.7862 -3.1862  1.8820
  423MOL0     H57093   4.245  10.103   3.875  0.1228 -1.4261 -0.5957
  423MOL0     H57094   4.013  10.150   3.954  1.5567  1.2822 -1.2536
  423MOL0     H57095   3.775   9.779   4.055 -3.1803  1.3942 -3.4586
  423MOL0     H57096   3.820   9.893   4.193 -0.8537 -0.6269  0.8693
  423MOL0     H57097   3.586   9.947   4.011  1.6749 -2.9931 -0.6766
  423MOL0     H57098   3.615  10.010   4.183  1.0966 -1.3865  2.7975
  423MOL0     H57099   3.593   9.765   4.252 -0.7571  1.1717  2.6664
  423MOL0     H57100   3.524   9.739   4.088 -2.8670  0.2757  0.1224
  423MOL0     H57101   3.410   9.923   4.301 -3.3634  0.1166 -0.7559
  423MOL0     H57102   3.358   9.761   4.263 -0.8142 -0.0415  1.8852
  423MOL0     H57103   3.124   9.951   4.008 -0.3865  1.7729  1.8809
  423MOL0     H57104   3.959   9.720   3.995  1.1666 -0.7521 -1.1707
  423MOL0     H57105   4.202   9.692   3.983  0.8524  0.1204  2.4975
  424MOL0     O57106   0.579   3.029   7.261 -1.2988 -0.2772 -0.4295
  424MOL0     C57107   0.624   2.965   7.174 -0.3131 -0.2274  0.1524
  424MOL0     O57108   0.566   2.872   7.092  0.2980 -0.6685 -0.8558
  424MOL0     C57109   0.426   2.863   7.104  0.8173 -0.3029 -0.4298
  424MOL0     C57110   0.348   2.863   6.983 -0.9549  1.0260 -0.8938
  424MOL0     C57111   0.209   2.828   6.992 -0.3841 -0.0518 -0.3079
  424MOL0     C57112   0.151   2.794   7.119 -0.1920  0.0295 -0.1015
  424MOL0     O57113   0.024   2.749   7.142 -0.0188  0.5442 -0.2548
  424MOL0     C57114  -0.076   2.810   7.054  0.2356 -0.4578 -0.1097
  424MOL0     C57115  -0.216   2.787   7.113 -0.2847  0.7279 -0.7160
  424MOL0     C57116  -0.263   2.641   7.100  0.8000  0.9483  0.2970
  424MOL0     C57117  -0.393   2.598   7.169 -0.7209  0.0484  0.8414
  424MOL0     C57118  -0.432   2.445   7.136  0.5922  0.2618  0.2638
  424MOL0     C57119  -0.485   2.431   6.990 -0.1893 -0.1707 -0.0170
  424MOL0     C57120  -0.536   2.287   6.949  0.2357  0.7509  1.1979
  424MOL0     C57121  -0.582   2.294   6.802  0.9603 -0.2660 -0.1585
  424MOL0     N57122  -0.714   2.368   6.798 -0.1751  0.3977 -0.3846
  424MOL0     C57123  -0.753   2.436   6.689  0.1738  0.7985 -0.6554
  424MOL0     C57124  -0.890   2.434   6.698  0.3652  0.4803  0.1305
  424MOL0     C57125  -1.003   2.506   6.618  0.1719  0.4725 -0.4452
  424MOL0     C57126  -1.018   2.437   6.480  0.1937  0.3108  0.9322
  424MOL0     C57127  -1.118   2.510   6.383 -0.1475  0.1285  0.3178
  424MOL0     C57128  -1.034   2.614   6.307  0.0200  0.0636  0.1757
  424MOL0     O57129  -0.982   2.718   6.394  0.6213  0.5260  0.0409
  424MOL0     C57130  -0.890   2.791   6.327 -0.5930  0.8682 -0.8688
  424MOL0     C57131  -0.921   2.890   6.241  0.3417  0.0556  0.4945
  424MOL0     C57132  -0.829   2.980   6.186  0.7082  0.5690  1.0209
  424MOL0     C57133  -0.886   3.089   6.097  0.6827  1.6555 -0.3281
  424MOL0     C57134  -0.691   2.969   6.224 -0.1238  0.2001  0.8487
  424MOL0     C57135  -0.586   3.060   6.171 -0.2767 -0.6496  0.8221
  424MOL0     O57136  -0.621   3.180   6.133  0.2140 -0.6430 -0.1078
  424MOL0     C57137  -0.541   3.275   6.076 -0.7834  0.0987 -0.3747
  424MOL0     C57138  -0.559   3.410   6.113  0.3672  0.1770  0.4526
  424MOL0     C57139  -0.473   3.504   6.051 -0.3992  0.3072 -0.0502
  424MOL0     C57140  -0.364   3.478   5.969 -0.2073  0.1011 -0.5960
  424MOL0     O57141  -0.292   3.587   5.921 -0.1483  0.6525 -0.7288
  424MOL0     C57142  -0.161   3.561   5.864  1.0321 -0.5388 -0.2622
  424MOL0     C57143  -0.066   3.521   5.983  0.0595 -1.0321  0.3407
  424MOL0     C57144   0.079   3.487   5.936 -0.1825 -0.2370  0.4717
  424MOL0     C57145   0.162   3.415   6.048  0.0646 -0.6170 -0.1618
  424MOL0     C57146   0.314   3.430   6.027 -1.2044  0.4446 -0.3184
  424MOL0     C57147   0.397   3.364   6.141 -0.0489 -0.2926 -0.2439
  424MOL0     C57148   0.542   3.401   6.115  0.5645  0.4795  0.5719
  424MOL0     C57149   0.653   3.304   6.168 -0.3946  0.2228 -0.1179
  424MOL0    Cl57150   0.643   3.279   6.349  0.0496 -0.1872  0.0403
  424MOL0     C57151  -0.343   3.342   5.950 -0.7689  0.1288  0.2363
  424MOL0     C57152  -0.430   3.246   6.005  0.3221 -0.0604 -0.5036
  424MOL0     O57153  -0.468   3.018   6.165  0.1773 -0.3019 -0.0596
  424MOL0     C57154  -0.656   2.864   6.304 -1.1772 -0.5254 -0.2818
  424MOL0     C57155  -0.752   2.771   6.358  0.5327 -0.6530 -0.3488
  424MOL0     N57156  -0.924   2.367   6.815 -0.9004  0.1074 -0.1938
  424MOL0     N57157  -0.820   2.313   6.865 -0.2010 -0.7572 -0.0436
  424MOL0     C57158   0.233   2.801   7.232  0.0803 -0.5188 -0.3002
  424MOL0     C57159   0.368   2.835   7.234 -0.1984 -0.3097  0.1083
  424MOL0     C57160   0.779   2.952   7.179 -0.5698  0.2579  0.0788
  424MOL0     C57161   0.852   3.012   7.285  1.1491 -0.1099  0.5425
  424MOL0     C57162   0.988   3.050   7.280 -0.0207 -0.6168 -0.0331
  424MOL0     C57163   1.060   3.000   7.170 -0.0865  0.7204 -0.0634
  424MOL0     O57164   1.200   3.023   7.155  0.2977 -0.5736 -0.1697
  424MOL0     C57165   1.269   3.078   7.272 -0.3175 -0.0231  0.8559
  424MOL0     C57166   1.421   3.051   7.255  0.4184  0.1843  0.1894
  424MOL0     C57167   1.484   2.965   7.370 -0.5815  0.1896 -0.1198
  424MOL0     C57168   1.479   2.815   7.340 -0.0008 -0.1693  0.7552
  424MOL0     C57169   1.532   2.771   7.210  0.5142 -0.7901  0.9235
  424MOL0     C57170   1.597   2.733   7.112  0.3213 -0.8192  0.8545
  424MOL0     C57171   0.996   2.937   7.067 -0.3191  0.4474  1.0385
  424MOL0     C57172   0.851   2.913   7.065  0.8124 -0.3108  0.6255
  424MOL0     H57173   0.406   2.871   6.892 -0.7596 -3.7813 -1.4462
  424MOL0     H57174   0.152   2.825   6.899  2.3802 -0.1588 -2.1080
  424MOL0     H57175  -0.074   2.919   7.050  2.4126 -0.3361  2.1148
  424MOL0     H57176  -0.070   2.773   6.951 -2.2208 -1.7552  0.1137
  424MOL0     H57177  -0.206   2.796   7.222 -0.7887 -0.1317 -0.5902
  424MOL0     H57178  -0.292   2.851   7.066 -2.9282 -0.2776  1.8643
  424MOL0     H57179  -0.278   2.619   6.994  1.1745 -5.1103  1.1436
  424MOL0     H57180  -0.182   2.573   7.130 -1.4591 -0.6198  3.3491
  424MOL0     H57181  -0.383   2.609   7.278 -1.2462  0.1905  0.8768
  424MOL0     H57182  -0.472   2.669   7.142 -0.6160  0.1500  0.8021
  424MOL0     H57183  -0.342   2.386   7.156 -0.2201 -0.2199  2.7769
  424MOL0     H57184  -0.512   2.425   7.207 -0.4786  0.4263 -0.8614
  424MOL0     H57185  -0.569   2.501   6.982  0.8854  1.3939  1.5771
  424MOL0     H57186  -0.407   2.459   6.919 -1.8630  0.7576 -1.5832
  424MOL0     H57187  -0.456   2.212   6.957  1.2249  1.5614 -0.5578
  424MOL0     H57188  -0.615   2.247   7.013 -1.6790  1.4305 -0.6017
  424MOL0     H57189  -0.599   2.186   6.793 -0.3345 -0.5385  3.8951
  424MOL0     H57190  -0.504   2.326   6.731  3.1219 -0.8508  1.8213
  424MOL0     H57191  -0.693   2.478   6.609  3.0523 -0.0209  0.9062
  424MOL0     H57192  -1.097   2.490   6.672  0.0297 -1.0925 -1.0922
  424MOL0     H57193  -0.973   2.611   6.612 -0.2046  0.6748  0.8925
  424MOL0     H57194  -1.062   2.340   6.504 -1.2191  0.8699  0.6573
  424MOL0     H57195  -0.925   2.417   6.425  1.1471  3.9701  0.9185
  424MOL0     H57196  -1.205   2.537   6.444 -0.1676 -1.1576  0.8857
  424MOL0     H57197  -1.156   2.437   6.311  2.2551  0.1102 -1.0404
  424MOL0     H57198  -1.094   2.657   6.227 -0.7858  0.2305  0.8469
  424MOL0     H57199  -0.943   2.567   6.270 -1.2479 -1.2213 -1.4455
  424MOL0     H57200  -1.028   2.901   6.225 -0.1406 -1.9255  1.9219
  424MOL0     H57201  -0.987   3.061   6.066  1.0021 -1.0886  0.8292
  424MOL0     H57202  -0.892   3.184   6.151  0.8847  2.0193 -0.9424
  424MOL0     H57203  -0.833   3.090   6.002  2.2465  2.7025  0.5211
  424MOL0     H57204  -0.646   3.432   6.173  0.6490  0.1036  0.8956
  424MOL0     H57205  -0.499   3.604   6.083 -1.5632  0.5646 -1.6512
  424MOL0     H57206  -0.159   3.500   5.774 -2.3540  2.4735 -2.6204
  424MOL0     H57207  -0.118   3.660   5.842  0.8693 -0.7380 -1.5151
  424MOL0     H57208  -0.059   3.593   6.065  0.0371 -1.1378  0.4366
  424MOL0     H57209  -0.120   3.434   6.022 -1.9552 -0.4781 -1.0721
  424MOL0     H57210   0.138   3.573   5.903 -1.3928 -0.0014 -1.2458
  424MOL0     H57211   0.078   3.420   5.850  2.4849  1.3938 -0.9634
  424MOL0     H57212   0.142   3.464   6.144  2.1869 -0.9969  0.5246
  424MOL0     H57213   0.137   3.309   6.056  1.7536 -0.9902  0.4987
  424MOL0     H57214   0.339   3.536   6.024 -1.6739  0.5535 -0.5051
  424MOL0     H57215   0.341   3.382   5.933 -1.9929  1.7730 -1.2554
  424MOL0     H57216   0.375   3.416   6.235 -2.3805  0.9895 -1.4029
  424MOL0     H57217   0.392   3.255   6.150  0.4497 -0.2113  1.2750
  424MOL0     H57218   0.549   3.504   6.152 -0.6907  0.9356 -0.3874
  424MOL0     H57219   0.561   3.402   6.008 -1.4843 -0.1369  0.1542
  424MOL0     H57220   0.752   3.342   6.139 -0.2012 -1.5076 -1.9652
  424MOL0     H57221   0.643   3.204   6.124 -0.0637  0.6311 -1.1415
  424MOL0     H57222  -0.251   3.308   5.902  0.0401  1.7163  0.5758
  424MOL0     H57223  -0.408   3.146   5.968 -1.5466 -0.4632 -0.6280
  424MOL0     H57224  -0.549   2.849   6.314 -1.3332 -1.0078  0.7296
  424MOL0     H57225  -0.711   2.686   6.412  1.9448 -0.4404 -1.0443
  424MOL0     H57226   0.187   2.770   7.325 -0.4145 -0.5971 -0.5699
  424MOL0     H57227   0.433   2.845   7.321  0.0768  0.7725 -0.2077
  424MOL0     H57228   0.799   3.044   7.373  0.3047  1.7547 -0.5864
  424MOL0     H57229   1.035   3.106   7.359  1.0554 -0.6505 -0.6204
  424MOL0     H57230   1.263   3.187   7.276  0.5709  0.1905 -1.4793
  424MOL0     H57231   1.252   3.044   7.374  0.6469  0.1335  1.0818
  424MOL0     H57232   1.468   3.149   7.242  0.5568  0.2340  1.0165
  424MOL0     H57233   1.426   3.001   7.158  0.1552 -2.2071  1.3440
  424MOL0     H57234   1.428   2.989   7.461  0.5854  0.6948  0.4825
  424MOL0     H57235   1.584   3.004   7.390 -1.2382  0.6015  2.9267
  424MOL0     H57236   1.373   2.790   7.348 -0.0939 -0.9146 -1.7886
  424MOL0     H57237   1.532   2.762   7.419  0.2860  1.3463  1.6165
  424MOL0     H57238   1.657   2.697   7.032  0.7856 -0.5950  1.1016
  424MOL0     H57239   1.068   2.902   6.994 -1.4654  1.4639 -0.6645
  424MOL0     H57240   0.813   2.869   6.973 -0.5042 -1.5293  1.7103
  425MOL0     O57241  10.349   9.292   4.853  0.7416  0.1688 -0.2810
  425MOL0     C57242  10.399   9.371   4.934  0.0457 -0.3904  1.1711
  425MOL0     O57243  10.334   9.458   5.011 -0.6818 -0.2987 -1.0500
  425MOL0     C57244  10.200   9.450   5.038 -1.0513  0.8556  0.3904
  425MOL0     C57245  10.146   9.327   5.072  0.3659 -0.3039 -0.0303
  425MOL0     C57246  10.011   9.309   5.080 -0.6277 -0.2771 -0.8868
  425MOL0     C57247   9.923   9.415   5.055 -0.2109 -0.7677 -0.3701
  425MOL0     O57248   9.791   9.390   5.058  0.9158  0.5424  0.5012
  425MOL0     C57249   9.740   9.253   5.034 -0.9417 -0.7551  0.3862
  425MOL0     C57250   9.621   9.261   4.936 -0.2892  0.1672 -0.1571
  425MOL0     C57251   9.503   9.327   4.990  0.2412  0.3204  0.5234
  425MOL0     C57252   9.389   9.346   4.896  0.2209 -0.2734 -0.1354
  425MOL0     C57253   9.287   9.449   4.945  0.7064  0.2198 -0.0867
  425MOL0     C57254   9.197   9.385   5.057 -0.4573  0.3807  0.5921
  425MOL0     C57255   9.097   9.485   5.119 -0.6309 -0.1365  0.0624
  425MOL0     C57256   9.007   9.417   5.218 -0.4776 -0.2876  0.5192
  425MOL0     N57257   8.897   9.356   5.139 -0.5568 -0.0503  0.2860
  425MOL0     C57258   8.783   9.423   5.110 -0.5632  0.4981 -0.2567
  425MOL0     C57259   8.705   9.338   5.045 -0.9089  0.4303  0.2595
  425MOL0     C57260   8.588   9.379   4.966 -0.1647  0.1545 -0.5388
  425MOL0     C57261   8.490   9.455   5.057 -0.5791 -0.0831 -0.6100
  425MOL0     C57262   8.425   9.355   5.149  0.2003  0.5015 -0.7204
  425MOL0     C57263   8.337   9.425   5.245  0.2811 -0.1615 -0.5425
  425MOL0     O57264   8.238   9.330   5.297  1.1905  0.5870  0.9213
  425MOL0     C57265   8.112   9.384   5.330 -0.3896  0.1728 -0.5611
  425MOL0     C57266   8.082   9.519   5.361 -0.0154  0.6631  0.9283
  425MOL0     C57267   7.962   9.559   5.421 -0.4593  0.7768  0.5224
  425MOL0     C57268   7.953   9.705   5.452 -0.1815 -0.0843 -0.7402
  425MOL0     C57269   7.856   9.463   5.432  0.8129  0.0269 -0.4000
  425MOL0     C57270   7.713   9.491   5.467  0.6039 -0.2208  0.2534
  425MOL0     O57271   7.630   9.387   5.471  0.8859 -0.3582 -0.1170
  425MOL0     C57272   7.502   9.397   5.516  0.7376 -0.3903  0.3364
  425MOL0     C57273   7.443   9.277   5.540 -0.2441 -0.4775  0.0711
  425MOL0     C57274   7.323   9.250   5.605 -0.3937  0.0160  0.2552
  425MOL0     C57275   7.243   9.363   5.623 -0.5083  0.2315  0.5191
  425MOL0     O57276   7.109   9.349   5.650  0.0237  0.4103  0.2487
  425MOL0     C57277   7.047   9.221   5.682  0.5987  0.3628  0.4109
  425MOL0     C57278   6.896   9.253   5.702 -0.6453 -0.4990  0.2663
  425MOL0     C57279   6.829   9.217   5.567 -0.2694 -0.1302  0.6985
  425MOL0     C57280   6.678   9.269   5.568 -0.5572 -0.7874  0.3424
  425MOL0     C57281   6.585   9.166   5.624 -0.6988  0.4980  1.0008
  425MOL0     C57282   6.445   9.213   5.625 -0.6914 -0.1856  0.3849
  425MOL0     C57283   6.345   9.106   5.665  0.0900  0.1502 -0.1686
  425MOL0     C57284   6.199   9.151   5.686 -0.1753 -0.7651  0.0182
  425MOL0    Cl57285   6.140   9.220   5.531 -0.4261 -0.4952  0.5956
  425MOL0     C57286   7.290   9.494   5.593  0.1632 -0.2462 -0.3126
  425MOL0     C57287   7.420   9.508   5.541 -0.5630 -0.0085  0.1899
  425MOL0     O57288   7.678   9.613   5.460  1.2397  0.2384  0.1003
  425MOL0     C57289   7.884   9.333   5.389  1.4980 -0.3702  0.4773
  425MOL0     C57290   8.003   9.297   5.336  0.3412  0.7248 -0.1776
  425MOL0     N57291   8.765   9.212   5.051  0.4821 -0.2523 -0.1028
  425MOL0     N57292   8.885   9.228   5.109 -0.6104  0.3893 -0.5150
  425MOL0     C57293   9.977   9.544   5.025  0.1308  0.7385  0.0635
  425MOL0     C57294  10.117   9.565   5.019 -0.0825 -0.1408 -0.3043
  425MOL0     C57295  10.548   9.375   4.925 -0.4059 -1.5076 -0.8317
  425MOL0     C57296  10.621   9.262   4.879 -0.1241 -0.9123  0.6579
  425MOL0     C57297  10.761   9.270   4.860 -0.5156 -0.1239 -0.2912
  425MOL0     C57298  10.840   9.379   4.903 -0.5290  0.5712 -1.0695
  425MOL0     O57299  10.971   9.378   4.884  0.0016  0.2568  0.2513
  425MOL0     C57300  11.054   9.482   4.933  0.3607 -1.0169 -0.4650
  425MOL0     C57301  11.180   9.484   4.857 -0.3485  0.1854  0.0286
  425MOL0     C57302  11.171   9.589   4.748  0.0221 -1.2632  0.0864
  425MOL0     C57303  11.286   9.586   4.642 -0.6411  0.4097 -0.3804
  425MOL0     C57304  11.402   9.631   4.706  0.1477 -0.1315 -1.2962
  425MOL0     C57305  11.502   9.670   4.758  0.1758 -0.2062  0.0084
  425MOL0     C57306  10.766   9.479   4.962 -0.1364 -0.2814  0.2247
  425MOL0     C57307  10.630   9.481   4.974 -0.1803  0.3016 -0.8294
  425MOL0     H57308  10.199   9.233   5.083  0.0516 -0.5069 -0.2498
  425MOL0     H57309   9.994   9.210   5.120  4.6785 -1.0489  0.1808
  425MOL0     H57310   9.808   9.189   4.976 -1.6161 -0.0274 -1.2678
  425MOL0     H57311   9.722   9.199   5.128 -1.3203 -2.7267 -0.7575
  425MOL0     H57312   9.653   9.320   4.849 -2.6852  2.2237  0.2465
  425MOL0     H57313   9.598   9.162   4.896  1.1599 -0.0759 -0.4573
  425MOL0     H57314   9.461   9.274   5.076 -3.4447  0.5707 -0.9239
  425MOL0     H57315   9.530   9.428   5.021 -2.1956  1.9853 -2.2717
  425MOL0     H57316   9.419   9.387   4.799  0.1344  1.9547  0.7407
  425MOL0     H57317   9.331   9.255   4.876 -0.1936 -0.4619  1.7186
  425MOL0     H57318   9.356   9.531   4.965  4.7534 -1.7422 -4.2106
  425MOL0     H57319   9.228   9.475   4.856  0.0064  0.7703  0.5269
  425MOL0     H57320   9.140   9.295   5.031 -1.9742  0.6758  2.6711
  425MOL0     H57321   9.265   9.355   5.138  0.1288 -0.5603 -0.2156
  425MOL0     H57322   9.162   9.555   5.174  4.4059 -3.0346 -1.5379
  425MOL0     H57323   9.031   9.527   5.043 -0.6200 -0.1827  0.0281
  425MOL0     H57324   8.970   9.489   5.291  2.0701  2.2638 -0.4976
  425MOL0     H57325   9.056   9.336   5.274 -1.3193  0.4262  2.3794
  425MOL0     H57326   8.784   9.532   5.114 -0.3361  0.6992 -3.5243
  425MOL0     H57327   8.615   9.452   4.889 -2.4783 -0.7596 -2.3472
  425MOL0     H57328   8.535   9.295   4.921  2.6258 -0.4212 -3.0546
  425MOL0     H57329   8.415   9.511   4.999  0.7347  1.4842 -0.8558
  425MOL0     H57330   8.543   9.534   5.112 -0.6094 -1.0429  0.8496
  425MOL0     H57331   8.501   9.298   5.203 -0.5178 -0.0725 -0.2944
  425MOL0     H57332   8.351   9.293   5.097 -0.0764  2.2814 -2.5872
  425MOL0     H57333   8.289   9.516   5.208 -1.4451 -0.4280  0.8796
  425MOL0     H57334   8.391   9.471   5.329  4.0366 -1.0230 -2.2910
  425MOL0     H57335   8.172   9.579   5.367  1.2151 -1.2235  2.5939
  425MOL0     H57336   7.942   9.728   5.558  0.7679  1.3221 -0.9144
  425MOL0     H57337   8.051   9.750   5.437  0.9188 -1.5244  1.6164
  425MOL0     H57338   7.870   9.756   5.402 -0.0877  0.9620  0.1481
  425MOL0     H57339   7.506   9.193   5.510 -0.1102 -0.4463  0.2647
  425MOL0     H57340   7.288   9.152   5.636  0.7254 -0.3726  0.3161
  425MOL0     H57341   7.069   9.145   5.606  0.4804 -0.0631  0.8013
  425MOL0     H57342   7.088   9.178   5.773  1.0338 -0.5031 -0.1779
  425MOL0     H57343   6.850   9.192   5.780  0.9114 -0.3975  1.3282
  425MOL0     H57344   6.882   9.355   5.736  3.3859 -0.1329  1.4119
  425MOL0     H57345   6.835   9.110   5.546 -1.2714  0.1366 -1.1821
  425MOL0     H57346   6.884   9.266   5.486  0.6227 -0.2043  1.2466
  425MOL0     H57347   6.687   9.357   5.632  3.1203  2.3014 -3.7885
  425MOL0     H57348   6.647   9.304   5.469 -0.6625 -0.1083  0.6096
  425MOL0     H57349   6.615   9.129   5.722  2.9803  2.5763  0.8572
  425MOL0     H57350   6.593   9.083   5.552 -0.5786  0.3905  1.1376
  425MOL0     H57351   6.440   9.286   5.707  2.7160  0.6745 -0.0513
  425MOL0     H57352   6.429   9.251   5.524  2.0316 -1.0335 -0.4396
  425MOL0     H57353   6.379   9.044   5.748 -0.7453 -2.0778 -1.3996
  425MOL0     H57354   6.349   9.033   5.584  0.5250  0.6161 -0.5747
  425MOL0     H57355   6.192   9.222   5.769 -0.2310 -0.3187 -0.3645
  425MOL0     H57356   6.128   9.072   5.711  0.5252 -0.2538  4.4072
  425MOL0     H57357   7.232   9.585   5.599  3.0657  1.7561 -0.8969
  425MOL0     H57358   7.460   9.606   5.519 -1.6292  0.3877 -0.0595
  425MOL0     H57359   7.810   9.253   5.386  2.7512 -1.5578 -0.0065
  425MOL0     H57360   8.014   9.196   5.299 -0.7017  0.4180  0.3222
  425MOL0     H57361   9.912   9.631   5.021 -0.3654  0.4687  1.6232
  425MOL0     H57362  10.166   9.660   4.998  0.6861  0.2646  2.7391
  425MOL0     H57363  10.569   9.169   4.859  0.6787 -1.2180 -0.0316
  425MOL0     H57364  10.819   9.188   4.820  0.6928 -1.1077  3.1106
  425MOL0     H57365  11.014   9.583   4.933  1.3547 -0.6005  0.3542
  425MOL0     H57366  11.067   9.462   5.040 -2.1656  0.9807  0.3028
  425MOL0     H57367  11.196   9.386   4.810  0.8910 -0.1934  1.1853
  425MOL0     H57368  11.244   9.500   4.943 -1.4072  2.2683  0.4744
  425MOL0     H57369  11.168   9.687   4.797 -1.2697 -0.2473 -1.9147
  425MOL0     H57370  11.075   9.578   4.697 -0.8082  0.2917  1.2387
  425MOL0     H57371  11.271   9.657   4.560 -1.1416  0.8386  0.0676
  425MOL0     H57372  11.301   9.488   4.596  1.1759  0.5459 -0.1218
  425MOL0     H57373  11.591   9.687   4.815 -0.0381  1.7707 -0.1629
  425MOL0     H57374  10.821   9.565   4.999  0.3598 -0.7258  0.5389
  425MOL0     H57375  10.580   9.562   5.027  1.2978  1.5850 -1.3304
  426MOL0     O57376   0.436   3.456   0.425  0.5850  0.2246  0.0734
  426MOL0     C57377   0.513   3.547   0.385  0.4924  0.3961 -0.4653
  426MOL0     O57378   0.468   3.675   0.345  0.0880  0.1763 -1.4530
  426MOL0     C57379   0.332   3.683   0.315 -0.6381  0.3488  0.8706
  426MOL0     C57380   0.277   3.611   0.211 -0.6191 -0.6562  0.0022
  426MOL0     C57381   0.148   3.640   0.169 -0.2475 -0.0327 -0.0224
  426MOL0     C57382   0.083   3.748   0.230 -0.4016 -0.1483 -0.1582
  426MOL0     O57383  -0.044   3.777   0.181 -0.6237 -0.0421  0.7849
  426MOL0     C57384  -0.152   3.779   0.273  0.3243 -0.3109  1.3851
  426MOL0     C57385  -0.281   3.799   0.183 -0.8263  0.3864 -0.2459
  426MOL0     C57386  -0.409   3.787   0.266  0.6183 -0.4911  0.3935
  426MOL0     C57387  -0.534   3.795   0.177  1.3707  0.9722  0.6568
  426MOL0     C57388  -0.671   3.766   0.248  0.3930 -1.0255 -0.0516
  426MOL0     C57389  -0.703   3.885   0.344  0.0207  0.0635 -0.0856
  426MOL0     C57390  -0.851   3.872   0.388 -0.2079  0.0595 -0.7998
  426MOL0     C57391  -0.925   4.006   0.399  0.8135  0.3954  0.7983
  426MOL0     N57392  -1.063   3.992   0.433 -0.0513 -0.3983 -0.0804
  426MOL0     C57393  -1.132   4.100   0.467 -0.0206 -0.5127 -0.7621
  426MOL0     C57394  -1.260   4.059   0.463 -0.2799 -0.5486 -0.5328
  426MOL0     C57395  -1.383   4.144   0.490 -0.2397  0.0542  0.1688
  426MOL0     C57396  -1.482   4.088   0.589  0.0358 -1.1196 -0.8399
  426MOL0     C57397  -1.627   4.133   0.572  0.2524  0.9204 -0.2119
  426MOL0     C57398  -1.643   4.281   0.574 -0.1875 -0.5479  0.4023
  426MOL0     O57399  -1.620   4.331   0.439 -0.5183  0.5359  0.5001
  426MOL0     C57400  -1.600   4.466   0.431  1.0777  0.4430 -0.2294
  426MOL0     C57401  -1.511   4.541   0.504 -0.4251  0.0134  0.8182
  426MOL0     C57402  -1.491   4.675   0.488  0.3076 -0.3837  0.3348
  426MOL0     C57403  -1.392   4.732   0.582  1.0286  0.3562  0.5414
  426MOL0     C57404  -1.571   4.753   0.397 -0.3192  0.6622  0.4570
  426MOL0     C57405  -1.563   4.900   0.386  0.3452  0.3859 -0.3444
  426MOL0     O57406  -1.551   4.962   0.261  0.3682 -0.1039 -0.1824
  426MOL0     C57407  -1.574   5.103   0.252  0.1795  0.7079 -0.9228
  426MOL0     C57408  -1.707   5.161   0.256  0.5318  0.1726 -0.1806
  426MOL0     C57409  -1.716   5.298   0.216 -0.3633 -0.1774 -0.2438
  426MOL0     C57410  -1.607   5.382   0.195  0.5185 -0.1093  0.4104
  426MOL0     O57411  -1.612   5.524   0.181  0.3500  0.4361 -0.3286
  426MOL0     C57412  -1.736   5.594   0.210  0.6330 -0.2603  0.6217
  426MOL0     C57413  -1.708   5.739   0.275 -0.6425  0.0175 -0.0323
  426MOL0     C57414  -1.838   5.808   0.311  0.7694 -0.8228  0.0363
  426MOL0     C57415  -1.843   5.960   0.336  1.8861  0.5582 -0.5297
  426MOL0     C57416  -1.986   6.001   0.383  0.0446  0.0711 -0.5274
  426MOL0     C57417  -2.040   6.104   0.288 -0.0819 -0.5201  0.2814
  426MOL0     C57418  -2.182   6.136   0.322  0.3346  0.4205 -0.1686
  426MOL0     C57419  -2.245   6.263   0.261 -0.9242  0.7940  0.2326
  426MOL0    Cl57420  -2.228   6.246   0.076 -0.6892 -0.5305 -0.0904
  426MOL0     C57421  -1.484   5.319   0.193 -0.0425 -0.5163  0.4369
  426MOL0     C57422  -1.470   5.181   0.225  1.4395  0.3913  0.2998
  426MOL0     O57423  -1.585   4.963   0.493  0.0359 -0.0362 -0.2217
  426MOL0     C57424  -1.650   4.671   0.309  0.1678 -0.2227  0.3431
  426MOL0     C57425  -1.663   4.534   0.327  0.6744  0.2311 -0.0689
  426MOL0     N57426  -1.259   3.926   0.432  0.0058  0.2402 -0.4447
  426MOL0     N57427  -1.148   3.881   0.414  0.0897 -0.0722  0.3771
  426MOL0     C57428   0.142   3.826   0.328  0.6010  1.1045  0.2942
  426MOL0     C57429   0.260   3.785   0.380 -0.5905 -0.0343 -0.3584
  426MOL0     C57430   0.658   3.521   0.397  0.1268 -0.7081 -0.0303
  426MOL0     C57431   0.739   3.614   0.351 -0.5494 -0.6450  0.5832
  426MOL0     C57432   0.879   3.593   0.355  0.3143 -0.2167  0.5218
  426MOL0     C57433   0.934   3.479   0.419  0.0992  0.2833  0.1765
  426MOL0     O57434   1.072   3.462   0.424  0.1863 -0.1997 -0.1400
  426MOL0     C57435   1.119   3.437   0.558 -0.2957 -0.5876  0.2483
  426MOL0     C57436   1.269   3.482   0.566 -0.1489  0.1982 -0.0706
  426MOL0     C57437   1.363   3.382   0.501 -0.4610 -0.0179 -0.2375
  426MOL0     C57438   1.365   3.378   0.347  0.1917  0.0791 -0.6274
  426MOL0     C57439   1.481   3.291   0.308  0.5633  0.1508 -0.3270
  426MOL0     C57440   1.585   3.229   0.271 -0.0882 -0.0797 -0.5282
  426MOL0     C57441   0.845   3.387   0.477 -0.0966  0.6013 -0.3364
  426MOL0     C57442   0.702   3.399   0.458  0.2594 -1.7292  0.2522
  426MOL0     H57443   0.335   3.530   0.168  0.1173  0.4549 -1.1825
  426MOL0     H57444   0.087   3.581   0.101 -2.2904  1.1806  0.6700
  426MOL0     H57445  -0.161   3.687   0.332 -0.9814 -0.9976  0.1998
  426MOL0     H57446  -0.140   3.863   0.342  0.5248  1.1465 -0.3505
  426MOL0     H57447  -0.275   3.895   0.131  0.2675  0.8249  0.6511
  426MOL0     H57448  -0.276   3.719   0.109 -1.8633  0.4693 -0.4291
  426MOL0     H57449  -0.419   3.696   0.327 -0.9992 -1.0635 -0.6500
  426MOL0     H57450  -0.431   3.868   0.337 -2.1496 -0.0475 -0.8270
  426MOL0     H57451  -0.535   3.891   0.124 -3.4109  0.3249 -0.8953
  426MOL0     H57452  -0.536   3.717   0.101  2.5830  0.8954  0.6775
  426MOL0     H57453  -0.749   3.751   0.173  2.0381  0.3996 -2.1898
  426MOL0     H57454  -0.671   3.675   0.308  0.8178  1.0381  3.3493
  426MOL0     H57455  -0.639   3.889   0.433 -0.5319 -0.9180  0.3801
  426MOL0     H57456  -0.696   3.984   0.298 -0.4325  0.3814  0.5068
  426MOL0     H57457  -0.909   3.807   0.322  0.5212 -2.0613  0.5271
  426MOL0     H57458  -0.857   3.826   0.488  2.0003  0.1692 -0.5715
  426MOL0     H57459  -0.922   4.056   0.302  1.7539 -1.1313  0.0026
  426MOL0     H57460  -0.875   4.071   0.472 -1.7036  2.0025  1.1861
  426MOL0     H57461  -1.102   4.202   0.489  0.1349 -0.8822  0.8924
  426MOL0     H57462  -1.362   4.245   0.528 -0.0321 -0.4069  1.2991
  426MOL0     H57463  -1.438   4.157   0.396 -0.9674  2.8481  0.8990
  426MOL0     H57464  -1.458   4.117   0.692  1.1698 -3.6821 -0.3080
  426MOL0     H57465  -1.465   3.980   0.589  0.8021 -1.0087  0.1934
  426MOL0     H57466  -1.685   4.095   0.657 -0.4905 -1.6472 -1.7760
  426MOL0     H57467  -1.669   4.090   0.481  0.6769  2.9830 -1.4537
  426MOL0     H57468  -1.580   4.330   0.649  0.6630  0.2602 -0.8113
  426MOL0     H57469  -1.748   4.293   0.605 -0.7066 -0.1641 -1.3525
  426MOL0     H57470  -1.469   4.502   0.596 -0.0145  1.2201  1.1650
  426MOL0     H57471  -1.451   4.767   0.667  0.7692 -1.5531  1.1986
  426MOL0     H57472  -1.320   4.660   0.621  0.0563  0.5746  2.8797
  426MOL0     H57473  -1.330   4.808   0.534  0.2016  0.9281  0.3559
  426MOL0     H57474  -1.798   5.103   0.272  0.6062 -0.2344 -1.1410
  426MOL0     H57475  -1.816   5.338   0.206 -0.3379 -0.3926 -1.6859
  426MOL0     H57476  -1.792   5.587   0.116  1.3656  3.0391 -0.1930
  426MOL0     H57477  -1.799   5.547   0.287 -0.3542 -0.3548 -0.2288
  426MOL0     H57478  -1.650   5.713   0.363  1.1708 -1.2685 -1.5376
  426MOL0     H57479  -1.648   5.806   0.213  0.1003  0.2131  0.8888
  426MOL0     H57480  -1.886   5.751   0.391 -0.6299  0.3888  0.1103
  426MOL0     H57481  -1.905   5.796   0.225  0.5178 -2.9752  0.4843
  426MOL0     H57482  -1.770   5.972   0.416  1.5357  1.1662 -0.2988
  426MOL0     H57483  -1.810   6.018   0.250 -0.5122  2.8963  0.0076
  426MOL0     H57484  -1.984   6.035   0.487 -0.6323  1.2090 -0.8679
  426MOL0     H57485  -2.057   5.918   0.384  1.1472 -0.8937 -0.4969
  426MOL0     H57486  -1.974   6.191   0.288  0.2426 -0.7449  1.7712
  426MOL0     H57487  -2.038   6.072   0.183  1.4282  1.0027 -0.2088
  426MOL0     H57488  -2.197   6.145   0.430  0.2456  0.1293 -0.1563
  426MOL0     H57489  -2.242   6.047   0.301  1.2752 -1.0795  2.9419
  426MOL0     H57490  -2.189   6.354   0.285  1.5346 -0.0623 -1.8346
  426MOL0     H57491  -2.350   6.279   0.288 -1.4703  1.8993 -2.2582
  426MOL0     H57492  -1.389   5.372   0.189 -0.3919  0.0112 -2.7931
  426MOL0     H57493  -1.380   5.123   0.208  0.5456 -0.5707 -1.4657
  426MOL0     H57494  -1.703   4.733   0.237  3.3378  1.9993 -0.3142
  426MOL0     H57495  -1.737   4.473   0.275 -1.8908  0.7877  2.6393
  426MOL0     H57496   0.091   3.910   0.376 -2.9585 -1.4011  1.3231
  426MOL0     H57497   0.310   3.846   0.455  0.0840 -0.6924 -0.2577
  426MOL0     H57498   0.705   3.699   0.292  3.2598  2.4376  2.3087
  426MOL0     H57499   0.944   3.663   0.304 -1.6274  1.9980  0.9482
  426MOL0     H57500   1.060   3.482   0.638  0.4903  1.9327 -0.4832
  426MOL0     H57501   1.115   3.328   0.572 -0.5975 -1.1252 -3.1059
  426MOL0     H57502   1.306   3.503   0.667 -1.2504  1.4784  0.1037
  426MOL0     H57503   1.268   3.579   0.514  1.2425  0.4997  0.4256
  426MOL0     H57504   1.351   3.283   0.546 -0.0996  0.6895  1.4934
  426MOL0     H57505   1.463   3.420   0.523 -0.7979  0.9231 -0.3179
  426MOL0     H57506   1.374   3.483   0.320 -1.6209  0.6138  0.6540
  426MOL0     H57507   1.270   3.337   0.313 -0.0334  1.0224 -1.1597
  426MOL0     H57508   1.669   3.169   0.242  0.1080 -0.1701  0.1985
  426MOL0     H57509   0.888   3.292   0.509 -0.7342 -0.9825 -3.7848
  426MOL0     H57510   0.633   3.321   0.490 -1.5674 -0.0974  0.4445
  427MOL0     O57511   3.038   8.806   8.548  0.1375  0.4680  0.4399
  427MOL0     C57512   3.075   8.887   8.632 -0.2065  0.5376  0.0961
  427MOL0     O57513   2.994   8.986   8.686 -0.5908  0.5876 -0.1132
  427MOL0     C57514   2.865   8.990   8.649  0.2400  0.1401  1.1835
  427MOL0     C57515   2.777   8.885   8.654 -0.9044 -1.0940 -0.0652
  427MOL0     C57516   2.646   8.918   8.629  0.5577  0.0791 -0.7445
  427MOL0     C57517   2.606   9.047   8.599  0.3974 -0.2539 -0.0955
  427MOL0     O57518   2.469   9.053   8.578  0.6650 -0.1032 -0.1688
  427MOL0     C57519   2.387   9.165   8.630 -0.4316  1.2060 -0.0471
  427MOL0     C57520   2.236   9.137   8.620 -0.4349 -0.4607  0.5264
  427MOL0     C57521   2.172   9.148   8.483  0.2791 -0.3579  0.1937
  427MOL0     C57522   2.021   9.187   8.491  0.4135  0.2548  0.2158
  427MOL0     C57523   2.008   9.339   8.503  0.8781  0.2728  0.6603
  427MOL0     C57524   1.855   9.371   8.504 -0.7750  0.0066  0.0127
  427MOL0     C57525   1.824   9.522   8.469 -0.4732  0.7236 -0.3954
  427MOL0     C57526   1.697   9.569   8.538 -0.1977 -0.2895  0.1366
  427MOL0     N57527   1.579   9.525   8.456 -0.3810  0.2885 -0.3233
  427MOL0     C57528   1.541   9.597   8.343  1.1464  0.0095 -0.2137
  427MOL0     C57529   1.415   9.556   8.313  0.6585  0.5044 -0.5341
  427MOL0     C57530   1.331   9.612   8.213 -0.6025  0.5561  0.8802
  427MOL0     C57531   1.233   9.728   8.232  0.6083  0.1174 -0.1920
  427MOL0     C57532   1.152   9.746   8.103 -0.1468  0.0518 -0.0126
  427MOL0     C57533   1.033   9.844   8.116  0.4072 -1.0967 -0.9368
  427MOL0     O57534   1.013   9.904   7.987  0.1567  0.1061 -0.2472
  427MOL0     C57535   0.944   9.838   7.884 -0.2570 -0.7191  0.3634
  427MOL0     C57536   1.019   9.811   7.766  0.6479  0.7360 -0.6341
  427MOL0     C57537   0.961   9.747   7.654  0.9892 -0.6275 -0.0650
  427MOL0     C57538   1.043   9.717   7.537  0.3297 -0.3341 -0.0180
  427MOL0     C57539   0.820   9.710   7.661  0.1262 -0.1407 -0.6100
  427MOL0     C57540   0.733   9.650   7.554  0.1427 -0.8643  0.1542
  427MOL0     O57541   0.612   9.692   7.539  0.5392 -0.5891  0.2924
  427MOL0     C57542   0.536   9.637   7.436  0.3300  0.3080 -0.1487
  427MOL0     C57543   0.467   9.729   7.357 -0.8274 -0.9100  0.0785
  427MOL0     C57544   0.401   9.676   7.238  0.7307  0.1731  0.1614
  427MOL0     C57545   0.408   9.539   7.206  0.1842  0.6547  0.4417
  427MOL0     O57546   0.322   9.507   7.102  0.3332 -0.8514 -0.1476
  427MOL0     C57547   0.214   9.417   7.135  0.9500  0.2699 -0.7285
  427MOL0     C57548   0.074   9.478   7.096  0.0274  0.6423  0.3124
  427MOL0     C57549   0.063   9.627   7.138  0.3022  0.4629 -0.0445
  427MOL0     C57550  -0.079   9.667   7.107 -0.4400 -0.4850  0.9592
  427MOL0     C57551  -0.101   9.805   7.177 -0.1090  0.1916 -0.1681
  427MOL0     C57552  -0.257   9.848   7.203  1.0102  0.4921  0.2447
  427MOL0     C57553  -0.275   9.996   7.251 -0.4678  0.1997  0.6838
  427MOL0     C57554  -0.418  10.039   7.253  0.3195  0.6894  0.4540
  427MOL0    Cl57555  -0.486  10.047   7.084 -0.4196 -0.2355 -0.2584
  427MOL0     C57556   0.465   9.452   7.298 -0.2133 -0.2716  0.1793
  427MOL0     C57557   0.528   9.503   7.409  0.2466 -0.3904 -0.7366
  427MOL0     O57558   0.788   9.565   7.487 -0.0764  0.1486  0.4796
  427MOL0     C57559   0.750   9.747   7.776 -0.7357 -1.3920 -0.2906
  427MOL0     C57560   0.816   9.804   7.888 -0.1655 -0.0791  0.0787
  427MOL0     N57561   1.385   9.454   8.397  0.3606  0.8312 -0.5695
  427MOL0     N57562   1.475   9.442   8.490  0.0751  0.1666  0.3397
  427MOL0     C57563   2.704   9.147   8.593  0.7027  0.2165 -0.0368
  427MOL0     C57564   2.844   9.120   8.612 -0.1037 -0.1404 -0.2666
  427MOL0     C57565   3.220   8.886   8.669 -0.1808  0.4126  0.3941
  427MOL0     C57566   3.304   8.781   8.630  0.1415 -0.0077 -0.3246
  427MOL0     C57567   3.444   8.780   8.680  0.5387 -0.4634  0.6041
  427MOL0     C57568   3.489   8.877   8.770 -0.1317 -0.1111 -1.1618
  427MOL0     O57569   3.614   8.893   8.814 -0.8005  0.2924  0.1773
  427MOL0     C57570   3.720   8.815   8.761  0.0679  0.1330 -0.1411
  427MOL0     C57571   3.835   8.806   8.868 -0.1956 -0.2397 -0.3730
  427MOL0     C57572   3.899   8.941   8.894 -0.0771  0.3172 -0.5651
  427MOL0     C57573   4.027   8.986   8.819  0.6577  0.6021  0.3323
  427MOL0     C57574   4.142   8.893   8.811  0.8795  0.2684  0.7072
  427MOL0     C57575   4.228   8.806   8.794  0.0016 -0.8136 -0.3286
  427MOL0     C57576   3.400   8.978   8.807  0.4685  0.2949  0.7279
  427MOL0     C57577   3.268   8.974   8.764 -0.2242  0.0565  0.5012
  427MOL0     H57578   2.792   8.782   8.685 -0.8031 -1.1063 -0.1553
  427MOL0     H57579   2.571   8.840   8.634  0.8752 -0.1522  0.8894
  427MOL0     H57580   2.413   9.188   8.734  0.6981 -3.3292  0.8832
  427MOL0     H57581   2.418   9.246   8.563  2.3572 -1.8340 -2.7969
  427MOL0     H57582   2.230   9.032   8.651 -1.2543 -0.8277 -0.8032
  427MOL0     H57583   2.171   9.197   8.685 -1.1950  0.9195 -1.4032
  427MOL0     H57584   2.213   9.217   8.408 -2.5150 -3.1117 -4.3525
  427MOL0     H57585   2.182   9.051   8.433 -1.0023  0.5866 -2.0352
  427MOL0     H57586   1.971   9.158   8.398 -2.0016  1.4773  1.0495
  427MOL0     H57587   1.978   9.132   8.575 -1.3008  1.1677 -0.0241
  427MOL0     H57588   2.058   9.382   8.590  1.8550  5.6198 -2.1086
  427MOL0     H57589   2.059   9.378   8.414  0.5498 -2.4820 -0.8639
  427MOL0     H57590   1.804   9.321   8.421 -1.9870  4.2783 -2.1329
  427MOL0     H57591   1.810   9.352   8.602  2.8831 -1.2595  1.6043
  427MOL0     H57592   1.902   9.586   8.510 -0.2674 -0.1628  0.6246
  427MOL0     H57593   1.818   9.534   8.360  1.0093 -1.4740 -0.8007
  427MOL0     H57594   1.702   9.678   8.545 -1.4077 -0.3048  2.2908
  427MOL0     H57595   1.684   9.521   8.635  0.2238  0.6567  0.6702
  427MOL0     H57596   1.601   9.679   8.306 -0.5760  1.4102 -0.0234
  427MOL0     H57597   1.396   9.640   8.129 -2.3474  1.3220 -0.2752
  427MOL0     H57598   1.275   9.525   8.177 -1.3529  0.4275  2.2854
  427MOL0     H57599   1.291   9.820   8.244  1.8514 -0.7437  0.6681
  427MOL0     H57600   1.169   9.715   8.320  1.0319 -1.0053 -0.0368
  427MOL0     H57601   1.112   9.649   8.073 -1.5971 -0.0652  2.1127
  427MOL0     H57602   1.230   9.775   8.031  0.1200 -0.3207  0.1256
  427MOL0     H57603   1.062   9.920   8.189 -0.4693 -0.5281 -1.1690
  427MOL0     H57604   0.948   9.797   8.166 -0.4203 -0.0048 -1.2796
  427MOL0     H57605   1.125   9.835   7.763  1.5168 -2.1170  2.0894
  427MOL0     H57606   1.133   9.779   7.530 -0.4512  0.9138  0.5328
  427MOL0     H57607   1.057   9.609   7.546  2.3813  0.0775  3.8984
  427MOL0     H57608   1.007   9.747   7.438  2.6287 -0.3007 -0.8900
  427MOL0     H57609   0.471   9.836   7.374  2.6242 -0.9338  0.0868
  427MOL0     H57610   0.344   9.736   7.168  3.1709  3.1804  0.5126
  427MOL0     H57611   0.222   9.325   7.077 -0.8571 -1.0824  1.0291
  427MOL0     H57612   0.205   9.377   7.236 -4.8953 -2.3772 -1.9120
  427MOL0     H57613   0.064   9.455   6.989  1.9309 -0.5970  0.3444
  427MOL0     H57614   0.005   9.417   7.155 -0.0985  1.3959  0.9590
  427MOL0     H57615   0.136   9.693   7.089 -0.7168 -0.8417 -3.6258
  427MOL0     H57616   0.080   9.640   7.245  0.2031  2.3161 -0.2212
  427MOL0     H57617  -0.091   9.688   7.001 -0.1682  1.2515  1.2437
  427MOL0     H57618  -0.155   9.591   7.129 -0.9193 -0.4674 -0.5768
  427MOL0     H57619  -0.045   9.880   7.121  0.6892  1.5898  2.3106
  427MOL0     H57620  -0.061   9.798   7.279 -0.1146  0.5555 -0.1378
  427MOL0     H57621  -0.306   9.841   7.105  2.2988  0.1563 -0.3947
  427MOL0     H57622  -0.311   9.776   7.265 -2.5546  1.3476 -1.6270
  427MOL0     H57623  -0.205  10.060   7.197  0.2261 -0.9857  0.1513
  427MOL0     H57624  -0.238   9.995   7.354  0.4646 -0.9985  0.3599
  427MOL0     H57625  -0.431  10.140   7.294  0.5332  0.1016  2.0323
  427MOL0     H57626  -0.478   9.965   7.308  0.1120  1.1199  0.8220
  427MOL0     H57627   0.463   9.345   7.282  0.8485  0.0319 -2.5778
  427MOL0     H57628   0.576   9.437   7.480 -0.4799 -0.3418 -0.1814
  427MOL0     H57629   0.643   9.732   7.781 -1.4941  2.9072  1.7479
  427MOL0     H57630   0.752   9.841   7.968 -0.7434 -1.8433  0.4644
  427MOL0     H57631   2.692   9.252   8.564  0.5096  0.5948  1.3525
  427MOL0     H57632   2.924   9.193   8.600 -0.7157  0.6756  0.5044
  427MOL0     H57633   3.256   8.697   8.582 -0.9545  0.6801 -0.4711
  427MOL0     H57634   3.514   8.700   8.658  3.3770  1.5923  1.6604
  427MOL0     H57635   3.677   8.716   8.745 -1.3207  0.8461 -1.0769
  427MOL0     H57636   3.743   8.845   8.658  0.1621  1.3255  0.2080
  427MOL0     H57637   3.908   8.736   8.826 -0.5509 -1.4617  0.9523
  427MOL0     H57638   3.799   8.763   8.962 -1.0796 -2.1595 -1.5298
  427MOL0     H57639   3.920   8.934   9.001 -3.0560 -2.4650  0.0191
  427MOL0     H57640   3.834   9.029   8.889  1.4071  1.4073 -1.0788
  427MOL0     H57641   4.067   9.080   8.859 -0.8971  1.2670  0.3901
  427MOL0     H57642   3.999   8.999   8.714 -1.5587 -1.3073  0.6003
  427MOL0     H57643   4.312   8.747   8.766  0.5877 -0.2955  0.3057
  427MOL0     H57644   3.421   9.060   8.874  0.7772  1.6391 -0.9556
  427MOL0     H57645   3.212   9.057   8.807 -0.5862 -0.6406  1.3950
  428MOL0     O57646   5.366  10.083   5.481 -0.1897  0.2959  0.0144
  428MOL0     C57647   5.311   9.982   5.531  0.0729 -0.6675  0.6694
  428MOL0     O57648   5.217   9.907   5.472  0.4540  0.4055  0.4575
  428MOL0     C57649   5.161   9.948   5.353 -0.1456 -0.4364  0.1221
  428MOL0     C57650   5.209   9.903   5.231  0.7665  0.0505 -0.1350
  428MOL0     C57651   5.136   9.932   5.123  0.0716  0.5860  0.8413
  428MOL0     C57652   5.017  10.000   5.117 -0.2819  0.1136 -0.6200
  428MOL0     O57653   4.952  10.024   5.000 -0.2413  0.4581  0.0248
  428MOL0     C57654   4.958   9.949   4.874  0.1267 -0.4493 -0.7403
  428MOL0     C57655   4.883   9.814   4.898  0.4775 -0.9367  0.3293
  428MOL0     C57656   4.920   9.720   4.785  0.2815  0.5284 -0.4720
  428MOL0     C57657   4.870   9.571   4.809 -0.0812 -1.0653 -0.0468
  428MOL0     C57658   4.853   9.487   4.686 -0.0837 -0.3439 -0.4956
  428MOL0     C57659   4.712   9.505   4.623  0.1990 -1.2031 -0.1490
  428MOL0     C57660   4.593   9.436   4.702 -0.2065  0.1081 -0.2280
  428MOL0     C57661   4.471   9.443   4.616  0.4072  0.3557 -0.1634
  428MOL0     N57662   4.357   9.358   4.653  0.5520 -0.2199  0.5794
  428MOL0     C57663   4.283   9.370   4.766 -0.0241  0.1990 -0.3646
  428MOL0     C57664   4.196   9.265   4.766 -0.0502 -0.2929 -0.2739
  428MOL0     C57665   4.115   9.229   4.890 -0.5545  0.1584 -0.0820
  428MOL0     C57666   4.008   9.138   4.850  0.0925  0.1384  0.7323
  428MOL0     C57667   3.919   9.175   4.723 -0.2049 -0.3931  0.2821
  428MOL0     C57668   3.811   9.072   4.700  0.9649 -0.2105 -0.3460
  428MOL0     O57669   3.679   9.136   4.654 -0.7670  1.0375 -0.1879
  428MOL0     C57670   3.565   9.059   4.625 -0.1850 -0.1573  0.1362
  428MOL0     C57671   3.464   9.133   4.576  0.0158  0.8093 -0.3759
  428MOL0     C57672   3.339   9.070   4.550 -0.6097 -0.0500  0.8487
  428MOL0     C57673   3.224   9.155   4.495  0.9581 -0.3303  0.0871
  428MOL0     C57674   3.320   8.935   4.562  0.3814  0.5352  0.6968
  428MOL0     C57675   3.191   8.858   4.524 -0.1666 -0.2646  0.4705
  428MOL0     O57676   3.218   8.727   4.490  0.0747 -0.7327 -0.2697
  428MOL0     C57677   3.126   8.654   4.430  0.7035  0.2345 -0.0065
  428MOL0     C57678   3.170   8.589   4.309 -0.2261  0.0142 -0.3164
  428MOL0     C57679   3.085   8.510   4.237  0.7229  0.6314  0.7453
  428MOL0     C57680   2.950   8.503   4.272  0.3986 -0.5554 -0.2058
  428MOL0     O57681   2.852   8.439   4.202 -0.4720 -0.5889  0.0965
  428MOL0     C57682   2.878   8.316   4.146 -1.1578  0.6492  0.3360
  428MOL0     C57683   2.740   8.259   4.104 -0.5996  0.4164 -0.0940
  428MOL0     C57684   2.704   8.292   3.961  0.5281  0.6480 -0.2327
  428MOL0     C57685   2.788   8.222   3.855  0.7032  0.1385  0.3446
  428MOL0     C57686   2.776   8.067   3.848  0.2369  0.3316 -0.4701
  428MOL0     C57687   2.627   8.028   3.869  0.1825  0.0406  0.0202
  428MOL0     C57688   2.608   7.872   3.871  0.1514  0.4240  0.1573
  428MOL0     C57689   2.481   7.841   3.790 -0.0370  0.0786  0.6985
  428MOL0    Cl57690   2.496   7.861   3.608 -0.3271  0.1178 -0.4839
  428MOL0     C57691   2.902   8.562   4.398  0.4261  0.9500 -0.3436
  428MOL0     C57692   2.994   8.636   4.475 -1.0634 -0.0488 -0.0862
  428MOL0     O57693   3.077   8.908   4.529 -0.3420  0.6473 -0.4791
  428MOL0     C57694   3.431   8.855   4.606 -0.1869 -0.0130  1.4183
  428MOL0     C57695   3.558   8.918   4.648 -0.3253 -0.5656  0.5684
  428MOL0     N57696   4.228   9.190   4.647  0.0696  0.8255 -0.1307
  428MOL0     N57697   4.314   9.246   4.579 -0.3166 -0.3320 -0.0242
  428MOL0     C57698   4.972  10.050   5.236  0.4047  0.6489 -0.0319
  428MOL0     C57699   5.046  10.026   5.354  0.4684  0.7253  0.7895
  428MOL0     C57700   5.361   9.954   5.667  1.5554 -0.4496 -0.4962
  428MOL0     C57701   5.365   9.824   5.718 -0.8230 -0.7168 -0.1613
  428MOL0     C57702   5.412   9.805   5.849 -0.0489  0.1359 -0.1094
  428MOL0     C57703   5.472   9.909   5.919  0.3124 -0.2102 -0.0214
  428MOL0     O57704   5.502   9.872   6.056 -0.2722 -0.5662  0.2994
  428MOL0     C57705   5.518   9.973   6.160  0.6527 -0.3493  0.4126
  428MOL0     C57706   5.643   9.935   6.235 -0.1030 -0.1240 -0.3897
  428MOL0     C57707   5.785   9.937   6.166  0.4200 -0.5669 -0.3800
  428MOL0     C57708   5.900   9.915   6.270  0.0322  0.1954  0.6776
  428MOL0     C57709   5.920  10.032   6.352 -0.2074  0.1823 -0.2966
  428MOL0     C57710   5.962  10.124   6.422 -0.1768  0.2282  0.5775
  428MOL0     C57711   5.481  10.035   5.859  1.1685  0.0316  0.2122
  428MOL0     C57712   5.420  10.052   5.739 -0.1608 -0.6120  0.4081
  428MOL0     H57713   5.294   9.836   5.227  1.1953  0.6120 -0.7131
  428MOL0     H57714   5.181   9.888   5.035  1.0767 -0.1086  1.6755
  428MOL0     H57715   4.910  10.002   4.791  1.6699  2.0789 -0.1177
  428MOL0     H57716   5.064   9.940   4.845  0.4459 -1.2349  0.5900
  428MOL0     H57717   4.920   9.770   4.991  3.4929  1.3463  0.3407
  428MOL0     H57718   4.777   9.836   4.908  0.9031  1.4654 -0.0297
  428MOL0     H57719   4.866   9.767   4.701  1.0402 -0.2234 -1.4062
  428MOL0     H57720   5.029   9.714   4.787  0.1844 -1.6639 -0.2239
  428MOL0     H57721   4.953   9.526   4.865  1.2305  0.4956 -0.6760
  428MOL0     H57722   4.782   9.578   4.874  1.0894  1.5508  1.4467
  428MOL0     H57723   4.926   9.520   4.612  0.7881  1.1291  0.9422
  428MOL0     H57724   4.878   9.385   4.720 -1.9253 -1.2622 -1.7453
  428MOL0     H57725   4.685   9.611   4.624 -1.6795 -1.6122  1.7063
  428MOL0     H57726   4.720   9.466   4.522  0.0176 -3.2222  0.5727
  428MOL0     H57727   4.623   9.331   4.715 -1.8204 -0.4154 -0.5375
  428MOL0     H57728   4.576   9.474   4.803 -0.3880  1.3670 -0.7196
  428MOL0     H57729   4.498   9.420   4.513 -1.5512  1.6950 -1.0378
  428MOL0     H57730   4.442   9.549   4.612  0.1361  0.2412 -1.8838
  428MOL0     H57731   4.299   9.439   4.848  1.5583 -1.0610  0.4395
  428MOL0     H57732   4.182   9.177   4.958 -3.3502 -1.4076  1.7050
  428MOL0     H57733   4.070   9.311   4.946 -2.8770 -1.2177  0.2155
  428MOL0     H57734   3.938   9.124   4.933  0.6692  0.5475  1.2951
  428MOL0     H57735   4.060   9.045   4.825  0.5481  0.4427  0.5421
  428MOL0     H57736   3.980   9.178   4.632 -0.7945 -0.4316 -0.1165
  428MOL0     H57737   3.874   9.275   4.730  0.8554  0.0238  2.0444
  428MOL0     H57738   3.788   9.016   4.791  1.3312 -2.1360 -1.3841
  428MOL0     H57739   3.859   9.004   4.630  1.9582 -1.0702  1.1224
  428MOL0     H57740   3.470   9.239   4.551 -4.2714  1.3887  0.2457
  428MOL0     H57741   3.265   9.254   4.475 -3.2972  1.8116  0.8226
  428MOL0     H57742   3.182   9.117   4.401  0.8860 -1.2355  0.4697
  428MOL0     H57743   3.154   9.160   4.579  2.4139 -2.1900  1.4823
  428MOL0     H57744   3.272   8.610   4.280 -1.5719  3.8040 -3.0698
  428MOL0     H57745   3.123   8.465   4.146 -2.4375  0.9929 -0.9231
  428MOL0     H57746   2.946   8.324   4.061  2.5752  2.1003  3.1407
  428MOL0     H57747   2.928   8.257   4.223 -2.2799  1.1095  1.4551
  428MOL0     H57748   2.758   8.151   4.113  4.5907  1.1506  1.3863
  428MOL0     H57749   2.657   8.272   4.174  0.0425 -2.2362  1.2894
  428MOL0     H57750   2.722   8.397   3.937 -0.9552  1.0079  0.1313
  428MOL0     H57751   2.599   8.279   3.933 -0.2011  2.3170  1.4765
  428MOL0     H57752   2.742   8.267   3.767  1.4909  1.4374  0.5770
  428MOL0     H57753   2.894   8.248   3.860  0.3241  1.6518  0.7018
  428MOL0     H57754   2.833   8.024   3.931 -0.3006 -2.7770 -1.5811
  428MOL0     H57755   2.810   8.036   3.749 -2.8628  0.6807 -1.7489
  428MOL0     H57756   2.575   8.067   3.957 -0.3494  1.6994 -0.9877
  428MOL0     H57757   2.579   8.067   3.779 -0.4868  0.4571  0.5515
  428MOL0     H57758   2.589   7.834   3.972  0.2990 -2.9746 -0.9594
  428MOL0     H57759   2.704   7.831   3.837 -0.8646 -1.9045 -0.1204
  428MOL0     H57760   2.393   7.891   3.832  0.6855  0.5883  1.6354
  428MOL0     H57761   2.454   7.735   3.796 -0.7100  0.0943 -1.3012
  428MOL0     H57762   2.796   8.563   4.420  0.7201  1.6679  1.1288
  428MOL0     H57763   2.955   8.676   4.568  1.8388  0.5096  1.0042
  428MOL0     H57764   3.423   8.747   4.604 -0.5334  0.0298 -0.3470
  428MOL0     H57765   3.644   8.860   4.680  1.5231  1.9369  0.4420
  428MOL0     H57766   4.881  10.105   5.255  0.7566  0.1343  4.0329
  428MOL0     H57767   5.015  10.066   5.449  2.9280 -2.8665  3.3704
  428MOL0     H57768   5.325   9.730   5.683 -1.9186 -0.6726  0.9038
  428MOL0     H57769   5.404   9.701   5.880 -1.8198  0.0649 -0.7501
  428MOL0     H57770   5.528  10.074   6.119  1.8112  0.5879  2.7938
  428MOL0     H57771   5.437   9.964   6.233 -0.5416 -1.2045 -0.9790
  428MOL0     H57772   5.631   9.834   6.275 -1.8852 -0.8952 -2.6095
  428MOL0     H57773   5.641  10.004   6.320  0.8287  0.3511 -0.7373
  428MOL0     H57774   5.800  10.025   6.101 -0.2674 -1.9570 -2.5160
  428MOL0     H57775   5.790   9.854   6.095 -0.5768 -0.3946 -0.6655
  428MOL0     H57776   5.990   9.889   6.215  0.2296 -1.8994  1.8797
  428MOL0     H57777   5.866   9.834   6.336 -0.9444  0.6860  0.8041
  428MOL0     H57778   5.989  10.204   6.487  3.0697 -0.7911  0.6806
  428MOL0     H57779   5.529  10.120   5.906 -1.7381  1.4359  0.8589
  428MOL0     H57780   5.417  10.156   5.708  1.9723 -0.4485  0.5706
  429MOL0     O57781  11.112   6.485   7.152  0.5550 -0.2716 -0.0655
  429MOL0     C57782  11.144   6.381   7.098  0.0141  0.5598 -0.7843
  429MOL0     O57783  11.065   6.311   7.014  0.1679  0.2614  0.4788
  429MOL0     C57784  10.960   6.373   6.956 -0.1563 -0.3569 -0.0282
  429MOL0     C57785  10.834   6.299   6.969 -0.2119 -0.4334  0.5983
  429MOL0     C57786  10.712   6.355   6.928 -0.7448  0.1069 -0.2222
  429MOL0     C57787  10.713   6.478   6.852 -0.2981  0.3725  0.2745
  429MOL0     O57788  10.597   6.529   6.802 -0.0104 -0.4994  0.5322
  429MOL0     C57789  10.604   6.543   6.658  0.6014 -0.0531  0.1712
  429MOL0     C57790  10.465   6.587   6.605 -0.2304  1.0291 -0.3449
  429MOL0     C57791  10.471   6.591   6.451  0.6463 -0.2291 -1.2438
  429MOL0     C57792  10.334   6.573   6.385  0.0140 -0.3708 -0.8313
  429MOL0     C57793  10.347   6.591   6.234  0.1741  0.1806 -0.2876
  429MOL0     C57794  10.212   6.559   6.159  0.3960 -0.2973  1.1428
  429MOL0     C57795  10.115   6.672   6.121 -0.6588 -1.1371  0.2054
  429MOL0     C57796  10.117   6.799   6.195 -0.5550 -0.7057  0.2500
  429MOL0     N57797  10.003   6.901   6.162  0.5519  0.1126  0.3721
  429MOL0     C57798   9.907   6.935   6.248  0.9886  0.1266 -0.6079
  429MOL0     C57799   9.852   7.049   6.190 -0.9580 -0.6695 -1.3704
  429MOL0     C57800   9.737   7.119   6.246 -0.2306 -1.0236  1.0203
  429MOL0     C57801   9.770   7.249   6.318  0.1992 -0.1410  0.2851
  429MOL0     C57802   9.790   7.359   6.211  0.3244 -0.0397  0.2989
  429MOL0     C57803   9.680   7.389   6.109  0.3773  0.5733 -0.8385
  429MOL0     O57804   9.559   7.431   6.176 -0.3865  0.2690 -0.0054
  429MOL0     C57805   9.465   7.496   6.111  1.1374  0.4676  0.4656
  429MOL0     C57806   9.460   7.524   5.973  0.3660 -0.0700 -1.2017
  429MOL0     C57807   9.354   7.590   5.919 -0.8742 -0.3315  0.3007
  429MOL0     C57808   9.362   7.607   5.775  0.4784 -0.3371  0.1222
  429MOL0     C57809   9.246   7.632   6.001  0.6678  0.3990 -0.2086
  429MOL0     C57810   9.108   7.659   5.946 -0.4827 -0.2608  0.0514
  429MOL0     O57811   9.072   7.606   5.821  0.9722  0.2043 -0.9069
  429MOL0     C57812   8.952   7.649   5.774  0.7016  0.4738 -0.6865
  429MOL0     C57813   8.930   7.779   5.731 -0.0528 -0.4791  1.1224
  429MOL0     C57814   8.817   7.814   5.667  0.9571  0.8768  0.1961
  429MOL0     C57815   8.719   7.724   5.636  0.4654 -0.4018  0.1998
  429MOL0     O57816   8.630   7.777   5.546  0.1156  0.2177 -0.0322
  429MOL0     C57817   8.502   7.712   5.523  0.8125  0.0751  0.2975
  429MOL0     C57818   8.521   7.605   5.409  0.9026  0.5020 -0.3419
  429MOL0     C57819   8.575   7.659   5.275 -0.7522 -1.1602 -0.1000
  429MOL0     C57820   8.478   7.732   5.187 -0.6933  0.3603  0.0983
  429MOL0     C57821   8.549   7.785   5.060  0.0515 -0.6110  0.1576
  429MOL0     C57822   8.460   7.903   5.002 -0.0865 -0.1535  0.0650
  429MOL0     C57823   8.493   7.947   4.862 -0.4836  0.6097 -0.2395
  429MOL0     C57824   8.405   8.063   4.817 -0.2216  0.2672  0.3252
  429MOL0    Cl57825   8.225   8.055   4.828  0.1088 -0.0172 -0.0782
  429MOL0     C57826   8.732   7.597   5.681 -0.2067 -0.2552  0.3092
  429MOL0     C57827   8.848   7.557   5.746  0.4881  0.3190 -0.8232
  429MOL0     O57828   9.042   7.734   6.016 -0.2893 -0.4823  0.5203
  429MOL0     C57829   9.261   7.623   6.139 -0.6939  0.2327 -0.5178
  429MOL0     C57830   9.359   7.548   6.198 -0.1499  0.5150 -0.6649
  429MOL0     N57831   9.910   7.074   6.069  0.8723  0.7220 -0.1106
  429MOL0     N57832   9.999   6.989   6.056 -0.5585 -0.5400  0.5645
  429MOL0     C57833  10.837   6.542   6.842 -0.5082 -0.5616 -0.8711
  429MOL0     C57834  10.956   6.494   6.887  0.6628 -0.2114  0.1474
  429MOL0     C57835  11.255   6.294   7.163  0.1897  0.1941  0.4505
  429MOL0     C57836  11.311   6.320   7.285  0.4728  0.5174  0.2961
  429MOL0     C57837  11.407   6.227   7.334  0.4283 -1.8093  0.9437
  429MOL0     C57838  11.435   6.108   7.260 -0.6567  0.2552 -0.9788
  429MOL0     O57839  11.528   6.027   7.319  0.9881  0.2266  0.1549
  429MOL0     C57840  11.653   6.085   7.354 -0.5989  0.1203 -0.7797
  429MOL0     C57841  11.742   5.975   7.404 -0.2156 -0.7266 -0.1038
  429MOL0     C57842  11.765   5.859   7.304 -0.3071  0.1965 -0.5317
  429MOL0     C57843  11.783   5.736   7.400 -0.4489 -0.4376  0.2395
  429MOL0     C57844  11.903   5.720   7.477  0.3017  0.9437  0.3513
  429MOL0     C57845  11.998   5.718   7.557 -0.1688 -0.2851 -0.7162
  429MOL0     C57846  11.387   6.087   7.143  0.2545  0.6037  0.3480
  429MOL0     C57847  11.302   6.182   7.083  0.4904  0.2260 -0.9626
  429MOL0     H57848  10.836   6.202   7.017  3.2211 -1.4166 -1.1721
  429MOL0     H57849  10.624   6.298   6.957  1.4829 -2.0866  2.9307
  429MOL0     H57850  10.676   6.623   6.634  0.9595  0.6780  3.2353
  429MOL0     H57851  10.632   6.451   6.606 -1.9618 -0.3009 -0.8957
  429MOL0     H57852  10.390   6.521   6.648 -0.0495  1.2085  0.2620
  429MOL0     H57853  10.436   6.684   6.646 -3.7834  1.2798 -3.0173
  429MOL0     H57854  10.508   6.691   6.430 -0.7429  0.3995 -0.8267
  429MOL0     H57855  10.532   6.509   6.412  0.3624 -0.4088 -1.3135
  429MOL0     H57856  10.294   6.474   6.410 -0.1770 -0.0195  0.3203
  429MOL0     H57857  10.269   6.647   6.432  1.2620 -1.0402  2.1501
  429MOL0     H57858  10.372   6.696   6.214  0.0684  0.2224 -0.2002
  429MOL0     H57859  10.425   6.520   6.206  0.8712  0.4038  1.0405
  429MOL0     H57860  10.246   6.507   6.070  0.9352  0.8476  0.6668
  429MOL0     H57861  10.152   6.496   6.226  0.9086  1.6129  3.5267
  429MOL0     H57862  10.132   6.709   6.019 -1.5243  0.2202  0.5235
  429MOL0     H57863  10.019   6.620   6.123 -1.6368  0.5462 -0.7464
  429MOL0     H57864  10.211   6.847   6.165 -1.0938  1.1109  1.2478
  429MOL0     H57865  10.121   6.777   6.302  3.6178  0.9659  0.6674
  429MOL0     H57866   9.882   6.887   6.341  0.1921  2.0404  0.2275
  429MOL0     H57867   9.665   7.132   6.165  0.3445 -3.5675  0.0029
  429MOL0     H57868   9.682   7.051   6.311 -1.9286 -4.3747 -3.4330
  429MOL0     H57869   9.855   7.247   6.387  1.5526 -0.4361 -1.3257
  429MOL0     H57870   9.684   7.278   6.380  2.9100  0.2992  4.2687
  429MOL0     H57871   9.890   7.352   6.167  1.1132  3.7324  1.1488
  429MOL0     H57872   9.800   7.454   6.265 -4.6468  0.7640  0.2303
  429MOL0     H57873   9.655   7.311   6.037  2.5446 -0.1862 -0.8403
  429MOL0     H57874   9.715   7.478   6.055 -0.5745  1.9173  0.6634
  429MOL0     H57875   9.546   7.486   5.918  2.0517 -1.2751  2.0471
  429MOL0     H57876   9.319   7.514   5.736  0.6522 -0.4173  0.1208
  429MOL0     H57877   9.288   7.680   5.741 -1.6317 -2.6749 -0.6242
  429MOL0     H57878   9.459   7.624   5.727  0.8454 -1.5347  0.4025
  429MOL0     H57879   9.018   7.843   5.734 -0.6427  0.6830 -2.1460
  429MOL0     H57880   8.807   7.917   5.633 -0.2305  0.1674 -1.7587
  429MOL0     H57881   8.449   7.666   5.607 -0.9533 -1.4727 -1.5707
  429MOL0     H57882   8.432   7.790   5.489 -0.8624 -2.5435 -2.7432
  429MOL0     H57883   8.580   7.521   5.444 -0.8566 -0.6656 -0.0678
  429MOL0     H57884   8.419   7.567   5.395 -0.3631  2.6994  1.9565
  429MOL0     H57885   8.625   7.578   5.221  0.9326  0.4729 -1.1211
  429MOL0     H57886   8.650   7.733   5.304 -1.6813 -1.0894  2.3622
  429MOL0     H57887   8.386   7.676   5.163 -0.3856  1.0868 -3.4120
  429MOL0     H57888   8.432   7.818   5.237  1.7074  1.4523  0.5814
  429MOL0     H57889   8.552   7.696   4.998 -2.0683 -0.5117 -0.1576
  429MOL0     H57890   8.650   7.823   5.078  0.1021 -0.5366 -0.2921
  429MOL0     H57891   8.357   7.868   4.991 -0.1987  0.2936 -0.2811
  429MOL0     H57892   8.468   7.988   5.071 -0.0257 -1.1672  1.3500
  429MOL0     H57893   8.467   7.859   4.802 -0.7210  0.0589  0.6562
  429MOL0     H57894   8.600   7.964   4.849 -0.0112 -3.0654 -2.5745
  429MOL0     H57895   8.426   8.068   4.709  1.6048  2.1717  0.6994
  429MOL0     H57896   8.439   8.157   4.861  2.4539 -0.3433 -0.2487
  429MOL0     H57897   8.663   7.519   5.651  1.3987 -2.0098  1.0099
  429MOL0     H57898   8.863   7.449   5.754  3.4344  0.6384 -0.8157
  429MOL0     H57899   9.179   7.658   6.201  0.9050 -1.3350  2.7671
  429MOL0     H57900   9.372   7.533   6.304  2.3347 -1.5990 -1.1620
  429MOL0     H57901  10.854   6.643   6.807  1.8718 -0.6819 -0.2304
  429MOL0     H57902  11.046   6.554   6.888 -1.1505  2.8274 -2.1088
  429MOL0     H57903  11.276   6.401   7.348  3.0917  1.1255  1.1206
  429MOL0     H57904  11.453   6.240   7.431  0.1419 -2.2698  1.1440
  429MOL0     H57905  11.707   6.126   7.268 -0.2408  2.1858  0.3612
  429MOL0     H57906  11.643   6.177   7.413  1.6435  0.4992 -0.8875
  429MOL0     H57907  11.705   5.948   7.504 -0.6689 -0.0149 -0.0712
  429MOL0     H57908  11.839   6.021   7.425 -1.2048  0.8193  1.3624
  429MOL0     H57909  11.858   5.872   7.247 -0.4824 -0.8578 -1.0814
  429MOL0     H57910  11.678   5.846   7.239  0.2576 -2.7403 -0.8612
  429MOL0     H57911  11.774   5.653   7.330  1.5417 -0.5377  0.0278
  429MOL0     H57912  11.699   5.729   7.469  0.5552 -1.0459  1.4449
  429MOL0     H57913  12.065   5.697   7.637 -1.4788 -2.0375  0.0043
  429MOL0     H57914  11.422   6.000   7.088  4.9710  2.0993  0.5815
  429MOL0     H57915  11.255   6.158   6.989 -3.6129 -0.2736  0.9838
  430MOL0     O57916  10.786   8.299  10.861 -0.1719  0.5032  0.1063
  430MOL0     C57917  10.831   8.182  10.862  0.8504 -0.8437  0.0171
  430MOL0     O57918  10.755   8.063  10.848 -0.3283 -0.8755 -0.4328
  430MOL0     C57919  10.625   8.043  10.829  0.0920  0.4491  0.5734
  430MOL0     C57920  10.578   7.943  10.748 -0.5066 -0.2423  0.7609
  430MOL0     C57921  10.440   7.941  10.708  0.3731  0.4045  0.8092
  430MOL0     C57922  10.354   8.037  10.752  0.1711 -0.4159 -0.2990
  430MOL0     O57923  10.219   8.045  10.717  0.3403  0.1429 -0.0108
  430MOL0     C57924  10.158   7.963  10.622  0.0745 -0.4531 -0.3777
  430MOL0     C57925  10.137   7.824  10.687 -0.3430 -0.1755 -1.0874
  430MOL0     C57926  10.051   7.836  10.809 -0.2563 -0.5051  0.6777
  430MOL0     C57927   9.972   7.705  10.841 -0.6814  0.1293  0.2776
  430MOL0     C57928   9.885   7.646  10.734 -0.1997  0.8759  0.0942
  430MOL0     C57929   9.788   7.749  10.674  0.7769 -0.2169 -0.0694
  430MOL0     C57930   9.675   7.676  10.595 -0.5902  0.3288  0.2362
  430MOL0     C57931   9.552   7.770  10.563 -0.8271  0.5368  0.6272
  430MOL0     N57932   9.566   7.870  10.449 -0.0496 -0.0659  0.2241
  430MOL0     C57933   9.676   7.951  10.430 -0.0844 -0.9014  0.0074
  430MOL0     C57934   9.668   8.005  10.303  0.3906 -0.4894 -0.7459
  430MOL0     C57935   9.768   8.109  10.245  0.2432 -0.3446  0.0431
  430MOL0     C57936   9.748   8.249  10.312 -0.8250 -0.0706  0.2781
  430MOL0     C57937   9.838   8.351  10.232 -0.5180 -0.5206 -0.4801
  430MOL0     C57938   9.982   8.314  10.204 -0.4447  0.3205 -0.9067
  430MOL0     O57939  10.073   8.311  10.316  0.5048 -0.6753  0.3901
  430MOL0     C57940  10.200   8.276  10.299 -0.2781 -0.5777  0.1102
  430MOL0     C57941  10.286   8.293  10.404 -1.0354 -0.0901 -0.3155
  430MOL0     C57942  10.428   8.272  10.395 -0.3567 -1.0835 -0.3405
  430MOL0     C57943  10.503   8.286  10.523  0.0549  0.1707  0.0823
  430MOL0     C57944  10.478   8.218  10.276 -0.3074  0.6969  0.1937
  430MOL0     C57945  10.611   8.162  10.251  0.1449  0.1159  0.5161
  430MOL0     O57946  10.702   8.207  10.336 -0.7843 -0.7922 -0.2615
  430MOL0     C57947  10.836   8.156  10.347 -0.0987 -0.2531 -0.3782
  430MOL0     C57948  10.874   8.095  10.470  0.4443 -0.5577  0.0532
  430MOL0     C57949  10.995   8.043  10.496 -0.2979 -0.5980 -0.9188
  430MOL0     C57950  11.088   8.054  10.392 -0.1571  0.3416 -0.7826
  430MOL0     O57951  11.208   7.996  10.411  0.2438  0.2018 -0.1332
  430MOL0     C57952  11.289   8.011  10.529  0.1387  0.9739 -0.5213
  430MOL0     C57953  11.441   8.013  10.476 -0.4220 -0.1470  0.0552
  430MOL0     C57954  11.481   7.887  10.399  0.0522  0.1206 -0.6518
  430MOL0     C57955  11.641   7.872  10.380  0.3917 -0.1697 -0.5249
  430MOL0     C57956  11.717   8.008  10.344  0.3402 -0.4340  0.5457
  430MOL0     C57957  11.646   8.094  10.235 -0.0358  0.8154 -0.5072
  430MOL0     C57958  11.667   8.033  10.095  0.4658 -0.2195  0.4097
  430MOL0     C57959  11.635   8.136   9.986 -0.0986 -0.2849  0.0840
  430MOL0    Cl57960  11.463   8.197   9.999 -0.0915 -0.0466  0.5518
  430MOL0     C57961  11.054   8.109  10.270 -1.0189  0.1436 -0.6724
  430MOL0     C57962  10.930   8.168  10.245  0.3609  0.2460  0.2946
  430MOL0     O57963  10.638   8.097  10.157 -0.0416 -0.0970  0.4265
  430MOL0     C57964  10.390   8.195  10.164  0.6458 -0.0970 -0.0214
  430MOL0     C57965  10.253   8.237  10.174  0.1965  0.1291 -0.0396
  430MOL0     N57966   9.537   7.959  10.248 -0.1467 -0.5048 -0.0095
  430MOL0     N57967   9.486   7.880  10.333  0.3172  0.0325 -0.2992
  430MOL0     C57968  10.399   8.147  10.843 -0.0086  0.8996  0.6069
  430MOL0     C57969  10.539   8.150  10.869  0.1311 -0.9125  0.3986
  430MOL0     C57970  10.970   8.156  10.887  0.3313 -0.4347  0.1115
  430MOL0     C57971  11.068   8.264  10.902  0.3322  0.0807 -0.2515
  430MOL0     C57972  11.206   8.236  10.887  0.2186  0.4041 -1.1105
  430MOL0     C57973  11.250   8.108  10.876  0.1808  0.6434 -0.7388
  430MOL0     O57974  11.383   8.076  10.876  0.2445 -0.5150 -0.1478
  430MOL0     C57975  11.492   8.158  10.924  0.2261  0.9940  0.8451
  430MOL0     C57976  11.551   8.243  10.808  0.1142  0.6419 -0.3694
  430MOL0     C57977  11.593   8.385  10.864  0.6926 -0.2628 -0.4875
  430MOL0     C57978  11.630   8.480  10.751 -0.1972 -0.7072  0.2295
  430MOL0     C57979  11.519   8.507  10.665  0.1372 -0.2235 -0.7812
  430MOL0     C57980  11.411   8.528  10.615  0.2463  0.6136 -0.1109
  430MOL0     C57981  11.156   8.004  10.883 -0.3810 -0.7496  0.0880
  430MOL0     C57982  11.025   8.021  10.892 -0.1465  0.3535 -0.2407
  430MOL0     H57983  10.639   7.860  10.713  2.8251  1.2015  2.6491
  430MOL0     H57984  10.427   7.847  10.655  2.1253 -0.2444  1.4591
  430MOL0     H57985  10.062   7.999  10.584 -1.3867 -2.0524  1.5532
  430MOL0     H57986  10.218   7.948  10.531  1.2473  3.8789 -0.5118
  430MOL0     H57987  10.103   7.745  10.619  1.6464 -1.2963 -0.8426
  430MOL0     H57988  10.231   7.779  10.718 -1.7548 -1.9514  0.9230
  430MOL0     H57989  10.119   7.868  10.889 -0.2772 -1.7618  1.2123
  430MOL0     H57990   9.972   7.911  10.798  0.6297  0.1685 -1.8610
  430MOL0     H57991  10.048   7.636  10.877  0.0673  0.9720  0.3455
  430MOL0     H57992   9.897   7.730  10.917 -2.0410 -0.7332 -0.7268
  430MOL0     H57993   9.946   7.598  10.657 -0.7589  3.0636 -1.8156
  430MOL0     H57994   9.816   7.578  10.783 -0.7246  0.6438 -0.9396
  430MOL0     H57995   9.737   7.798  10.758  1.0181 -0.9982  0.5508
  430MOL0     H57996   9.843   7.820  10.613 -2.3032  0.6841 -2.0501
  430MOL0     H57997   9.716   7.616  10.513 -0.1588 -2.8602  2.6016
  430MOL0     H57998   9.624   7.598  10.653 -0.4160  0.8856  1.1569
  430MOL0     H57999   9.517   7.825  10.651 -3.1521 -0.0513  0.1405
  430MOL0     H58000   9.472   7.712  10.517  1.1889 -2.3225  0.4680
  430MOL0     H58001   9.763   7.967  10.493 -0.3063 -1.1166  0.3711
  430MOL0     H58002   9.869   8.069  10.253  0.3122 -0.5591 -1.5398
  430MOL0     H58003   9.761   8.113  10.136  1.2006 -0.5932 -0.0399
  430MOL0     H58004   9.785   8.256  10.415 -0.5639 -1.3175  0.2867
  430MOL0     H58005   9.643   8.276  10.299 -0.7220  0.2004 -0.0220
  430MOL0     H58006   9.839   8.444  10.291 -3.1748 -0.2383 -0.7526
  430MOL0     H58007   9.786   8.380  10.140 -1.0942 -0.0031 -0.0025
  430MOL0     H58008  10.020   8.384  10.129  1.3999  0.9793  0.5773
  430MOL0     H58009   9.982   8.214  10.158 -1.1480  0.6180 -1.5823
  430MOL0     H58010  10.247   8.330  10.498 -0.5114  2.2133 -0.9540
  430MOL0     H58011  10.442   8.320  10.607 -2.9069 -3.6233 -0.2946
  430MOL0     H58012  10.537   8.187  10.552 -2.1810 -0.8730 -0.6101
  430MOL0     H58013  10.590   8.349  10.503  0.8043 -0.9686 -0.3439
  430MOL0     H58014  10.796   8.091  10.545  0.5225 -1.4956  0.0905
  430MOL0     H58015  11.008   7.992  10.590 -2.5410 -1.9874 -1.2920
  430MOL0     H58016  11.270   8.101  10.589 -0.3427 -0.6393  1.8529
  430MOL0     H58017  11.267   7.932  10.601  2.1598 -0.2248 -1.1131
  430MOL0     H58018  11.468   8.108  10.429  0.1479  0.8414  2.2494
  430MOL0     H58019  11.505   8.044  10.559 -1.5017  4.2203 -0.4990
  430MOL0     H58020  11.445   7.892  10.296  2.9013 -0.5921 -1.7650
  430MOL0     H58021  11.446   7.796  10.447  0.7156  0.4868  0.5721
  430MOL0     H58022  11.682   7.825  10.470 -0.8154 -0.5482 -0.1522
  430MOL0     H58023  11.677   7.800  10.307  0.3751 -0.8834  0.1570
  430MOL0     H58024  11.818   7.977  10.317  0.5821 -0.3603  1.3432
  430MOL0     H58025  11.719   8.072  10.433 -1.4162  0.1450  0.2129
  430MOL0     H58026  11.538   8.102  10.252  0.0949 -1.8408  2.6294
  430MOL0     H58027  11.690   8.194  10.227  0.1269  0.8550  0.7833
  430MOL0     H58028  11.603   7.947  10.075  3.0154 -1.6620 -2.4381
  430MOL0     H58029  11.772   8.006  10.079  0.2497  0.6725 -3.7266
  430MOL0     H58030  11.651   8.090   9.888  3.1537  0.4934  0.1456
  430MOL0     H58031  11.701   8.223   9.991  0.8410 -1.0569  1.5492
  430MOL0     H58032  11.137   8.105  10.199 -0.3488 -1.6516  0.1568
  430MOL0     H58033  10.906   8.209  10.148  1.0647  0.9997  0.4274
  430MOL0     H58034  10.418   8.157  10.066  1.3063 -0.0601  0.1445
  430MOL0     H58035  10.198   8.244  10.081  1.9185  1.0820 -1.0418
  430MOL0     H58036  10.325   8.224  10.861 -1.8858 -0.0290 -2.3938
  430MOL0     H58037  10.572   8.234  10.928 -2.9415  0.3261  0.5300
  430MOL0     H58038  11.029   8.365  10.902 -1.4044 -0.5080 -2.3890
  430MOL0     H58039  11.280   8.314  10.870 -0.1972  0.8001 -1.1302
  430MOL0     H58040  11.457   8.219  11.008 -0.8867  2.6191 -0.7378
  430MOL0     H58041  11.568   8.095  10.972 -2.7451 -1.1679  3.1663
  430MOL0     H58042  11.478   8.258  10.728 -2.0727 -1.5901  1.0409
  430MOL0     H58043  11.628   8.184  10.758 -1.3133 -1.7519  0.1012
  430MOL0     H58044  11.684   8.363  10.921 -0.4650 -1.2117  1.0664
  430MOL0     H58045  11.516   8.423  10.931  0.4951 -1.6922  0.1278
  430MOL0     H58046  11.712   8.432  10.696 -1.4375  0.4816 -2.8404
  430MOL0     H58047  11.665   8.576  10.789 -0.5132 -0.9617  1.2205
  430MOL0     H58048  11.317   8.538  10.564 -0.4585 -3.4752  0.0470
  430MOL0     H58049  11.197   7.903  10.887 -1.0601 -0.9965  2.3830
  430MOL0     H58050  10.963   7.932  10.889 -0.2919  0.4038  0.8476
  431MOL0     O58051   7.386   1.757   1.700 -0.3337 -0.0266  0.5384
  431MOL0     C58052   7.362   1.706   1.807  0.0732 -0.4036  0.1821
  431MOL0     O58053   7.410   1.586   1.856  0.3212  0.5346  0.8441
  431MOL0     C58054   7.471   1.508   1.770 -0.6157 -0.2750 -0.0730
  431MOL0     C58055   7.394   1.415   1.715  0.0668  0.4266  0.0063
  431MOL0     C58056   7.445   1.322   1.618  0.3368 -0.5793 -0.2281
  431MOL0     C58057   7.578   1.331   1.590 -0.2890  1.4790 -0.3634
  431MOL0     O58058   7.611   1.234   1.494 -0.5710 -0.0319 -0.0266
  431MOL0     C58059   7.751   1.222   1.475 -0.5025  0.7710  0.2501
  431MOL0     C58060   7.779   1.099   1.386 -0.3972 -0.6401 -0.2921
  431MOL0     C58061   7.740   0.959   1.458  0.2477 -0.3183  1.8904
  431MOL0     C58062   7.711   0.840   1.358  1.0245 -0.3104 -0.4339
  431MOL0     C58063   7.654   0.719   1.432  0.4199  0.2750 -0.4998
  431MOL0     C58064   7.505   0.724   1.443 -0.3296 -0.2399 -0.0063
  431MOL0     C58065   7.443   0.690   1.305 -0.4146  0.1425 -0.1370
  431MOL0     C58066   7.302   0.750   1.281  0.1288 -0.7576  0.3714
  431MOL0     N58067   7.304   0.897   1.298 -0.2887 -0.2517  0.2324
  431MOL0     C58068   7.337   0.987   1.202  0.4000  0.4393 -0.3839
  431MOL0     C58069   7.331   1.113   1.258  0.4024 -0.1368 -0.0152
  431MOL0     C58070   7.371   1.246   1.201  0.1944  0.2494  0.2308
  431MOL0     C58071   7.265   1.352   1.205  0.1656 -0.0758  0.2735
  431MOL0     C58072   7.236   1.409   1.350  0.0576 -0.4276  0.2118
  431MOL0     C58073   7.134   1.530   1.348 -0.6920 -0.1439  0.0439
  431MOL0     O58074   7.005   1.470   1.330  0.0191  0.2099  0.1022
  431MOL0     C58075   6.888   1.542   1.352  0.8154  0.5307 -0.4329
  431MOL0     C58076   6.874   1.671   1.393  0.3842  0.2329 -0.1638
  431MOL0     C58077   6.747   1.732   1.412 -0.3136  1.1721 -0.5286
  431MOL0     C58078   6.733   1.881   1.439 -0.2781  0.1070 -0.2531
  431MOL0     C58079   6.631   1.645   1.410 -0.1907 -0.1005 -0.2939
  431MOL0     C58080   6.498   1.693   1.466 -0.1339  0.9081 -0.5931
  431MOL0     O58081   6.493   1.807   1.558 -0.6131  0.5643 -0.3131
  431MOL0     C58082   6.366   1.847   1.596  0.1773 -0.0938  0.4124
  431MOL0     C58083   6.329   1.820   1.727 -0.8051 -0.3191 -0.7371
  431MOL0     C58084   6.203   1.869   1.773 -0.2688 -0.3005  0.3655
  431MOL0     C58085   6.114   1.939   1.688 -1.2489 -0.1459  0.4233
  431MOL0     O58086   5.992   1.987   1.727  0.3084  0.3705 -0.2258
  431MOL0     C58087   5.989   2.053   1.849 -0.2690 -0.1455 -0.8617
  431MOL0     C58088   5.883   1.996   1.934  0.3237 -0.2730 -0.3105
  431MOL0     C58089   5.836   2.084   2.048  0.3682 -0.2314  1.1080
  431MOL0     C58090   5.701   2.020   2.097 -0.6064 -0.9449 -0.0621
  431MOL0     C58091   5.699   1.902   2.190 -0.0858 -0.5429  0.2305
  431MOL0     C58092   5.699   1.941   2.337  0.4003 -1.0364 -0.3973
  431MOL0     C58093   5.718   1.834   2.443  0.0712 -0.5329  0.6988
  431MOL0     C58094   5.706   1.884   2.584  0.9361 -0.2849 -0.0247
  431MOL0    Cl58095   5.852   1.980   2.632  0.1642 -0.2847 -0.1458
  431MOL0     C58096   6.162   1.958   1.558  0.0768  0.1293  0.5276
  431MOL0     C58097   6.283   1.916   1.514  0.4807 -0.8215  0.3866
  431MOL0     O58098   6.405   1.612   1.438 -0.1341  0.0230 -0.0518
  431MOL0     C58099   6.645   1.510   1.369  1.1154  0.1780  0.5447
  431MOL0     C58100   6.771   1.471   1.334  0.6242 -1.1144 -0.6514
  431MOL0     N58101   7.293   1.090   1.396  0.0405  0.1447  0.1709
  431MOL0     N58102   7.262   0.965   1.409  0.2428  0.9992 -0.1812
  431MOL0     C58103   7.663   1.408   1.668 -0.6311 -0.0737 -0.2404
  431MOL0     C58104   7.606   1.502   1.754 -0.1926 -0.2041  0.8820
  431MOL0     C58105   7.294   1.784   1.905  0.1051  0.1056 -0.5298
  431MOL0     C58106   7.286   1.927   1.901  0.8464  0.0242 -0.5667
  431MOL0     C58107   7.222   1.998   2.006  0.7939  1.2456 -0.3079
  431MOL0     C58108   7.180   1.921   2.121  0.8472  0.1234 -0.6103
  431MOL0     O58109   7.121   1.998   2.220 -0.5718  0.4437  0.0301
  431MOL0     C58110   7.040   1.943   2.317  0.2002  0.6192 -0.4141
  431MOL0     C58111   6.916   2.030   2.339  1.3186 -0.2588  0.4051
  431MOL0     C58112   6.810   1.940   2.388  0.2027  0.1272  0.2507
  431MOL0     C58113   6.673   2.011   2.391  0.0463 -0.3628  0.6300
  431MOL0     C58114   6.597   1.992   2.515  0.2892 -0.5315 -0.5961
  431MOL0     C58115   6.525   1.972   2.618  0.2297 -0.3590 -0.1116
  431MOL0     C58116   7.202   1.781   2.133 -0.6755  0.5306  0.5740
  431MOL0     C58117   7.257   1.724   2.022 -0.7674  0.0579  0.3992
  431MOL0     H58118   7.287   1.413   1.732 -0.0329 -2.1289 -0.5528
  431MOL0     H58119   7.371   1.257   1.571 -1.9308  2.4279 -1.1226
  431MOL0     H58120   7.796   1.307   1.424 -2.4939  2.9595  1.8961
  431MOL0     H58121   7.800   1.200   1.571 -2.9881 -1.2544  1.1871
  431MOL0     H58122   7.742   1.116   1.284  0.3154  2.5076 -0.1335
  431MOL0     H58123   7.885   1.102   1.363  0.1030  0.4337  1.8741
  431MOL0     H58124   7.823   0.925   1.521 -0.8292 -2.5113  2.2382
  431MOL0     H58125   7.656   0.976   1.525 -0.9596 -0.2301  0.3976
  431MOL0     H58126   7.646   0.869   1.275  3.1891  2.2100 -1.3768
  431MOL0     H58127   7.811   0.820   1.317  1.8900 -0.9728  1.8508
  431MOL0     H58128   7.684   0.627   1.381  1.7779 -0.0720  0.8552
  431MOL0     H58129   7.690   0.721   1.535  0.8730 -2.2054 -0.5510
  431MOL0     H58130   7.470   0.648   1.514  2.2656 -2.1298 -0.6232
  431MOL0     H58131   7.480   0.827   1.471  3.5002  0.7020  0.4481
  431MOL0     H58132   7.513   0.723   1.229  0.4927  1.0175  1.0429
  431MOL0     H58133   7.435   0.582   1.286 -3.3548 -0.2722  2.5559
  431MOL0     H58134   7.237   0.712   1.359  1.5540 -1.2630  1.3650
  431MOL0     H58135   7.263   0.722   1.183 -2.8051  1.5375  0.7386
  431MOL0     H58136   7.373   0.964   1.102  1.5153  3.0619 -0.6723
  431MOL0     H58137   7.459   1.289   1.248  0.7939 -2.7797  2.1441
  431MOL0     H58138   7.396   1.221   1.098 -0.0834 -0.2184  0.2766
  431MOL0     H58139   7.172   1.319   1.158  0.1093 -1.9902  1.6303
  431MOL0     H58140   7.300   1.441   1.151 -2.4384  1.8861  1.6023
  431MOL0     H58141   7.328   1.452   1.391  2.4811 -2.8452 -2.2491
  431MOL0     H58142   7.202   1.332   1.421 -0.4877 -0.8034 -0.4423
  431MOL0     H58143   7.151   1.604   1.269 -0.1229 -1.5198 -1.1729
  431MOL0     H58144   7.147   1.589   1.439  1.7606 -1.3445  0.5386
  431MOL0     H58145   6.955   1.742   1.408  1.6864 -1.1764 -0.3760
  431MOL0     H58146   6.827   1.935   1.425 -0.9637  1.4225  0.0574
  431MOL0     H58147   6.670   1.924   1.361  0.7646 -0.3596 -1.3780
  431MOL0     H58148   6.710   1.885   1.546 -0.1352  0.3843 -0.2335
  431MOL0     H58149   6.386   1.753   1.791  0.9024  1.6706 -0.0738
  431MOL0     H58150   6.167   1.863   1.875 -0.6290  1.7100  0.4089
  431MOL0     H58151   6.085   2.053   1.901 -0.8729 -0.7904  0.3061
  431MOL0     H58152   5.980   2.160   1.826  1.0164  0.3937  0.8984
  431MOL0     H58153   5.802   1.961   1.870  0.2428  0.0676 -0.3971
  431MOL0     H58154   5.932   1.910   1.980  0.6168  0.9480  1.7685
  431MOL0     H58155   5.812   2.185   2.013  1.7909  0.7149  2.6670
  431MOL0     H58156   5.903   2.098   2.133  0.9136  1.7486  0.3986
  431MOL0     H58157   5.660   2.104   2.155  1.9553  1.6234 -1.6977
  431MOL0     H58158   5.628   1.993   2.020  1.9294 -0.3249 -2.8805
  431MOL0     H58159   5.792   1.847   2.172  0.2905  0.6034 -1.5987
  431MOL0     H58160   5.613   1.838   2.170 -2.6776  2.7405  0.2001
  431MOL0     H58161   5.789   2.002   2.342 -2.0250  2.8210  2.5626
  431MOL0     H58162   5.612   2.004   2.361  1.4903  0.3552  0.0328
  431MOL0     H58163   5.811   1.782   2.417 -1.2547 -2.6718  0.0036
  431MOL0     H58164   5.628   1.774   2.432 -1.0213  1.0729  0.5835
  431MOL0     H58165   5.719   1.792   2.642  3.9854 -0.1410 -0.3061
  431MOL0     H58166   5.616   1.938   2.614  1.1343  0.2562 -0.4020
  431MOL0     H58167   6.086   1.995   1.490  1.1150  1.9207  0.2813
  431MOL0     H58168   6.311   1.928   1.410 -3.0847 -3.6073 -1.0847
  431MOL0     H58169   6.572   1.430   1.368  0.9042  0.3691  0.2783
  431MOL0     H58170   6.777   1.369   1.299  2.6311 -0.6916 -1.6508
  431MOL0     H58171   7.771   1.405   1.653 -0.6717  0.2441 -0.6052
  431MOL0     H58172   7.668   1.566   1.816  1.2522 -0.5950 -0.1065
  431MOL0     H58173   7.320   1.993   1.822 -3.0266  2.3642 -0.5202
  431MOL0     H58174   7.231   2.105   1.995 -0.6749  1.5342  0.9933
  431MOL0     H58175   7.007   1.843   2.287 -1.0680  0.6493  0.7482
  431MOL0     H58176   7.100   1.937   2.409 -1.4679 -1.4260  0.6331
  431MOL0     H58177   6.889   2.077   2.243  0.7595 -1.1624  0.1102
  431MOL0     H58178   6.941   2.098   2.421 -0.3004 -1.5155  2.0199
  431MOL0     H58179   6.841   1.906   2.487  0.3424  0.7467  0.4203
  431MOL0     H58180   6.794   1.852   2.324 -1.8580  0.2467  0.5225
  431MOL0     H58181   6.616   1.968   2.308 -1.1652  1.0739  0.6795
  431MOL0     H58182   6.672   2.117   2.365 -2.1680 -0.6954 -0.9576
  431MOL0     H58183   6.440   1.958   2.682 -1.3562 -1.5286 -2.3203
  431MOL0     H58184   7.178   1.708   2.210 -1.7884 -0.7935 -0.9403
  431MOL0     H58185   7.252   1.617   2.011  1.7899 -0.0059 -0.8639
  432MOL0     O58186   4.802   9.607   0.549 -0.5523 -0.4995 -0.1500
  432MOL0     C58187   4.744   9.522   0.607  0.0821  0.3029 -0.1101
  432MOL0     O58188   4.611   9.518   0.620  0.0313  0.6859  1.0293
  432MOL0     C58189   4.538   9.561   0.513  0.7165  0.4318  0.2724
  432MOL0     C58190   4.416   9.617   0.544 -0.2983 -0.5015 -0.5442
  432MOL0     C58191   4.325   9.654   0.447 -0.6879  0.0075 -0.1160
  432MOL0     C58192   4.354   9.617   0.313 -0.4568  0.0038 -0.3928
  432MOL0     O58193   4.266   9.632   0.211  1.1225  0.4731 -0.1260
  432MOL0     C58194   4.125   9.605   0.235 -1.0024 -0.4539 -0.3487
  432MOL0     C58195   4.029   9.639   0.124  0.1158 -0.3081 -0.5336
  432MOL0     C58196   4.004   9.534   0.016 -0.1051 -0.5638 -0.0619
  432MOL0     C58197   3.901   9.574  -0.089  0.1793  0.2498 -1.4020
  432MOL0     C58198   3.761   9.533  -0.039 -0.0651 -0.1645  0.0718
  432MOL0     C58199   3.660   9.560  -0.140 -0.2456 -0.0376  0.8195
  432MOL0     C58200   3.523   9.504  -0.103 -0.1190 -0.2562  0.3277
  432MOL0     C58201   3.447   9.613  -0.030  0.5718  0.2182  0.1612
  432MOL0     N58202   3.304   9.568  -0.018 -0.9322 -0.0887  0.4867
  432MOL0     C58203   3.226   9.544  -0.132 -0.0745  0.1310  0.9838
  432MOL0     C58204   3.102   9.509  -0.078  0.6296  0.0811 -0.2154
  432MOL0     C58205   2.984   9.468  -0.166  0.1657  0.3129  0.1694
  432MOL0     C58206   2.869   9.570  -0.152  0.3614 -0.7633  0.5781
  432MOL0     C58207   2.740   9.535  -0.229  0.0550  0.3472  0.4226
  432MOL0     C58208   2.636   9.647  -0.220 -1.4369  0.4760  0.4198
  432MOL0     O58209   2.525   9.604  -0.295  1.3641  0.1904  0.2446
  432MOL0     C58210   2.396   9.662  -0.280  0.2749  0.2839 -0.0711
  432MOL0     C58211   2.287   9.625  -0.359 -0.2157 -1.1405  1.4603
  432MOL0     C58212   2.163   9.690  -0.351 -0.0149 -0.5159 -0.2795
  432MOL0     C58213   2.046   9.629  -0.434  1.3206 -0.3765 -0.9113
  432MOL0     C58214   2.146   9.798  -0.265  0.5704 -0.1090 -0.0231
  432MOL0     C58215   2.023   9.872  -0.252 -0.0714 -0.6269  0.3933
  432MOL0     O58216   1.967   9.913  -0.368  0.2603 -0.5974 -0.2552
  432MOL0     C58217   1.856   9.995  -0.362 -0.1339  0.4184 -0.3415
  432MOL0     C58218   1.726   9.947  -0.355 -0.2398  0.1257 -0.3064
  432MOL0     C58219   1.613  10.031  -0.339 -0.2809  0.2740  0.5685
  432MOL0     C58220   1.637  10.168  -0.363  0.9568  0.3830  0.0142
  432MOL0     O58221   1.538  10.260  -0.358  0.4259  0.4656  0.6004
  432MOL0     C58222   1.421  10.236  -0.282  0.0997 -0.1684  0.0936
  432MOL0     C58223   1.312  10.197  -0.378  0.4579 -0.3008 -0.6765
  432MOL0     C58224   1.309  10.256  -0.520 -0.5983 -0.4612  1.2124
  432MOL0     C58225   1.309  10.405  -0.510 -0.6520  0.1822  0.0947
  432MOL0     C58226   1.329  10.475  -0.650  0.9290 -0.0231 -0.6031
  432MOL0     C58227   1.284  10.615  -0.617  0.5882  0.8334 -0.2172
  432MOL0     C58228   1.366  10.706  -0.516 -0.1932 -0.4332 -0.8559
  432MOL0     C58229   1.333  10.853  -0.534  0.9186  0.1605  0.3901
  432MOL0    Cl58230   1.160  10.899  -0.490 -0.3808 -0.0954  0.0708
  432MOL0     C58231   1.769  10.212  -0.384 -0.7539 -0.2252 -0.2495
  432MOL0     C58232   1.875  10.129  -0.376 -0.3913  0.0033 -0.3852
  432MOL0     O58233   1.989   9.906  -0.140 -0.0705 -0.2791  0.1514
  432MOL0     C58234   2.255   9.825  -0.172  0.8669 -0.3193  0.6996
  432MOL0     C58235   2.377   9.760  -0.184 -1.1578 -0.8795 -0.9778
  432MOL0     N58236   3.099   9.524   0.061 -0.5656 -0.3462  0.2443
  432MOL0     N58237   3.224   9.562   0.098 -0.2429 -0.0994  0.6321
  432MOL0     C58238   4.477   9.549   0.286  0.3536 -0.8165 -0.4138
  432MOL0     C58239   4.576   9.529   0.383  0.0863  0.3149  0.1331
  432MOL0     C58240   4.812   9.440   0.693  0.4470  0.7269  0.7645
  432MOL0     C58241   4.946   9.449   0.709 -0.0162  1.2344 -0.7120
  432MOL0     C58242   5.011   9.369   0.807  0.2534 -0.8297  0.6761
  432MOL0     C58243   4.946   9.285   0.884  0.6987  1.0136 -0.0806
  432MOL0     O58244   5.005   9.203   0.975 -0.8846  0.5957  0.4088
  432MOL0     C58245   5.147   9.193   1.001 -0.5069 -0.0152  0.4487
  432MOL0     C58246   5.216   9.071   0.929 -0.3489  0.2977  1.3444
  432MOL0     C58247   5.204   8.930   0.992 -0.6054 -0.4147 -0.1497
  432MOL0     C58248   5.139   8.829   0.906  0.3885 -0.1897 -0.4179
  432MOL0     C58249   5.147   8.691   0.967 -0.1352 -0.4680  0.3759
  432MOL0     C58250   5.184   8.592   1.029 -0.7444 -0.8504  0.5943
  432MOL0     C58251   4.810   9.266   0.862  0.7977 -0.2498  0.1004
  432MOL0     C58252   4.740   9.344   0.775 -0.6647  0.6490 -0.5129
  432MOL0     H58253   4.391   9.643   0.647 -1.1798  3.1712 -1.5584
  432MOL0     H58254   4.238   9.708   0.485 -1.7610 -0.5218 -1.7019
  432MOL0     H58255   4.113   9.502   0.270  0.6167 -0.6231 -0.1841
  432MOL0     H58256   4.095   9.656   0.327  1.1581 -1.8260  1.2193
  432MOL0     H58257   3.935   9.654   0.177  0.2308 -1.6227  0.0728
  432MOL0     H58258   4.068   9.735   0.089 -1.1539  0.3303 -0.2276
  432MOL0     H58259   4.103   9.514  -0.027  0.7336  1.9397  0.5750
  432MOL0     H58260   3.975   9.436   0.056 -2.4624 -0.0516 -0.3768
  432MOL0     H58261   3.904   9.683  -0.103 -0.3639  1.4400  4.7793
  432MOL0     H58262   3.934   9.529  -0.183  1.3005  1.2970 -1.5341
  432MOL0     H58263   3.760   9.428  -0.008 -2.2988 -0.8270 -1.9864
  432MOL0     H58264   3.742   9.598   0.047 -2.1142  0.5920 -0.8851
  432MOL0     H58265   3.665   9.669  -0.150 -1.5351  0.0539  1.0736
  432MOL0     H58266   3.697   9.514  -0.232  0.3787  1.5599  0.2447
  432MOL0     H58267   3.464   9.477  -0.191 -1.8230 -0.4914  1.4971
  432MOL0     H58268   3.532   9.422  -0.031  1.8138  0.1147  0.5715
  432MOL0     H58269   3.425   9.705  -0.085 -1.7384 -1.0636 -1.2211
  432MOL0     H58270   3.496   9.634   0.066  1.4555 -0.0844 -0.2124
  432MOL0     H58271   3.247   9.535  -0.238 -1.7756 -0.8319  0.7046
  432MOL0     H58272   3.009   9.446  -0.270 -0.2677  0.5074  0.0215
  432MOL0     H58273   2.957   9.371  -0.124  1.7993 -0.0814  0.3617
  432MOL0     H58274   2.894   9.670  -0.189 -1.5165 -1.0533 -1.7280
  432MOL0     H58275   2.831   9.577  -0.050 -1.3201 -1.5171  0.0510
  432MOL0     H58276   2.712   9.442  -0.180  3.7366 -1.4533 -0.5026
  432MOL0     H58277   2.755   9.520  -0.337  1.2166  0.6311  0.5338
  432MOL0     H58278   2.677   9.741  -0.258  0.5621 -0.7526 -0.5750
  432MOL0     H58279   2.625   9.670  -0.113  0.2393  2.4602  0.2273
  432MOL0     H58280   2.297   9.550  -0.437  0.6274 -0.0057  0.4497
  432MOL0     H58281   1.970   9.592  -0.364  2.8544 -1.8373  0.0536
  432MOL0     H58282   2.009   9.695  -0.513  0.1985  0.1930  0.0563
  432MOL0     H58283   2.079   9.533  -0.475 -0.3536 -3.6974  4.4517
  432MOL0     H58284   1.715   9.840  -0.344 -0.6604  0.2414  0.4891
  432MOL0     H58285   1.513   9.991  -0.331 -1.6285  2.9752 -1.4192
  432MOL0     H58286   1.440  10.165  -0.201 -1.4415 -0.0318  0.6011
  432MOL0     H58287   1.395  10.327  -0.226  1.0279 -1.2968  2.4956
  432MOL0     H58288   1.313  10.088  -0.379 -0.2253 -0.3069 -0.7528
  432MOL0     H58289   1.220  10.222  -0.324  0.2470 -1.4681 -0.4633
  432MOL0     H58290   1.220  10.226  -0.577 -0.6721 -1.5654  1.8707
  432MOL0     H58291   1.397  10.225  -0.578 -0.1718  0.9870  1.0560
  432MOL0     H58292   1.216  10.441  -0.464 -0.1616  1.1386  0.3604
  432MOL0     H58293   1.394  10.432  -0.446  0.3151 -0.6326 -0.8150
  432MOL0     H58294   1.258  10.423  -0.715 -1.8585 -1.1448  2.9924
  432MOL0     H58295   1.427  10.473  -0.698  0.3420  0.3804 -1.8609
  432MOL0     H58296   1.301  10.673  -0.708 -0.6434  3.0002  0.8597
  432MOL0     H58297   1.181  10.623  -0.582  0.3979 -0.6902 -0.3692
  432MOL0     H58298   1.472  10.683  -0.524  0.7815  1.3915  3.7611
  432MOL0     H58299   1.349  10.701  -0.408  0.3325  2.0653 -0.5905
  432MOL0     H58300   1.347  10.873  -0.641  1.2600 -0.3400  0.3336
  432MOL0     H58301   1.411  10.912  -0.487  3.3539 -1.7210 -0.9819
  432MOL0     H58302   1.793  10.316  -0.399 -0.7791 -0.3168 -0.9832
  432MOL0     H58303   1.978  10.162  -0.384  0.0451 -1.4631 -1.2106
  432MOL0     H58304   2.242   9.897  -0.093  0.3541  2.1844 -1.5329
  432MOL0     H58305   2.458   9.777  -0.114 -0.1112 -0.0599 -2.3238
  432MOL0     H58306   4.485   9.511   0.185 -0.9802  2.4914 -1.9410
  432MOL0     H58307   4.666   9.474   0.358  0.4197  2.0251 -2.8384
  432MOL0     H58308   4.993   9.529   0.652  0.9351  1.2164  0.0204
  432MOL0     H58309   5.118   9.381   0.823  0.5860  1.1231 -2.2318
  432MOL0     H58310   5.205   9.284   0.988 -0.5674  0.5792  3.5263
  432MOL0     H58311   5.157   9.173   1.108  0.6559  2.5691  0.8924
  432MOL0     H58312   5.319   9.103   0.910 -1.1016  3.7447  2.2690
  432MOL0     H58313   5.176   9.080   0.828  3.7354  1.4948 -0.3930
  432MOL0     H58314   5.146   8.948   1.082 -2.8466  0.4253 -1.6717
  432MOL0     H58315   5.302   8.889   1.021 -2.5591 -3.8583  2.3408
  432MOL0     H58316   5.161   8.826   0.799 -1.8888 -1.6190 -0.9151
  432MOL0     H58317   5.033   8.856   0.909  0.2844 -0.1345 -2.6810
  432MOL0     H58318   5.210   8.499   1.076 -0.1210  0.4405  2.9849
  432MOL0     H58319   4.766   9.187   0.922 -1.9878 -1.8060 -3.6018
  432MOL0     H58320   4.633   9.334   0.763 -0.5280 -0.0418 -1.2104
  433MOL0     O58321   7.957   8.301   2.842 -0.0044 -0.5032  0.0061
  433MOL0     C58322   8.024   8.357   2.757  0.0383 -0.4022 -0.0078
  433MOL0     O58323   7.983   8.399   2.628 -0.2569  0.4348 -0.2192
  433MOL0     C58324   7.846   8.390   2.598  0.2021  0.6597 -0.4454
  433MOL0     C58325   7.756   8.488   2.639 -0.3949 -0.1920 -0.5542
  433MOL0     C58326   7.624   8.491   2.598 -0.5207 -0.0436 -0.3803
  433MOL0     C58327   7.585   8.397   2.499 -0.3089 -0.0854  0.2825
  433MOL0     O58328   7.457   8.390   2.446  0.0273 -0.3233  0.3953
  433MOL0     C58329   7.352   8.460   2.520  0.3501 -0.1238 -0.3058
  433MOL0     C58330   7.207   8.405   2.471 -0.9216  0.6909  0.5788
  433MOL0     C58331   7.178   8.252   2.457  1.2821 -0.2482 -0.2833
  433MOL0     C58332   7.030   8.211   2.447  0.1040 -0.5012  0.0771
  433MOL0     C58333   6.971   8.251   2.312 -0.4756  0.7015  0.7607
  433MOL0     C58334   7.005   8.149   2.204 -0.0011  0.2321 -0.2369
  433MOL0     C58335   6.942   8.186   2.075  0.0440 -0.1865  0.7266
  433MOL0     C58336   7.003   8.086   1.967 -0.4793 -0.4701 -0.0547
  433MOL0     N58337   7.002   8.156   1.837  1.1141  0.4989  1.1175
  433MOL0     C58338   6.915   8.124   1.734 -0.5255 -0.4352  0.3379
  433MOL0     C58339   6.936   8.217   1.637 -0.0956 -0.3561 -0.8060
  433MOL0     C58340   6.857   8.232   1.514  0.0789  0.3605  0.1343
  433MOL0     C58341   6.695   8.218   1.525  0.1604  0.0055 -0.2176
  433MOL0     C58342   6.626   8.286   1.650 -0.1878  0.4983  0.4028
  433MOL0     C58343   6.474   8.275   1.639 -0.1842 -0.0471  0.3583
  433MOL0     O58344   6.416   8.296   1.762 -0.1221 -0.3156 -0.1550
  433MOL0     C58345   6.303   8.363   1.786  0.0680 -0.2609  0.1377
  433MOL0     C58346   6.301   8.436   1.899 -0.2107 -0.5391 -0.6607
  433MOL0     C58347   6.188   8.501   1.952  0.2674  0.3552 -0.1603
  433MOL0     C58348   6.214   8.592   2.078 -0.1032 -0.1637  0.2553
  433MOL0     C58349   6.064   8.489   1.878 -0.7904 -0.0983  0.1290
  433MOL0     C58350   5.933   8.551   1.910 -0.7326  0.1249 -0.4919
  433MOL0     O58351   5.853   8.580   1.805  0.0871  0.3912  0.3554
  433MOL0     C58352   5.717   8.599   1.813 -0.6142  0.4685 -0.5884
  433MOL0     C58353   5.649   8.571   1.698 -0.2286  0.1831 -0.9790
  433MOL0     C58354   5.509   8.564   1.696 -1.0653  0.4974 -0.3003
  433MOL0     C58355   5.434   8.591   1.815  0.3420 -0.4049 -0.6162
  433MOL0     O58356   5.298   8.583   1.818  0.5228  0.1258 -0.4615
  433MOL0     C58357   5.236   8.697   1.870  1.0311 -0.2115 -0.7533
  433MOL0     C58358   5.100   8.703   1.820 -0.1701 -0.2073 -0.0267
  433MOL0     C58359   5.012   8.799   1.905 -0.4557  0.1096  0.1728
  433MOL0     C58360   4.864   8.768   1.894  0.2636  0.1539 -0.1113
  433MOL0     C58361   4.772   8.845   1.999  0.6815  0.1548  0.4831
  433MOL0     C58362   4.764   8.995   1.955 -0.8545 -0.0157 -0.4549
  433MOL0     C58363   4.654   9.066   2.031  0.2909 -0.8691 -0.2004
  433MOL0     C58364   4.659   9.218   2.005 -0.2947  0.3300  0.2524
  433MOL0    Cl58365   4.540   9.297   2.115  0.0812 -0.0943  0.1263
  433MOL0     C58366   5.506   8.618   1.928  0.1168  1.1879  0.4294
  433MOL0     C58367   5.645   8.612   1.935  0.4983  0.5003  0.2210
  433MOL0     O58368   5.911   8.597   2.026  0.9538  0.0910 -0.0527
  433MOL0     C58369   6.070   8.432   1.753 -0.5019  0.1582  0.4942
  433MOL0     C58370   6.188   8.371   1.704 -0.1290  0.4609 -0.8759
  433MOL0     N58371   7.036   8.298   1.685  0.0579  0.0295  0.5813
  433MOL0     N58372   7.066   8.268   1.804 -0.5174  0.6076 -0.3207
  433MOL0     C58373   7.678   8.295   2.450  0.5031 -0.0918 -0.1965
  433MOL0     C58374   7.805   8.302   2.501  0.3355 -0.4958  0.1075
  433MOL0     C58375   8.161   8.397   2.802 -0.5513  0.6947  0.2805
  433MOL0     C58376   8.201   8.367   2.935 -0.0365 -0.0003  0.5022
  433MOL0     C58377   8.321   8.420   2.982  0.1421  0.2694  0.2240
  433MOL0     C58378   8.409   8.481   2.893  0.0221  0.7545 -0.1182
  433MOL0     O58379   8.535   8.529   2.936 -0.1769 -0.7713  0.5135
  433MOL0     C58380   8.558   8.533   3.079 -0.4080 -0.3375 -0.9669
  433MOL0     C58381   8.647   8.652   3.108 -0.6230  0.4247 -0.2143
  433MOL0     C58382   8.786   8.602   3.104  0.8972  0.0177 -0.2315
  433MOL0     C58383   8.890   8.715   3.126  0.4084 -0.2911  0.4010
  433MOL0     C58384   9.005   8.684   3.209  0.6079 -0.4976 -0.5608
  433MOL0     C58385   9.104   8.675   3.278  0.3801 -0.2709 -0.3205
  433MOL0     C58386   8.380   8.486   2.760  0.9716  0.2276  0.3734
  433MOL0     C58387   8.263   8.443   2.710  1.1041  0.4622 -0.1288
  433MOL0     H58388   7.798   8.564   2.704  1.3089 -1.0425 -0.5953
  433MOL0     H58389   7.559   8.563   2.647 -1.0216 -0.9049  0.2477
  433MOL0     H58390   7.350   8.442   2.628 -0.5500  0.5803 -0.1872
  433MOL0     H58391   7.377   8.561   2.487  1.7549 -1.4700 -3.7369
  433MOL0     H58392   7.127   8.440   2.536 -1.0862 -1.0498  1.3406
  433MOL0     H58393   7.191   8.452   2.373  0.1411  0.4083  0.2541
  433MOL0     H58394   7.214   8.207   2.364 -1.9819 -2.0554 -0.8245
  433MOL0     H58395   7.229   8.199   2.538  1.4632 -1.2519 -1.0353
  433MOL0     H58396   7.017   8.103   2.454 -1.3962 -0.3770 -0.3515
  433MOL0     H58397   6.982   8.254   2.535  1.5129 -1.0666  1.1470
  433MOL0     H58398   6.864   8.241   2.332 -0.5255 -2.5376 -0.5473
  433MOL0     H58399   7.002   8.350   2.275 -4.2674  0.8301 -2.9773
  433MOL0     H58400   7.114   8.145   2.190  0.5147 -0.5923  3.0957
  433MOL0     H58401   6.974   8.054   2.249  2.1337  0.5595  2.1752
  433MOL0     H58402   6.833   8.182   2.077  0.0310 -1.7570 -0.9529
  433MOL0     H58403   6.975   8.289   2.056 -2.4777  0.2332 -2.0800
  433MOL0     H58404   6.955   7.989   1.981 -0.8868 -0.0765  1.4747
  433MOL0     H58405   7.108   8.066   1.989 -0.0262 -1.6443 -2.8607
  433MOL0     H58406   6.833   8.053   1.733 -0.4656 -0.6299  2.8137
  433MOL0     H58407   6.877   8.335   1.483 -0.9147 -0.1331 -2.4201
  433MOL0     H58408   6.891   8.175   1.427 -1.4568 -0.6816  0.1764
  433MOL0     H58409   6.676   8.111   1.531 -2.1131  0.3070 -0.9481
  433MOL0     H58410   6.651   8.273   1.441 -0.3372 -0.1414 -0.0533
  433MOL0     H58411   6.658   8.389   1.672  2.6542 -0.1621 -0.1655
  433MOL0     H58412   6.658   8.229   1.738 -0.2364 -0.4624 -0.1988
  433MOL0     H58413   6.449   8.181   1.589  0.0567  0.4852 -0.7992
  433MOL0     H58414   6.435   8.350   1.570  0.5396 -0.3564 -0.3970
  433MOL0     H58415   6.392   8.433   1.959 -1.5768 -0.0295  1.5831
  433MOL0     H58416   6.194   8.555   2.179  0.3017  0.1037  0.4350
  433MOL0     H58417   6.319   8.622   2.084  0.1076 -0.9021  0.3676
  433MOL0     H58418   6.151   8.680   2.057 -0.4321 -0.9028 -2.2180
  433MOL0     H58419   5.690   8.568   1.598 -1.4104  2.3587 -1.5673
  433MOL0     H58420   5.459   8.541   1.602 -1.3833 -2.8520  0.5486
  433MOL0     H58421   5.223   8.694   1.979 -0.5254 -1.1863 -0.9332
  433MOL0     H58422   5.304   8.778   1.842  4.1705 -1.4395  2.4783
  433MOL0     H58423   5.105   8.746   1.719  0.0443  1.3360  0.6199
  433MOL0     H58424   5.051   8.605   1.814 -1.8724  0.6902 -1.4022
  433MOL0     H58425   5.037   8.901   1.874  0.5390  0.1204  0.9425
  433MOL0     H58426   5.032   8.802   2.013 -1.0458  2.5594  0.2926
  433MOL0     H58427   4.837   8.776   1.788 -1.7073 -1.0919  0.2538
  433MOL0     H58428   4.852   8.666   1.931  0.5217  0.1648  0.0078
  433MOL0     H58429   4.820   8.831   2.096  0.9445  0.9418  0.4765
  433MOL0     H58430   4.670   8.807   1.988  0.5037  0.0842  2.1157
  433MOL0     H58431   4.863   9.041   1.952 -0.7284 -0.2771 -0.3693
  433MOL0     H58432   4.730   9.000   1.851 -0.0448  1.8851 -0.6577
  433MOL0     H58433   4.660   9.062   2.140  0.6042  1.6690 -0.0570
  433MOL0     H58434   4.558   9.027   1.997  0.0633  0.0748 -0.6820
  433MOL0     H58435   4.632   9.231   1.900 -1.3264 -0.2911  0.4204
  433MOL0     H58436   4.763   9.244   2.026  0.6137 -3.4790  1.4213
  433MOL0     H58437   5.443   8.625   2.016 -2.8879  0.6411 -1.5646
  433MOL0     H58438   5.680   8.638   2.034 -0.7568 -0.6105  0.9982
  433MOL0     H58439   5.992   8.430   1.678  0.9697 -0.0109 -1.0762
  433MOL0     H58440   6.191   8.312   1.613  2.0843  0.8689 -1.1285
  433MOL0     H58441   7.651   8.225   2.372 -0.6944  2.2977 -2.0413
  433MOL0     H58442   7.880   8.244   2.448  0.9986 -0.0739  0.5659
  433MOL0     H58443   8.133   8.327   3.010  0.3396 -0.6782  0.4908
  433MOL0     H58444   8.353   8.402   3.084  2.0419  2.2474  0.0473
  433MOL0     H58445   8.470   8.557   3.140 -0.6658  0.7233 -1.7269
  433MOL0     H58446   8.606   8.446   3.123 -0.1490 -0.2093 -0.9969
  433MOL0     H58447   8.639   8.672   3.215 -0.4857  2.7855 -0.5830
  433MOL0     H58448   8.619   8.737   3.045 -1.6463  1.4415  1.5494
  433MOL0     H58449   8.814   8.563   3.005 -0.4780  0.0316 -0.6522
  433MOL0     H58450   8.816   8.528   3.178 -1.6418 -1.1721 -0.3035
  433MOL0     H58451   8.845   8.799   3.180  1.6452  0.9889 -0.4995
  433MOL0     H58452   8.911   8.749   3.025  1.3197 -0.3646  0.5536
  433MOL0     H58453   9.193   8.650   3.332 -0.6667 -0.2612  1.5214
  433MOL0     H58454   8.448   8.528   2.686 -0.4519 -0.0735 -1.1517
  433MOL0     H58455   8.229   8.445   2.607 -4.6468  0.7329  1.4127
  434MOL0     O58456   3.916   0.130   4.676 -0.7629  0.0112  0.2477
  434MOL0     C58457   4.003   0.058   4.620  0.3283  0.5199 -0.4769
  434MOL0     O58458   4.003  -0.082   4.623  0.5949 -0.1112  0.2147
  434MOL0     C58459   3.880  -0.143   4.642 -1.1376  0.1251 -0.5086
  434MOL0     C58460   3.771  -0.108   4.566  0.9203 -0.1779 -0.1605
  434MOL0     C58461   3.657  -0.190   4.581  0.1763  0.2734  0.0158
  434MOL0     C58462   3.651  -0.292   4.680 -0.0210  0.4376  0.2165
  434MOL0     O58463   3.535  -0.360   4.708  0.6524 -0.4067  0.0566
  434MOL0     C58464   3.461  -0.323   4.823  0.0554 -0.0084  1.1030
  434MOL0     C58465   3.364  -0.207   4.785  1.1055 -0.7384  0.1384
  434MOL0     C58466   3.248  -0.202   4.881  0.0361 -0.0506  0.4712
  434MOL0     C58467   3.145  -0.311   4.847 -0.7642 -0.5555 -0.2324
  434MOL0     C58468   3.036  -0.305   4.956  0.5008 -0.7877 -0.0007
  434MOL0     C58469   2.934  -0.424   4.955 -0.2811 -0.8938 -0.0589
  434MOL0     C58470   2.862  -0.450   4.829  0.4014  0.3766 -0.0266
  434MOL0     C58471   2.795  -0.591   4.833  0.3492  0.2478  0.0557
  434MOL0     N58472   2.716  -0.602   4.710  0.2216 -0.2044 -0.7726
  434MOL0     C58473   2.593  -0.542   4.676  0.1070 -0.6372 -0.4657
  434MOL0     C58474   2.567  -0.578   4.551 -0.0354  1.3734 -0.0648
  434MOL0     C58475   2.436  -0.555   4.473 -0.1859 -0.3717  0.2486
  434MOL0     C58476   2.337  -0.448   4.523  0.5160 -0.3810  0.2984
  434MOL0     C58477   2.236  -0.409   4.416  1.0199  0.9790 -0.1234
  434MOL0     C58478   2.128  -0.517   4.387 -0.5300  0.0500 -0.5665
  434MOL0     O58479   2.186  -0.618   4.294 -0.0935 -0.2790 -0.0613
  434MOL0     C58480   2.111  -0.702   4.215 -0.3010  0.5411 -0.1611
  434MOL0     C58481   2.187  -0.787   4.143 -0.7877  0.4381 -0.3242
  434MOL0     C58482   2.133  -0.875   4.051 -0.1630 -0.8935 -0.1489
  434MOL0     C58483   2.231  -0.954   3.974 -0.1833 -0.2642 -0.2678
  434MOL0     C58484   1.985  -0.879   4.028  0.0851 -0.0754 -0.4792
  434MOL0     C58485   1.914  -0.970   3.939  0.6013 -0.0414 -0.1079
  434MOL0     O58486   1.992  -1.057   3.867  0.4793  0.1340 -0.3972
  434MOL0     C58487   1.948  -1.167   3.792 -0.2650  0.6842  0.5293
  434MOL0     C58488   2.044  -1.237   3.723  0.8901  0.1746  0.2954
  434MOL0     C58489   2.011  -1.338   3.636  0.6343  0.0581 -0.5907
  434MOL0     C58490   1.879  -1.384   3.632 -0.2994 -0.0910  0.5228
  434MOL0     O58491   1.860  -1.485   3.535  0.2571  0.2657  0.0162
  434MOL0     C58492   1.732  -1.549   3.524 -0.5301  0.3940 -0.7250
  434MOL0     C58493   1.733  -1.648   3.408  0.3716  0.5320 -0.1438
  434MOL0     C58494   1.592  -1.716   3.403 -1.0137  0.9258 -0.1709
  434MOL0     C58495   1.563  -1.807   3.278 -0.1618  0.1283 -1.3438
  434MOL0     C58496   1.452  -1.910   3.286  0.3619 -0.3864  0.4486
  434MOL0     C58497   1.431  -1.962   3.145  1.0137 -0.1626 -0.0835
  434MOL0     C58498   1.296  -2.052   3.140 -0.2373 -0.1838 -0.2842
  434MOL0     C58499   1.314  -2.188   3.212 -0.7089 -0.2648 -0.2078
  434MOL0    Cl58500   1.172  -2.283   3.168 -0.4358 -0.5702 -0.0106
  434MOL0     C58501   1.777  -1.313   3.706  0.7567 -0.0303  0.1424
  434MOL0     C58502   1.814  -1.210   3.790 -0.4068 -0.1052 -0.4383
  434MOL0     O58503   1.793  -0.963   3.937  0.0621  0.6867 -0.2033
  434MOL0     C58504   1.914  -0.797   4.111  0.7138  0.0566 -0.4566
  434MOL0     C58505   1.977  -0.703   4.193  0.5456  0.5926 -0.0696
  434MOL0     N58506   2.667  -0.656   4.508 -0.2953 -0.5395 -0.4152
  434MOL0     N58507   2.758  -0.667   4.604  0.3567  0.3160  0.5864
  434MOL0     C58508   3.767  -0.340   4.742 -1.0045 -0.3007  0.3335
  434MOL0     C58509   3.884  -0.267   4.718 -0.7375  1.1139 -0.0420
  434MOL0     C58510   4.100   0.110   4.526 -0.6373 -0.2819  0.7244
  434MOL0     C58511   4.176   0.028   4.444 -0.5365 -0.5964 -1.2094
  434MOL0     C58512   4.276   0.074   4.359 -0.6835  0.2577  0.2335
  434MOL0     C58513   4.298   0.213   4.343 -0.7360  0.3751  0.6676
  434MOL0     O58514   4.383   0.264   4.250  0.3279 -0.0190 -0.2631
  434MOL0     C58515   4.446   0.189   4.148  0.5254 -0.0440 -0.8711
  434MOL0     C58516   4.561   0.259   4.082 -0.9226 -1.3281 -0.9317
  434MOL0     C58517   4.522   0.399   4.036 -0.8350  0.2941 -0.3801
  434MOL0     C58518   4.631   0.458   3.948  0.6119  0.0419 -0.7137
  434MOL0     C58519   4.760   0.470   4.020 -0.8595  0.3010  0.2678
  434MOL0     C58520   4.869   0.477   4.084 -0.8658 -0.9803 -0.1178
  434MOL0     C58521   4.229   0.298   4.427  0.3400  0.0957 -0.3904
  434MOL0     C58522   4.116   0.247   4.509  1.3168  0.4819 -0.3565
  434MOL0     H58523   3.770  -0.025   4.496  1.2890 -1.2895 -1.5259
  434MOL0     H58524   3.561  -0.164   4.539  0.6713  3.3400  0.5295
  434MOL0     H58525   3.401  -0.410   4.850 -0.7968  0.1989 -0.0339
  434MOL0     H58526   3.530  -0.292   4.902  0.2502 -0.3839  1.0815
  434MOL0     H58527   3.418  -0.113   4.797  1.1502 -0.3825 -2.2528
  434MOL0     H58528   3.332  -0.222   4.681 -0.2123 -0.4439  0.4856
  434MOL0     H58529   3.276  -0.191   4.986  0.6620  0.8254  0.2240
  434MOL0     H58530   3.204  -0.107   4.850 -1.5129 -0.1587  2.1187
  434MOL0     H58531   3.089  -0.289   4.755 -2.7325 -0.2756  0.9856
  434MOL0     H58532   3.189  -0.411   4.839 -0.2580 -0.2698 -1.2302
  434MOL0     H58533   3.080  -0.292   5.055  1.2751 -0.3988 -0.3805
  434MOL0     H58534   2.984  -0.214   4.925  2.2617 -0.4267 -2.1852
  434MOL0     H58535   2.995  -0.510   4.983 -1.4650 -1.7067  0.0918
  434MOL0     H58536   2.863  -0.403   5.035  0.7968 -0.1634  0.7468
  434MOL0     H58537   2.784  -0.373   4.835 -0.9127 -0.6587 -2.4273
  434MOL0     H58538   2.919  -0.438   4.737 -3.6265 -2.6061 -3.2586
  434MOL0     H58539   2.719  -0.598   4.912 -4.0372  1.7851 -3.5788
  434MOL0     H58540   2.867  -0.673   4.843 -0.0906 -0.5671 -2.6992
  434MOL0     H58541   2.527  -0.480   4.736  1.2244 -0.4714  0.6440
  434MOL0     H58542   2.473  -0.520   4.375 -2.0234  0.8756 -0.0496
  434MOL0     H58543   2.384  -0.648   4.449  0.7165 -0.8660  0.1538
  434MOL0     H58544   2.395  -0.357   4.538 -1.2321  1.0774 -1.2058
  434MOL0     H58545   2.289  -0.473   4.618 -1.2547 -2.9454 -1.1279
  434MOL0     H58546   2.292  -0.384   4.325  0.2316 -0.0458 -0.9260
  434MOL0     H58547   2.190  -0.318   4.455  2.8478  2.1809 -0.6737
  434MOL0     H58548   2.039  -0.465   4.350 -1.2726 -0.8538 -0.0884
  434MOL0     H58549   2.118  -0.570   4.482  1.6514 -0.3267 -0.5002
  434MOL0     H58550   2.294  -0.781   4.161 -1.0053  1.4632  0.7995
  434MOL0     H58551   2.335  -0.931   3.997  0.4825 -1.6412 -1.7060
  434MOL0     H58552   2.216  -1.061   3.984  0.4466 -0.3774 -0.4987
  434MOL0     H58553   2.215  -0.925   3.869 -0.4541  0.1304 -0.1199
  434MOL0     H58554   2.148  -1.208   3.729  0.4253  1.6847  2.0642
  434MOL0     H58555   2.095  -1.380   3.581  2.1008 -0.8738  2.1467
  434MOL0     H58556   1.706  -1.608   3.612 -0.1264  1.4076  0.0990
  434MOL0     H58557   1.652  -1.475   3.518 -0.3690  0.6754  0.4243
  434MOL0     H58558   1.743  -1.596   3.312  2.1255 -1.1069 -0.9183
  434MOL0     H58559   1.802  -1.732   3.422  1.6072  1.6289  0.6102
  434MOL0     H58560   1.510  -1.645   3.415 -1.9934 -0.1760 -0.2061
  434MOL0     H58561   1.600  -1.791   3.482  1.2156  2.2066  0.9356
  434MOL0     H58562   1.538  -1.738   3.197 -0.7735 -0.0230 -1.2862
  434MOL0     H58563   1.656  -1.860   3.254  0.3588  0.1055  0.5747
  434MOL0     H58564   1.360  -1.859   3.315 -1.3676 -3.3880  0.6683
  434MOL0     H58565   1.475  -1.993   3.353 -4.7696 -2.8819 -0.3184
  434MOL0     H58566   1.431  -1.881   3.071 -0.1912 -0.2068 -0.1474
  434MOL0     H58567   1.518  -2.025   3.126  2.1123  1.1065  0.5975
  434MOL0     H58568   1.262  -2.064   3.037 -0.1158 -1.5824 -0.1819
  434MOL0     H58569   1.214  -1.998   3.188 -0.6534 -1.1803  0.1772
  434MOL0     H58570   1.316  -2.164   3.318  1.0046 -0.1458 -0.2294
  434MOL0     H58571   1.407  -2.239   3.183 -0.0346  1.2360 -0.8289
  434MOL0     H58572   1.677  -1.355   3.697 -0.1406  2.2922 -1.7859
  434MOL0     H58573   1.734  -1.168   3.851  0.3234  1.4079 -0.4832
  434MOL0     H58574   1.807  -0.788   4.098  0.7128  1.8705  0.4828
  434MOL0     H58575   1.906  -0.638   4.242  1.6386  2.4280 -0.8247
  434MOL0     H58576   3.763  -0.422   4.813  2.7168  0.2662  1.4023
  434MOL0     H58577   3.976  -0.286   4.774 -2.5363 -0.8860  2.5073
  434MOL0     H58578   4.172  -0.080   4.455 -1.6183 -0.4767 -0.2944
  434MOL0     H58579   4.325   0.012   4.285  0.8816  1.0360  0.5596
  434MOL0     H58580   4.487   0.100   4.197 -0.7286 -1.1487 -1.7303
  434MOL0     H58581   4.375   0.149   4.074  1.2286 -1.9020 -0.6013
  434MOL0     H58582   4.603   0.198   4.001  3.3212  1.1986 -0.8922
  434MOL0     H58583   4.642   0.267   4.155 -1.3102  1.2115 -0.6952
  434MOL0     H58584   4.501   0.458   4.126  1.5980 -2.0679  1.9104
  434MOL0     H58585   4.435   0.390   3.971 -3.6085 -0.9270  3.1677
  434MOL0     H58586   4.597   0.558   3.918 -0.4525  0.1343  0.7189
  434MOL0     H58587   4.632   0.400   3.855  0.0620 -0.9198 -0.1366
  434MOL0     H58588   4.964   0.491   4.130 -0.8345  0.5736 -0.5897
  434MOL0     H58589   4.250   0.404   4.430  1.0385 -0.0465  0.2154
  434MOL0     H58590   4.045   0.309   4.563  3.6954  1.4009  1.9479
  435MOL0     O58591   5.412   6.474   7.465 -1.3635  0.2300 -0.2192
  435MOL0     C58592   5.508   6.526   7.404 -0.2194 -0.0430  1.5407
  435MOL0     O58593   5.497   6.617   7.300  0.3023 -0.2849  0.7449
  435MOL0     C58594   5.372   6.623   7.249 -0.2279  1.2543  0.2422
  435MOL0     C58595   5.317   6.744   7.218  0.7053 -0.2938 -0.8412
  435MOL0     C58596   5.204   6.764   7.143  0.1842 -0.2902 -0.1364
  435MOL0     C58597   5.127   6.652   7.105 -0.0067 -0.7453 -0.1756
  435MOL0     O58598   5.006   6.660   7.047  0.6068 -0.0245  0.3436
  435MOL0     C58599   4.917   6.766   7.075  0.2903  0.0704 -0.6860
  435MOL0     C58600   4.787   6.743   7.007  0.9086  0.3944 -0.1138
  435MOL0     C58601   4.706   6.626   7.073 -0.4890 -0.6631  0.3809
  435MOL0     C58602   4.561   6.610   7.022 -0.3835 -0.3122  0.0811
  435MOL0     C58603   4.499   6.475   7.061  0.4468 -0.9280  0.2071
  435MOL0     C58604   4.348   6.470   7.069  0.3495  0.1499 -0.2329
  435MOL0     C58605   4.280   6.494   6.934  0.6303 -0.4442  0.4619
  435MOL0     C58606   4.138   6.457   6.962 -0.6347  0.0753  0.4307
  435MOL0     N58607   4.052   6.471   6.840 -0.3194 -0.5623 -0.2597
  435MOL0     C58608   4.058   6.569   6.746  0.2617  0.0780 -0.1560
  435MOL0     C58609   3.962   6.530   6.655 -0.3585 -0.2277 -0.5373
  435MOL0     C58610   3.946   6.608   6.531 -0.2631  0.7345  0.6150
  435MOL0     C58611   3.882   6.534   6.410  0.8326  0.4460  0.8388
  435MOL0     C58612   3.738   6.579   6.396  0.3326 -0.3542 -0.3935
  435MOL0     C58613   3.656   6.471   6.318 -1.2234  0.6408 -0.1170
  435MOL0     O58614   3.545   6.535   6.260  0.5037 -0.2355  0.1016
  435MOL0     C58615   3.420   6.545   6.329 -0.5209 -0.4538 -0.5853
  435MOL0     C58616   3.385   6.490   6.462 -0.8886  0.7089 -0.2967
  435MOL0     C58617   3.268   6.507   6.522 -0.3170  0.1409 -0.0311
  435MOL0     C58618   3.258   6.450   6.664  0.2066  0.3534 -0.1897
  435MOL0     C58619   3.174   6.589   6.466 -0.6342 -0.1168 -0.2880
  435MOL0     C58620   3.032   6.603   6.519  0.1420  0.2480  0.0219
  435MOL0     O58621   2.963   6.715   6.498  0.7413 -0.5297  0.6936
  435MOL0     C58622   2.824   6.726   6.525 -0.5180 -0.0577  0.2579
  435MOL0     C58623   2.760   6.853   6.484 -0.5796 -0.3290  0.2167
  435MOL0     C58624   2.625   6.881   6.507  1.0166 -0.3795  0.5529
  435MOL0     C58625   2.544   6.793   6.574 -0.3866  0.0733 -0.5974
  435MOL0     O58626   2.426   6.850   6.610  0.1497  0.5731  0.6541
  435MOL0     C58627   2.315   6.763   6.584 -0.1450  0.6178 -0.8118
  435MOL0     C58628   2.189   6.805   6.666  0.3359 -0.0162 -0.1500
  435MOL0     C58629   2.068   6.711   6.651  0.2664  0.2469  0.7497
  435MOL0     C58630   1.961   6.763   6.747 -0.5541  1.2678 -0.0141
  435MOL0     C58631   1.820   6.699   6.718 -0.1934  0.3788 -0.0247
  435MOL0     C58632   1.743   6.774   6.611 -0.0208 -0.3681  0.3386
  435MOL0     C58633   1.585   6.754   6.637 -0.2673 -0.3198 -0.5371
  435MOL0     C58634   1.498   6.845   6.543 -0.9611 -0.5942  0.3491
  435MOL0    Cl58635   1.515   6.782   6.374 -0.2208 -0.0078  0.1810
  435MOL0     C58636   2.603   6.680   6.626  0.4947  0.3351 -0.3035
  435MOL0     C58637   2.737   6.640   6.596  0.4162  0.5474 -0.1283
  435MOL0     O58638   2.987   6.505   6.577 -0.1852  0.0616  0.0421
  435MOL0     C58639   3.197   6.637   6.336 -0.0959  0.1474  0.5757
  435MOL0     C58640   3.317   6.618   6.265 -0.4038 -0.2253 -0.2805
  435MOL0     N58641   3.906   6.414   6.696 -1.5179  0.8471 -0.5872
  435MOL0     N58642   3.959   6.382   6.810  0.4199  0.4438 -0.7852
  435MOL0     C58643   5.179   6.529   7.126 -0.1800  0.6805 -0.4500
  435MOL0     C58644   5.305   6.512   7.195  0.0706  0.3025 -0.2571
  435MOL0     C58645   5.643   6.501   7.460  0.2048 -0.2854 -0.3815
  435MOL0     C58646   5.750   6.577   7.427  0.0866 -0.9043  0.3680
  435MOL0     C58647   5.872   6.568   7.497  0.1378  0.1448  0.1436
  435MOL0     C58648   5.892   6.478   7.598  0.9699  0.0340  0.3555
  435MOL0     O58649   6.012   6.474   7.665  0.6776  0.2083  0.2159
  435MOL0     C58650   6.086   6.368   7.606  0.4311  0.4991  0.0063
  435MOL0     C58651   6.180   6.430   7.508 -0.2696  0.0455  0.4227
  435MOL0     C58652   6.290   6.507   7.579  0.5716 -0.4636  1.2731
  435MOL0     C58653   6.378   6.589   7.484  0.3507 -0.5677  0.2087
  435MOL0     C58654   6.299   6.697   7.430  0.1360 -0.3759 -0.6535
  435MOL0     C58655   6.249   6.792   7.372 -0.4536  0.7608  0.4454
  435MOL0     C58656   5.784   6.388   7.616  0.2754 -0.0292 -0.4219
  435MOL0     C58657   5.666   6.405   7.552  0.2086  0.0560  0.5201
  435MOL0     H58658   5.378   6.829   7.247 -1.4857  0.5889  1.5825
  435MOL0     H58659   5.169   6.864   7.119 -0.1588 -0.5076 -0.5443
  435MOL0     H58660   4.908   6.773   7.184 -0.3627  1.0401 -0.7919
  435MOL0     H58661   4.947   6.865   7.039 -1.4805  0.4723 -1.1697
  435MOL0     H58662   4.731   6.837   7.014 -1.3597 -0.9130  0.5770
  435MOL0     H58663   4.789   6.726   6.899 -1.2207 -1.0222 -0.0047
  435MOL0     H58664   4.751   6.533   7.037 -1.3148 -0.7293 -0.5167
  435MOL0     H58665   4.712   6.624   7.182 -2.0850 -2.0443  0.4806
  435MOL0     H58666   4.491   6.679   7.071 -0.3473 -0.4657  0.3456
  435MOL0     H58667   4.566   6.611   6.912  3.0595  0.6191  0.1606
  435MOL0     H58668   4.534   6.411   6.979  0.9545 -1.6414  0.9690
  435MOL0     H58669   4.536   6.451   7.161  1.9285  0.2124 -0.0330
  435MOL0     H58670   4.313   6.375   7.111 -1.3056  0.4763 -0.8137
  435MOL0     H58671   4.315   6.532   7.153 -2.4679 -2.2230  0.5818
  435MOL0     H58672   4.281   6.595   6.891  0.5547 -0.6378  0.0045
  435MOL0     H58673   4.329   6.432   6.858 -2.0092 -1.2560 -0.6966
  435MOL0     H58674   4.096   6.535   7.027  0.1055  0.6566  0.2344
  435MOL0     H58675   4.126   6.357   7.003 -1.7652  0.6505  1.5821
  435MOL0     H58676   4.125   6.654   6.736 -2.5331  2.6342  0.9886
  435MOL0     H58677   3.893   6.701   6.554 -1.8217  0.2711 -0.9445
  435MOL0     H58678   4.047   6.636   6.499  0.2618 -1.2249  0.4219
  435MOL0     H58679   3.895   6.427   6.430 -1.5991  0.2709  1.7438
  435MOL0     H58680   3.932   6.562   6.316  0.8473 -1.9230  0.0872
  435MOL0     H58681   3.742   6.678   6.350  1.3733  0.0507  0.4978
  435MOL0     H58682   3.695   6.592   6.496  2.7187 -2.4109  1.0402
  435MOL0     H58683   3.616   6.382   6.367  0.3689 -0.8145 -1.3416
  435MOL0     H58684   3.729   6.434   6.245 -1.1225 -2.4144  1.3511
  435MOL0     H58685   3.456   6.426   6.514 -0.1889 -0.0443 -2.1001
  435MOL0     H58686   3.351   6.486   6.710  0.6525 -2.0313  0.8967
  435MOL0     H58687   3.189   6.505   6.728  1.2412  1.1922  0.2374
  435MOL0     H58688   3.243   6.342   6.667 -3.3074  0.7282 -0.3734
  435MOL0     H58689   2.822   6.931   6.441  2.0708 -1.7789  1.1118
  435MOL0     H58690   2.581   6.976   6.478  2.4089  1.1024  2.9183
  435MOL0     H58691   2.289   6.772   6.478 -2.0015  0.8904 -0.3725
  435MOL0     H58692   2.338   6.658   6.599 -1.1103 -0.0785 -3.6023
  435MOL0     H58693   2.205   6.807   6.774 -3.7136  0.2691  0.5879
  435MOL0     H58694   2.153   6.903   6.635 -0.9358 -0.8916 -1.5733
  435MOL0     H58695   2.095   6.607   6.670 -2.2077 -0.4663  0.7014
  435MOL0     H58696   2.030   6.712   6.548 -0.2056 -1.2063  0.9029
  435MOL0     H58697   1.986   6.741   6.851  0.1724  2.7268  0.1519
  435MOL0     H58698   1.950   6.871   6.732  0.2985  1.6147  1.6043
  435MOL0     H58699   1.769   6.705   6.814 -1.7213  0.0017 -0.7752
  435MOL0     H58700   1.811   6.592   6.698 -2.3721 -0.1139  2.9686
  435MOL0     H58701   1.764   6.881   6.610  2.1216 -0.6897 -2.3593
  435MOL0     H58702   1.772   6.732   6.514 -1.5793  2.6459 -1.5540
  435MOL0     H58703   1.559   6.772   6.741 -3.7533  0.8729 -1.4717
  435MOL0     H58704   1.555   6.652   6.615 -4.5103  0.4138  0.9929
  435MOL0     H58705   1.537   6.947   6.547 -2.1238 -0.1682  1.2754
  435MOL0     H58706   1.394   6.850   6.575 -1.6964  1.5396 -2.0608
  435MOL0     H58707   2.538   6.628   6.696  0.8801 -0.0864 -0.2560
  435MOL0     H58708   2.764   6.542   6.636 -0.9067 -1.0245 -2.7528
  435MOL0     H58709   3.116   6.690   6.286 -0.4901 -0.7886  0.2073
  435MOL0     H58710   3.331   6.644   6.161  1.1762 -3.0037 -0.8457
  435MOL0     H58711   5.130   6.448   7.071 -1.1739  0.7830  0.2660
  435MOL0     H58712   5.342   6.411   7.207 -0.1822  0.0348 -1.5923
  435MOL0     H58713   5.747   6.656   7.353 -3.1668  0.9895  2.2290
  435MOL0     H58714   5.943   6.643   7.462 -3.0667  1.8246 -3.5079
  435MOL0     H58715   6.154   6.334   7.686  2.5378  1.5330 -1.2491
  435MOL0     H58716   6.030   6.279   7.577 -3.7947  1.7867  3.1445
  435MOL0     H58717   6.123   6.498   7.444 -0.2590 -1.4849 -1.2924
  435MOL0     H58718   6.232   6.358   7.443 -0.3574 -0.5113  0.9616
  435MOL0     H58719   6.356   6.434   7.627  0.6045 -0.7624  0.7818
  435MOL0     H58720   6.243   6.578   7.648 -0.8942  0.8874 -0.9828
  435MOL0     H58721   6.420   6.517   7.412 -2.6341 -3.7544  1.3509
  435MOL0     H58722   6.462   6.629   7.541 -0.6777  0.5571  0.9584
  435MOL0     H58723   6.211   6.856   7.294  3.9498 -0.8557 -3.5154
  435MOL0     H58724   5.798   6.314   7.694 -2.0596  2.5380  2.6956
  435MOL0     H58725   5.580   6.339   7.565  0.5119 -0.1729  1.4709
  436MOL0     O58726   8.828  10.578   2.886  0.6580  0.0760  0.7253
  436MOL0     C58727   8.918  10.493   2.895  0.4172 -1.2728 -0.0362
  436MOL0     O58728   8.897  10.354   2.884  0.0555  0.4034 -0.0270
  436MOL0     C58729   8.764  10.321   2.880 -0.6057  0.3999 -0.5052
  436MOL0     C58730   8.664  10.366   2.788  0.9109 -0.5553 -0.5931
  436MOL0     C58731   8.548  10.295   2.780  0.5976 -0.6225  0.4046
  436MOL0     C58732   8.517  10.184   2.865  0.2716 -0.3676  0.4328
  436MOL0     O58733   8.399  10.111   2.846  0.2574  0.4143 -0.5322
  436MOL0     C58734   8.303  10.155   2.751 -0.0852 -0.0724  0.4838
  436MOL0     C58735   8.190  10.054   2.767 -0.6964 -0.7108  0.8910
  436MOL0     C58736   8.088  10.082   2.661 -0.0725  0.7055  0.5837
  436MOL0     C58737   7.956  10.002   2.679 -0.3287 -0.4108  0.4875
  436MOL0     C58738   7.850  10.069   2.587  0.4500  0.0209 -0.0627
  436MOL0     C58739   7.733   9.975   2.573 -0.4753 -0.6006  0.3809
  436MOL0     C58740   7.631  10.020   2.468  0.7373 -0.3222  0.4419
  436MOL0     C58741   7.554  10.145   2.499 -0.8435 -0.3258 -0.6426
  436MOL0     N58742   7.433  10.153   2.410 -0.0100 -0.3266  0.5815
  436MOL0     C58743   7.416  10.223   2.290  0.5793  1.1174 -1.2352
  436MOL0     C58744   7.288  10.199   2.257  0.1684 -0.4053  1.0328
  436MOL0     C58745   7.225  10.260   2.128 -0.2611 -0.3610 -1.0010
  436MOL0     C58746   7.296  10.199   2.006 -0.2876  0.7463  0.2875
  436MOL0     C58747   7.264  10.050   1.971 -0.4340 -0.4787  0.8676
  436MOL0     C58748   7.115  10.027   1.941 -0.6165 -0.0252 -0.4015
  436MOL0     O58749   7.093  10.098   1.818  0.0411  0.1144 -0.1923
  436MOL0     C58750   6.967  10.094   1.762 -0.3018 -0.8197 -0.4766
  436MOL0     C58751   6.953  10.194   1.671 -0.1355  0.0385  0.7522
  436MOL0     C58752   6.826  10.213   1.618 -0.6264  0.3921  0.1002
  436MOL0     C58753   6.815  10.323   1.517  0.1932  0.0710  0.5977
  436MOL0     C58754   6.714  10.139   1.661 -0.0267 -0.3169 -0.2407
  436MOL0     C58755   6.581  10.145   1.609 -1.2278  0.4573  0.7424
  436MOL0     O58756   6.523  10.025   1.602 -0.3273 -0.3412  0.3597
  436MOL0     C58757   6.428  10.005   1.509  0.3121  0.1284  1.1505
  436MOL0     C58758   6.428   9.892   1.426 -0.4446  0.8056  0.5874
  436MOL0     C58759   6.340   9.867   1.324  0.7354 -0.6567 -0.3027
  436MOL0     C58760   6.232   9.958   1.303 -0.0112  0.5600 -0.1189
  436MOL0     O58761   6.138   9.939   1.199 -0.7110  0.2438 -0.2545
  436MOL0     C58762   6.133   9.817   1.122 -0.2040 -0.5445 -0.8550
  436MOL0     C58763   6.024   9.832   1.014  1.3258  0.3252 -0.3984
  436MOL0     C58764   5.884   9.851   1.076  0.4765  0.5614 -0.1640
  436MOL0     C58765   5.803   9.721   1.109 -0.1988  0.4586  0.6148
  436MOL0     C58766   5.661   9.745   1.175 -0.9097 -1.0324  0.2710
  436MOL0     C58767   5.587   9.617   1.208  0.1553  0.5581  0.1069
  436MOL0     C58768   5.487   9.638   1.317 -0.3024 -0.2468  0.4573
  436MOL0     C58769   5.354   9.565   1.310 -0.1182  0.6588 -0.5364
  436MOL0    Cl58770   5.265   9.593   1.153  0.3282  0.1435 -0.2045
  436MOL0     C58771   6.221  10.066   1.395 -0.3727  0.1703 -0.5607
  436MOL0     C58772   6.317  10.090   1.496  0.1160  0.2588 -0.4688
  436MOL0     O58773   6.544  10.254   1.564  0.0481 -0.1129 -0.1023
  436MOL0     C58774   6.739  10.045   1.765  0.9480  0.8262  0.5486
  436MOL0     C58775   6.863  10.019   1.817 -0.5167 -0.0473 -0.3383
  436MOL0     N58776   7.230  10.123   2.354 -0.5562  0.0305 -0.4607
  436MOL0     N58777   7.316  10.099   2.447  0.3332  0.0193  0.1434
  436MOL0     C58778   8.606  10.144   2.962  0.2941 -0.3455 -0.8141
  436MOL0     C58779   8.732  10.212   2.965 -0.2526  0.1982 -0.3080
  436MOL0     C58780   9.056  10.542   2.890  0.6946 -0.4670 -0.3795
  436MOL0     C58781   9.164  10.456   2.878 -0.9241  0.0897  0.5854
  436MOL0     C58782   9.290  10.509   2.873  0.1116  0.1676 -0.2487
  436MOL0     C58783   9.318  10.645   2.897 -0.0338  0.2891 -1.2463
  436MOL0     O58784   9.451  10.676   2.908  0.2189  0.1649 -0.0335
  436MOL0     C58785   9.484  10.789   2.986  1.0286  0.3315  1.0294
  436MOL0     C58786   9.628  10.805   3.016  0.2582  0.5411  0.3790
  436MOL0     C58787   9.729  10.801   2.904  0.0837  0.0456 -1.0377
  436MOL0     C58788   9.868  10.835   2.947  0.1350  0.9039  0.8190
  436MOL0     C58789   9.913  10.761   3.062 -0.4972  0.5196 -0.7921
  436MOL0     C58790   9.946  10.700   3.161  0.3646  0.5202 -0.1956
  436MOL0     C58791   9.210  10.733   2.904 -0.7267 -0.2189  0.1119
  436MOL0     C58792   9.075  10.683   2.894 -0.8260 -0.3413  0.0795
  436MOL0     H58793   8.673  10.454   2.725  0.9359  0.4616  0.7778
  436MOL0     H58794   8.478  10.345   2.713  1.8736  1.4077  0.5097
  436MOL0     H58795   8.280  10.262   2.763  1.1711  0.0681  2.1295
  436MOL0     H58796   8.339  10.128   2.652 -0.6020 -1.1940  0.5877
  436MOL0     H58797   8.229   9.952   2.766 -0.6348 -0.7091  2.1242
  436MOL0     H58798   8.136  10.058   2.862 -3.2437 -0.5346 -0.4770
  436MOL0     H58799   8.059  10.188   2.661  0.6860  0.9227  0.2976
  436MOL0     H58800   8.132  10.058   2.564 -1.7375 -0.7527  0.1370
  436MOL0     H58801   7.985   9.907   2.633  2.2675 -0.0748  1.2943
  436MOL0     H58802   7.920   9.991   2.781 -0.7624  3.4862  0.9053
  436MOL0     H58803   7.807  10.158   2.634  0.0341  1.1277 -2.4036
  436MOL0     H58804   7.899  10.073   2.490  0.7257  0.8406  0.1105
  436MOL0     H58805   7.768   9.877   2.538 -1.9764 -0.6826 -1.0061
  436MOL0     H58806   7.685   9.965   2.671 -1.9730 -0.3999 -0.3050
  436MOL0     H58807   7.691  10.022   2.376 -1.7600 -3.4647 -1.4720
  436MOL0     H58808   7.550   9.948   2.451  1.1538 -0.7597  0.2907
  436MOL0     H58809   7.622  10.230   2.494  0.3821 -1.2208  0.2004
  436MOL0     H58810   7.517  10.135   2.602 -0.2715  1.2753 -0.2645
  436MOL0     H58811   7.489  10.289   2.244 -1.5179  3.4547 -1.4239
  436MOL0     H58812   7.116  10.252   2.130 -0.4078  1.2190  1.4007
  436MOL0     H58813   7.245  10.367   2.139  0.1301 -0.5321  0.1487
  436MOL0     H58814   7.404  10.192   2.022  0.0181  2.9362 -0.5622
  436MOL0     H58815   7.274  10.274   1.929  0.8312  0.5329 -0.2661
  436MOL0     H58816   7.287  10.000   2.065  2.3381  0.9429  1.0328
  436MOL0     H58817   7.323  10.013   1.887 -2.5834  1.1360 -1.5198
  436MOL0     H58818   7.047  10.064   2.018  0.5938  0.9519  0.2358
  436MOL0     H58819   7.103   9.919   1.928 -0.8369  0.0278 -0.6465
  436MOL0     H58820   7.033  10.254   1.629  0.8049 -0.6174  1.5364
  436MOL0     H58821   6.765  10.410   1.561 -0.2058  0.4126 -0.4887
  436MOL0     H58822   6.914  10.345   1.477 -0.5507  0.1838 -1.2988
  436MOL0     H58823   6.751  10.296   1.432  2.1750  0.3608 -1.0688
  436MOL0     H58824   6.519   9.832   1.424 -0.5400  0.5058 -3.1379
  436MOL0     H58825   6.347   9.782   1.258  1.6262 -0.8191 -0.0001
  436MOL0     H58826   6.228   9.781   1.083  1.5080  1.8809  0.7978
  436MOL0     H58827   6.098   9.744   1.196  1.0727  2.8494  3.5119
  436MOL0     H58828   6.048   9.918   0.950  0.2398  0.3585 -0.7781
  436MOL0     H58829   6.012   9.739   0.958 -1.0945 -1.0389  2.1746
  436MOL0     H58830   5.832   9.911   1.001 -2.7446 -1.6885  0.0819
  436MOL0     H58831   5.880   9.914   1.166  6.4276  0.4132  0.5818
  436MOL0     H58832   5.798   9.669   1.013 -2.0846 -0.8560  1.3719
  436MOL0     H58833   5.857   9.649   1.172 -0.3522  0.0294  0.2615
  436MOL0     H58834   5.609   9.814   1.108  0.5324 -0.0676  0.0886
  436MOL0     H58835   5.674   9.801   1.268 -0.9472 -1.3480  0.4665
  436MOL0     H58836   5.531   9.586   1.120 -1.0069  1.8813  0.3514
  436MOL0     H58837   5.652   9.540   1.251  1.1002  2.5256  2.4506
  436MOL0     H58838   5.460   9.744   1.324 -0.2661 -0.1816 -0.3556
  436MOL0     H58839   5.521   9.616   1.419  0.1245  0.3503  0.4505
  436MOL0     H58840   5.290   9.593   1.394 -0.9382 -1.2443 -0.4772
  436MOL0     H58841   5.375   9.461   1.337  1.8288  0.5800 -2.0866
  436MOL0     H58842   6.128  10.122   1.394  0.1496  1.0762 -0.1882
  436MOL0     H58843   6.305  10.178   1.558  0.8034 -0.9275  1.4298
  436MOL0     H58844   6.652   9.988   1.795  1.1112 -1.9742 -3.4169
  436MOL0     H58845   6.877   9.942   1.892  0.9197 -1.0636 -1.5846
  436MOL0     H58846   8.591  10.070   3.040  0.7502  0.6146  0.2165
  436MOL0     H58847   8.805  10.182   3.040 -3.8306 -1.5201  2.8531
  436MOL0     H58848   9.160  10.348   2.886  1.6836 -0.1929 -0.9066
  436MOL0     H58849   9.375  10.444   2.854  1.2144  1.3960  0.3554
  436MOL0     H58850   9.443  10.876   2.934 -0.0502 -1.4622 -1.3407
  436MOL0     H58851   9.431  10.782   3.082  2.4237 -0.6749  1.7612
  436MOL0     H58852   9.651  10.719   3.080  0.6785  0.9317  0.7570
  436MOL0     H58853   9.641  10.896   3.076  0.9528  0.9690 -0.4114
  436MOL0     H58854   9.695  10.878   2.834  0.2123  0.6624 -0.4407
  436MOL0     H58855   9.734  10.700   2.865 -1.1694 -0.8900  1.0329
  436MOL0     H58856   9.881  10.941   2.972  0.7621  0.6565  1.6017
  436MOL0     H58857   9.927  10.807   2.859  0.0004  1.3920  0.5680
  436MOL0     H58858   9.958  10.645   3.252 -1.7566 -0.4345 -0.4242
  436MOL0     H58859   9.219  10.841   2.912 -1.9154 -0.1715  1.2830
  436MOL0     H58860   8.985  10.742   2.903 -1.7581 -1.5761 -0.8353
  437MOL0     O58861   3.266   4.467   8.304 -0.0073  0.5396 -0.4915
  437MOL0     C58862   3.271   4.542   8.407  0.6933 -0.4578  0.6799
  437MOL0     O58863   3.168   4.589   8.490 -0.5827  0.3287  0.3311
  437MOL0     C58864   3.028   4.579   8.454 -0.6130  0.1587  0.6695
  437MOL0     C58865   2.983   4.555   8.328  0.5817 -0.4422 -0.0055
  437MOL0     C58866   2.842   4.549   8.299 -0.1578  0.3108  0.0704
  437MOL0     C58867   2.755   4.582   8.399 -0.1859  0.3751  0.0917
  437MOL0     O58868   2.618   4.597   8.376 -0.1951  0.7677 -0.5104
  437MOL0     C58869   2.545   4.476   8.343 -0.7913  0.3391  0.6122
  437MOL0     C58870   2.404   4.497   8.363  0.7306  0.3354 -0.4398
  437MOL0     C58871   2.375   4.501   8.510 -0.0232 -0.5474  0.6963
  437MOL0     C58872   2.220   4.491   8.512 -0.4739 -0.6168  0.5158
  437MOL0     C58873   2.159   4.490   8.654  0.7274 -0.2698  0.8670
  437MOL0     C58874   2.011   4.458   8.651  0.2194 -0.0156 -0.5846
  437MOL0     C58875   1.958   4.450   8.794 -0.5601 -0.1030 -0.2451
  437MOL0     C58876   1.806   4.425   8.793 -0.3981 -0.1655 -0.0253
  437MOL0     N58877   1.766   4.294   8.747 -0.3044 -0.0325  0.2431
  437MOL0     C58878   1.744   4.186   8.824 -0.8372  0.3737 -0.1492
  437MOL0     C58879   1.732   4.080   8.743 -0.6311  0.6340 -0.3539
  437MOL0     C58880   1.734   3.937   8.787 -0.6495 -0.2433  0.8138
  437MOL0     C58881   1.614   3.902   8.882  0.3430  0.4652  0.9278
  437MOL0     C58882   1.491   3.877   8.803 -0.4324  0.3627  0.6442
  437MOL0     C58883   1.378   3.837   8.889  0.7570  0.0660  1.0851
  437MOL0     O58884   1.381   3.700   8.908 -0.0317  0.3470 -0.0999
  437MOL0     C58885   1.335   3.650   9.026 -0.5938  0.4509 -0.1100
  437MOL0     C58886   1.406   3.543   9.081 -0.7967 -0.4180  0.9556
  437MOL0     C58887   1.366   3.481   9.195 -0.1236  0.4372 -0.2488
  437MOL0     C58888   1.461   3.380   9.256  0.0561  0.4814  0.3210
  437MOL0     C58889   1.253   3.534   9.262 -0.9661 -0.4744 -0.3770
  437MOL0     C58890   1.200   3.466   9.392  0.2243 -0.4330 -0.3342
  437MOL0     O58891   1.196   3.331   9.393  0.4932 -0.6616  0.2243
  437MOL0     C58892   1.164   3.274   9.518 -0.3567 -0.2362 -0.2445
  437MOL0     C58893   1.245   3.306   9.630 -0.0007 -0.3775 -0.6448
  437MOL0     C58894   1.218   3.248   9.758 -0.6738  0.1922  0.0770
  437MOL0     C58895   1.121   3.148   9.776 -0.6812 -0.4253 -0.1231
  437MOL0     O58896   1.095   3.084   9.895  0.4076 -0.0880  0.0840
  437MOL0     C58897   1.087   3.164  10.015  0.4435 -0.1841 -0.8287
  437MOL0     C58898   0.937   3.219  10.037 -0.2688 -0.6264 -0.5170
  437MOL0     C58899   0.848   3.093  10.034  0.1974 -0.0561 -0.0918
  437MOL0     C58900   0.702   3.123  10.054  0.3038  0.5541  0.2622
  437MOL0     C58901   0.621   2.996  10.010  0.8383  0.1795  0.3026
  437MOL0     C58902   0.468   3.034  10.003 -0.1582 -0.3454  0.6740
  437MOL0     C58903   0.376   2.905   9.988  0.3625 -0.0813  0.3131
  437MOL0     C58904   0.230   2.950   9.967  1.3453 -0.2461 -0.0546
  437MOL0    Cl58905   0.160   3.016  10.117  0.1917  0.2886 -0.0637
  437MOL0     C58906   1.041   3.117   9.668  0.2723 -0.1114 -0.4514
  437MOL0     C58907   1.060   3.180   9.536 -0.4977  0.1373 -0.2642
  437MOL0     O58908   1.144   3.540   9.479 -0.0956 -0.1079 -0.0472
  437MOL0     C58909   1.189   3.649   9.218 -0.6902  0.3605 -0.0183
  437MOL0     C58910   1.217   3.687   9.082 -0.6495  1.1114 -0.2991
  437MOL0     N58911   1.738   4.121   8.607  0.0154 -0.0267  0.7768
  437MOL0     N58912   1.769   4.249   8.616 -0.4658 -0.8689  0.0865
  437MOL0     C58913   2.798   4.605   8.530  1.0804  0.4205  0.4115
  437MOL0     C58914   2.935   4.608   8.553 -0.6926  0.5447 -0.7616
  437MOL0     C58915   3.407   4.580   8.450  0.2419  0.8232 -0.3732
  437MOL0     C58916   3.515   4.575   8.363 -0.6606  0.6878  0.2337
  437MOL0     C58917   3.640   4.634   8.408  0.0103 -0.6917 -0.0650
  437MOL0     C58918   3.657   4.696   8.529  0.6528 -0.2075 -0.2049
  437MOL0     O58919   3.775   4.743   8.584 -0.1081  0.1100  0.6063
  437MOL0     C58920   3.894   4.693   8.516 -0.6086 -1.1243 -0.2933
  437MOL0     C58921   4.018   4.743   8.595 -0.1242  0.5807  0.2117
  437MOL0     C58922   4.154   4.725   8.526  0.2076  0.1926  0.2416
  437MOL0     C58923   4.263   4.802   8.600  0.2316  0.2410  0.0361
  437MOL0     C58924   4.300   4.750   8.735 -0.4066  0.0477  0.3797
  437MOL0     C58925   4.320   4.724   8.852 -0.5364 -0.6557 -0.2789
  437MOL0     C58926   3.539   4.696   8.618  0.1700  0.2066  0.4194
  437MOL0     C58927   3.420   4.648   8.575 -1.1526 -0.2233  0.7927
  437MOL0     H58928   3.034   4.559   8.232 -0.0478 -1.3511 -0.3953
  437MOL0     H58929   2.824   4.550   8.192  2.0583  0.2264 -0.3475
  437MOL0     H58930   2.557   4.466   8.235 -1.5176 -2.2593  0.7048
  437MOL0     H58931   2.581   4.385   8.392 -0.4935  0.2996  0.3234
  437MOL0     H58932   2.362   4.583   8.310 -2.0665 -0.0332  0.9875
  437MOL0     H58933   2.352   4.411   8.321 -3.1295  1.5251  1.4130
  437MOL0     H58934   2.409   4.409   8.559  1.0774 -0.6245 -0.1663
  437MOL0     H58935   2.420   4.586   8.562  2.8578 -0.6295 -1.4324
  437MOL0     H58936   2.172   4.566   8.448  0.7342 -1.4043 -1.4251
  437MOL0     H58937   2.183   4.401   8.462 -1.2301  0.0289 -0.1174
  437MOL0     H58938   2.202   4.409   8.713 -0.2850  0.3667  2.5407
  437MOL0     H58939   2.167   4.586   8.706 -0.3736 -0.9443  2.3365
  437MOL0     H58940   1.965   4.535   8.588 -1.8099 -0.3862  0.3597
  437MOL0     H58941   2.003   4.362   8.600  1.1716  0.6603 -2.0957
  437MOL0     H58942   1.995   4.365   8.852 -0.9266 -1.0879 -1.4095
  437MOL0     H58943   1.983   4.537   8.856  3.6323 -1.4562  0.2807
  437MOL0     H58944   1.763   4.509   8.737 -0.8808 -0.0470  0.5182
  437MOL0     H58945   1.766   4.442   8.893 -1.7133  0.4145 -0.6233
  437MOL0     H58946   1.762   4.179   8.930  1.9187  1.0454 -0.4925
  437MOL0     H58947   1.743   3.878   8.695  0.3893  0.7206  0.2628
  437MOL0     H58948   1.822   3.928   8.852 -0.3212  0.8846  0.5655
  437MOL0     H58949   1.588   3.979   8.955 -2.5954  0.0871  0.3990
  437MOL0     H58950   1.643   3.814   8.940  3.7484  3.1532  3.7632
  437MOL0     H58951   1.522   3.802   8.730 -1.3556 -0.9041  1.5201
  437MOL0     H58952   1.461   3.963   8.743  3.1768  0.0339 -1.9656
  437MOL0     H58953   1.286   3.869   8.840  3.0706  2.8161 -1.8672
  437MOL0     H58954   1.379   3.889   8.986 -2.6757  2.0403  0.2373
  437MOL0     H58955   1.500   3.519   9.032 -1.3197 -0.1777 -0.2003
  437MOL0     H58956   1.411   3.283   9.257  0.1762  0.3784 -1.0355
  437MOL0     H58957   1.553   3.366   9.198 -1.2941 -1.2602 -1.5323
  437MOL0     H58958   1.489   3.418   9.354 -0.5405  1.2097  0.2233
  437MOL0     H58959   1.310   3.392   9.636 -0.6428  0.1053 -0.5477
  437MOL0     H58960   1.289   3.274   9.836 -1.6190  1.5794  0.5264
  437MOL0     H58961   1.111   3.109  10.106  1.0757  0.3350 -0.6798
  437MOL0     H58962   1.163   3.242  10.012  1.1483 -0.8438 -0.4882
  437MOL0     H58963   0.926   3.269  10.134  1.3337 -0.8393 -0.1961
  437MOL0     H58964   0.914   3.294   9.961 -0.0315 -1.4509 -1.4176
  437MOL0     H58965   0.882   3.040  10.124  2.6181 -0.1648 -0.9918
  437MOL0     H58966   0.855   3.034   9.942 -0.3207 -0.4385  0.1066
  437MOL0     H58967   0.679   3.169  10.151  0.5140 -0.9062  1.0450
  437MOL0     H58968   0.672   3.194   9.977 -2.1206  1.7370  2.1816
  437MOL0     H58969   0.638   2.918  10.084  2.1155  0.0792 -0.0837
  437MOL0     H58970   0.653   2.960   9.912 -2.4425 -1.6552 -0.2705
  437MOL0     H58971   0.443   3.091  10.093 -0.2732 -0.1022  0.4893
  437MOL0     H58972   0.455   3.094   9.913 -1.4656 -3.4789 -1.4089
  437MOL0     H58973   0.389   2.837  10.073  1.2159 -0.5130 -0.1490
  437MOL0     H58974   0.416   2.851   9.902  2.5330  2.3677 -0.3398
  437MOL0     H58975   0.172   2.864   9.933  0.7718 -0.5139  1.5287
  437MOL0     H58976   0.214   3.030   9.895 -0.5102  0.6131  1.2328
  437MOL0     H58977   0.958   3.051   9.690 -0.2885  1.1257  1.3299
  437MOL0     H58978   1.007   3.150   9.446  0.7161  1.2860 -1.3984
  437MOL0     H58979   1.114   3.699   9.278  0.0685  2.6443 -0.8654
  437MOL0     H58980   1.158   3.768   9.041 -3.1563  0.7138  2.2276
  437MOL0     H58981   2.727   4.626   8.609  1.5789  0.5949  0.8147
  437MOL0     H58982   2.965   4.626   8.655 -2.5487 -0.2199 -0.0275
  437MOL0     H58983   3.506   4.527   8.267  2.1242  0.7545 -0.1488
  437MOL0     H58984   3.723   4.644   8.337  0.9688  0.2226  1.1370
  437MOL0     H58985   3.904   4.584   8.509  2.9066 -0.9454  0.0331
  437MOL0     H58986   3.892   4.741   8.418 -0.6018  0.0351  0.2675
  437MOL0     H58987   4.020   4.691   8.690  4.2821  0.3190  0.1889
  437MOL0     H58988   4.005   4.851   8.611  2.3021  1.0010 -0.2434
  437MOL0     H58989   4.144   4.746   8.419  1.2397  0.9957  0.2876
  437MOL0     H58990   4.182   4.620   8.524  2.1457  0.6855 -1.4191
  437MOL0     H58991   4.230   4.906   8.609 -1.1609 -0.2447  0.9800
  437MOL0     H58992   4.355   4.805   8.542  0.5298  1.3254  0.5337
  437MOL0     H58993   4.313   4.691   8.953  1.5199  1.0708  0.5104
  437MOL0     H58994   3.551   4.750   8.712  1.2718  0.4916  0.1315
  437MOL0     H58995   3.331   4.663   8.636 -2.9943  2.8039 -2.2647
  438MOL0     O58996   8.362   0.817   9.237  0.0108 -0.2920  0.3906
  438MOL0     C58997   8.398   0.713   9.291 -0.9072 -0.1046 -0.3188
  438MOL0     O58998   8.328   0.590   9.274  0.1849  0.3284  0.3154
  438MOL0     C58999   8.207   0.593   9.211 -0.1946 -0.3218 -0.9222
  438MOL0     C59000   8.164   0.482   9.140  0.2259 -0.1070 -0.5480
  438MOL0     C59001   8.036   0.486   9.079 -0.4159 -0.3116 -0.1384
  438MOL0     C59002   7.948   0.591   9.103 -0.3489  0.2565 -0.0260
  438MOL0     O59003   7.819   0.588   9.048  0.2115 -0.7286 -0.6827
  438MOL0     C59004   7.777   0.708   8.985 -0.1714 -0.0520  0.4157
  438MOL0     C59005   7.679   0.664   8.870  0.8021 -0.1249 -0.5108
  438MOL0     C59006   7.529   0.654   8.907 -0.1855 -0.6851  1.4816
  438MOL0     C59007   7.464   0.533   8.829  0.5238  0.0006  0.2108
  438MOL0     C59008   7.321   0.492   8.860  0.4269  0.1008 -0.2831
  438MOL0     C59009   7.218   0.609   8.844  0.3585 -0.8404  0.5396
  438MOL0     C59010   7.194   0.635   8.693 -0.7335 -0.0634 -0.0256
  438MOL0     C59011   7.120   0.765   8.655 -0.8754 -0.4741  0.3341
  438MOL0     N59012   6.993   0.794   8.724 -0.6411 -0.0109 -0.0893
  438MOL0     C59013   6.908   0.700   8.770 -0.8484 -0.0115  0.1855
  438MOL0     C59014   6.810   0.760   8.834  0.5099 -0.2864  1.1489
  438MOL0     C59015   6.686   0.699   8.886  0.6149 -0.4986  0.0775
  438MOL0     C59016   6.713   0.628   9.021  0.0387  0.6904 -0.1747
  438MOL0     C59017   6.771   0.728   9.132 -0.4885  0.5103  0.0319
  438MOL0     C59018   6.682   0.848   9.181  0.0771 -0.6654  0.3634
  438MOL0     O59019   6.567   0.796   9.246  0.3540 -0.7432 -0.0622
  438MOL0     C59020   6.442   0.839   9.201 -0.3123  0.1577 -0.5669
  438MOL0     C59021   6.375   0.768   9.100 -0.1092  0.0680  0.1746
  438MOL0     C59022   6.259   0.813   9.049  0.1456 -0.7536 -0.0204
  438MOL0     C59023   6.189   0.723   8.948 -0.3748 -1.8496  0.1248
  438MOL0     C59024   6.198   0.929   9.098 -0.1687  0.2428  0.7624
  438MOL0     C59025   6.067   0.979   9.046  0.3719 -0.2180 -1.0053
  438MOL0     O59026   6.026   0.941   8.920  0.3963  0.5758 -0.4437
  438MOL0     C59027   5.892   0.956   8.893 -0.1560  0.1954 -0.5972
  438MOL0     C59028   5.815   0.843   8.916 -0.3036 -0.0034  0.4033
  438MOL0     C59029   5.679   0.847   8.900 -0.6288  1.1168  0.6895
  438MOL0     C59030   5.612   0.960   8.853  0.0378 -0.3263  0.3044
  438MOL0     O59031   5.480   0.950   8.832  0.4563 -0.5519  0.4214
  438MOL0     C59032   5.403   1.052   8.756 -0.0834 -0.5455 -0.3762
  438MOL0     C59033   5.439   1.019   8.607  0.6130 -0.1168 -0.0242
  438MOL0     C59034   5.399   1.128   8.505 -0.3508 -0.1074 -0.5657
  438MOL0     C59035   5.443   1.092   8.361  0.3031 -0.0626 -0.9110
  438MOL0     C59036   5.374   1.169   8.249 -0.2043 -0.5815  0.6784
  438MOL0     C59037   5.229   1.126   8.203 -0.3474 -0.9909  0.5604
  438MOL0     C59038   5.245   0.984   8.148 -0.1371 -0.1002  0.6639
  438MOL0     C59039   5.348   0.962   8.036 -0.5452 -0.0487 -0.2401
  438MOL0    Cl59040   5.320   1.066   7.885  0.4471  0.0458 -0.1500
  438MOL0     C59041   5.689   1.074   8.830  0.2514  0.4784  0.2384
  438MOL0     C59042   5.830   1.073   8.852  0.6855 -0.1047 -0.2718
  438MOL0     O59043   5.999   1.029   9.137  0.2197 -0.2882  0.8127
  438MOL0     C59044   6.263   0.999   9.203 -0.5790  0.9685  0.0617
  438MOL0     C59045   6.385   0.954   9.261  1.3272  0.2923 -0.0392
  438MOL0     N59046   6.841   0.891   8.847 -0.1366 -0.7516 -0.0015
  438MOL0     N59047   6.947   0.914   8.772  0.3044  0.4362 -0.1979
  438MOL0     C59048   7.995   0.705   9.177  0.2502 -0.3450 -0.8239
  438MOL0     C59049   8.116   0.703   9.233  0.5634  0.5418  0.7639
  438MOL0     C59050   8.524   0.712   9.363  0.1000 -0.1506  0.4668
  438MOL0     C59051   8.606   0.828   9.378 -0.2063  0.4298 -0.3054
  438MOL0     C59052   8.705   0.830   9.475 -0.9693 -0.2365 -0.5236
  438MOL0     C59053   8.744   0.725   9.550 -0.3210  0.5878 -0.2631
  438MOL0     O59054   8.841   0.752   9.648 -0.2458  0.1384 -0.2371
  438MOL0     C59055   8.875   0.645   9.736  0.6720 -0.1418 -0.9308
  438MOL0     C59056   8.958   0.695   9.852 -1.0858  0.3094 -0.4155
  438MOL0     C59057   8.954   0.602   9.985  0.3099  0.1274 -0.7386
  438MOL0     C59058   9.033   0.681  10.085 -1.4026 -0.1668 -0.0297
  438MOL0     C59059   9.001   0.631  10.221 -0.1045 -0.1510 -0.7687
  438MOL0     C59060   8.949   0.601  10.326 -0.0710 -0.2866  0.1881
  438MOL0     C59061   8.680   0.600   9.526  0.3047  1.3149 -0.0265
  438MOL0     C59062   8.562   0.595   9.437 -0.3670  0.4983  0.3951
  438MOL0     H59063   8.238   0.404   9.125  0.8723  0.2251  0.7454
  438MOL0     H59064   8.007   0.404   9.013  1.3685 -0.6905 -0.5090
  438MOL0     H59065   7.730   0.783   9.050 -1.2841 -0.5468  0.2055
  438MOL0     H59066   7.855   0.763   8.933 -0.6876  0.4710  0.1869
  438MOL0     H59067   7.698   0.740   8.794 -0.1768 -0.6058 -1.2518
  438MOL0     H59068   7.714   0.578   8.811 -2.4678 -0.3556 -2.3352
  438MOL0     H59069   7.513   0.635   9.013 -1.5767 -0.1599  1.4025
  438MOL0     H59070   7.485   0.750   8.875 -2.8111 -1.8149  1.4384
  438MOL0     H59071   7.477   0.553   8.722 -0.7115  2.2369  0.4305
  438MOL0     H59072   7.512   0.440   8.862  1.4832  0.3468 -0.1912
  438MOL0     H59073   7.289   0.406   8.801 -0.5934 -2.0308  3.1081
  438MOL0     H59074   7.309   0.458   8.963  0.4819 -3.7208 -1.3977
  438MOL0     H59075   7.121   0.578   8.885 -0.3110  0.2667 -0.1601
  438MOL0     H59076   7.246   0.702   8.895 -2.3475  0.0269  0.6181
  438MOL0     H59077   7.287   0.639   8.635 -0.5917  0.1730  0.2169
  438MOL0     H59078   7.131   0.554   8.655 -0.6558  0.3109 -0.9932
  438MOL0     H59079   7.111   0.758   8.546  1.3648 -0.5292  0.1122
  438MOL0     H59080   7.179   0.854   8.678 -2.9154  0.7266  1.1803
  438MOL0     H59081   6.924   0.592   8.762  3.2125  0.3583  1.1365
  438MOL0     H59082   6.599   0.764   8.900  1.2693  0.1788  1.1552
  438MOL0     H59083   6.659   0.625   8.810 -0.2304  1.1664 -1.2919
  438MOL0     H59084   6.781   0.545   8.998  0.3914  0.3938  1.7491
  438MOL0     H59085   6.623   0.583   9.066  0.2783  0.1057 -0.2757
  438MOL0     H59086   6.863   0.771   9.092 -0.4935  0.1184 -0.4100
  438MOL0     H59087   6.797   0.669   9.221  1.5484 -0.7057 -1.2906
  438MOL0     H59088   6.665   0.911   9.093 -0.8053  1.2950  1.8543
  438MOL0     H59089   6.725   0.923   9.249 -0.6716 -1.9552  2.3755
  438MOL0     H59090   6.409   0.676   9.053 -3.7515 -1.7460  0.7247
  438MOL0     H59091   6.203   0.733   8.840 -1.6188 -0.8850  0.0320
  438MOL0     H59092   6.224   0.621   8.967  2.7620 -1.5868 -3.1928
  438MOL0     H59093   6.081   0.713   8.962 -0.5164  0.7742  1.4714
  438MOL0     H59094   5.871   0.761   8.960 -0.9334 -0.3158  0.6329
  438MOL0     H59095   5.611   0.767   8.925 -1.3639  1.5522  0.1475
  438MOL0     H59096   5.295   1.046   8.776 -0.0228 -0.9708 -0.1549
  438MOL0     H59097   5.438   1.152   8.780 -1.6031 -0.3053  1.0569
  438MOL0     H59098   5.547   1.003   8.608  0.4084 -1.7269  1.2158
  438MOL0     H59099   5.393   0.920   8.594 -0.3348 -0.4050  4.0459
  438MOL0     H59100   5.427   1.230   8.532 -0.2119 -0.8578  2.4395
  438MOL0     H59101   5.290   1.128   8.506 -0.3572 -1.3470  0.0253
  438MOL0     H59102   5.548   1.121   8.347  0.2408  0.9886  0.5398
  438MOL0     H59103   5.431   0.984   8.350 -0.7986 -0.5449  3.3243
  438MOL0     H59104   5.448   1.165   8.169  2.4444  1.9157  2.8086
  438MOL0     H59105   5.379   1.272   8.286 -2.6504 -0.3101  0.4747
  438MOL0     H59106   5.150   1.129   8.279 -1.3583  0.7916 -0.4835
  438MOL0     H59107   5.195   1.196   8.126  1.5248  0.2767  0.8068
  438MOL0     H59108   5.150   0.946   8.109 -1.7253  1.2147  2.9452
  438MOL0     H59109   5.263   0.915   8.231 -0.6015  0.6291  1.3891
  438MOL0     H59110   5.334   0.858   8.006  0.0749 -0.7196  1.6391
  438MOL0     H59111   5.453   0.969   8.068  0.2371 -0.6786 -2.4936
  438MOL0     H59112   5.648   1.167   8.793 -0.2505  1.0098  2.0000
  438MOL0     H59113   5.877   1.168   8.828 -0.7617  0.5335 -0.6585
  438MOL0     H59114   6.224   1.097   9.228 -0.3660  1.3767 -1.1472
  438MOL0     H59115   6.439   1.020   9.327  3.1192  0.0640 -1.2068
  438MOL0     H59116   7.929   0.785   9.209  1.5261  1.4040 -2.3163
  438MOL0     H59117   8.143   0.778   9.307  0.4507 -1.3386  2.7895
  438MOL0     H59118   8.590   0.923   9.329 -0.0279 -0.6100 -2.5155
  438MOL0     H59119   8.749   0.927   9.493  1.0497 -1.3170  0.6614
  438MOL0     H59120   8.789   0.596   9.783 -0.3709  1.4981 -1.0585
  438MOL0     H59121   8.934   0.568   9.685 -0.4897 -1.9356  0.3168
  438MOL0     H59122   8.930   0.798   9.877 -1.9035  0.3445 -1.4103
  438MOL0     H59123   9.059   0.710   9.812 -0.3378 -1.3856  0.7089
  438MOL0     H59124   8.991   0.500   9.978 -0.7805 -0.2896 -0.6509
  438MOL0     H59125   8.849   0.595  10.015  1.0452 -1.0790  1.8923
  438MOL0     H59126   9.032   0.791  10.086 -1.2799 -0.0637  3.8383
  438MOL0     H59127   9.141   0.673  10.067 -1.3845 -1.8374  0.6456
  438MOL0     H59128   8.906   0.584  10.423  3.3426 -1.7345  1.6160
  438MOL0     H59129   8.696   0.515   9.591 -0.7983  0.4508 -0.8534
  438MOL0     H59130   8.513   0.498   9.428 -0.4391  0.6950 -1.9570
  439MOL0     O59131   8.447   8.107   3.257 -1.1861 -0.0593 -0.1048
  439MOL0     C59132   8.520   8.055   3.342 -0.9567  0.5966  0.6286
  439MOL0     O59133   8.495   7.939   3.409 -0.3006  0.3507  0.2994
  439MOL0     C59134   8.382   7.871   3.371  0.1915 -1.6574 -0.0148
  439MOL0     C59135   8.397   7.757   3.304  0.7655 -0.0598  0.4418
  439MOL0     C59136   8.281   7.694   3.264  0.1775 -0.7953 -0.0446
  439MOL0     C59137   8.154   7.744   3.274  1.1686 -0.0590 -0.3979
  439MOL0     O59138   8.055   7.658   3.222  0.0548 -0.0166 -0.5780
  439MOL0     C59139   7.919   7.706   3.249 -1.3685  0.4550 -0.7884
  439MOL0     C59140   7.807   7.625   3.184 -0.0654 -0.2680  0.8070
  439MOL0     C59141   7.666   7.671   3.230  0.0399 -0.0453  0.1221
  439MOL0     C59142   7.562   7.569   3.170  0.3079  0.3862 -0.7098
  439MOL0     C59143   7.430   7.584   3.244  0.2053  0.1715 -0.0476
  439MOL0     C59144   7.318   7.493   3.195 -0.1146 -0.3331  0.4187
  439MOL0     C59145   7.190   7.513   3.265 -0.5378  1.0646  0.2902
  439MOL0     C59146   7.056   7.454   3.203 -0.7692  0.1992 -0.6246
  439MOL0     N59147   7.022   7.531   3.087  0.8498  0.5517  0.1139
  439MOL0     C59148   7.028   7.666   3.085 -0.7100  0.4424 -0.1384
  439MOL0     C59149   7.049   7.704   2.961  1.0177  0.0941 -0.2821
  439MOL0     C59150   7.069   7.848   2.928  0.3498  0.5969  0.3867
  439MOL0     C59151   6.945   7.937   2.913  0.9367  1.0968 -0.1961
  439MOL0     C59152   6.848   7.941   3.037  0.3488  0.4984 -0.5584
  439MOL0     C59153   6.917   8.004   3.164  0.4171  0.3598  0.6827
  439MOL0     O59154   6.807   8.034   3.252 -0.2611 -0.4443  1.1273
  439MOL0     C59155   6.835   8.111   3.366 -0.5475 -0.2232  0.1859
  439MOL0     C59156   6.746   8.199   3.419  0.1106  0.6079 -0.2368
  439MOL0     C59157   6.762   8.294   3.518 -0.5450  0.3969  0.3950
  439MOL0     C59158   6.640   8.359   3.574 -0.2652  0.7750  0.2884
  439MOL0     C59159   6.896   8.311   3.567  0.5344  0.0011  0.1208
  439MOL0     C59160   6.939   8.409   3.670  0.7461 -0.5282  0.6936
  439MOL0     O59161   6.854   8.516   3.692 -0.0204  0.5508 -0.2755
  439MOL0     C59162   6.892   8.610   3.782  0.5030 -0.1274 -0.1556
  439MOL0     C59163   6.836   8.599   3.897  0.3201 -0.5281 -0.3930
  439MOL0     C59164   6.865   8.704   3.988  0.3162 -0.2573 -0.0355
  439MOL0     C59165   6.947   8.809   3.946 -0.0635  0.3097 -0.5948
  439MOL0     O59166   6.981   8.905   4.041  0.0534 -0.1804  0.3955
  439MOL0     C59167   6.917   9.032   4.012 -0.3809 -0.5190 -0.0729
  439MOL0     C59168   6.763   9.034   4.044  0.1524 -0.3770 -0.4202
  439MOL0     C59169   6.714   9.172   4.000  0.3520 -0.0045 -0.0929
  439MOL0     C59170   6.560   9.185   4.021 -0.3253 -0.9272  0.8673
  439MOL0     C59171   6.515   9.166   4.164 -0.6442 -0.0489  0.3115
  439MOL0     C59172   6.477   9.300   4.221 -0.3739  0.5273  0.5760
  439MOL0     C59173   6.461   9.284   4.379 -0.0846  0.3363  0.0385
  439MOL0     C59174   6.538   9.380   4.459 -0.2705  0.1833 -0.3896
  439MOL0    Cl59175   6.443   9.547   4.432  0.4196 -0.3527 -0.1669
  439MOL0     C59176   7.001   8.820   3.817 -0.2368  0.8276 -0.1240
  439MOL0     C59177   6.980   8.711   3.734  0.2587 -0.2520 -0.8471
  439MOL0     O59178   7.039   8.397   3.731  0.6386  0.1292  0.4255
  439MOL0     C59179   6.995   8.217   3.524 -0.8133 -0.1438  0.2322
  439MOL0     C59180   6.965   8.121   3.421  0.5569  0.3418 -0.2701
  439MOL0     N59181   7.075   7.592   2.884  0.5603  0.4193  0.4995
  439MOL0     N59182   7.055   7.493   2.958 -0.1653 -0.1347 -0.2866
  439MOL0     C59183   8.137   7.868   3.342 -0.2653  0.1539 -0.7772
  439MOL0     C59184   8.255   7.929   3.399  1.3037 -0.1441 -1.7705
  439MOL0     C59185   8.645   8.108   3.380 -0.9761  0.2349 -1.2907
  439MOL0     C59186   8.695   8.083   3.510  0.0430  0.2210 -0.2165
  439MOL0     C59187   8.821   8.145   3.543 -0.2581  0.4448  0.5621
  439MOL0     C59188   8.881   8.235   3.459 -0.7117  0.8512  0.2577
  439MOL0     O59189   9.008   8.278   3.500  0.4180  0.0156 -0.0841
  439MOL0     C59190   9.048   8.414   3.467  0.7441  0.3900  0.2064
  439MOL0     C59191   9.172   8.470   3.548 -0.0937  0.1362 -0.3613
  439MOL0     C59192   9.282   8.379   3.512  0.1440  0.3537 -0.2072
  439MOL0     C59193   9.411   8.443   3.565 -0.0061  0.5996 -0.5370
  439MOL0     C59194   9.448   8.567   3.491  0.7829  0.5812 -0.3978
  439MOL0     C59195   9.464   8.666   3.419  0.0360 -0.6038 -0.9033
  439MOL0     C59196   8.837   8.256   3.329 -0.7433 -0.2985 -0.2797
  439MOL0     C59197   8.726   8.181   3.290 -0.8051  0.0661 -0.2652
  439MOL0     H59198   8.498   7.722   3.284 -0.4915 -3.4046 -0.7920
  439MOL0     H59199   8.292   7.592   3.229 -0.4938 -0.3803 -1.5369
  439MOL0     H59200   7.898   7.687   3.354 -2.3319  0.2331 -1.0094
  439MOL0     H59201   7.917   7.806   3.203  3.4791 -1.4410 -6.3106
  439MOL0     H59202   7.823   7.640   3.077 -2.8782  4.3285  0.7772
  439MOL0     H59203   7.827   7.518   3.198  0.9302 -0.2401 -0.2660
  439MOL0     H59204   7.661   7.681   3.339 -1.0072  1.7873 -0.0686
  439MOL0     H59205   7.641   7.764   3.180  0.5386  1.4186  2.4379
  439MOL0     H59206   7.537   7.605   3.069  3.5980  0.7189 -1.5147
  439MOL0     H59207   7.598   7.466   3.171  0.5364  0.4570  0.9697
  439MOL0     H59208   7.447   7.552   3.347 -3.4021 -2.0418  0.0279
  439MOL0     H59209   7.395   7.687   3.238  0.1756  0.1109 -1.2426
  439MOL0     H59210   7.303   7.522   3.091 -3.6129 -2.8824  0.0378
  439MOL0     H59211   7.342   7.386   3.195  2.3414  0.1472 -0.7869
  439MOL0     H59212   7.198   7.460   3.361  2.4760  3.0458  1.2841
  439MOL0     H59213   7.179   7.619   3.290 -0.3324  0.7974  1.5955
  439MOL0     H59214   6.980   7.471   3.279  1.4826 -1.0300  2.0697
  439MOL0     H59215   7.043   7.347   3.181 -7.3781  0.6214 -0.7197
  439MOL0     H59216   7.034   7.728   3.173  1.4892  0.8613 -0.5187
  439MOL0     H59217   7.147   7.874   3.000 -0.5328 -0.6264  1.8532
  439MOL0     H59218   7.131   7.845   2.838  1.0453  2.8407  0.7438
  439MOL0     H59219   6.885   7.911   2.826 -1.6085  3.7540  0.6031
  439MOL0     H59220   6.979   8.040   2.899 -0.4103  1.7403  1.0206
  439MOL0     H59221   6.820   7.839   3.065 -1.1167  0.7014 -1.2264
  439MOL0     H59222   6.757   7.998   3.020  1.1867  2.4371  1.0769
  439MOL0     H59223   6.956   8.100   3.128 -0.6824 -0.1801 -2.2461
  439MOL0     H59224   6.996   7.935   3.195  0.5604 -0.3938 -1.2365
  439MOL0     H59225   6.648   8.202   3.374 -0.7244  0.8136  1.5181
  439MOL0     H59226   6.647   8.382   3.680 -2.7051 -1.1207  0.9599
  439MOL0     H59227   6.627   8.455   3.522 -1.2451  1.2049  1.2733
  439MOL0     H59228   6.545   8.306   3.562  0.6580 -0.5232 -1.7701
  439MOL0     H59229   6.769   8.521   3.932  1.5826 -0.9720  1.1380
  439MOL0     H59230   6.842   8.690   4.093  2.9815 -1.4447  0.4916
  439MOL0     H59231   6.972   9.098   4.080  0.2430 -0.9541 -0.1404
  439MOL0     H59232   6.938   9.080   3.916 -0.3413 -0.0623  0.1634
  439MOL0     H59233   6.720   8.957   3.980  0.4017  0.4421 -1.6066
  439MOL0     H59234   6.754   9.012   4.151  0.9908  0.7780 -0.0924
  439MOL0     H59235   6.739   9.182   3.894  2.1286 -1.3333  0.1716
  439MOL0     H59236   6.760   9.253   4.058  0.0292 -1.4561  2.3131
  439MOL0     H59237   6.535   9.280   3.973  3.7788 -1.1368 -2.2207
  439MOL0     H59238   6.524   9.100   3.962 -1.7939 -1.7185  2.7809
  439MOL0     H59239   6.597   9.129   4.226 -0.5217  0.2934  0.3523
  439MOL0     H59240   6.441   9.085   4.172 -1.3119  0.6411  1.4755
  439MOL0     H59241   6.569   9.355   4.204 -0.9439  1.3941  0.2027
  439MOL0     H59242   6.392   9.350   4.173 -1.9656 -1.5635  1.0509
  439MOL0     H59243   6.484   9.183   4.414 -2.4600 -0.9105 -1.7407
  439MOL0     H59244   6.353   9.287   4.396 -0.5308 -1.0805 -2.0849
  439MOL0     H59245   6.646   9.383   4.439  0.0298  2.8570  1.2270
  439MOL0     H59246   6.537   9.356   4.565  3.9606  0.9585 -0.0068
  439MOL0     H59247   7.076   8.894   3.792  1.7086 -0.5740  1.2584
  439MOL0     H59248   7.019   8.702   3.633  2.4480  0.4309 -0.1363
  439MOL0     H59249   7.090   8.201   3.575 -1.5816 -0.6613  1.5695
  439MOL0     H59250   7.050   8.059   3.394 -1.0938 -2.8058  1.2756
  439MOL0     H59251   8.043   7.916   3.366  0.7665  1.8989 -0.0357
  439MOL0     H59252   8.236   8.014   3.463  0.8023 -1.1677 -0.5298
  439MOL0     H59253   8.639   8.021   3.579  2.7624 -2.2877 -0.0787
  439MOL0     H59254   8.859   8.129   3.644 -0.1981 -0.1132  0.4565
  439MOL0     H59255   9.065   8.421   3.359 -1.5137 -1.3776 -0.3440
  439MOL0     H59256   8.958   8.467   3.502  1.2221  0.8347  0.7984
  439MOL0     H59257   9.146   8.459   3.654 -2.4221  2.3464 -0.6303
  439MOL0     H59258   9.188   8.577   3.536  1.7104  0.0747  0.9175
  439MOL0     H59259   9.294   8.360   3.405 -0.0746  1.6239 -0.4707
  439MOL0     H59260   9.257   8.291   3.571  0.8438  0.0980 -0.2825
  439MOL0     H59261   9.490   8.370   3.547 -0.3914  0.0817 -0.1517
  439MOL0     H59262   9.412   8.462   3.672  1.2702 -1.4360 -0.1247
  439MOL0     H59263   9.458   8.746   3.348 -1.4050  1.4842  1.3819
  439MOL0     H59264   8.884   8.323   3.258 -0.7148  0.2765  0.2763
  439MOL0     H59265   8.681   8.200   3.193  0.1962  1.8979 -0.4237
  440MOL0     O59266   7.265   7.572   6.815  0.2229 -0.2133 -0.3298
  440MOL0     C59267   7.248   7.634   6.922 -0.5076  0.1285  0.0583
  440MOL0     O59268   7.124   7.674   6.975 -0.5166  0.3466 -0.1577
  440MOL0     C59269   7.004   7.647   6.907  0.7460  0.1032  0.9441
  440MOL0     C59270   6.993   7.656   6.767  0.1713  0.1816  0.1876
  440MOL0     C59271   6.870   7.638   6.699  0.2633  0.2170 -1.1432
  440MOL0     C59272   6.764   7.607   6.781 -0.5170 -0.1234 -0.2915
  440MOL0     O59273   6.654   7.557   6.716  0.1952  0.7834 -0.3969
  440MOL0     C59274   6.556   7.481   6.791 -0.3119 -0.8221 -0.4338
  440MOL0     C59275   6.447   7.409   6.707 -0.1775  0.2695 -0.4518
  440MOL0     C59276   6.390   7.493   6.598  0.5578 -0.1809  0.2865
  440MOL0     C59277   6.284   7.415   6.518  0.7555 -0.2670 -0.1396
  440MOL0     C59278   6.198   7.501   6.430  0.2788 -0.2634  0.5016
  440MOL0     C59279   6.103   7.403   6.352 -0.2798  0.7873  0.6720
  440MOL0     C59280   5.971   7.488   6.332 -0.5170  0.8935 -0.1610
  440MOL0     C59281   5.874   7.402   6.245 -0.7673 -0.0409  0.7889
  440MOL0     N59282   5.739   7.455   6.235 -1.4288  0.1215  0.0108
  440MOL0     C59283   5.631   7.394   6.187  0.0058  0.8124  0.1955
  440MOL0     C59284   5.528   7.472   6.203  0.0487 -0.3685  0.1997
  440MOL0     C59285   5.389   7.424   6.170  0.1123 -0.4099 -0.5781
  440MOL0     C59286   5.343   7.308   6.260 -0.9792  0.1167 -0.1128
  440MOL0     C59287   5.207   7.261   6.221  0.1190 -0.2773  0.8512
  440MOL0     C59288   5.181   7.113   6.254 -0.4066  1.4769 -0.3016
  440MOL0     O59289   5.205   7.101   6.398 -0.4400 -0.4988  0.8754
  440MOL0     C59290   5.093   7.088   6.470  0.4757  0.5323 -0.5737
  440MOL0     C59291   5.066   7.190   6.555  0.7317 -0.1285 -0.4125
  440MOL0     C59292   4.943   7.188   6.621 -0.4287  0.3320 -0.0440
  440MOL0     C59293   4.922   7.311   6.725  0.1048  0.7907 -0.4655
  440MOL0     C59294   4.846   7.088   6.603 -0.1909  0.1715  0.6703
  440MOL0     C59295   4.703   7.097   6.669  0.7935  0.1010 -0.3688
  440MOL0     O59296   4.635   6.986   6.693  0.0817 -0.7561 -0.2110
  440MOL0     C59297   4.494   6.984   6.721  0.2592  0.5656 -0.2937
  440MOL0     C59298   4.397   7.061   6.661 -0.8388 -0.1170  0.0699
  440MOL0     C59299   4.260   7.060   6.699 -0.4040  0.0325  0.8085
  440MOL0     C59300   4.216   6.972   6.797 -0.1459 -0.4186 -0.3934
  440MOL0     O59301   4.085   6.945   6.823  0.3208 -0.3704  0.0470
  440MOL0     C59302   3.985   7.028   6.766 -0.4674  0.1779 -0.7656
  440MOL0     C59303   3.851   7.014   6.820  0.3892  0.0242 -0.3291
  440MOL0     C59304   3.783   6.879   6.806  0.7060  0.8935 -0.0113
  440MOL0     C59305   3.844   6.781   6.914 -0.3419  0.0094  0.6661
  440MOL0     C59306   3.755   6.657   6.942 -1.2242 -0.3247  0.6064
  440MOL0     C59307   3.646   6.676   7.034 -0.5539  0.0916 -0.2762
  440MOL0     C59308   3.560   6.554   7.016  0.5879  0.3904 -0.0340
  440MOL0     C59309   3.436   6.559   7.112  0.1974  0.9697 -0.3768
  440MOL0    Cl59310   3.470   6.651   7.269 -0.2901 -0.7771 -0.2510
  440MOL0     C59311   4.316   6.895   6.863 -0.7896 -0.6401 -0.7338
  440MOL0     C59312   4.447   6.897   6.826  0.3445 -0.0807  0.5527
  440MOL0     O59313   4.657   7.204   6.682  0.1149 -0.9162 -0.2136
  440MOL0     C59314   4.878   6.983   6.523  0.4931  0.3997 -1.1323
  440MOL0     C59315   4.996   6.985   6.457 -0.0989 -0.9100  0.2852
  440MOL0     N59316   5.571   7.587   6.260 -0.1562  0.0386 -0.1812
  440MOL0     N59317   5.698   7.576   6.280  0.1483  0.7442  0.4233
  440MOL0     C59318   6.779   7.617   6.925  0.5327 -1.0514 -0.5334
  440MOL0     C59319   6.898   7.638   6.990  0.3924  0.0750 -0.1917
  440MOL0     C59320   7.374   7.666   7.001 -0.7855  0.3112 -0.6557
  440MOL0     C59321   7.503   7.622   6.947  0.3159  0.2439  0.3362
  440MOL0     C59322   7.621   7.671   7.005  0.0681 -0.1377  0.9009
  440MOL0     C59323   7.616   7.750   7.121  0.2681 -0.9939  0.6938
  440MOL0     O59324   7.727   7.797   7.185 -0.2146 -0.2501  1.2857
  440MOL0     C59325   7.823   7.865   7.103 -0.0050 -0.2963 -0.6046
  440MOL0     C59326   7.863   7.992   7.175  0.3919 -0.3244  1.0534
  440MOL0     C59327   7.981   8.060   7.094  0.0371  0.2452  0.4296
  440MOL0     C59328   8.005   8.210   7.138 -0.2743  1.2420 -0.1166
  440MOL0     C59329   7.917   8.299   7.064 -0.3592  0.2991 -0.7930
  440MOL0     C59330   7.853   8.372   6.996 -0.5667 -0.2011  0.3424
  440MOL0     C59331   7.497   7.773   7.188  0.1339 -0.5245  0.4133
  440MOL0     C59332   7.374   7.731   7.129  0.2064  0.2196 -0.1585
  440MOL0     H59333   7.071   7.674   6.694 -2.6254  1.1696 -2.8448
  440MOL0     H59334   6.862   7.647   6.592  3.8280  0.8784 -1.4850
  440MOL0     H59335   6.600   7.402   6.853 -1.8697 -0.5767  1.0661
  440MOL0     H59336   6.503   7.547   6.861  0.1875 -1.6294  0.7365
  440MOL0     H59337   6.496   7.315   6.679 -0.4223  0.1315 -0.4220
  440MOL0     H59338   6.366   7.382   6.775  0.2952  1.0677  0.4525
  440MOL0     H59339   6.331   7.573   6.643 -2.1612 -2.2496  0.6435
  440MOL0     H59340   6.460   7.545   6.531  0.2965 -0.0054  0.1455
  440MOL0     H59341   6.324   7.328   6.464  0.9678  0.9527 -2.0125
  440MOL0     H59342   6.210   7.364   6.580  0.2781 -1.8130 -1.8812
  440MOL0     H59343   6.139   7.557   6.504 -3.3211 -2.5705 -0.3554
  440MOL0     H59344   6.240   7.578   6.364 -0.3448  1.2611  1.8048
  440MOL0     H59345   6.145   7.358   6.261 -2.6710 -2.6225  1.0779
  440MOL0     H59346   6.089   7.316   6.416 -1.4760  0.1248 -0.4396
  440MOL0     H59347   5.933   7.512   6.432 -1.5714 -0.0450 -0.3167
  440MOL0     H59348   5.997   7.584   6.287  1.4007  0.0843 -0.8897
  440MOL0     H59349   5.870   7.296   6.270  4.8627 -0.7897 -0.1439
  440MOL0     H59350   5.910   7.404   6.142  0.4396  0.2011  1.1979
  440MOL0     H59351   5.638   7.286   6.174  0.9323  0.8635  0.2302
  440MOL0     H59352   5.329   7.516   6.173  1.3640  0.4320  2.3673
  440MOL0     H59353   5.402   7.386   6.068  0.3206  2.2910 -1.6542
  440MOL0     H59354   5.345   7.347   6.362  0.7994  0.2624 -0.1802
  440MOL0     H59355   5.420   7.231   6.262 -0.4338  0.6710  1.2419
  440MOL0     H59356   5.177   7.268   6.116 -1.0562 -1.1350  1.1042
  440MOL0     H59357   5.135   7.324   6.273 -0.6755 -1.6101  1.4189
  440MOL0     H59358   5.256   7.052   6.204  0.1178 -0.0964  2.2090
  440MOL0     H59359   5.083   7.079   6.220 -0.7548 -0.6329  2.4187
  440MOL0     H59360   5.145   7.264   6.570  0.4150  0.6897 -2.4795
  440MOL0     H59361   5.015   7.353   6.764 -0.5979  1.6203  0.3406
  440MOL0     H59362   4.881   7.398   6.673 -1.6951  0.5316  0.4710
  440MOL0     H59363   4.856   7.278   6.805  2.3555 -1.0410  0.7540
  440MOL0     H59364   4.429   7.121   6.577 -1.2532 -0.3777 -0.2777
  440MOL0     H59365   4.203   7.130   6.639  1.3768  0.6037 -0.2810
  440MOL0     H59366   4.007   7.130   6.796 -4.5612 -0.0682  4.4415
  440MOL0     H59367   3.981   7.018   6.657  0.0827  3.0571 -1.1277
  440MOL0     H59368   3.856   7.038   6.927  0.5096 -1.7991  0.0997
  440MOL0     H59369   3.793   7.090   6.765 -0.5013 -0.5519 -0.2025
  440MOL0     H59370   3.793   6.830   6.708  1.5119  2.2541 -0.6391
  440MOL0     H59371   3.680   6.899   6.834  0.7358  1.2166 -0.1255
  440MOL0     H59372   3.944   6.755   6.879  0.0379  1.7767  0.3625
  440MOL0     H59373   3.861   6.830   7.010  0.4691  2.9417 -0.8803
  440MOL0     H59374   3.815   6.574   6.982 -0.7587 -0.8529 -1.0904
  440MOL0     H59375   3.706   6.634   6.847 -3.1800  1.3195  1.1643
  440MOL0     H59376   3.686   6.664   7.136  0.9335  1.4698 -0.6664
  440MOL0     H59377   3.599   6.774   7.020 -0.3253  0.2570  0.1095
  440MOL0     H59378   3.623   6.472   7.051 -0.0369 -0.5543 -1.0569
  440MOL0     H59379   3.534   6.524   6.913  2.8640 -0.9934 -0.2619
  440MOL0     H59380   3.402   6.456   7.122  1.6984  0.6345  2.1134
  440MOL0     H59381   3.360   6.610   7.052 -0.6719  2.6976  2.0353
  440MOL0     H59382   4.279   6.831   6.943 -3.5729  1.7555  0.0778
  440MOL0     H59383   4.524   6.833   6.868  0.1657  0.1734  1.2724
  440MOL0     H59384   4.808   6.901   6.516  0.5578  0.0349  1.5027
  440MOL0     H59385   5.025   6.917   6.377  0.9620 -2.3404  1.8008
  440MOL0     H59386   6.690   7.612   6.986  1.0991 -1.9558  0.2585
  440MOL0     H59387   6.912   7.649   7.098 -1.9377  0.7334  0.0964
  440MOL0     H59388   7.502   7.584   6.845 -0.7714  2.5228 -0.5734
  440MOL0     H59389   7.720   7.664   6.961  0.6735  0.6765  2.0828
  440MOL0     H59390   7.905   7.795   7.086  0.0262 -0.3261 -0.3327
  440MOL0     H59391   7.784   7.895   7.005  0.0580  3.7550  0.4399
  440MOL0     H59392   7.898   7.962   7.274  1.9672 -0.5335  0.4613
  440MOL0     H59393   7.777   8.057   7.192  1.0625  1.0379 -0.4568
  440MOL0     H59394   7.962   8.062   6.986 -0.8363  3.5485  0.5239
  440MOL0     H59395   8.073   8.011   7.127 -0.4198  0.6607  2.4326
  440MOL0     H59396   8.110   8.234   7.126  0.1141 -0.2335  0.1468
  440MOL0     H59397   7.982   8.217   7.245 -1.5163  0.8690 -0.3440
  440MOL0     H59398   7.794   8.445   6.945 -0.2401 -0.0656  0.1492
  440MOL0     H59399   7.505   7.829   7.281 -3.7973 -2.5552  2.2249
  440MOL0     H59400   7.283   7.761   7.181 -1.0799 -1.2737 -1.4435
  441MOL0     O59401   5.556   3.556   9.792 -0.6617  0.0899 -0.4171
  441MOL0     C59402   5.582   3.592   9.677 -0.2242 -0.1278  0.0180
  441MOL0     O59403   5.504   3.684   9.605  0.1342 -0.3471  0.3083
  441MOL0     C59404   5.372   3.700   9.641  0.6597 -0.1900  0.2022
  441MOL0     C59405   5.287   3.619   9.715  0.4314  0.4795 -0.3615
  441MOL0     C59406   5.163   3.666   9.749 -0.0160  0.2552  0.2684
  441MOL0     C59407   5.109   3.783   9.696 -0.7368 -0.3742 -0.5259
  441MOL0     O59408   4.982   3.830   9.721  0.2178 -0.1337  0.1330
  441MOL0     C59409   4.937   3.806   9.863 -0.8026  0.2246  0.2045
  441MOL0     C59410   4.805   3.870   9.898  0.7867  0.3672  0.3368
  441MOL0     C59411   4.687   3.774   9.883 -0.3052  0.5920 -0.1975
  441MOL0     C59412   4.662   3.716   9.745 -0.3008 -0.5785 -0.1893
  441MOL0     C59413   4.520   3.663   9.737 -0.2125  0.2534  0.6520
  441MOL0     C59414   4.495   3.636   9.588  0.2840  0.7902 -0.0943
  441MOL0     C59415   4.359   3.583   9.555  0.7334 -0.5788 -0.0227
  441MOL0     C59416   4.340   3.613   9.407  1.1657  0.0531 -0.6132
  441MOL0     N59417   4.195   3.592   9.367  0.1495  0.3375  0.6498
  441MOL0     C59418   4.132   3.467   9.372 -0.4339 -0.7813  0.6563
  441MOL0     C59419   4.009   3.494   9.316  1.1100 -0.2631 -0.9740
  441MOL0     C59420   3.903   3.396   9.288  0.0189 -0.2174 -0.2920
  441MOL0     C59421   3.925   3.339   9.159 -0.2455 -0.8737  0.0625
  441MOL0     C59422   3.848   3.208   9.132 -0.9614 -0.0876 -0.8972
  441MOL0     C59423   3.746   3.232   9.018  0.3379 -0.2090 -0.6700
  441MOL0     O59424   3.690   3.107   8.986 -0.3976  0.1359 -0.0761
  441MOL0     C59425   3.591   3.093   8.885 -0.2122  0.4603  0.0690
  441MOL0     C59426   3.564   2.971   8.829 -0.0109 -0.0148 -0.5997
  441MOL0     C59427   3.472   2.943   8.730 -0.0593  0.5210 -0.7714
  441MOL0     C59428   3.452   2.793   8.689 -0.3078 -0.1902  0.0403
  441MOL0     C59429   3.398   3.060   8.676 -0.4283  0.5287  0.4179
  441MOL0     C59430   3.312   3.048   8.556  0.2851  0.2545 -0.0022
  441MOL0     O59431   3.190   3.107   8.563 -0.9079  0.1095 -0.0975
  441MOL0     C59432   3.103   3.111   8.458 -0.7015 -0.3833 -0.1567
  441MOL0     C59433   2.978   3.088   8.497  0.1764  0.4589  1.5806
  441MOL0     C59434   2.876   3.075   8.397 -0.0549 -0.7240 -0.8648
  441MOL0     C59435   2.903   3.095   8.265 -0.9116  0.3036 -0.4527
  441MOL0     O59436   2.807   3.071   8.178  0.1494 -0.0379  0.1297
  441MOL0     C59437   2.797   3.165   8.066  0.2698  0.6056  0.0081
  441MOL0     C59438   2.662   3.174   7.987 -0.0781  0.0419 -0.8106
  441MOL0     C59439   2.535   3.192   8.073 -0.2622  0.1435  0.4859
  441MOL0     C59440   2.500   3.064   8.152 -0.8888  0.5696 -0.1192
  441MOL0     C59441   2.361   3.085   8.230 -0.3897  0.0786 -0.3802
  441MOL0     C59442   2.362   2.968   8.336 -0.7094 -0.3600  0.3932
  441MOL0     C59443   2.227   2.935   8.384  0.6830 -0.9440  0.1048
  441MOL0     C59444   2.225   2.853   8.517  0.6575  0.3400  0.7417
  441MOL0    Cl59445   2.063   2.803   8.536  0.0762  0.0597 -0.0589
  441MOL0     C59446   3.032   3.137   8.223  0.6861  0.5880 -0.8555
  441MOL0     C59447   3.127   3.150   8.322 -0.0164 -0.3187  0.4007
  441MOL0     O59448   3.350   2.969   8.469 -0.7235 -0.3886  0.2289
  441MOL0     C59449   3.416   3.184   8.738 -0.5896 -0.8133 -0.0491
  441MOL0     C59450   3.526   3.203   8.827 -1.1556  0.1277  1.1117
  441MOL0     N59451   3.996   3.637   9.298  0.3100  0.4597  0.4015
  441MOL0     N59452   4.108   3.688   9.338 -0.4797  0.4145  0.3667
  441MOL0     C59453   5.194   3.850   9.610 -0.0377 -0.5746  0.8043
  441MOL0     C59454   5.321   3.815   9.585 -0.7651  0.6481  1.0193
  441MOL0     C59455   5.708   3.560   9.612  0.8772 -0.3673 -0.0308
  441MOL0     C59456   5.813   3.510   9.687 -0.4283 -0.3393  0.7694
  441MOL0     C59457   5.939   3.481   9.634  0.4418 -0.1109  1.3034
  441MOL0     C59458   5.957   3.488   9.500 -0.2366  0.3103 -0.6391
  441MOL0     O59459   6.069   3.465   9.424  0.4082 -0.3313  0.0034
  441MOL0     C59460   6.188   3.402   9.482 -0.6196  1.1573  0.1108
  441MOL0     C59461   6.269   3.305   9.391 -0.1172  0.0229 -0.8881
  441MOL0     C59462   6.379   3.249   9.480 -0.0832  0.1932 -0.3742
  441MOL0     C59463   6.492   3.185   9.393 -0.1966  0.2066 -0.1802
  441MOL0     C59464   6.514   3.051   9.436 -0.7626  0.5637  0.6288
  441MOL0     C59465   6.540   2.936   9.472  0.4641  0.0767  0.7352
  441MOL0     C59466   5.844   3.526   9.417  0.1383 -0.2295 -0.5319
  441MOL0     C59467   5.716   3.565   9.470 -0.2424  0.5793  0.6110
  441MOL0     H59468   5.320   3.528   9.766  0.3862  0.4081 -0.4586
  441MOL0     H59469   5.111   3.594   9.812  0.7602 -0.1005  0.5175
  441MOL0     H59470   4.943   3.702   9.895 -2.6183  0.1193  0.2627
  441MOL0     H59471   5.001   3.871   9.925 -2.0735  1.8565 -0.1172
  441MOL0     H59472   4.806   3.904  10.002 -4.3139 -1.5937  1.3524
  441MOL0     H59473   4.787   3.958   9.835  2.0509 -0.2026 -0.8603
  441MOL0     H59474   4.697   3.690   9.951 -4.1968  1.3652  1.5758
  441MOL0     H59475   4.596   3.821   9.921  0.3016  2.5292 -0.9497
  441MOL0     H59476   4.668   3.797   9.672  2.0187 -1.5098 -1.1345
  441MOL0     H59477   4.738   3.641   9.720 -1.7628 -2.0866 -0.2395
  441MOL0     H59478   4.513   3.565   9.784 -1.7380 -0.8870 -1.8338
  441MOL0     H59479   4.448   3.730   9.786  0.7842  1.9063 -0.0557
  441MOL0     H59480   4.507   3.733   9.539  3.9223 -0.1612 -1.4317
  441MOL0     H59481   4.560   3.564   9.538 -1.9492 -0.9349 -0.6349
  441MOL0     H59482   4.353   3.475   9.571 -1.4911 -0.6184 -0.7152
  441MOL0     H59483   4.286   3.648   9.605 -0.4531 -1.9721  0.1398
  441MOL0     H59484   4.408   3.555   9.344  2.6714  1.0125  0.0714
  441MOL0     H59485   4.355   3.719   9.386  3.7820 -0.2394 -0.5452
  441MOL0     H59486   4.179   3.373   9.400 -0.0508 -1.1203 -0.9671
  441MOL0     H59487   3.905   3.317   9.363  0.5145  0.7065  0.6979
  441MOL0     H59488   3.807   3.447   9.295  0.2706  0.2725 -0.3666
  441MOL0     H59489   4.026   3.301   9.147 -0.0728 -1.5280  2.8127
  441MOL0     H59490   3.906   3.417   9.085 -0.2532  0.5548  1.5029
  441MOL0     H59491   3.806   3.144   9.210  0.9095  1.1487  1.2144
  441MOL0     H59492   3.921   3.136   9.093  0.2311 -0.8269  2.4301
  441MOL0     H59493   3.795   3.273   8.929  0.3577 -0.9347 -1.0039
  441MOL0     H59494   3.659   3.286   9.056  0.5894 -0.5535  0.4081
  441MOL0     H59495   3.612   2.881   8.867 -0.4460 -0.5997 -1.4080
  441MOL0     H59496   3.513   2.763   8.604 -0.6351  0.5639 -0.4717
  441MOL0     H59497   3.478   2.732   8.776 -0.8567 -1.3471 -0.5855
  441MOL0     H59498   3.350   2.765   8.659  0.3855  0.1511 -2.9659
  441MOL0     H59499   2.956   3.071   8.601  0.7415  2.5897  2.0946
  441MOL0     H59500   2.776   3.050   8.429  0.9810 -0.9202  2.6627
  441MOL0     H59501   2.818   3.266   8.104  0.4826  0.5914 -0.0750
  441MOL0     H59502   2.879   3.155   7.995 -0.2287 -0.5625 -0.4287
  441MOL0     H59503   2.668   3.253   7.911 -1.7198  0.0382 -0.9905
  441MOL0     H59504   2.653   3.080   7.932 -0.4487 -0.1823 -0.3723
  441MOL0     H59505   2.442   3.220   8.024 -0.9098 -3.2871 -0.5364
  441MOL0     H59506   2.554   3.271   8.146 -0.6271  0.8066 -0.1321
  441MOL0     H59507   2.500   2.977   8.085  2.5638  1.4953 -1.4927
  441MOL0     H59508   2.578   3.045   8.226  0.0446 -0.1609 -1.2546
  441MOL0     H59509   2.282   3.088   8.154  0.8719  1.6832 -1.6812
  441MOL0     H59510   2.366   3.179   8.286  2.0771  0.8091 -1.6829
  441MOL0     H59511   2.395   2.873   8.291  0.6004  0.4798 -0.4700
  441MOL0     H59512   2.437   2.985   8.413 -1.2231  1.3177  0.5604
  441MOL0     H59513   2.170   2.880   8.310  1.6884 -2.6521  0.5494
  441MOL0     H59514   2.158   3.018   8.401  3.2275  0.9702  2.0390
  441MOL0     H59515   2.269   2.919   8.593  1.9878 -0.2998  0.5583
  441MOL0     H59516   2.296   2.770   8.523  0.0250 -0.1502  1.7346
  441MOL0     H59517   3.054   3.160   8.119  1.4046  2.1408 -0.3770
  441MOL0     H59518   3.223   3.178   8.280 -1.3518  0.8149 -2.1674
  441MOL0     H59519   3.350   3.267   8.719 -0.5142  0.0282  2.8750
  441MOL0     H59520   3.548   3.302   8.865  0.2401 -0.3238  1.5533
  441MOL0     H59521   5.162   3.943   9.565  0.5900 -1.1590 -0.9181
  441MOL0     H59522   5.382   3.873   9.516 -1.4545  0.7756  0.5013
  441MOL0     H59523   5.807   3.496   9.795  0.3830  0.9463  1.0022
  441MOL0     H59524   6.020   3.451   9.700  3.3582  0.0834 -1.9019
  441MOL0     H59525   6.253   3.481   9.521 -0.7601  1.6983 -0.7089
  441MOL0     H59526   6.156   3.336   9.563  0.6872 -0.8245 -0.8829
  441MOL0     H59527   6.311   3.360   9.306 -0.8344  0.8960 -0.7012
  441MOL0     H59528   6.205   3.227   9.349  2.3414 -2.2641 -0.6632
  441MOL0     H59529   6.343   3.177   9.554  2.0471 -1.6462 -1.0222
  441MOL0     H59530   6.424   3.335   9.531 -1.1370  1.3304 -1.2681
  441MOL0     H59531   6.584   3.236   9.423 -1.3803  1.1415  2.1729
  441MOL0     H59532   6.464   3.189   9.288 -5.1583 -3.8855  0.5962
  441MOL0     H59533   6.533   2.830   9.490  1.9749 -0.0131  0.9356
  441MOL0     H59534   5.836   3.522   9.309 -0.2177 -0.6743 -0.4931
  441MOL0     H59535   5.634   3.595   9.406  0.1040 -0.9831 -0.6268
  442MOL0     O59536  11.273   5.978   6.811  0.2324  0.0814 -0.2755
  442MOL0     C59537  11.295   5.900   6.711  0.4126 -0.9180 -1.5451
  442MOL0     O59538  11.336   5.770   6.723 -0.0131  0.0360  1.2310
  442MOL0     C59539  11.346   5.709   6.841 -0.0709 -1.2865 -0.0429
  442MOL0     C59540  11.244   5.620   6.881 -0.3156 -0.3931 -1.1949
  442MOL0     C59541  11.252   5.551   7.012 -0.4599  0.5009 -0.8902
  442MOL0     C59542  11.367   5.576   7.091 -0.8538  1.0931  0.0150
  442MOL0     O59543  11.386   5.501   7.198 -0.4490  0.0562 -0.0711
  442MOL0     C59544  11.488   5.533   7.298 -0.6489  0.5576  0.4499
  442MOL0     C59545  11.466   5.441   7.419  0.0591  0.0908 -0.3453
  442MOL0     C59546  11.544   5.505   7.538 -0.0556 -0.4314  0.1204
  442MOL0     C59547  11.465   5.620   7.612 -0.1352 -0.0876 -0.2348
  442MOL0     C59548  11.517   5.642   7.750  0.0925  0.4890  0.2279
  442MOL0     C59549  11.669   5.687   7.754 -0.5226 -0.0183 -0.4417
  442MOL0     C59550  11.712   5.698   7.905  0.1222  0.2282  0.2076
  442MOL0     C59551  11.847   5.763   7.923  0.0529  0.5560  0.5712
  442MOL0     N59552  11.907   5.745   8.058  0.4893 -0.7677 -0.2583
  442MOL0     C59553  11.883   5.845   8.156  0.1625  0.2187 -0.6950
  442MOL0     C59554  11.973   5.802   8.253 -0.0432  0.0474  0.5791
  442MOL0     C59555  12.003   5.881   8.383 -0.4058  0.3419  0.2876
  442MOL0     C59556  12.102   5.815   8.488 -0.5594 -0.2727 -0.6353
  442MOL0     C59557  12.063   5.682   8.542 -0.2142  0.1443 -0.4624
  442MOL0     C59558  11.927   5.677   8.609 -0.2241  0.2107 -0.1869
  442MOL0     O59559  11.902   5.549   8.672 -0.4432  0.1479  0.2184
  442MOL0     C59560  11.870   5.447   8.591 -0.4390 -0.3315 -1.1273
  442MOL0     C59561  11.852   5.449   8.452 -0.7234  0.1743  0.5129
  442MOL0     C59562  11.833   5.329   8.376  0.3125 -0.3539  0.1196
  442MOL0     C59563  11.816   5.351   8.226 -0.3016 -0.2878 -0.1494
  442MOL0     C59564  11.817   5.205   8.432  0.7025 -0.0540 -0.2007
  442MOL0     C59565  11.809   5.072   8.362  0.3606 -0.1025  0.4464
  442MOL0     O59566  11.871   5.056   8.247  0.7682 -0.0482  1.3372
  442MOL0     C59567  11.893   4.941   8.183 -0.3735  0.1388  0.1975
  442MOL0     C59568  12.010   4.959   8.101  0.7214  0.3514 -0.0746
  442MOL0     C59569  12.048   4.855   8.015  0.1408 -0.3397  0.5350
  442MOL0     C59570  11.987   4.731   8.017  0.7241  0.1233  1.2720
  442MOL0     O59571  12.045   4.631   7.939 -0.0473 -0.0501 -0.5204
  442MOL0     C59572  11.965   4.566   7.828 -0.5687 -1.3192 -0.3247
  442MOL0     C59573  12.061   4.501   7.733  0.4203  0.5441 -0.0409
  442MOL0     C59574  11.990   4.415   7.627  0.2476 -0.8463  0.0136
  442MOL0     C59575  12.012   4.469   7.483 -0.2988 -0.2849  0.1074
  442MOL0     C59576  11.954   4.377   7.373 -0.5375  0.6647 -0.1842
  442MOL0     C59577  11.806   4.332   7.406  0.3556 -0.4628  0.7610
  442MOL0     C59578  11.740   4.285   7.269  0.5951  0.2696 -0.1123
  442MOL0     C59579  11.586   4.245   7.277  0.9266 -0.5044  0.0756
  442MOL0    Cl59580  11.499   4.392   7.231 -0.1844 -0.0222  0.0716
  442MOL0     C59581  11.867   4.716   8.096 -0.2610  0.1305 -0.2502
  442MOL0     C59582  11.821   4.824   8.177  0.2549  1.1799 -0.4278
  442MOL0     O59583  11.726   4.992   8.411  0.2261  0.1683 -0.0396
  442MOL0     C59584  11.828   5.216   8.572  0.6785  0.4237 -0.1016
  442MOL0     C59585  11.844   5.326   8.656  0.3278  0.7427  0.3964
  442MOL0     N59586  12.043   5.693   8.205 -1.3990  0.0518 -0.7179
  442MOL0     N59587  12.003   5.655   8.095  0.4476  0.8382  0.6175
  442MOL0     C59588  11.471   5.667   7.050 -1.0067 -0.1581  0.2832
  442MOL0     C59589  11.445   5.744   6.928 -0.4159 -0.0010 -0.7455
  442MOL0     C59590  11.274   5.957   6.581  0.7070 -0.1617  0.0814
  442MOL0     C59591  11.195   6.074   6.562  0.2425  0.6949 -0.0603
  442MOL0     C59592  11.178   6.136   6.438 -0.1942  0.6108  0.1099
  442MOL0     C59593  11.247   6.087   6.330 -0.0237  0.4292  0.6207
  442MOL0     O59594  11.219   6.117   6.196 -0.3472  0.1436 -0.3222
  442MOL0     C59595  11.106   6.201   6.155 -0.0225  0.8800 -0.8062
  442MOL0     C59596  10.985   6.100   6.147  0.0594  0.5120 -0.6124
  442MOL0     C59597  10.842   6.144   6.130 -0.1115 -0.4776 -0.2247
  442MOL0     C59598  10.775   6.207   6.257 -0.1555 -0.0222 -0.1493
  442MOL0     C59599  10.636   6.233   6.230 -0.1938 -0.2287  0.6630
  442MOL0     C59600  10.518   6.242   6.216 -1.0814 -0.0477  0.6001
  442MOL0     C59601  11.330   5.971   6.339 -0.2031 -0.0708 -0.7240
  442MOL0     C59602  11.345   5.912   6.464 -0.2186  0.3985 -0.2480
  442MOL0     H59603  11.159   5.609   6.815 -1.4192 -1.4239  0.3363
  442MOL0     H59604  11.162   5.494   7.035 -1.0547  2.3522  1.8830
  442MOL0     H59605  11.590   5.513   7.262 -1.5755  0.0591 -2.0579
  442MOL0     H59606  11.487   5.641   7.319  4.6024  2.0140 -4.3268
  442MOL0     H59607  11.365   5.429   7.458  0.6238 -0.3751  1.0525
  442MOL0     H59608  11.506   5.340   7.402 -0.2192  0.1357 -1.3090
  442MOL0     H59609  11.558   5.424   7.610 -0.5015 -1.3601 -0.8184
  442MOL0     H59610  11.645   5.544   7.522 -1.1527  2.5286 -0.2781
  442MOL0     H59611  11.488   5.715   7.563 -0.9035 -0.1627 -0.7622
  442MOL0     H59612  11.356   5.605   7.609 -0.2066 -0.0463  1.4197
  442MOL0     H59613  11.461   5.724   7.795 -1.5557 -0.7885  0.6135
  442MOL0     H59614  11.508   5.548   7.805  0.4945 -1.4534 -2.8096
  442MOL0     H59615  11.731   5.607   7.711 -0.9844 -1.0397  0.7491
  442MOL0     H59616  11.677   5.782   7.700 -0.3349 -0.1899 -0.7172
  442MOL0     H59617  11.637   5.765   7.949  0.5558  1.0416 -0.2538
  442MOL0     H59618  11.710   5.601   7.954 -0.4018  0.6462  1.0303
  442MOL0     H59619  11.845   5.870   7.900 -1.2003  0.1277 -1.6733
  442MOL0     H59620  11.915   5.711   7.854 -1.6319 -0.4573 -0.3998
  442MOL0     H59621  11.818   5.932   8.154  0.5121  0.4887 -0.5596
  442MOL0     H59622  12.033   5.981   8.350 -0.0648 -0.5898 -2.4288
  442MOL0     H59623  11.906   5.903   8.428 -0.1890  0.3192  0.7856
  442MOL0     H59624  12.100   5.883   8.574 -0.8161 -0.0698 -0.7990
  442MOL0     H59625  12.201   5.799   8.444 -1.1454 -1.9243 -1.4045
  442MOL0     H59626  12.136   5.649   8.617  1.2625 -0.8212 -2.2412
  442MOL0     H59627  12.073   5.598   8.473 -1.1386 -1.0855  0.8499
  442MOL0     H59628  11.848   5.696   8.536  0.4498  0.9699 -0.7345
  442MOL0     H59629  11.921   5.751   8.689  2.7852  0.7007 -0.3245
  442MOL0     H59630  11.862   5.544   8.400  0.9719 -0.3034 -0.1120
  442MOL0     H59631  11.780   5.453   8.210  0.2451 -0.3009 -1.6503
  442MOL0     H59632  11.908   5.346   8.167 -0.7830 -0.2862 -0.9064
  442MOL0     H59633  11.747   5.283   8.175 -0.9434  0.6985 -0.6288
  442MOL0     H59634  12.071   5.047   8.117  3.6414 -1.5778  0.2596
  442MOL0     H59635  12.137   4.871   7.956 -0.1118  0.4858  0.3726
  442MOL0     H59636  11.899   4.489   7.870 -0.5360 -1.1440  0.0478
  442MOL0     H59637  11.913   4.641   7.768  2.7214 -1.3833 -3.6808
  442MOL0     H59638  12.111   4.581   7.677 -0.0681  2.4888  2.1484
  442MOL0     H59639  12.142   4.444   7.781  0.1022 -1.7566 -2.0269
  442MOL0     H59640  11.887   4.404   7.663  0.1238  3.1385  1.4039
  442MOL0     H59641  12.035   4.316   7.618  1.0894 -0.3694 -1.3075
  442MOL0     H59642  11.977   4.570   7.459 -1.7643 -0.4655  1.2817
  442MOL0     H59643  12.117   4.485   7.457 -0.0722 -2.9821 -0.9132
  442MOL0     H59644  12.025   4.293   7.375  0.2996  1.3626  0.3329
  442MOL0     H59645  11.955   4.429   7.277 -1.9265  2.7686  0.8753
  442MOL0     H59646  11.793   4.252   7.480 -1.0716  2.3494  3.8241
  442MOL0     H59647  11.749   4.421   7.435 -1.0730 -0.6240 -1.3742
  442MOL0     H59648  11.792   4.192   7.243 -0.7369 -0.0835 -1.7045
  442MOL0     H59649  11.765   4.357   7.190  3.4415  1.8802  2.0464
  442MOL0     H59650  11.566   4.220   7.381  0.8590 -0.2904  0.1138
  442MOL0     H59651  11.576   4.157   7.212  1.9317  0.1866 -1.0754
  442MOL0     H59652  11.825   4.618   8.114 -0.0555 -0.0239 -0.5869
  442MOL0     H59653  11.734   4.811   8.241  0.0683 -0.6472 -0.9765
  442MOL0     H59654  11.827   5.119   8.622  3.0926  1.1270  1.5280
  442MOL0     H59655  11.869   5.318   8.761 -1.2067 -0.8901  0.6749
  442MOL0     H59656  11.568   5.689   7.095 -1.7987  1.0837  1.4446
  442MOL0     H59657  11.513   5.825   6.904 -1.1885  2.0692  3.2348
  442MOL0     H59658  11.134   6.110   6.644  2.1120  1.9263  0.8780
  442MOL0     H59659  11.102   6.213   6.425 -1.5247 -0.9028 -1.6972
  442MOL0     H59660  11.083   6.270   6.237 -1.6151 -1.8868  1.2655
  442MOL0     H59661  11.116   6.247   6.057 -0.2490  0.3027 -1.1021
  442MOL0     H59662  10.981   6.028   6.229 -2.2619  1.0354 -0.1937
  442MOL0     H59663  11.005   6.041   6.057 -0.1368 -2.0595  0.9228
  442MOL0     H59664  10.791   6.050   6.106  0.8024 -1.1727  0.5234
  442MOL0     H59665  10.827   6.208   6.042  1.1689 -0.3076 -0.3381
  442MOL0     H59666  10.835   6.297   6.275 -1.1503  0.4404  0.9974
  442MOL0     H59667  10.778   6.139   6.343  1.9824  2.5192  1.9596
  442MOL0     H59668  10.420   6.267   6.182 -1.2846 -0.8816  0.5559
  442MOL0     H59669  11.387   5.938   6.253  0.0634  0.4407 -0.7501
  442MOL0     H59670  11.398   5.818   6.477 -1.8711 -0.3541  1.6933
  443MOL0     O59671   5.137   1.220   3.037 -1.1414  1.2992  0.1260
  443MOL0     C59672   5.187   1.111   3.015  1.2384  0.0690 -0.7702
  443MOL0     O59673   5.124   0.996   2.985  0.6343 -0.0267 -0.1212
  443MOL0     C59674   4.987   0.991   2.987 -0.2376  0.1672 -0.2075
  443MOL0     C59675   4.923   0.942   2.879  0.9895 -0.4460  0.8576
  443MOL0     C59676   4.779   0.954   2.863 -0.8541  0.6193  0.0780
  443MOL0     C59677   4.702   0.992   2.974  0.2928 -0.7179 -0.0904
  443MOL0     O59678   4.565   0.989   2.969 -0.6028  0.2678 -0.1185
  443MOL0     C59679   4.478   1.035   3.073  0.0981  0.1007 -0.5637
  443MOL0     C59680   4.462   1.184   3.072 -0.4292  0.5317 -0.7947
  443MOL0     C59681   4.356   1.227   2.970  0.0676 -0.4918 -0.5764
  443MOL0     C59682   4.323   1.382   3.001  0.3867  1.0176  1.0438
  443MOL0     C59683   4.201   1.438   2.922  0.7031  0.0114 -0.1629
  443MOL0     C59684   4.216   1.429   2.767  0.2131  1.0116  0.0618
  443MOL0     C59685   4.092   1.474   2.697  0.3724 -0.0264 -0.7165
  443MOL0     C59686   4.097   1.476   2.549  0.3795 -1.2556 -0.1670
  443MOL0     N59687   3.967   1.524   2.494 -0.0966 -0.4315  0.1097
  443MOL0     C59688   3.860   1.443   2.466  0.3528  0.8348  0.1555
  443MOL0     C59689   3.769   1.521   2.404  0.8522 -0.2555 -0.1796
  443MOL0     C59690   3.646   1.478   2.329 -1.3198 -0.6929  0.2692
  443MOL0     C59691   3.627   1.331   2.311  1.0725 -0.6623  0.4618
  443MOL0     C59692   3.511   1.297   2.216 -0.2581 -0.6325 -0.2457
  443MOL0     C59693   3.375   1.367   2.254  0.4601  0.6613 -0.2249
  443MOL0     O59694   3.278   1.281   2.192  0.4508 -0.3902 -0.1293
  443MOL0     C59695   3.174   1.320   2.115  0.3474 -0.0746 -0.0319
  443MOL0     C59696   3.117   1.448   2.103 -0.4750  0.0079 -0.4385
  443MOL0     C59697   2.992   1.472   2.042  1.3858  0.0601 -0.7594
  443MOL0     C59698   2.938   1.613   2.025 -0.0486 -0.7846  0.8626
  443MOL0     C59699   2.921   1.363   1.976  0.0616 -0.1497 -0.8542
  443MOL0     C59700   2.793   1.368   1.896  0.1983  0.2087 -0.2147
  443MOL0     O59701   2.736   1.255   1.842  0.2427 -0.4149 -0.2255
  443MOL0     C59702   2.620   1.276   1.774 -0.3145  1.3593  0.8498
  443MOL0     C59703   2.501   1.310   1.827  0.3752 -0.1825  0.3639
  443MOL0     C59704   2.381   1.318   1.751  0.1466  0.0644 -0.4423
  443MOL0     C59705   2.380   1.293   1.617 -0.7223  0.0321  0.1774
  443MOL0     O59706   2.262   1.289   1.541 -0.3581 -0.6451 -0.8971
  443MOL0     C59707   2.133   1.288   1.612 -0.3367  0.2066  0.0837
  443MOL0     C59708   2.027   1.255   1.502  0.6154 -0.2062 -0.4784
  443MOL0     C59709   1.887   1.224   1.575  0.0328 -0.0111 -0.3553
  443MOL0     C59710   1.806   1.345   1.605 -0.6254 -0.5667  0.2738
  443MOL0     C59711   1.648   1.337   1.591  0.4227  0.5276 -0.2182
  443MOL0     C59712   1.576   1.452   1.657 -0.5980 -0.6610  0.6906
  443MOL0     C59713   1.422   1.426   1.665 -0.5963  1.6638 -0.3989
  443MOL0     C59714   1.336   1.558   1.682 -0.4591  0.8110  0.2653
  443MOL0    Cl59715   1.418   1.648   1.817  0.0758  0.1571  0.0911
  443MOL0     C59716   2.506   1.266   1.555  0.0165  0.1328  0.1144
  443MOL0     C59717   2.622   1.249   1.633  0.1039  0.5950 -0.1220
  443MOL0     O59718   2.745   1.480   1.881  0.4428  0.3090 -0.8082
  443MOL0     C59719   2.983   1.235   1.993 -0.4255 -0.2420  1.2453
  443MOL0     C59720   3.097   1.209   2.059 -0.3639 -0.5969  0.0708
  443MOL0     N59721   3.827   1.642   2.381  0.2065 -0.0861 -0.4307
  443MOL0     N59722   3.951   1.641   2.428 -0.9205 -0.0488 -0.6754
  443MOL0     C59723   4.770   1.035   3.093  0.0719 -0.4949  0.0322
  443MOL0     C59724   4.909   1.036   3.088 -0.5383  0.1628 -0.3741
  443MOL0     C59725   5.330   1.105   3.007 -1.0192  0.4416  0.4075
  443MOL0     C59726   5.404   0.985   3.031 -0.2118  0.7664  0.6446
  443MOL0     C59727   5.547   0.991   3.017  0.1067  0.4834 -0.3238
  443MOL0     C59728   5.613   1.105   2.985  0.0847 -0.3102 -0.6491
  443MOL0     O59729   5.751   1.088   2.978 -0.7632  0.2341 -0.0501
  443MOL0     C59730   5.842   1.197   2.947  1.2122 -0.5324  0.5684
  443MOL0     C59731   5.984   1.143   2.971  0.9592  0.2317 -0.0889
  443MOL0     C59732   6.087   1.246   2.917  0.5502  0.6029 -0.7448
  443MOL0     C59733   6.225   1.187   2.962  0.3058 -0.2368 -0.6598
  443MOL0     C59734   6.329   1.283   2.937 -0.1380 -0.8130 -0.0988
  443MOL0     C59735   6.419   1.359   2.906  1.2322  0.3116 -0.1415
  443MOL0     C59736   5.540   1.224   2.969 -0.1414  0.8579 -1.1230
  443MOL0     C59737   5.396   1.221   2.977  0.4394 -1.5034  0.4743
  443MOL0     H59738   4.969   0.901   2.789 -1.2875 -1.4071  0.0498
  443MOL0     H59739   4.725   0.912   2.778 -2.1815 -2.0122  2.0624
  443MOL0     H59740   4.386   0.976   3.068 -0.1520  0.3734  0.5040
  443MOL0     H59741   4.513   1.000   3.171 -1.8598  1.2649  0.6185
  443MOL0     H59742   4.453   1.224   3.173  0.6288 -0.7628 -0.1560
  443MOL0     H59743   4.562   1.221   3.045 -0.9810  0.9092 -2.4811
  443MOL0     H59744   4.395   1.217   2.868  3.8322 -0.0362  0.6517
  443MOL0     H59745   4.266   1.166   2.986 -0.9755  1.5109  1.8049
  443MOL0     H59746   4.301   1.388   3.108  1.6270 -2.6821  1.6324
  443MOL0     H59747   4.412   1.441   2.977 -0.1093  1.1330 -0.6194
  443MOL0     H59748   4.106   1.390   2.948 -0.6589  3.6228  2.2944
  443MOL0     H59749   4.192   1.540   2.959  0.1444 -0.0365 -0.1492
  443MOL0     H59750   4.293   1.498   2.733  2.7437 -1.6870 -0.0300
  443MOL0     H59751   4.257   1.334   2.732  2.2374  0.7700  2.7406
  443MOL0     H59752   4.002   1.424   2.735  0.5627 -0.7350 -1.1823
  443MOL0     H59753   4.073   1.576   2.731 -0.8425 -0.3009 -0.5258
  443MOL0     H59754   4.123   1.383   2.497  0.0215 -0.4669 -1.8259
  443MOL0     H59755   4.170   1.549   2.513  0.5450 -2.2586 -1.9889
  443MOL0     H59756   3.839   1.338   2.485  0.5700 -0.2004 -4.2859
  443MOL0     H59757   3.557   1.528   2.368 -1.0348 -0.6550  0.8801
  443MOL0     H59758   3.657   1.512   2.225 -4.9426 -1.8605 -0.6184
  443MOL0     H59759   3.613   1.283   2.408 -1.7916 -0.4567  0.2333
  443MOL0     H59760   3.715   1.280   2.271  0.4475 -1.9592  0.6772
  443MOL0     H59761   3.501   1.188   2.216  1.7553 -0.8497  0.3175
  443MOL0     H59762   3.539   1.335   2.117 -0.8752  1.3163  0.2863
  443MOL0     H59763   3.376   1.471   2.220  0.7445  1.1426  1.1637
  443MOL0     H59764   3.356   1.376   2.362 -2.6742  0.2828 -0.6679
  443MOL0     H59765   3.170   1.536   2.138  0.4075  0.0324 -1.7788
  443MOL0     H59766   2.837   1.621   2.067 -0.9005 -0.8906 -1.0893
  443MOL0     H59767   3.003   1.684   2.077  0.0262 -1.1296  1.2425
  443MOL0     H59768   2.932   1.640   1.919  1.8383 -1.0541  0.6504
  443MOL0     H59769   2.482   1.318   1.934 -2.5193 -1.4196  0.0390
  443MOL0     H59770   2.296   1.342   1.814  1.0431  2.6421 -0.0846
  443MOL0     H59771   2.130   1.207   1.685 -0.2477  0.3416  0.2371
  443MOL0     H59772   2.112   1.382   1.664  0.6463  2.0136 -2.5741
  443MOL0     H59773   2.016   1.336   1.429  3.5361  2.5692  1.8694
  443MOL0     H59774   2.051   1.166   1.442 -0.8467  0.1290 -1.6291
  443MOL0     H59775   1.908   1.158   1.660  5.3224  1.8321  0.1247
  443MOL0     H59776   1.835   1.162   1.501 -0.4174  1.7464 -1.5661
  443MOL0     H59777   1.836   1.398   1.696 -2.0837  1.8202 -0.5511
  443MOL0     H59778   1.828   1.419   1.527 -2.9635  1.2870  1.2666
  443MOL0     H59779   1.607   1.255   1.649  0.3302  1.6193  1.3259
  443MOL0     H59780   1.615   1.334   1.487 -1.3112  3.5481  0.1251
  443MOL0     H59781   1.625   1.485   1.750 -2.4948  0.9612  1.1818
  443MOL0     H59782   1.589   1.538   1.590  2.0165 -1.4148  0.1214
  443MOL0     H59783   1.408   1.362   1.753  4.3699  1.3692  0.4196
  443MOL0     H59784   1.385   1.375   1.576 -0.3672  1.6762 -0.4997
  443MOL0     H59785   1.231   1.532   1.702 -1.1057  3.3753  0.5450
  443MOL0     H59786   1.322   1.619   1.592 -2.0829  1.2987  0.8165
  443MOL0     H59787   2.507   1.231   1.452 -0.1826  1.1778 -0.2589
  443MOL0     H59788   2.718   1.220   1.594  0.8381 -0.3094  2.2082
  443MOL0     H59789   2.927   1.153   1.950  0.1466  0.7624 -1.6264
  443MOL0     H59790   3.138   1.109   2.063  1.8781  0.2764  0.4474
  443MOL0     H59791   4.731   1.070   3.188  2.3114 -1.9930  1.6301
  443MOL0     H59792   4.963   1.085   3.168 -0.2546  1.2816 -1.2175
  443MOL0     H59793   5.343   0.896   3.043 -0.1687  0.0819 -3.0383
  443MOL0     H59794   5.606   0.901   3.031  1.6237  1.8434  3.3467
  443MOL0     H59795   5.819   1.226   2.844 -0.7047 -0.9030  0.8547
  443MOL0     H59796   5.822   1.287   3.006 -0.4367  0.3295 -1.1973
  443MOL0     H59797   6.000   1.047   2.920  1.2992  0.5439 -0.5763
  443MOL0     H59798   6.004   1.120   3.076  0.0575  3.0374  0.7825
  443MOL0     H59799   6.074   1.349   2.948 -0.4328  0.9294 -2.1516
  443MOL0     H59800   6.093   1.247   2.807 -1.6182  0.0135 -0.9082
  443MOL0     H59801   6.239   1.090   2.913 -3.0583 -0.5495 -1.2132
  443MOL0     H59802   6.219   1.172   3.071  0.7812 -0.6604 -0.6884
  443MOL0     H59803   6.491   1.436   2.887 -1.1876  2.7104 -0.2098
  443MOL0     H59804   5.590   1.319   2.960  2.2443 -0.3780 -1.5593
  443MOL0     H59805   5.347   1.317   2.966 -0.1991 -1.6173  2.0983
  444MOL0     O59806   3.487   5.712   0.346  0.6366  0.0370  0.1412
  444MOL0     C59807   3.412   5.807   0.361 -0.0038 -0.8870  0.5427
  444MOL0     O59808   3.418   5.920   0.277  0.6746 -0.4283  0.1490
  444MOL0     C59809   3.461   5.896   0.148  0.0232 -0.8608 -0.3372
  444MOL0     C59810   3.591   5.947   0.137 -0.8478 -0.1850 -0.2836
  444MOL0     C59811   3.663   5.938   0.026  0.2930  0.2275  0.3558
  444MOL0     C59812   3.606   5.875  -0.085  0.2439 -0.1534  0.1466
  444MOL0     O59813   3.678   5.871  -0.200  0.2902 -0.3453  0.6129
  444MOL0     C59814   3.662   5.756  -0.289 -0.4831 -0.3633  0.3443
  444MOL0     C59815   3.790   5.749  -0.367 -0.1353  0.3005 -0.4708
  444MOL0     C59816   3.837   5.879  -0.430  0.3096 -0.3786 -0.1255
  444MOL0     C59817   3.743   5.935  -0.537  0.3674 -0.0537 -1.0019
  444MOL0     C59818   3.799   6.069  -0.596  0.1694 -0.2817  0.1019
  444MOL0     C59819   3.940   6.076  -0.651 -0.8142 -0.1597 -0.3322
  444MOL0     C59820   3.970   6.214  -0.686 -0.2539 -0.5663  0.1900
  444MOL0     C59821   4.109   6.206  -0.759  0.1366  0.4009 -0.1240
  444MOL0     N59822   4.147   6.337  -0.814 -0.6865 -0.3497 -1.0135
  444MOL0     C59823   4.079   6.416  -0.898 -0.0364 -0.6064 -1.4553
  444MOL0     C59824   4.143   6.537  -0.892  1.3430 -0.9470  0.6852
  444MOL0     C59825   4.114   6.657  -0.976 -0.2229  0.1663  0.0600
  444MOL0     C59826   4.152   6.620  -1.118  0.3425  1.1845  0.1292
  444MOL0     C59827   4.170   6.742  -1.207  0.5884 -0.0338  0.5448
  444MOL0     C59828   4.044   6.823  -1.236  0.6959  0.5288  0.4540
  444MOL0     O59829   3.961   6.736  -1.305  0.4821  0.5230  0.9199
  444MOL0     C59830   3.833   6.736  -1.270 -0.0437 -0.4253  0.2609
  444MOL0     C59831   3.779   6.617  -1.227  0.0107  0.1206  0.6553
  444MOL0     C59832   3.642   6.604  -1.197  0.0108  0.2911  0.0493
  444MOL0     C59833   3.609   6.475  -1.140  0.2615  0.1928  0.1542
  444MOL0     C59834   3.547   6.713  -1.224 -0.2073  0.6616 -0.0581
  444MOL0     C59835   3.401   6.710  -1.219  0.0714  0.0293  0.3922
  444MOL0     O59836   3.342   6.831  -1.232  0.3863 -0.7794 -0.4994
  444MOL0     C59837   3.213   6.843  -1.246 -0.4985  0.2592  0.3169
  444MOL0     C59838   3.150   6.800  -1.358  0.6970  0.2012 -0.8029
  444MOL0     C59839   3.014   6.798  -1.359  0.8118  1.1530 -0.2356
  444MOL0     C59840   2.936   6.838  -1.249  0.9125  0.1942 -0.7149
  444MOL0     O59841   2.795   6.855  -1.250  0.2870 -0.3483  0.1872
  444MOL0     C59842   2.728   6.843  -1.382  0.0177  0.6938 -1.0589
  444MOL0     C59843   2.579   6.856  -1.349 -0.2269  0.2854 -0.7817
  444MOL0     C59844   2.494   6.851  -1.477 -0.3591 -0.6473  0.0397
  444MOL0     C59845   2.342   6.863  -1.441  0.4558  0.3732  0.8467
  444MOL0     C59846   2.258   6.953  -1.532  0.2649  0.1220  0.1796
  444MOL0     C59847   2.126   7.004  -1.463  0.7201 -0.1547 -0.6204
  444MOL0     C59848   2.063   7.116  -1.545  0.1143  1.2585  0.7445
  444MOL0     C59849   1.997   7.045  -1.656  1.0477  0.1590 -0.0360
  444MOL0    Cl59850   1.847   6.954  -1.590 -0.2239  0.0998  0.1912
  444MOL0     C59851   2.999   6.894  -1.136  1.3103  0.3522 -0.2592
  444MOL0     C59852   3.141   6.880  -1.130  0.2086  0.0279  0.0784
  444MOL0     O59853   3.332   6.609  -1.197  0.0046 -0.1897  0.0574
  444MOL0     C59854   3.614   6.835  -1.266  1.0549 -0.2881  0.7994
  444MOL0     C59855   3.747   6.842  -1.280 -0.5183  0.2484 -0.3649
  444MOL0     N59856   4.258   6.521  -0.817 -0.0363  0.0688  0.5550
  444MOL0     N59857   4.262   6.397  -0.773  0.4483 -0.1192 -0.1485
  444MOL0     C59858   3.468   5.829  -0.071 -0.4364 -0.2504  0.4611
  444MOL0     C59859   3.396   5.837   0.043  0.5001  0.4206  0.3580
  444MOL0     C59860   3.311   5.780   0.464 -0.8113  0.4235  0.6561
  444MOL0     C59861   3.265   5.889   0.533 -0.1029  0.5158  0.9811
  444MOL0     C59862   3.165   5.875   0.630  0.0143  0.1584 -0.9273
  444MOL0     C59863   3.120   5.752   0.671 -0.5653  1.0531 -0.1492
  444MOL0     O59864   3.057   5.754   0.794  0.1483  0.1799  0.8594
  444MOL0     C59865   2.996   5.632   0.841 -1.0218  0.2520  0.1191
  444MOL0     C59866   2.858   5.599   0.795  0.2535 -0.6237  0.3014
  444MOL0     C59867   2.755   5.715   0.816 -0.5362  0.1974 -0.0910
  444MOL0     C59868   2.611   5.672   0.784  0.3989  0.0237 -0.0643
  444MOL0     C59869   2.587   5.629   0.644 -0.3038  0.2995 -1.0484
  444MOL0     C59870   2.575   5.601   0.526  0.2407 -0.1611  0.2187
  444MOL0     C59871   3.166   5.633   0.593  0.3022 -0.2924 -0.8476
  444MOL0     C59872   3.262   5.646   0.492  0.1808  0.3686  0.3698
  444MOL0     H59873   3.645   5.993   0.220  1.3220  2.0111 -2.7295
  444MOL0     H59874   3.767   5.966   0.039  1.2250 -1.8007 -1.8876
  444MOL0     H59875   3.644   5.663  -0.234 -1.7204  0.1756  0.8836
  444MOL0     H59876   3.574   5.764  -0.353  1.7488 -1.1244 -3.1110
  444MOL0     H59877   3.879   5.701  -0.325  1.2048  0.6822 -2.7149
  444MOL0     H59878   3.751   5.669  -0.431 -1.1445 -1.1960  1.8679
  444MOL0     H59879   3.838   5.948  -0.346 -1.6509 -2.2198  1.5404
  444MOL0     H59880   3.934   5.867  -0.479  0.9477  2.8194  0.1544
  444MOL0     H59881   3.712   5.859  -0.610  4.4175 -1.5842 -1.3899
  444MOL0     H59882   3.650   5.962  -0.485  2.3429  0.1336  2.7932
  444MOL0     H59883   3.733   6.082  -0.683  1.6595 -0.8645 -1.1780
  444MOL0     H59884   3.789   6.142  -0.515 -0.8620 -0.8118  0.4718
  444MOL0     H59885   4.015   6.030  -0.586  0.3796  1.0384 -0.8272
  444MOL0     H59886   3.941   6.009  -0.737  0.2374  0.8074 -1.0959
  444MOL0     H59887   3.888   6.247  -0.749 -1.5853 -3.0918  0.4768
  444MOL0     H59888   3.974   6.274  -0.594  2.7353 -0.8253  0.3343
  444MOL0     H59889   4.108   6.132  -0.840 -1.2947 -0.8024  0.9294
  444MOL0     H59890   4.185   6.180  -0.685 -0.4015  0.6014  0.5053
  444MOL0     H59891   3.987   6.392  -0.951  0.7632 -2.7493 -1.9929
  444MOL0     H59892   4.006   6.671  -0.975 -0.5907 -2.2442  0.5895
  444MOL0     H59893   4.164   6.748  -0.942 -0.9998  0.0600  1.5380
  444MOL0     H59894   4.071   6.552  -1.147  0.7448 -2.3076  5.6490
  444MOL0     H59895   4.238   6.552  -1.117  0.8739  1.7002 -2.5997
  444MOL0     H59896   4.204   6.704  -1.304  1.3953  0.2007  0.7278
  444MOL0     H59897   4.243   6.815  -1.169 -1.5698  0.8473  3.2752
  444MOL0     H59898   4.076   6.907  -1.299  0.9663 -2.7676 -4.2721
  444MOL0     H59899   3.999   6.858  -1.143  1.3523 -1.3915  1.5422
  444MOL0     H59900   3.852   6.540  -1.205  2.5769  2.9666  3.0853
  444MOL0     H59901   3.515   6.478  -1.084  0.2683 -0.0375  0.1795
  444MOL0     H59902   3.586   6.406  -1.222 -3.4308  1.2304  0.1488
  444MOL0     H59903   3.679   6.451  -1.059 -0.9338  3.8989  2.5421
  444MOL0     H59904   3.203   6.749  -1.438 -0.2263 -1.7361 -0.2512
  444MOL0     H59905   2.961   6.762  -1.447 -0.6221  1.7169  0.3525
  444MOL0     H59906   2.759   6.928  -1.444  1.3673 -0.2703 -1.7664
  444MOL0     H59907   2.761   6.744  -1.415  2.7197  1.1958 -0.1103
  444MOL0     H59908   2.558   6.778  -1.276 -0.2104  2.1051  1.2764
  444MOL0     H59909   2.575   6.956  -1.303  1.2848  0.7301 -1.5159
  444MOL0     H59910   2.506   6.753  -1.524  0.8988 -0.1332 -0.7472
  444MOL0     H59911   2.530   6.932  -1.540  0.6989  0.0830  1.5212
  444MOL0     H59912   2.307   6.761  -1.421 -0.0771  0.6745  1.4683
  444MOL0     H59913   2.346   6.913  -1.344 -1.1059  2.2742 -0.0019
  444MOL0     H59914   2.237   6.896  -1.624  0.4409 -0.5483  0.5485
  444MOL0     H59915   2.318   7.042  -1.549  1.0344  0.0239  2.2023
  444MOL0     H59916   2.062   6.917  -1.449 -0.2049  0.5161 -0.5702
  444MOL0     H59917   2.159   7.036  -1.364  3.9411 -0.0721 -1.5846
  444MOL0     H59918   2.141   7.189  -1.569  3.6909 -3.3201 -3.9191
  444MOL0     H59919   1.983   7.172  -1.497  1.2214  2.0073  1.7667
  444MOL0     H59920   2.071   6.981  -1.707 -2.2182 -3.5891 -0.6064
  444MOL0     H59921   1.965   7.117  -1.732 -2.0721 -0.1694  0.8430
  444MOL0     H59922   2.943   6.917  -1.047  4.7963  2.1414  1.6867
  444MOL0     H59923   3.187   6.908  -1.035 -3.2157 -1.3518  2.3269
  444MOL0     H59924   3.552   6.923  -1.277 -4.2457 -3.4591  1.2884
  444MOL0     H59925   3.787   6.939  -1.308  0.3426 -0.2626 -0.9327
  444MOL0     H59926   3.427   5.784  -0.161  1.0141 -0.8297  0.0493
  444MOL0     H59927   3.295   5.798   0.050  1.0299 -1.0062  0.3420
  444MOL0     H59928   3.293   5.991   0.511  0.6902 -0.2491 -2.1513
  444MOL0     H59929   3.150   5.970   0.680  1.4673 -0.6132  1.1100
  444MOL0     H59930   3.060   5.544   0.830  1.9074  1.6181  3.8199
  444MOL0     H59931   2.988   5.645   0.950 -0.8503  0.3365  0.1217
  444MOL0     H59932   2.832   5.511   0.854  0.2025 -0.1462  0.9965
  444MOL0     H59933   2.854   5.586   0.686  2.3368 -0.8532  0.2167
  444MOL0     H59934   2.783   5.813   0.776 -2.2368  0.6948 -0.1099
  444MOL0     H59935   2.751   5.726   0.925 -0.6359  0.4713 -0.1207
  444MOL0     H59936   2.540   5.744   0.827 -2.1127 -3.6359  2.4458
  444MOL0     H59937   2.601   5.586   0.851  0.1194 -1.1339 -1.5526
  444MOL0     H59938   2.588   5.577   0.422 -1.0120  0.0616 -0.0099
  444MOL0     H59939   3.136   5.533   0.623 -0.8568  0.6278  1.3134
  444MOL0     H59940   3.306   5.562   0.439  3.2088  0.8725  1.9052
  445MOL0     O59941   9.640   2.500   6.265  0.0731  0.4560 -0.1391
  445MOL0     C59942   9.550   2.527   6.343 -0.6887 -0.2823 -0.2677
  445MOL0     O59943   9.416   2.545   6.308  0.0565  0.4077  0.8016
  445MOL0     C59944   9.359   2.481   6.206 -0.0001 -0.0985 -0.3983
  445MOL0     C59945   9.386   2.352   6.161  0.3997 -0.5575 -0.1729
  445MOL0     C59946   9.311   2.298   6.056  0.0092 -0.3152  0.8475
  445MOL0     C59947   9.219   2.374   5.986  0.6460  0.1548  1.1337
  445MOL0     O59948   9.133   2.316   5.889  0.3787  0.1248  0.0341
  445MOL0     C59949   9.067   2.193   5.922 -0.5360 -0.4287  0.4985
  445MOL0     C59950   8.973   2.199   6.041 -0.3668  0.0543  0.3448
  445MOL0     C59951   8.952   2.052   6.090  0.6378  0.5880 -0.0214
  445MOL0     C59952   8.864   2.046   6.220  0.0642 -0.5595 -0.0677
  445MOL0     C59953   8.849   1.902   6.268  1.1049  0.1586  0.3077
  445MOL0     C59954   8.736   1.830   6.201  0.3295 -0.2725 -0.7685
  445MOL0     C59955   8.705   1.688   6.263  0.1018 -0.8555 -0.2053
  445MOL0     C59956   8.569   1.641   6.209 -0.1837 -0.0523  0.1151
  445MOL0     N59957   8.548   1.641   6.061 -0.3901 -0.3973  0.0743
  445MOL0     C59958   8.519   1.752   5.986 -0.0598  0.0731 -0.1225
  445MOL0     C59959   8.480   1.702   5.868 -1.6122 -0.0702  0.6814
  445MOL0     C59960   8.423   1.794   5.755  0.4868  0.2511 -0.9666
  445MOL0     C59961   8.278   1.828   5.795 -0.1965 -1.2804 -0.7039
  445MOL0     C59962   8.187   1.709   5.778 -0.5278  0.8107  0.3459
  445MOL0     C59963   8.038   1.744   5.782  0.7906 -0.5897  0.1011
  445MOL0     O59964   7.998   1.848   5.687 -0.6065  0.1367  0.2938
  445MOL0     C59965   7.874   1.900   5.695  0.2738  1.2149 -1.2003
  445MOL0     C59966   7.777   1.830   5.627 -0.6118 -0.8456  0.1865
  445MOL0     C59967   7.638   1.878   5.626 -0.3576 -0.4470  0.4334
  445MOL0     C59968   7.539   1.799   5.552 -0.2124  0.1152  0.7859
  445MOL0     C59969   7.619   1.999   5.697 -0.1838  0.1456 -0.1623
  445MOL0     C59970   7.482   2.053   5.713 -0.3396 -0.6381  0.2479
  445MOL0     O59971   7.465   2.139   5.821  0.2508 -0.2724  0.7179
  445MOL0     C59972   7.345   2.206   5.845  0.6313 -0.1155 -0.6233
  445MOL0     C59973   7.287   2.306   5.764 -0.2545  0.3879 -0.1447
  445MOL0     C59974   7.173   2.369   5.798  0.2098  0.2076 -0.3566
  445MOL0     C59975   7.106   2.337   5.918  0.4126  0.3844 -0.0430
  445MOL0     O59976   6.990   2.382   5.965 -0.1260 -0.1432 -0.4096
  445MOL0     C59977   6.896   2.427   5.869 -0.0525 -0.2344 -0.8647
  445MOL0     C59978   6.762   2.407   5.939  0.2409  0.1169 -0.1926
  445MOL0     C59979   6.660   2.496   5.867  0.0459  0.5872  1.2865
  445MOL0     C59980   6.541   2.534   5.952 -0.1735  0.3966  0.2237
  445MOL0     C59981   6.449   2.425   5.989 -0.1844  0.1577 -0.1933
  445MOL0     C59982   6.404   2.331   5.876  1.0467  0.0809 -0.1650
  445MOL0     C59983   6.265   2.270   5.895  0.5405 -0.5512  0.0006
  445MOL0     C59984   6.220   2.180   5.791  0.0880 -0.1906  0.5538
  445MOL0    Cl59985   6.321   2.043   5.778 -0.0847  0.1398 -0.0970
  445MOL0     C59986   7.154   2.239   5.998 -0.2583  0.1409  0.0211
  445MOL0     C59987   7.275   2.174   5.965  0.6673  0.6031 -0.4816
  445MOL0     O59988   7.389   2.024   5.637  0.1354 -0.1553  0.0349
  445MOL0     C59989   7.720   2.070   5.759 -0.1256  0.3500 -0.0448
  445MOL0     C59990   7.847   2.023   5.744 -0.4315 -0.3953  0.4444
  445MOL0     N59991   8.494   1.562   5.863  0.2042  0.0588  0.2222
  445MOL0     N59992   8.527   1.529   5.987 -0.9930  0.0828  0.2630
  445MOL0     C59993   9.191   2.503   6.032  1.0385  0.4114  0.0596
  445MOL0     C59994   9.265   2.555   6.137 -0.3849 -0.3102 -0.0251
  445MOL0     C59995   9.581   2.563   6.483 -0.7219  0.1580  0.0578
  445MOL0     C59996   9.697   2.516   6.545  0.1996  0.7557 -0.2355
  445MOL0     C59997   9.715   2.555   6.683 -0.3738  0.4723 -0.1643
  445MOL0     C59998   9.624   2.650   6.740 -0.7358  0.4077  0.5198
  445MOL0     O59999   9.665   2.689   6.867  0.2217 -0.3007  0.1532
  445MOL0     C60000   9.677   2.828   6.893 -0.6625  0.5700  0.1440
  445MOL0     C60001   9.813   2.883   6.855 -0.0801  0.1934  0.0504
  445MOL0     C60002   9.916   2.846   6.952  0.9221 -0.1520 -0.3070
  445MOL0     C60003   9.973   2.959   7.037  0.0825 -0.5658 -1.7698
  445MOL0     C60004   9.883   3.008   7.132  0.4516 -0.1969 -0.5898
  445MOL0     C60005   9.809   3.048   7.215 -0.0694 -0.0326 -0.3050
  445MOL0     C60006   9.516   2.694   6.673 -0.0852 -0.5365  0.0974
  445MOL0     C60007   9.491   2.653   6.548  1.0672  0.4325  1.1349
  445MOL0     H60008   9.460   2.291   6.213  1.7282  2.1546  1.3116
  445MOL0     H60009   9.333   2.195   6.030  1.2509  0.8229 -3.3021
  445MOL0     H60010   9.010   2.148   5.840 -0.7165  0.9120 -0.1332
  445MOL0     H60011   9.143   2.116   5.942 -0.8451 -0.5954  1.0464
  445MOL0     H60012   9.018   2.260   6.120  2.7283 -1.1400 -0.3234
  445MOL0     H60013   8.877   2.242   6.012 -1.3512 -1.7587  0.7785
  445MOL0     H60014   8.902   1.996   6.011  1.1636  1.9334 -1.3548
  445MOL0     H60015   9.049   2.004   6.106  0.2084 -0.9686 -1.7760
  445MOL0     H60016   8.913   2.106   6.297  3.1114 -2.3456 -0.4672
  445MOL0     H60017   8.763   2.083   6.197  0.9752  2.0428 -0.2471
  445MOL0     H60018   8.947   1.854   6.270  0.1395 -1.8918  0.2333
  445MOL0     H60019   8.825   1.899   6.375  1.0139 -1.3548  0.2680
  445MOL0     H60020   8.647   1.893   6.203  0.8819  0.5238  0.3184
  445MOL0     H60021   8.761   1.815   6.096  0.5831 -2.5533 -0.4184
  445MOL0     H60022   8.783   1.618   6.233 -0.9119 -2.6659  1.1650
  445MOL0     H60023   8.699   1.681   6.372  4.3058  1.8279  0.4005
  445MOL0     H60024   8.486   1.702   6.244  0.2455  0.8554 -0.4156
  445MOL0     H60025   8.559   1.540   6.250 -0.3700 -0.1924 -0.2681
  445MOL0     H60026   8.526   1.859   6.007 -3.5906  0.3239  0.3746
  445MOL0     H60027   8.479   1.888   5.752  0.3380  0.3771 -0.0868
  445MOL0     H60028   8.430   1.751   5.655  1.3338 -1.6858 -0.1291
  445MOL0     H60029   8.245   1.906   5.726 -2.0990  0.6127  2.1230
  445MOL0     H60030   8.271   1.871   5.895  2.1161  0.8865 -1.3689
  445MOL0     H60031   8.212   1.635   5.854  0.5469  0.4539 -0.3271
  445MOL0     H60032   8.212   1.661   5.683  1.0728  0.7134  0.7956
  445MOL0     H60033   8.009   1.770   5.884 -0.0656 -5.0321  1.1689
  445MOL0     H60034   7.971   1.661   5.760 -1.6508  1.3053 -0.0962
  445MOL0     H60035   7.805   1.746   5.565 -0.7566  0.9949 -2.5634
  445MOL0     H60036   7.463   1.754   5.617 -0.7294  1.7503  1.3727
  445MOL0     H60037   7.485   1.858   5.478 -2.0085 -0.1650  1.8240
  445MOL0     H60038   7.590   1.719   5.497  0.6587  0.8325  0.5356
  445MOL0     H60039   7.347   2.336   5.679 -0.2404 -2.4754 -1.2491
  445MOL0     H60040   7.126   2.449   5.742 -1.3897 -0.9844 -0.7680
  445MOL0     H60041   6.918   2.532   5.845  0.7433 -0.9459 -3.6183
  445MOL0     H60042   6.899   2.368   5.777  1.5369 -0.2477 -0.8267
  445MOL0     H60043   6.722   2.306   5.941 -1.0310  0.6113  0.5998
  445MOL0     H60044   6.773   2.442   6.042  0.9008 -0.2381 -0.1422
  445MOL0     H60045   6.625   2.456   5.771 -2.7753  2.0708  1.5926
  445MOL0     H60046   6.720   2.584   5.841  3.1688 -1.1759  2.0544
  445MOL0     H60047   6.579   2.585   6.042  0.9937 -1.6201  0.9661
  445MOL0     H60048   6.481   2.607   5.898 -0.8360  0.1734  0.6479
  445MOL0     H60049   6.359   2.479   6.019 -1.0421 -0.1554 -2.1019
  445MOL0     H60050   6.509   2.374   6.066  2.0441  2.4339 -0.2652
  445MOL0     H60051   6.409   2.398   5.789 -0.3457  0.5920  0.1299
  445MOL0     H60052   6.483   2.258   5.857  2.0829  1.0279  0.3442
  445MOL0     H60053   6.197   2.356   5.893  0.6177 -0.4608  0.9027
  445MOL0     H60054   6.246   2.226   5.993 -0.8516 -1.8650 -0.8205
  445MOL0     H60055   6.227   2.227   5.692 -0.9282 -1.9825 -0.4322
  445MOL0     H60056   6.114   2.154   5.800 -0.3418  1.5691  0.8168
  445MOL0     H60057   7.092   2.218   6.085 -0.3879  0.3938 -0.0102
  445MOL0     H60058   7.313   2.099   6.033 -0.7959  0.6399  0.4255
  445MOL0     H60059   7.700   2.165   5.806  0.5967 -0.0365  1.0714
  445MOL0     H60060   7.922   2.079   5.799  0.0582 -0.0371 -0.5651
  445MOL0     H60061   9.122   2.569   5.981  2.0998  0.0994 -1.8707
  445MOL0     H60062   9.227   2.645   6.184 -2.2972 -1.0827 -0.0237
  445MOL0     H60063   9.762   2.452   6.487 -0.2167  0.5383 -0.4686
  445MOL0     H60064   9.794   2.516   6.747 -1.3595  0.5983  1.1850
  445MOL0     H60065   9.603   2.880   6.831 -0.3715 -0.4994 -1.1409
  445MOL0     H60066   9.655   2.853   6.997  1.8447 -1.8239  1.3715
  445MOL0     H60067   9.812   2.992   6.843  2.6702  0.2398 -0.3474
  445MOL0     H60068   9.842   2.839   6.760 -0.1695 -1.7681  0.8871
  445MOL0     H60069   9.997   2.811   6.887 -0.2867  1.0129 -2.5935
  445MOL0     H60070   9.885   2.769   7.023  0.6329  0.6927  0.5067
  445MOL0     H60071  10.003   3.036   6.966  2.0692 -0.2457 -0.6734
  445MOL0     H60072  10.067   2.938   7.090 -0.9989 -1.6307 -0.1780
  445MOL0     H60073   9.750   3.077   7.299 -0.8849  0.3278 -0.9911
  445MOL0     H60074   9.465   2.786   6.700  3.7275  2.2002 -1.0984
  445MOL0     H60075   9.407   2.697   6.495 -1.0987 -1.3647  2.8893
  446MOL0     O60076   7.752   0.365   1.325  0.2272  0.5047  0.4364
  446MOL0     C60077   7.746   0.248   1.358  0.6394  0.6274  0.2825
  446MOL0     O60078   7.635   0.176   1.382  0.1819 -0.4149  1.0205
  446MOL0     C60079   7.524   0.239   1.420  0.3772 -0.4147  0.3509
  446MOL0     C60080   7.496   0.270   1.555  0.1864  0.3609  0.7885
  446MOL0     C60081   7.379   0.333   1.585  0.8089  1.0573  0.3321
  446MOL0     C60082   7.289   0.377   1.491 -0.5250 -0.0324 -0.7129
  446MOL0     O60083   7.175   0.442   1.532  0.2681 -0.4841  0.7554
  446MOL0     C60084   7.184   0.565   1.602  0.4124  0.3796  0.2307
  446MOL0     C60085   7.142   0.564   1.744  1.4230 -1.2572  0.1964
  446MOL0     C60086   6.997   0.512   1.751  0.1092  0.6671 -0.0597
  446MOL0     C60087   6.937   0.534   1.891 -0.0807  0.0573  0.2344
  446MOL0     C60088   6.787   0.502   1.892  0.7846 -0.5441  0.1895
  446MOL0     C60089   6.728   0.529   2.031 -0.9540  0.1012  0.2771
  446MOL0     C60090   6.584   0.497   2.031  0.9907  0.7306  0.0438
  446MOL0     C60091   6.494   0.607   1.968  0.1369 -0.0579 -0.4708
  446MOL0     N60092   6.359   0.566   1.968 -0.1812  0.8865 -0.0165
  446MOL0     C60093   6.286   0.540   2.076 -0.3294  0.2462  0.3078
  446MOL0     C60094   6.161   0.498   2.025 -0.4850 -0.2658 -0.4975
  446MOL0     C60095   6.042   0.446   2.095 -1.1311  0.3628 -0.7727
  446MOL0     C60096   6.003   0.535   2.208 -0.8287  0.5178  0.7246
  446MOL0     C60097   5.867   0.483   2.268 -0.5369  0.1410 -0.0213
  446MOL0     C60098   5.825   0.572   2.389 -0.0169 -0.9118  0.3102
  446MOL0     O60099   5.767   0.697   2.358  0.8934  0.2909  0.1340
  446MOL0     C60100   5.635   0.713   2.316 -0.9149 -0.3910 -0.5632
  446MOL0     C60101   5.584   0.835   2.272 -1.0024 -0.6497 -0.6610
  446MOL0     C60102   5.453   0.857   2.234  0.4869 -0.7082  0.1128
  446MOL0     C60103   5.414   0.997   2.186  0.6892  0.2802  0.2404
  446MOL0     C60104   5.360   0.751   2.241  0.3511 -0.3957 -0.0549
  446MOL0     C60105   5.221   0.760   2.190 -0.2412  0.5760 -0.2242
  446MOL0     O60106   5.160   0.638   2.171 -0.1847  0.4707  1.1960
  446MOL0     C60107   5.036   0.631   2.105 -1.0254 -0.0730  0.6511
  446MOL0     C60108   4.978   0.729   2.027  0.2535  0.1164 -0.1191
  446MOL0     C60109   4.850   0.709   1.982  0.4863  0.0520  0.9910
  446MOL0     C60110   4.779   0.594   2.021 -0.0213  0.3604 -0.1128
  446MOL0     O60111   4.641   0.578   1.996 -0.5432  0.5689 -0.8554
  446MOL0     C60112   4.567   0.466   2.052  0.1023 -0.6879 -0.7837
  446MOL0     C60113   4.432   0.468   1.982 -0.2216  0.2817 -0.5503
  446MOL0     C60114   4.368   0.334   1.975 -0.4930  0.0040 -0.2606
  446MOL0     C60115   4.272   0.321   2.094 -0.4665 -0.0678 -0.0836
  446MOL0     C60116   4.225   0.178   2.099  0.0491 -0.1414  0.0440
  446MOL0     C60117   4.104   0.173   2.197  0.4960 -0.2221 -0.4198
  446MOL0     C60118   4.030   0.041   2.175  0.1961  0.1300 -1.6946
  446MOL0     C60119   3.910   0.014   2.262  0.8448 -0.4081  0.6177
  446MOL0    Cl60120   3.965   0.016   2.441 -0.1645 -0.0008 -0.3302
  446MOL0     C60121   4.848   0.488   2.085  0.3746 -0.0060 -0.3265
  446MOL0     C60122   4.973   0.514   2.133  0.8791  0.8474  0.6896
  446MOL0     O60123   5.158   0.870   2.187 -0.1388 -0.2029 -0.0441
  446MOL0     C60124   5.408   0.625   2.286  0.0647 -0.0381 -0.1917
  446MOL0     C60125   5.550   0.614   2.324 -0.0490  0.0669 -0.4525
  446MOL0     N60126   6.169   0.488   1.888  0.2621  0.8410 -0.0187
  446MOL0     N60127   6.287   0.529   1.852 -0.3417 -0.2700  0.1441
  446MOL0     C60128   7.315   0.346   1.360  0.0935  0.3131 -0.2964
  446MOL0     C60129   7.437   0.277   1.324 -0.2579 -0.6879 -1.0000
  446MOL0     C60130   7.870   0.163   1.354 -0.0506 -0.0981  0.3927
  446MOL0     C60131   7.990   0.216   1.295  1.0224  0.6189 -0.6139
  446MOL0     C60132   8.109   0.134   1.301  0.3038 -0.1513  0.3839
  446MOL0     C60133   8.112   0.008   1.355 -0.9506  0.4972  0.2296
  446MOL0     O60134   8.237  -0.055   1.351  0.5503 -0.4972  0.1262
  446MOL0     C60135   8.250  -0.174   1.275  0.8876  1.3647  0.4516
  446MOL0     C60136   8.308  -0.286   1.361  0.0209 -0.0531 -0.2476
  446MOL0     C60137   8.447  -0.256   1.418 -0.6547  0.2614 -0.3869
  446MOL0     C60138   8.558  -0.274   1.316  0.7263  0.3765  0.4511
  446MOL0     C60139   8.695  -0.276   1.353 -0.9801  0.5044 -1.0026
  446MOL0     C60140   8.811  -0.254   1.394  0.1500  0.0402  0.6066
  446MOL0     C60141   7.993  -0.044   1.414 -0.6753 -0.3962 -0.6364
  446MOL0     C60142   7.876   0.032   1.414 -0.5088 -0.5849  0.5935
  446MOL0     H60143   7.566   0.249   1.635  2.1029  2.0616 -0.3609
  446MOL0     H60144   7.365   0.370   1.687 -1.2970 -1.3620  1.0313
  446MOL0     H60145   7.286   0.606   1.602  1.7784 -2.7224  1.3817
  446MOL0     H60146   7.118   0.641   1.558  1.8442 -0.1179 -3.0486
  446MOL0     H60147   7.205   0.489   1.793  2.5342 -0.9459 -0.7179
  446MOL0     H60148   7.151   0.666   1.781 -0.7912  0.0876 -2.5774
  446MOL0     H60149   6.940   0.570   1.678  1.7161  1.7983 -0.4739
  446MOL0     H60150   6.981   0.411   1.710 -1.4246  1.4137 -1.4017
  446MOL0     H60151   6.989   0.460   1.953  1.0448 -0.5333 -1.3299
  446MOL0     H60152   6.968   0.636   1.916  1.8884 -0.3481 -0.3818
  446MOL0     H60153   6.728   0.561   1.821  0.6446  3.0135  2.9614
  446MOL0     H60154   6.775   0.396   1.869 -2.5527 -0.4036  0.8562
  446MOL0     H60155   6.784   0.466   2.100  1.2957  1.5937 -0.0730
  446MOL0     H60156   6.741   0.635   2.056 -0.8741 -0.2929  2.0381
  446MOL0     H60157   6.568   0.403   1.976  1.5949 -1.3236  3.1068
  446MOL0     H60158   6.548   0.481   2.133  0.3017  1.4096 -0.0828
  446MOL0     H60159   6.518   0.617   1.862 -1.1859  1.7087 -0.6642
  446MOL0     H60160   6.504   0.702   2.022 -0.2200 -0.7390  0.8398
  446MOL0     H60161   6.317   0.550   2.179 -2.1879  0.3243  0.9030
  446MOL0     H60162   5.957   0.438   2.028 -0.6835 -2.7446 -1.0879
  446MOL0     H60163   6.066   0.344   2.125  1.8663  0.9613 -0.7860
  446MOL0     H60164   5.986   0.639   2.177 -0.3370  0.9234  1.7709
  446MOL0     H60165   6.083   0.535   2.282 -0.9084 -0.1500  0.8136
  446MOL0     H60166   5.863   0.381   2.308 -0.8738  0.7848  1.6448
  446MOL0     H60167   5.791   0.486   2.189 -3.0012 -0.7414  2.1672
  446MOL0     H60168   5.913   0.591   2.451  0.7180 -1.0103 -0.6850
  446MOL0     H60169   5.764   0.506   2.452  1.9118 -0.9165  2.3277
  446MOL0     H60170   5.655   0.917   2.274  3.5684 -4.1862  0.7720
  446MOL0     H60171   5.354   0.985   2.095  0.4170  1.6224  0.2264
  446MOL0     H60172   5.340   1.047   2.250 -1.6803 -0.0002 -2.1097
  446MOL0     H60173   5.493   1.072   2.177  1.4230  0.3728  4.7866
  446MOL0     H60174   5.037   0.816   2.001  1.8830 -0.2463  2.0570
  446MOL0     H60175   4.806   0.779   1.911  2.1725 -0.4748 -0.6440
  446MOL0     H60176   4.623   0.374   2.029 -0.3428 -1.6551  1.6737
  446MOL0     H60177   4.564   0.472   2.161  3.2921 -1.4487 -0.5483
  446MOL0     H60178   4.362   0.538   2.030 -1.2687 -0.7176 -0.5709
  446MOL0     H60179   4.443   0.498   1.877  1.8622  0.1180 -0.4187
  446MOL0     H60180   4.443   0.254   1.983 -1.7486 -1.3033 -1.0413
  446MOL0     H60181   4.311   0.316   1.884 -0.3749 -3.5962  0.2356
  446MOL0     H60182   4.298   0.363   2.191 -2.2497  0.3990  0.2173
  446MOL0     H60183   4.186   0.380   2.061  0.5883  1.2817 -0.5154
  446MOL0     H60184   4.308   0.113   2.129  0.4093 -1.1688 -2.8341
  446MOL0     H60185   4.199   0.136   2.002 -0.8005 -1.4590  0.8234
  446MOL0     H60186   4.132   0.180   2.302  1.9060 -1.5825 -0.6579
  446MOL0     H60187   4.031   0.250   2.170 -1.4271 -1.7204  0.2443
  446MOL0     H60188   4.099  -0.038   2.206  0.8971  1.5095  0.4494
  446MOL0     H60189   4.001   0.036   2.069  0.0405  3.1228 -1.8694
  446MOL0     H60190   3.863  -0.078   2.225 -1.1281  1.5953 -2.3987
  446MOL0     H60191   3.840   0.098   2.256  2.5364  0.9660 -1.1116
  446MOL0     H60192   4.805   0.392   2.111 -3.5441  1.7035  0.2872
  446MOL0     H60193   5.037   0.432   2.164  1.4126  0.9024 -0.2321
  446MOL0     H60194   5.349   0.535   2.300  2.5982 -1.6788  0.7112
  446MOL0     H60195   5.588   0.515   2.348  3.9482  0.6573 -3.2524
  446MOL0     H60196   7.257   0.389   1.279  0.5247  1.3318 -0.0899
  446MOL0     H60197   7.459   0.257   1.220  1.9134  0.1735 -0.7491
  446MOL0     H60198   7.991   0.319   1.263 -1.0575  0.5482 -1.0966
  446MOL0     H60199   8.199   0.172   1.252 -0.4126  2.1924  0.7751
  446MOL0     H60200   8.152  -0.198   1.233  1.3552  1.3087 -0.6231
  446MOL0     H60201   8.326  -0.151   1.200  2.3798 -2.9683  0.4068
  446MOL0     H60202   8.312  -0.378   1.302  2.3583  0.7481 -1.4434
  446MOL0     H60203   8.250  -0.306   1.452  1.8919 -0.0259  1.0264
  446MOL0     H60204   8.478  -0.300   1.513  0.3381  1.0496 -0.3362
  446MOL0     H60205   8.444  -0.149   1.440 -1.4962 -0.0107  0.9121
  446MOL0     H60206   8.550  -0.191   1.245 -1.1255 -0.2818 -0.1382
  446MOL0     H60207   8.532  -0.359   1.253  0.6784  0.7831 -0.0785
  446MOL0     H60208   8.911  -0.236   1.430  1.0273 -0.3200 -1.4855
  446MOL0     H60209   8.015  -0.133   1.472 -1.4457  0.6445  1.3750
  446MOL0     H60210   7.789  -0.018   1.456  0.0353 -0.8280  1.4731
  447MOL0     O60211   5.841   6.164  10.598  1.0015  0.9018 -0.3467
  447MOL0     C60212   5.820   6.277  10.556 -0.1928  0.0953  0.7735
  447MOL0     O60213   5.698   6.331  10.517  0.0301  0.1713 -0.0466
  447MOL0     C60214   5.589   6.259  10.563 -0.1781  0.0907  0.0306
  447MOL0     C60215   5.507   6.216  10.467 -0.1947  0.4737 -1.1175
  447MOL0     C60216   5.392   6.142  10.496 -0.4218  0.1996 -0.6324
  447MOL0     C60217   5.351   6.131  10.632 -0.4164 -0.1983  0.5503
  447MOL0     O60218   5.240   6.064  10.659  0.8328  0.2466  0.2497
  447MOL0     C60219   5.173   6.068  10.795 -1.1065  0.0114  0.2958
  447MOL0     C60220   5.043   5.987  10.788  0.0011  0.5149 -0.4826
  447MOL0     C60221   4.953   5.998  10.665 -0.0638 -0.1432  0.2206
  447MOL0     C60222   4.811   5.937  10.683  0.4603 -0.5037 -0.1546
  447MOL0     C60223   4.811   5.790  10.659  0.7432 -0.5872  0.0511
  447MOL0     C60224   4.680   5.723  10.709 -0.2938 -0.6840 -0.4192
  447MOL0     C60225   4.661   5.577  10.666  0.4324 -0.6112  0.7590
  447MOL0     C60226   4.544   5.508  10.742  0.2842  0.0013  0.5549
  447MOL0     N60227   4.421   5.540  10.682  0.2179 -0.7728  0.9422
  447MOL0     C60228   4.329   5.633  10.719 -0.3168 -0.5700 -0.5167
  447MOL0     C60229   4.225   5.621  10.638 -0.9120 -0.2398 -0.0561
  447MOL0     C60230   4.103   5.702  10.646 -0.1027 -0.2691 -0.4806
  447MOL0     C60231   3.995   5.632  10.723  0.2580  0.4614  1.0563
  447MOL0     C60232   3.933   5.503  10.661  0.2790  0.6257  0.1926
  447MOL0     C60233   3.839   5.532  10.542 -0.5620 -0.0011 -0.4547
  447MOL0     O60234   3.722   5.602  10.596 -0.2046 -0.4994 -0.0911
  447MOL0     C60235   3.616   5.631  10.523  0.5406 -0.3954  0.7666
  447MOL0     C60236   3.596   5.573  10.398 -0.2490 -0.7651 -0.4512
  447MOL0     C60237   3.464   5.589  10.336 -0.3931  0.1893  0.3297
  447MOL0     C60238   3.455   5.518  10.211 -0.0989  1.0931  1.0636
  447MOL0     C60239   3.365   5.662  10.401  0.3865  0.2219 -0.4864
  447MOL0     C60240   3.223   5.681  10.349 -0.3905  0.1345  0.2226
  447MOL0     O60241   3.134   5.737  10.435  0.5028 -0.0727  0.6074
  447MOL0     C60242   3.004   5.733  10.397  0.2820  0.9543  0.5291
  447MOL0     C60243   2.935   5.856  10.385 -0.0091 -0.6326  0.7055
  447MOL0     C60244   2.797   5.869  10.354 -0.9545  0.2127 -0.1588
  447MOL0     C60245   2.714   5.753  10.347 -0.3785 -0.2084 -0.4429
  447MOL0     O60246   2.586   5.746  10.319  0.3212  0.2516 -0.0213
  447MOL0     C60247   2.511   5.864  10.345  0.1976 -0.7594 -0.2169
  447MOL0     C60248   2.370   5.841  10.399 -0.6100 -0.1627  0.2096
  447MOL0     C60249   2.299   5.970  10.439  0.5109  0.3166 -0.4374
  447MOL0     C60250   2.287   6.058  10.311 -0.7382 -0.5185 -0.2847
  447MOL0     C60251   2.195   6.173  10.339 -0.0459  0.1479 -0.6252
  447MOL0     C60252   2.049   6.136  10.318 -0.0379 -0.4684  0.0311
  447MOL0     C60253   1.950   6.252  10.334  0.1322  0.3268 -0.3799
  447MOL0     C60254   1.820   6.202  10.393 -0.3042 -0.2426 -0.6487
  447MOL0    Cl60255   1.746   6.083  10.300  0.1368 -0.5916 -0.4806
  447MOL0     C60256   2.785   5.625  10.369  0.6601  0.1103  0.2335
  447MOL0     C60257   2.925   5.617  10.390 -0.1650 -0.6628 -0.2326
  447MOL0     O60258   3.194   5.649  10.233  0.1170  0.0590 -0.1675
  447MOL0     C60259   3.387   5.720  10.527 -0.4456  0.3276  0.5263
  447MOL0     C60260   3.516   5.707  10.582 -0.0382  0.3545 -0.1923
  447MOL0     N60261   4.263   5.527  10.539 -0.5027 -0.1540  0.1891
  447MOL0     N60262   4.386   5.487  10.565 -0.0382 -0.0614 -0.5108
  447MOL0     C60263   5.427   6.193  10.729  0.6105  0.7942 -0.5204
  447MOL0     C60264   5.547   6.257  10.695 -0.3801 -0.1461 -0.3836
  447MOL0     C60265   5.940   6.368  10.529  0.0691 -0.5329  0.6109
  447MOL0     C60266   6.072   6.316  10.541 -0.1478  0.8768 -1.4686
  447MOL0     C60267   6.189   6.379  10.507  0.7630  0.2850  0.3992
  447MOL0     C60268   6.168   6.494  10.420 -0.6783 -0.0158  0.1046
  447MOL0     O60269   6.267   6.555  10.356  0.0068 -0.2620 -0.0425
  447MOL0     C60270   6.409   6.538  10.385  0.7148  0.5390 -0.6193
  447MOL0     C60271   6.486   6.558  10.256 -0.3344 -0.2132 -0.8402
  447MOL0     C60272   6.630   6.538  10.306 -0.5539 -0.1889 -1.0591
  447MOL0     C60273   6.718   6.546  10.181 -0.3866 -0.2666  0.3382
  447MOL0     C60274   6.853   6.571  10.232  0.6033 -0.3833  0.2149
  447MOL0     C60275   6.958   6.603  10.287  0.8325  0.4798 -0.7672
  447MOL0     C60276   6.039   6.553  10.413 -0.2713  0.4039  0.1374
  447MOL0     C60277   5.922   6.500  10.473  0.8330  1.2367  0.1340
  447MOL0     H60278   5.519   6.248  10.363 -1.0426  1.2640 -0.9890
  447MOL0     H60279   5.316   6.114  10.423  0.7024  0.0283 -1.7630
  447MOL0     H60280   5.232   6.022  10.875 -1.9446  0.9990  1.5194
  447MOL0     H60281   5.151   6.171  10.826  0.8609  0.1986  1.2847
  447MOL0     H60282   5.071   5.882  10.790  1.3956  0.8491 -1.5034
  447MOL0     H60283   4.980   6.004  10.876  0.3391 -2.7098  0.5162
  447MOL0     H60284   4.941   6.101  10.630 -2.1193 -0.3934  0.0720
  447MOL0     H60285   5.002   5.945  10.583  1.5022  0.9824  0.3873
  447MOL0     H60286   4.774   5.960  10.783  0.8960 -0.3584 -0.0226
  447MOL0     H60287   4.750   5.983  10.605  0.7326  1.6944  0.8535
  447MOL0     H60288   4.826   5.755  10.556  0.2110 -1.4576  0.2507
  447MOL0     H60289   4.895   5.753  10.717  0.1410  0.9896  2.0512
  447MOL0     H60290   4.678   5.722  10.818  1.9207  1.3877 -0.2581
  447MOL0     H60291   4.587   5.779  10.697  0.4698  0.7680  0.1678
  447MOL0     H60292   4.644   5.575  10.558  1.4412  1.7912  0.5001
  447MOL0     H60293   4.753   5.524  10.693 -0.6752 -2.5197  1.0164
  447MOL0     H60294   4.547   5.535  10.848 -2.4459  1.4532  0.3827
  447MOL0     H60295   4.553   5.401  10.723  0.4474 -0.0150  0.7266
  447MOL0     H60296   4.326   5.703  10.801 -0.8517  1.6257 -2.3033
  447MOL0     H60297   4.137   5.796  10.689 -3.6855  0.1428  1.8918
  447MOL0     H60298   4.059   5.725  10.549 -1.5286 -0.3994  0.1034
  447MOL0     H60299   3.909   5.695  10.746 -2.4727 -0.3200 -5.0349
  447MOL0     H60300   4.036   5.607  10.821 -0.6204  1.0913  1.6078
  447MOL0     H60301   3.873   5.454  10.737 -1.7087  0.0434 -1.6714
  447MOL0     H60302   4.013   5.435  10.632  0.9926  1.8225 -0.7610
  447MOL0     H60303   3.816   5.435  10.497  2.9677 -0.8068 -0.8121
  447MOL0     H60304   3.891   5.595  10.470 -3.2799  3.1527  0.0749
  447MOL0     H60305   3.680   5.535  10.341 -1.7489  1.0253 -4.3028
  447MOL0     H60306   3.432   5.590  10.132  1.2787 -1.2628 -1.6760
  447MOL0     H60307   3.550   5.471  10.182  0.0351  1.6326  0.6162
  447MOL0     H60308   3.383   5.436  10.219  0.1763  0.2729 -3.0576
  447MOL0     H60309   2.995   5.946  10.384 -0.7248 -0.1415 -0.4858
  447MOL0     H60310   2.762   5.971  10.339  1.7496  1.6796  2.4723
  447MOL0     H60311   2.554   5.923  10.426  1.4355 -0.9371 -0.7080
  447MOL0     H60312   2.519   5.916  10.249 -1.0712 -0.2411 -0.0615
  447MOL0     H60313   2.313   5.793  10.319  0.8174  0.0430 -0.9673
  447MOL0     H60314   2.375   5.771  10.483 -0.0626 -0.1124  0.2180
  447MOL0     H60315   2.366   6.017  10.512  0.5859 -0.7146  0.1756
  447MOL0     H60316   2.203   5.944  10.483  2.6169 -4.1545  2.2056
  447MOL0     H60317   2.389   6.089  10.286  0.4818 -4.1238 -0.4618
  447MOL0     H60318   2.247   5.993  10.233 -2.4682 -1.3936  1.2512
  447MOL0     H60319   2.228   6.265  10.290  2.8437  1.1717  2.7917
  447MOL0     H60320   2.213   6.212  10.439 -0.3726  2.5104 -1.4214
  447MOL0     H60321   2.048   6.096  10.217  1.7670 -0.8452  0.1320
  447MOL0     H60322   2.017   6.061  10.390  0.2211  0.1487  0.8111
  447MOL0     H60323   1.945   6.307  10.240 -0.1228  2.9311  1.0617
  447MOL0     H60324   1.997   6.327  10.399 -3.7357  0.5137  2.5430
  447MOL0     H60325   1.746   6.277  10.421 -0.9247 -1.6609  1.8981
  447MOL0     H60326   1.851   6.149  10.484  2.1837  1.7623 -0.2087
  447MOL0     H60327   2.737   5.528  10.363 -0.2221  0.4422  1.4287
  447MOL0     H60328   2.971   5.522  10.416 -1.3820 -1.1273  0.2957
  447MOL0     H60329   3.312   5.782  10.575  0.8301  0.2031  2.8285
  447MOL0     H60330   3.531   5.739  10.685 -2.9063 -0.2218  0.5023
  447MOL0     H60331   5.403   6.198  10.835  1.7739 -2.7941  0.0434
  447MOL0     H60332   5.596   6.306  10.779 -0.1079  1.0834 -1.2321
  447MOL0     H60333   6.076   6.211  10.568  1.5652  0.6305 -2.5361
  447MOL0     H60334   6.287   6.345  10.537  0.9857  0.8321  0.2923
  447MOL0     H60335   6.447   6.605  10.462 -1.8815  1.5542 -0.1408
  447MOL0     H60336   6.422   6.436  10.423  1.2793  1.4569  1.8098
  447MOL0     H60337   6.468   6.659  10.219 -0.4767  2.2253  4.9146
  447MOL0     H60338   6.459   6.478  10.186  3.5523 -2.5121 -0.0101
  447MOL0     H60339   6.659   6.444  10.354 -2.1351 -2.1517 -3.6766
  447MOL0     H60340   6.655   6.622  10.371  1.1078  1.4001 -3.5476
  447MOL0     H60341   6.693   6.629  10.114  1.5400  1.2440  1.3629
  447MOL0     H60342   6.717   6.458  10.116 -3.2341  0.7121 -1.1059
  447MOL0     H60343   7.033   6.626  10.359 -0.8805  1.2793  0.8553
  447MOL0     H60344   6.043   6.643  10.353  2.0473  0.1025 -0.2857
  447MOL0     H60345   5.827   6.549  10.451  0.4873 -0.5794 -3.1428
  448MOL0     O60346   7.220   2.297   1.709 -0.3800  0.6385 -0.5239
  448MOL0     C60347   7.167   2.191   1.670  0.2618  0.2829 -0.5175
  448MOL0     O60348   7.039   2.152   1.698  0.5559  0.2578  0.8080
  448MOL0     C60349   6.967   2.241   1.767 -0.5444  0.1428  0.0586
  448MOL0     C60350   6.915   2.355   1.699  0.4295 -0.7456 -1.1090
  448MOL0     C60351   6.819   2.445   1.758  1.8023  0.6477 -0.4656
  448MOL0     C60352   6.787   2.424   1.893 -0.3582 -0.1000  0.7169
  448MOL0     O60353   6.707   2.506   1.955 -0.6367 -0.2589  0.9768
  448MOL0     C60354   6.787   2.594   2.031  0.6022  0.0544  0.4289
  448MOL0     C60355   6.805   2.556   2.179 -0.0036  0.0646 -0.4026
  448MOL0     C60356   6.659   2.531   2.242 -0.4041 -0.0587 -0.4871
  448MOL0     C60357   6.664   2.531   2.396 -0.4494 -0.8651  0.2166
  448MOL0     C60358   6.544   2.464   2.458 -0.2400  0.1637 -0.3407
  448MOL0     C60359   6.415   2.547   2.437  0.4916  0.6220  0.0796
  448MOL0     C60360   6.419   2.701   2.474 -0.0696 -0.4149  0.2588
  448MOL0     C60361   6.276   2.745   2.489 -0.4825  0.1595  0.0872
  448MOL0     N60362   6.194   2.685   2.598  0.1382  1.8297  0.3721
  448MOL0     C60363   6.231   2.658   2.729 -0.7674  0.4497 -0.2529
  448MOL0     C60364   6.124   2.594   2.781 -0.5873 -0.1854  0.2684
  448MOL0     C60365   6.127   2.534   2.920 -0.0392  0.3263 -0.0982
  448MOL0     C60366   6.060   2.625   3.022 -0.1957 -0.8472 -0.0998
  448MOL0     C60367   6.170   2.692   3.099 -0.1749 -0.7239 -0.5215
  448MOL0     C60368   6.226   2.816   3.018 -0.0861 -0.8511 -0.6264
  448MOL0     O60369   6.280   2.921   3.096  0.6100  0.5299  0.2968
  448MOL0     C60370   6.359   3.011   3.038 -0.0001  0.3146 -0.1279
  448MOL0     C60371   6.372   3.027   2.901 -1.3556  0.9458 -0.4208
  448MOL0     C60372   6.477   3.108   2.851 -0.7609 -0.5975  0.4675
  448MOL0     C60373   6.488   3.144   2.710 -0.6591 -0.7099  0.1404
  448MOL0     C60374   6.575   3.172   2.944  0.8252 -0.2154 -0.8895
  448MOL0     C60375   6.676   3.276   2.904 -0.6702 -0.6634  0.7760
  448MOL0     O60376   6.769   3.314   3.005 -0.7648 -0.1944  0.1214
  448MOL0     C60377   6.855   3.412   2.967  1.1241  0.3538 -0.1108
  448MOL0     C60378   6.981   3.390   2.904  0.7341  0.2090  0.5240
  448MOL0     C60379   7.065   3.507   2.880 -0.5306  0.3798 -0.3593
  448MOL0     C60380   7.027   3.630   2.931  0.8047 -0.2724  0.3234
  448MOL0     O60381   7.117   3.734   2.929  0.5900  0.6280  0.0545
  448MOL0     C60382   7.187   3.754   2.806  0.7542  0.4175  0.2133
  448MOL0     C60383   7.255   3.888   2.805 -0.0047  0.6362 -1.0272
  448MOL0     C60384   7.168   4.016   2.844  0.6290  1.2511 -0.5052
  448MOL0     C60385   7.033   3.992   2.790  0.2450 -1.1726 -0.3020
  448MOL0     C60386   6.957   4.121   2.758  0.2732  0.7336 -0.1134
  448MOL0     C60387   6.999   4.166   2.617 -0.3108 -0.8149  0.3241
  448MOL0     C60388   6.907   4.278   2.562  0.0464 -0.2921 -0.4971
  448MOL0     C60389   6.930   4.289   2.406  0.6075  0.2701  0.3155
  448MOL0    Cl60390   6.859   4.423   2.327  0.0111  0.1100 -0.2172
  448MOL0     C60391   6.904   3.647   2.992 -0.5708  0.1414 -0.4171
  448MOL0     C60392   6.814   3.537   3.011 -0.1663 -0.0279  0.5382
  448MOL0     O60393   6.681   3.332   2.789  0.0904  0.2987 -0.1933
  448MOL0     C60394   6.544   3.158   3.080 -0.5227 -0.2728 -0.3673
  448MOL0     C60395   6.438   3.081   3.130 -0.0969 -0.2230  0.6725
  448MOL0     N60396   6.023   2.595   2.690  0.7182  0.2815  0.5444
  448MOL0     N60397   6.060   2.659   2.587  0.6517  0.2089 -0.1864
  448MOL0     C60398   6.840   2.318   1.966  0.6634  0.2237  0.3248
  448MOL0     C60399   6.938   2.232   1.908 -0.2813  0.0486  0.3861
  448MOL0     C60400   7.231   2.106   1.567 -0.3914 -1.0611 -0.2587
  448MOL0     C60401   7.184   1.978   1.539  0.0580 -0.8429 -0.7578
  448MOL0     C60402   7.249   1.904   1.434 -0.2458  0.6937 -0.2072
  448MOL0     C60403   7.361   1.955   1.362 -0.5787 -0.9661 -0.4180
  448MOL0     O60404   7.423   1.897   1.253  0.1370  0.2402 -0.2096
  448MOL0     C60405   7.395   1.757   1.239 -0.6965 -0.0731 -0.2647
  448MOL0     C60406   7.501   1.681   1.156  0.4841 -0.1172 -0.3502
  448MOL0     C60407   7.629   1.635   1.234  0.3963  0.8486  0.1727
  448MOL0     C60408   7.721   1.571   1.141  0.5653 -0.6186  0.0612
  448MOL0     C60409   7.786   1.666   1.056 -0.2086 -0.3600 -0.1480
  448MOL0     C60410   7.826   1.763   0.982 -0.1523  0.3820  0.3187
  448MOL0     C60411   7.414   2.079   1.413  1.2181  0.8725  0.1327
  448MOL0     C60412   7.347   2.154   1.507  0.2514 -0.0108  0.2453
  448MOL0     H60413   6.933   2.373   1.594 -1.5729  1.0088 -1.2138
  448MOL0     H60414   6.780   2.528   1.702 -0.3566  0.0284  0.0477
  448MOL0     H60415   6.886   2.608   1.987  0.1589 -1.3794 -1.1354
  448MOL0     H60416   6.739   2.692   2.041 -0.5394 -0.7528  5.9153
  448MOL0     H60417   6.858   2.461   2.189 -0.9486 -0.5891 -1.3070
  448MOL0     H60418   6.858   2.638   2.227  1.5482 -1.4007  0.5165
  448MOL0     H60419   6.593   2.606   2.199  1.5888  3.4680  2.1317
  448MOL0     H60420   6.628   2.433   2.202 -3.2596  1.0716 -1.3022
  448MOL0     H60421   6.756   2.481   2.428 -0.0082 -1.2977 -1.6329
  448MOL0     H60422   6.671   2.638   2.420 -0.8359 -0.5586 -0.9710
  448MOL0     H60423   6.532   2.360   2.428 -2.5195  0.4530 -0.6447
  448MOL0     H60424   6.567   2.470   2.564  3.7648 -0.6918 -0.9796
  448MOL0     H60425   6.378   2.532   2.335  1.2464  2.9887 -0.6024
  448MOL0     H60426   6.342   2.498   2.502 -1.4733  1.6762 -1.2531
  448MOL0     H60427   6.477   2.730   2.562  2.6207  1.8884 -2.0348
  448MOL0     H60428   6.469   2.766   2.401 -0.1540  0.9404  1.3694
  448MOL0     H60429   6.222   2.736   2.394  1.7095 -0.7717 -1.1359
  448MOL0     H60430   6.264   2.850   2.516 -0.9660  0.9169 -2.7931
  448MOL0     H60431   6.324   2.685   2.776 -1.2658  5.0070 -1.4261
  448MOL0     H60432   6.071   2.440   2.919 -0.8464  0.7650  1.3828
  448MOL0     H60433   6.233   2.515   2.942  0.2545 -0.1082 -1.7468
  448MOL0     H60434   6.006   2.560   3.092  0.2090  0.5474  1.5908
  448MOL0     H60435   5.987   2.687   2.971 -0.5879 -0.8686  0.4253
  448MOL0     H60436   6.253   2.625   3.122 -0.8674 -2.0206 -1.6577
  448MOL0     H60437   6.127   2.739   3.188 -2.4389  0.1217 -1.9744
  448MOL0     H60438   6.145   2.856   2.957 -0.5458 -2.1906 -0.9240
  448MOL0     H60439   6.309   2.774   2.961  0.6412 -0.8026  0.3701
  448MOL0     H60440   6.301   2.971   2.840 -0.0849 -0.7252 -0.4267
  448MOL0     H60441   6.589   3.129   2.673 -1.1350 -2.6302 -0.5425
  448MOL0     H60442   6.419   3.083   2.651  0.7025 -0.2742 -1.9944
  448MOL0     H60443   6.452   3.246   2.697  0.5878 -0.3558 -0.7026
  448MOL0     H60444   7.009   3.292   2.867  1.2280  1.2499 -2.0682
  448MOL0     H60445   7.164   3.489   2.838  0.5968  3.5364  0.6339
  448MOL0     H60446   7.258   3.672   2.790 -0.7384 -0.9597  0.4139
  448MOL0     H60447   7.119   3.749   2.720  3.3391 -4.8138 -2.0037
  448MOL0     H60448   7.329   3.881   2.886 -3.0458  0.0870  1.9400
  448MOL0     H60449   7.318   3.900   2.716  0.4281  2.6375 -0.5073
  448MOL0     H60450   7.211   4.106   2.800 -0.1378  2.4141  1.0653
  448MOL0     H60451   7.159   4.026   2.952 -1.7113 -0.9683 -0.4052
  448MOL0     H60452   7.023   3.930   2.700  1.0603 -1.3369 -0.2808
  448MOL0     H60453   6.965   3.947   2.864 -1.4330  1.1782 -0.2946
  448MOL0     H60454   6.949   4.198   2.836 -2.3370  0.2988  0.1270
  448MOL0     H60455   6.851   4.097   2.752 -0.4865  3.2225  1.6255
  448MOL0     H60456   7.100   4.209   2.614 -0.3868 -0.6617 -0.1110
  448MOL0     H60457   6.990   4.081   2.550 -0.4143 -1.2875  0.9283
  448MOL0     H60458   6.952   4.367   2.607  0.7037 -1.0823  0.4625
  448MOL0     H60459   6.807   4.259   2.601  0.7837  1.0808  2.3595
  448MOL0     H60460   6.874   4.206   2.360  1.5256 -0.1819 -0.0193
  448MOL0     H60461   7.035   4.283   2.376  0.7171  1.5583  0.4179
  448MOL0     H60462   6.875   3.745   3.029  2.7874  1.3333 -0.6189
  448MOL0     H60463   6.715   3.552   3.054 -1.0729 -3.8034  0.0875
  448MOL0     H60464   6.611   3.201   3.154  1.3831 -2.5252 -0.6840
  448MOL0     H60465   6.425   3.077   3.237  0.8081  0.6261  0.8293
  448MOL0     H60466   6.800   2.300   2.065  0.4696  0.8822  0.3696
  448MOL0     H60467   6.974   2.143   1.958  4.4219  1.6438  0.3329
  448MOL0     H60468   7.094   1.943   1.589 -0.5815  1.1190 -0.4416
  448MOL0     H60469   7.209   1.806   1.408 -0.8851  1.2666 -1.5047
  448MOL0     H60470   7.398   1.705   1.336 -4.2593 -0.7873 -0.4118
  448MOL0     H60471   7.294   1.740   1.201 -1.5555 -3.4492  2.9240
  448MOL0     H60472   7.524   1.753   1.078 -3.9140  2.3883  0.3312
  448MOL0     H60473   7.445   1.594   1.121 -0.2780  0.2463 -0.0619
  448MOL0     H60474   7.596   1.570   1.316  1.5547 -0.2494 -0.2095
  448MOL0     H60475   7.674   1.720   1.287 -0.8528 -0.2855  3.3291
  448MOL0     H60476   7.663   1.501   1.081  2.5061 -1.6576 -0.7038
  448MOL0     H60477   7.798   1.514   1.195  0.8993  1.3479  1.7950
  448MOL0     H60478   7.860   1.856   0.943 -1.1694  1.8344  2.6602
  448MOL0     H60479   7.509   2.108   1.369  0.9679 -1.6924 -2.3734
  448MOL0     H60480   7.388   2.250   1.536 -1.7625  1.6976 -2.1207
  449MOL0     O60481   0.331   8.629   2.313 -0.3164 -0.6587 -0.3042
  449MOL0     C60482   0.442   8.678   2.336  0.5908 -0.5412 -0.3342
  449MOL0     O60483   0.563   8.630   2.311  1.0898  0.5701 -0.4875
  449MOL0     C60484   0.578   8.514   2.241 -0.4142  0.6231 -0.1883
  449MOL0     C60485   0.514   8.477   2.126 -0.0748  0.6795  0.9303
  449MOL0     C60486   0.532   8.352   2.067  0.6194 -0.1591  0.6985
  449MOL0     C60487   0.619   8.262   2.126 -0.4201 -0.3858  0.8028
  449MOL0     O60488   0.634   8.143   2.062  0.6784  0.2102 -0.0228
  449MOL0     C60489   0.752   8.133   1.977  0.2799  1.2843 -0.4733
  449MOL0     C60490   0.882   8.088   2.056 -0.3849 -0.4415  0.6463
  449MOL0     C60491   0.869   7.967   2.144 -0.9734 -0.7410 -0.0051
  449MOL0     C60492   1.013   7.934   2.201  0.3034 -0.8276 -0.7275
  449MOL0     C60493   0.997   7.808   2.279 -1.1955  0.5394  1.0067
  449MOL0     C60494   1.130   7.759   2.341 -0.6526 -0.8654  0.4342
  449MOL0     C60495   1.113   7.620   2.392 -0.0114 -0.2530 -0.2052
  449MOL0     C60496   1.209   7.548   2.499 -0.1521 -0.8345 -0.2878
  449MOL0     N60497   1.354   7.585   2.502  0.8049 -0.1117 -0.0024
  449MOL0     C60498   1.457   7.518   2.432 -0.5491 -0.9073 -0.0118
  449MOL0     C60499   1.575   7.578   2.461 -0.7242 -0.5948  0.0516
  449MOL0     C60500   1.709   7.530   2.401  0.8252  0.4393  0.4757
  449MOL0     C60501   1.750   7.638   2.299 -0.6138  0.4971  0.0687
  449MOL0     C60502   1.722   7.591   2.158  0.5166  0.2616 -0.5634
  449MOL0     C60503   1.831   7.495   2.101 -0.5515  0.0098 -0.8227
  449MOL0     O60504   1.838   7.368   2.161  0.4117 -0.3860  0.0010
  449MOL0     C60505   1.760   7.266   2.112 -0.3509 -0.4355 -0.1117
  449MOL0     C60506   1.779   7.144   2.171  0.7920 -0.3288 -1.1213
  449MOL0     C60507   1.709   7.029   2.129 -0.2024 -0.0456  0.7508
  449MOL0     C60508   1.745   6.898   2.194 -0.8431  1.0611  0.2638
  449MOL0     C60509   1.622   7.032   2.013  0.4708 -0.3770  0.2715
  449MOL0     C60510   1.552   6.909   1.963  0.3358 -0.1250  0.2056
  449MOL0     O60511   1.632   6.803   1.919  0.1881 -0.1100 -0.4948
  449MOL0     C60512   1.584   6.679   1.894 -0.9745  0.0423  0.0746
  449MOL0     C60513   1.687   6.579   1.894 -0.2340 -0.2298  0.4654
  449MOL0     C60514   1.652   6.440   1.878 -0.5526  0.2207 -0.7579
  449MOL0     C60515   1.517   6.407   1.865 -0.7209 -0.1099 -0.0463
  449MOL0     O60516   1.485   6.275   1.857  0.2883 -0.6048 -0.1698
  449MOL0     C60517   1.346   6.230   1.851  0.4969  0.2329 -0.1262
  449MOL0     C60518   1.311   6.087   1.874  0.3190 -0.0012  0.4733
  449MOL0     C60519   1.158   6.079   1.853 -0.5980 -1.3496  0.6674
  449MOL0     C60520   1.111   5.940   1.805  0.1716 -0.0810  0.3434
  449MOL0     C60521   0.959   5.922   1.796  0.6710  0.0682 -0.5366
  449MOL0     C60522   0.914   5.810   1.702 -0.6752  1.3264  0.5388
  449MOL0     C60523   0.951   5.846   1.555 -0.7681  0.3354  0.4624
  449MOL0     C60524   0.938   5.728   1.450 -0.6666  0.2984 -1.0720
  449MOL0    Cl60525   0.779   5.671   1.444 -0.1337  0.1025 -0.1469
  449MOL0     C60526   1.430   6.507   1.856 -1.1845 -0.9566  0.0983
  449MOL0     C60527   1.458   6.645   1.866  1.1766 -0.9719 -1.4084
  449MOL0     O60528   1.430   6.918   1.953 -0.0882 -0.0615 -0.7367
  449MOL0     C60529   1.600   7.159   1.963  0.2400 -0.9801  0.0276
  449MOL0     C60530   1.666   7.270   2.006 -1.0737  0.0818  1.3958
  449MOL0     N60531   1.545   7.678   2.552 -0.1758 -0.3177 -0.5143
  449MOL0     N60532   1.413   7.685   2.574  0.6026 -0.2667  0.1952
  449MOL0     C60533   0.686   8.296   2.240  0.7142  0.3974  0.4805
  449MOL0     C60534   0.677   8.425   2.291 -0.0864  0.4541 -1.0918
  449MOL0     C60535   0.426   8.815   2.405 -0.1876 -0.4547  0.5302
  449MOL0     C60536   0.319   8.900   2.379  0.3054 -0.1753 -0.2389
  449MOL0     C60537   0.304   9.024   2.448  0.2244  0.7271 -0.1878
  449MOL0     C60538   0.405   9.064   2.533  0.0990  0.3725 -0.4745
  449MOL0     O60539   0.382   9.182   2.595 -0.1743  0.0045  0.1572
  449MOL0     C60540   0.491   9.222   2.688  0.5859 -0.1873  0.2290
  449MOL0     C60541   0.451   9.360   2.732  0.4902  0.1705 -0.2307
  449MOL0     C60542   0.541   9.414   2.845  0.3510 -0.4379  0.0814
  449MOL0     C60543   0.685   9.435   2.802  0.0045  0.6315  0.8417
  449MOL0     C60544   0.764   9.444   2.924  0.2038  0.1477 -0.2761
  449MOL0     C60545   0.837   9.438   3.028  0.5302 -0.1120 -0.0102
  449MOL0     C60546   0.507   8.974   2.556  0.1706 -1.0890  0.8006
  449MOL0     C60547   0.523   8.855   2.489 -0.2801  0.3468  0.1531
  449MOL0     H60548   0.444   8.549   2.083  0.2255  0.7322  0.5257
  449MOL0     H60549   0.469   8.323   1.984 -1.1975 -2.7221  2.7720
  449MOL0     H60550   0.734   8.048   1.910  1.9605 -0.1326  0.7500
  449MOL0     H60551   0.764   8.228   1.925  0.6399  2.0897  1.0103
  449MOL0     H60552   0.963   8.088   1.981  0.0381 -1.2794  1.0860
  449MOL0     H60553   0.900   8.180   2.112 -1.6284 -1.1088  2.2062
  449MOL0     H60554   0.806   7.986   2.231  0.5088 -0.4114  1.0502
  449MOL0     H60555   0.822   7.885   2.090  0.0224 -0.7803 -0.8566
  449MOL0     H60556   1.073   7.906   2.114  2.0941  1.1648 -0.2102
  449MOL0     H60557   1.057   8.020   2.252 -0.5507  0.4075 -1.9976
  449MOL0     H60558   0.921   7.819   2.357 -2.0898 -5.2742  1.4040
  449MOL0     H60559   0.947   7.730   2.221 -1.2995 -0.0826  1.9111
  449MOL0     H60560   1.205   7.757   2.261 -0.4817  0.8831  0.5193
  449MOL0     H60561   1.165   7.832   2.414 -0.7334  1.0789 -1.3865
  449MOL0     H60562   1.013   7.609   2.435  0.3418  1.9145  1.3482
  449MOL0     H60563   1.117   7.560   2.301 -2.4054  2.0169 -1.9272
  449MOL0     H60564   1.203   7.439   2.496 -1.7680 -0.8116 -4.2512
  449MOL0     H60565   1.183   7.579   2.601  1.8052  0.3685 -0.1023
  449MOL0     H60566   1.431   7.434   2.368 -1.0084 -0.3648 -0.5527
  449MOL0     H60567   1.785   7.537   2.481  0.1429  1.7748  1.0459
  449MOL0     H60568   1.693   7.429   2.362  0.2540  0.1702  1.3683
  449MOL0     H60569   1.859   7.649   2.299 -0.3124 -1.8697 -0.6102
  449MOL0     H60570   1.705   7.735   2.319  1.8931  2.4127 -2.8099
  449MOL0     H60571   1.730   7.686   2.105 -0.0881 -0.6442 -2.3595
  449MOL0     H60572   1.624   7.545   2.142  1.3597 -0.7712 -3.2213
  449MOL0     H60573   1.926   7.548   2.115 -0.5921 -0.3126  0.8744
  449MOL0     H60574   1.821   7.488   1.992 -1.9108 -2.0348 -0.6194
  449MOL0     H60575   1.854   7.132   2.248  1.2372  2.8636 -0.9337
  449MOL0     H60576   1.802   6.842   2.120 -0.1692 -0.5741  1.9444
  449MOL0     H60577   1.821   6.915   2.271  1.3192 -0.4287 -1.4121
  449MOL0     H60578   1.657   6.839   2.222  0.6420 -2.5073 -1.9319
  449MOL0     H60579   1.790   6.611   1.907 -0.9872  2.7014 -0.1101
  449MOL0     H60580   1.731   6.366   1.892 -2.3000 -1.7372 -0.8034
  449MOL0     H60581   1.281   6.277   1.925  1.6992 -1.4799  2.1488
  449MOL0     H60582   1.320   6.248   1.747 -1.2975 -1.4356 -0.0272
  449MOL0     H60583   1.356   6.019   1.801  0.0210  0.0596  0.2297
  449MOL0     H60584   1.343   6.052   1.972  1.9947 -2.0813 -0.7260
  449MOL0     H60585   1.128   6.159   1.784  1.2563 -0.8022  0.4473
  449MOL0     H60586   1.121   6.111   1.951 -1.6264  0.7532 -0.3393
  449MOL0     H60587   1.158   5.927   1.707 -0.4552  1.3781 -0.1658
  449MOL0     H60588   1.157   5.856   1.859  1.2496 -0.8425 -1.6760
  449MOL0     H60589   0.918   6.017   1.761 -2.0014 -0.0821  1.8247
  449MOL0     H60590   0.927   5.912   1.900 -0.2676  2.1433 -0.5771
  449MOL0     H60591   0.977   5.722   1.719 -0.0420  0.9132 -3.0191
  449MOL0     H60592   0.807   5.785   1.703 -0.5379  0.3429 -1.8844
  449MOL0     H60593   1.054   5.879   1.544 -0.7233  0.3144  0.8278
  449MOL0     H60594   0.889   5.931   1.524  1.4684  1.1489 -2.1654
  449MOL0     H60595   1.009   5.647   1.471  0.4235  1.2036 -1.2272
  449MOL0     H60596   0.956   5.757   1.346 -0.7353  0.6172 -0.9960
  449MOL0     H60597   1.327   6.473   1.847 -1.0026 -1.2861 -0.7630
  449MOL0     H60598   1.371   6.709   1.861  1.7231 -0.1050 -0.0710
  449MOL0     H60599   1.524   7.163   1.886 -1.1212  0.1606  1.3628
  449MOL0     H60600   1.650   7.366   1.957 -0.5462 -1.4750 -2.1706
  449MOL0     H60601   0.740   8.221   2.297  1.9517  1.7840  1.2137
  449MOL0     H60602   0.730   8.455   2.380 -1.7362  0.5718 -0.1049
  449MOL0     H60603   0.237   8.857   2.322  0.9376 -4.5271  1.7477
  449MOL0     H60604   0.213   9.082   2.433 -2.0352 -1.1594  4.1920
  449MOL0     H60605   0.498   9.158   2.776  1.0303  1.4170  1.4022
  449MOL0     H60606   0.582   9.209   2.628  0.5123 -2.3777  0.5179
  449MOL0     H60607   0.349   9.339   2.765  0.6860 -0.2648  0.1144
  449MOL0     H60608   0.455   9.431   2.649  3.6548 -0.4039 -0.6887
  449MOL0     H60609   0.537   9.350   2.933 -1.7028 -2.4418 -1.3425
  449MOL0     H60610   0.491   9.505   2.878  2.0243  0.3041  0.6862
  449MOL0     H60611   0.695   9.523   2.738  5.6133 -0.4850 -0.4282
  449MOL0     H60612   0.725   9.355   2.738 -2.0117  1.2098 -1.2669
  449MOL0     H60613   0.887   9.426   3.122  0.8474  0.4331 -0.1048
  449MOL0     H60614   0.590   9.000   2.621 -0.1370 -1.2358  1.2601
  449MOL0     H60615   0.604   8.784   2.503  0.5444  1.8659  5.0832
  450MOL0     O60616  10.161   7.299   3.887  0.5641 -0.2778 -0.4512
  450MOL0     C60617  10.231   7.313   3.990  0.2085  0.4847 -0.2133
  450MOL0     O60618  10.213   7.399   4.086 -0.2449  0.0958  0.3006
  450MOL0     C60619  10.093   7.458   4.104 -0.3879 -0.1497  0.1355
  450MOL0     C60620  10.088   7.597   4.093  1.3824  0.7087  0.5266
  450MOL0     C60621   9.968   7.662   4.118 -0.3199  0.4760  0.2585
  450MOL0     C60622   9.850   7.586   4.159 -0.2022 -0.4473 -0.5036
  450MOL0     O60623   9.736   7.661   4.180 -0.0809 -0.1956 -0.0621
  450MOL0     C60624   9.618   7.594   4.229  0.4462 -0.0202  0.7315
  450MOL0     C60625   9.508   7.690   4.272 -0.0450  0.1225  0.0906
  450MOL0     C60626   9.375   7.618   4.276  0.2660  0.6111 -1.2166
  450MOL0     C60627   9.329   7.584   4.139 -0.0368  0.1830  0.0244
  450MOL0     C60628   9.198   7.511   4.135 -0.8100 -0.4833  0.6444
  450MOL0     C60629   9.072   7.586   4.168  0.3872 -0.4382 -0.1756
  450MOL0     C60630   8.958   7.488   4.201  0.6305  1.0116  0.6781
  450MOL0     C60631   8.823   7.547   4.193  0.2057  0.0507 -0.5867
  450MOL0     N60632   8.723   7.460   4.257 -0.9319  0.0314  0.0043
  450MOL0     C60633   8.588   7.494   4.240  0.4797 -0.0372  0.1990
  450MOL0     C60634   8.518   7.379   4.277 -1.0727 -0.3543  0.4961
  450MOL0     C60635   8.371   7.383   4.296  0.7040 -0.6645  0.1503
  450MOL0     C60636   8.294   7.412   4.164 -0.9124  0.5270 -0.1698
  450MOL0     C60637   8.148   7.381   4.171  0.0448 -0.5066  1.1684
  450MOL0     C60638   8.080   7.368   4.037  0.1617 -0.1621  0.3937
  450MOL0     O60639   7.942   7.364   4.047 -0.5896  0.5133  0.0345
  450MOL0     C60640   7.858   7.364   3.937  0.0796  0.5046  0.1135
  450MOL0     C60641   7.886   7.425   3.808  0.2807  0.4320 -0.4563
  450MOL0     C60642   7.781   7.434   3.712 -0.5190 -0.2235  0.1682
  450MOL0     C60643   7.840   7.506   3.591 -0.3229  0.8349  0.2729
  450MOL0     C60644   7.652   7.380   3.744  0.3247 -0.0666  0.4449
  450MOL0     C60645   7.527   7.391   3.659 -0.1831  0.7265  0.0481
  450MOL0     O60646   7.416   7.321   3.700  0.4830 -0.6169  0.6337
  450MOL0     C60647   7.310   7.317   3.606 -0.6244  0.5005 -0.5495
  450MOL0     C60648   7.315   7.245   3.493  0.3649 -0.2760  0.5296
  450MOL0     C60649   7.198   7.207   3.421 -0.1008 -0.2969 -0.2975
  450MOL0     C60650   7.081   7.253   3.471  0.3285  0.1595  0.0333
  450MOL0     O60651   6.973   7.227   3.388  0.3805 -0.4060 -0.7964
  450MOL0     C60652   6.833   7.218   3.437 -0.3823 -0.0481 -0.6576
  450MOL0     C60653   6.746   7.219   3.316 -0.8588  0.5895 -0.0713
  450MOL0     C60654   6.606   7.177   3.347  0.6968  0.3249 -0.0671
  450MOL0     C60655   6.532   7.151   3.220  0.6839  0.2432  1.0120
  450MOL0     C60656   6.400   7.074   3.253  0.1618  0.0462  0.0822
  450MOL0     C60657   6.305   7.159   3.335  0.3682 -0.0838  0.4690
  450MOL0     C60658   6.179   7.078   3.354 -0.9586 -0.6483  0.3975
  450MOL0     C60659   6.087   7.141   3.462 -0.1322 -0.1067 -0.2178
  450MOL0    Cl60660   5.933   7.056   3.464  0.4675 -0.4023 -0.1963
  450MOL0     C60661   7.074   7.331   3.593 -0.5527 -0.4180 -0.2717
  450MOL0     C60662   7.190   7.364   3.660  0.3445 -0.3093  0.0534
  450MOL0     O60663   7.533   7.461   3.564  0.1129 -0.0801  0.4743
  450MOL0     C60664   7.634   7.303   3.859 -0.5921  0.7265 -0.1233
  450MOL0     C60665   7.729   7.303   3.958 -0.7660 -0.5039 -1.0658
  450MOL0     N60666   8.611   7.286   4.298  0.1441 -0.0840 -0.0573
  450MOL0     N60667   8.736   7.328   4.282 -0.3460 -0.1876  0.2143
  450MOL0     C60668   9.862   7.447   4.170  0.2773  0.5871  0.1970
  450MOL0     C60669   9.984   7.383   4.148  0.8249 -0.6579 -0.3032
  450MOL0     C60670  10.351   7.227   3.993 -0.3033 -0.0090  0.0593
  450MOL0     C60671  10.443   7.254   4.102 -0.1807  0.5172  0.3103
  450MOL0     C60672  10.565   7.180   4.113 -0.0316 -0.4002  0.3880
  450MOL0     C60673  10.599   7.088   4.015 -0.5209  0.6617 -0.9659
  450MOL0     O60674  10.716   7.018   4.021 -0.8094  0.5482  0.2590
  450MOL0     C60675  10.831   7.087   4.060  0.8703  0.0349 -0.9520
  450MOL0     C60676  10.872   7.030   4.194  0.0668 -0.3063 -0.2526
  450MOL0     C60677  11.000   7.099   4.250 -0.7855  0.9022 -0.3953
  450MOL0     C60678  11.119   6.996   4.285 -0.1647  0.0808 -0.0260
  450MOL0     C60679  11.152   6.926   4.161 -0.2384 -1.0309 -0.0402
  450MOL0     C60680  11.163   6.872   4.054  0.2351  0.2446 -0.2147
  450MOL0     C60681  10.504   7.052   3.924 -0.0055  0.0983 -0.2186
  450MOL0     C60682  10.381   7.123   3.907  1.1869  0.6735 -0.5436
  450MOL0     H60683  10.181   7.649   4.078  0.4756  2.9038  2.0467
  450MOL0     H60684   9.966   7.771   4.117 -2.0823  0.4787  0.7763
  450MOL0     H60685   9.577   7.533   4.148 -0.4722  2.4891 -0.8067
  450MOL0     H60686   9.642   7.536   4.318  0.0490 -0.0014  0.8542
  450MOL0     H60687   9.545   7.729   4.367  3.2960 -0.0827 -1.0207
  450MOL0     H60688   9.494   7.776   4.205  3.9065 -1.1780 -2.7925
  450MOL0     H60689   9.377   7.526   4.335 -1.2488  0.3164 -1.5934
  450MOL0     H60690   9.299   7.675   4.330 -0.1658  0.5840 -1.7899
  450MOL0     H60691   9.340   7.673   4.076  1.8415  0.3908  0.5724
  450MOL0     H60692   9.392   7.502   4.102 -2.1479 -1.2778 -0.5127
  450MOL0     H60693   9.190   7.466   4.035 -2.7266 -0.0506  0.5546
  450MOL0     H60694   9.201   7.424   4.202  1.2448 -1.5270 -0.6938
  450MOL0     H60695   9.090   7.648   4.256 -0.4747  0.9336 -0.9379
  450MOL0     H60696   9.036   7.639   4.080 -1.4995 -1.6536 -0.1989
  450MOL0     H60697   8.957   7.398   4.138 -1.0493 -0.6592  2.9120
  450MOL0     H60698   8.973   7.441   4.299 -2.2156 -2.3848 -0.3098
  450MOL0     H60699   8.799   7.578   4.091 -1.0156  0.4398 -0.1985
  450MOL0     H60700   8.830   7.643   4.245 -2.5377  0.5089 -0.9167
  450MOL0     H60701   8.542   7.582   4.195 -1.4450  0.3905  2.7739
  450MOL0     H60702   8.345   7.291   4.349  0.1106  0.0565  1.1353
  450MOL0     H60703   8.336   7.466   4.358 -2.5751 -1.4658 -0.4482
  450MOL0     H60704   8.334   7.344   4.088  1.4740  0.9345  0.6368
  450MOL0     H60705   8.301   7.519   4.144  0.4944  0.5507  0.3698
  450MOL0     H60706   8.112   7.469   4.227  0.2925 -1.3465  2.7064
  450MOL0     H60707   8.122   7.290   4.225 -1.9918 -0.5538  0.1850
  450MOL0     H60708   8.119   7.274   3.995 -1.5252 -0.9904  0.5900
  450MOL0     H60709   8.116   7.447   3.971  1.1751 -1.2703 -0.4442
  450MOL0     H60710   7.985   7.464   3.786  2.0254 -2.7502  1.0652
  450MOL0     H60711   7.949   7.509   3.589 -0.1646 -2.1440 -0.5001
  450MOL0     H60712   7.816   7.454   3.498  1.3832  1.0075 -0.2873
  450MOL0     H60713   7.800   7.607   3.585 -2.2046  0.4603  3.8044
  450MOL0     H60714   7.413   7.219   3.455 -0.3964  0.4822 -2.1619
  450MOL0     H60715   7.200   7.141   3.335  1.8184 -1.4536  0.5582
  450MOL0     H60716   6.813   7.130   3.500  0.1324 -0.7845 -1.4918
  450MOL0     H60717   6.816   7.309   3.495 -2.4786  1.0024 -2.7333
  450MOL0     H60718   6.748   7.320   3.274  2.2718  1.2280  1.3336
  450MOL0     H60719   6.792   7.145   3.250 -0.2504  1.4708 -0.6495
  450MOL0     H60720   6.559   7.258   3.404  1.6091  0.2724  0.8047
  450MOL0     H60721   6.594   7.086   3.406 -0.5927 -0.6763 -1.7943
  450MOL0     H60722   6.504   7.244   3.169 -0.3528  0.2071  1.4960
  450MOL0     H60723   6.596   7.100   3.148 -1.7693 -0.1800 -1.0062
  450MOL0     H60724   6.427   6.987   3.314 -2.0390 -1.1997 -0.6080
  450MOL0     H60725   6.354   7.035   3.162  2.8007  1.6354 -2.0654
  450MOL0     H60726   6.347   7.186   3.432  3.8459  1.9889 -1.4469
  450MOL0     H60727   6.279   7.247   3.276 -2.2825 -3.3761 -3.9041
  450MOL0     H60728   6.224   6.987   3.396  1.3669  1.3438  2.5823
  450MOL0     H60729   6.127   7.060   3.260  2.1255 -0.1368 -1.5626
  450MOL0     H60730   6.076   7.249   3.449  3.8524  0.9581  2.9257
  450MOL0     H60731   6.146   7.137   3.555 -1.6332 -2.4796  0.7363
  450MOL0     H60732   6.990   7.389   3.629 -1.0782 -1.9293  1.0547
  450MOL0     H60733   7.198   7.435   3.742  0.3351  0.3622 -0.5176
  450MOL0     H60734   7.538   7.261   3.888 -0.2252  0.5124  0.8196
  450MOL0     H60735   7.717   7.262   4.058  1.2440 -3.9350 -2.0755
  450MOL0     H60736   9.780   7.389   4.211  0.0503  1.1101  0.4902
  450MOL0     H60737   9.986   7.278   4.175 -0.5292  0.2815  4.3573
  450MOL0     H60738  10.430   7.335   4.172  0.0364  1.6893 -0.9661
  450MOL0     H60739  10.636   7.204   4.192  1.4359 -0.7877 -0.7569
  450MOL0     H60740  10.911   7.068   3.987 -0.5568 -2.2103 -2.0296
  450MOL0     H60741  10.804   7.192   4.075  1.1863 -0.2811  2.4641
  450MOL0     H60742  10.896   6.924   4.180 -1.1082 -0.7873  1.1140
  450MOL0     H60743  10.787   7.028   4.263  1.5343  0.1309  1.6482
  450MOL0     H60744  10.962   7.145   4.342 -1.0836  0.4390 -0.2860
  450MOL0     H60745  11.027   7.183   4.186 -0.3496  1.0546 -0.0129
  450MOL0     H60746  11.084   6.924   4.359  2.5199 -0.7671  0.5416
  450MOL0     H60747  11.206   7.043   4.332 -0.3284 -1.2485  1.7137
  450MOL0     H60748  11.185   6.812   3.968  2.4533 -1.2789  1.2803
  450MOL0     H60749  10.537   6.974   3.855  2.0495 -1.5088  2.3645
  450MOL0     H60750  10.306   7.105   3.832 -1.8343 -0.2106  2.4441
  451MOL0     O60751   7.658   2.304   4.627  0.5028  0.4294 -0.3406
  451MOL0     C60752   7.616   2.253   4.732 -0.1512 -0.2870  0.1376
  451MOL0     O60753   7.696   2.198   4.832  0.2838 -0.5673 -0.0389
  451MOL0     C60754   7.824   2.150   4.800 -0.1132 -0.3363  0.6768
  451MOL0     C60755   7.850   2.086   4.678 -0.1456 -0.3190  0.0205
  451MOL0     C60756   7.975   2.038   4.664 -0.7862  0.0421 -0.4158
  451MOL0     C60757   8.070   2.043   4.766  0.2565  0.8257  0.5216
  451MOL0     O60758   8.185   1.971   4.741  0.6324  0.6956 -0.0495
  451MOL0     C60759   8.310   2.047   4.724  0.2631  0.0237  0.0085
  451MOL0     C60760   8.429   1.959   4.730 -0.3662  0.2085  0.1173
  451MOL0     C60761   8.449   1.898   4.866 -0.8081  0.5216  0.3674
  451MOL0     C60762   8.557   1.780   4.873  0.3968 -0.2226  0.0782
  451MOL0     C60763   8.523   1.670   4.970 -0.2622 -0.1153 -0.0944
  451MOL0     C60764   8.518   1.724   5.116 -1.1614  0.1703 -0.5665
  451MOL0     C60765   8.662   1.735   5.179 -0.8313 -0.2551 -0.0985
  451MOL0     C60766   8.682   1.803   5.323  0.5748 -0.3944  0.5956
  451MOL0     N60767   8.601   1.920   5.345  0.2271 -0.1839 -0.2388
  451MOL0     C60768   8.656   2.047   5.343 -0.0279  0.0750  0.5167
  451MOL0     C60769   8.559   2.131   5.387 -0.6905  0.9917 -0.2830
  451MOL0     C60770   8.568   2.282   5.409 -0.4006  0.0617  0.5179
  451MOL0     C60771   8.446   2.329   5.479  0.0518 -0.5182 -0.4424
  451MOL0     C60772   8.459   2.485   5.516  1.5921  0.3209  0.6650
  451MOL0     C60773   8.325   2.544   5.551 -0.1016 -0.3129  0.0205
  451MOL0     O60774   8.356   2.679   5.580  0.7084 -0.0699 -0.9650
  451MOL0     C60775   8.263   2.765   5.626  0.0269  0.7827 -1.2431
  451MOL0     C60776   8.123   2.739   5.633  0.7365 -1.5948 -0.2460
  451MOL0     C60777   8.041   2.834   5.688 -0.3045  0.2007  0.3221
  451MOL0     C60778   7.889   2.797   5.677 -0.0055 -0.9784 -0.2227
  451MOL0     C60779   8.086   2.959   5.732  0.4009  0.0925  0.3028
  451MOL0     C60780   7.995   3.064   5.781 -0.5695  1.4941  0.3089
  451MOL0     O60781   7.886   3.012   5.854  0.3326  0.4126  0.4704
  451MOL0     C60782   7.790   3.082   5.908 -0.6551  0.2310  0.0686
  451MOL0     C60783   7.721   3.172   5.836 -0.0582  0.6212  0.2876
  451MOL0     C60784   7.637   3.255   5.895  0.5914  0.2803  1.0172
  451MOL0     C60785   7.602   3.242   6.034 -0.9330 -0.2873  1.3396
  451MOL0     O60786   7.503   3.307   6.100 -0.3049  0.9130  0.3142
  451MOL0     C60787   7.424   3.398   6.019  0.4134  0.1080  1.2279
  451MOL0     C60788   7.304   3.460   6.098 -0.7135  0.6578  1.0702
  451MOL0     C60789   7.257   3.598   6.038  0.0189  0.8896  0.3544
  451MOL0     C60790   7.337   3.717   6.093  0.9031  0.9490  0.8548
  451MOL0     C60791   7.314   3.841   5.999 -0.1414 -0.5165  0.0445
  451MOL0     C60792   7.421   3.946   6.035 -0.4158  0.1934  0.1145
  451MOL0     C60793   7.441   4.066   5.933  0.0482  0.1113  0.4811
  451MOL0     C60794   7.472   4.030   5.784 -0.1350 -0.6719  0.3664
  451MOL0    Cl60795   7.523   4.170   5.682 -0.4102  0.0281  0.1158
  451MOL0     C60796   7.665   3.142   6.106 -0.1277  0.5681 -0.1208
  451MOL0     C60797   7.766   3.069   6.044  0.3198  1.2907 -0.8488
  451MOL0     O60798   8.021   3.180   5.750  0.0526  0.0960 -0.7645
  451MOL0     C60799   8.224   2.979   5.731  0.0456 -0.3521 -0.8181
  451MOL0     C60800   8.308   2.886   5.668  0.3812  0.9328  0.0720
  451MOL0     N60801   8.454   2.052   5.430  0.3039  0.2228  0.1056
  451MOL0     N60802   8.481   1.928   5.403 -0.1485 -0.0989 -0.7350
  451MOL0     C60803   8.045   2.100   4.890 -0.2830  0.7934 -0.6703
  451MOL0     C60804   7.922   2.163   4.905  0.1843  0.4211  0.3255
  451MOL0     C60805   7.463   2.249   4.752 -0.9472 -0.6157  0.4036
  451MOL0     C60806   7.375   2.260   4.647  0.3728  0.5452  0.2147
  451MOL0     C60807   7.239   2.265   4.678 -0.1908  0.2941 -0.2256
  451MOL0     C60808   7.195   2.272   4.815 -0.6218  0.1710  0.1032
  451MOL0     O60809   7.062   2.279   4.861  0.1265  0.3253  0.2077
  451MOL0     C60810   6.966   2.324   4.773  0.4112  0.1125 -0.0738
  451MOL0     C60811   6.831   2.347   4.847  0.5620 -0.2674  0.3774
  451MOL0     C60812   6.714   2.353   4.745  0.7505  0.9813 -0.4425
  451MOL0     C60813   6.581   2.392   4.814 -0.0949 -0.1198 -0.0413
  451MOL0     C60814   6.526   2.275   4.885 -0.0671  0.4076 -0.2127
  451MOL0     C60815   6.470   2.180   4.944 -0.3158  0.1457 -0.2559
  451MOL0     C60816   7.286   2.266   4.919 -0.2249 -0.0865  0.3271
  451MOL0     C60817   7.418   2.259   4.878  0.0988  0.9806 -0.2214
  451MOL0     H60818   7.776   2.088   4.599  0.7661 -2.6444 -0.9853
  451MOL0     H60819   8.006   1.996   4.568  0.4227  3.0008 -1.4592
  451MOL0     H60820   8.310   2.090   4.624 -1.2532  1.0455  0.4139
  451MOL0     H60821   8.319   2.116   4.808  1.1710  1.5590 -1.3131
  451MOL0     H60822   8.421   1.892   4.644 -0.4710 -1.6566  1.5039
  451MOL0     H60823   8.516   2.024   4.712  0.1309 -0.7600 -1.1086
  451MOL0     H60824   8.476   1.970   4.943 -1.0009 -0.2608  1.1914
  451MOL0     H60825   8.358   1.845   4.896  1.6502 -3.2145  2.0746
  451MOL0     H60826   8.561   1.729   4.776 -0.1061 -0.9020  0.4027
  451MOL0     H60827   8.654   1.824   4.897 -1.2079  2.5801  2.0616
  451MOL0     H60828   8.433   1.614   4.945  1.0446 -1.4154 -2.1289
  451MOL0     H60829   8.605   1.597   4.969 -2.4554 -2.9623  3.3800
  451MOL0     H60830   8.458   1.816   5.114  0.3285  1.1714 -2.2938
  451MOL0     H60831   8.466   1.648   5.176  0.1706  0.3584  0.8952
  451MOL0     H60832   8.698   1.633   5.190  1.9937  0.7781  1.3870
  451MOL0     H60833   8.728   1.784   5.106  0.0978 -1.2863  0.0182
  451MOL0     H60834   8.788   1.819   5.344  0.9209 -3.0115  1.1576
  451MOL0     H60835   8.640   1.728   5.391  1.4030  0.6722  2.3381
  451MOL0     H60836   8.758   2.075   5.320  0.3791 -1.8493 -0.1260
  451MOL0     H60837   8.660   2.304   5.464  0.4735 -0.1981 -0.7931
  451MOL0     H60838   8.576   2.333   5.313 -1.1071  1.3785  1.1280
  451MOL0     H60839   8.421   2.260   5.560 -2.5369 -0.5681 -1.2094
  451MOL0     H60840   8.358   2.320   5.415 -1.8636 -2.1068  2.1873
  451MOL0     H60841   8.502   2.539   5.431  0.5857 -1.0933 -0.8000
  451MOL0     H60842   8.542   2.500   5.586  1.0533  2.9358  0.8369
  451MOL0     H60843   8.283   2.488   5.635 -0.1839  0.6303  0.6229
  451MOL0     H60844   8.258   2.530   5.465  0.4138 -0.7706 -0.3158
  451MOL0     H60845   8.081   2.644   5.602 -1.1280 -2.3750  4.0007
  451MOL0     H60846   7.835   2.875   5.623  0.5031 -1.0044 -0.7832
  451MOL0     H60847   7.867   2.702   5.629  2.3357 -2.1069  0.7471
  451MOL0     H60848   7.845   2.774   5.775  3.7537 -2.9325  1.2406
  451MOL0     H60849   7.733   3.172   5.729 -0.7786 -1.1909  0.1692
  451MOL0     H60850   7.597   3.327   5.824  1.6059  0.4561  0.6041
  451MOL0     H60851   7.496   3.477   5.993  1.3216 -1.1171 -0.1421
  451MOL0     H60852   7.395   3.346   5.927  2.5738  2.0768 -0.7438
  451MOL0     H60853   7.218   3.392   6.096  0.9447 -1.5797  0.7359
  451MOL0     H60854   7.335   3.465   6.203 -0.9317 -0.5347  1.2094
  451MOL0     H60855   7.152   3.611   6.063  0.6443  2.2457  2.5334
  451MOL0     H60856   7.265   3.593   5.929 -1.0500 -0.5271  0.3173
  451MOL0     H60857   7.295   3.742   6.191 -3.4497  0.9106 -0.7839
  451MOL0     H60858   7.446   3.707   6.090  0.9860  1.8450  0.6521
  451MOL0     H60859   7.214   3.884   6.016  0.4875  1.6568 -1.2676
  451MOL0     H60860   7.317   3.814   5.894  0.5951 -3.6802  0.7829
  451MOL0     H60861   7.398   3.989   6.133 -2.6398  0.1605 -0.3486
  451MOL0     H60862   7.523   3.906   6.041  0.4030  1.1811 -4.1509
  451MOL0     H60863   7.521   4.129   5.973  2.5045 -2.9698  0.9107
  451MOL0     H60864   7.345   4.118   5.938 -1.4667 -2.4674  0.0121
  451MOL0     H60865   7.390   3.971   5.742 -0.7451  0.4823 -0.1079
  451MOL0     H60866   7.558   3.963   5.773 -0.1448 -0.7637  0.8405
  451MOL0     H60867   7.635   3.120   6.207 -0.2494  0.7903 -0.1085
  451MOL0     H60868   7.817   2.988   6.096 -0.3800  2.2874  1.5130
  451MOL0     H60869   8.262   3.079   5.748  1.6444 -0.8244 -1.4021
  451MOL0     H60870   8.413   2.911   5.666  0.5663  0.1816 -2.4345
  451MOL0     H60871   8.127   2.101   4.961 -0.5516  2.9329 -0.3160
  451MOL0     H60872   7.890   2.210   4.997 -0.9918 -1.9110  1.1823
  451MOL0     H60873   7.412   2.241   4.547  0.9165 -3.3414  1.0149
  451MOL0     H60874   7.169   2.270   4.596 -0.9777  1.2654  0.4884
  451MOL0     H60875   7.002   2.425   4.748  0.3502  0.1907  0.1530
  451MOL0     H60876   6.955   2.265   4.682 -0.9098  1.5325 -0.8933
  451MOL0     H60877   6.825   2.445   4.895  1.9589 -0.1212  0.3139
  451MOL0     H60878   6.815   2.269   4.922 -1.7347  0.4684  0.7422
  451MOL0     H60879   6.688   2.257   4.700 -3.1590  0.9391  1.4715
  451MOL0     H60880   6.734   2.428   4.668 -1.5315 -0.0527 -2.1928
  451MOL0     H60881   6.510   2.421   4.737 -1.0474  1.1145  1.2354
  451MOL0     H60882   6.590   2.480   4.879  0.4182 -0.3116  0.1581
  451MOL0     H60883   6.420   2.088   4.965 -0.1329  0.3225  1.0491
  451MOL0     H60884   7.249   2.264   5.022 -0.0371  0.2289  0.4038
  451MOL0     H60885   7.482   2.252   4.966  0.4426 -0.9357 -0.5654
  452MOL0     O60886   9.020   7.275   3.241  0.0814 -0.1062 -0.5291
  452MOL0     C60887   9.040   7.329   3.130  0.4414  0.2628  0.4092
  452MOL0     O60888   8.983   7.288   3.015 -0.5305  0.0015 -0.2609
  452MOL0     C60889   8.872   7.199   3.012 -0.2105  0.2099 -0.6356
  452MOL0     C60890   8.762   7.212   3.097  1.0009 -0.0831  0.5178
  452MOL0     C60891   8.656   7.115   3.091 -0.5204 -0.2547  0.4270
  452MOL0     C60892   8.670   7.003   3.006  0.3764  0.7267  0.6452
  452MOL0     O60893   8.580   6.902   3.013  0.0853  0.7508  0.1272
  452MOL0     C60894   8.460   6.914   3.085 -0.0734  0.6972  0.8154
  452MOL0     C60895   8.360   6.803   3.055 -0.8437 -0.8344  0.1533
  452MOL0     C60896   8.232   6.832   3.123  0.1667 -0.6768  0.6003
  452MOL0     C60897   8.140   6.709   3.138 -0.2368 -1.4437  0.0323
  452MOL0     C60898   8.017   6.747   3.213  0.5935  0.3722 -0.6109
  452MOL0     C60899   7.928   6.623   3.234 -0.5305  0.1405  0.6707
  452MOL0     C60900   7.784   6.660   3.276  0.1420 -0.6768 -0.7628
  452MOL0     C60901   7.713   6.531   3.309 -0.1807  0.4791  0.4290
  452MOL0     N60902   7.609   6.542   3.415  0.1819  0.5647 -0.9325
  452MOL0     C60903   7.485   6.592   3.395 -0.2454 -0.1859 -0.2195
  452MOL0     C60904   7.419   6.577   3.506  0.1994  0.5404 -0.2320
  452MOL0     C60905   7.276   6.628   3.527  0.4001  0.3458 -0.0980
  452MOL0     C60906   7.172   6.519   3.507 -0.6352  0.2623  0.4150
  452MOL0     C60907   7.152   6.444   3.638 -0.0119  0.4779  0.8946
  452MOL0     C60908   7.060   6.326   3.614  0.5947  0.2639  0.4588
  452MOL0     O60909   6.952   6.361   3.525 -0.1936  1.0761  0.1365
  452MOL0     C60910   6.821   6.353   3.560 -0.4517 -0.2509 -0.0297
  452MOL0     C60911   6.728   6.311   3.466  0.4767  0.3085  0.8488
  452MOL0     C60912   6.590   6.299   3.497  0.3673 -0.3712  0.5353
  452MOL0     C60913   6.502   6.250   3.385 -0.7589 -0.4541  0.7894
  452MOL0     C60914   6.538   6.315   3.624 -0.4135  1.1849  1.4689
  452MOL0     C60915   6.385   6.311   3.661  0.1796  0.1993  0.6875
  452MOL0     O60916   6.352   6.294   3.798  0.7737  0.5912 -0.1152
  452MOL0     C60917   6.239   6.335   3.862 -0.6932 -0.4545  0.0501
  452MOL0     C60918   6.249   6.341   4.007 -0.3579  0.0333  0.3816
  452MOL0     C60919   6.143   6.371   4.091  0.3067 -0.3438  0.4946
  452MOL0     C60920   6.029   6.423   4.029 -0.4624  0.1021 -0.7053
  452MOL0     O60921   5.924   6.460   4.121  0.1471 -0.7243  1.2449
  452MOL0     C60922   5.791   6.477   4.063 -0.6198  0.1071 -0.0827
  452MOL0     C60923   5.696   6.487   4.181 -0.3430  0.2811 -0.8017
  452MOL0     C60924   5.566   6.551   4.124 -0.6880  0.4869 -0.1833
  452MOL0     C60925   5.449   6.564   4.229 -0.1148 -0.0186  0.9000
  452MOL0     C60926   5.314   6.604   4.173  0.9128  0.1895 -0.2537
  452MOL0     C60927   5.256   6.499   4.077  0.1580 -0.0518  0.1396
  452MOL0     C60928   5.113   6.553   4.055  0.6420 -0.3571  0.1244
  452MOL0     C60929   5.031   6.461   3.959 -0.9628 -0.4842 -0.6299
  452MOL0    Cl60930   4.867   6.524   3.946  0.1939 -0.2557  0.2272
  452MOL0     C60931   6.025   6.438   3.892 -0.3414 -0.1271 -0.6429
  452MOL0     C60932   6.125   6.409   3.805 -0.2339  0.0634 -0.9195
  452MOL0     O60933   6.300   6.313   3.571  0.0647  0.3319 -0.3612
  452MOL0     C60934   6.633   6.353   3.719  0.8154 -1.1422  0.4271
  452MOL0     C60935   6.768   6.371   3.690  0.0197  0.4863  0.3284
  452MOL0     N60936   7.498   6.509   3.604  0.3473  0.2086 -0.1341
  452MOL0     N60937   7.615   6.489   3.541 -0.5400 -0.5206 -1.2013
  452MOL0     C60938   8.782   6.989   2.919  0.4226 -0.3553  0.3066
  452MOL0     C60939   8.879   7.095   2.923  0.2348  0.5704 -0.6966
  452MOL0     C60940   9.142   7.433   3.134  0.5422  0.0896 -0.2806
  452MOL0     C60941   9.219   7.457   3.249  0.6696  0.6351  0.2972
  452MOL0     C60942   9.331   7.544   3.261  0.3846 -1.0107  0.5303
  452MOL0     C60943   9.359   7.624   3.146  0.4240  0.5909 -0.3988
  452MOL0     O60944   9.465   7.709   3.131 -0.3450  0.0987 -0.4085
  452MOL0     C60945   9.554   7.736   3.247  0.6218  0.7001 -0.2489
  452MOL0     C60946   9.693   7.781   3.195  0.3344  0.1828 -0.6182
  452MOL0     C60947   9.792   7.661   3.161  0.2404  0.6089  0.2159
  452MOL0     C60948   9.739   7.556   3.060  0.8223 -0.5967 -0.0958
  452MOL0     C60949   9.844   7.482   2.997 -0.1439 -0.3364 -1.0510
  452MOL0     C60950   9.923   7.411   2.943  0.6019 -0.0011 -0.3117
  452MOL0     C60951   9.287   7.595   3.028  0.0568  0.2057 -0.4461
  452MOL0     C60952   9.177   7.511   3.027  0.3328  0.3238 -0.0052
  452MOL0     H60953   8.757   7.301   3.159 -0.8249  0.6651 -0.6251
  452MOL0     H60954   8.559   7.126   3.139 -0.1974 -1.2899  1.3708
  452MOL0     H60955   8.479   6.923   3.192  2.7808 -0.7871  0.5311
  452MOL0     H60956   8.416   7.003   3.040 -2.4207  0.9508  3.3556
  452MOL0     H60957   8.352   6.796   2.946  0.1842 -0.6151  0.0524
  452MOL0     H60958   8.399   6.713   3.104 -2.2228 -1.7793 -0.4122
  452MOL0     H60959   8.264   6.873   3.219  1.8927 -0.4736 -0.0258
  452MOL0     H60960   8.186   6.911   3.062  3.3124 -0.7967 -2.2127
  452MOL0     H60961   8.124   6.650   3.048 -1.7471  0.5980 -1.1020
  452MOL0     H60962   8.206   6.646   3.199  0.0998 -2.6674 -1.5203
  452MOL0     H60963   8.045   6.801   3.304 -1.2354  3.0994 -1.5416
  452MOL0     H60964   7.956   6.808   3.146  2.2604 -2.0559 -4.7413
  452MOL0     H60965   7.931   6.569   3.139 -1.1022  1.5798 -0.1911
  452MOL0     H60966   7.979   6.560   3.308  2.0486 -0.0556 -1.1237
  452MOL0     H60967   7.788   6.722   3.367  0.0395 -2.3809  0.4524
  452MOL0     H60968   7.740   6.705   3.187  1.6502  0.6972 -0.8676
  452MOL0     H60969   7.786   6.456   3.339 -1.4338 -1.1462 -0.4293
  452MOL0     H60970   7.657   6.500   3.220 -2.8802  0.5439  1.9737
  452MOL0     H60971   7.456   6.632   3.298 -1.1703  0.5253  0.3310
  452MOL0     H60972   7.266   6.675   3.626  1.2416  0.9951 -0.3064
  452MOL0     H60973   7.275   6.707   3.451  3.1069  1.6609  1.0825
  452MOL0     H60974   7.200   6.441   3.436 -4.0898 -0.8551  0.0959
  452MOL0     H60975   7.080   6.571   3.480 -1.3158 -1.7332 -1.3925
  452MOL0     H60976   7.115   6.505   3.720 -2.1360  3.2127 -1.8833
  452MOL0     H60977   7.252   6.417   3.673  0.3839 -1.2570 -1.3447
  452MOL0     H60978   7.025   6.289   3.711  0.9624 -0.3357  0.3692
  452MOL0     H60979   7.111   6.242   3.566  0.9803  0.9833 -0.4210
  452MOL0     H60980   6.774   6.294   3.369  2.2075  3.3173  0.9957
  452MOL0     H60981   6.561   6.216   3.299 -0.0132  2.1986  0.1840
  452MOL0     H60982   6.431   6.173   3.419 -3.1142  0.5942 -1.4365
  452MOL0     H60983   6.442   6.333   3.346 -1.2242 -1.2045 -0.1459
  452MOL0     H60984   6.343   6.304   4.046 -2.1226 -5.2476  0.3533
  452MOL0     H60985   6.142   6.361   4.199  1.8008 -1.3676  0.4477
  452MOL0     H60986   5.781   6.551   3.983 -0.7748 -1.2357 -1.3624
  452MOL0     H60987   5.776   6.385   4.005  2.2520  0.5702 -1.7436
  452MOL0     H60988   5.673   6.392   4.230 -0.8280  1.2709  0.9978
  452MOL0     H60989   5.745   6.554   4.252  3.3634  0.4735 -3.2963
  452MOL0     H60990   5.525   6.499   4.036  0.4703 -1.0971  0.1465
  452MOL0     H60991   5.605   6.647   4.089 -1.6147  0.3325 -1.7249
  452MOL0     H60992   5.449   6.462   4.269  2.4983 -0.3442  0.2180
  452MOL0     H60993   5.489   6.635   4.302  0.7064 -0.7746  1.2011
  452MOL0     H60994   5.320   6.698   4.118 -1.8726 -0.1945 -1.3661
  452MOL0     H60995   5.244   6.617   4.256 -0.5009 -0.4785 -1.2859
  452MOL0     H60996   5.315   6.500   3.985 -0.1956 -1.3869 -0.1212
  452MOL0     H60997   5.259   6.395   4.109  0.6769 -1.2590 -3.3657
  452MOL0     H60998   5.116   6.650   4.006  1.5290 -2.4889 -4.6422
  452MOL0     H60999   5.062   6.566   4.150  0.6159  0.9103 -0.0515
  452MOL0     H61000   5.030   6.369   4.017  0.0509 -0.3020 -0.2944
  452MOL0     H61001   5.081   6.444   3.863  0.1206 -0.0382 -0.1540
  452MOL0     H61002   5.934   6.478   3.847  1.4711  1.9986 -2.7514
  452MOL0     H61003   6.112   6.439   3.701 -0.4747  0.7972 -0.6843
  452MOL0     H61004   6.606   6.377   3.821  3.1636 -0.5694  0.9933
  452MOL0     H61005   6.830   6.398   3.776  1.1164  0.6145 -0.4847
  452MOL0     H61006   8.789   6.904   2.852 -0.1869 -0.4361  0.3424
  452MOL0     H61007   8.967   7.095   2.859  2.7109  2.4249  2.4153
  452MOL0     H61008   9.182   7.420   3.344  0.8454  1.6404  0.7664
  452MOL0     H61009   9.361   7.596   3.352 -1.0783 -1.7897  1.5101
  452MOL0     H61010   9.519   7.806   3.324  0.9446  2.9598 -2.0704
  452MOL0     H61011   9.571   7.644   3.305  0.4212  0.2518 -0.8911
  452MOL0     H61012   9.749   7.842   3.267  0.7459 -1.1202  0.2008
  452MOL0     H61013   9.679   7.852   3.113  1.4220 -0.6292 -1.5483
  452MOL0     H61014   9.820   7.603   3.250 -0.1592  1.6416  1.0376
  452MOL0     H61015   9.884   7.705   3.121  0.2089 -1.6831 -2.6216
  452MOL0     H61016   9.674   7.598   2.982  0.9128  0.0530  0.1704
  452MOL0     H61017   9.679   7.484   3.116  1.8486 -1.0452  0.4489
  452MOL0     H61018   9.976   7.339   2.884 -0.5784 -1.3191  0.1621
  452MOL0     H61019   9.309   7.644   2.933 -3.5031  1.0363 -1.0054
  452MOL0     H61020   9.121   7.499   2.935  0.1967 -2.7240  0.3806
  453MOL0     O61021   0.866   5.500   5.987 -0.2531 -0.3037  0.6158
  453MOL0     C61022   0.892   5.480   6.109 -0.5861 -0.4021  0.8515
  453MOL0     O61023   0.801   5.495   6.209  0.2101 -0.4137 -0.2910
  453MOL0     C61024   0.675   5.528   6.179  0.1058 -0.0295  0.9022
  453MOL0     C61025   0.604   5.448   6.090  1.2931 -0.0610  0.0755
  453MOL0     C61026   0.469   5.485   6.063  0.4579 -1.2940  1.3384
  453MOL0     C61027   0.422   5.609   6.115  0.2942  0.7499  0.1720
  453MOL0     O61028   0.289   5.650   6.112 -0.5110 -0.3517  0.4679
  453MOL0     C61029   0.209   5.585   6.023  0.8578  0.4816  0.3589
  453MOL0     C61030   0.048   5.600   6.035 -0.3732 -0.1487 -0.4254
  453MOL0     C61031   0.022   5.746   6.059  0.4861 -0.5693  0.8391
  453MOL0     C61032  -0.122   5.788   6.023 -0.8815 -0.9462 -1.0600
  453MOL0     C61033  -0.141   5.803   5.876  0.5394 -0.3833  0.7172
  453MOL0     C61034  -0.282   5.862   5.845 -0.1690  0.1300  0.1489
  453MOL0     C61035  -0.304   5.870   5.692  0.0786  0.7721 -0.4085
  453MOL0     C61036  -0.244   5.993   5.634 -0.6640 -0.3738  0.0261
  453MOL0     N61037  -0.292   6.121   5.673 -0.1892 -0.0090 -1.3550
  453MOL0     C61038  -0.349   6.220   5.597 -0.2201 -0.2477  0.3115
  453MOL0     C61039  -0.403   6.314   5.681  0.7918 -1.1313 -0.7978
  453MOL0     C61040  -0.469   6.449   5.652  0.0196 -0.5470  0.2883
  453MOL0     C61041  -0.574   6.417   5.551 -0.0332  0.5600  0.1416
  453MOL0     C61042  -0.651   6.551   5.523  0.9234  0.3812  0.3335
  453MOL0     C61043  -0.777   6.517   5.449  0.8941  0.3747 -0.0518
  453MOL0     O61044  -0.852   6.629   5.404 -0.0714 -0.2105  0.3127
  453MOL0     C61045  -0.966   6.596   5.338 -0.5199  0.4458  0.9811
  453MOL0     C61046  -1.010   6.462   5.312  0.7849 -0.4108 -0.9082
  453MOL0     C61047  -1.139   6.434   5.263 -0.3915  0.2838  0.7510
  453MOL0     C61048  -1.179   6.296   5.236 -0.8013  0.8536 -0.6596
  453MOL0     C61049  -1.221   6.550   5.226  0.5158  0.8657  0.2449
  453MOL0     C61050  -1.362   6.534   5.175 -0.0438 -0.2814  0.1207
  453MOL0     O61051  -1.446   6.634   5.224  0.0413  0.1429  0.6789
  453MOL0     C61052  -1.580   6.631   5.208 -0.1401  1.3804  0.4155
  453MOL0     C61053  -1.655   6.509   5.223  0.3532 -0.7357  0.2592
  453MOL0     C61054  -1.790   6.498   5.196  0.9329 -0.1332  0.6048
  453MOL0     C61055  -1.861   6.605   5.146  0.6671 -0.4348 -0.4541
  453MOL0     O61056  -2.001   6.603   5.137  0.4273  0.8407  0.0155
  453MOL0     C61057  -2.071   6.477   5.124 -0.2654 -0.9157  0.6658
  453MOL0     C61058  -2.150   6.474   5.258  0.8541 -0.6808  0.9569
  453MOL0     C61059  -2.250   6.581   5.264  0.8473 -0.6293 -0.2335
  453MOL0     C61060  -2.338   6.589   5.399 -0.0667  0.1595  0.5841
  453MOL0     C61061  -2.262   6.660   5.510 -0.9903 -0.5047 -1.2585
  453MOL0     C61062  -2.308   6.632   5.662 -0.5017  0.0037  0.2056
  453MOL0     C61063  -2.427   6.720   5.705  0.0103 -0.4035  0.4299
  453MOL0     C61064  -2.458   6.703   5.854  0.5415 -0.3896  0.1054
  453MOL0    Cl61065  -2.626   6.736   5.876  0.4481  0.4515 -0.0020
  453MOL0     C61066  -1.796   6.728   5.141  0.0829 -1.3707 -0.5740
  453MOL0     C61067  -1.658   6.733   5.162  0.1354  0.0833  0.3547
  453MOL0     O61068  -1.388   6.457   5.083 -0.1390 -0.5376  0.1014
  453MOL0     C61069  -1.176   6.681   5.251  0.4584 -0.3317  0.3870
  453MOL0     C61070  -1.047   6.706   5.297  0.3656  0.1501 -0.1815
  453MOL0     N61071  -0.350   6.286   5.806  0.1892 -0.1272 -0.1307
  453MOL0     N61072  -0.278   6.174   5.794 -0.5866 -1.0096  0.3480
  453MOL0     C61073   0.497   5.692   6.195  1.0421  0.0454  0.2902
  453MOL0     C61074   0.626   5.656   6.223 -0.1323 -0.9872  0.5197
  453MOL0     C61075   1.030   5.445   6.156 -0.9753 -0.2789  0.5174
  453MOL0     C61076   1.146   5.438   6.071  0.0260  0.5117 -0.1990
  453MOL0     C61077   1.267   5.400   6.117  0.7530  0.3003 -0.3389
  453MOL0     C61078   1.288   5.366   6.253 -0.2649 -1.0190  0.5871
  453MOL0     O61079   1.419   5.355   6.284  0.0046  0.1953 -0.0952
  453MOL0     C61080   1.461   5.323   6.418 -0.2440 -1.0233  0.1613
  453MOL0     C61081   1.602   5.273   6.425  0.1528 -0.6243 -0.7599
  453MOL0     C61082   1.618   5.160   6.340  0.6872  0.5925 -0.1937
  453MOL0     C61083   1.761   5.109   6.325 -0.6252 -0.6631 -0.1728
  453MOL0     C61084   1.773   4.990   6.246  0.7856 -0.4680 -0.6134
  453MOL0     C61085   1.788   4.902   6.167 -0.0450  0.3099 -0.6746
  453MOL0     C61086   1.180   5.372   6.340 -0.5768  1.2746 -0.3892
  453MOL0     C61087   1.050   5.410   6.285 -0.3661  0.2451  0.3800
  453MOL0     H61088   0.645   5.358   6.047  3.2614  1.6156 -1.7917
  453MOL0     H61089   0.413   5.416   6.001 -1.8128  0.5013  1.2656
  453MOL0     H61090   0.240   5.601   5.919  1.9167 -1.0193  0.4034
  453MOL0     H61091   0.221   5.477   6.037 -0.8008  0.0941 -0.9516
  453MOL0     H61092   0.003   5.561   5.943  2.6156 -3.0031 -0.8605
  453MOL0     H61093   0.009   5.547   6.123  3.0356  1.1424  2.0928
  453MOL0     H61094   0.039   5.768   6.164  2.6849 -0.0648  0.4441
  453MOL0     H61095   0.102   5.800   6.007  0.5840 -1.4471  0.0301
  453MOL0     H61096  -0.189   5.716   6.071  1.7242 -1.3825  2.3437
  453MOL0     H61097  -0.134   5.887   6.068  0.1042 -2.6785  3.5554
  453MOL0     H61098  -0.061   5.864   5.834  1.4774 -2.5133 -0.7297
  453MOL0     H61099  -0.130   5.706   5.827 -1.5558 -0.7740  0.9119
  453MOL0     H61100  -0.352   5.788   5.884  1.7888 -1.7078  0.3966
  453MOL0     H61101  -0.315   5.953   5.895  0.6954  0.5016  0.0647
  453MOL0     H61102  -0.264   5.781   5.644 -2.0490 -0.6797  0.3931
  453MOL0     H61103  -0.412   5.886   5.680 -1.2271 -1.3241  5.2942
  453MOL0     H61104  -0.237   5.986   5.525  0.4719  0.0928  0.0501
  453MOL0     H61105  -0.142   5.981   5.673 -1.2750 -1.8651  1.2742
  453MOL0     H61106  -0.365   6.208   5.490 -0.5693 -0.6279  0.4035
  453MOL0     H61107  -0.510   6.493   5.743  1.5863  0.3356  0.6062
  453MOL0     H61108  -0.395   6.523   5.620 -0.2535 -0.5393 -0.3441
  453MOL0     H61109  -0.639   6.339   5.594  2.2163 -0.6394  1.5678
  453MOL0     H61110  -0.528   6.377   5.460 -1.6727 -2.9032  0.6380
  453MOL0     H61111  -0.583   6.609   5.460  1.3544 -0.9848 -0.5069
  453MOL0     H61112  -0.672   6.599   5.619 -0.4780 -0.5931  0.5574
  453MOL0     H61113  -0.842   6.460   5.516  0.8182 -0.6757 -1.0080
  453MOL0     H61114  -0.744   6.467   5.358  2.3827  0.1086  0.6189
  453MOL0     H61115  -0.943   6.379   5.332 -0.3331 -1.2351 -0.4787
  453MOL0     H61116  -1.114   6.236   5.299  0.0711 -0.6540 -2.9034
  453MOL0     H61117  -1.281   6.278   5.272  0.1026 -0.4988  1.4451
  453MOL0     H61118  -1.172   6.262   5.133 -0.4948 -0.8770 -0.0920
  453MOL0     H61119  -1.608   6.420   5.263  2.9364  0.2104 -0.4723
  453MOL0     H61120  -1.839   6.403   5.215  1.2683 -0.6470 -0.9198
  453MOL0     H61121  -2.133   6.490   5.035 -1.7674  2.0898  1.9817
  453MOL0     H61122  -2.001   6.395   5.105 -0.0576 -0.7478  0.6943
  453MOL0     H61123  -2.203   6.379   5.262  1.9560 -1.3961 -0.4317
  453MOL0     H61124  -2.066   6.484   5.327  2.4942  2.4869 -1.1991
  453MOL0     H61125  -2.325   6.544   5.193  2.2848 -3.0265 -0.5979
  453MOL0     H61126  -2.206   6.680   5.248 -1.5736  0.4150 -0.8736
  453MOL0     H61127  -2.427   6.651   5.390 -0.0568  0.1406  0.3498
  453MOL0     H61128  -2.372   6.488   5.426 -0.1028  0.3288  1.1933
  453MOL0     H61129  -2.265   6.766   5.485 -1.0042 -0.3935 -0.7974
  453MOL0     H61130  -2.156   6.635   5.498 -1.6608 -2.5359 -3.8754
  453MOL0     H61131  -2.323   6.523   5.669  1.8294 -0.2653  2.6734
  453MOL0     H61132  -2.222   6.650   5.726 -0.5054  0.7720 -0.0019
  453MOL0     H61133  -2.515   6.694   5.646  0.5850  0.6287 -0.9454
  453MOL0     H61134  -2.411   6.826   5.682  2.9223 -1.1327 -1.5701
  453MOL0     H61135  -2.390   6.763   5.914  0.7938 -0.8918  0.3290
  453MOL0     H61136  -2.442   6.599   5.885  1.3165  0.5156  3.0089
  453MOL0     H61137  -1.849   6.820   5.120  2.4274  0.3104  0.3754
  453MOL0     H61138  -1.614   6.831   5.160  1.8021 -0.6525 -0.9351
  453MOL0     H61139  -1.235   6.766   5.217 -0.9815 -2.0741 -1.7176
  453MOL0     H61140  -1.003   6.804   5.307 -1.0368  0.8770 -0.7826
  453MOL0     H61141   0.458   5.784   6.237 -1.9444  0.1156 -2.2476
  453MOL0     H61142   0.687   5.715   6.290  0.5412 -0.8626 -0.1856
  453MOL0     H61143   1.127   5.470   5.968 -0.0618 -0.2712 -0.4305
  453MOL0     H61144   1.349   5.391   6.046  1.4123 -2.4300  0.6320
  453MOL0     H61145   1.450   5.413   6.480  1.8792  0.1237 -1.0096
  453MOL0     H61146   1.397   5.242   6.455 -0.8311 -0.1796  1.0530
  453MOL0     H61147   1.611   5.237   6.528  0.1757  0.3516 -0.4063
  453MOL0     H61148   1.670   5.359   6.417 -0.3122  0.0275  1.3703
  453MOL0     H61149   1.585   5.198   6.243  2.5466  2.5613 -0.1237
  453MOL0     H61150   1.560   5.074   6.375 -0.7787  3.0035  4.1153
  453MOL0     H61151   1.798   5.093   6.426 -2.9775  1.2113  1.0867
  453MOL0     H61152   1.829   5.188   6.290  1.7734 -2.5309  0.0241
  453MOL0     H61153   1.807   4.816   6.106  2.6573  2.1620 -2.6366
  453MOL0     H61154   1.191   5.335   6.441  4.1515  1.1138 -0.7464
  453MOL0     H61155   0.966   5.406   6.354 -2.3886  0.8241 -1.9135
  454MOL0     O61156   8.951   8.333   1.974  0.4049  0.7039  0.3236
  454MOL0     C61157   9.009   8.233   1.923 -0.3006  0.1430 -1.2182
  454MOL0     O61158   9.012   8.113   1.985 -0.3670 -0.5260  0.3268
  454MOL0     C61159   8.929   8.124   2.090 -0.3212 -0.7832  0.1013
  454MOL0     C61160   8.805   8.074   2.083 -0.0539  0.3039  0.1122
  454MOL0     C61161   8.717   8.070   2.199 -0.4516 -0.2551 -0.1234
  454MOL0     C61162   8.760   8.110   2.328 -0.2087 -1.3100  0.5049
  454MOL0     O61163   8.686   8.126   2.435 -0.1558  0.0892 -0.6060
  454MOL0     C61164   8.605   8.021   2.473  0.0826 -0.8894 -0.3653
  454MOL0     C61165   8.518   8.086   2.583 -0.6051 -0.8788 -0.2886
  454MOL0     C61166   8.380   8.124   2.536  0.1503  0.0807  0.0546
  454MOL0     C61167   8.284   8.000   2.519  0.7091 -0.1924 -0.6415
  454MOL0     C61168   8.147   8.035   2.442 -0.7893 -0.6471  0.0518
  454MOL0     C61169   8.179   8.123   2.310  0.9690  0.6187 -0.2865
  454MOL0     C61170   8.069   8.089   2.215  0.4175 -0.4569  0.5227
  454MOL0     C61171   8.056   8.175   2.080 -1.2742 -0.0551 -0.0494
  454MOL0     N61172   8.052   8.316   2.120  0.0786  0.8941 -0.1883
  454MOL0     C61173   7.952   8.376   2.201  0.3094  0.0663 -0.8078
  454MOL0     C61174   7.985   8.506   2.204 -0.1664 -0.5537 -0.6867
  454MOL0     C61175   7.935   8.618   2.287 -0.1602  0.7522  0.4908
  454MOL0     C61176   7.817   8.685   2.220  0.0402 -1.1387 -0.6409
  454MOL0     C61177   7.739   8.781   2.304  0.8105 -0.5579  0.6036
  454MOL0     C61178   7.635   8.853   2.218  0.6136  0.7588  1.5010
  454MOL0     O61179   7.555   8.943   2.289  0.1717 -0.1617 -0.3590
  454MOL0     C61180   7.444   9.008   2.246 -0.8341  1.0055 -0.3667
  454MOL0     C61181   7.379   9.092   2.335 -0.1598 -1.2664  0.7091
  454MOL0     C61182   7.265   9.168   2.287 -0.0306  0.2998  0.4091
  454MOL0     C61183   7.199   9.268   2.383 -0.1318 -0.0526  0.1873
  454MOL0     C61184   7.208   9.142   2.160  0.4720  0.6145 -0.0528
  454MOL0     C61185   7.086   9.208   2.115  0.3787 -0.0735 -0.1130
  454MOL0     O61186   6.992   9.216   2.212  0.4920 -0.2635 -0.1376
  454MOL0     C61187   6.874   9.292   2.206 -0.6070 -0.4953  1.3756
  454MOL0     C61188   6.771   9.269   2.116  0.9030  0.7033 -0.2267
  454MOL0     C61189   6.651   9.343   2.112 -0.0603  0.1527 -0.6324
  454MOL0     C61190   6.623   9.440   2.208 -0.3943  0.2830  0.2232
  454MOL0     O61191   6.494   9.497   2.213 -0.3842  0.0412 -0.7475
  454MOL0     C61192   6.487   9.639   2.243  0.3499  0.2530 -0.8936
  454MOL0     C61193   6.554   9.737   2.144 -0.1890  0.3186  0.2562
  454MOL0     C61194   6.580   9.870   2.208  0.3758 -0.0648  0.3481
  454MOL0     C61195   6.629   9.972   2.110 -0.0484  0.1693  0.8438
  454MOL0     C61196   6.651  10.115   2.161 -0.4152 -0.5164  0.3125
  454MOL0     C61197   6.665  10.222   2.052  0.1909  0.3927 -0.4419
  454MOL0     C61198   6.662  10.364   2.110 -0.6106 -0.0482  0.0705
  454MOL0     C61199   6.694  10.469   1.983 -0.3790 -0.2227 -0.4445
  454MOL0    Cl61200   6.578  10.443   1.835 -0.1489 -0.6832 -0.6415
  454MOL0     C61201   6.730   9.474   2.296  0.5739  0.4809  0.0617
  454MOL0     C61202   6.851   9.396   2.299 -0.3639 -0.4849  0.5309
  454MOL0     O61203   7.080   9.252   2.000  0.3911 -0.4742 -0.4904
  454MOL0     C61204   7.282   9.054   2.078  0.6151 -0.0323  0.6963
  454MOL0     C61205   7.398   8.989   2.120 -0.4512 -0.5370  0.1352
  454MOL0     N61206   8.107   8.516   2.141  0.2782 -0.5643  0.5628
  454MOL0     N61207   8.146   8.403   2.081  0.2414 -0.9068 -0.2620
  454MOL0     C61208   8.886   8.171   2.332 -0.6144  0.0907 -0.3292
  454MOL0     C61209   8.972   8.167   2.218  0.0365 -0.7141 -0.2816
  454MOL0     C61210   9.063   8.237   1.797 -0.1852 -0.7589 -0.2023
  454MOL0     C61211   9.082   8.361   1.741  0.4507  0.3790  0.0568
  454MOL0     C61212   9.136   8.362   1.609 -1.0707  0.4455 -1.2422
  454MOL0     C61213   9.193   8.251   1.546  0.6113  1.0427  0.3394
  454MOL0     O61214   9.253   8.267   1.425 -0.1919 -0.1278  0.1021
  454MOL0     C61215   9.295   8.153   1.354  0.2607 -0.7231  0.4676
  454MOL0     C61216   9.335   8.212   1.212  0.5750 -0.2066 -0.5656
  454MOL0     C61217   9.470   8.281   1.223 -0.1780 -0.6917 -0.7114
  454MOL0     C61218   9.589   8.196   1.228 -0.1872 -0.4777  0.7217
  454MOL0     C61219   9.709   8.256   1.297 -0.2773 -0.8746 -0.8312
  454MOL0     C61220   9.818   8.275   1.355 -0.1245 -0.3205  0.2052
  454MOL0     C61221   9.170   8.130   1.610 -0.2803  0.2829 -0.5957
  454MOL0     C61222   9.108   8.121   1.731 -0.4463  0.0678 -0.1741
  454MOL0     H61223   8.764   8.037   1.990  0.0160 -3.4813  1.3998
  454MOL0     H61224   8.613   8.046   2.181 -0.8175  1.0049  0.1927
  454MOL0     H61225   8.533   7.988   2.398 -1.3867  0.9862  0.1582
  454MOL0     H61226   8.663   7.930   2.492  2.3898  0.1592 -1.9271
  454MOL0     H61227   8.522   8.003   2.654  0.0830 -0.2266  0.4619
  454MOL0     H61228   8.573   8.168   2.631 -1.8865 -0.9531  1.4158
  454MOL0     H61229   8.334   8.185   2.615 -0.0837 -0.3943  0.2880
  454MOL0     H61230   8.394   8.183   2.445  3.9478  0.2602  0.6196
  454MOL0     H61231   8.331   7.927   2.451  1.3916  0.4293 -0.8455
  454MOL0     H61232   8.269   7.957   2.618  1.9765  2.9305  1.0244
  454MOL0     H61233   8.094   7.944   2.412 -2.5597  0.0034  1.0634
  454MOL0     H61234   8.079   8.093   2.505  0.7910  1.3945 -0.0050
  454MOL0     H61235   8.173   8.227   2.342 -0.2644  0.1644  1.0576
  454MOL0     H61236   8.277   8.108   2.264  2.9938  2.2306  3.1203
  454MOL0     H61237   8.083   7.984   2.190  2.3532 -0.3445  1.0181
  454MOL0     H61238   7.970   8.085   2.262  0.7707 -0.5836  1.2587
  454MOL0     H61239   7.972   8.142   2.019  0.3925  1.1665 -3.2200
  454MOL0     H61240   8.147   8.154   2.023 -0.0326  0.3926  1.6926
  454MOL0     H61241   7.880   8.326   2.265  2.1252  0.5266  1.7511
  454MOL0     H61242   7.885   8.571   2.372  0.5111  1.6532  1.4011
  454MOL0     H61243   8.007   8.690   2.325 -0.5468  1.1701  0.4415
  454MOL0     H61244   7.739   8.617   2.184 -2.8549  2.5503 -1.9635
  454MOL0     H61245   7.857   8.731   2.129 -1.9333 -0.2659 -1.1051
  454MOL0     H61246   7.803   8.856   2.351  1.2803 -0.9472  0.5895
  454MOL0     H61247   7.696   8.724   2.388  0.5528  1.4909  1.9324
  454MOL0     H61248   7.574   8.777   2.169  2.1490 -0.8323  1.9665
  454MOL0     H61249   7.681   8.912   2.139  0.9272 -1.1917  0.1686
  454MOL0     H61250   7.419   9.103   2.435  0.4769 -1.8237  0.5243
  454MOL0     H61251   7.144   9.217   2.462 -1.0737 -1.3291 -1.2452
  454MOL0     H61252   7.286   9.318   2.428  1.0099  0.4136 -2.3381
  454MOL0     H61253   7.140   9.346   2.333 -2.3994 -2.0826 -0.4791
  454MOL0     H61254   6.773   9.184   2.049 -0.4793 -1.9291  2.8170
  454MOL0     H61255   6.570   9.312   2.046  1.0055  0.9387 -2.3536
  454MOL0     H61256   6.379   9.655   2.248  0.0385 -1.9461  1.5479
  454MOL0     H61257   6.531   9.668   2.339 -0.6124  3.7876 -1.3918
  454MOL0     H61258   6.646   9.686   2.114 -0.0105  1.1537 -0.6709
  454MOL0     H61259   6.487   9.730   2.057 -1.7231  0.4618  1.3741
  454MOL0     H61260   6.642   9.869   2.299  0.7931  1.4559  0.1105
  454MOL0     H61261   6.488   9.916   2.244 -0.4706  0.0152 -1.7982
  454MOL0     H61262   6.726   9.942   2.069 -0.1518  0.1158  0.6345
  454MOL0     H61263   6.561   9.976   2.024  2.3506  1.3824 -1.1563
  454MOL0     H61264   6.732  10.109   2.235  0.7755  0.2486 -0.8940
  454MOL0     H61265   6.560  10.148   2.212 -1.0323  1.8230 -2.0736
  454MOL0     H61266   6.765  10.212   2.009 -0.0464 -4.2088 -0.3691
  454MOL0     H61267   6.588  10.213   1.975 -0.0578 -2.4346  0.0389
  454MOL0     H61268   6.748  10.373   2.177  0.2074  2.5583 -1.1895
  454MOL0     H61269   6.566  10.394   2.153 -1.8511 -1.5742 -1.4775
  454MOL0     H61270   6.798  10.456   1.950  0.3005 -2.0558  2.0863
  454MOL0     H61271   6.693  10.570   2.024 -4.5242 -0.0929 -0.4870
  454MOL0     H61272   6.700   9.535   2.380  0.0180  0.6989 -0.2941
  454MOL0     H61273   6.933   9.407   2.370 -1.1249 -3.8465  2.1093
  454MOL0     H61274   7.238   9.031   1.982  1.0419  2.4021 -0.1404
  454MOL0     H61275   7.464   8.933   2.054 -0.2162 -0.5117  0.3460
  454MOL0     H61276   8.920   8.216   2.425  3.8940 -2.2923 -0.5793
  454MOL0     H61277   9.073   8.201   2.237 -1.0138  0.9624  3.0720
  454MOL0     H61278   9.043   8.448   1.795  0.6833  0.5058  0.0221
  454MOL0     H61279   9.126   8.448   1.543 -1.0451  0.8016 -0.7824
  454MOL0     H61280   9.381   8.097   1.392  2.4275  0.1014 -2.7795
  454MOL0     H61281   9.206   8.090   1.344  0.1883 -0.4765 -0.5665
  454MOL0     H61282   9.258   8.286   1.187 -1.2459 -2.2080 -1.1364
  454MOL0     H61283   9.327   8.144   1.126 -0.6739  1.6382 -2.0022
  454MOL0     H61284   9.468   8.338   1.316  1.8802 -0.1975 -0.9100
  454MOL0     H61285   9.480   8.348   1.138  3.5116 -2.5735 -2.0131
  454MOL0     H61286   9.612   8.172   1.124  0.5319  0.2027  0.7205
  454MOL0     H61287   9.556   8.104   1.279 -6.5584  0.7631 -0.2735
  454MOL0     H61288   9.911   8.287   1.408  0.6275 -1.5209 -0.7800
  454MOL0     H61289   9.226   8.040   1.586  2.5261  0.8810  2.8381
  454MOL0     H61290   9.092   8.027   1.784 -0.3462  0.4534  0.5608
  455MOL0     O61291   0.397   7.104   3.670  0.3329 -0.1745  0.3567
  455MOL0     C61292   0.459   7.094   3.568  0.4633 -1.2445  0.6022
  455MOL0     O61293   0.441   7.007   3.463 -0.7734  0.1851  0.0383
  455MOL0     C61294   0.349   6.893   3.468 -0.1455 -0.4477 -0.5108
  455MOL0     C61295   0.304   6.826   3.587  0.2283  0.5342 -0.7663
  455MOL0     C61296   0.229   6.710   3.590  0.4315  0.0236 -0.1771
  455MOL0     C61297   0.178   6.660   3.471 -0.2692  0.2015 -0.1919
  455MOL0     O61298   0.089   6.545   3.483  0.0807  0.0992  1.1231
  455MOL0     C61299   0.056   6.477   3.360 -0.6812 -0.2429  0.4517
  455MOL0     C61300  -0.060   6.391   3.389 -0.1088  0.0304  0.1574
  455MOL0     C61301  -0.086   6.301   3.256  0.1548  0.8443  0.1672
  455MOL0     C61302   0.000   6.177   3.255  0.0918  0.0868 -1.1729
  455MOL0     C61303  -0.041   6.067   3.169  0.2837  1.2038  0.6720
  455MOL0     C61304   0.037   5.932   3.175  0.1576  0.3171  0.0541
  455MOL0     C61305  -0.014   5.826   3.079  1.1504  0.2248  0.2361
  455MOL0     C61306  -0.147   5.763   3.136 -1.2374 -0.2827 -0.4673
  455MOL0     N61307  -0.110   5.642   3.216 -0.2522 -0.1377  0.1941
  455MOL0     C61308  -0.049   5.633   3.340 -0.5474  0.1840  0.2993
  455MOL0     C61309  -0.080   5.510   3.391  0.3795 -0.0298  0.7372
  455MOL0     C61310  -0.037   5.453   3.518 -0.5600  0.3281 -0.5098
  455MOL0     C61311   0.105   5.392   3.505 -0.7584  0.1925  0.0996
  455MOL0     C61312   0.108   5.262   3.420  0.6446 -0.2065 -0.6261
  455MOL0     C61313   0.245   5.190   3.409  0.0539 -1.1128  0.5746
  455MOL0     O61314   0.224   5.070   3.334 -0.6870  0.4055  0.3640
  455MOL0     C61315   0.330   5.021   3.265 -0.4895 -0.9401  0.2351
  455MOL0     C61316   0.302   4.903   3.182 -0.8306 -0.0494  0.0753
  455MOL0     C61317   0.404   4.837   3.104 -0.4890 -0.5399 -0.3224
  455MOL0     C61318   0.354   4.711   3.022 -0.0483 -0.7042 -0.4135
  455MOL0     C61319   0.534   4.895   3.107  0.0081  0.0727  0.0810
  455MOL0     C61320   0.648   4.853   3.024 -0.2162 -0.5578 -1.2406
  455MOL0     O61321   0.744   4.949   2.992 -0.2436 -0.4836  0.4836
  455MOL0     C61322   0.869   4.921   2.934 -0.5854 -0.0214  0.4103
  455MOL0     C61323   0.975   5.003   2.969 -0.0480  0.4968  0.4844
  455MOL0     C61324   1.110   4.969   2.950 -0.6246 -0.4997  0.1957
  455MOL0     C61325   1.137   4.846   2.886 -0.1229 -0.6525 -0.5824
  455MOL0     O61326   1.262   4.783   2.880 -0.0137  0.0402 -0.3468
  455MOL0     C61327   1.380   4.868   2.883  0.4239  0.6402  0.0621
  455MOL0     C61328   1.506   4.790   2.836  0.0312  1.0644  0.4235
  455MOL0     C61329   1.631   4.885   2.833 -0.5810  0.2728 -0.4644
  455MOL0     C61330   1.748   4.834   2.904 -0.2392  0.3931 -0.4527
  455MOL0     C61331   1.870   4.932   2.888 -0.9221  0.0183  0.3583
  455MOL0     C61332   2.005   4.892   2.929 -0.0755 -0.2311 -0.5058
  455MOL0     C61333   2.013   4.859   3.075  0.3911 -0.3135 -0.3463
  455MOL0     C61334   2.159   4.834   3.111  0.2479  0.6443 -0.2533
  455MOL0    Cl61335   2.176   4.784   3.285 -0.3691 -0.0155  0.8372
  455MOL0     C61336   1.028   4.766   2.843 -0.2781 -0.0948 -0.1515
  455MOL0     C61337   0.899   4.808   2.869  0.2395  0.8567  0.6169
  455MOL0     O61338   0.636   4.743   2.980  0.3156 -0.7921 -0.3637
  455MOL0     C61339   0.560   5.010   3.189  0.8447  0.4478  0.1445
  455MOL0     C61340   0.461   5.079   3.263  0.6585 -0.4894 -0.6222
  455MOL0     N61341  -0.145   5.440   3.284 -0.0926 -0.0177 -0.7115
  455MOL0     N61342  -0.157   5.519   3.184  1.0904  0.0962 -0.5989
  455MOL0     C61343   0.219   6.724   3.357 -0.4203  0.3634  0.2659
  455MOL0     C61344   0.310   6.835   3.349  0.3066  0.1198 -0.2905
  455MOL0     C61345   0.567   7.203   3.552  0.0561 -1.2684 -0.5487
  455MOL0     C61346   0.616   7.292   3.654 -0.0544  0.4506  0.4004
  455MOL0     C61347   0.717   7.389   3.619 -0.3455  0.1985  0.1946
  455MOL0     C61348   0.744   7.433   3.490 -0.4103  0.2696  0.0211
  455MOL0     O61349   0.836   7.535   3.468  0.1832  0.5019 -0.2266
  455MOL0     C61350   0.970   7.499   3.488 -0.3564 -0.2810 -0.5103
  455MOL0     C61351   1.038   7.532   3.619  0.3866  0.2724  0.6319
  455MOL0     C61352   1.200   7.538   3.597  0.0870  0.3162 -0.2617
  455MOL0     C61353   1.269   7.431   3.692  0.0702 -0.2735  0.1080
  455MOL0     C61354   1.220   7.298   3.654 -0.5815 -0.5669 -0.6289
  455MOL0     C61355   1.170   7.196   3.616  0.0556 -0.3906  0.3983
  455MOL0     C61356   0.686   7.357   3.390  0.3499 -0.4738  0.1604
  455MOL0     C61357   0.600   7.239   3.418 -0.5605 -0.1540 -0.2079
  455MOL0     H61358   0.340   6.866   3.681  0.9004 -2.6824  0.4525
  455MOL0     H61359   0.198   6.669   3.685  4.0925 -2.7720  0.0312
  455MOL0     H61360   0.018   6.551   3.288 -0.7681 -1.3573 -0.6800
  455MOL0     H61361   0.144   6.421   3.328 -0.0692  1.1516 -0.4493
  455MOL0     H61362  -0.042   6.329   3.478 -0.3845 -1.7071 -0.9357
  455MOL0     H61363  -0.145   6.458   3.409  0.5382  0.5557  1.2107
  455MOL0     H61364  -0.192   6.274   3.257  0.0168  1.3584  0.1604
  455MOL0     H61365  -0.071   6.359   3.164 -1.9226  0.5618 -0.3940
  455MOL0     H61366   0.105   6.203   3.235  0.1307 -0.4366 -1.6813
  455MOL0     H61367  -0.009   6.127   3.352  1.7930 -1.5632 -1.8025
  455MOL0     H61368  -0.148   6.044   3.181  0.4324  1.5658  3.0114
  455MOL0     H61369  -0.016   6.103   3.068  1.8424 -1.4910  0.0008
  455MOL0     H61370   0.141   5.958   3.153  0.7746 -1.3401  0.7896
  455MOL0     H61371   0.028   5.890   3.275 -0.3242 -0.0169 -0.1263
  455MOL0     H61372  -0.032   5.863   2.977  1.5127 -2.0620 -0.7231
  455MOL0     H61373   0.059   5.746   3.067 -0.1819 -0.9267 -0.5672
  455MOL0     H61374  -0.223   5.734   3.063 -1.3214  0.2323 -0.5945
  455MOL0     H61375  -0.193   5.824   3.214  2.7593 -1.7297  3.4006
  455MOL0     H61376  -0.013   5.720   3.395 -3.5714  0.6097  1.8266
  455MOL0     H61377  -0.048   5.538   3.586  1.9183 -1.0486  1.8009
  455MOL0     H61378  -0.111   5.382   3.556 -0.4129 -0.4396 -1.6083
  455MOL0     H61379   0.142   5.361   3.603  0.5029  2.7123  0.4931
  455MOL0     H61380   0.172   5.468   3.464  1.2293 -1.4971  0.0913
  455MOL0     H61381   0.079   5.297   3.320  1.2243 -0.1569 -0.7864
  455MOL0     H61382   0.045   5.186   3.466  2.5336 -0.6047  1.4301
  455MOL0     H61383   0.286   5.157   3.505  1.5961 -1.4689 -0.1759
  455MOL0     H61384   0.308   5.270   3.367 -0.4737 -1.5484 -1.1170
  455MOL0     H61385   0.199   4.874   3.164 -0.8798  1.4161 -2.5779
  455MOL0     H61386   0.254   4.687   3.058 -0.1344  3.2678  2.7004
  455MOL0     H61387   0.337   4.755   2.923 -2.0028  2.2502  1.0685
  455MOL0     H61388   0.419   4.623   3.020  1.6387  0.4949 -1.8846
  455MOL0     H61389   0.945   5.087   3.031  1.5238  1.3606  0.1167
  455MOL0     H61390   1.186   5.040   2.979 -2.0701  2.2132 -2.0828
  455MOL0     H61391   1.362   4.956   2.821 -1.0759  1.4094  1.5163
  455MOL0     H61392   1.384   4.915   2.982 -0.4512 -0.8620  0.8563
  455MOL0     H61393   1.513   4.694   2.887 -2.1563 -0.1638 -1.4245
  455MOL0     H61394   1.475   4.761   2.735 -0.9776  1.9175  0.4730
  455MOL0     H61395   1.612   4.978   2.887  0.0755  1.2405 -1.8568
  455MOL0     H61396   1.665   4.922   2.736  1.6860 -1.8686 -0.5742
  455MOL0     H61397   1.716   4.824   3.008 -2.1842 -0.0104 -1.0458
  455MOL0     H61398   1.772   4.733   2.870 -1.8566 -0.9372  2.0025
  455MOL0     H61399   1.847   5.026   2.939 -1.1776 -0.2945  0.8277
  455MOL0     H61400   1.873   4.969   2.785 -0.2440 -0.7938  0.0775
  455MOL0     H61401   2.034   4.805   2.870  1.2180 -0.5958  0.5986
  455MOL0     H61402   2.076   4.971   2.901  1.9524 -1.0110  2.0204
  455MOL0     H61403   1.945   4.779   3.105  1.5709 -1.3954 -0.4276
  455MOL0     H61404   1.989   4.945   3.138  3.3366  0.6288 -0.3172
  455MOL0     H61405   2.214   4.928   3.099  0.5226  0.4306 -0.6727
  455MOL0     H61406   2.205   4.755   3.051  3.4012 -0.5522  3.3336
  455MOL0     H61407   1.029   4.665   2.803  0.0603 -0.0930 -0.1525
  455MOL0     H61408   0.815   4.745   2.842 -0.9003  1.5523  2.3883
  455MOL0     H61409   0.652   5.067   3.200  1.9486 -1.3510  0.6672
  455MOL0     H61410   0.485   5.162   3.329 -2.4830 -0.4445  0.6202
  455MOL0     H61411   0.190   6.682   3.262 -1.8105 -2.6484  1.8995
  455MOL0     H61412   0.343   6.875   3.253  1.9663 -0.3920  0.0342
  455MOL0     H61413   0.585   7.274   3.756 -2.1725  0.6066 -0.1586
  455MOL0     H61414   0.762   7.443   3.702 -3.0480  1.8704  0.7096
  455MOL0     H61415   0.996   7.395   3.470 -0.0620 -0.4413  0.7302
  455MOL0     H61416   1.023   7.560   3.413  1.3358  0.2754  1.0578
  455MOL0     H61417   1.017   7.454   3.693  0.0838  1.8213  2.2482
  455MOL0     H61418   1.007   7.634   3.644  0.1944  0.9198 -1.9769
  455MOL0     H61419   1.243   7.636   3.620  0.5992  0.2432 -0.8756
  455MOL0     H61420   1.234   7.511   3.496 -0.6489 -1.3476 -0.0887
  455MOL0     H61421   1.248   7.460   3.795 -3.1223  4.4857 -1.5048
  455MOL0     H61422   1.377   7.426   3.678 -0.2946 -3.9493 -3.3555
  455MOL0     H61423   1.132   7.102   3.580  0.7008 -0.0927 -1.1485
  455MOL0     H61424   0.719   7.390   3.292  1.0578  2.6270  1.3385
  455MOL0     H61425   0.555   7.192   3.332 -0.5682  2.0692 -1.5024
  456MOL0     O61426   7.844   5.486   4.376  0.1573  0.0968 -0.7445
  456MOL0     C61427   7.876   5.554   4.278 -0.5586  0.0913 -0.9598
  456MOL0     O61428   7.795   5.587   4.177  0.6251 -0.0528  0.5272
  456MOL0     C61429   7.663   5.567   4.187 -0.3896  0.1911 -0.2449
  456MOL0     C61430   7.603   5.465   4.114 -0.7755  0.6257 -0.3578
  456MOL0     C61431   7.470   5.439   4.133  0.1350 -0.3767 -1.2735
  456MOL0     C61432   7.388   5.513   4.226 -0.6632  0.5219 -0.2329
  456MOL0     O61433   7.255   5.479   4.236  0.9193 -0.6043 -0.0706
  456MOL0     C61434   7.218   5.435   4.363  0.6975 -0.1277  0.6289
  456MOL0     C61435   7.093   5.342   4.363 -0.9577 -0.5398 -0.4195
  456MOL0     C61436   7.053   5.305   4.511  0.5447 -0.0499  0.5028
  456MOL0     C61437   6.938   5.209   4.513  0.1755  0.3191  0.2226
  456MOL0     C61438   6.885   5.178   4.658  0.1302 -0.1543  0.9470
  456MOL0     C61439   6.757   5.100   4.645 -0.2273  0.5764  0.0951
  456MOL0     C61440   6.679   5.100   4.771 -0.7272 -0.1943 -0.7513
  456MOL0     C61441   6.572   4.990   4.763  0.0545 -0.2871 -0.6059
  456MOL0     N61442   6.537   4.958   4.902 -0.2879  0.2979 -0.2117
  456MOL0     C61443   6.499   4.832   4.936 -0.0697 -0.0110 -0.1541
  456MOL0     C61444   6.433   4.843   5.053  0.0866 -0.7489 -0.4651
  456MOL0     C61445   6.368   4.722   5.126 -1.2987 -1.0214  0.2172
  456MOL0     C61446   6.247   4.766   5.213  0.1984  0.7015  0.3887
  456MOL0     C61447   6.171   4.648   5.271  0.2376  0.4871  0.2153
  456MOL0     C61448   6.058   4.693   5.350  0.1704 -0.2132  0.3409
  456MOL0     O61449   5.946   4.601   5.334 -1.0493 -0.7244 -0.1269
  456MOL0     C61450   5.838   4.604   5.420  0.8579  0.0318 -0.2978
  456MOL0     C61451   5.804   4.692   5.520 -0.4465  0.1550  0.6162
  456MOL0     C61452   5.680   4.693   5.575 -0.7981 -0.6657  1.2040
  456MOL0     C61453   5.651   4.799   5.681  0.3013 -0.1207  0.6739
  456MOL0     C61454   5.596   4.587   5.540 -0.0209 -0.1421  1.7732
  456MOL0     C61455   5.470   4.550   5.615  0.2338 -0.8903  0.2283
  456MOL0     O61456   5.357   4.520   5.541  0.0949 -0.3994 -0.2747
  456MOL0     C61457   5.237   4.522   5.608  0.0532 -0.5795 -0.2139
  456MOL0     C61458   5.190   4.635   5.684  0.1194 -0.1845 -0.2444
  456MOL0     C61459   5.066   4.635   5.755  0.1361 -0.6063  0.8015
  456MOL0     C61460   4.991   4.520   5.764  0.8702  0.1158 -0.1591
  456MOL0     O61461   4.865   4.522   5.820  0.5460 -0.6677  0.0292
  456MOL0     C61462   4.776   4.413   5.810 -0.3512  0.1715  1.3234
  456MOL0     C61463   4.678   4.409   5.930 -0.6165  0.1472 -0.1157
  456MOL0     C61464   4.558   4.316   5.917  0.2009 -0.2252 -0.0715
  456MOL0     C61465   4.420   4.359   5.862 -0.3051  0.4594  0.0538
  456MOL0     C61466   4.307   4.256   5.869 -0.5769  0.9553  0.5872
  456MOL0     C61467   4.284   4.187   6.004 -0.5471 -0.2024 -0.6551
  456MOL0     C61468   4.151   4.111   5.987 -0.2021  0.4093 -0.6660
  456MOL0     C61469   4.135   3.997   6.095 -0.0242 -0.3587 -0.0712
  456MOL0    Cl61470   4.236   3.855   6.071  0.2108  0.2569  0.1176
  456MOL0     C61471   5.046   4.411   5.699 -0.5282 -0.0965  0.5183
  456MOL0     C61472   5.161   4.413   5.617  0.5052 -0.3882  0.2115
  456MOL0     O61473   5.477   4.546   5.739 -0.2538 -0.5525 -0.2534
  456MOL0     C61474   5.637   4.493   5.433 -0.1722 -0.1096 -0.6792
  456MOL0     C61475   5.746   4.510   5.362 -0.4771 -0.3750 -0.8607
  456MOL0     N61476   6.450   4.974   5.099  0.7712 -0.2454  0.8905
  456MOL0     N61477   6.516   5.041   5.004 -0.0103  0.4632 -0.5248
  456MOL0     C61478   7.446   5.617   4.298  0.4219 -0.6747  0.3694
  456MOL0     C61479   7.581   5.647   4.274  0.3761 -0.0419 -0.0249
  456MOL0     C61480   8.019   5.604   4.273  0.4155  0.5732  0.2590
  456MOL0     C61481   8.087   5.624   4.388 -0.0111 -0.0338 -0.4364
  456MOL0     C61482   8.220   5.672   4.391 -0.1908  0.0649  0.3528
  456MOL0     C61483   8.286   5.704   4.272 -0.4725  0.0050  0.2755
  456MOL0     O61484   8.414   5.752   4.288 -0.4895 -0.9410 -0.2718
  456MOL0     C61485   8.502   5.744   4.173 -0.2906 -0.4926 -0.7810
  456MOL0     C61486   8.537   5.885   4.137 -0.3670  0.5676 -0.4205
  456MOL0     C61487   8.616   5.961   4.252 -0.4693 -0.6097  0.0917
  456MOL0     C61488   8.616   6.118   4.229 -0.0285  0.0890 -0.3798
  456MOL0     C61489   8.676   6.148   4.103 -0.0957  0.6201  0.3598
  456MOL0     C61490   8.731   6.190   4.004  0.3108 -0.0982  0.0221
  456MOL0     C61491   8.218   5.681   4.150  0.2476 -0.4797 -0.0164
  456MOL0     C61492   8.083   5.636   4.148 -0.4755  0.3256 -0.2589
  456MOL0     H61493   7.657   5.402   4.043  0.9896  0.9209  0.6665
  456MOL0     H61494   7.431   5.350   4.085 -2.0272 -0.4400  0.4453
  456MOL0     H61495   7.294   5.363   4.395  1.1639 -0.1984 -0.5865
  456MOL0     H61496   7.210   5.518   4.434 -0.9012  1.4493 -1.2936
  456MOL0     H61497   7.003   5.384   4.317 -2.4136 -1.3206  1.5419
  456MOL0     H61498   7.124   5.254   4.304  0.9900  0.3566 -0.8123
  456MOL0     H61499   7.142   5.259   4.555  1.6775  2.2259  0.7753
  456MOL0     H61500   7.024   5.395   4.566  2.9938  0.7949  0.5583
  456MOL0     H61501   6.849   5.242   4.458  0.7759  0.4741 -0.6891
  456MOL0     H61502   6.971   5.115   4.467 -0.8047 -0.2861  0.7299
  456MOL0     H61503   6.963   5.122   4.712 -1.2040 -0.8754  2.2139
  456MOL0     H61504   6.867   5.273   4.709  0.3178  2.6741 -3.7276
  456MOL0     H61505   6.700   5.139   4.560 -0.7912  1.1016  0.7082
  456MOL0     H61506   6.783   4.997   4.619  1.6840  0.5055  1.9894
  456MOL0     H61507   6.739   5.080   4.861 -1.2060  0.4954 -0.2745
  456MOL0     H61508   6.617   5.188   4.784  0.9437  1.4264 -2.9538
  456MOL0     H61509   6.627   4.912   4.710 -0.0731  0.3983 -1.7709
  456MOL0     H61510   6.482   5.001   4.701 -0.0498  1.3810 -0.1950
  456MOL0     H61511   6.511   4.746   4.870  1.1058 -0.4886  0.6492
  456MOL0     H61512   6.333   4.655   5.046 -0.4782 -2.0845  0.7153
  456MOL0     H61513   6.454   4.666   5.163  0.2066  0.6523 -0.6375
  456MOL0     H61514   6.183   4.815   5.140  0.1562 -2.3391 -1.8397
  456MOL0     H61515   6.285   4.828   5.294  4.2380 -0.8927 -0.0244
  456MOL0     H61516   6.235   4.583   5.331 -0.2683  0.9635  1.2904
  456MOL0     H61517   6.133   4.584   5.190  0.3143 -0.3721  0.8366
  456MOL0     H61518   6.024   4.789   5.309  2.3551  1.0413  1.3353
  456MOL0     H61519   6.090   4.713   5.452  1.7305  4.5890 -0.8405
  456MOL0     H61520   5.875   4.765   5.559 -0.9229 -1.0316  4.0900
  456MOL0     H61521   5.554   4.845   5.659  1.4801  1.8728 -0.7203
  456MOL0     H61522   5.638   4.756   5.780  2.1662  1.0870  1.5133
  456MOL0     H61523   5.724   4.881   5.690 -0.4952  0.5182  1.5385
  456MOL0     H61524   5.250   4.723   5.663  0.6194  0.0873  2.0562
  456MOL0     H61525   5.036   4.737   5.779  0.8040 -0.0482 -0.6576
  456MOL0     H61526   4.718   4.434   5.719  1.8085  0.0677 -0.1585
  456MOL0     H61527   4.820   4.313   5.805 -1.4305 -0.2740 -1.1510
  456MOL0     H61528   4.737   4.373   6.015 -1.2002 -1.4077 -0.3220
  456MOL0     H61529   4.633   4.507   5.945  1.0382  1.2514 -1.9294
  456MOL0     H61530   4.543   4.285   6.020  0.3318  3.8637  1.3403
  456MOL0     H61531   4.597   4.235   5.854 -2.7177 -2.0545  0.2969
  456MOL0     H61532   4.389   4.447   5.920  0.6907  1.2274 -0.5486
  456MOL0     H61533   4.425   4.381   5.755  1.9300 -2.8247 -0.6714
  456MOL0     H61534   4.325   4.171   5.803 -2.0360  0.4413  0.8179
  456MOL0     H61535   4.215   4.309   5.846 -0.8258  1.7567  3.1012
  456MOL0     H61536   4.365   4.116   6.023  1.0476  1.7985  0.4113
  456MOL0     H61537   4.269   4.263   6.082  0.8481  1.0883 -1.5815
  456MOL0     H61538   4.132   4.075   5.886  3.2139  3.0676 -2.4462
  456MOL0     H61539   4.071   4.183   6.006 -0.5458  0.8637 -3.4321
  456MOL0     H61540   4.031   3.964   6.089  0.3884 -1.8483  0.4109
  456MOL0     H61541   4.146   4.047   6.192 -3.2627  1.0091 -0.2897
  456MOL0     H61542   4.995   4.316   5.691  2.9545 -2.0056 -1.4695
  456MOL0     H61543   5.190   4.324   5.562 -2.4198 -0.8711 -0.7574
  456MOL0     H61544   5.567   4.416   5.401  2.0458 -1.3631 -2.8635
  456MOL0     H61545   5.761   4.441   5.280  2.3496 -2.7496  1.4113
  456MOL0     H61546   7.396   5.687   4.364  0.7204  0.7976 -0.9083
  456MOL0     H61547   7.638   5.718   4.333 -0.1959  0.4916 -0.0981
  456MOL0     H61548   8.045   5.593   4.483 -0.7343 -1.0794 -1.0712
  456MOL0     H61549   8.275   5.694   4.482 -0.1634  0.1847  0.3072
  456MOL0     H61550   8.594   5.688   4.195 -0.5126 -1.1461 -1.4725
  456MOL0     H61551   8.461   5.694   4.085 -2.1913  3.1940 -2.2399
  456MOL0     H61552   8.451   5.946   4.106  0.3460  2.4280  1.0978
  456MOL0     H61553   8.593   5.883   4.044 -1.6685 -0.3057 -1.2319
  456MOL0     H61554   8.716   5.922   4.274 -1.1766 -1.4029  2.2245
  456MOL0     H61555   8.557   5.944   4.343 -0.2532 -1.8834  0.0005
  456MOL0     H61556   8.646   6.178   4.315  0.2018  0.9281 -1.0383
  456MOL0     H61557   8.510   6.144   4.217 -0.8216 -1.8476  1.6794
  456MOL0     H61558   8.770   6.245   3.921 -0.8420  1.2730  0.3436
  456MOL0     H61559   8.261   5.700   4.052  0.9380  2.4325  0.7484
  456MOL0     H61560   8.036   5.619   4.052 -0.7033  1.2142 -0.3137
  457MOL0     O61561  10.281  10.996   0.693 -0.0067 -0.1114 -0.3879
  457MOL0     C61562  10.243  10.880   0.675 -0.4214  0.0857 -0.2660
  457MOL0     O61563  10.182  10.800   0.774  0.3370 -0.5600 -0.2520
  457MOL0     C61564  10.197  10.849   0.902  0.4832  0.0289  0.5875
  457MOL0     C61565  10.079  10.853   0.987 -0.6148 -0.4463 -0.7736
  457MOL0     C61566  10.093  10.892   1.118 -1.3454 -0.1140 -0.6386
  457MOL0     C61567  10.216  10.933   1.164  0.9415  0.1483  0.3909
  457MOL0     O61568  10.217  10.972   1.296 -0.5564 -0.4597  0.0779
  457MOL0     C61569  10.319  11.064   1.333  0.8038  0.9347 -0.3845
  457MOL0     C61570  10.304  11.091   1.478 -0.1151 -0.9734 -0.3075
  457MOL0     C61571  10.159  11.100   1.540 -0.0726  0.3018 -0.1618
  457MOL0     C61572  10.161  11.133   1.683 -0.4270  0.3053 -0.4561
  457MOL0     C61573  10.019  11.168   1.737  0.0713 -0.0869  0.8640
  457MOL0     C61574   9.995  11.160   1.890  0.0631  0.1152 -0.2543
  457MOL0     C61575   9.853  11.213   1.916 -0.6357  0.6381 -0.1006
  457MOL0     C61576   9.792  11.218   2.056  0.9065  0.7914 -0.7833
  457MOL0     N61577   9.835  11.322   2.140  0.1580 -0.1761 -0.3966
  457MOL0     C61578   9.957  11.327   2.204  0.1369  1.0702 -0.0230
  457MOL0     C61579   9.982  11.455   2.230 -0.3656  0.1625  0.2961
  457MOL0     C61580  10.112  11.517   2.289  0.3076  0.0676  0.4157
  457MOL0     C61581  10.130  11.511   2.442 -0.2868 -0.3346  0.1664
  457MOL0     C61582  10.004  11.565   2.530 -0.1725 -0.3724 -0.2877
  457MOL0     C61583   9.998  11.500   2.674  0.6393 -0.2241  0.3943
  457MOL0     O61584   9.873  11.545   2.743  0.6500 -1.0389 -0.6695
  457MOL0     C61585   9.761  11.461   2.744  0.0207  0.3977  0.5476
  457MOL0     C61586   9.665  11.482   2.837  1.2889  0.9212 -0.8404
  457MOL0     C61587   9.557  11.391   2.865  0.3732 -0.0895 -0.0985
  457MOL0     C61588   9.466  11.438   2.971  0.5759 -0.2137 -0.2804
  457MOL0     C61589   9.541  11.271   2.776  0.7966  0.3330  0.0411
  457MOL0     C61590   9.411  11.191   2.781 -0.2492 -0.0171 -0.0431
  457MOL0     O61591   9.311  11.225   2.870 -0.2447  0.2683  0.0820
  457MOL0     C61592   9.190  11.156   2.880  0.5397 -0.2352  0.0279
  457MOL0     C61593   9.132  11.086   2.776 -0.4026 -0.0950 -0.3275
  457MOL0     C61594   9.002  11.026   2.787 -0.1499 -0.7907  0.0336
  457MOL0     C61595   8.935  11.031   2.913 -0.9875 -0.4282  0.1853
  457MOL0     O61596   8.806  10.976   2.925  0.0048  0.4650  0.3470
  457MOL0     C61597   8.735  10.970   3.052 -0.5357 -0.7350 -0.0802
  457MOL0     C61598   8.588  10.934   3.038  0.1502 -0.0712  0.2037
  457MOL0     C61599   8.568  10.794   2.996  0.4748  0.6884 -1.1000
  457MOL0     C61600   8.413  10.770   2.966  0.8633  0.6526  0.5021
  457MOL0     C61601   8.366  10.624   2.963  0.6951  0.4367  0.6176
  457MOL0     C61602   8.215  10.620   2.934  0.6251  0.1507  0.5739
  457MOL0     C61603   8.164  10.476   2.959 -0.8581  0.4423 -0.5593
  457MOL0     C61604   8.015  10.454   2.935 -0.6583 -0.1321  0.4761
  457MOL0    Cl61605   7.934  10.560   3.047  0.1519 -0.1130  0.5271
  457MOL0     C61606   8.990  11.102   3.014  0.6078  0.9362  0.0785
  457MOL0     C61607   9.119  11.162   2.999  0.6883  0.8080 -1.0097
  457MOL0     O61608   9.408  11.091   2.702  0.2313 -0.2802 -0.0092
  457MOL0     C61609   9.637  11.261   2.669  0.3205  0.4508 -0.4407
  457MOL0     C61610   9.744  11.352   2.656  0.1935  0.4824  0.4023
  457MOL0     N61611   9.883  11.535   2.177  0.0006 -0.5554  1.0195
  457MOL0     N61612   9.797  11.451   2.127  0.1332  0.1341  1.1523
  457MOL0     C61613  10.333  10.920   1.081 -0.0851  0.1998 -0.7454
  457MOL0     C61614  10.319  10.876   0.954  0.2864  0.3319 -1.0796
  457MOL0     C61615  10.270  10.834   0.534  0.8698 -0.9446  0.8675
  457MOL0     C61616  10.224  10.709   0.498  0.4563 -0.4864 -0.6699
  457MOL0     C61617  10.251  10.656   0.368 -0.3663 -0.0111  0.2376
  457MOL0     C61618  10.317  10.728   0.272 -0.6735  0.2832  0.7908
  457MOL0     O61619  10.347  10.682   0.149  0.2471 -0.0466 -0.1617
  457MOL0     C61620  10.489  10.683   0.115 -1.1651  0.1108  0.2825
  457MOL0     C61621  10.600  10.621   0.205  1.0565  0.0311 -0.1218
  457MOL0     C61622  10.736  10.652   0.148 -0.8062  0.2271  0.2701
  457MOL0     C61623  10.843  10.576   0.223  0.2704  0.2664 -0.6961
  457MOL0     C61624  10.969  10.575   0.141  0.0327  0.3141  0.6463
  457MOL0     C61625  11.059  10.553   0.062  0.0553 -0.3596  0.6607
  457MOL0     C61626  10.369  10.855   0.309  0.0629 -0.4664 -1.3217
  457MOL0     C61627  10.343  10.902   0.442  0.0890 -0.6122  0.5023
  457MOL0     H61628   9.981  10.841   0.942 -0.7894 -2.0585 -0.0153
  457MOL0     H61629  10.010  10.900   1.188  0.4101 -1.1761  1.6664
  457MOL0     H61630  10.414  11.018   1.304 -0.8984 -0.8047 -3.8438
  457MOL0     H61631  10.308  11.158   1.278 -0.3499  1.4177  0.6198
  457MOL0     H61632  10.353  11.012   1.535  1.4380  1.2053  1.5998
  457MOL0     H61633  10.353  11.188   1.494 -0.3963 -0.4627 -2.2879
  457MOL0     H61634  10.094  11.172   1.488 -1.3387 -2.4603 -2.6898
  457MOL0     H61635  10.114  11.001   1.531  2.1099 -1.0422  2.5023
  457MOL0     H61636  10.191  11.047   1.743  2.0920  3.7270  3.8037
  457MOL0     H61637  10.233  11.214   1.695 -0.4647  1.0718 -4.2257
  457MOL0     H61638   9.993  11.268   1.704  1.6408 -0.7865 -2.9675
  457MOL0     H61639   9.947  11.103   1.687 -0.7082  2.4541 -1.4933
  457MOL0     H61640   9.996  11.058   1.932 -0.4473 -0.0937 -0.7344
  457MOL0     H61641  10.067  11.220   1.945  3.0786 -1.4650 -2.1992
  457MOL0     H61642   9.867  11.320   1.903  1.1665  0.3035 -1.2789
  457MOL0     H61643   9.789  11.153   1.849 -2.5992 -0.2802  2.4266
  457MOL0     H61644   9.792  11.114   2.089  0.5905 -0.7278 -4.8821
  457MOL0     H61645   9.685  11.238   2.047  0.4098 -0.8666  0.8444
  457MOL0     H61646  10.019  11.245   2.239 -2.4427 -1.3394 -0.6985
  457MOL0     H61647  10.197  11.459   2.252  0.5160  0.8029 -0.2983
  457MOL0     H61648  10.126  11.621   2.258 -0.8176  0.7991  2.2181
  457MOL0     H61649  10.217  11.567   2.477 -1.5669  0.7377  1.7420
  457MOL0     H61650  10.146  11.405   2.463 -0.4583 -0.4243 -0.1620
  457MOL0     H61651   9.910  11.540   2.479  1.1462 -1.7251 -2.1875
  457MOL0     H61652  10.006  11.674   2.534 -0.0201 -0.4120  1.9272
  457MOL0     H61653  10.085  11.541   2.728 -0.2376  0.9402  0.9695
  457MOL0     H61654  10.006  11.392   2.660  0.3364 -0.0823 -0.9406
  457MOL0     H61655   9.663  11.578   2.887  4.5892  0.9400 -0.5452
  457MOL0     H61656   9.428  11.351   3.025 -2.6741  2.1714  1.6616
  457MOL0     H61657   9.519  11.503   3.041  0.1078  1.3929 -1.3546
  457MOL0     H61658   9.378  11.493   2.937 -0.7945 -1.2652  1.4165
  457MOL0     H61659   9.182  11.087   2.679 -0.2205 -0.1997 -0.2348
  457MOL0     H61660   8.963  10.991   2.693 -0.6014  0.1023 -0.1328
  457MOL0     H61661   8.781  10.907   3.129  1.1706 -0.3283 -0.7431
  457MOL0     H61662   8.745  11.066   3.103  2.8859 -2.0409  2.0519
  457MOL0     H61663   8.548  10.950   3.138  4.1207 -0.1667  2.0061
  457MOL0     H61664   8.535  10.997   2.966 -0.0391  0.3898  0.7372
  457MOL0     H61665   8.599  10.720   3.070 -1.1570  0.2177 -0.8368
  457MOL0     H61666   8.623  10.771   2.905  0.2028 -1.1153 -0.8463
  457MOL0     H61667   8.357  10.827   3.041  2.0159  1.6605  0.6494
  457MOL0     H61668   8.377  10.820   2.875 -1.1056  2.0541  1.9755
  457MOL0     H61669   8.402  10.574   3.053  4.4350 -2.2058 -2.0271
  457MOL0     H61670   8.413  10.585   2.873 -2.6095 -1.7079 -0.3785
  457MOL0     H61671   8.156  10.675   3.008  0.0036  0.6514 -0.2753
  457MOL0     H61672   8.183  10.651   2.834  1.5905 -0.4113  0.0802
  457MOL0     H61673   8.182  10.443   3.062  0.9696  1.1845 -0.6027
  457MOL0     H61674   8.226  10.410   2.898 -2.9777 -2.6232  0.3977
  457MOL0     H61675   7.986  10.349   2.946 -1.1912  0.1103  1.4684
  457MOL0     H61676   7.988  10.466   2.829  1.7137  1.5189 -0.0252
  457MOL0     H61677   8.944  11.117   3.112 -1.3877  1.8920 -0.9487
  457MOL0     H61678   9.165  11.217   3.080 -1.0189  0.4027  0.2756
  457MOL0     H61679   9.619  11.181   2.599 -1.0495  0.5232 -0.1967
  457MOL0     H61680   9.808  11.326   2.572  1.8455  3.9288  0.4047
  457MOL0     H61681  10.425  10.941   1.133 -1.8597 -2.6612  4.2397
  457MOL0     H61682  10.411  10.863   0.898  0.2355 -3.2511 -0.5115
  457MOL0     H61683  10.175  10.641   0.567  3.2046 -0.2281  1.7703
  457MOL0     H61684  10.205  10.564   0.335  0.3369  1.0040 -4.1974
  457MOL0     H61685  10.485  10.627   0.021 -2.0528 -0.9706  0.9357
  457MOL0     H61686  10.508  10.789   0.099 -3.3880  0.5598  0.2230
  457MOL0     H61687  10.588  10.512   0.198  0.8101 -0.0719  1.6204
  457MOL0     H61688  10.591  10.651   0.310 -0.5769 -1.3854  0.1849
  457MOL0     H61689  10.749  10.760   0.140  1.5941  0.2431  2.8367
  457MOL0     H61690  10.742  10.603   0.050  0.5322 -0.4706  0.6671
  457MOL0     H61691  10.811  10.474   0.245 -1.3142  1.4302  3.4234
  457MOL0     H61692  10.859  10.617   0.323 -0.2294  0.2727 -0.6192
  457MOL0     H61693  11.140  10.536  -0.006 -0.0421  3.2250 -0.5975
  457MOL0     H61694  10.423  10.917   0.238  2.9254 -1.5189 -0.2030
  457MOL0     H61695  10.358  11.008   0.462 -0.1272 -0.1244 -1.7232
  458MOL0     O61696   6.554   1.765  10.139  1.3850  0.4327  0.1343
  458MOL0     C61697   6.509   1.750  10.250 -0.1801 -0.2806 -0.5917
  458MOL0     O61698   6.410   1.669  10.287 -0.7916  0.0277  0.0107
  458MOL0     C61699   6.327   1.609  10.201 -0.1823  0.5433  0.3227
  458MOL0     C61700   6.262   1.489  10.240 -0.4662 -0.0254 -0.4615
  458MOL0     C61701   6.168   1.420  10.158 -1.1927 -0.5127 -1.1984
  458MOL0     C61702   6.131   1.468  10.036 -1.2800 -0.4870  0.0998
  458MOL0     O61703   6.053   1.392   9.949  0.7999  0.1169 -0.1979
  458MOL0     C61704   5.913   1.372   9.995 -0.0839 -0.3337 -0.0455
  458MOL0     C61705   5.823   1.326   9.882 -0.5173  0.4896  0.1588
  458MOL0     C61706   5.789   1.424   9.776  0.1061  0.8798  0.1814
  458MOL0     C61707   5.695   1.383   9.663  0.5423  0.2140  0.5152
  458MOL0     C61708   5.711   1.478   9.545  0.9227  0.0154 -0.2823
  458MOL0     C61709   5.604   1.456   9.435 -0.3391 -1.0750  0.1763
  458MOL0     C61710   5.524   1.577   9.390 -0.2278  1.6684 -0.2927
  458MOL0     C61711   5.471   1.558   9.245  0.8841 -0.3048  0.0753
  458MOL0     N61712   5.387   1.677   9.216 -0.4634 -0.4901 -0.3207
  458MOL0     C61713   5.252   1.682   9.227  0.0581  0.5086  0.7619
  458MOL0     C61714   5.208   1.794   9.158 -0.3403  0.3542  1.0989
  458MOL0     C61715   5.065   1.838   9.134 -0.0714 -0.0422 -0.2568
  458MOL0     C61716   5.034   1.984   9.157 -0.2068 -0.5708  0.1377
  458MOL0     C61717   4.886   1.998   9.180  0.5186 -0.0321  0.2154
  458MOL0     C61718   4.861   2.147   9.182  0.3597  0.0452  0.4068
  458MOL0     O61719   4.741   2.183   9.244 -0.2515 -0.2952 -0.1439
  458MOL0     C61720   4.677   2.297   9.203 -0.7015  0.1952 -0.0855
  458MOL0     C61721   4.550   2.287   9.157  0.1751 -0.8814 -0.0281
  458MOL0     C61722   4.465   2.397   9.133 -0.8318 -0.0707 -0.3199
  458MOL0     C61723   4.324   2.359   9.112  1.0482  0.6580 -0.0576
  458MOL0     C61724   4.531   2.528   9.131  0.9843  0.4511 -0.7305
  458MOL0     C61725   4.456   2.656   9.097 -0.3766  0.3822 -0.6680
  458MOL0     O61726   4.324   2.641   9.080  0.1791 -0.3260  0.3506
  458MOL0     C61727   4.243   2.739   9.021  0.0824 -0.8866 -0.0272
  458MOL0     C61728   4.287   2.836   8.926 -0.5082  0.6923  0.0511
  458MOL0     C61729   4.200   2.934   8.875 -0.4043  0.2198  0.8184
  458MOL0     C61730   4.061   2.919   8.892 -1.1604  0.2438  0.2959
  458MOL0     O61731   3.977   3.012   8.832  0.2343  0.0400  0.2009
  458MOL0     C61732   4.029   3.138   8.802  0.3196 -0.2174  0.5754
  458MOL0     C61733   4.067   3.151   8.652  0.1343 -0.1986  0.3944
  458MOL0     C61734   3.975   3.080   8.544 -0.2962  0.5102 -0.7124
  458MOL0     C61735   3.844   3.160   8.541  0.3986 -0.1057  0.3580
  458MOL0     C61736   3.765   3.100   8.426 -0.0338 -0.1285  0.8497
  458MOL0     C61737   3.648   3.186   8.370  0.0489  0.2476  0.1629
  458MOL0     C61738   3.695   3.323   8.323  0.3995 -0.1910  0.0657
  458MOL0     C61739   3.586   3.383   8.230  0.3310 -0.3702  0.3624
  458MOL0    Cl61740   3.659   3.527   8.169  0.4469  0.0565 -0.2060
  458MOL0     C61741   4.021   2.823   8.980 -1.2082 -0.5839 -0.4845
  458MOL0     C61742   4.106   2.736   9.047 -0.0675 -0.0567 -0.8361
  458MOL0     O61743   4.516   2.767   9.089  0.3640  1.1458 -0.3417
  458MOL0     C61744   4.667   2.532   9.168  0.2068 -0.0973  0.3791
  458MOL0     C61745   4.740   2.418   9.207  1.0681  0.0337  0.1597
  458MOL0     N61746   5.324   1.841   9.096  0.2395 -0.0540 -0.3908
  458MOL0     N61747   5.426   1.777   9.137  0.3124 -0.9426 -0.7559
  458MOL0     C61748   6.194   1.579   9.990 -0.1066 -0.2836 -0.1225
  458MOL0     C61749   6.298   1.645  10.068  1.7646  0.1568 -0.3395
  458MOL0     C61750   6.586   1.833  10.355  0.1887  0.7556 -0.3494
  458MOL0     C61751   6.524   1.871  10.470  0.4073  0.7856  0.4956
  458MOL0     C61752   6.600   1.940  10.557 -0.1950 -0.4387  0.2638
  458MOL0     C61753   6.735   1.977  10.541  0.0812  1.2120  0.0529
  458MOL0     O61754   6.805   2.038  10.639 -0.4778 -1.0264  0.0774
  458MOL0     C61755   6.779   2.179  10.655  1.1948 -0.5185 -0.1300
  458MOL0     C61756   6.862   2.259  10.550  0.3112 -0.1595 -0.6952
  458MOL0     C61757   7.003   2.284  10.587 -0.1339  0.2348 -0.2901
  458MOL0     C61758   7.096   2.180  10.521 -0.5400 -0.6173  1.0391
  458MOL0     C61759   7.234   2.249  10.515  0.0075  0.7353 -0.0870
  458MOL0     C61760   7.336   2.313  10.524 -0.3833  1.0219 -0.3460
  458MOL0     C61761   6.789   1.939  10.416  0.5168 -0.3405 -0.3030
  458MOL0     C61762   6.718   1.866  10.325  0.3025  0.2088  0.9070
  458MOL0     H61763   6.289   1.450  10.338  1.4709  1.9608 -0.1124
  458MOL0     H61764   6.120   1.325  10.181 -0.5624 -1.1729 -2.4727
  458MOL0     H61765   5.913   1.305  10.081 -0.2017 -2.0093 -1.2898
  458MOL0     H61766   5.872   1.463  10.039 -0.3105 -1.2236  1.6426
  458MOL0     H61767   5.863   1.238   9.831 -1.4573 -0.7176  1.4541
  458MOL0     H61768   5.730   1.294   9.930 -0.8545  2.8436  1.2052
  458MOL0     H61769   5.746   1.507   9.833  2.3443  3.0068 -1.0002
  458MOL0     H61770   5.883   1.465   9.736  0.1830  1.0886  0.5693
  458MOL0     H61771   5.730   1.282   9.638 -0.8505 -0.3399  0.7327
  458MOL0     H61772   5.588   1.389   9.685  0.7830  0.7455  1.5956
  458MOL0     H61773   5.714   1.582   9.579  3.7276 -0.7472  2.3532
  458MOL0     H61774   5.816   1.476   9.512  0.7105  0.6033 -1.0263
  458MOL0     H61775   5.665   1.416   9.353  4.7286  1.5973  2.1962
  458MOL0     H61776   5.532   1.379   9.461 -1.4709  0.6395  2.4732
  458MOL0     H61777   5.442   1.593   9.461 -0.0130  1.0950  0.0877
  458MOL0     H61778   5.585   1.667   9.396 -2.0634  2.9175  0.5256
  458MOL0     H61779   5.407   1.470   9.231  2.4043 -1.8044  1.9188
  458MOL0     H61780   5.555   1.543   9.177  0.5865 -0.6590 -0.2233
  458MOL0     H61781   5.187   1.611   9.276  1.4264 -3.3417 -2.4643
  458MOL0     H61782   5.037   1.806   9.033  0.1985 -1.4748  0.0946
  458MOL0     H61783   5.005   1.787   9.210  1.2606  0.5901  1.2884
  458MOL0     H61784   5.055   2.047   9.070  0.8536  0.0727  0.8277
  458MOL0     H61785   5.091   2.028   9.240 -1.7879  2.2114 -0.1543
  458MOL0     H61786   4.852   1.967   9.279 -0.3537  3.5284  1.1911
  458MOL0     H61787   4.831   1.943   9.103  3.5177  0.1436 -2.2865
  458MOL0     H61788   4.875   2.189   9.082  1.2801  0.6155  0.7598
  458MOL0     H61789   4.941   2.204   9.231 -0.0482  0.8890  0.1025
  458MOL0     H61790   4.509   2.186   9.159  0.0038 -0.8444 -1.0045
  458MOL0     H61791   4.297   2.258   9.146  0.2755  1.2212  1.0906
  458MOL0     H61792   4.252   2.426   9.161 -1.9797 -1.0522 -1.8860
  458MOL0     H61793   4.299   2.364   9.006  1.3014 -2.5017 -0.3704
  458MOL0     H61794   4.387   2.834   8.882 -1.8607  1.1543 -3.3732
  458MOL0     H61795   4.248   3.000   8.804  0.2954 -0.6715  0.4469
  458MOL0     H61796   3.945   3.208   8.804  0.0759 -0.3760 -1.7178
  458MOL0     H61797   4.115   3.171   8.861 -0.5711 -0.7096  2.2105
  458MOL0     H61798   4.064   3.259   8.633  1.9699 -0.1514  0.1374
  458MOL0     H61799   4.166   3.112   8.627 -0.0684 -0.6003  0.2237
  458MOL0     H61800   3.959   2.979   8.583  2.9539  0.7567  1.6036
  458MOL0     H61801   4.020   3.066   8.445 -3.3310  0.3061 -2.2138
  458MOL0     H61802   3.798   3.161   8.640 -2.8177  1.0769 -0.9719
  458MOL0     H61803   3.865   3.265   8.516 -3.5968  0.2062 -2.7046
  458MOL0     H61804   3.726   3.002   8.456  0.9745 -1.2073 -1.1424
  458MOL0     H61805   3.832   3.066   8.347  0.5153  1.0002  0.8157
  458MOL0     H61806   3.594   3.126   8.297 -2.4629 -0.0964  2.1731
  458MOL0     H61807   3.580   3.205   8.453  1.2823 -0.6128  1.4136
  458MOL0     H61808   3.787   3.323   8.265  0.5952 -0.6613  0.3729
  458MOL0     H61809   3.704   3.395   8.405 -1.4139  0.3027 -0.1108
  458MOL0     H61810   3.492   3.414   8.277  0.3354 -0.7756  0.6404
  458MOL0     H61811   3.572   3.313   8.147  3.0584 -1.3734  0.6364
  458MOL0     H61812   3.915   2.800   8.993 -1.6324  2.4266  2.9990
  458MOL0     H61813   4.077   2.665   9.123 -1.3901  0.0019 -1.2542
  458MOL0     H61814   4.730   2.620   9.180  0.0913  0.0311  0.0471
  458MOL0     H61815   4.845   2.415   9.235  2.1745  3.7600 -2.7441
  458MOL0     H61816   6.174   1.619   9.891  1.4879  0.9702  0.0209
  458MOL0     H61817   6.345   1.733  10.025  1.5926  0.9148  0.9951
  458MOL0     H61818   6.423   1.850  10.502  0.9461 -1.0365  1.1676
  458MOL0     H61819   6.564   1.974  10.654  1.5688 -0.2684  0.8804
  458MOL0     H61820   6.674   2.198  10.632  0.5387  0.7947  3.4319
  458MOL0     H61821   6.789   2.214  10.758  0.2423  0.6087 -0.3985
  458MOL0     H61822   6.796   2.346  10.546 -1.5283 -1.5215 -2.2855
  458MOL0     H61823   6.863   2.213  10.451  2.1439 -0.6529 -0.4881
  458MOL0     H61824   7.027   2.267  10.692  5.3025 -2.1090 -1.5496
  458MOL0     H61825   7.026   2.384  10.549  0.0069 -0.0714 -1.0387
  458MOL0     H61826   7.084   2.137  10.421  2.4593  2.1833 -0.7270
  458MOL0     H61827   7.113   2.100  10.594 -0.1731 -0.4364  1.1553
  458MOL0     H61828   7.428   2.368  10.531  1.1588 -0.8962 -3.2995
  458MOL0     H61829   6.895   1.961  10.409  0.1494  2.2234  0.9184
  458MOL0     H61830   6.765   1.831  10.234  0.5418 -0.4860  1.2910
  459MOL0     O61831   9.220   6.780   2.666 -0.0466 -0.5210 -0.3342
  459MOL0     C61832   9.165   6.674   2.632 -0.3958  0.5905 -0.9712
  459MOL0     O61833   9.203   6.598   2.528 -0.5794  0.0595  0.2418
  459MOL0     C61834   9.324   6.618   2.470  0.5144  0.1161 -0.5448
  459MOL0     C61835   9.330   6.607   2.329  0.2176  0.9938 -0.2664
  459MOL0     C61836   9.454   6.613   2.269  1.0733 -0.6311 -0.4837
  459MOL0     C61837   9.577   6.655   2.331  1.5781  0.0041 -0.9441
  459MOL0     O61838   9.697   6.668   2.274  0.7754  0.1752 -0.2272
  459MOL0     C61839   9.727   6.597   2.150  0.8258  0.1062  0.3725
  459MOL0     C61840   9.866   6.636   2.111 -0.6247  0.3115  0.7073
  459MOL0     C61841   9.896   6.582   1.972 -0.2534  0.1370  0.9063
  459MOL0     C61842   9.830   6.671   1.861  0.4077 -0.9960 -0.1401
  459MOL0     C61843   9.836   6.613   1.721  0.1585  0.4205 -0.7399
  459MOL0     C61844   9.979   6.624   1.664  0.1495 -0.3349 -0.0023
  459MOL0     C61845  10.061   6.489   1.684  0.4462  0.6928 -0.0462
  459MOL0     C61846   9.985   6.376   1.601 -0.0740 -0.1672  0.1888
  459MOL0     N61847  10.058   6.250   1.576  0.8152  0.4876  0.5068
  459MOL0     C61848  10.184   6.248   1.546 -0.5304 -0.1717  1.1160
  459MOL0     C61849  10.239   6.129   1.567  0.2627  0.2735 -0.1200
  459MOL0     C61850  10.381   6.079   1.536 -0.3184  0.3493 -0.6318
  459MOL0     C61851  10.433   6.011   1.664  0.1005  0.1686  0.2847
  459MOL0     C61852  10.564   5.939   1.637 -0.1385  0.5014 -1.4252
  459MOL0     C61853  10.613   5.864   1.767 -0.1971  0.0847  0.0640
  459MOL0     O61854  10.747   5.835   1.756  0.1786  0.2315 -0.6212
  459MOL0     C61855  10.845   5.935   1.759  0.1833  0.0264  0.6989
  459MOL0     C61856  10.956   5.929   1.674 -0.9301  0.5642 -0.4994
  459MOL0     C61857  11.056   6.025   1.686  0.1423  1.1419  0.3765
  459MOL0     C61858  11.181   6.010   1.590 -0.0271 -0.1627  0.1230
  459MOL0     C61859  11.045   6.133   1.783  0.0675 -0.0881  0.2719
  459MOL0     C61860  11.152   6.233   1.805 -0.6267  0.5132 -0.9028
  459MOL0     O61861  11.128   6.329   1.897  0.2450  1.0618 -0.1758
  459MOL0     C61862  11.207   6.444   1.913 -0.5765  1.0849 -0.5070
  459MOL0     C61863  11.226   6.542   1.817 -0.4878  0.3308 -0.6344
  459MOL0     C61864  11.283   6.661   1.862  0.6016  0.5166 -0.4553
  459MOL0     C61865  11.341   6.685   1.992 -0.3237  0.5156  0.8354
  459MOL0     O61866  11.413   6.800   2.036 -0.2702  0.3743 -0.0189
  459MOL0     C61867  11.450   6.893   1.937  0.6899  0.4975  0.2951
  459MOL0     C61868  11.555   6.986   1.994  0.0801 -0.2623 -0.3988
  459MOL0     C61869  11.501   7.108   2.077  0.3027  0.8782 -0.1975
  459MOL0     C61870  11.612   7.164   2.153 -0.2479 -0.5129 -0.1995
  459MOL0     C61871  11.595   7.315   2.190 -0.0821 -0.4731 -0.4902
  459MOL0     C61872  11.477   7.340   2.293  0.3235  0.8695 -0.3052
  459MOL0     C61873  11.473   7.472   2.358  0.2097 -0.1818 -0.8463
  459MOL0     C61874  11.388   7.489   2.484 -0.5862 -0.1886 -0.2603
  459MOL0    Cl61875  11.211   7.470   2.438  0.0516 -0.2505  0.3804
  459MOL0     C61876  11.313   6.585   2.089  0.3392 -0.2096 -0.0612
  459MOL0     C61877  11.244   6.468   2.049  0.4212 -0.5837  0.7072
  459MOL0     O61878  11.260   6.223   1.746  0.1698 -0.1525  0.3461
  459MOL0     C61879  10.925   6.148   1.865 -0.3753  0.8219  0.0080
  459MOL0     C61880  10.828   6.050   1.847 -0.4854  0.1639 -0.9226
  459MOL0     N61881  10.136   6.048   1.600 -0.3396 -0.1441  0.2566
  459MOL0     N61882  10.037   6.122   1.629 -0.1284 -0.3916  0.3949
  459MOL0     C61883   9.566   6.675   2.466 -0.8639 -1.4294 -0.1722
  459MOL0     C61884   9.446   6.658   2.535 -0.1797 -0.2617 -0.0174
  459MOL0     C61885   9.052   6.620   2.706  0.4896  0.2117 -0.2449
  459MOL0     C61886   9.004   6.691   2.817 -0.3339 -0.4981 -0.7124
  459MOL0     C61887   8.903   6.637   2.893  0.0256 -0.3641 -0.0280
  459MOL0     C61888   8.834   6.524   2.851 -0.5983  0.0738 -0.3174
  459MOL0     O61889   8.745   6.459   2.939 -0.0056 -0.3290 -0.2780
  459MOL0     C61890   8.664   6.550   3.020 -0.4000  0.5519 -0.2004
  459MOL0     C61891   8.554   6.467   3.090 -0.1589 -0.0277  0.1177
  459MOL0     C61892   8.593   6.355   3.187  0.2428  0.2582  0.0207
  459MOL0     C61893   8.469   6.277   3.233 -0.2151  0.1656  0.0634
  459MOL0     C61894   8.408   6.336   3.350 -0.0301 -0.0958  1.0533
  459MOL0     C61895   8.357   6.385   3.443 -0.4323  0.6834  0.5834
  459MOL0     C61896   8.870   6.457   2.731  0.6239  0.0807  0.3434
  459MOL0     C61897   8.976   6.506   2.657 -0.0979  0.2317 -0.4158
  459MOL0     H61898   9.255   6.569   2.261  2.2733 -0.5723 -1.7663
  459MOL0     H61899   9.470   6.593   2.164 -0.0434 -0.7886 -0.6345
  459MOL0     H61900   9.714   6.489   2.162  0.4784  0.3888  3.0566
  459MOL0     H61901   9.660   6.631   2.071 -0.6706  1.9443  2.3141
  459MOL0     H61902   9.872   6.744   2.093  0.9686 -0.2133 -2.7772
  459MOL0     H61903   9.932   6.615   2.195 -2.2938 -0.0220  1.9858
  459MOL0     H61904  10.005   6.578   1.961 -0.4479 -2.3560 -0.7086
  459MOL0     H61905   9.863   6.478   1.965 -0.5150  0.1554  1.7855
  459MOL0     H61906   9.726   6.703   1.871  0.0521 -0.8216 -3.3854
  459MOL0     H61907   9.897   6.757   1.866  2.0056 -2.2827  2.1931
  459MOL0     H61908   9.794   6.512   1.724 -1.8325  1.2106  1.3847
  459MOL0     H61909   9.768   6.662   1.651 -1.6331  0.3370  0.8423
  459MOL0     H61910   9.963   6.648   1.558 -1.8642  1.6335  0.6646
  459MOL0     H61911  10.041   6.710   1.690 -0.4351 -0.1346  0.7717
  459MOL0     H61912  10.166   6.500   1.656 -0.3100  0.7949 -3.2848
  459MOL0     H61913  10.050   6.458   1.788  0.8782  0.5452 -0.0432
  459MOL0     H61914   9.942   6.415   1.509 -0.4602  0.5877  0.6792
  459MOL0     H61915   9.898   6.340   1.658  1.2334 -1.0200  1.7344
  459MOL0     H61916  10.225   6.339   1.505 -0.3775 -1.2077 -1.1411
  459MOL0     H61917  10.375   6.019   1.444 -2.8296  0.1218 -0.3855
  459MOL0     H61918  10.453   6.160   1.521 -0.7479  0.9735  0.5412
  459MOL0     H61919  10.352   5.939   1.679  0.5271 -0.3641  0.0634
  459MOL0     H61920  10.442   6.088   1.741 -1.4040  2.5173 -1.7409
  459MOL0     H61921  10.634   6.014   1.602 -1.0679  2.7962  1.2377
  459MOL0     H61922  10.544   5.863   1.561 -1.4534 -0.0244 -0.5940
  459MOL0     H61923  10.564   5.768   1.782  0.9615 -0.2272  2.1906
  459MOL0     H61924  10.592   5.924   1.856  1.3454  0.3951  0.2545
  459MOL0     H61925  10.980   5.848   1.605 -0.0167  0.3176  0.0928
  459MOL0     H61926  11.273   5.978   1.639 -0.7388  2.2273  3.3365
  459MOL0     H61927  11.161   5.932   1.516  0.2373 -0.0808 -0.0373
  459MOL0     H61928  11.195   6.100   1.529 -1.7441 -0.8890 -1.4407
  459MOL0     H61929  11.199   6.540   1.712 -2.2991 -0.1096 -0.1833
  459MOL0     H61930  11.288   6.738   1.786 -0.3005  0.7620 -0.2743
  459MOL0     H61931  11.479   6.841   1.845  1.5881 -1.1188  1.4383
  459MOL0     H61932  11.361   6.951   1.912 -1.8448  0.0698  6.5195
  459MOL0     H61933  11.631   6.925   2.045  1.8979  3.4904  1.7995
  459MOL0     H61934  11.595   7.039   1.908  0.8281  0.4793  0.3899
  459MOL0     H61935  11.431   7.082   2.157  1.2058  3.4601  1.5913
  459MOL0     H61936  11.460   7.171   1.998 -1.1011  2.3474  1.6097
  459MOL0     H61937  11.611   7.120   2.253 -1.5566  1.2539  0.6240
  459MOL0     H61938  11.708   7.150   2.103  0.4629  1.3114  0.5417
  459MOL0     H61939  11.579   7.388   2.110 -1.1846  1.5663  1.4855
  459MOL0     H61940  11.689   7.344   2.239 -0.7313  1.2943 -0.2114
  459MOL0     H61941  11.382   7.322   2.242  0.7625  2.6432 -1.8564
  459MOL0     H61942  11.475   7.263   2.371 -3.5679 -1.5072 -2.4408
  459MOL0     H61943  11.442   7.550   2.288 -2.2288 -0.2347  0.0641
  459MOL0     H61944  11.574   7.492   2.394  0.6582 -1.3442 -1.4155
  459MOL0     H61945  11.409   7.590   2.520  0.2364 -0.8744  1.2683
  459MOL0     H61946  11.412   7.415   2.560 -2.3347  0.1578  0.6553
  459MOL0     H61947  11.351   6.613   2.186 -1.0746 -0.6086  0.6393
  459MOL0     H61948  11.230   6.400   2.132  1.5947  0.7570  2.0649
  459MOL0     H61949  10.908   6.207   1.954 -4.8396  0.2473 -0.2588
  459MOL0     H61950  10.740   6.058   1.910 -0.2366  1.9689 -0.7715
  459MOL0     H61951   9.657   6.717   2.509 -1.8379  1.0188 -0.3575
  459MOL0     H61952   9.446   6.677   2.642  0.2163  1.0619 -0.2382
  459MOL0     H61953   9.053   6.782   2.849 -1.2418 -0.4999  0.7946
  459MOL0     H61954   8.888   6.683   2.990 -3.5260 -0.7622 -0.2343
  459MOL0     H61955   8.713   6.614   3.095  0.4965 -0.2969 -0.0413
  459MOL0     H61956   8.615   6.613   2.946 -2.3740 -1.5304 -0.7915
  459MOL0     H61957   8.494   6.440   3.002  1.1174  0.6495 -0.9898
  459MOL0     H61958   8.504   6.539   3.155 -2.3366  0.5146 -2.0415
  459MOL0     H61959   8.652   6.398   3.268 -1.3199 -0.0408  1.3630
  459MOL0     H61960   8.663   6.285   3.140 -2.2144 -1.8424 -0.7346
  459MOL0     H61961   8.507   6.176   3.248 -0.7286 -0.0942 -0.3767
  459MOL0     H61962   8.400   6.278   3.148 -0.2734 -0.2632  0.1038
  459MOL0     H61963   8.314   6.418   3.535 -1.3585  1.5394 -0.1355
  459MOL0     H61964   8.811   6.369   2.710 -3.6742  2.7361  0.0125
  459MOL0     H61965   9.010   6.443   2.575  0.0941  1.2834 -1.1607
  460MOL0     O61966   4.395  10.115  11.204 -1.1829  0.0552  0.7630
  460MOL0     C61967   4.374  10.030  11.286 -0.3002  0.1280 -0.1797
  460MOL0     O61968   4.253   9.981  11.323 -0.2105 -0.1282 -0.2093
  460MOL0     C61969   4.136  10.021  11.260 -0.3018 -0.2306 -0.6160
  460MOL0     C61970   4.039   9.930  11.227 -0.2394  0.4300 -0.8033
  460MOL0     C61971   3.910   9.967  11.194 -0.0211 -0.4757  0.0184
  460MOL0     C61972   3.891  10.104  11.156  0.2504  0.0259  0.2235
  460MOL0     O61973   3.780  10.138  11.085 -0.0323 -0.3057 -0.1273
  460MOL0     C61974   3.700  10.250  11.145 -0.9768  0.5971  0.1381
  460MOL0     C61975   3.574  10.254  11.059  0.0901 -0.0402 -0.7245
  460MOL0     C61976   3.465  10.339  11.130 -0.8171  0.0477 -0.2858
  460MOL0     C61977   3.334  10.291  11.067 -0.3638  0.0681 -0.6311
  460MOL0     C61978   3.218  10.339  11.155 -0.5220 -0.7492  0.1641
  460MOL0     C61979   3.091  10.273  11.098 -0.0287 -0.5367  0.1922
  460MOL0     C61980   2.959  10.336  11.146  0.6801  0.3355 -0.1166
  460MOL0     C61981   2.837  10.252  11.089  0.3934  0.4422 -0.2115
  460MOL0     N61982   2.831  10.122  11.162 -0.8652  0.0101  0.2220
  460MOL0     C61983   2.804  10.112  11.299 -0.0071 -0.2231  0.6424
  460MOL0     C61984   2.835   9.982  11.341 -0.2523 -0.8024 -0.2089
  460MOL0     C61985   2.825   9.930  11.488  0.4883  0.1380  0.1688
  460MOL0     C61986   2.956   9.855  11.533  0.8857 -0.1043  0.7494
  460MOL0     C61987   3.063   9.949  11.576  0.2919  0.1890  0.3314
  460MOL0     C61988   3.192   9.894  11.642 -0.1747  0.4248 -0.1847
  460MOL0     O61989   3.234   9.983  11.749  0.1808  0.1132 -0.9423
  460MOL0     C61990   3.333   9.938  11.836  0.2869 -0.1959  0.3097
  460MOL0     C61991   3.342   9.997  11.963 -0.4787 -0.8582 -0.2072
  460MOL0     C61992   3.443   9.972  12.050 -0.5198  0.2303  0.2299
  460MOL0     C61993   3.440  10.037  12.184  0.3209 -0.3659  0.0569
  460MOL0     C61994   3.539   9.870  12.013 -1.3353 -1.0596  0.5807
  460MOL0     C61995   3.653   9.831  12.100  0.6798 -0.0255 -0.4306
  460MOL0     O61996   3.708   9.703  12.087  0.3294 -0.2740  0.1481
  460MOL0     C61997   3.828   9.677  12.146  0.0728 -0.7227  0.1882
  460MOL0     C61998   3.856   9.709  12.282  0.0930  0.5122 -0.6246
  460MOL0     C61999   3.978   9.673  12.341 -0.0956 -0.1142  0.1967
  460MOL0     C62000   4.082   9.613  12.260 -0.1386 -0.3323 -0.7984
  460MOL0     O62001   4.199   9.585  12.320 -0.3059 -0.0984 -0.6093
  460MOL0     C62002   4.281   9.463  12.293  0.9687 -0.5621 -0.0189
  460MOL0     C62003   4.375   9.443  12.405 -0.8307 -0.0456  0.3786
  460MOL0     C62004   4.465   9.572  12.440  0.2000 -0.9571 -0.3483
  460MOL0     C62005   4.566   9.568  12.559  0.1806 -0.8265 -0.8673
  460MOL0     C62006   4.670   9.458  12.540  1.0172 -0.4584 -0.4741
  460MOL0     C62007   4.774   9.476  12.652 -0.4064  0.1005  0.4228
  460MOL0     C62008   4.891   9.389  12.625 -1.3176  0.7312 -0.3494
  460MOL0     C62009   4.990   9.393  12.746 -0.6818 -0.3090  0.3299
  460MOL0    Cl62010   5.016   9.560  12.795 -0.2172 -0.1801 -0.0118
  460MOL0     C62011   4.052   9.594  12.123 -0.5374  0.6774  0.4728
  460MOL0     C62012   3.927   9.628  12.068  0.2329 -0.4232  0.8726
  460MOL0     O62013   3.702   9.920  12.160 -0.1651 -0.4454  0.4824
  460MOL0     C62014   3.535   9.824  11.886 -0.1121  0.2229  0.4916
  460MOL0     C62015   3.438   9.857  11.798 -0.4505 -0.3585  0.0900
  460MOL0     N62016   2.874   9.915  11.221 -0.0338 -0.1238  0.1951
  460MOL0     N62017   2.873   9.997  11.116  0.3928 -0.3319  0.4991
  460MOL0     C62018   3.994  10.199  11.171 -0.0750 -0.1858  0.0715
  460MOL0     C62019   4.111  10.158  11.240 -0.1943  0.0918 -0.7036
  460MOL0     C62020   4.493  10.000  11.370  0.1726  0.9564 -0.9835
  460MOL0     C62021   4.617  10.060  11.349 -0.4607 -0.0114  0.6818
  460MOL0     C62022   4.721  10.047  11.441 -0.0374 -0.2121 -0.3966
  460MOL0     C62023   4.707   9.964  11.555 -0.3737 -0.1412 -0.6583
  460MOL0     O62024   4.792   9.940  11.657 -0.9818  0.5491  0.4350
  460MOL0     C62025   4.927   9.983  11.639  0.0404 -0.1668 -0.7496
  460MOL0     C62026   4.989   9.945  11.768  0.3436 -0.0062  0.4741
  460MOL0     C62027   5.134   9.924  11.771 -0.0624 -0.1448  0.2314
  460MOL0     C62028   5.188   9.906  11.913 -0.9769 -0.2238  0.2187
  460MOL0     C62029   5.336   9.896  11.914  0.3434  0.8605 -0.2745
  460MOL0     C62030   5.457   9.883  11.897 -0.0975  0.0795 -0.3706
  460MOL0     C62031   4.581   9.898  11.568  0.3678  0.8134  0.1683
  460MOL0     C62032   4.474   9.915  11.485 -1.4418 -0.4889 -0.6332
  460MOL0     H62033   4.064   9.829  11.259  1.3882  0.0456 -3.0527
  460MOL0     H62034   3.840   9.885  11.189 -1.2671  0.2862  2.8485
  460MOL0     H62035   3.675  10.234  11.250  0.4470  3.5106  1.0382
  460MOL0     H62036   3.753  10.345  11.139  1.7920 -0.8197  0.0009
  460MOL0     H62037   3.582  10.300  10.960 -4.6938 -0.1816 -1.4137
  460MOL0     H62038   3.540  10.152  11.039 -0.3020  0.4850 -3.0548
  460MOL0     H62039   3.464  10.332  11.239  0.7215  1.8052 -0.1062
  460MOL0     H62040   3.491  10.445  11.117  3.0220 -0.3632  2.4735
  460MOL0     H62041   3.308  10.330  10.968 -4.1349  1.5228  0.7558
  460MOL0     H62042   3.330  10.183  11.055 -0.4039  0.0364 -0.3320
  460MOL0     H62043   3.229  10.301  11.257 -1.0231 -1.2120  0.0571
  460MOL0     H62044   3.193  10.445  11.142 -2.1703 -1.2508 -1.2048
  460MOL0     H62045   3.088  10.288  10.990 -1.8338  1.3958  0.4284
  460MOL0     H62046   3.101  10.168  11.128 -0.5935 -1.3126 -2.1635
  460MOL0     H62047   2.964  10.335  11.256 -0.9862 -2.4601  0.0458
  460MOL0     H62048   2.943  10.437  11.110 -1.9977 -0.5228 -1.5778
  460MOL0     H62049   2.847  10.239  10.981  0.4457 -1.3746 -0.0211
  460MOL0     H62050   2.746  10.310  11.103  0.6463  0.7017  0.3985
  460MOL0     H62051   2.780  10.193  11.367 -1.2190  0.0414 -0.0760
  460MOL0     H62052   2.790  10.002  11.563 -1.3605  1.3239 -1.7263
  460MOL0     H62053   2.742   9.859  11.485  0.3165  0.2114  1.9017
  460MOL0     H62054   2.987   9.804  11.441 -3.2753  0.9760 -1.4940
  460MOL0     H62055   2.928   9.777  11.605 -1.1767 -0.2653 -0.1815
  460MOL0     H62056   3.016  10.002  11.659  1.4894 -0.5840  1.5477
  460MOL0     H62057   3.085  10.029  11.506 -1.0824  1.1452  0.9476
  460MOL0     H62058   3.266   9.863  11.568  0.8802 -3.1635  2.1301
  460MOL0     H62059   3.165   9.800  11.690  0.9137  0.3235  0.2660
  460MOL0     H62060   3.255  10.056  11.988  0.8772  1.4036 -0.5895
  460MOL0     H62061   3.499  10.129  12.180  1.6545 -1.1426  0.9339
  460MOL0     H62062   3.340  10.067  12.216  0.1682 -0.6141 -0.1802
  460MOL0     H62063   3.486   9.971  12.259 -0.9537 -1.4261 -0.0573
  460MOL0     H62064   3.772   9.749  12.337  0.5945  0.3604  0.2724
  460MOL0     H62065   3.992   9.690  12.447  0.7198 -0.7227  0.1918
  460MOL0     H62066   4.217   9.375  12.287  0.4003 -0.3727  2.2595
  460MOL0     H62067   4.331   9.467  12.195  2.1792  0.3353  0.6004
  460MOL0     H62068   4.312   9.411  12.489 -0.9736 -0.4208  0.1305
  460MOL0     H62069   4.439   9.356  12.388 -1.1489 -0.0981 -0.5819
  460MOL0     H62070   4.389   9.650  12.453 -1.0548 -1.6292 -2.8735
  460MOL0     H62071   4.513   9.620  12.354 -3.3896  1.5746 -1.2146
  460MOL0     H62072   4.618   9.665  12.551  1.1801 -1.0954  1.4623
  460MOL0     H62073   4.523   9.567  12.660 -2.2079  1.8501 -1.7316
  460MOL0     H62074   4.714   9.463  12.440  0.7204 -2.3162 -0.7333
  460MOL0     H62075   4.612   9.365  12.540  0.9172 -0.3948 -0.2126
  460MOL0     H62076   4.807   9.580  12.654 -0.2414  0.0430  0.9112
  460MOL0     H62077   4.735   9.432  12.744 -0.1801 -0.5720  0.2014
  460MOL0     H62078   4.960   9.420  12.547 -1.9047  0.9496 -0.7889
  460MOL0     H62079   4.865   9.287  12.595  1.5132  0.1698 -1.1554
  460MOL0     H62080   5.082   9.347  12.709 -1.9115 -1.3760 -1.5740
  460MOL0     H62081   4.955   9.325  12.824 -2.5269  0.7373  0.4824
  460MOL0     H62082   4.128   9.548  12.061 -1.8838 -1.0595  0.0215
  460MOL0     H62083   3.908   9.594  11.967  0.6402  0.3162  0.5440
  460MOL0     H62084   3.621   9.764  11.860 -0.1175  1.4633 -2.9135
  460MOL0     H62085   3.457   9.822  11.698 -1.5244  0.2705 -0.3512
  460MOL0     H62086   3.981  10.303  11.145  1.1527  0.4593  1.8413
  460MOL0     H62087   4.186  10.229  11.274  2.4137 -1.8861 -1.9475
  460MOL0     H62088   4.634  10.125  11.264 -1.5102 -1.0382 -0.3565
  460MOL0     H62089   4.820  10.090  11.428  0.6498 -0.8591  2.0740
  460MOL0     H62090   4.975   9.936  11.553  1.0792 -1.1245  0.3256
  460MOL0     H62091   4.934  10.092  11.629  0.8095 -0.0170  1.1341
  460MOL0     H62092   4.947   9.853  11.809  1.4839 -1.8663 -2.2851
  460MOL0     H62093   4.971  10.032  11.833 -1.1757 -1.0301  1.4913
  460MOL0     H62094   5.168  10.010  11.711  1.8646 -0.9095  0.1803
  460MOL0     H62095   5.149   9.831  11.716 -1.8603 -0.8579  0.8587
  460MOL0     H62096   5.150   9.813  11.956 -2.0534 -0.0190 -0.2622
  460MOL0     H62097   5.172   9.989  11.982  2.4103  2.4901 -1.9279
  460MOL0     H62098   5.564   9.877  11.890  0.0631 -0.1391  1.8332
  460MOL0     H62099   4.566   9.838  11.657  1.4479  0.4746  0.1429
  460MOL0     H62100   4.375   9.881  11.515 -1.0777 -1.2589 -0.3027
  461MOL0     O62101   0.106   7.849   4.039 -1.4397  0.8141 -0.0007
  461MOL0     C62102   0.129   7.973   4.068  0.2742 -0.1503 -0.3285
  461MOL0     O62103   0.039   8.073   4.045  0.7121 -0.2473 -0.0425
  461MOL0     C62104  -0.082   8.063   3.990 -0.3774  0.2524 -0.5206
  461MOL0     C62105  -0.105   8.139   3.876  0.4984 -0.2224 -0.2737
  461MOL0     C62106  -0.225   8.136   3.813  0.6839 -0.2395  0.2593
  461MOL0     C62107  -0.324   8.047   3.848 -0.1577 -0.6194 -0.3067
  461MOL0     O62108  -0.433   8.076   3.773 -0.5544 -0.1853 -0.0400
  461MOL0     C62109  -0.511   7.958   3.741  0.6427  0.1085 -0.3410
  461MOL0     C62110  -0.621   7.995   3.645 -0.7575  0.2004 -0.6184
  461MOL0     C62111  -0.703   7.875   3.587 -0.2014 -0.5523 -0.2910
  461MOL0     C62112  -0.662   7.837   3.443 -0.5951  0.4901  0.0307
  461MOL0     C62113  -0.738   7.717   3.398  0.5577  0.2101  0.4086
  461MOL0     C62114  -0.705   7.669   3.250 -0.1832  0.0657 -0.1709
  461MOL0     C62115  -0.777   7.530   3.208 -0.3347  0.1318  0.1822
  461MOL0     C62116  -0.931   7.548   3.193 -0.4831 -0.2168  0.0857
  461MOL0     N62117  -1.004   7.420   3.185 -0.9348  0.5412 -0.5944
  461MOL0     C62118  -1.135   7.427   3.175  0.3967  0.5241 -0.0518
  461MOL0     C62119  -1.179   7.303   3.202  0.3176  0.7519 -0.3281
  461MOL0     C62120  -1.320   7.248   3.209 -0.3645 -1.2099  0.3177
  461MOL0     C62121  -1.414   7.321   3.297  0.5410 -0.0434 -0.0418
  461MOL0     C62122  -1.551   7.249   3.300  0.3400 -0.3261  0.1882
  461MOL0     C62123  -1.655   7.329   3.374 -0.4413 -0.2135  0.1617
  461MOL0     O62124  -1.782   7.265   3.371 -0.0794 -0.2096  0.4567
  461MOL0     C62125  -1.880   7.275   3.464  0.6694 -0.2843 -1.0078
  461MOL0     C62126  -1.905   7.382   3.558  0.1812  0.1790  0.3859
  461MOL0     C62127  -2.030   7.413   3.606  0.5691  0.0388  0.7876
  461MOL0     C62128  -2.037   7.531   3.688 -0.0114  0.4413 -0.4032
  461MOL0     C62129  -2.137   7.324   3.583  0.4532 -0.3226 -0.2101
  461MOL0     C62130  -2.268   7.338   3.649  1.2274 -0.3787  0.3126
  461MOL0     O62131  -2.352   7.227   3.648 -0.0150 -0.8698  0.0448
  461MOL0     C62132  -2.488   7.248   3.680  0.3971 -0.0269 -0.6056
  461MOL0     C62133  -2.584   7.208   3.585 -0.2675 -0.2846 -0.1672
  461MOL0     C62134  -2.721   7.228   3.600 -0.7429  0.2503 -0.3508
  461MOL0     C62135  -2.767   7.277   3.729  0.5857 -0.3448 -0.2457
  461MOL0     O62136  -2.900   7.297   3.764  0.0822  0.6502  0.5716
  461MOL0     C62137  -2.991   7.338   3.659 -0.0161  0.6892 -0.2519
  461MOL0     C62138  -3.063   7.226   3.587 -0.1619 -0.7884  0.9886
  461MOL0     C62139  -3.194   7.280   3.537 -0.0010  0.0384  0.6663
  461MOL0     C62140  -3.252   7.174   3.436 -0.3152 -0.1628  0.3402
  461MOL0     C62141  -3.399   7.205   3.408 -0.2860 -0.3008 -0.2918
  461MOL0     C62142  -3.464   7.113   3.305  0.6296 -0.2691 -0.3015
  461MOL0     C62143  -3.596   7.165   3.246  0.5203 -1.4920  0.5192
  461MOL0     C62144  -3.716   7.182   3.352 -0.4036 -0.0444 -0.1763
  461MOL0    Cl62145  -3.820   7.034   3.364  0.1113  0.1597 -0.1792
  461MOL0     C62146  -2.673   7.325   3.825 -0.9322 -0.3387  0.4075
  461MOL0     C62147  -2.533   7.308   3.798 -0.0970  0.7721  0.9100
  461MOL0     O62148  -2.303   7.449   3.684  0.3779  0.1320 -0.1812
  461MOL0     C62149  -2.118   7.216   3.506  0.4630 -0.0442  0.7192
  461MOL0     C62150  -1.992   7.183   3.451 -0.7070  0.5334  0.0274
  461MOL0     N62151  -1.065   7.220   3.226 -0.6292  0.1446 -0.3640
  461MOL0     N62152  -0.956   7.296   3.216 -0.0911 -0.3518  0.3878
  461MOL0     C62153  -0.299   7.959   3.953  0.6660  0.4166 -0.3735
  461MOL0     C62154  -0.181   7.966   4.026 -0.9793  0.3601  0.1302
  461MOL0     C62155   0.270   8.011   4.115 -0.3429 -0.0538 -0.6720
  461MOL0     C62156   0.380   7.918   4.111 -0.6381 -0.8800  0.6580
  461MOL0     C62157   0.508   7.970   4.145  0.1356 -0.2792  0.0843
  461MOL0     C62158   0.528   8.093   4.199  0.3550  0.2950  0.2963
  461MOL0     O62159   0.649   8.111   4.261 -0.0502 -0.5816  0.3657
  461MOL0     C62160   0.727   8.221   4.222 -0.4357 -0.1915  0.2351
  461MOL0     C62161   0.763   8.209   4.066 -0.3533  0.3199 -0.4043
  461MOL0     C62162   0.869   8.324   4.035  0.4125 -0.6007  0.0216
  461MOL0     C62163   0.913   8.332   3.888 -1.1450 -0.0024  0.0942
  461MOL0     C62164   1.025   8.419   3.876 -0.4729 -0.1092 -0.5137
  461MOL0     C62165   1.130   8.479   3.881  0.4744  0.9787 -0.7666
  461MOL0     C62166   0.418   8.174   4.205 -0.2662  0.0681  0.0181
  461MOL0     C62167   0.295   8.134   4.160 -0.1680 -0.2628 -1.1661
  461MOL0     H62168  -0.028   8.197   3.825  0.3179  0.2304 -0.0388
  461MOL0     H62169  -0.235   8.213   3.738  1.1579 -0.6832 -0.2753
  461MOL0     H62170  -0.437   7.891   3.696  2.4449  0.3119  2.1401
  461MOL0     H62171  -0.555   7.899   3.821 -1.1848 -3.1441 -3.4335
  461MOL0     H62172  -0.687   8.049   3.713  1.1025 -0.7582  2.1221
  461MOL0     H62173  -0.601   8.060   3.559 -5.1533 -1.3112 -3.0899
  461MOL0     H62174  -0.689   7.793   3.659 -1.9583 -0.1778  0.5377
  461MOL0     H62175  -0.809   7.901   3.578 -0.5024 -1.9619 -1.2731
  461MOL0     H62176  -0.694   7.923   3.384  0.9159  2.4993  1.9353
  461MOL0     H62177  -0.556   7.815   3.429 -0.8522 -0.2124 -0.8993
  461MOL0     H62178  -0.724   7.643   3.478  1.9565  2.0846  2.0083
  461MOL0     H62179  -0.846   7.734   3.395  0.1020 -2.3426  0.0235
  461MOL0     H62180  -0.727   7.746   3.176  3.1859  0.4960 -0.8841
  461MOL0     H62181  -0.596   7.666   3.241  0.0792  1.2767  1.8600
  461MOL0     H62182  -0.730   7.479   3.124  1.3116 -3.0189  2.8178
  461MOL0     H62183  -0.766   7.467   3.297 -1.3495 -3.1228 -1.8136
  461MOL0     H62184  -0.945   7.607   3.102  3.2218 -0.7639 -0.9917
  461MOL0     H62185  -0.972   7.597   3.282  1.6052  0.8542  0.5141
  461MOL0     H62186  -1.209   7.504   3.158 -0.2574 -0.3180 -1.0960
  461MOL0     H62187  -1.363   7.241   3.109 -0.8010  0.3803  0.3590
  461MOL0     H62188  -1.314   7.150   3.257 -3.7185 -2.6521 -1.8695
  461MOL0     H62189  -1.431   7.421   3.256 -0.9896 -0.0590  0.4868
  461MOL0     H62190  -1.377   7.312   3.400 -2.0431 -0.3599  0.9418
  461MOL0     H62191  -1.542   7.150   3.347  0.3087  0.3723  1.7354
  461MOL0     H62192  -1.578   7.241   3.194  2.7468 -2.7194 -0.3592
  461MOL0     H62193  -1.661   7.426   3.324  3.3883  1.5558  2.6952
  461MOL0     H62194  -1.631   7.361   3.475  1.2321  1.7588 -0.7863
  461MOL0     H62195  -1.821   7.450   3.569  0.0810  1.0152 -2.9339
  461MOL0     H62196  -2.081   7.617   3.637 -2.4824  0.6886  1.9124
  461MOL0     H62197  -2.101   7.511   3.775  1.4063 -2.8510  0.0211
  461MOL0     H62198  -1.937   7.561   3.723  0.8394  0.5127 -2.7322
  461MOL0     H62199  -2.546   7.164   3.493  0.4443 -0.8431  0.3816
  461MOL0     H62200  -2.791   7.192   3.526  1.5085 -3.2857 -0.9992
  461MOL0     H62201  -3.066   7.400   3.708 -0.2383 -0.7033  1.2758
  461MOL0     H62202  -2.931   7.391   3.584 -0.3514 -2.3784 -2.9473
  461MOL0     H62203  -3.004   7.194   3.500 -1.4352  0.2104 -0.2947
  461MOL0     H62204  -3.096   7.148   3.657  0.3650 -0.2639  1.8405
  461MOL0     H62205  -3.192   7.380   3.492 -1.4665 -1.6884 -3.7840
  461MOL0     H62206  -3.256   7.281   3.628  1.4757 -0.2456  1.7189
  461MOL0     H62207  -3.186   7.171   3.349 -2.1910  1.0642 -1.2222
  461MOL0     H62208  -3.240   7.075   3.481 -0.9083  0.4035  1.8262
  461MOL0     H62209  -3.404   7.308   3.370 -1.5069 -0.6171 -1.0525
  461MOL0     H62210  -3.450   7.190   3.504 -1.1643  0.3045 -0.6560
  461MOL0     H62211  -3.395   7.105   3.220 -1.3695  0.0715 -2.0529
  461MOL0     H62212  -3.487   7.014   3.346 -2.4375 -0.6620 -2.5642
  461MOL0     H62213  -3.627   7.101   3.163  1.9716  0.1040 -1.3877
  461MOL0     H62214  -3.582   7.265   3.202 -1.4028 -1.1847  0.5410
  461MOL0     H62215  -3.786   7.251   3.304  0.0678  0.0286 -0.7681
  461MOL0     H62216  -3.695   7.225   3.451 -1.8286 -4.3592  2.2460
  461MOL0     H62217  -2.703   7.368   3.920 -3.4729 -0.4066 -0.2946
  461MOL0     H62218  -2.460   7.332   3.874  2.4955 -0.8915 -0.8980
  461MOL0     H62219  -2.193   7.142   3.481  0.1379  0.4478  0.2275
  461MOL0     H62220  -1.984   7.094   3.389  1.2030 -0.0117  0.9730
  461MOL0     H62221  -0.375   7.895   3.997  0.5954  0.8162  0.0911
  461MOL0     H62222  -0.168   7.911   4.119  1.5508 -1.3851 -1.1397
  461MOL0     H62223   0.368   7.818   4.070  2.1181  0.1787 -3.4153
  461MOL0     H62224   0.598   7.910   4.138  1.1763  1.2399  0.0509
  461MOL0     H62225   0.672   8.313   4.243 -0.9446 -0.4297 -0.0370
  461MOL0     H62226   0.816   8.221   4.286 -0.2152  2.5426  0.0688
  461MOL0     H62227   0.681   8.223   3.994 -1.7860 -1.7361  0.6849
  461MOL0     H62228   0.803   8.110   4.040 -1.3825 -0.3061  0.2837
  461MOL0     H62229   0.956   8.294   4.094  0.1240 -2.1654 -0.3204
  461MOL0     H62230   0.834   8.420   4.076 -0.6331 -0.7298 -0.5508
  461MOL0     H62231   0.830   8.371   3.827 -2.0647  0.0775  1.3520
  461MOL0     H62232   0.949   8.236   3.850  1.9195  1.5821 -1.3214
  461MOL0     H62233   1.216   8.532   3.917 -1.2016  1.8850  2.2107
  461MOL0     H62234   0.448   8.273   4.236 -1.7227  0.7214 -0.5940
  461MOL0     H62235   0.214   8.201   4.187  0.0001 -1.0011  1.4629
  462MOL0     O62236   2.639  10.793   9.304  0.3097  0.5831 -0.2237
  462MOL0     C62237   2.683  10.693   9.246  1.0338  1.0226 -0.2781
  462MOL0     O62238   2.605  10.591   9.199  0.3580  0.3893  0.7627
  462MOL0     C62239   2.467  10.591   9.207 -0.0771 -0.0268 -0.3574
  462MOL0     C62240   2.398  10.530   9.104  0.5403  0.1261  0.3610
  462MOL0     C62241   2.259  10.519   9.115  0.1866 -0.1545  0.4608
  462MOL0     C62242   2.187  10.581   9.220  0.7259  0.4474  0.2804
  462MOL0     O62243   2.048  10.581   9.204 -0.3082  0.0284 -0.5120
  462MOL0     C62244   1.977  10.651   9.310  0.3743 -0.9317 -0.8325
  462MOL0     C62245   1.822  10.634   9.290  0.3042 -0.2005 -0.7415
  462MOL0     C62246   1.783  10.504   9.363  0.1274 -0.8542 -0.0999
  462MOL0     C62247   1.630  10.494   9.370  0.6702  0.7937 -0.1656
  462MOL0     C62248   1.582  10.376   9.466 -1.2244 -0.2763 -0.3366
  462MOL0     C62249   1.448  10.322   9.437  0.4096 -0.3485  0.3702
  462MOL0     C62250   1.421  10.188   9.515  0.0170 -0.4698 -0.3227
  462MOL0     C62251   1.279  10.143   9.493  0.2416 -0.6444 -1.2057
  462MOL0     N62252   1.244  10.113   9.347  0.0769 -0.2405 -0.5470
  462MOL0     C62253   1.205  10.207   9.250 -0.1473 -0.3797  0.1528
  462MOL0     C62254   1.192  10.138   9.136 -0.4502  0.2677 -0.5526
  462MOL0     C62255   1.159  10.201   8.996  0.1124  0.1765  0.0891
  462MOL0     C62256   1.020  10.249   8.964  0.5301 -0.2725  0.6237
  462MOL0     C62257   1.021  10.286   8.817  0.0198 -0.2200  1.1202
  462MOL0     C62258   0.880  10.345   8.778 -0.5635 -0.8425  1.0419
  462MOL0     O62259   0.881  10.422   8.652 -0.1417 -0.5572  0.0123
  462MOL0     C62260   0.771  10.487   8.615  0.7113 -0.2795  0.3934
  462MOL0     C62261   0.703  10.456   8.498  1.1108  0.9714  0.1480
  462MOL0     C62262   0.587  10.525   8.456  0.4509  0.4559 -0.1273
  462MOL0     C62263   0.528  10.501   8.315  0.1269 -0.2856 -0.8345
  462MOL0     C62264   0.534  10.624   8.545  0.1195 -0.4160  0.4207
  462MOL0     C62265   0.417  10.710   8.511 -0.1521 -0.2099  0.6875
  462MOL0     O62266   0.401  10.824   8.585 -1.2950 -0.0096  0.8167
  462MOL0     C62267   0.314  10.920   8.537  0.3942 -0.5010 -0.4479
  462MOL0     C62268   0.361  11.032   8.475 -0.2613 -0.0949  0.1101
  462MOL0     C62269   0.275  11.136   8.431 -0.6472  0.2886 -0.2214
  462MOL0     C62270   0.142  11.130   8.448  1.3816  1.2635  0.0213
  462MOL0     O62271   0.067  11.222   8.384  0.0832 -0.0400 -0.0493
  462MOL0     C62272  -0.039  11.180   8.300 -0.7608  0.2487 -0.0154
  462MOL0     C62273  -0.118  11.284   8.230 -1.0791 -0.0996  0.0634
  462MOL0     C62274  -0.040  11.341   8.119 -0.0461 -0.3463  1.4909
  462MOL0     C62275  -0.092  11.477   8.080 -0.4285  0.1375 -0.1898
  462MOL0     C62276  -0.074  11.516   7.933 -0.3419  0.4672 -0.5117
  462MOL0     C62277   0.076  11.516   7.894 -0.5287  0.0056 -0.2738
  462MOL0     C62278   0.089  11.547   7.750 -0.5821 -0.5015  0.2561
  462MOL0     C62279   0.230  11.570   7.701 -0.3919 -0.6527  0.9185
  462MOL0    Cl62280   0.227  11.547   7.517 -0.3215  0.0758  0.6266
  462MOL0     C62281   0.087  11.009   8.511 -1.0484 -0.3828  0.7117
  462MOL0     C62282   0.176  10.907   8.563 -0.3304  1.1073 -0.6403
  462MOL0     O62283   0.334  10.671   8.429  0.2177  0.1426  0.5232
  462MOL0     C62284   0.605  10.653   8.662  0.2549 -0.3006 -0.7432
  462MOL0     C62285   0.720  10.581   8.701  0.0182 -0.3452  0.3944
  462MOL0     N62286   1.204  10.005   9.156  0.0938  0.5142  0.2534
  462MOL0     N62287   1.251   9.989   9.276  0.2073 -0.5527 -0.0174
  462MOL0     C62288   2.258  10.635   9.330  0.2527  0.6067  0.2421
  462MOL0     C62289   2.397  10.637   9.322 -0.5980  0.7584 -1.2322
  462MOL0     C62290   2.828  10.689   9.212 -0.7090  0.9194 -0.7422
  462MOL0     C62291   2.911  10.800   9.243 -0.8858 -0.0587  0.1144
  462MOL0     C62292   3.044  10.800   9.211 -0.6346  0.5058 -0.6753
  462MOL0     C62293   3.099  10.689   9.152  0.3502 -0.5585  0.2981
  462MOL0     O62294   3.235  10.664   9.125 -0.1685 -0.0973  0.3986
  462MOL0     C62295   3.342  10.745   9.192  0.2428 -0.3080  0.3459
  462MOL0     C62296   3.482  10.729   9.150  0.8082  0.3979  0.2526
  462MOL0     C62297   3.499  10.753   8.993  0.1130 -0.0490 -1.0324
  462MOL0     C62298   3.617  10.684   8.929 -1.0465 -0.3711 -0.1155
  462MOL0     C62299   3.602  10.679   8.787 -0.4962  0.5691 -0.0593
  462MOL0     C62300   3.587  10.661   8.671  0.6798 -0.1231  0.1344
  462MOL0     C62301   3.018  10.574   9.126 -1.2074 -0.3548  0.2383
  462MOL0     C62302   2.884  10.577   9.147  0.1210  0.3268 -0.1608
  462MOL0     H62303   2.454  10.486   9.022 -0.0648 -3.1430  1.5431
  462MOL0     H62304   2.211  10.470   9.031 -0.7470  0.5920  0.5438
  462MOL0     H62305   1.998  10.622   9.413  0.9625  2.8751  0.2848
  462MOL0     H62306   1.999  10.758   9.303 -4.3382  0.1513 -3.5116
  462MOL0     H62307   1.780  10.715   9.350  0.2427 -1.9610  1.7725
  462MOL0     H62308   1.779  10.632   9.190 -2.8277  0.2689  0.4679
  462MOL0     H62309   1.832  10.422   9.309  0.2650 -0.1474 -1.0885
  462MOL0     H62310   1.833  10.503   9.460 -0.2725  0.8752  0.1423
  462MOL0     H62311   1.599  10.590   9.411 -0.0034  1.1139 -1.3680
  462MOL0     H62312   1.592  10.478   9.268  0.7907 -0.8727  0.0103
  462MOL0     H62313   1.664  10.303   9.459 -1.4927 -0.5719 -0.4092
  462MOL0     H62314   1.585  10.413   9.569  2.1851 -0.1937 -0.3426
  462MOL0     H62315   1.377  10.402   9.458  2.0317  0.8781  1.4404
  462MOL0     H62316   1.441  10.303   9.329 -1.0065  3.2668 -0.3098
  462MOL0     H62317   1.487  10.112   9.473  3.8181  3.0327 -1.3103
  462MOL0     H62318   1.430  10.185   9.624 -2.9641 -1.7071 -0.0193
  462MOL0     H62319   1.212  10.224   9.523  0.0721 -0.5090 -1.9370
  462MOL0     H62320   1.255  10.064   9.565  1.2948  1.4738  1.6838
  462MOL0     H62321   1.214  10.316   9.249  2.2152 -0.4942 -1.6099
  462MOL0     H62322   1.217  10.288   8.962 -0.4296 -0.2713 -2.1166
  462MOL0     H62323   1.196  10.125   8.927  2.3849  1.0085  0.3013
  462MOL0     H62324   1.004  10.337   9.025 -1.4543  2.2625 -3.1694
  462MOL0     H62325   0.937  10.181   8.984 -1.6474  1.7241 -1.0124
  462MOL0     H62326   1.035  10.193   8.761 -1.7938 -0.6334  1.2938
  462MOL0     H62327   1.096  10.363   8.795 -0.5236  0.4893  1.6859
  462MOL0     H62328   0.858  10.421   8.854  2.7649  0.3073  1.0233
  462MOL0     H62329   0.801  10.271   8.764 -2.5746  1.5974 -1.6944
  462MOL0     H62330   0.737  10.374   8.435 -3.5812 -1.1047 -0.0731
  462MOL0     H62331   0.525  10.600   8.268  1.1590  1.2834  2.1754
  462MOL0     H62332   0.598  10.434   8.263  0.9816 -1.6355  1.8860
  462MOL0     H62333   0.430  10.453   8.322  0.5159 -1.0368 -0.3743
  462MOL0     H62334   0.468  11.046   8.465 -0.3734 -0.0402 -1.1477
  462MOL0     H62335   0.305  11.222   8.372 -0.7196 -1.3806 -2.8542
  462MOL0     H62336   0.010  11.112   8.230  1.0071  0.6234  0.7959
  462MOL0     H62337  -0.105  11.122   8.365  1.7480 -1.5596  1.0632
  462MOL0     H62338  -0.216  11.248   8.197 -0.9917 -0.9250  0.6510
  462MOL0     H62339  -0.137  11.369   8.296  3.9687  1.1449  0.2854
  462MOL0     H62340  -0.053  11.275   8.032  1.4067  1.0932  0.0995
  462MOL0     H62341   0.068  11.338   8.137 -0.0612 -1.7625  1.4483
  462MOL0     H62342  -0.199  11.483   8.105  0.0618 -1.7505  2.8455
  462MOL0     H62343  -0.043  11.554   8.140  1.4977 -0.5271 -0.8563
  462MOL0     H62344  -0.119  11.614   7.917  1.1796  0.8211 -3.0938
  462MOL0     H62345  -0.118  11.443   7.865  1.2942 -2.1388  1.0518
  462MOL0     H62346   0.144  11.566   7.963 -0.9687 -2.5880  2.2527
  462MOL0     H62347   0.118  11.415   7.903  2.5123  1.3398  2.4231
  462MOL0     H62348   0.025  11.631   7.723 -1.0556 -0.3898  1.6492
  462MOL0     H62349   0.044  11.458   7.706 -1.0116 -0.5197  0.7241
  462MOL0     H62350   0.305  11.509   7.751  0.6157  0.2513  0.5571
  462MOL0     H62351   0.266  11.671   7.721  1.3966 -1.1714  0.4874
  462MOL0     H62352  -0.021  10.999   8.514 -1.1077  0.4763  2.5267
  462MOL0     H62353   0.138  10.823   8.621  0.8043 -0.5772 -2.2074
  462MOL0     H62354   0.590  10.737   8.729  0.5612 -1.0395  0.2628
  462MOL0     H62355   0.771  10.605   8.794  1.2542  0.4058 -0.4493
  462MOL0     H62356   2.212  10.690   9.411 -2.4559 -0.0394 -0.7422
  462MOL0     H62357   2.436  10.688   9.410  0.9049 -0.8677 -0.9050
  462MOL0     H62358   2.869  10.888   9.291 -0.5040 -0.5558  1.3982
  462MOL0     H62359   3.107  10.874   9.259  1.0530 -1.6188  0.6142
  462MOL0     H62360   3.312  10.848   9.172  0.2540 -0.3270  0.2270
  462MOL0     H62361   3.334  10.716   9.297  0.2889  1.8958  1.0061
  462MOL0     H62362   3.509  10.627   9.179 -0.0016 -0.8130 -2.8589
  462MOL0     H62363   3.542  10.809   9.196 -0.8521  1.6541  0.3167
  462MOL0     H62364   3.498  10.857   8.960 -0.2559  0.5924  0.8664
  462MOL0     H62365   3.412  10.708   8.944 -1.2365  2.9798 -1.6258
  462MOL0     H62366   3.639  10.581   8.959  0.9019  0.0508  0.0373
  462MOL0     H62367   3.708  10.740   8.954  0.5027 -3.0322  0.6586
  462MOL0     H62368   3.552  10.653   8.570  0.3931 -3.5266  0.4015
  462MOL0     H62369   3.055  10.478   9.090 -2.5885 -0.2646 -1.5756
  462MOL0     H62370   2.834  10.484   9.124  2.5194 -0.4099 -2.9378
  463MOL0     O62371  11.012   5.510   2.398  0.3150 -0.1411  0.4116
  463MOL0     C62372  11.100   5.425   2.390 -0.1768  0.5819  0.8887
  463MOL0     O62373  11.135   5.336   2.484  0.4647 -0.2514 -0.6103
  463MOL0     C62374  11.066   5.343   2.607  0.5284  0.9265 -0.0824
  463MOL0     C62375  10.972   5.242   2.637  0.6980  0.8946 -0.2223
  463MOL0     C62376  10.899   5.232   2.757 -0.9293 -0.5388 -0.3942
  463MOL0     C62377  10.930   5.318   2.863  0.4199  0.3630 -0.3271
  463MOL0     O62378  10.859   5.316   2.984  0.1610 -0.3258  0.0236
  463MOL0     C62379  10.911   5.378   3.105 -0.0183 -0.5474  0.7964
  463MOL0     C62380  10.812   5.334   3.215  0.6886 -0.4194 -0.4070
  463MOL0     C62381  10.687   5.417   3.217  0.6308  0.1622  0.4562
  463MOL0     C62382  10.582   5.382   3.331 -0.0693  0.0231 -0.0289
  463MOL0     C62383  10.441   5.436   3.307 -0.3837 -0.8740 -0.8285
  463MOL0     C62384  10.356   5.413   3.435 -0.1033  1.1893  0.0652
  463MOL0     C62385  10.295   5.269   3.439 -0.2756 -0.5966  0.1465
  463MOL0     C62386  10.326   5.182   3.561 -0.3584 -0.4622  0.5171
  463MOL0     N62387  10.471   5.133   3.577  0.9924  0.1503  0.5804
  463MOL0     C62388  10.512   5.006   3.528  0.9521  0.0329 -0.4127
  463MOL0     C62389  10.643   5.005   3.549  0.1982  0.1064 -0.1543
  463MOL0     C62390  10.744   4.912   3.514  0.3858  0.8637  0.4337
  463MOL0     C62391  10.798   4.931   3.366 -0.3002 -1.2835 -0.1314
  463MOL0     C62392  10.696   4.930   3.250 -0.0725  0.9373 -0.9580
  463MOL0     C62393  10.631   4.792   3.226 -0.1607  0.2348 -0.2441
  463MOL0     O62394  10.603   4.783   3.083  0.3372 -0.1208  0.5160
  463MOL0     C62395  10.484   4.724   3.040  0.5444 -0.2647 -0.1926
  463MOL0     C62396  10.441   4.607   3.097  0.6176 -0.3460 -1.1381
  463MOL0     C62397  10.318   4.543   3.055  0.2513 -0.2912 -0.4503
  463MOL0     C62398  10.282   4.409   3.109  0.2216 -1.1921  0.7266
  463MOL0     C62399  10.242   4.599   2.951 -0.3224  0.6922 -0.1279
  463MOL0     C62400  10.111   4.543   2.901  0.1841 -1.0850  0.6187
  463MOL0     O62401  10.045   4.448   2.968  0.4739  0.4375 -0.2473
  463MOL0     C62402   9.916   4.420   2.925  0.1559  0.1147 -1.3266
  463MOL0     C62403   9.808   4.493   2.984 -0.3327  0.0351  0.7165
  463MOL0     C62404   9.686   4.479   2.937  0.5059  0.2755 -0.1281
  463MOL0     C62405   9.659   4.390   2.830 -0.1890  0.4521  0.5632
  463MOL0     O62406   9.537   4.383   2.774  1.2063  0.2490  0.6274
  463MOL0     C62407   9.446   4.327   2.863  0.4945  0.8070 -0.1491
  463MOL0     C62408   9.337   4.256   2.777 -0.4424  0.7478 -0.6981
  463MOL0     C62409   9.233   4.185   2.870 -0.5956 -0.7837 -0.0565
  463MOL0     C62410   9.111   4.139   2.783  0.9852  0.5082 -1.1204
  463MOL0     C62411   9.001   4.073   2.872 -0.2266 -0.0058 -0.3738
  463MOL0     C62412   8.861   4.086   2.818  0.3872  0.2037 -0.1919
  463MOL0     C62413   8.756   4.030   2.912 -0.1433  0.0805  0.2893
  463MOL0     C62414   8.618   4.093   2.876  0.6637 -0.0384  0.8384
  463MOL0    Cl62415   8.502   4.057   3.014  0.4328  0.1057  0.0571
  463MOL0     C62416   9.761   4.310   2.770  0.4792 -0.5600 -0.1397
  463MOL0     C62417   9.890   4.334   2.818  0.2329  0.7187  0.6290
  463MOL0     O62418  10.061   4.594   2.797 -0.2889  0.2187 -0.4986
  463MOL0     C62419  10.287   4.721   2.896 -0.1092  0.2173  0.8510
  463MOL0     C62420  10.409   4.775   2.932  1.2809 -0.6792 -0.7154
  463MOL0     N62421  10.675   5.128   3.619  0.5382 -0.2418  0.3744
  463MOL0     N62422  10.572   5.206   3.624  0.6256 -0.1072  0.0568
  463MOL0     C62423  11.028   5.414   2.841  0.3378 -0.2113 -0.6109
  463MOL0     C62424  11.092   5.424   2.715 -0.2706 -0.5109  0.0995
  463MOL0     C62425  11.179   5.408   2.264  0.7059  0.5172  0.3109
  463MOL0     C62426  11.299   5.337   2.258  1.5328  0.7758  0.6475
  463MOL0     C62427  11.363   5.323   2.133 -0.4023 -1.2930 -0.5988
  463MOL0     C62428  11.302   5.361   2.011 -0.1141  0.2510 -0.7414
  463MOL0     O62429  11.363   5.338   1.892  0.3107 -0.0084 -0.1406
  463MOL0     C62430  11.314   5.211   1.840  0.2625  0.4149  0.2209
  463MOL0     C62431  11.391   5.192   1.706 -0.3561  0.4241  0.2912
  463MOL0     C62432  11.544   5.197   1.725  1.0860 -0.2672  0.0408
  463MOL0     C62433  11.619   5.203   1.592 -0.6365 -1.0633  0.3569
  463MOL0     C62434  11.765   5.208   1.614  0.5141 -0.2495  0.2743
  463MOL0     C62435  11.880   5.184   1.645  0.0094  0.6576  0.1680
  463MOL0     C62436  11.178   5.425   2.027 -0.2976  0.3709  0.6073
  463MOL0     C62437  11.117   5.445   2.148 -0.7232  0.8954  0.2049
  463MOL0     H62438  10.955   5.170   2.557 -1.7047  0.3629  0.6788
  463MOL0     H62439  10.823   5.158   2.781 -0.3379 -0.7078  1.0609
  463MOL0     H62440  11.008   5.351   3.148  0.2379  4.1437  3.8474
  463MOL0     H62441  10.922   5.487   3.101  0.3039 -0.5889  0.4481
  463MOL0     H62442  10.765   5.235   3.203 -3.1438  0.8987  1.8103
  463MOL0     H62443  10.851   5.346   3.316 -0.0642  1.6827 -0.3149
  463MOL0     H62444  10.705   5.525   3.213 -1.5450  0.5286 -1.9368
  463MOL0     H62445  10.637   5.392   3.123  1.6280 -1.1942  0.2542
  463MOL0     H62446  10.571   5.273   3.329  0.6771 -0.1414  2.3015
  463MOL0     H62447  10.621   5.420   3.425 -2.1224 -2.1047  1.8086
  463MOL0     H62448  10.450   5.545   3.304  0.0043 -0.9194 -1.5286
  463MOL0     H62449  10.396   5.401   3.214 -2.1792  2.4349 -1.3678
  463MOL0     H62450  10.417   5.416   3.526  1.9107 -0.3649 -1.1546
  463MOL0     H62451  10.269   5.478   3.422 -1.5178 -0.9815 -2.1522
  463MOL0     H62452  10.187   5.286   3.448 -0.2382  0.3145 -0.9688
  463MOL0     H62453  10.312   5.211   3.348 -3.8511 -1.1002 -0.3301
  463MOL0     H62454  10.262   5.093   3.560 -0.8680 -0.0980  0.8223
  463MOL0     H62455  10.297   5.235   3.652 -1.5021  0.5220 -0.3737
  463MOL0     H62456  10.454   4.938   3.466  1.6815 -1.8641  0.8779
  463MOL0     H62457  10.835   4.913   3.575  1.8971 -0.0931 -1.6736
  463MOL0     H62458  10.697   4.815   3.530  0.6557  0.5675 -0.5426
  463MOL0     H62459  10.873   4.855   3.343 -0.0815 -1.2333  0.4076
  463MOL0     H62460  10.858   5.023   3.368  2.1728 -2.7707 -1.2939
  463MOL0     H62461  10.759   4.956   3.164  1.8576  3.0693  0.9458
  463MOL0     H62462  10.628   5.016   3.253  0.1362  1.0811  1.2513
  463MOL0     H62463  10.534   4.791   3.276 -0.3053 -2.6816 -0.3984
  463MOL0     H62464  10.688   4.711   3.273  0.8456  0.5138 -0.9677
  463MOL0     H62465  10.487   4.551   3.178  0.0121 -0.6017 -0.9618
  463MOL0     H62466  10.250   4.339   3.031  0.4047 -0.2029 -0.2760
  463MOL0     H62467  10.365   4.366   3.165  1.9456  1.4550  0.3625
  463MOL0     H62468  10.203   4.422   3.184 -2.5305 -1.0985 -1.9574
  463MOL0     H62469   9.837   4.559   3.066 -0.8532 -0.5396  1.3800
  463MOL0     H62470   9.613   4.549   2.976  1.5735  1.0645  0.4996
  463MOL0     H62471   9.486   4.250   2.930  1.8221  2.7972  1.4956
  463MOL0     H62472   9.401   4.417   2.905  3.6643  3.2300 -1.4936
  463MOL0     H62473   9.278   4.319   2.710  0.7145 -0.4536 -2.9676
  463MOL0     H62474   9.396   4.183   2.721  1.0905  0.4101  1.2198
  463MOL0     H62475   9.206   4.244   2.958  3.3654  0.1813  0.7453
  463MOL0     H62476   9.298   4.115   2.923  3.2796  2.8431  0.5228
  463MOL0     H62477   9.066   4.228   2.738 -1.2627 -0.5580 -1.1435
  463MOL0     H62478   9.143   4.076   2.700 -0.6984 -0.0758 -1.3744
  463MOL0     H62479   9.004   4.119   2.971 -0.7658  0.5464 -0.6035
  463MOL0     H62480   9.011   3.968   2.901 -0.0291  0.5454  1.6368
  463MOL0     H62481   8.841   4.193   2.808 -0.1922  0.1206  0.0692
  463MOL0     H62482   8.856   4.038   2.720 -0.9702  0.0250 -0.0446
  463MOL0     H62483   8.780   4.055   3.016  1.3174 -1.1920  0.2855
  463MOL0     H62484   8.757   3.922   2.896  2.1478  0.0609  0.2624
  463MOL0     H62485   8.582   4.052   2.781 -0.5251  2.0757  0.3047
  463MOL0     H62486   8.635   4.199   2.859  2.5879 -0.6471 -1.5387
  463MOL0     H62487   9.730   4.256   2.682 -2.4040  2.4866 -1.2126
  463MOL0     H62488   9.976   4.282   2.775 -0.6008  1.8136 -2.5939
  463MOL0     H62489  10.224   4.763   2.819  1.4893 -1.7668 -1.6833
  463MOL0     H62490  10.460   4.854   2.877  0.2697  0.3336 -0.2590
  463MOL0     H62491  11.057   5.484   2.920 -2.5434  0.8185 -0.3468
  463MOL0     H62492  11.158   5.510   2.701  0.5583 -0.7416  2.1427
  463MOL0     H62493  11.337   5.299   2.352 -1.3612 -3.0860  0.5246
  463MOL0     H62494  11.454   5.264   2.127 -0.4026 -1.5652  1.4359
  463MOL0     H62495  11.334   5.130   1.910 -2.1434 -0.5279 -0.0680
  463MOL0     H62496  11.207   5.207   1.818  0.5103  3.6870 -2.6391
  463MOL0     H62497  11.368   5.258   1.621 -0.2181 -1.5918 -1.4018
  463MOL0     H62498  11.361   5.091   1.677 -1.6098  0.9739 -0.4526
  463MOL0     H62499  11.569   5.118   1.797 -3.6921 -2.0547  0.1111
  463MOL0     H62500  11.571   5.296   1.762 -3.1787  0.9771  0.3168
  463MOL0     H62501  11.594   5.295   1.540  2.4999  0.9396  2.0873
  463MOL0     H62502  11.610   5.114   1.529  0.4340 -3.6040  3.5276
  463MOL0     H62503  11.977   5.148   1.671 -0.7082 -1.7302 -0.2226
  463MOL0     H62504  11.128   5.466   1.940 -0.2789  2.1388  1.3982
  463MOL0     H62505  11.013   5.473   2.142 -1.0913 -0.6473 -1.3823
  464MOL0     O62506   5.437   5.634   4.908 -0.4644 -0.4728 -0.6449
  464MOL0     C62507   5.443   5.513   4.934  0.0832 -0.5264  0.5307
  464MOL0     O62508   5.331   5.426   4.909 -0.5435 -0.2717 -0.0044
  464MOL0     C62509   5.210   5.470   4.877 -0.6485 -0.2816  0.5030
  464MOL0     C62510   5.152   5.592   4.917 -0.0625  0.9266 -0.6050
  464MOL0     C62511   5.016   5.619   4.877 -0.3073  0.4277  0.3127
  464MOL0     C62512   4.938   5.516   4.824 -0.1519 -0.2407 -0.5171
  464MOL0     O62513   4.808   5.537   4.821  0.8049 -0.1855 -0.2842
  464MOL0     C62514   4.769   5.654   4.750 -0.0791 -0.6443 -0.1343
  464MOL0     C62515   4.621   5.652   4.726  0.3146  0.0963 -0.2305
  464MOL0     C62516   4.572   5.524   4.649  0.0100 -0.6745 -0.7749
  464MOL0     C62517   4.427   5.537   4.608  0.3713  0.6122 -1.0183
  464MOL0     C62518   4.382   5.430   4.505 -0.4330  0.0101 -0.6146
  464MOL0     C62519   4.236   5.452   4.466  0.1911 -0.0897 -0.3805
  464MOL0     C62520   4.200   5.358   4.349  0.5675  1.1484  0.3113
  464MOL0     C62521   4.241   5.397   4.207 -0.2961 -0.3654 -0.1338
  464MOL0     N62522   4.216   5.542   4.190  0.6567 -0.3181 -0.9619
  464MOL0     C62523   4.102   5.607   4.165  0.3907  0.1937 -0.4140
  464MOL0     C62524   4.136   5.734   4.168 -0.1955 -0.4318  0.2121
  464MOL0     C62525   4.041   5.849   4.159 -0.2672 -1.4587 -0.0819
  464MOL0     C62526   4.058   5.955   4.280  0.0994  0.0200  0.4852
  464MOL0     C62527   4.067   5.904   4.415  0.5147 -0.0539 -0.7936
  464MOL0     C62528   3.957   5.814   4.469 -0.7717  0.1024 -0.1759
  464MOL0     O62529   3.829   5.866   4.441 -0.2039 -0.1258 -0.0352
  464MOL0     C62530   3.713   5.801   4.487 -0.6028 -0.0185 -0.6457
  464MOL0     C62531   3.714   5.702   4.585 -0.2042 -0.3579  0.2301
  464MOL0     C62532   3.608   5.630   4.605  0.6928  0.5352 -0.7624
  464MOL0     C62533   3.628   5.492   4.672 -0.0043 -0.6260 -0.3764
  464MOL0     C62534   3.477   5.677   4.579 -0.9097 -1.2415  0.2109
  464MOL0     C62535   3.348   5.594   4.585  0.9684 -0.8763 -0.0371
  464MOL0     O62536   3.227   5.668   4.609  0.4459  1.1022  0.1285
  464MOL0     C62537   3.113   5.592   4.584  0.5485  0.2244  0.4192
  464MOL0     C62538   3.044   5.619   4.471 -0.6248 -0.3786 -0.8445
  464MOL0     C62539   2.919   5.562   4.456  0.0302  0.0923  0.3329
  464MOL0     C62540   2.861   5.480   4.554  0.2569  0.0617  0.2898
  464MOL0     O62541   2.743   5.419   4.518  0.6498  0.1452 -0.4743
  464MOL0     C62542   2.709   5.301   4.590  0.2147  0.1864  0.2394
  464MOL0     C62543   2.571   5.243   4.545 -0.3364  0.2700  0.4768
  464MOL0     C62544   2.553   5.206   4.394  1.1581 -0.0476 -0.2716
  464MOL0     C62545   2.434   5.104   4.381 -0.2583 -0.1172 -0.4571
  464MOL0     C62546   2.398   5.080   4.236 -0.3045 -0.2215 -0.4291
  464MOL0     C62547   2.256   5.009   4.237 -0.4269 -0.0004 -0.4179
  464MOL0     C62548   2.139   5.108   4.258  0.3214 -0.0669 -0.3676
  464MOL0     C62549   2.004   5.049   4.209 -0.1395  0.1056 -0.2449
  464MOL0    Cl62550   1.850   5.123   4.266  0.0751 -0.0139  0.2949
  464MOL0     C62551   2.930   5.466   4.674 -0.0076 -0.1400 -0.0404
  464MOL0     C62552   3.058   5.520   4.694 -0.7409 -0.1314 -0.4465
  464MOL0     O62553   3.352   5.481   4.547 -0.1922 -0.4336 -0.5329
  464MOL0     C62554   3.474   5.796   4.517 -0.9131 -0.1501 -0.5461
  464MOL0     C62555   3.586   5.858   4.465  0.8403 -0.0188  0.4257
  464MOL0     N62556   4.274   5.746   4.176  0.0708  0.3608  0.2765
  464MOL0     N62557   4.322   5.625   4.194  0.8233  0.4861  0.2022
  464MOL0     C62558   4.983   5.395   4.798 -0.5374 -0.7103  0.0387
  464MOL0     C62559   5.123   5.374   4.822 -1.2559 -0.8369  1.2349
  464MOL0     C62560   5.571   5.459   4.988  0.6489 -0.5120  0.2924
  464MOL0     C62561   5.588   5.341   5.045 -0.2278  0.4102 -0.0421
  464MOL0     C62562   5.717   5.291   5.092 -0.0962  0.5473  0.0438
  464MOL0     C62563   5.826   5.371   5.086 -1.1353  0.0778 -0.3389
  464MOL0     O62564   5.953   5.339   5.137  0.5418  0.2131  0.8142
  464MOL0     C62565   6.075   5.372   5.066  0.4647 -0.0002  0.6351
  464MOL0     C62566   6.144   5.488   5.134  1.4322 -0.0427 -1.4407
  464MOL0     C62567   6.287   5.517   5.087 -0.3637 -0.1731 -0.1610
  464MOL0     C62568   6.366   5.596   5.186  1.3190  0.3738 -0.4591
  464MOL0     C62569   6.334   5.737   5.188 -0.0377  1.1548  1.1264
  464MOL0     C62570   6.324   5.858   5.192 -0.1053 -0.6117  1.1478
  464MOL0     C62571   5.812   5.490   5.013 -0.5593  0.8574  0.3443
  464MOL0     C62572   5.687   5.533   4.963 -0.6782 -0.3246 -0.4249
  464MOL0     H62573   5.206   5.672   4.968 -1.6478  0.0927  2.6187
  464MOL0     H62574   4.987   5.719   4.907  2.2199  1.2157  0.3870
  464MOL0     H62575   4.785   5.744   4.809  1.8163 -1.0617  0.0520
  464MOL0     H62576   4.819   5.659   4.653  0.8668  2.5956  0.4123
  464MOL0     H62577   4.577   5.637   4.825  2.1167 -1.6871  0.3710
  464MOL0     H62578   4.591   5.742   4.672  2.3053 -0.0542 -1.7395
  464MOL0     H62579   4.640   5.506   4.565  0.2408 -0.1323 -0.7070
  464MOL0     H62580   4.585   5.440   4.719 -3.4671 -1.9644 -1.4980
  464MOL0     H62581   4.364   5.540   4.698 -2.5724  0.1834 -2.9201
  464MOL0     H62582   4.414   5.634   4.560  0.3582  0.2879 -1.6857
  464MOL0     H62583   4.442   5.443   4.415  0.1634  1.2649 -0.0668
  464MOL0     H62584   4.395   5.328   4.543  0.8951  0.5798  0.5360
  464MOL0     H62585   4.181   5.435   4.559  2.2919 -3.1721  0.4754
  464MOL0     H62586   4.221   5.556   4.435  0.7582 -0.5196 -2.1989
  464MOL0     H62587   4.234   5.256   4.370 -0.4957  1.3439  3.6460
  464MOL0     H62588   4.093   5.338   4.360  0.0853  2.8552 -0.7975
  464MOL0     H62589   4.184   5.325   4.147  1.1969 -3.1494  1.5904
  464MOL0     H62590   4.349   5.393   4.187 -0.4473  2.5838 -2.2392
  464MOL0     H62591   4.002   5.568   4.149  0.8159 -1.1153  0.0127
  464MOL0     H62592   4.061   5.901   4.065 -0.5462  1.0036  1.1368
  464MOL0     H62593   3.939   5.809   4.161 -0.7355 -0.3323  2.8441
  464MOL0     H62594   3.977   6.029   4.277  0.1858  0.1392  0.9823
  464MOL0     H62595   4.150   6.009   4.257 -0.8731  0.3644 -3.1212
  464MOL0     H62596   4.075   5.988   4.485  0.0381 -1.7046  1.3472
  464MOL0     H62597   4.165   5.857   4.423 -0.1405 -1.0860  3.5054
  464MOL0     H62598   3.974   5.806   4.577 -0.8774  0.6839 -0.1125
  464MOL0     H62599   3.960   5.717   4.419  0.9441 -1.5547  2.8737
  464MOL0     H62600   3.808   5.662   4.622  0.2982 -0.2666 -0.9269
  464MOL0     H62601   3.533   5.481   4.726 -1.0848  0.3272 -1.9841
  464MOL0     H62602   3.637   5.425   4.586 -0.9046  0.0351 -1.0053
  464MOL0     H62603   3.704   5.495   4.750  0.2471 -2.5569 -0.4822
  464MOL0     H62604   3.076   5.678   4.385  1.0120  0.0536  0.0311
  464MOL0     H62605   2.872   5.567   4.359 -2.1056 -2.4751  1.1408
  464MOL0     H62606   2.773   5.217   4.559  1.1191  0.4522  1.3169
  464MOL0     H62607   2.712   5.314   4.699  1.5319 -3.0680  0.7105
  464MOL0     H62608   2.547   5.149   4.596 -0.2348 -0.7971 -1.3691
  464MOL0     H62609   2.500   5.320   4.575 -1.0734 -0.1743 -0.1029
  464MOL0     H62610   2.641   5.162   4.347  1.8637  0.8591  0.1874
  464MOL0     H62611   2.530   5.302   4.346  0.5349  0.0203  0.1418
  464MOL0     H62612   2.454   5.009   4.432 -0.7547 -0.0739 -0.1792
  464MOL0     H62613   2.347   5.146   4.432  2.4647 -0.5421  5.3517
  464MOL0     H62614   2.467   5.008   4.191  2.0003  0.3330  1.9831
  464MOL0     H62615   2.395   5.175   4.182  0.1982  2.0892  3.3064
  464MOL0     H62616   2.246   4.961   4.140  2.0106 -2.2721  0.3374
  464MOL0     H62617   2.259   4.938   4.320 -3.2679 -2.1658 -2.0230
  464MOL0     H62618   2.153   5.203   4.205 -2.7502 -0.5588 -2.2670
  464MOL0     H62619   2.128   5.130   4.364 -3.0434  0.3141 -0.7019
  464MOL0     H62620   1.994   4.943   4.236  0.2545  0.0280 -0.3968
  464MOL0     H62621   2.016   5.056   4.100  2.1497 -2.9785 -0.3409
  464MOL0     H62622   2.867   5.442   4.759  0.6426  0.5390  0.6664
  464MOL0     H62623   3.097   5.521   4.795  0.3621  1.3366 -0.8442
  464MOL0     H62624   3.377   5.844   4.516 -1.1657  0.0205  4.4562
  464MOL0     H62625   3.589   5.950   4.406  0.6601  0.0148  0.4679
  464MOL0     H62626   4.918   5.322   4.751  0.0362 -0.9625 -0.3791
  464MOL0     H62627   5.169   5.283   4.784 -0.3760 -1.1844  3.0278
  464MOL0     H62628   5.503   5.280   5.072 -0.3688  0.1358 -1.0718
  464MOL0     H62629   5.730   5.192   5.136 -1.6942  0.0932 -0.4276
  464MOL0     H62630   6.137   5.281   5.062  4.1776  2.3305 -0.7832
  464MOL0     H62631   6.064   5.393   4.960 -1.0990 -1.9858  0.3466
  464MOL0     H62632   6.154   5.454   5.238  2.2135  1.8168 -0.8668
  464MOL0     H62633   6.087   5.581   5.123 -2.5941 -2.3944 -2.7904
  464MOL0     H62634   6.290   5.573   4.993  2.0854 -0.6048 -0.4006
  464MOL0     H62635   6.336   5.420   5.082  3.6488  1.4181  2.9814
  464MOL0     H62636   6.470   5.596   5.152  1.0309 -0.0301 -1.3684
  464MOL0     H62637   6.369   5.554   5.287  2.2404  3.9225  1.1479
  464MOL0     H62638   6.285   5.956   5.175 -0.4379 -0.7602  1.0429
  464MOL0     H62639   5.889   5.564   4.993  1.8471 -1.3477  0.8445
  464MOL0     H62640   5.678   5.627   4.910  0.0167 -0.7752 -1.3867
  465MOL0     O62641   9.111   2.486   7.129 -0.3477  0.0315 -0.4243
  465MOL0     C62642   9.191   2.582   7.118  0.9012 -0.4312 -0.5469
  465MOL0     O62643   9.219   2.650   7.005 -0.2622 -0.5689 -0.1403
  465MOL0     C62644   9.145   2.633   6.895  0.6075 -0.0362 -0.1205
  465MOL0     C62645   9.194   2.567   6.791 -0.5619 -0.3205  0.1751
  465MOL0     C62646   9.131   2.545   6.668  0.4450 -0.2255 -0.7509
  465MOL0     C62647   9.001   2.594   6.648  0.6115  0.3264  0.2150
  465MOL0     O62648   8.927   2.587   6.530  0.2895  0.7548  0.0573
  465MOL0     C62649   8.967   2.476   6.437  0.7830 -0.2655  0.0626
  465MOL0     C62650   8.860   2.448   6.329  0.2497 -0.4227  0.4469
  465MOL0     C62651   8.725   2.430   6.396  0.4755 -0.1351  0.7022
  465MOL0     C62652   8.721   2.289   6.469 -0.0164 -0.4996  0.0587
  465MOL0     C62653   8.583   2.208   6.451 -1.0203  0.3681 -0.0939
  465MOL0     C62654   8.591   2.076   6.535 -0.8258 -0.2631  0.6019
  465MOL0     C62655   8.476   1.971   6.515  0.4178 -0.1750  0.0410
  465MOL0     C62656   8.370   1.998   6.621 -0.5341 -0.1739  0.7504
  465MOL0     N62657   8.243   1.954   6.570  0.0341 -0.5298 -0.3324
  465MOL0     C62658   8.168   1.842   6.609  0.4903  0.6181  0.5426
  465MOL0     C62659   8.043   1.879   6.559 -0.5355  0.7369 -0.0783
  465MOL0     C62660   7.931   1.782   6.577  0.5311  0.2260 -0.3049
  465MOL0     C62661   7.867   1.731   6.453 -0.6367  0.4038 -0.3273
  465MOL0     C62662   7.974   1.678   6.344  0.5598 -0.3551 -0.7651
  465MOL0     C62663   7.930   1.627   6.213  0.2013  0.6569  0.2407
  465MOL0     O62664   7.832   1.710   6.146 -0.4554  0.3928  0.2101
  465MOL0     C62665   7.705   1.680   6.145  0.5301  0.4780 -0.2575
  465MOL0     C62666   7.643   1.736   6.028 -0.8164 -1.0119 -0.8098
  465MOL0     C62667   7.502   1.699   6.009 -0.2543 -0.7121  0.6560
  465MOL0     C62668   7.437   1.775   5.900 -0.2461 -0.0174  0.0965
  465MOL0     C62669   7.434   1.631   6.108 -0.6500  0.0166  0.0126
  465MOL0     C62670   7.289   1.623   6.111  1.1257  0.2069 -1.1513
  465MOL0     O62671   7.234   1.546   6.213  0.5335  0.0135 -0.3120
  465MOL0     C62672   7.100   1.519   6.217 -0.2032  0.3596 -0.5071
  465MOL0     C62673   7.023   1.577   6.311  0.8775 -0.8580 -0.1564
  465MOL0     C62674   6.888   1.552   6.334 -1.0277 -0.1060 -0.5448
  465MOL0     C62675   6.823   1.455   6.264 -1.0388 -0.4810 -0.5516
  465MOL0     O62676   6.694   1.412   6.276 -0.1979 -0.4686 -0.5411
  465MOL0     C62677   6.591   1.512   6.281  0.0607 -0.5080  0.1245
  465MOL0     C62678   6.460   1.447   6.234 -0.2559 -0.4593  0.4583
  465MOL0     C62679   6.359   1.567   6.245 -1.0158 -0.6738 -0.3679
  465MOL0     C62680   6.217   1.535   6.193  0.3668  0.1530 -0.6546
  465MOL0     C62681   6.106   1.512   6.304 -0.4111  0.3004  0.2386
  465MOL0     C62682   5.970   1.567   6.255  0.0232 -0.4439 -0.8383
  465MOL0     C62683   5.870   1.548   6.365 -0.3483  0.8954  0.3713
  465MOL0     C62684   5.743   1.617   6.330 -0.3879 -0.0257  0.3549
  465MOL0    Cl62685   5.617   1.596   6.453 -0.1404 -0.1293 -0.0132
  465MOL0     C62686   6.896   1.397   6.155  0.4171 -0.3095 -0.2845
  465MOL0     C62687   7.035   1.422   6.141 -1.0054 -0.2707  1.0965
  465MOL0     O62688   7.223   1.702   6.042 -0.5353  0.0623 -0.2959
  465MOL0     C62689   7.506   1.570   6.212 -0.3304  1.1074 -0.6419
  465MOL0     C62690   7.642   1.597   6.233 -0.2823 -0.2634 -0.9474
  465MOL0     N62691   8.048   2.004   6.504 -0.0225  0.1277  0.4707
  465MOL0     N62692   8.167   2.045   6.502 -0.6161 -0.0723  0.8210
  465MOL0     C62693   8.937   2.660   6.752 -0.8431  0.1956  0.3994
  465MOL0     C62694   9.009   2.680   6.885  0.1490  0.0683  0.4928
  465MOL0     C62695   9.245   2.637   7.244 -0.3163  0.1724  0.1496
  465MOL0     C62696   9.365   2.702   7.246 -0.1619  0.9922  0.2557
  465MOL0     C62697   9.419   2.762   7.357 -0.5683  0.4336  0.7622
  465MOL0     C62698   9.354   2.754   7.479 -1.2920 -0.2876  0.8198
  465MOL0     O62699   9.414   2.820   7.578 -0.2728 -0.1125  0.2969
  465MOL0     C62700   9.397   2.776   7.709 -0.7813 -0.6783  0.0306
  465MOL0     C62701   9.527   2.817   7.778 -0.0929  0.3043 -0.7566
  465MOL0     C62702   9.506   2.761   7.917  0.4485 -0.3104  0.1628
  465MOL0     C62703   9.619   2.767   8.016 -0.5476 -0.2151 -0.2704
  465MOL0     C62704   9.692   2.900   8.016  0.3704  0.8334  0.4392
  465MOL0     C62705   9.746   3.009   8.025  0.2185  0.2846  0.5813
  465MOL0     C62706   9.236   2.680   7.483 -0.5430 -0.1090  0.6792
  465MOL0     C62707   9.173   2.629   7.365  0.1306 -0.3712 -0.4688
  465MOL0     H62708   9.290   2.516   6.796 -2.2198 -3.5877  2.6061
  465MOL0     H62709   9.179   2.476   6.598  0.5509 -0.0740 -0.8286
  465MOL0     H62710   9.058   2.508   6.385  0.5959  1.1699  0.5754
  465MOL0     H62711   8.984   2.380   6.487  2.3355 -0.5443 -0.9431
  465MOL0     H62712   8.869   2.537   6.267 -0.3727  0.0985  1.0852
  465MOL0     H62713   8.899   2.365   6.270  1.2934  1.0917 -1.0640
  465MOL0     H62714   8.698   2.511   6.465 -2.8079  2.6054 -3.2612
  465MOL0     H62715   8.657   2.439   6.311  1.0347  0.8209  0.3420
  465MOL0     H62716   8.808   2.227   6.448 -1.4220 -2.1607 -1.2517
  465MOL0     H62717   8.740   2.305   6.576 -1.6889  3.4940 -0.0735
  465MOL0     H62718   8.497   2.254   6.500  0.4032  3.0276  0.1062
  465MOL0     H62719   8.550   2.208   6.347 -3.8342  2.7563  0.6582
  465MOL0     H62720   8.676   2.015   6.503 -0.0651  0.6777  0.7697
  465MOL0     H62721   8.601   2.095   6.642  0.1614 -3.4043  1.1602
  465MOL0     H62722   8.428   1.984   6.417 -1.8654  1.9933  1.3173
  465MOL0     H62723   8.517   1.870   6.519 -2.3689 -1.3929 -0.1287
  465MOL0     H62724   8.356   2.106   6.633  0.9612  0.4430 -2.1484
  465MOL0     H62725   8.405   1.952   6.713  0.9515  2.2677  1.4881
  465MOL0     H62726   8.185   1.756   6.672  0.0514 -0.9987 -1.4419
  465MOL0     H62727   7.963   1.693   6.632  0.3997 -0.3028 -1.0668
  465MOL0     H62728   7.853   1.830   6.635 -1.2300  1.1617 -3.2224
  465MOL0     H62729   7.809   1.814   6.410 -0.1338  1.9224  1.7627
  465MOL0     H62730   7.801   1.651   6.486 -1.6910  1.4270  0.1341
  465MOL0     H62731   8.031   1.601   6.396  0.9599 -0.5953 -1.5478
  465MOL0     H62732   8.039   1.760   6.311  0.3413  0.0911 -0.1115
  465MOL0     H62733   7.904   1.522   6.229 -1.6736  1.1535  0.6316
  465MOL0     H62734   8.018   1.626   6.148  1.0917  2.0203  1.3696
  465MOL0     H62735   7.700   1.793   5.955  0.1340  0.1218  0.7518
  465MOL0     H62736   7.510   1.783   5.818  0.3923  0.4388  0.6974
  465MOL0     H62737   7.352   1.729   5.849 -0.2529  1.0604 -0.9067
  465MOL0     H62738   7.404   1.872   5.938  2.2641 -0.5708  4.2647
  465MOL0     H62739   7.068   1.652   6.375 -0.0815  1.8880 -2.5003
  465MOL0     H62740   6.846   1.606   6.419  3.2004  1.4981  0.8123
  465MOL0     H62741   6.579   1.550   6.383 -2.6672  0.4396 -0.4780
  465MOL0     H62742   6.618   1.603   6.227  0.9440 -0.2702  0.9330
  465MOL0     H62743   6.459   1.419   6.128  0.9989 -0.1614  0.3590
  465MOL0     H62744   6.439   1.358   6.295  0.5797 -0.3114  0.9753
  465MOL0     H62745   6.392   1.654   6.188 -1.0690 -0.6647 -0.3854
  465MOL0     H62746   6.358   1.609   6.346  0.8798 -0.1701 -0.5212
  465MOL0     H62747   6.189   1.613   6.122 -2.6894 -1.3016 -1.2062
  465MOL0     H62748   6.226   1.441   6.137  3.6782  0.1292 -0.3250
  465MOL0     H62749   6.139   1.572   6.390 -0.7469  2.4715 -1.0616
  465MOL0     H62750   6.094   1.406   6.328  1.9804  0.4727  2.7581
  465MOL0     H62751   5.978   1.675   6.243 -0.8828  0.0739  2.4193
  465MOL0     H62752   5.934   1.520   6.163 -2.9653 -1.4398  0.7193
  465MOL0     H62753   5.911   1.581   6.460  4.3184 -0.7196 -0.7951
  465MOL0     H62754   5.841   1.443   6.376 -3.0007  1.3244 -1.4474
  465MOL0     H62755   5.705   1.582   6.233 -0.7892  1.9963 -0.2798
  465MOL0     H62756   5.757   1.725   6.316 -0.7245  0.0342  0.4701
  465MOL0     H62757   6.842   1.328   6.091 -1.2383 -1.2592  2.0350
  465MOL0     H62758   7.090   1.378   6.058  0.0945 -1.7450  2.5459
  465MOL0     H62759   7.463   1.509   6.290  1.2816 -0.2225 -0.7566
  465MOL0     H62760   7.691   1.546   6.315 -0.8237 -0.1622 -0.5586
  465MOL0     H62761   8.838   2.697   6.727  0.6717  3.4536 -1.5898
  465MOL0     H62762   8.968   2.722   6.975 -1.3862  1.2775 -0.7217
  465MOL0     H62763   9.435   2.696   7.163  1.3551  0.3787  1.5272
  465MOL0     H62764   9.507   2.824   7.343 -1.1303  1.0626 -0.0952
  465MOL0     H62765   9.315   2.834   7.753  1.2066  3.2030 -0.9331
  465MOL0     H62766   9.369   2.671   7.712 -1.1455 -0.5972 -0.4960
  465MOL0     H62767   9.529   2.926   7.781  0.1036  0.2746  0.8610
  465MOL0     H62768   9.613   2.778   7.723 -0.5805  3.0643 -3.8022
  465MOL0     H62769   9.473   2.657   7.901 -0.6136  0.1817 -1.0080
  465MOL0     H62770   9.418   2.810   7.958  1.3640  1.1185  0.4924
  465MOL0     H62771   9.688   2.688   7.984 -0.6749 -1.6974  2.7212
  465MOL0     H62772   9.589   2.754   8.120  1.4182  2.1182  0.7032
  465MOL0     H62773   9.799   3.102   8.033 -0.8743  0.8838  1.0620
  465MOL0     H62774   9.185   2.690   7.579 -1.3126  1.7319  0.1407
  465MOL0     H62775   9.077   2.580   7.352 -0.8394  1.0102  1.1311
  466MOL0     O62776   3.799   2.277   7.571  0.6512 -0.1252 -0.1691
  466MOL0     C62777   3.842   2.314   7.676 -0.2508  1.2821  0.8408
  466MOL0     O62778   3.777   2.376   7.769  0.9209 -0.3829  0.5124
  466MOL0     C62779   3.657   2.445   7.748 -0.0909 -0.3539 -0.5237
  466MOL0     C62780   3.543   2.395   7.686  0.2909 -0.8598  0.1239
  466MOL0     C62781   3.431   2.481   7.661 -0.1799  0.3866  0.9479
  466MOL0     C62782   3.443   2.616   7.691 -0.0761  0.9007 -0.0961
  466MOL0     O62783   3.345   2.715   7.659 -0.6125  0.4971  0.6192
  466MOL0     C62784   3.276   2.691   7.537  0.4131  0.3712 -0.2748
  466MOL0     C62785   3.199   2.827   7.506 -0.3736 -0.5209  0.3770
  466MOL0     C62786   3.304   2.931   7.470  0.8759  0.2220 -0.6518
  466MOL0     C62787   3.247   3.063   7.403  0.3606 -0.8918  0.8777
  466MOL0     C62788   3.106   3.107   7.450  0.0143 -0.7728  0.6431
  466MOL0     C62789   3.071   3.235   7.365 -0.1612  0.0758  0.8398
  466MOL0     C62790   3.138   3.360   7.417  0.2426 -0.6240 -0.5309
  466MOL0     C62791   3.152   3.468   7.305 -0.6520  0.4726  0.8029
  466MOL0     N62792   3.035   3.504   7.232 -0.5390  0.1360  0.2559
  466MOL0     C62793   3.020   3.469   7.099 -0.0632  0.5865 -0.5009
  466MOL0     C62794   2.886   3.478   7.076 -0.6231  0.1122  0.2988
  466MOL0     C62795   2.828   3.434   6.944  0.1252  0.0665 -0.6102
  466MOL0     C62796   2.676   3.407   6.951  0.1129 -0.3355 -0.2515
  466MOL0     C62797   2.624   3.351   6.817  0.0684 -0.2653  0.2926
  466MOL0     C62798   2.480   3.400   6.794 -0.3803 -0.8556 -0.7122
  466MOL0     O62799   2.445   3.341   6.666  0.1785  1.5666  0.1299
  466MOL0     C62800   2.351   3.411   6.594 -0.1623 -0.3082 -0.4100
  466MOL0     C62801   2.356   3.422   6.455 -0.5431 -1.2541 -0.2588
  466MOL0     C62802   2.261   3.490   6.372 -0.2682  0.3493  0.6176
  466MOL0     C62803   2.285   3.493   6.224 -0.6761 -0.8256  0.5602
  466MOL0     C62804   2.149   3.556   6.441 -0.7197  0.6415  0.0311
  466MOL0     C62805   2.042   3.641   6.370 -0.8586  0.6929  0.4678
  466MOL0     O62806   2.079   3.692   6.250 -0.4273 -0.3350  0.4927
  466MOL0     C62807   1.986   3.778   6.189 -0.0922 -0.6138  0.5293
  466MOL0     C62808   1.939   3.897   6.253 -0.3103  0.4721  0.2908
  466MOL0     C62809   1.846   3.972   6.174 -0.0690  0.3660 -0.6205
  466MOL0     C62810   1.795   3.925   6.057  0.1197 -0.1794  0.2394
  466MOL0     O62811   1.709   4.008   5.993  0.2421 -0.5909  0.0760
  466MOL0     C62812   1.661   3.978   5.855 -0.5364  0.1614  0.0979
  466MOL0     C62813   1.772   4.024   5.753 -0.1997  0.2921  0.6041
  466MOL0     C62814   1.714   4.031   5.617  1.0820 -0.5713  0.1304
  466MOL0     C62815   1.654   3.901   5.554  0.6407 -0.3232 -0.6404
  466MOL0     C62816   1.504   3.891   5.581 -0.2857  0.7781 -0.6992
  466MOL0     C62817   1.479   3.740   5.584  0.0929 -0.2800  0.9593
  466MOL0     C62818   1.333   3.705   5.580  0.0040  0.2318 -0.5222
  466MOL0     C62819   1.286   3.716   5.727 -0.4313  0.7963 -0.2144
  466MOL0    Cl62820   1.376   3.598   5.833  0.1428 -0.2701  0.4385
  466MOL0     C62821   1.849   3.812   5.999  0.1660  1.5676 -0.5823
  466MOL0     C62822   1.940   3.736   6.069  0.2363  0.4391  0.7451
  466MOL0     O62823   1.935   3.659   6.431  0.0018  0.1833  0.7526
  466MOL0     C62824   2.142   3.526   6.577  0.0695  0.4327 -0.0292
  466MOL0     C62825   2.242   3.466   6.659  0.0195  0.0626  0.2314
  466MOL0     N62826   2.826   3.511   7.199  0.0013  0.3030  0.5276
  466MOL0     N62827   2.914   3.514   7.295 -0.2334 -0.4897  0.6900
  466MOL0     C62828   3.561   2.660   7.751  0.4210 -0.1676  0.4086
  466MOL0     C62829   3.659   2.578   7.793 -0.5902  0.4990  0.5827
  466MOL0     C62830   3.985   2.283   7.707 -0.3236 -0.2056 -0.2963
  466MOL0     C62831   4.050   2.352   7.809 -0.0224 -0.2921  0.3676
  466MOL0     C62832   4.176   2.318   7.841 -0.2426 -0.1151  0.4668
  466MOL0     C62833   4.254   2.222   7.772  0.5746  0.1417 -0.3324
  466MOL0     O62834   4.386   2.191   7.783 -0.4622 -0.3827 -0.6183
  466MOL0     C62835   4.484   2.265   7.869  0.4695 -0.5184  0.7308
  466MOL0     C62836   4.466   2.239   8.018 -0.7210 -0.4189 -0.0312
  466MOL0     C62837   4.531   2.099   8.053  0.3413 -0.5432 -0.0757
  466MOL0     C62838   4.445   1.972   8.020  0.3250 -0.5161  0.6989
  466MOL0     C62839   4.315   1.991   8.080  1.3033 -0.0487  0.0311
  466MOL0     C62840   4.201   2.015   8.119 -0.2279 -0.1593  0.2798
  466MOL0     C62841   4.183   2.155   7.675  0.9715 -0.4021  0.1633
  466MOL0     C62842   4.050   2.180   7.641 -0.2545  0.7226  0.1501
  466MOL0     H62843   3.533   2.291   7.656 -2.3482  0.3907 -4.2594
  466MOL0     H62844   3.345   2.443   7.607 -1.3995 -0.9679  3.6800
  466MOL0     H62845   3.332   2.653   7.452  1.7824 -2.0595  1.5843
  466MOL0     H62846   3.207   2.607   7.547  3.2571 -2.1948 -0.6725
  466MOL0     H62847   3.130   2.820   7.421 -0.6683 -3.6607  0.7309
  466MOL0     H62848   3.152   2.870   7.595  2.6696  2.0491  0.8986
  466MOL0     H62849   3.372   2.958   7.551  3.2070 -2.3134 -1.6377
  466MOL0     H62850   3.363   2.881   7.393  0.8269 -0.3424 -0.3312
  466MOL0     H62851   3.311   3.151   7.408 -1.1997  0.2158  2.4732
  466MOL0     H62852   3.230   3.036   7.298 -1.6542 -1.4627  1.3123
  466MOL0     H62853   3.036   3.025   7.429 -1.4551  0.4317  0.7040
  466MOL0     H62854   3.089   3.138   7.553 -2.0028 -2.7734  0.9937
  466MOL0     H62855   3.093   3.219   7.259 -2.7365 -0.6255  0.3389
  466MOL0     H62856   2.964   3.257   7.360 -0.0730  0.2362 -0.8457
  466MOL0     H62857   3.086   3.412   7.498  0.5391 -1.8449  0.4558
  466MOL0     H62858   3.236   3.348   7.462 -0.4995  0.5385  1.5021
  466MOL0     H62859   3.221   3.423   7.233 -1.0817  0.3837  0.4445
  466MOL0     H62860   3.205   3.555   7.344  2.6510 -0.6677 -0.7553
  466MOL0     H62861   3.097   3.437   7.030  0.2303 -1.3044  0.6386
  466MOL0     H62862   2.843   3.496   6.855 -2.0278  0.2815 -0.8653
  466MOL0     H62863   2.868   3.336   6.917  0.7372 -0.0233  0.5552
  466MOL0     H62864   2.632   3.506   6.968  2.8146  0.9723 -0.3327
  466MOL0     H62865   2.655   3.337   7.032  2.1663  0.1257  0.7652
  466MOL0     H62866   2.637   3.242   6.823 -0.6477 -0.2940  1.6955
  466MOL0     H62867   2.691   3.392   6.741  1.0479 -0.8536  0.8194
  466MOL0     H62868   2.487   3.509   6.801  0.3711 -0.9491  0.1262
  466MOL0     H62869   2.417   3.357   6.872  1.6466 -1.1911  0.8278
  466MOL0     H62870   2.422   3.363   6.392 -0.4310  0.1633 -1.5269
  466MOL0     H62871   2.351   3.416   6.184  3.1242  2.2624  0.3093
  466MOL0     H62872   2.189   3.477   6.174  0.0940  0.8286 -1.6427
  466MOL0     H62873   2.331   3.587   6.193 -2.8449 -0.3422 -1.4555
  466MOL0     H62874   1.975   3.936   6.348 -2.5084  0.7923  1.0473
  466MOL0     H62875   1.798   4.059   6.219  0.1509  1.4163 -2.3180
  466MOL0     H62876   1.633   3.874   5.837 -0.0528  0.3459 -1.9904
  466MOL0     H62877   1.565   4.029   5.850 -1.1644 -0.4543  3.4057
  466MOL0     H62878   1.805   4.122   5.788  2.7541 -0.2101 -0.4891
  466MOL0     H62879   1.863   3.964   5.746  0.0059  0.7650 -2.2776
  466MOL0     H62880   1.785   4.083   5.551  0.4376  2.1459  1.4114
  466MOL0     H62881   1.631   4.103   5.617  2.7297  1.4283  0.7810
  466MOL0     H62882   1.662   3.905   5.445  0.8677  0.5885 -0.5971
  466MOL0     H62883   1.717   3.820   5.593  0.1839 -0.2475  0.2869
  466MOL0     H62884   1.445   3.943   5.505  1.3874 -0.0958 -2.7024
  466MOL0     H62885   1.482   3.940   5.676  1.3261 -0.1103  0.1859
  466MOL0     H62886   1.524   3.704   5.491 -0.0355 -2.4944  1.7050
  466MOL0     H62887   1.527   3.689   5.667 -0.2895  2.7821  3.2386
  466MOL0     H62888   1.328   3.606   5.533 -1.4439  0.6179 -1.2491
  466MOL0     H62889   1.273   3.773   5.519 -1.5839  0.3056  1.0531
  466MOL0     H62890   1.180   3.690   5.724  0.0524 -1.3391 -1.4277
  466MOL0     H62891   1.308   3.814   5.769  3.0309 -1.1003  2.9833
  466MOL0     H62892   1.832   3.771   5.900  0.2150 -1.2231  0.4906
  466MOL0     H62893   2.003   3.665   6.015 -0.5108  0.6763 -0.4794
  466MOL0     H62894   2.061   3.567   6.636  0.5413  0.6221  0.4916
  466MOL0     H62895   2.245   3.472   6.768  0.6794  0.9835  0.1767
  466MOL0     H62896   3.579   2.762   7.783  0.2025 -0.4535  1.4890
  466MOL0     H62897   3.751   2.616   7.837 -1.0206  0.5391  1.4558
  466MOL0     H62898   3.998   2.434   7.856  1.6657  1.3085 -0.4008
  466MOL0     H62899   4.219   2.366   7.929 -0.6464 -1.1297  1.2287
  466MOL0     H62900   4.585   2.256   7.828 -0.4003 -3.6246 -1.0522
  466MOL0     H62901   4.465   2.373   7.868 -0.8961 -0.7432 -0.7955
  466MOL0     H62902   4.365   2.255   8.057 -0.7749 -0.9582  0.0593
  466MOL0     H62903   4.529   2.308   8.074  1.6057 -1.8011 -0.8036
  466MOL0     H62904   4.565   2.102   8.157 -0.0493 -0.1274  0.0469
  466MOL0     H62905   4.620   2.091   7.991  0.5853 -1.7735  0.4022
  466MOL0     H62906   4.483   1.875   8.053  1.9268 -0.8970 -1.9566
  466MOL0     H62907   4.445   1.977   7.911  3.9791  1.4640  0.6565
  466MOL0     H62908   4.095   2.030   8.132 -0.1496 -0.1210  0.9233
  466MOL0     H62909   4.243   2.080   7.625  2.1802  0.2611  0.5911
  466MOL0     H62910   4.001   2.124   7.562  0.5883 -1.9594  1.3958
  467MOL0     O62911   5.019   9.741   4.168 -0.3361 -1.0635 -0.6598
  467MOL0     C62912   4.964   9.761   4.277  1.2102  0.2755 -0.0217
  467MOL0     O62913   5.018   9.808   4.384 -0.4019  0.0454  0.5552
  467MOL0     C62914   5.148   9.859   4.383 -0.4040  0.1133  0.7008
  467MOL0     C62915   5.224   9.909   4.270 -0.3732 -0.1667 -0.1757
  467MOL0     C62916   5.355   9.968   4.293 -0.1461 -0.0541  0.1145
  467MOL0     C62917   5.416   9.974   4.416 -0.3475  0.1303  0.1893
  467MOL0     O62918   5.539  10.035   4.417 -0.1428  0.1587  0.2004
  467MOL0     C62919   5.617  10.033   4.535 -0.0265 -0.3437  0.5329
  467MOL0     C62920   5.737  10.128   4.509 -0.4660 -0.0837 -0.2415
  467MOL0     C62921   5.849  10.141   4.616 -0.0280  0.0630  0.6243
  467MOL0     C62922   5.793  10.209   4.743 -1.4699 -0.5019 -0.1921
  467MOL0     C62923   5.896  10.233   4.856 -0.6867 -0.0051 -0.0393
  467MOL0     C62924   5.828  10.273   4.998  0.3427  0.2470  0.1494
  467MOL0     C62925   5.765  10.410   4.986 -0.4345 -0.7771 -0.9078
  467MOL0     C62926   5.745  10.474   5.130  0.0688 -0.6380  0.2566
  467MOL0     N62927   5.747  10.618   5.115 -0.1206 -0.7110  0.1610
  467MOL0     C62928   5.639  10.698   5.076 -0.3206 -0.4179  1.2273
  467MOL0     C62929   5.690  10.826   5.078  0.7250 -0.3918  0.4564
  467MOL0     C62930   5.614  10.952   5.024 -0.5693  0.7795 -0.1496
  467MOL0     C62931   5.476  10.964   5.100  0.3683 -0.0206 -0.0604
  467MOL0     C62932   5.498  11.020   5.239  0.2838  0.6789  0.5289
  467MOL0     C62933   5.388  10.991   5.346 -0.3566  0.0741  0.5508
  467MOL0     O62934   5.380  11.101   5.442 -0.4742  0.3092 -0.3172
  467MOL0     C62935   5.287  11.088   5.540 -0.0787 -0.0314 -0.0367
  467MOL0     C62936   5.246  11.199   5.603 -0.2161  0.6569  0.3143
  467MOL0     C62937   5.149  11.186   5.705 -0.0737  0.4652  0.4576
  467MOL0     C62938   5.122  11.313   5.788  0.2419  0.7400  0.3022
  467MOL0     C62939   5.096  11.062   5.740  0.6558 -0.4639  0.5673
  467MOL0     C62940   4.992  11.040   5.848 -0.1536  0.4763 -0.6267
  467MOL0     O62941   4.981  10.920   5.911  0.0109 -0.3651  0.5229
  467MOL0     C62942   4.896  10.916   6.013  0.7694 -0.9316 -0.3752
  467MOL0     C62943   4.950  10.923   6.142  0.4355  0.0607 -0.0729
  467MOL0     C62944   4.868  10.932   6.257 -0.2137  1.0155  0.4484
  467MOL0     C62945   4.731  10.935   6.237  0.3526  0.6500 -0.4627
  467MOL0     O62946   4.637  10.941   6.338 -0.1476 -0.0253  0.4350
  467MOL0     C62947   4.666  11.022   6.452 -0.1241 -0.2003 -0.0143
  467MOL0     C62948   4.544  11.012   6.547 -0.2906  0.2297  0.3387
  467MOL0     C62949   4.426  11.108   6.514  1.1713  0.1871  0.2488
  467MOL0     C62950   4.299  11.042   6.571 -0.2903 -0.0984  0.3735
  467MOL0     C62951   4.170  11.139   6.568  0.2404 -0.4382  0.1453
  467MOL0     C62952   4.048  11.084   6.636  0.1179  0.6544  0.3405
  467MOL0     C62953   3.932  11.184   6.656  0.4162 -0.1568 -0.4453
  467MOL0     C62954   3.875  11.240   6.533  0.1776 -0.1675 -0.8148
  467MOL0    Cl62955   3.709  11.294   6.568  0.0542 -0.0514 -0.1488
  467MOL0     C62956   4.676  10.925   6.107  1.1426 -0.6845  0.2195
  467MOL0     C62957   4.752  10.924   5.992 -0.5572 -0.7379  0.3205
  467MOL0     O62958   4.921  11.136   5.875  0.4627 -0.2585 -0.5884
  467MOL0     C62959   5.138  10.952   5.665  0.4553  0.1116 -1.4344
  467MOL0     C62960   5.236  10.969   5.573 -0.9838  0.7205  0.4211
  467MOL0     N62961   5.827  10.809   5.121 -0.1938  0.0183 -0.4009
  467MOL0     N62962   5.860  10.691   5.140 -0.3285  0.4183  0.0223
  467MOL0     C62963   5.345   9.924   4.520  0.3930  0.3173 -0.2157
  467MOL0     C62964   5.212   9.882   4.508  0.5878  0.2597 -0.6532
  467MOL0     C62965   4.818   9.703   4.285 -0.1317  0.3653 -0.0037
  467MOL0     C62966   4.731   9.743   4.394  0.0526  0.4533 -0.3196
  467MOL0     C62967   4.598   9.699   4.385  0.4737 -0.5867  0.6142
  467MOL0     C62968   4.554   9.612   4.286  0.3499 -0.2903  0.5037
  467MOL0     O62969   4.427   9.563   4.304  0.1912  0.3497 -0.3946
  467MOL0     C62970   4.367   9.505   4.186  0.2373  0.4863 -1.3586
  467MOL0     C62971   4.219   9.479   4.217 -0.2573  0.0455 -0.8126
  467MOL0     C62972   4.156   9.612   4.262  0.0738 -0.5023  0.2078
  467MOL0     C62973   4.007   9.602   4.267 -0.5691  1.1763 -0.6974
  467MOL0     C62974   3.954   9.510   4.368 -0.1743  0.4869  0.8629
  467MOL0     C62975   3.890   9.438   4.432 -0.0741  0.1941 -0.1967
  467MOL0     C62976   4.639   9.576   4.185 -1.2106  0.5049  0.3387
  467MOL0     C62977   4.776   9.617   4.177 -0.0771 -1.0423  0.2288
  467MOL0     H62978   5.185   9.891   4.170  2.1339  0.1601 -1.2919
  467MOL0     H62979   5.402  10.009   4.204  2.0845 -0.9112  0.8432
  467MOL0     H62980   5.567  10.073   4.624  1.1499  0.5204  0.8383
  467MOL0     H62981   5.650   9.930   4.552  3.8374  0.4135 -1.3057
  467MOL0     H62982   5.773  10.095   4.411  1.4403  1.7744 -0.2419
  467MOL0     H62983   5.702  10.230   4.489  0.0391  0.0825 -0.3201
  467MOL0     H62984   5.889  10.042   4.638  1.4869 -0.4070 -3.4246
  467MOL0     H62985   5.938  10.193   4.580 -0.7245  0.5157 -0.4960
  467MOL0     H62986   5.761  10.312   4.721  1.6688  0.1985 -2.1108
  467MOL0     H62987   5.716  10.142   4.781  0.2333 -2.3662  0.1136
  467MOL0     H62988   5.945  10.138   4.878 -0.4966 -0.2310 -1.3228
  467MOL0     H62989   5.978  10.301   4.830  0.9158 -2.3216 -1.4555
  467MOL0     H62990   5.740  10.210   5.019  0.6156 -0.5689 -1.0356
  467MOL0     H62991   5.902  10.274   5.078  0.6750 -5.4610  0.3453
  467MOL0     H62992   5.826  10.482   4.931 -1.0034  0.8524  0.5199
  467MOL0     H62993   5.671  10.420   4.932  0.4518  0.9157 -2.2122
  467MOL0     H62994   5.827  10.441   5.193  0.1513 -1.4681 -0.2693
  467MOL0     H62995   5.654  10.437   5.178 -0.9202 -0.5799 -1.4604
  467MOL0     H62996   5.535  10.670   5.064 -0.8594  1.9814 -0.4199
  467MOL0     H62997   5.674  11.043   5.014  0.5317  0.0548 -0.3114
  467MOL0     H62998   5.584  10.922   4.923 -3.9370 -0.6598  1.1318
  467MOL0     H62999   5.428  10.866   5.112  3.0230 -1.5762 -1.1246
  467MOL0     H63000   5.419  11.023   5.029  1.0580  2.2203  1.1611
  467MOL0     H63001   5.506  11.129   5.232 -0.7815  0.6810 -1.4256
  467MOL0     H63002   5.589  10.973   5.276 -0.2032 -1.8788 -1.2484
  467MOL0     H63003   5.433  10.907   5.401  0.9374  2.4103  3.3498
  467MOL0     H63004   5.295  10.974   5.291  0.3094  1.4849 -1.1008
  467MOL0     H63005   5.298  11.290   5.574  0.4123  0.1167 -0.2574
  467MOL0     H63006   5.182  11.396   5.749  2.9380 -1.2946 -0.1648
  467MOL0     H63007   5.017  11.342   5.773  0.0672 -0.5426 -1.2386
  467MOL0     H63008   5.146  11.290   5.892 -2.1031 -0.4049  0.6791
  467MOL0     H63009   5.057  10.910   6.155  0.2788 -3.1169 -0.9993
  467MOL0     H63010   4.911  10.928   6.357  1.4198 -1.0147 -0.2443
  467MOL0     H63011   4.761  10.998   6.500 -0.9777 -0.3766  1.6387
  467MOL0     H63012   4.679  11.125   6.417 -0.6012 -0.2398 -0.3279
  467MOL0     H63013   4.518  10.905   6.547  0.4169  0.0320 -1.0665
  467MOL0     H63014   4.580  11.039   6.647  1.3531 -3.7053  0.9939
  467MOL0     H63015   4.404  11.102   6.407  1.5919  0.7359  0.1269
  467MOL0     H63016   4.454  11.211   6.540 -0.4380  0.3325  1.5238
  467MOL0     H63017   4.280  10.948   6.519 -0.4086 -0.7389  1.5455
  467MOL0     H63018   4.333  11.024   6.673  1.7386 -1.7896 -0.5262
  467MOL0     H63019   4.151  11.156   6.462 -2.3022  3.4080  1.0193
  467MOL0     H63020   4.197  11.240   6.599  0.0673  0.1669 -1.5665
  467MOL0     H63021   4.012  10.992   6.588 -2.4419  2.1375 -0.7728
  467MOL0     H63022   4.069  11.048   6.737 -3.4193  0.8518  1.2884
  467MOL0     H63023   3.970  11.257   6.728 -0.9393 -1.1028  1.3406
  467MOL0     H63024   3.855  11.127   6.709 -1.3732  1.4230 -1.2414
  467MOL0     H63025   3.866  11.156   6.464 -1.3756  2.8477 -4.6185
  467MOL0     H63026   3.933  11.320   6.486 -1.0985 -0.7163 -3.5140
  467MOL0     H63027   4.568  10.926   6.096  0.8652 -2.5764  2.1746
  467MOL0     H63028   4.710  10.923   5.892 -0.4536 -0.4919  0.2741
  467MOL0     H63029   5.096  10.853   5.681 -0.0552  0.6636  1.0062
  467MOL0     H63030   5.262  10.887   5.507  1.8462  1.7045  0.1811
  467MOL0     H63031   5.381   9.917   4.623 -1.9475 -0.3967  0.6186
  467MOL0     H63032   5.175   9.847   4.604  1.3519  1.0678 -0.0436
  467MOL0     H63033   4.768   9.811   4.470 -2.3731  0.5493  0.8438
  467MOL0     H63034   4.525   9.720   4.463  0.1400 -0.9939  0.4159
  467MOL0     H63035   4.366   9.564   4.093  1.1645  0.2430 -1.5242
  467MOL0     H63036   4.414   9.412   4.154  0.5456  0.3384 -0.4838
  467MOL0     H63037   4.210   9.402   4.294 -0.6093 -0.1599 -1.0554
  467MOL0     H63038   4.172   9.457   4.121  0.0204  1.9613 -1.4317
  467MOL0     H63039   4.185   9.701   4.206 -0.1176  1.3009  2.7709
  467MOL0     H63040   4.193   9.627   4.364  0.1202 -1.7753  0.3944
  467MOL0     H63041   3.968   9.556   4.175 -3.3553 -2.7177  2.0902
  467MOL0     H63042   3.962   9.700   4.280 -2.4875  0.1964  0.5643
  467MOL0     H63043   3.835   9.362   4.484  1.1668  0.2929  1.3635
  467MOL0     H63044   4.607   9.502   4.113 -0.8437  0.7534 -0.0819
  467MOL0     H63045   4.851   9.598   4.102  3.4230  5.2615  1.4947
  468MOL0     O63046   0.679   2.597   8.990  0.4049  0.6147  0.0748
  468MOL0     C63047   0.725   2.681   9.063  0.4146  0.5625  0.2536
  468MOL0     O63048   0.651   2.770   9.139  0.2291 -0.0413 -0.8535
  468MOL0     C63049   0.515   2.755   9.129  0.4113  0.7004  0.4342
  468MOL0     C63050   0.443   2.761   9.008  0.0332 -0.3463 -0.1514
  468MOL0     C63051   0.300   2.757   9.013 -0.7676  0.0455 -0.3465
  468MOL0     C63052   0.228   2.726   9.137 -0.4429  0.6778  0.0185
  468MOL0     O63053   0.095   2.708   9.116 -0.1484 -0.6524 -0.7243
  468MOL0     C63054   0.012   2.647   9.214  0.8576 -0.0116 -0.3035
  468MOL0     C63055  -0.074   2.760   9.255 -0.7006  0.1251 -0.2700
  468MOL0     C63056  -0.188   2.716   9.356 -0.6777 -0.7502 -0.1065
  468MOL0     C63057  -0.288   2.843   9.368 -0.4634  0.3570 -0.3650
  468MOL0     C63058  -0.424   2.804   9.430 -0.8396  0.6400  0.5071
  468MOL0     C63059  -0.495   2.703   9.351 -0.2024 -0.1165  0.3129
  468MOL0     C63060  -0.645   2.668   9.390 -0.8535 -0.2003 -0.0834
  468MOL0     C63061  -0.678   2.519   9.373 -0.4637  0.1653  0.4092
  468MOL0     N63062  -0.813   2.507   9.321 -0.4494 -0.0672  0.6834
  468MOL0     C63063  -0.845   2.523   9.190  0.0829  0.2145 -0.9637
  468MOL0     C63064  -0.976   2.485   9.182  0.1444 -0.4314  0.2391
  468MOL0     C63065  -1.067   2.482   9.057  0.5439  0.0636 -0.2884
  468MOL0     C63066  -1.217   2.498   9.075 -0.6544  0.6044 -1.2132
  468MOL0     C63067  -1.292   2.437   8.952 -0.2776 -0.3457  0.1263
  468MOL0     C63068  -1.444   2.478   8.942  0.0201  0.3707  0.2286
  468MOL0     O63069  -1.512   2.438   8.819 -0.1952  0.1475 -0.0110
  468MOL0     C63070  -1.650   2.468   8.799 -0.3760 -0.1703  0.6236
  468MOL0     C63071  -1.742   2.549   8.871 -0.8579  0.3997  0.5351
  468MOL0     C63072  -1.875   2.586   8.834 -0.5237  0.1375  0.0377
  468MOL0     C63073  -1.953   2.682   8.909 -0.1189  0.1455 -0.0116
  468MOL0     C63074  -1.924   2.525   8.712  0.7694 -0.3200  0.2653
  468MOL0     C63075  -2.055   2.551   8.652 -0.8628  0.4907 -0.3970
  468MOL0     O63076  -2.067   2.508   8.529  0.2558  0.3113  0.3846
  468MOL0     C63077  -2.192   2.514   8.471 -0.2323 -0.4064  0.7896
  468MOL0     C63078  -2.186   2.598   8.355 -0.1771 -0.1898 -0.1783
  468MOL0     C63079  -2.299   2.598   8.266  0.0629 -0.2583 -1.0304
  468MOL0     C63080  -2.414   2.523   8.288  0.9645  0.4174  0.8213
  468MOL0     O63081  -2.515   2.541   8.198 -0.3207 -0.3257 -0.2526
  468MOL0     C63082  -2.622   2.458   8.215 -0.2093 -0.3749  0.2993
  468MOL0     C63083  -2.720   2.509   8.115  0.0032 -0.3713 -0.0053
  468MOL0     C63084  -2.846   2.424   8.134  0.6188 -0.2169 -0.2699
  468MOL0     C63085  -2.949   2.484   8.050 -0.5858 -0.4828  0.1876
  468MOL0     C63086  -3.096   2.451   8.100  0.3770  0.7383  0.1820
  468MOL0     C63087  -3.140   2.314   8.051  0.5535 -0.0209 -0.0427
  468MOL0     C63088  -3.293   2.274   8.064 -0.5674 -0.4429 -0.1093
  468MOL0     C63089  -3.395   2.378   8.024  0.0770 -0.1126 -0.3077
  468MOL0    Cl63090  -3.565   2.313   8.079 -0.1579  0.2767  0.0524
  468MOL0     C63091  -2.408   2.433   8.396  0.7770 -0.0363  0.5187
  468MOL0     C63092  -2.301   2.424   8.484 -0.3038  0.3464  0.4053
  468MOL0     O63093  -2.144   2.586   8.720 -0.7600  0.3271 -0.0835
  468MOL0     C63094  -1.825   2.452   8.639  0.9705 -0.8203  0.1541
  468MOL0     C63095  -1.699   2.418   8.687 -0.5949  0.0388  0.8421
  468MOL0     N63096  -1.016   2.457   9.310  0.2369 -0.8046 -0.1853
  468MOL0     N63097  -0.912   2.462   9.395  0.5541  0.2100  0.3951
  468MOL0     C63098   0.303   2.703   9.251  1.0818 -0.1821  0.1108
  468MOL0     C63099   0.441   2.722   9.247  0.1051  0.0696  0.6732
  468MOL0     C63100   0.872   2.691   9.058  0.3149 -1.4197  0.0628
  468MOL0     C63101   0.923   2.828   9.069 -0.0515  0.2372 -0.6937
  468MOL0     C63102   1.064   2.840   9.077  0.2716  0.5467  0.3030
  468MOL0     C63103   1.143   2.723   9.038  0.9107 -0.1720  0.3080
  468MOL0     O63104   1.277   2.727   9.008  0.2273  0.0629 -0.1800
  468MOL0     C63105   1.353   2.842   9.035 -0.1489  0.2615  0.9051
  468MOL0     C63106   1.483   2.850   8.947  0.1807 -0.2704 -0.6290
  468MOL0     C63107   1.553   2.983   9.014 -0.6006 -0.1995  0.6284
  468MOL0     C63108   1.635   3.070   8.905 -0.4938  0.7710  0.4570
  468MOL0     C63109   1.725   2.975   8.833 -0.0943  0.5754  0.2678
  468MOL0     C63110   1.804   2.910   8.760  0.5358  0.0685  0.2348
  468MOL0     C63111   1.079   2.601   9.012 -1.3951  0.0913 -0.3928
  468MOL0     C63112   0.949   2.588   9.015  0.0299  0.1922 -0.5693
  468MOL0     H63113   0.485   2.787   8.912 -3.1199  1.3177 -1.2352
  468MOL0     H63114   0.243   2.778   8.923 -0.3349  0.0381 -0.6214
  468MOL0     H63115  -0.038   2.563   9.166  1.3444 -0.7890  0.5199
  468MOL0     H63116   0.062   2.596   9.297 -0.1261 -2.3861 -1.0917
  468MOL0     H63117  -0.016   2.828   9.318  0.4713  0.9647 -2.1957
  468MOL0     H63118  -0.121   2.814   9.172 -0.5888  0.5130 -0.0799
  468MOL0     H63119  -0.239   2.628   9.316 -2.3268  1.1357 -2.4404
  468MOL0     H63120  -0.145   2.691   9.453 -0.7288 -2.3916 -0.4875
  468MOL0     H63121  -0.236   2.924   9.421 -1.3775 -0.6308  2.1754
  468MOL0     H63122  -0.309   2.885   9.269  0.0269 -1.3315 -1.2109
  468MOL0     H63123  -0.440   2.766   9.532  0.1926  1.7954  1.1277
  468MOL0     H63124  -0.485   2.895   9.433  1.6031  2.3550  0.1527
  468MOL0     H63125  -0.494   2.737   9.247 -0.0926 -2.8686 -0.6593
  468MOL0     H63126  -0.439   2.610   9.362  1.1400  0.7126  0.6877
  468MOL0     H63127  -0.647   2.702   9.494  1.4509 -0.2323  0.0121
  468MOL0     H63128  -0.721   2.727   9.338 -1.1565  1.0160  1.6456
  468MOL0     H63129  -0.665   2.467   9.469  0.1034 -0.9336 -0.2447
  468MOL0     H63130  -0.610   2.471   9.301 -0.7294  0.5215 -0.0760
  468MOL0     H63131  -0.776   2.561   9.116  0.3795  0.5268 -0.5390
  468MOL0     H63132  -1.050   2.570   8.994 -0.1424  1.7103  1.6786
  468MOL0     H63133  -1.055   2.384   9.010 -1.7561 -0.7659  0.7204
  468MOL0     H63134  -1.227   2.607   9.080 -0.4363  0.6190 -1.0760
  468MOL0     H63135  -1.248   2.441   9.164  2.7346  2.0562  1.0970
  468MOL0     H63136  -1.290   2.328   8.949 -1.4012 -0.5474  3.0241
  468MOL0     H63137  -1.241   2.487   8.869 -0.6360 -0.2189 -0.0227
  468MOL0     H63138  -1.467   2.585   8.948 -2.8670  0.3692 -4.7679
  468MOL0     H63139  -1.477   2.433   9.036 -1.9217 -1.3746 -1.1810
  468MOL0     H63140  -1.709   2.600   8.961 -0.8605 -0.0315  0.7813
  468MOL0     H63141  -2.032   2.638   8.971 -1.5652  3.1524  0.4251
  468MOL0     H63142  -1.882   2.738   8.970  0.0314 -1.4783  1.3671
  468MOL0     H63143  -2.000   2.744   8.832 -1.8123  0.4774  1.2329
  468MOL0     H63144  -2.102   2.660   8.325 -1.0302  1.0161 -0.1303
  468MOL0     H63145  -2.297   2.668   8.183 -0.7658  0.8571 -0.1431
  468MOL0     H63146  -2.617   2.359   8.169 -2.5260 -1.1536  1.5543
  468MOL0     H63147  -2.666   2.448   8.314 -1.5739 -3.1968 -0.4823
  468MOL0     H63148  -2.746   2.611   8.144  2.6182  0.2144  0.5332
  468MOL0     H63149  -2.670   2.508   8.017  2.4610 -1.3748  1.1735
  468MOL0     H63150  -2.878   2.411   8.238 -1.1726 -2.3504 -1.0342
  468MOL0     H63151  -2.833   2.323   8.097 -0.6301 -0.2007 -0.8010
  468MOL0     H63152  -2.960   2.592   8.061 -1.8668 -0.6833  1.1445
  468MOL0     H63153  -2.937   2.462   7.943 -2.4959 -0.6823 -0.0144
  468MOL0     H63154  -3.169   2.527   8.070 -1.9494 -1.3053  0.3560
  468MOL0     H63155  -3.094   2.464   8.209 -1.9551  2.9069  0.0759
  468MOL0     H63156  -3.116   2.317   7.945 -0.4949 -3.0565 -0.4643
  468MOL0     H63157  -3.077   2.244   8.106  0.2737  0.4553  0.9141
  468MOL0     H63158  -3.315   2.237   8.165  1.6844 -0.1396  0.5581
  468MOL0     H63159  -3.289   2.188   7.998 -2.2933  0.2155 -1.1194
  468MOL0     H63160  -3.394   2.401   7.917  1.9383 -1.4815 -0.6278
  468MOL0     H63161  -3.372   2.471   8.076 -3.0071  0.2129  0.6893
  468MOL0     H63162  -2.490   2.363   8.411  0.8930 -0.0391  1.2073
  468MOL0     H63163  -2.283   2.339   8.549  4.2169 -1.1262 -2.2937
  468MOL0     H63164  -1.848   2.407   8.543 -2.5624  2.8627 -0.9580
  468MOL0     H63165  -1.627   2.376   8.618 -0.9880  0.3680  0.2237
  468MOL0     H63166   0.263   2.675   9.348 -1.4629 -1.2703 -1.1592
  468MOL0     H63167   0.498   2.720   9.340  1.4675  0.7585 -0.1176
  468MOL0     H63168   0.865   2.918   9.089 -1.4220 -0.1294 -2.6966
  468MOL0     H63169   1.103   2.939   9.100  0.6154  0.2547  1.0170
  468MOL0     H63170   1.293   2.933   9.029  0.0696  0.3144 -0.6858
  468MOL0     H63171   1.391   2.829   9.137  3.1103 -0.4696 -0.2933
  468MOL0     H63172   1.464   2.858   8.840 -0.2791 -2.3452 -0.7393
  468MOL0     H63173   1.548   2.762   8.943  1.2357  0.5408 -2.3412
  468MOL0     H63174   1.626   2.949   9.088 -0.1734  1.2944  0.9251
  468MOL0     H63175   1.480   3.047   9.064 -2.1162 -0.9728 -0.4937
  468MOL0     H63176   1.692   3.134   8.973  3.7117 -1.1573 -0.8941
  468MOL0     H63177   1.564   3.130   8.848 -0.9530  1.0414  1.2990
  468MOL0     H63178   1.875   2.860   8.697 -0.1062  0.5389 -0.8874
  468MOL0     H63179   1.139   2.519   8.972 -1.4982 -2.3627  3.8733
  468MOL0     H63180   0.899   2.499   8.979 -1.3562  0.9433 -0.5999
  469MOL0     O63181   0.542   0.973   7.838  0.5197 -1.3592  0.9442
  469MOL0     C63182   0.559   0.998   7.717  0.0534 -0.5412  0.0516
  469MOL0     O63183   0.674   0.960   7.652  0.5300  0.2291 -0.1110
  469MOL0     C63184   0.791   0.904   7.699  0.1375 -0.1446 -0.4479
  469MOL0     C63185   0.821   0.856   7.828  0.8669 -0.1850  0.2201
  469MOL0     C63186   0.949   0.805   7.870 -0.0126 -0.1417 -0.3898
  469MOL0     C63187   1.052   0.798   7.777 -0.1519  0.3667  0.1414
  469MOL0     O63188   1.179   0.752   7.803 -0.5076  0.1002  0.0573
  469MOL0     C63189   1.215   0.740   7.943  0.8333 -0.1899 -0.8199
  469MOL0     C63190   1.364   0.711   7.972 -0.5451 -0.2378 -0.0724
  469MOL0     C63191   1.419   0.588   7.901  0.1436  0.6171 -0.1006
  469MOL0     C63192   1.346   0.451   7.940 -0.8830  0.3035 -0.2057
  469MOL0     C63193   1.406   0.330   7.868  0.1369 -1.0794  0.4577
  469MOL0     C63194   1.352   0.198   7.918  0.3315  0.2426 -0.8170
  469MOL0     C63195   1.213   0.176   7.847 -0.4256  0.4485 -0.6480
  469MOL0     C63196   1.129   0.069   7.917 -0.2308  0.4879  0.6107
  469MOL0     N63197   1.009   0.053   7.831 -0.2517  0.0769  0.3618
  469MOL0     C63198   0.891   0.109   7.851 -0.6049 -0.5967 -0.3845
  469MOL0     C63199   0.811   0.056   7.752 -0.0274 -0.3623  0.4631
  469MOL0     C63200   0.662   0.079   7.718  0.0428  0.7468 -0.9444
  469MOL0     C63201   0.648   0.211   7.646  0.5146 -0.4477  0.5852
  469MOL0     C63202   0.679   0.221   7.493  0.2296 -0.4338 -0.3724
  469MOL0     C63203   0.715   0.365   7.449  0.2826  0.8802  0.4146
  469MOL0     O63204   0.607   0.460   7.480 -0.5001  0.1897 -0.2537
  469MOL0     C63205   0.526   0.518   7.378 -0.5359 -0.5903 -0.3137
  469MOL0     C63206   0.483   0.649   7.402  1.0238  1.4757 -1.3676
  469MOL0     C63207   0.383   0.691   7.312  0.4876 -0.5794 -0.2259
  469MOL0     C63208   0.335   0.835   7.350  0.2053 -0.2976 -1.0544
  469MOL0     C63209   0.329   0.625   7.211  0.6358  0.5399  0.1918
  469MOL0     C63210   0.221   0.679   7.117  0.3139 -0.6265  0.3769
  469MOL0     O63211   0.155   0.797   7.143  0.2945  0.6233  0.0908
  469MOL0     C63212   0.090   0.870   7.048  0.3079  0.1815 -0.0273
  469MOL0     C63213   0.017   0.826   6.938 -0.5074  0.3405  0.4989
  469MOL0     C63214  -0.041   0.914   6.849 -0.7262  0.5339  0.0356
  469MOL0     C63215  -0.012   1.051   6.867  0.3042  0.0755 -0.5969
  469MOL0     O63216  -0.073   1.136   6.782  0.1175 -0.5929  0.5115
  469MOL0     C63217  -0.214   1.141   6.795 -0.5069 -0.2576  0.1202
  469MOL0     C63218  -0.246   1.273   6.727 -0.0222 -1.0534 -0.1105
  469MOL0     C63219  -0.398   1.305   6.773 -0.3789  0.6518 -0.2933
  469MOL0     C63220  -0.480   1.386   6.669 -0.1937  0.4185  0.7487
  469MOL0     C63221  -0.521   1.517   6.730 -0.3177  0.6004  0.4530
  469MOL0     C63222  -0.610   1.592   6.632 -0.0636 -0.1031 -0.4032
  469MOL0     C63223  -0.639   1.736   6.682 -0.4425  0.1216 -0.1562
  469MOL0     C63224  -0.674   1.756   6.829 -0.4475  0.7700 -0.0255
  469MOL0    Cl63225  -0.639   1.931   6.843  0.3373  0.0500 -0.0840
  469MOL0     C63226   0.058   1.103   6.973 -0.4900  0.7615  0.7014
  469MOL0     C63227   0.102   1.008   7.070  1.0712 -0.1156  0.2547
  469MOL0     O63228   0.220   0.622   7.010  0.6549  0.0737  0.5306
  469MOL0     C63229   0.383   0.496   7.187  0.7766 -0.1135 -0.6223
  469MOL0     C63230   0.473   0.438   7.273 -0.9650 -0.4153 -0.5323
  469MOL0     N63231   0.887  -0.032   7.671  0.1952 -1.0095  0.0706
  469MOL0     N63232   1.005  -0.029   7.719 -0.3561  0.9087 -1.0554
  469MOL0     C63233   1.023   0.838   7.643 -0.9414  0.1835  0.1119
  469MOL0     C63234   0.896   0.887   7.604  0.0679  0.4527 -0.0153
  469MOL0     C63235   0.450   1.076   7.646  0.4421  0.1519  0.7766
  469MOL0     C63236   0.480   1.146   7.530 -0.0851  0.1019  1.2123
  469MOL0     C63237   0.390   1.214   7.450 -0.0860  0.5635  0.3366
  469MOL0     C63238   0.260   1.216   7.491  0.3781 -0.6444 -0.6239
  469MOL0     O63239   0.151   1.273   7.439 -0.1612  0.0380 -0.1824
  469MOL0     C63240   0.163   1.316   7.307  0.5101 -0.6810  0.0342
  469MOL0     C63241   0.047   1.401   7.271  0.3823 -0.4075 -0.2848
  469MOL0     C63242  -0.086   1.319   7.276 -0.1744  0.3663  0.2553
  469MOL0     C63243  -0.217   1.398   7.234  0.5198 -0.5297  0.3454
  469MOL0     C63244  -0.212   1.458   7.098  0.0189  0.1968  0.1508
  469MOL0     C63245  -0.208   1.509   6.987  0.5791 -0.3763 -0.9873
  469MOL0     C63246   0.234   1.175   7.624 -0.7567  0.6668  0.3622
  469MOL0     C63247   0.330   1.107   7.704  0.3263 -0.9636  0.3492
  469MOL0     H63248   0.745   0.872   7.903 -0.8594 -0.9642 -1.2800
  469MOL0     H63249   0.965   0.773   7.972  0.6400 -1.5566 -0.9141
  469MOL0     H63250   1.189   0.834   7.993 -1.7210 -1.4492  0.3924
  469MOL0     H63251   1.161   0.654   7.984  2.3433 -1.4444 -1.3763
  469MOL0     H63252   1.429   0.797   7.954  0.3280 -1.1756 -1.5906
  469MOL0     H63253   1.379   0.691   8.079  1.6338  0.6535 -0.1589
  469MOL0     H63254   1.409   0.598   7.793 -0.2394  1.3451 -0.0033
  469MOL0     H63255   1.522   0.578   7.939 -0.0675  0.9574  0.5706
  469MOL0     H63256   1.349   0.439   8.049  2.6458 -3.1113 -0.4734
  469MOL0     H63257   1.239   0.454   7.918 -0.9391  0.7933  0.1144
  469MOL0     H63258   1.386   0.342   7.761  2.5121 -2.5424 -0.2385
  469MOL0     H63259   1.514   0.335   7.887 -0.3187  1.3162  3.0716
  469MOL0     H63260   1.417   0.122   7.875 -2.3715 -1.3544 -2.3789
  469MOL0     H63261   1.349   0.187   8.027  3.2134  2.6991 -0.3406
  469MOL0     H63262   1.160   0.271   7.851  1.1707  1.3396  0.1891
  469MOL0     H63263   1.231   0.154   7.742  0.0625 -3.1935  0.0621
  469MOL0     H63264   1.100   0.102   8.017 -4.2564 -2.9442  0.8875
  469MOL0     H63265   1.199  -0.014   7.930 -0.2180  0.3978 -0.0039
  469MOL0     H63266   0.865   0.189   7.919 -2.9830 -0.3576 -1.4686
  469MOL0     H63267   0.634   0.002   7.645  3.1216 -2.3812  0.8790
  469MOL0     H63268   0.609   0.081   7.813  0.6157 -1.3112 -0.5419
  469MOL0     H63269   0.694   0.292   7.704  0.8639 -1.0925  1.2192
  469MOL0     H63270   0.544   0.244   7.650  1.1590  1.8253  0.1291
  469MOL0     H63271   0.589   0.181   7.447  1.0961 -1.7840 -0.9479
  469MOL0     H63272   0.755   0.148   7.464  0.5520 -0.7463  1.1735
  469MOL0     H63273   0.752   0.367   7.346  4.2944 -1.8770  1.5705
  469MOL0     H63274   0.808   0.395   7.499  2.3735 -0.5246 -2.3449
  469MOL0     H63275   0.524   0.718   7.475  0.8322  0.5124 -0.3276
  469MOL0     H63276   0.371   0.886   7.439 -0.9928  1.8772 -1.7279
  469MOL0     H63277   0.355   0.906   7.269 -0.3388  1.9060  0.6773
  469MOL0     H63278   0.227   0.844   7.366  0.5987 -0.0315  1.9893
  469MOL0     H63279   0.003   0.721   6.913  1.8069  0.2383 -0.6736
  469MOL0     H63280  -0.100   0.886   6.762  2.4973  2.1108 -2.9151
  469MOL0     H63281  -0.259   1.053   6.747 -0.8575  0.7741 -1.5145
  469MOL0     H63282  -0.238   1.130   6.901  2.2633 -2.7136  0.6187
  469MOL0     H63283  -0.179   1.352   6.762 -2.9845  0.6221  2.3830
  469MOL0     H63284  -0.221   1.251   6.623  1.5112 -1.2329  0.2735
  469MOL0     H63285  -0.392   1.353   6.871  1.4294  5.8846 -2.5351
  469MOL0     H63286  -0.443   1.206   6.779  1.0107  0.0048 -0.1654
  469MOL0     H63287  -0.449   1.395   6.565 -4.3277  5.0438 -0.4170
  469MOL0     H63288  -0.577   1.335   6.658  0.3459 -0.1622 -2.1199
  469MOL0     H63289  -0.438   1.576   6.768 -0.4534  1.4127 -0.4752
  469MOL0     H63290  -0.581   1.495   6.819 -1.4291  0.6930 -0.2406
  469MOL0     H63291  -0.580   1.584   6.527  0.4304 -2.2751 -0.1281
  469MOL0     H63292  -0.705   1.539   6.625  0.6689 -1.7453  1.2689
  469MOL0     H63293  -0.714   1.783   6.617 -0.6451 -1.9542 -1.4891
  469MOL0     H63294  -0.546   1.793   6.674 -0.9731  1.0012 -0.2795
  469MOL0     H63295  -0.616   1.708   6.908  1.6611 -3.1463 -3.5671
  469MOL0     H63296  -0.778   1.729   6.851  0.3386 -1.0473  1.8520
  469MOL0     H63297   0.079   1.209   6.983 -1.6723  0.9494  1.4236
  469MOL0     H63298   0.154   1.041   7.160  1.9388  0.0812 -0.3060
  469MOL0     H63299   0.343   0.440   7.103 -1.8067  1.0324 -0.2400
  469MOL0     H63300   0.520   0.343   7.250 -0.5851  0.0039 -1.5628
  469MOL0     H63301   1.108   0.832   7.576 -1.7417 -0.5214 -0.8744
  469MOL0     H63302   0.880   0.905   7.498  0.7391 -0.0184 -0.2008
  469MOL0     H63303   0.578   1.151   7.485 -1.2714  2.0083 -1.4403
  469MOL0     H63304   0.428   1.260   7.359 -0.4113 -3.2732 -1.9329
  469MOL0     H63305   0.251   1.379   7.288 -0.2391  0.0615 -1.0955
  469MOL0     H63306   0.159   1.226   7.246  0.1394  0.0327 -1.0208
  469MOL0     H63307   0.051   1.447   7.171  0.4908  0.8569  0.2833
  469MOL0     H63308   0.046   1.489   7.336 -1.4533 -0.0847 -0.6739
  469MOL0     H63309  -0.105   1.301   7.383  1.4738 -1.5186  0.2879
  469MOL0     H63310  -0.078   1.226   7.220  2.7673  0.7335 -0.0924
  469MOL0     H63311  -0.246   1.480   7.301 -1.2273  1.8759 -3.0496
  469MOL0     H63312  -0.297   1.324   7.230  1.9066 -2.1852  1.6679
  469MOL0     H63313  -0.215   1.532   6.882 -1.6975 -1.4259 -1.1281
  469MOL0     H63314   0.137   1.198   7.666 -1.3521 -2.0143  0.6748
  469MOL0     H63315   0.311   1.086   7.809 -0.1136 -0.0616  0.4567
  470MOL0     O63316   6.663   5.837   1.973  0.6060  0.6629  0.3343
  470MOL0     C63317   6.692   5.907   2.073 -0.1896  0.6949  0.1924
  470MOL0     O63318   6.807   5.979   2.090 -0.2078  0.1062  0.7148
  470MOL0     C63319   6.892   5.960   1.977  0.1241  0.3268 -0.3596
  470MOL0     C63320   7.003   5.896   2.000 -0.1726  0.5892  0.7899
  470MOL0     C63321   7.096   5.873   1.902  0.1910  0.1327 -0.1676
  470MOL0     C63322   7.090   5.950   1.787  0.4283  0.5261  0.6532
  470MOL0     O63323   7.181   5.928   1.681 -0.8529 -0.1058  0.4069
  470MOL0     C63324   7.219   6.046   1.604  0.1122 -0.6005  1.0450
  470MOL0     C63325   7.351   6.023   1.525 -0.2348  0.4126  0.1426
  470MOL0     C63326   7.469   6.087   1.595  0.1509  0.7548 -0.9869
  470MOL0     C63327   7.586   5.984   1.611  0.1669 -0.1739  0.3924
  470MOL0     C63328   7.708   6.052   1.550 -0.0439 -0.3107  0.1345
  470MOL0     C63329   7.825   5.958   1.565  0.0641  0.0175 -0.3316
  470MOL0     C63330   7.951   6.047   1.533 -0.0518  0.2219 -0.2500
  470MOL0     C63331   8.075   5.967   1.520 -0.0135  0.7185 -0.1380
  470MOL0     N63332   8.107   5.929   1.381 -0.0785 -0.1239 -0.7182
  470MOL0     C63333   8.140   6.020   1.288  1.4990  0.4202 -0.0097
  470MOL0     C63334   8.181   5.955   1.176 -1.1034  0.4134  0.2487
  470MOL0     C63335   8.228   6.013   1.054  0.6548  0.4222  1.0945
  470MOL0     C63336   8.380   6.023   1.038 -0.6282 -0.0353  0.3209
  470MOL0     C63337   8.422   6.077   0.898 -0.4744 -0.1801  0.3454
  470MOL0     C63338   8.569   6.093   0.875  0.0281 -0.0340  0.2380
  470MOL0     O63339   8.579   6.167   0.753  0.6467  0.4112  1.0816
  470MOL0     C63340   8.695   6.229   0.717  0.0811  0.3033 -0.6371
  470MOL0     C63341   8.689   6.307   0.601 -0.6194  0.1630  0.4256
  470MOL0     C63342   8.804   6.378   0.551 -0.4344  0.0724 -0.6707
  470MOL0     C63343   8.793   6.445   0.416 -1.0250  0.0468 -0.8510
  470MOL0     C63344   8.929   6.372   0.635 -1.0370 -0.5338  0.2163
  470MOL0     C63345   9.061   6.441   0.602 -0.4432  0.9349  0.2572
  470MOL0     O63346   9.151   6.441   0.708 -0.4616  0.4541 -0.0103
  470MOL0     C63347   9.281   6.484   0.692  0.0227 -0.0227 -1.5052
  470MOL0     C63348   9.356   6.505   0.575 -0.5313  0.0819 -0.4540
  470MOL0     C63349   9.487   6.558   0.578  0.2360  0.3754  0.6342
  470MOL0     C63350   9.554   6.591   0.697 -0.1617  0.0318  0.3961
  470MOL0     O63351   9.684   6.627   0.706  0.4559  0.2804  0.1304
  470MOL0     C63352   9.745   6.685   0.594  0.5397  0.1507 -0.3631
  470MOL0     C63353   9.895   6.714   0.637  1.1505 -0.2828 -0.7487
  470MOL0     C63354   9.998   6.599   0.637  0.7926  0.6895  0.1829
  470MOL0     C63355  10.093   6.610   0.760 -0.0752  0.1086 -0.3719
  470MOL0     C63356  10.240   6.608   0.712 -0.1792  0.1740 -0.3572
  470MOL0     C63357  10.328   6.560   0.832  0.4836  0.2957  0.2135
  470MOL0     C63358  10.479   6.559   0.790 -0.1370 -0.1380 -0.4484
  470MOL0     C63359  10.549   6.432   0.822 -0.2156  0.2745 -0.3838
  470MOL0    Cl63360  10.718   6.445   0.763  0.0800  0.3091  0.2737
  470MOL0     C63361   9.485   6.563   0.817  0.5148 -0.0613  0.8661
  470MOL0     C63362   9.353   6.505   0.819  1.1316 -0.3824  0.3741
  470MOL0     O63363   9.077   6.480   0.487  0.2256  0.3347 -0.0844
  470MOL0     C63364   8.935   6.290   0.751  0.6588 -1.2346  0.2251
  470MOL0     C63365   8.812   6.230   0.794  0.4391 -0.4517  0.1962
  470MOL0     N63366   8.180   5.822   1.216 -0.4298 -0.5366 -0.3316
  470MOL0     N63367   8.141   5.806   1.331  0.2655  0.4992 -0.1520
  470MOL0     C63368   6.975   6.027   1.759 -0.6483 -0.1337 -0.5952
  470MOL0     C63369   6.876   6.038   1.859 -0.3358 -0.6875 -0.4362
  470MOL0     C63370   6.594   5.911   2.178 -0.6290  0.0497  0.2570
  470MOL0     C63371   6.618   5.983   2.300 -0.2653 -0.3388  0.1084
  470MOL0     C63372   6.536   5.965   2.414  0.7226  0.0866 -0.2171
  470MOL0     C63373   6.425   5.889   2.398  0.8324 -1.2328  0.5975
  470MOL0     O63374   6.326   5.870   2.493 -0.0277 -0.1513  0.1851
  470MOL0     C63375   6.340   5.937   2.617  1.3494 -0.5931  0.3674
  470MOL0     C63376   6.206   5.917   2.702  0.5564 -0.7849 -0.9616
  470MOL0     C63377   6.083   5.959   2.623 -0.1798 -0.2707  1.2523
  470MOL0     C63378   5.948   5.931   2.690  0.1276 -0.0565  0.9778
  470MOL0     C63379   5.920   6.030   2.796 -0.7689 -0.9010 -0.2197
  470MOL0     C63380   5.896   6.110   2.882 -0.3306  0.2850 -0.6211
  470MOL0     C63381   6.393   5.816   2.273  0.4588 -0.1274 -0.3710
  470MOL0     C63382   6.485   5.829   2.176  0.1794  0.7643  0.4444
  470MOL0     H63383   7.020   5.843   2.093  2.4808 -0.1409 -0.0330
  470MOL0     H63384   7.186   5.817   1.926 -1.5284 -2.0950  1.4556
  470MOL0     H63385   7.138   6.066   1.533 -0.9857 -1.4343  2.0172
  470MOL0     H63386   7.216   6.130   1.673 -1.1393 -1.6303  2.3110
  470MOL0     H63387   7.362   5.917   1.497 -0.6687  0.6254 -0.9093
  470MOL0     H63388   7.350   6.064   1.423  3.4898  1.5984  0.4351
  470MOL0     H63389   7.496   6.174   1.534 -3.2638  2.6550 -0.0598
  470MOL0     H63390   7.440   6.118   1.696  0.6097 -0.1298 -0.5749
  470MOL0     H63391   7.595   5.966   1.718 -1.8311  1.9539  1.0032
  470MOL0     H63392   7.553   5.894   1.558 -0.2888  0.9067 -1.2601
  470MOL0     H63393   7.682   6.053   1.444 -2.3690  0.3657  0.6557
  470MOL0     H63394   7.722   6.152   1.592 -1.2339  0.5277 -1.3901
  470MOL0     H63395   7.839   5.923   1.668 -2.2412  1.6596  0.6115
  470MOL0     H63396   7.801   5.872   1.502 -2.1383  1.2684 -1.3126
  470MOL0     H63397   7.938   6.106   1.442 -1.5496 -2.2120 -1.7124
  470MOL0     H63398   7.959   6.117   1.617  3.2508 -0.2819  0.0258
  470MOL0     H63399   8.067   5.874   1.577  1.1026  1.8520  2.0000
  470MOL0     H63400   8.151   6.023   1.575  0.3059 -1.8093  2.2274
  470MOL0     H63401   8.120   6.126   1.285  2.9015  0.7284  0.4319
  470MOL0     H63402   8.194   5.944   0.975 -1.4179  0.9929  1.4368
  470MOL0     H63403   8.193   6.116   1.045 -0.9938 -0.2583 -1.5710
  470MOL0     H63404   8.421   5.923   1.059 -2.1834 -0.7393  0.1575
  470MOL0     H63405   8.417   6.088   1.118 -0.8725 -0.7205  1.0062
  470MOL0     H63406   8.393   6.181   0.879 -0.3380 -0.2847 -0.4937
  470MOL0     H63407   8.366   6.021   0.822  0.2567  0.3542 -0.6164
  470MOL0     H63408   8.622   5.998   0.864  0.4893  0.3829 -1.4623
  470MOL0     H63409   8.609   6.154   0.957  0.2723 -0.8511  0.7377
  470MOL0     H63410   8.593   6.325   0.554 -0.6072 -0.5949  0.0997
  470MOL0     H63411   8.780   6.553   0.431  0.5218  0.1327  0.2243
  470MOL0     H63412   8.867   6.406   0.345 -0.3204 -4.1919  1.8168
  470MOL0     H63413   8.697   6.413   0.375 -1.0891 -2.6014  1.0745
  470MOL0     H63414   9.299   6.492   0.484 -3.8800  0.1727  1.4472
  470MOL0     H63415   9.530   6.591   0.484 -0.1544 -2.6225 -0.7075
  470MOL0     H63416   9.745   6.635   0.497  2.1301  2.3787 -1.6213
  470MOL0     H63417   9.698   6.782   0.573 -2.0721 -1.1655 -1.0129
  470MOL0     H63418   9.936   6.797   0.578 -4.0658  2.2750 -1.3166
  470MOL0     H63419   9.881   6.745   0.741  1.3509  0.7621 -1.0241
  470MOL0     H63420  10.051   6.605   0.541 -0.5973 -0.5363 -0.6999
  470MOL0     H63421   9.954   6.499   0.642  0.7968  0.7655  2.3024
  470MOL0     H63422  10.068   6.690   0.829 -2.3300 -1.3860  0.6364
  470MOL0     H63423  10.066   6.520   0.816 -0.5497  1.2295  1.2661
  470MOL0     H63424  10.268   6.707   0.676  2.8588  0.3675  2.0595
  470MOL0     H63425  10.254   6.537   0.630 -1.2127 -1.1445  0.5647
  470MOL0     H63426  10.316   6.621   0.923  0.5092 -0.3805  0.6721
  470MOL0     H63427  10.303   6.455   0.849  2.5475 -0.6326 -1.8953
  470MOL0     H63428  10.530   6.649   0.826 -0.9610  0.1303  0.0905
  470MOL0     H63429  10.496   6.572   0.683  1.3235  0.1952 -0.1975
  470MOL0     H63430  10.512   6.341   0.775  0.9018  0.0177 -0.8120
  470MOL0     H63431  10.545   6.413   0.929 -1.1303 -1.6478 -0.7232
  470MOL0     H63432   9.547   6.583   0.903  0.5074  1.9220  0.4694
  470MOL0     H63433   9.300   6.485   0.912 -0.5385 -1.4642 -0.7564
  470MOL0     H63434   9.027   6.286   0.809  1.5007  1.0307 -0.8492
  470MOL0     H63435   8.814   6.159   0.875  0.2889 -0.4005  0.2463
  470MOL0     H63436   6.963   6.077   1.663  0.4669 -1.2551 -1.3438
  470MOL0     H63437   6.783   6.093   1.850 -1.9353 -2.9866  0.7314
  470MOL0     H63438   6.697   6.056   2.309 -3.4362  3.7058 -1.4461
  470MOL0     H63439   6.558   6.029   2.499 -1.5367 -1.9966  2.1091
  470MOL0     H63440   6.428   5.912   2.677  1.8990 -1.3735 -0.7447
  470MOL0     H63441   6.360   6.044   2.604  0.3130 -0.5500 -1.0952
  470MOL0     H63442   6.218   5.979   2.791 -1.6631  1.1301 -1.9256
  470MOL0     H63443   6.197   5.811   2.730  0.3597 -0.7732 -0.9773
  470MOL0     H63444   6.083   5.902   2.530  0.9829  1.4725  0.1250
  470MOL0     H63445   6.101   6.063   2.593  1.0369 -1.8167 -4.8016
  470MOL0     H63446   5.943   5.836   2.743 -0.7678 -1.0726 -0.8383
  470MOL0     H63447   5.873   5.933   2.611  1.9861  2.0380 -0.8830
  470MOL0     H63448   5.872   6.185   2.955  2.9355 -1.4340  2.5535
  470MOL0     H63449   6.310   5.749   2.255  1.3427 -1.2560 -0.4172
  470MOL0     H63450   6.454   5.769   2.091 -0.5687  1.8482 -0.0676
  471MOL0     O63451   5.449   8.242   0.246  0.2245  0.4082  0.7679
  471MOL0     C63452   5.541   8.158   0.212  0.2711  0.7601 -0.6585
  471MOL0     O63453   5.553   8.027   0.273  0.1035  0.0969 -0.0339
  471MOL0     C63454   5.478   8.020   0.391  0.2923 -0.4008  0.4264
  471MOL0     C63455   5.520   8.097   0.500 -0.7665 -0.3480 -0.5339
  471MOL0     C63456   5.446   8.089   0.616  0.5535 -0.1915  0.1564
  471MOL0     C63457   5.330   8.007   0.631 -0.6260  0.1433  1.0666
  471MOL0     O63458   5.270   8.037   0.751  0.1443  0.1806 -0.2197
  471MOL0     C63459   5.169   7.945   0.806  0.6010 -0.2953 -0.6777
  471MOL0     C63460   5.102   8.027   0.919 -1.1328  0.8700 -0.2934
  471MOL0     C63461   4.998   7.948   0.989  1.1212  0.8558 -0.4557
  471MOL0     C63462   4.950   8.017   1.119 -0.3162 -0.6445  0.7716
  471MOL0     C63463   4.814   7.963   1.161 -0.8862 -0.5724 -0.1861
  471MOL0     C63464   4.829   7.831   1.227 -1.1739 -0.0764 -0.1129
  471MOL0     C63465   4.692   7.782   1.260  0.3302 -0.7119 -0.3908
  471MOL0     C63466   4.615   7.867   1.367 -0.9164  0.0916 -0.0662
  471MOL0     N63467   4.472   7.833   1.366  0.2095  0.6228 -0.7744
  471MOL0     C63468   4.367   7.918   1.357  0.5469 -0.2105 -0.5486
  471MOL0     C63469   4.256   7.857   1.397  0.1725  0.3873  0.0317
  471MOL0     C63470   4.113   7.897   1.409  0.3044  0.0053 -0.2729
  471MOL0     C63471   4.090   8.046   1.414  0.1645 -0.2869 -0.3448
  471MOL0     C63472   3.948   8.086   1.439 -0.2023 -0.3108 -0.5477
  471MOL0     C63473   3.927   8.241   1.436 -0.0423  0.5503 -0.5589
  471MOL0     O63474   3.898   8.275   1.300 -0.1895 -0.2194 -0.1418
  471MOL0     C63475   3.772   8.274   1.264 -0.0180  0.5550  0.3629
  471MOL0     C63476   3.741   8.181   1.157 -0.3497  0.1119  0.0932
  471MOL0     C63477   3.618   8.201   1.094 -0.8554  0.1707 -0.1344
  471MOL0     C63478   3.601   8.109   0.974 -0.6448  0.4394  0.3093
  471MOL0     C63479   3.521   8.292   1.136 -0.4620 -0.4884 -0.1190
  471MOL0     C63480   3.400   8.340   1.069  0.6820 -1.1595  0.0034
  471MOL0     O63481   3.326   8.436   1.125  0.6693 -0.5487 -0.7652
  471MOL0     C63482   3.195   8.471   1.096  0.3962  0.1547  0.0192
  471MOL0     C63483   3.149   8.598   1.134  0.3125  0.4734  0.1963
  471MOL0     C63484   3.028   8.645   1.098 -0.5874  0.1985  0.7873
  471MOL0     C63485   2.937   8.566   1.027 -0.5636  0.4710 -0.1623
  471MOL0     O63486   2.820   8.622   0.985  0.1842 -0.0826  0.0004
  471MOL0     C63487   2.718   8.543   0.911  0.8723  0.6657  1.0879
  471MOL0     C63488   2.594   8.628   0.892 -0.0514  0.4554 -0.0017
  471MOL0     C63489   2.514   8.571   0.786  0.2503  0.5893 -0.0613
  471MOL0     C63490   2.364   8.613   0.799 -0.0001  0.2780  0.1178
  471MOL0     C63491   2.279   8.511   0.721  0.2285 -0.0217 -0.7800
  471MOL0     C63492   2.140   8.559   0.693  0.8390 -0.1656 -0.0989
  471MOL0     C63493   2.046   8.564   0.821 -0.0526 -0.8055 -0.6743
  471MOL0     C63494   1.918   8.632   0.781 -0.1095  0.7607  0.4162
  471MOL0    Cl63495   1.796   8.524   0.694 -0.1150 -0.3910 -0.3091
  471MOL0     C63496   2.972   8.428   1.004 -0.4077 -0.4912 -0.0179
  471MOL0     C63497   3.101   8.379   1.038 -0.4415 -0.5112 -0.3853
  471MOL0     O63498   3.377   8.284   0.961 -0.2939  0.0671  0.8729
  471MOL0     C63499   3.546   8.365   1.254 -0.1508  0.7239 -0.0218
  471MOL0     C63500   3.672   8.351   1.315  0.5121  0.0229  0.2149
  471MOL0     N63501   4.293   7.726   1.431 -0.6876  0.3071 -0.4539
  471MOL0     N63502   4.425   7.715   1.421 -0.1557 -0.5011 -0.4428
  471MOL0     C63503   5.293   7.921   0.520 -0.6406  0.4001 -0.0371
  471MOL0     C63504   5.367   7.937   0.401 -1.0207 -0.0519  0.4868
  471MOL0     C63505   5.628   8.188   0.098  0.2151 -0.5334 -0.1094
  471MOL0     C63506   5.700   8.084   0.034 -0.4926  0.3932 -0.1293
  471MOL0     C63507   5.774   8.115  -0.082 -0.7868  0.1342 -0.0827
  471MOL0     C63508   5.777   8.234  -0.146 -0.0908 -1.1199  0.4851
  471MOL0     O63509   5.866   8.256  -0.251 -0.5161 -0.1959  1.0065
  471MOL0     C63510   5.858   8.377  -0.336 -0.2928 -0.5372 -0.7652
  471MOL0     C63511   5.929   8.361  -0.463 -0.2446  0.0526 -0.8555
  471MOL0     C63512   6.080   8.335  -0.446  0.4211 -0.4782  0.6409
  471MOL0     C63513   6.152   8.300  -0.582  0.1443  0.6943  0.0072
  471MOL0     C63514   6.294   8.287  -0.540 -0.1881  0.1339  0.3246
  471MOL0     C63515   6.411   8.293  -0.525 -0.3744  0.7988  0.4178
  471MOL0     C63516   5.704   8.342  -0.092  0.3439  0.8482  0.5382
  471MOL0     C63517   5.624   8.308   0.022 -0.4261 -0.4273  0.2733
  471MOL0     H63518   5.608   8.159   0.512 -0.4826 -1.1377  2.1654
  471MOL0     H63519   5.471   8.155   0.698  0.6602 -1.2183  0.9681
  471MOL0     H63520   5.089   7.916   0.737 -1.6039  0.6105  1.3599
  471MOL0     H63521   5.227   7.860   0.843  1.1393 -0.0963 -1.0595
  471MOL0     H63522   5.175   8.052   0.996 -1.1428  0.6107 -0.1981
  471MOL0     H63523   5.055   8.115   0.873 -2.3546 -0.6686 -2.1772
  471MOL0     H63524   4.910   7.925   0.928  1.3623 -1.4830  0.0014
  471MOL0     H63525   5.026   7.845   1.014 -1.5031 -0.4842 -2.5529
  471MOL0     H63526   5.020   8.003   1.202  1.0220 -2.7050 -0.6077
  471MOL0     H63527   4.952   8.124   1.097  0.5901 -1.4192 -4.1607
  471MOL0     H63528   4.777   8.040   1.230  1.1680  1.0038 -0.7404
  471MOL0     H63529   4.752   7.957   1.071  1.4319  0.2942 -1.9446
  471MOL0     H63530   4.878   7.756   1.164  2.7731  0.4746  1.9861
  471MOL0     H63531   4.898   7.834   1.312  2.3390 -2.1012 -2.6056
  471MOL0     H63532   4.633   7.793   1.169  0.3617 -0.4883 -0.3830
  471MOL0     H63533   4.680   7.677   1.291 -2.1199  0.0346  1.4424
  471MOL0     H63534   4.621   7.973   1.340  3.5443 -0.2039 -1.0363
  471MOL0     H63535   4.665   7.852   1.463 -0.8774  1.3050  0.1196
  471MOL0     H63536   4.365   8.016   1.310  0.0973 -0.1469 -0.4039
  471MOL0     H63537   4.058   7.861   1.321  0.1152  2.5843 -1.2923
  471MOL0     H63538   4.074   7.843   1.495  0.8315  0.8461  0.5177
  471MOL0     H63539   4.125   8.086   1.319 -0.8909  0.3698 -0.4643
  471MOL0     H63540   4.157   8.083   1.493 -2.3684  0.6636  1.5029
  471MOL0     H63541   3.902   8.054   1.533 -2.5137 -2.6791 -2.3098
  471MOL0     H63542   3.888   8.039   1.360  0.6655 -0.9451 -0.8494
  471MOL0     H63543   4.013   8.289   1.484  0.7818 -0.0402 -1.3786
  471MOL0     H63544   3.839   8.254   1.500  0.8915 -0.9310  1.1320
  471MOL0     H63545   3.814   8.103   1.140 -1.5118 -0.8157 -0.7963
  471MOL0     H63546   3.550   8.155   0.889 -3.8534 -1.5233  1.0129
  471MOL0     H63547   3.698   8.080   0.933  1.0015  2.3078  2.6139
  471MOL0     H63548   3.537   8.023   0.997 -0.7813  0.9211  1.8088
  471MOL0     H63549   3.202   8.665   1.201 -0.9929 -0.4085  2.1680
  471MOL0     H63550   2.998   8.743   1.133  0.7960  1.2519 -0.8417
  471MOL0     H63551   2.750   8.502   0.815  0.7606  1.3962  0.7348
  471MOL0     H63552   2.699   8.450   0.965  0.9980 -0.3276 -0.5087
  471MOL0     H63553   2.530   8.627   0.980 -3.0971 -1.0030 -2.0792
  471MOL0     H63554   2.622   8.730   0.862 -1.5508  2.2825  4.0414
  471MOL0     H63555   2.529   8.463   0.789  1.3179  0.6883  4.0031
  471MOL0     H63556   2.551   8.607   0.690 -0.6627  2.8738  0.3662
  471MOL0     H63557   2.327   8.618   0.902 -1.7924  0.3626 -0.4877
  471MOL0     H63558   2.348   8.715   0.761 -2.6684  0.7609  2.1663
  471MOL0     H63559   2.272   8.424   0.787  0.4253  1.8265  1.8247
  471MOL0     H63560   2.332   8.469   0.635 -2.0537  3.5578 -4.2585
  471MOL0     H63561   2.135   8.663   0.660  0.0320  0.5491  2.1410
  471MOL0     H63562   2.099   8.505   0.607 -2.5391  2.0496 -0.0690
  471MOL0     H63563   2.106   8.616   0.896  0.9889  1.4226 -2.8822
  471MOL0     H63564   2.026   8.460   0.846 -0.2117 -0.3989  0.9911
  471MOL0     H63565   1.941   8.720   0.720 -0.9552 -0.4046 -1.6858
  471MOL0     H63566   1.871   8.665   0.874  0.4322  0.0564  0.9577
  471MOL0     H63567   2.900   8.364   0.956 -1.7257  0.3766  0.7503
  471MOL0     H63568   3.118   8.273   1.021  0.2300  0.0127 -3.6206
  471MOL0     H63569   3.479   8.436   1.301 -1.3384  0.3685 -1.1132
  471MOL0     H63570   3.692   8.412   1.402 -1.7532  2.2902 -0.7130
  471MOL0     H63571   5.207   7.854   0.525 -1.1306  0.7548 -2.4278
  471MOL0     H63572   5.355   7.868   0.318  0.4479  0.1463  0.0814
  471MOL0     H63573   5.710   7.987   0.081 -0.9562  1.5890  2.6563
  471MOL0     H63574   5.841   8.036  -0.114  1.8527  1.6194  1.3924
  471MOL0     H63575   5.756   8.408  -0.360 -1.4130 -0.3489  3.4302
  471MOL0     H63576   5.902   8.459  -0.278 -1.6120  0.7026 -1.4705
  471MOL0     H63577   5.920   8.453  -0.521 -2.5403 -0.6344 -1.6885
  471MOL0     H63578   5.891   8.276  -0.520  1.6373 -0.6189 -1.1818
  471MOL0     H63579   6.095   8.247  -0.382  0.8543 -0.3798  0.6804
  471MOL0     H63580   6.134   8.419  -0.402  1.3031 -0.7678  0.1351
  471MOL0     H63581   6.135   8.377  -0.658 -1.0935  0.0054 -0.4359
  471MOL0     H63582   6.116   8.203  -0.615 -0.0873  0.5388  0.6895
  471MOL0     H63583   6.516   8.306  -0.507 -0.4340 -0.8336  2.2721
  471MOL0     H63584   5.695   8.432  -0.151 -0.3548 -1.2681 -2.8469
  471MOL0     H63585   5.556   8.386   0.058 -1.1875  0.1969 -2.2966
  472MOL0     O63586   4.080  11.325   3.501  0.4164 -0.2801  0.2301
  472MOL0     C63587   4.016  11.226   3.550  0.4265 -0.6133  0.1260
  472MOL0     O63588   3.881  11.219   3.568  0.0243  0.0493  0.0501
  472MOL0     C63589   3.808  11.333   3.587  0.0051 -0.8509 -0.2720
  472MOL0     C63590   3.793  11.425   3.487  0.3922 -0.2019  0.5287
  472MOL0     C63591   3.735  11.551   3.514 -0.4305  0.7228 -0.6588
  472MOL0     C63592   3.683  11.576   3.641 -0.8594 -0.5680  0.3010
  472MOL0     O63593   3.638  11.708   3.666 -0.1638  0.4074 -0.2590
  472MOL0     C63594   3.611  11.758   3.796  0.3405  0.2131 -0.1646
  472MOL0     C63595   3.582  11.924   3.789 -0.2225  0.7440 -0.1171
  472MOL0     C63596   3.500  11.982   3.911 -0.1107 -0.6801  0.5047
  472MOL0     C63597   3.464  12.131   3.883  1.0518 -0.4624 -0.0951
  472MOL0     C63598   3.439  12.198   4.017  0.6170  0.3196 -0.2657
  472MOL0     C63599   3.405  12.353   4.010 -0.4952  0.2996 -0.2536
  472MOL0     C63600   3.430  12.417   4.149  0.9806 -0.6314 -0.3218
  472MOL0     C63601   3.380  12.565   4.144 -0.3976  0.5571  0.2755
  472MOL0     N63602   3.367  12.628   4.273 -0.4147  0.8412  0.3737
  472MOL0     C63603   3.474  12.677   4.345  0.3135 -0.5387 -0.1748
  472MOL0     C63604   3.410  12.749   4.436 -0.0279 -1.2015 -0.6707
  472MOL0     C63605   3.495  12.819   4.550 -0.1166  0.4443  0.3366
  472MOL0     C63606   3.403  12.854   4.669  0.7942  0.0617  0.2973
  472MOL0     C63607   3.338  12.734   4.740 -0.0147  0.5007 -0.2507
  472MOL0     C63608   3.252  12.757   4.861  0.6042 -0.1327  0.5944
  472MOL0     O63609   3.321  12.824   4.958 -0.4928 -0.2848 -0.8640
  472MOL0     C63610   3.250  12.879   5.062 -0.4250  0.2626  0.3846
  472MOL0     C63611   3.149  12.816   5.129 -0.0053  0.3293  0.0852
  472MOL0     C63612   3.070  12.868   5.232  0.7219  0.8185 -0.1456
  472MOL0     C63613   2.940  12.806   5.267  0.5083 -0.2521 -0.7759
  472MOL0     C63614   3.108  12.992   5.273  0.5661  0.6422  0.4156
  472MOL0     C63615   3.046  13.056   5.389 -0.3523 -0.5112 -0.0859
  472MOL0     O63616   3.083  13.188   5.405 -0.3318  0.0931 -0.1086
  472MOL0     C63617   3.008  13.266   5.495  0.0286 -0.0539  0.2345
  472MOL0     C63618   2.884  13.331   5.463  0.5430  0.4734 -0.6406
  472MOL0     C63619   2.818  13.391   5.565  0.4185  0.2184 -0.3211
  472MOL0     C63620   2.858  13.400   5.694  0.0687  0.5917 -0.2965
  472MOL0     O63621   2.786  13.475   5.781 -0.0047 -0.4387  0.2298
  472MOL0     C63622   2.847  13.497   5.910 -0.2979  0.1030 -0.2633
  472MOL0     C63623   2.744  13.560   6.004 -0.6939  0.1414  0.3933
  472MOL0     C63624   2.678  13.691   5.973  0.0332 -0.2480  0.3594
  472MOL0     C63625   2.656  13.727   5.820 -0.0445  0.1685  0.3547
  472MOL0     C63626   2.622  13.876   5.799 -0.8846 -0.2660 -0.0735
  472MOL0     C63627   2.743  13.971   5.820 -0.0230  0.3620  0.1080
  472MOL0     C63628   2.716  14.112   5.757 -0.2151 -0.0547 -0.0204
  472MOL0     C63629   2.806  14.234   5.812 -0.0979  0.0906  0.9981
  472MOL0    Cl63630   2.790  14.381   5.706 -0.3321 -0.1360  0.1383
  472MOL0     C63631   2.988  13.350   5.720 -0.5776  0.4421 -0.6011
  472MOL0     C63632   3.061  13.281   5.622 -0.1442  0.0477 -0.2119
  472MOL0     O63633   2.972  12.992   5.461  0.3398 -0.7038 -0.2924
  472MOL0     C63634   3.217  13.063   5.203 -0.1709  0.0388 -0.3913
  472MOL0     C63635   3.281  13.007   5.094 -0.9286 -0.7018 -0.1001
  472MOL0     N63636   3.273  12.759   4.409 -0.7138  0.2305  0.1631
  472MOL0     N63637   3.249  12.682   4.313  0.3478 -0.3558  0.4491
  472MOL0     C63638   3.669  11.474   3.736  0.6748  0.9586 -0.3594
  472MOL0     C63639   3.733  11.351   3.704  1.3273 -0.1544 -0.9204
  472MOL0     C63640   4.099  11.098   3.563  0.6398  0.6776 -0.1359
  472MOL0     C63641   4.238  11.100   3.532 -0.0328 -0.4128  0.8019
  472MOL0     C63642   4.311  10.986   3.537  0.8387 -0.0414 -0.6159
  472MOL0     C63643   4.248  10.864   3.561  0.4731  0.3370  0.2405
  472MOL0     O63644   4.319  10.750   3.550 -0.4015 -0.8213 -0.4482
  472MOL0     C63645   4.347  10.710   3.417 -0.3721 -0.3784 -0.3379
  472MOL0     C63646   4.433  10.578   3.420 -0.0264 -0.1165 -0.4164
  472MOL0     C63647   4.580  10.595   3.453  0.5803 -0.6902 -0.0212
  472MOL0     C63648   4.665  10.651   3.336 -0.0959  0.1606 -0.8370
  472MOL0     C63649   4.799  10.679   3.375 -0.1532  0.4179  0.6186
  472MOL0     C63650   4.903  10.697   3.431 -0.9924 -0.4812  0.0738
  472MOL0     C63651   4.113  10.856   3.586  0.1622  0.3483  0.1210
  472MOL0     C63652   4.039  10.974   3.592  0.5718 -0.4968 -0.1032
  472MOL0     H63653   3.843  11.404   3.393 -0.4992 -1.2616  0.2654
  472MOL0     H63654   3.739  11.637   3.449 -1.3137  1.1412 -0.1794
  472MOL0     H63655   3.517  11.716   3.832  0.3928 -0.0779 -0.3578
  472MOL0     H63656   3.696  11.744   3.864 -0.9207 -1.0540  1.2228
  472MOL0     H63657   3.682  11.969   3.790 -1.4898  4.0196  2.9049
  472MOL0     H63658   3.536  11.957   3.695 -2.4252 -0.4137  0.4842
  472MOL0     H63659   3.417  11.918   3.944 -0.5135 -1.5488 -1.9688
  472MOL0     H63660   3.572  11.983   3.993  2.0908  1.6032 -1.2834
  472MOL0     H63661   3.550  12.172   3.829  1.3703 -0.1535  0.6289
  472MOL0     H63662   3.380  12.148   3.814  0.1491  0.9706  1.2805
  472MOL0     H63663   3.356  12.149   4.070  0.5143  1.5827  0.7768
  472MOL0     H63664   3.519  12.170   4.087  0.8504 -1.6538 -1.2345
  472MOL0     H63665   3.469  12.404   3.937 -0.4839  0.5597 -0.0638
  472MOL0     H63666   3.302  12.375   3.980 -0.6909 -0.4016 -0.0966
  472MOL0     H63667   3.367  12.377   4.229 -0.0375  0.0146 -0.7719
  472MOL0     H63668   3.531  12.409   4.188  1.8811 -1.5877 -2.6558
  472MOL0     H63669   3.283  12.560   4.093 -0.3652 -0.4697  0.2930
  472MOL0     H63670   3.447  12.633   4.091 -2.6882  1.4138 -1.6916
  472MOL0     H63671   3.579  12.655   4.330  0.6447  0.3599  0.7318
  472MOL0     H63672   3.570  12.745   4.579 -2.1250 -1.2312  1.4884
  472MOL0     H63673   3.538  12.912   4.511  0.5100 -0.3230 -0.8439
  472MOL0     H63674   3.318  12.911   4.631  2.6278  1.3736 -2.0864
  472MOL0     H63675   3.449  12.922   4.742 -1.7155  1.9315  0.2720
  472MOL0     H63676   3.418  12.664   4.768  0.7558  1.2479 -0.5553
  472MOL0     H63677   3.272  12.690   4.665 -2.1349  0.7058  1.3892
  472MOL0     H63678   3.225  12.655   4.891  1.1113 -1.3648 -2.7008
  472MOL0     H63679   3.154  12.800   4.839  0.7704 -0.3579 -0.6111
  472MOL0     H63680   3.115  12.718   5.095  0.5569  0.1801 -0.0506
  472MOL0     H63681   2.936  12.756   5.365 -0.1443  1.1723 -0.0529
  472MOL0     H63682   2.868  12.888   5.270  0.1114 -0.5883  1.9645
  472MOL0     H63683   2.906  12.736   5.190 -1.1942  0.6596 -0.8940
  472MOL0     H63684   2.838  13.329   5.365 -2.1254 -1.3781  0.5018
  472MOL0     H63685   2.715  13.419   5.548  0.3896  1.6621  1.9256
  472MOL0     H63686   2.892  13.414   5.965  2.2318  0.7017 -1.3049
  472MOL0     H63687   2.931  13.566   5.900 -0.9300  0.9551  0.1162
  472MOL0     H63688   2.665  13.492   6.036 -1.3288  1.9711  3.1124
  472MOL0     H63689   2.790  13.578   6.102 -1.4241  2.6259  0.3641
  472MOL0     H63690   2.759  13.760   6.000 -0.1489 -0.1614  0.6774
  472MOL0     H63691   2.589  13.706   6.035 -1.1582 -0.2483 -1.2999
  472MOL0     H63692   2.743  13.711   5.755 -0.8678 -0.9233 -0.5245
  472MOL0     H63693   2.574  13.664   5.784 -1.0162  1.7874 -0.3824
  472MOL0     H63694   2.553  13.901   5.880 -0.0086 -0.6815  0.8253
  472MOL0     H63695   2.578  13.887   5.699 -1.5092 -4.1293 -0.3717
  472MOL0     H63696   2.738  14.002   5.925 -1.3894  0.9015 -0.1057
  472MOL0     H63697   2.839  13.928   5.788 -2.2343 -1.6175 -4.9429
  472MOL0     H63698   2.609  14.129   5.769  0.0656  0.4329  2.4637
  472MOL0     H63699   2.743  14.105   5.651  1.1027 -1.4665  0.3589
  472MOL0     H63700   2.913  14.216   5.829  0.5580  0.2487 -2.3097
  472MOL0     H63701   2.767  14.271   5.907 -1.4406  0.4147  0.3448
  472MOL0     H63702   3.048  13.360   5.810  0.4442  0.3411 -1.2637
  472MOL0     H63703   3.151  13.226   5.646 -0.8043 -1.5085 -1.1436
  472MOL0     H63704   3.241  13.164   5.235 -1.8712  0.2383  0.3795
  472MOL0     H63705   3.363  13.056   5.043  0.3043 -3.0232 -0.4405
  472MOL0     H63706   3.619  11.494   3.830  1.8446  2.0540  0.0600
  472MOL0     H63707   3.721  11.270   3.775  2.0052  1.0848  0.6668
  472MOL0     H63708   4.301  11.183   3.499  1.7428 -1.7739  0.6465
  472MOL0     H63709   4.416  10.990   3.511  1.4114 -2.6269  0.9045
  472MOL0     H63710   4.258  10.683   3.359  0.7831 -1.8463 -1.4836
  472MOL0     H63711   4.392  10.788   3.355  1.2344 -1.3121 -0.3965
  472MOL0     H63712   4.438  10.522   3.326  0.9798 -2.4495  0.9623
  472MOL0     H63713   4.385  10.512   3.492  1.1365 -1.5664 -0.9044
  472MOL0     H63714   4.612  10.498   3.492  1.4567 -1.0272 -1.4691
  472MOL0     H63715   4.594  10.665   3.536  0.2011  1.7099 -1.8682
  472MOL0     H63716   4.617  10.744   3.302  1.0444  1.4177  0.8353
  472MOL0     H63717   4.668  10.587   3.247 -2.6038 -3.6534  1.5247
  472MOL0     H63718   4.994  10.724   3.479 -0.5035 -1.3310 -0.3503
  472MOL0     H63719   4.067  10.758   3.598  0.4266  0.0072 -1.4941
  472MOL0     H63720   3.931  10.973   3.605  0.3737  1.6717 -1.2691
  473MOL0     O63721   4.693   6.288   8.215  0.6422  0.0206  0.0153
  473MOL0     C63722   4.618   6.374   8.270 -0.1607 -0.0755 -0.1441
  473MOL0     O63723   4.488   6.361   8.325 -0.1311 -0.3626  0.3948
  473MOL0     C63724   4.418   6.241   8.314 -0.6355  0.4755 -0.6478
  473MOL0     C63725   4.370   6.196   8.191 -0.3578 -0.1249 -0.5812
  473MOL0     C63726   4.302   6.078   8.184  0.0083  0.6544 -0.1053
  473MOL0     C63727   4.278   6.002   8.291  0.2779  0.5363  0.3262
  473MOL0     O63728   4.202   5.883   8.287 -0.7865 -0.3198  0.4707
  473MOL0     C63729   4.112   5.857   8.187 -0.2528  0.3125  0.3821
  473MOL0     C63730   3.992   5.941   8.194 -0.7536 -0.4447 -0.4017
  473MOL0     C63731   3.890   5.891   8.092 -0.3135  0.5535 -0.1047
  473MOL0     C63732   3.809   5.772   8.130 -0.0947 -0.0186  0.0678
  473MOL0     C63733   3.701   5.750   8.040 -0.4642 -0.3038 -0.1814
  473MOL0     C63734   3.656   5.604   8.037 -0.2964  0.7288  0.7558
  473MOL0     C63735   3.531   5.586   7.948  0.3621 -0.5408 -0.3486
  473MOL0     C63736   3.562   5.621   7.805 -0.0364 -0.4731  0.0382
  473MOL0     N63737   3.447   5.581   7.719  0.4376 -0.0568 -0.2325
  473MOL0     C63738   3.402   5.654   7.613  0.0692  0.2950  0.4186
  473MOL0     C63739   3.314   5.570   7.541 -0.0982 -0.4916 -0.2731
  473MOL0     C63740   3.248   5.583   7.400  0.2213 -0.0497  0.1602
  473MOL0     C63741   3.119   5.662   7.388 -0.1139  0.2483  0.1087
  473MOL0     C63742   3.133   5.807   7.437 -0.6053  0.3238  0.2794
  473MOL0     C63743   3.030   5.909   7.413  1.0900  1.0416  0.1377
  473MOL0     O63744   2.999   5.923   7.262 -0.1516  0.0355  0.3297
  473MOL0     C63745   2.875   5.943   7.216 -0.3048 -0.1994 -0.8092
  473MOL0     C63746   2.844   5.883   7.099  0.1526 -0.0328  0.9552
  473MOL0     C63747   2.713   5.891   7.040 -0.3656 -0.0802  0.0742
  473MOL0     C63748   2.696   5.824   6.904 -0.7261  0.0089  1.3661
  473MOL0     C63749   2.626   5.984   7.101  0.2387 -0.0284  0.9884
  473MOL0     C63750   2.483   6.018   7.036  0.6295  1.0113 -0.0322
  473MOL0     O63751   2.483   6.009   6.906 -1.1686  0.3763  0.0518
  473MOL0     C63752   2.368   6.035   6.834 -0.4731  1.2172 -1.2681
  473MOL0     C63753   2.270   5.934   6.814 -0.1091  0.2024 -0.4526
  473MOL0     C63754   2.146   5.966   6.770  1.5600  0.0560 -0.3469
  473MOL0     C63755   2.110   6.099   6.738 -0.4450  0.6053  0.2552
  473MOL0     O63756   1.993   6.108   6.677  0.9320 -0.9070  0.8729
  473MOL0     C63757   1.942   6.237   6.624  0.2029 -0.0568 -0.3396
  473MOL0     C63758   1.829   6.186   6.527 -0.2259 -0.2423  0.6430
  473MOL0     C63759   1.759   6.306   6.458 -0.7342  0.0761  0.1496
  473MOL0     C63760   1.653   6.252   6.367  0.5406  0.3265  0.6060
  473MOL0     C63761   1.580   6.344   6.271  0.2041  0.5068  0.4339
  473MOL0     C63762   1.491   6.443   6.346 -0.5221 -0.1018 -0.3215
  473MOL0     C63763   1.390   6.519   6.249  0.7568  0.1871 -0.0799
  473MOL0     C63764   1.318   6.424   6.143 -0.6574 -0.4192  0.5117
  473MOL0    Cl63765   1.245   6.270   6.210 -1.0314  0.1866  0.1545
  473MOL0     C63766   2.214   6.193   6.734 -1.3373 -0.7384  0.2149
  473MOL0     C63767   2.346   6.165   6.781  0.4664  0.1785  0.1097
  473MOL0     O63768   2.386   6.048   7.099 -0.3192  0.4874 -0.2261
  473MOL0     C63769   2.654   6.034   7.225  0.0269  0.4021 -0.3514
  473MOL0     C63770   2.781   6.022   7.282  0.5907  0.7801 -0.4195
  473MOL0     N63771   3.327   5.452   7.610 -0.3732  0.5155  1.0254
  473MOL0     N63772   3.412   5.457   7.703  0.1396  0.4094  0.5531
  473MOL0     C63773   4.318   6.042   8.419  0.3545  0.7154  0.3080
  473MOL0     C63774   4.384   6.168   8.421  0.2651  0.8184  0.2865
  473MOL0     C63775   4.687   6.496   8.292  0.1854 -0.1475 -0.3462
  473MOL0     C63776   4.809   6.527   8.240 -0.6528 -0.4249  0.6042
  473MOL0     C63777   4.857   6.655   8.256 -0.0413 -0.2056  0.6605
  473MOL0     C63778   4.795   6.752   8.340  0.0736  0.9114 -0.4618
  473MOL0     O63779   4.847   6.877   8.355  0.1611 -0.2227 -0.1519
  473MOL0     C63780   4.802   6.966   8.456 -0.3164 -0.3894  0.0453
  473MOL0     C63781   4.897   7.075   8.491 -0.6152 -0.6697 -0.0943
  473MOL0     C63782   5.037   7.031   8.530  0.9460  0.2107 -1.0646
  473MOL0     C63783   5.129   7.056   8.411  0.7423  0.5325 -0.0244
  473MOL0     C63784   5.141   7.191   8.371  0.4855  0.1143 -0.5048
  473MOL0     C63785   5.156   7.305   8.327  0.6558 -0.2041  0.3750
  473MOL0     C63786   4.670   6.717   8.396 -1.7527 -0.0923 -0.6936
  473MOL0     C63787   4.620   6.591   8.374 -0.6461  0.2290  0.1964
  473MOL0     H63788   4.378   6.254   8.099 -2.3004  1.0411 -0.0536
  473MOL0     H63789   4.261   6.041   8.090  2.5719 -4.1452  0.3455
  473MOL0     H63790   4.162   5.859   8.090 -0.0226 -1.5227  0.4195
  473MOL0     H63791   4.090   5.750   8.192 -2.3073  0.5398 -1.8464
  473MOL0     H63792   3.953   5.914   8.292  0.6598 -2.7529 -0.3996
  473MOL0     H63793   4.013   6.045   8.171 -0.1317 -0.4549  0.1094
  473MOL0     H63794   3.830   5.979   8.067 -2.1221 -0.3943  0.7251
  473MOL0     H63795   3.949   5.865   8.004  1.2155 -1.3245  1.3816
  473MOL0     H63796   3.869   5.684   8.107 -0.7846  0.1048 -2.5011
  473MOL0     H63797   3.777   5.768   8.235 -3.3614  2.3840 -0.6846
  473MOL0     H63798   3.615   5.814   8.062 -0.2353 -0.0406 -0.0510
  473MOL0     H63799   3.731   5.767   7.936 -0.2770  1.0214  0.0751
  473MOL0     H63800   3.735   5.533   8.012 -0.4229  0.0690  2.1738
  473MOL0     H63801   3.626   5.575   8.138 -1.1242  0.0064  0.3255
  473MOL0     H63802   3.494   5.484   7.954 -0.0486 -0.5404 -2.2758
  473MOL0     H63803   3.454   5.654   7.985  1.7226  1.8035 -1.5818
  473MOL0     H63804   3.651   5.570   7.768 -0.9512 -1.8138 -0.4257
  473MOL0     H63805   3.565   5.729   7.791 -2.0354 -0.5541 -1.4812
  473MOL0     H63806   3.441   5.751   7.583  3.0287 -1.6406 -2.7895
  473MOL0     H63807   3.327   5.626   7.338 -0.7998 -0.3765 -1.4238
  473MOL0     H63808   3.235   5.484   7.355 -1.4048  0.6291 -0.9507
  473MOL0     H63809   3.052   5.610   7.457  0.2175 -0.2860  0.0385
  473MOL0     H63810   3.073   5.654   7.289 -4.1891 -0.9751  1.8982
  473MOL0     H63811   3.223   5.835   7.381 -0.1373 -1.1481  0.2399
  473MOL0     H63812   3.154   5.804   7.544 -3.0101 -0.3450  0.7946
  473MOL0     H63813   3.069   5.997   7.464  2.0449  0.0920  1.1231
  473MOL0     H63814   2.949   5.863   7.470  0.2891 -0.5790 -2.1294
  473MOL0     H63815   2.924   5.829   7.051  1.8346  2.8681  0.2895
  473MOL0     H63816   2.599   5.773   6.904 -0.4968 -0.5098 -0.4036
  473MOL0     H63817   2.712   5.893   6.821  1.5100 -2.0959 -0.0875
  473MOL0     H63818   2.780   5.756   6.891 -0.0654  1.1155 -0.4172
  473MOL0     H63819   2.302   5.831   6.828  0.2060  0.1252 -1.6673
  473MOL0     H63820   2.082   5.880   6.757 -0.2026  1.0926  1.0909
  473MOL0     H63821   1.897   6.292   6.708 -0.8858 -2.5640  0.8434
  473MOL0     H63822   2.031   6.285   6.582  0.1808  1.5234  1.3032
  473MOL0     H63823   1.874   6.133   6.442  0.8455  1.1023  0.3296
  473MOL0     H63824   1.763   6.117   6.579  1.9970 -2.6903  0.4641
  473MOL0     H63825   1.832   6.367   6.404  1.4935  1.8655  4.5892
  473MOL0     H63826   1.722   6.380   6.529 -1.3869 -1.0310  1.0011
  473MOL0     H63827   1.690   6.172   6.301 -2.4458  0.4951 -1.4522
  473MOL0     H63828   1.589   6.200   6.439  1.3122 -1.9867 -0.2871
  473MOL0     H63829   1.524   6.274   6.209  1.7582 -0.5155  0.1424
  473MOL0     H63830   1.656   6.391   6.209 -1.5029  1.5608 -0.9450
  473MOL0     H63831   1.435   6.399   6.429  1.0771  0.1258  0.9354
  473MOL0     H63832   1.560   6.518   6.387 -1.3474 -0.5963  2.1474
  473MOL0     H63833   1.439   6.600   6.193  2.9263 -1.8011 -1.2333
  473MOL0     H63834   1.309   6.570   6.302  0.8372  2.5182 -2.0515
  473MOL0     H63835   1.402   6.389   6.081  0.8120  0.0400  2.1527
  473MOL0     H63836   1.239   6.476   6.088  0.1374 -1.0348 -1.2942
  473MOL0     H63837   2.192   6.291   6.694 -0.2565 -1.3489 -2.0318
  473MOL0     H63838   2.431   6.231   6.773  2.4191 -2.2594 -0.5743
  473MOL0     H63839   2.589   6.106   7.274  0.7324 -0.0562  1.3421
  473MOL0     H63840   2.813   6.070   7.373  3.9946  1.0619 -1.6124
  473MOL0     H63841   4.309   5.969   8.498 -0.0468  0.4056 -0.0177
  473MOL0     H63842   4.417   6.205   8.518 -0.7306  1.5605  0.3598
  473MOL0     H63843   4.865   6.456   8.179 -3.5882 -3.5168  1.2066
  473MOL0     H63844   4.944   6.699   8.208 -0.5555  3.1573  2.4942
  473MOL0     H63845   4.713   7.017   8.417 -1.1228 -2.4355 -0.8922
  473MOL0     H63846   4.782   6.920   8.553 -1.2456  1.9270  1.0229
  473MOL0     H63847   4.855   7.117   8.582 -0.4058  0.0640 -0.3322
  473MOL0     H63848   4.889   7.158   8.420  1.6269  0.1116  0.4929
  473MOL0     H63849   5.035   6.926   8.561 -1.4831 -0.1300 -2.1711
  473MOL0     H63850   5.075   7.095   8.610  2.8533 -0.1129 -1.6520
  473MOL0     H63851   5.084   7.001   8.328 -1.2270 -0.9949  1.9288
  473MOL0     H63852   5.226   7.015   8.441  0.6658  1.1841  1.1728
  473MOL0     H63853   5.184   7.394   8.275 -0.6558 -1.2172 -2.2421
  473MOL0     H63854   4.609   6.791   8.446 -1.3439 -0.3579  0.2332
  473MOL0     H63855   4.522   6.569   8.415 -1.7777  0.5303 -2.2035
  474MOL0     O63856   7.228   9.460   7.764  0.4088 -0.1506  0.1779
  474MOL0     C63857   7.161   9.555   7.731 -0.6266  0.0466 -1.1211
  474MOL0     O63858   7.192   9.644   7.634  0.1432 -0.1096  0.2627
  474MOL0     C63859   7.276   9.610   7.539 -0.2071  0.6151 -0.1166
  474MOL0     C63860   7.240   9.655   7.409 -0.7331  0.9742 -0.5286
  474MOL0     C63861   7.327   9.625   7.300  0.0125  0.1457 -0.2779
  474MOL0     C63862   7.451   9.570   7.317  0.2672  0.5867  0.2684
  474MOL0     O63863   7.525   9.537   7.209  0.3209  0.4598  0.1216
  474MOL0     C63864   7.657   9.488   7.231 -0.3037 -0.3231 -0.0854
  474MOL0     C63865   7.729   9.508   7.103  0.4011 -0.3542  0.3947
  474MOL0     C63866   7.867   9.447   7.111  0.9415  0.4251 -0.2359
  474MOL0     C63867   7.917   9.459   6.966 -0.3853  0.1556  0.2868
  474MOL0     C63868   8.071   9.424   6.965  0.4437 -0.0794 -0.0880
  474MOL0     C63869   8.095   9.280   6.987  0.5350  0.3618  0.1097
  474MOL0     C63870   8.241   9.252   7.009 -0.1436 -0.2025  0.4589
  474MOL0     C63871   8.282   9.270   7.163 -0.0795  0.1257 -0.0950
  474MOL0     N63872   8.423   9.237   7.186 -0.5704  0.8582 -0.6030
  474MOL0     C63873   8.542   9.293   7.138  0.7811  0.4394  0.0554
  474MOL0     C63874   8.636   9.201   7.175  0.5594  0.2328  0.7274
  474MOL0     C63875   8.783   9.204   7.141  0.8107  0.3030  0.5207
  474MOL0     C63876   8.880   9.176   7.255  0.4379 -0.3993 -0.0056
  474MOL0     C63877   9.018   9.213   7.212 -0.5345  0.3585  0.4208
  474MOL0     C63878   9.136   9.152   7.292  0.5530 -0.5462 -0.6863
  474MOL0     O63879   9.132   9.009   7.300  0.2096 -0.1915 -0.1194
  474MOL0     C63880   9.196   8.956   7.182 -0.1880 -0.0038  0.1837
  474MOL0     C63881   9.125   8.904   7.074 -0.4525  1.0994  1.1168
  474MOL0     C63882   9.186   8.858   6.953  0.4567 -0.5578 -0.4491
  474MOL0     C63883   9.092   8.819   6.832  0.0939  0.3042 -0.9175
  474MOL0     C63884   9.326   8.872   6.951 -0.5155  0.3030 -0.0138
  474MOL0     C63885   9.412   8.801   6.843 -0.4060  1.2718 -0.2976
  474MOL0     O63886   9.544   8.801   6.865  0.4123 -0.4490  0.3988
  474MOL0     C63887   9.639   8.712   6.830 -0.4692 -0.1622  0.3725
  474MOL0     C63888   9.625   8.616   6.722  0.6239 -0.1333 -0.1125
  474MOL0     C63889   9.727   8.534   6.689  0.8260  0.3726  0.4269
  474MOL0     C63890   9.846   8.540   6.762  0.3030 -0.5941 -0.1327
  474MOL0     O63891   9.956   8.472   6.720 -0.2802  0.1228 -0.8274
  474MOL0     C63892   9.934   8.339   6.744 -0.3991 -0.1979 -0.2048
  474MOL0     C63893  10.054   8.252   6.739 -0.5692 -0.3236 -0.0990
  474MOL0     C63894  10.034   8.114   6.793  0.2291 -0.4980  0.2110
  474MOL0     C63895   9.930   8.032   6.727 -0.3572 -0.3522  0.5514
  474MOL0     C63896   9.923   7.890   6.779  0.2026  0.0053  0.4619
  474MOL0     C63897   9.844   7.806   6.674  0.6736  0.1096 -0.4365
  474MOL0     C63898   9.916   7.771   6.547  0.3826 -0.1695  0.6055
  474MOL0     C63899   9.852   7.659   6.479  0.0266  0.2114  0.0298
  474MOL0    Cl63900   9.690   7.702   6.421  0.6526 -0.3877  0.1174
  474MOL0     C63901   9.861   8.625   6.857  1.0057 -0.1294 -0.9678
  474MOL0     C63902   9.760   8.708   6.902  0.6043 -0.0974 -0.1270
  474MOL0     O63903   9.359   8.726   6.762  0.5455 -0.1486 -0.3152
  474MOL0     C63904   9.392   8.936   7.060  0.7666 -0.0316 -0.6531
  474MOL0     C63905   9.331   8.966   7.178  0.4973  0.3306  0.5759
  474MOL0     N63906   8.578   9.100   7.242  0.1222  0.4881  0.5418
  474MOL0     N63907   8.455   9.126   7.258  0.2145  0.5395 -0.5233
  474MOL0     C63908   7.487   9.525   7.450 -0.3163  0.4407 -0.1843
  474MOL0     C63909   7.400   9.547   7.558 -1.1949 -0.1843 -0.7800
  474MOL0     C63910   7.027   9.575   7.800  0.0768  0.1302 -0.3983
  474MOL0     C63911   6.964   9.471   7.872  0.5726  0.4853 -0.7505
  474MOL0     C63912   6.827   9.477   7.921  0.0696  0.4317  0.2570
  474MOL0     C63913   6.755   9.595   7.908 -0.6702  0.8013  0.5038
  474MOL0     O63914   6.631   9.617   7.954  0.2702 -0.4040 -0.1053
  474MOL0     C63915   6.529   9.673   7.871  0.5029  0.0105 -0.5241
  474MOL0     C63916   6.401   9.652   7.928 -0.4628  0.6880 -0.8260
  474MOL0     C63917   6.322   9.541   7.874  0.0529 -0.6166  0.2995
  474MOL0     C63918   6.184   9.511   7.935  0.4725 -1.1723 -0.2675
  474MOL0     C63919   6.086   9.627   7.932 -0.5191 -0.1961  0.3201
  474MOL0     C63920   6.011   9.720   7.927 -0.2709 -0.9844  0.4707
  474MOL0     C63921   6.816   9.702   7.844  0.7252 -0.2406  0.0153
  474MOL0     C63922   6.948   9.693   7.791 -0.3321  0.1820 -0.6259
  474MOL0     H63923   7.149   9.712   7.405 -0.5256  1.3695  0.1444
  474MOL0     H63924   7.286   9.662   7.206  1.1885 -1.8245 -1.6170
  474MOL0     H63925   7.709   9.545   7.309 -0.7892  1.9796 -1.3608
  474MOL0     H63926   7.660   9.384   7.263 -0.3552  0.0229  1.1112
  474MOL0     H63927   7.678   9.473   7.013 -1.1466 -0.7928  1.4035
  474MOL0     H63928   7.741   9.615   7.084 -0.7695 -0.2348  0.2404
  474MOL0     H63929   7.939   9.491   7.181 -0.3797  0.3729  1.2188
  474MOL0     H63930   7.856   9.343   7.141  0.8655  0.2789 -0.7610
  474MOL0     H63931   7.858   9.400   6.895 -0.9658  0.2158  0.7132
  474MOL0     H63932   7.919   9.565   6.940  2.5741 -0.0838 -0.8880
  474MOL0     H63933   8.121   9.453   6.872  0.9152 -1.4093 -0.2812
  474MOL0     H63934   8.119   9.479   7.046 -0.6011 -0.7648  1.0297
  474MOL0     H63935   8.029   9.242   7.066  1.8378  3.3200  2.8367
  474MOL0     H63936   8.053   9.236   6.896 -1.0177 -2.9551  2.2359
  474MOL0     H63937   8.259   9.144   6.995  0.0877 -0.0689 -0.3595
  474MOL0     H63938   8.296   9.320   6.944 -2.8506  0.0547 -1.7995
  474MOL0     H63939   8.210   9.213   7.222 -0.2219  1.5850  1.2216
  474MOL0     H63940   8.267   9.375   7.193 -1.8316  0.8673 -3.0884
  474MOL0     H63941   8.565   9.382   7.079 -0.3150  0.6245 -0.1148
  474MOL0     H63942   8.801   9.131   7.062  1.2183  0.4274  0.4972
  474MOL0     H63943   8.807   9.305   7.106  3.9868 -0.5508 -0.0900
  474MOL0     H63944   8.871   9.071   7.285  0.1345 -0.8579 -1.6094
  474MOL0     H63945   8.844   9.240   7.337 -1.5894  0.0373 -1.1718
  474MOL0     H63946   9.020   9.322   7.226 -3.0987  0.5502 -0.2586
  474MOL0     H63947   9.039   9.186   7.108  0.3358  0.1903  0.6328
  474MOL0     H63948   9.134   9.174   7.399  1.1183 -0.4468 -0.6924
  474MOL0     H63949   9.232   9.188   7.254  0.2215  0.8808 -0.2436
  474MOL0     H63950   9.016   8.898   7.081 -0.4523 -0.2414  0.3174
  474MOL0     H63951   9.117   8.722   6.789  0.2688  0.3253 -0.8670
  474MOL0     H63952   8.987   8.822   6.863  0.0777 -0.1215 -0.9317
  474MOL0     H63953   9.109   8.895   6.755 -1.4384  2.1968  0.4745
  474MOL0     H63954   9.536   8.624   6.662  1.4670  0.5004 -1.3263
  474MOL0     H63955   9.732   8.458   6.612  0.7607 -0.6554  1.4162
  474MOL0     H63956   9.881   8.326   6.839 -0.8876  1.9541 -0.1474
  474MOL0     H63957   9.858   8.304   6.674  0.3411  0.2789 -1.2559
  474MOL0     H63958  10.074   8.248   6.631 -0.8180  1.7576 -0.2724
  474MOL0     H63959  10.147   8.292   6.780  0.6617 -1.9380 -1.1766
  474MOL0     H63960   9.989   8.114   6.893 -0.8799  0.2891 -0.2615
  474MOL0     H63961  10.128   8.061   6.773  0.9855  1.1161 -0.6282
  474MOL0     H63962   9.831   8.078   6.739  0.5177  1.3272  1.8766
  474MOL0     H63963   9.957   8.020   6.622 -0.3934 -0.8160  0.5931
  474MOL0     H63964   9.867   7.891   6.872 -0.5055 -2.4964  0.1363
  474MOL0     H63965  10.015   7.835   6.800  0.1548 -0.3663 -0.2441
  474MOL0     H63966   9.811   7.716   6.727 -1.9602  2.4847  2.3433
  474MOL0     H63967   9.755   7.859   6.640  0.7664 -0.8101 -2.2144
  474MOL0     H63968  10.023   7.749   6.561  0.6231 -0.1813 -1.0978
  474MOL0     H63969   9.900   7.856   6.481  1.8479  1.0540  1.7567
  474MOL0     H63970   9.853   7.568   6.539  0.0932 -1.1772 -1.9889
  474MOL0     H63971   9.919   7.635   6.396 -0.3043  0.1403 -0.2178
  474MOL0     H63972   9.959   8.639   6.903  1.3725 -0.7909 -1.5302
  474MOL0     H63973   9.773   8.773   6.988 -2.9800  2.6589 -1.4123
  474MOL0     H63974   9.500   8.948   7.064  0.5090  2.5494  1.3189
  474MOL0     H63975   9.385   9.008   7.263 -2.7223  1.7046  2.1521
  474MOL0     H63976   7.579   9.473   7.472  0.5845  2.7644  1.8813
  474MOL0     H63977   7.438   9.524   7.657  0.4450 -2.1555 -1.7940
  474MOL0     H63978   7.006   9.371   7.876 -2.1833 -0.7518  0.0713
  474MOL0     H63979   6.777   9.388   7.958 -3.2965  0.8978 -2.6818
  474MOL0     H63980   6.554   9.776   7.844 -1.9885  0.7773 -0.1491
  474MOL0     H63981   6.522   9.616   7.778 -0.2503  2.9176 -2.3809
  474MOL0     H63982   6.351   9.747   7.907  3.1080  3.0312  0.3310
  474MOL0     H63983   6.405   9.650   8.037 -2.2255 -0.1650 -0.7448
  474MOL0     H63984   6.375   9.446   7.866 -0.1772 -0.7017 -0.2777
  474MOL0     H63985   6.296   9.550   7.768  0.3354 -1.1090  0.1876
  474MOL0     H63986   6.203   9.472   8.035  1.3883  1.2131  0.5312
  474MOL0     H63987   6.129   9.435   7.877 -0.1651  0.6586 -2.2106
  474MOL0     H63988   5.944   9.803   7.922  2.4028  1.6016  3.1312
  474MOL0     H63989   6.767   9.798   7.828 -0.6175  0.1754  5.0886
  474MOL0     H63990   6.992   9.775   7.735 -1.6554  0.5907 -1.1087
  475MOL0     O63991   0.305   2.812   1.925  0.0921  0.2797  0.5419
  475MOL0     C63992   0.207   2.745   1.959 -0.0302 -0.8459 -0.2189
  475MOL0     O63993   0.084   2.793   1.972 -0.0142  0.0598  0.0521
  475MOL0     C63994   0.049   2.921   1.993 -1.2909  0.5620  0.0449
  475MOL0     C63995  -0.077   2.971   1.964  0.1396 -0.3183 -0.6632
  475MOL0     C63996  -0.104   3.106   1.987  0.6463  0.2657 -0.9053
  475MOL0     C63997  -0.016   3.191   2.058  0.5902 -0.2709  0.0088
  475MOL0     O63998  -0.067   3.314   2.079  0.4402 -0.0466  0.3745
  475MOL0     C63999  -0.021   3.389   2.188  0.3002 -0.8619 -0.5130
  475MOL0     C64000  -0.100   3.524   2.199  0.0252  0.2152 -0.5670
  475MOL0     C64001  -0.252   3.518   2.190 -0.4789 -0.6098  0.3432
  475MOL0     C64002  -0.316   3.406   2.279 -0.5202  0.0406 -0.6864
  475MOL0     C64003  -0.332   3.449   2.429 -1.0769  0.4297 -1.5389
  475MOL0     C64004  -0.440   3.354   2.484 -0.0661 -0.2570  0.2588
  475MOL0     C64005  -0.447   3.379   2.637  0.2699 -0.0686 -0.4832
  475MOL0     C64006  -0.558   3.302   2.712  0.3302  0.0124 -0.7254
  475MOL0     N64007  -0.699   3.329   2.670  0.4128  0.2266 -0.0646
  475MOL0     C64008  -0.750   3.449   2.627  0.9142  0.3439  0.4683
  475MOL0     C64009  -0.882   3.436   2.606 -0.6386 -0.9951 -0.2089
  475MOL0     C64010  -0.960   3.554   2.554 -0.2219 -0.4962  0.6268
  475MOL0     C64011  -1.088   3.515   2.473 -0.2560  0.2949  0.4840
  475MOL0     C64012  -1.127   3.629   2.381 -0.7302  0.6203  0.3170
  475MOL0     C64013  -1.248   3.593   2.298 -0.1056  0.1230 -0.8037
  475MOL0     O64014  -1.295   3.700   2.217 -0.8831 -0.1909 -0.4363
  475MOL0     C64015  -1.423   3.710   2.163 -0.0761  0.0280 -0.7404
  475MOL0     C64016  -1.451   3.829   2.098 -0.3453  0.2790  0.6364
  475MOL0     C64017  -1.583   3.862   2.053 -0.2441 -0.5243 -0.1866
  475MOL0     C64018  -1.585   4.001   1.983  0.1498  0.5844 -0.9695
  475MOL0     C64019  -1.691   3.767   2.066 -1.0892 -0.0691  0.2923
  475MOL0     C64020  -1.828   3.788   2.017 -0.5048  0.5112  0.1250
  475MOL0     O64021  -1.929   3.741   2.103  1.6908 -0.2556 -0.0523
  475MOL0     C64022  -2.050   3.692   2.043  0.1323  0.5428  0.4027
  475MOL0     C64023  -2.171   3.761   2.042  0.3602 -1.0350 -0.1984
  475MOL0     C64024  -2.272   3.728   1.959  0.4858  0.1465  0.3713
  475MOL0     C64025  -2.267   3.623   1.873  0.7672  0.0376  0.2610
  475MOL0     O64026  -2.359   3.575   1.788  0.0092  0.1120 -0.5890
  475MOL0     C64027  -2.477   3.653   1.759  0.0546  0.4219  0.0723
  475MOL0     C64028  -2.526   3.617   1.616  0.8918 -1.0855  0.3492
  475MOL0     C64029  -2.541   3.471   1.600 -0.7083  0.4407 -0.2041
  475MOL0     C64030  -2.687   3.424   1.567 -0.3979 -0.5505 -0.1914
  475MOL0     C64031  -2.699   3.266   1.550 -0.6539 -0.4634  0.0249
  475MOL0     C64032  -2.844   3.233   1.501 -0.5500  0.7714 -0.1460
  475MOL0     C64033  -2.870   3.251   1.351  0.2759 -0.1524 -0.1843
  475MOL0     C64034  -2.813   3.141   1.262  0.3459  0.0894 -0.4184
  475MOL0    Cl64035  -2.862   3.172   1.087  0.3330  0.1688  0.0893
  475MOL0     C64036  -2.149   3.539   1.878  0.9308 -0.6583  0.0220
  475MOL0     C64037  -2.045   3.579   1.964 -0.3443 -0.0037  0.2535
  475MOL0     O64038  -1.841   3.831   1.903 -0.6435  0.7237 -0.0981
  475MOL0     C64039  -1.654   3.633   2.112  0.7114 -0.0086  1.5099
  475MOL0     C64040  -1.524   3.613   2.162  0.7536  0.6099  0.4217
  475MOL0     N64041  -0.917   3.302   2.640 -0.0824  0.1496 -0.0154
  475MOL0     N64042  -0.802   3.239   2.678  0.8455  0.1121  0.6437
  475MOL0     C64043   0.109   3.139   2.096 -0.3521  0.0905  0.6078
  475MOL0     C64044   0.146   3.009   2.055  0.0337 -0.3107 -0.4220
  475MOL0     C64045   0.229   2.600   1.964 -0.0087  0.0203  0.2530
  475MOL0     C64046   0.126   2.510   1.964  0.6672 -0.1026 -0.1880
  475MOL0     C64047   0.150   2.378   1.976 -0.3036  0.1840  0.8126
  475MOL0     C64048   0.275   2.322   1.984 -0.4696  0.5768 -0.1715
  475MOL0     O64049   0.282   2.183   1.998  1.1088  0.8789 -1.3799
  475MOL0     C64050   0.405   2.131   2.041  0.8592 -1.0643  0.3309
  475MOL0     C64051   0.405   1.985   2.021 -0.3940  0.5097 -0.3011
  475MOL0     C64052   0.401   1.961   1.873 -0.0903  0.0925  0.4557
  475MOL0     C64053   0.345   1.824   1.849 -0.0398 -0.2848  0.5574
  475MOL0     C64054   0.448   1.726   1.868 -0.1445  0.1165 -0.9516
  475MOL0     C64055   0.534   1.648   1.880 -0.8858  0.0135  0.5390
  475MOL0     C64056   0.386   2.410   1.988  0.2822 -0.6100  0.0102
  475MOL0     C64057   0.359   2.550   1.969 -0.4737  1.1950 -1.2984
  475MOL0     H64058  -0.152   2.904   1.925 -1.3720 -0.9301  2.9315
  475MOL0     H64059  -0.204   3.141   1.965 -0.5230 -3.2226 -1.9461
  475MOL0     H64060  -0.035   3.330   2.279 -1.0909  2.1010  1.3670
  475MOL0     H64061   0.085   3.414   2.179  0.2732 -0.3920  0.2935
  475MOL0     H64062  -0.073   3.573   2.292 -4.8580  1.3667  0.5258
  475MOL0     H64063  -0.061   3.596   2.126  1.1670  0.5057  0.3033
  475MOL0     H64064  -0.286   3.614   2.229  0.1288 -0.1218 -0.3036
  475MOL0     H64065  -0.282   3.507   2.086 -0.7338 -0.1144  0.3613
  475MOL0     H64066  -0.407   3.367   2.233 -0.3104 -0.1917 -0.9075
  475MOL0     H64067  -0.259   3.313   2.284 -0.5780  0.0372  0.0866
  475MOL0     H64068  -0.238   3.439   2.485 -3.0795 -3.1596  1.6051
  475MOL0     H64069  -0.359   3.555   2.434 -0.6165  0.5113 -0.0414
  475MOL0     H64070  -0.535   3.371   2.433 -0.3512 -0.0200  0.8693
  475MOL0     H64071  -0.409   3.249   2.472  2.3781  0.6163 -2.1910
  475MOL0     H64072  -0.357   3.348   2.692 -0.1376 -1.1046 -0.3782
  475MOL0     H64073  -0.473   3.484   2.655 -1.0831 -0.6749  1.4654
  475MOL0     H64074  -0.552   3.316   2.821  4.0464  0.3900 -0.8468
  475MOL0     H64075  -0.543   3.193   2.718 -3.6961 -0.6358  2.1147
  475MOL0     H64076  -0.689   3.532   2.593  0.2825  0.8414  0.5319
  475MOL0     H64077  -0.983   3.630   2.629  2.1945  2.3365 -1.2768
  475MOL0     H64078  -0.898   3.614   2.487 -0.2243 -3.6547 -2.5092
  475MOL0     H64079  -1.171   3.498   2.543 -1.7543 -2.3234 -1.7087
  475MOL0     H64080  -1.064   3.422   2.421  1.6714  0.9337  0.1803
  475MOL0     H64081  -1.040   3.639   2.316  0.0593 -3.0004  0.6013
  475MOL0     H64082  -1.137   3.718   2.444 -0.4362  0.5811  0.4194
  475MOL0     H64083  -1.320   3.563   2.375 -0.1488  1.5036 -0.2892
  475MOL0     H64084  -1.236   3.513   2.224 -0.6707 -0.3427 -0.4032
  475MOL0     H64085  -1.367   3.896   2.084 -0.4655  0.4410  0.6802
  475MOL0     H64086  -1.513   4.075   2.017  0.5449 -0.5000  0.6902
  475MOL0     H64087  -1.579   3.973   1.877  0.9627  0.0160 -0.7864
  475MOL0     H64088  -1.681   4.050   2.001  1.1904  2.3211  0.0157
  475MOL0     H64089  -2.184   3.846   2.107 -0.1347 -2.0749  1.1219
  475MOL0     H64090  -2.368   3.776   1.972 -0.3796 -1.2902 -0.3548
  475MOL0     H64091  -2.547   3.629   1.840  0.0947 -0.2724 -0.0973
  475MOL0     H64092  -2.456   3.761   1.757 -0.9751  0.6225 -1.0586
  475MOL0     H64093  -2.618   3.672   1.595  2.6901  1.4138 -1.6988
  475MOL0     H64094  -2.442   3.649   1.553  1.0657  1.3747  1.7360
  475MOL0     H64095  -2.512   3.404   1.682  1.4749 -0.8254 -1.8984
  475MOL0     H64096  -2.479   3.443   1.514  0.2315 -0.2168  0.6572
  475MOL0     H64097  -2.749   3.465   1.647 -1.3818  0.3993 -1.4021
  475MOL0     H64098  -2.715   3.475   1.474  1.0400  1.2182  0.2801
  475MOL0     H64099  -2.680   3.220   1.647 -2.6972 -0.7651  0.3419
  475MOL0     H64100  -2.623   3.235   1.478  0.9610  2.5944  0.2190
  475MOL0     H64101  -2.879   3.132   1.524 -0.7668  0.5010 -1.6020
  475MOL0     H64102  -2.914   3.296   1.557 -0.9876 -0.4910  0.7536
  475MOL0     H64103  -2.825   3.342   1.310  0.6979  0.3453  1.3339
  475MOL0     H64104  -2.979   3.261   1.349  0.1968  2.0108  4.0462
  475MOL0     H64105  -2.852   3.043   1.292  2.7128 -0.3792  1.3815
  475MOL0     H64106  -2.704   3.149   1.269  0.2265  0.2678  2.4884
  475MOL0     H64107  -2.161   3.454   1.811  0.6434 -0.0079 -0.7643
  475MOL0     H64108  -1.962   3.511   1.982  0.6021  1.6603  2.6572
  475MOL0     H64109  -1.731   3.557   2.116  1.8575 -1.6680 -2.6740
  475MOL0     H64110  -1.493   3.527   2.219 -0.5526  0.0275  0.2876
  475MOL0     H64111   0.187   3.196   2.146 -1.1859 -0.9235  3.1949
  475MOL0     H64112   0.241   2.978   2.098 -0.1316 -0.7636 -0.3751
  475MOL0     H64113   0.022   2.539   1.952  0.3118 -1.1709  0.2117
  475MOL0     H64114   0.075   2.302   1.962  0.6032 -0.3479 -1.6803
  475MOL0     H64115   0.485   2.174   1.981 -0.8278 -0.3067 -1.5266
  475MOL0     H64116   0.412   2.166   2.144  2.3761  1.0182 -0.4165
  475MOL0     H64117   0.324   1.935   2.073  0.6456 -0.8293  0.0953
  475MOL0     H64118   0.500   1.959   2.069  0.2789  1.0569 -1.2676
  475MOL0     H64119   0.500   1.978   1.829  1.0902  2.3967  3.6731
  475MOL0     H64120   0.336   2.034   1.825 -0.7112  1.2120  2.8768
  475MOL0     H64121   0.324   1.831   1.742  0.5871 -1.5784  0.3323
  475MOL0     H64122   0.253   1.808   1.905 -0.4924 -3.4494 -0.8742
  475MOL0     H64123   0.597   1.562   1.882 -1.1719 -0.1997  0.4129
  475MOL0     H64124   0.486   2.372   2.009  1.2580  2.0282  0.5085
  475MOL0     H64125   0.444   2.618   1.979 -0.2250  0.6652  0.4830
  476MOL0     O64126   8.957   5.086   7.608 -0.0620  0.1103  0.0238
  476MOL0     C64127   8.964   5.073   7.728  0.0968  0.5736  0.2470
  476MOL0     O64128   8.857   5.097   7.816 -0.3581 -0.7445 -0.0863
  476MOL0     C64129   8.733   5.116   7.763 -0.7434 -1.1299  0.1038
  476MOL0     C64130   8.678   5.039   7.650  0.1466 -0.6190  0.3101
  476MOL0     C64131   8.547   5.058   7.619  0.0890  0.4254  0.8042
  476MOL0     C64132   8.471   5.161   7.671  1.2467 -0.0616 -0.2839
  476MOL0     O64133   8.341   5.187   7.641  0.7077  0.0242 -0.0311
  476MOL0     C64134   8.260   5.084   7.593  1.0473  0.2897  0.1554
  476MOL0     C64135   8.125   5.139   7.600  1.3653 -0.1123  0.0772
  476MOL0     C64136   8.010   5.042   7.553  0.4441 -0.4531  1.1451
  476MOL0     C64137   7.881   5.110   7.538  0.3553 -0.1544 -1.0091
  476MOL0     C64138   7.756   5.024   7.517 -0.4059  0.9401  0.3328
  476MOL0     C64139   7.627   5.103   7.527 -0.1504 -0.7965  0.2436
  476MOL0     C64140   7.501   5.027   7.552  0.0133 -0.3432  0.6064
  476MOL0     C64141   7.380   5.104   7.487 -0.0874  0.1177  0.3563
  476MOL0     N64142   7.256   5.079   7.555 -0.3528 -0.1330 -0.9549
  476MOL0     C64143   7.191   4.964   7.574 -1.2582  0.1748 -0.0988
  476MOL0     C64144   7.085   4.987   7.649 -0.3216  0.0933 -0.0792
  476MOL0     C64145   6.984   4.878   7.686 -0.5483 -0.1015  0.2647
  476MOL0     C64146   6.862   4.904   7.597 -0.5322  0.2212  0.4518
  476MOL0     C64147   6.782   4.778   7.591  0.2690 -0.0423 -0.4486
  476MOL0     C64148   6.648   4.790   7.513  0.0071 -0.5123 -0.0252
  476MOL0     O64149   6.560   4.863   7.604 -0.4388  0.1233  0.2384
  476MOL0     C64150   6.421   4.889   7.575  0.0278 -0.1498 -0.2902
  476MOL0     C64151   6.363   4.868   7.451  0.4625  1.1154  0.2907
  476MOL0     C64152   6.230   4.910   7.410 -0.1196  0.3235 -0.0602
  476MOL0     C64153   6.176   4.885   7.266  0.3367  0.2377  0.2058
  476MOL0     C64154   6.157   4.980   7.507  0.2216  0.0294 -0.6932
  476MOL0     C64155   6.023   5.039   7.473 -0.4590  0.0690 -0.5477
  476MOL0     O64156   5.943   5.069   7.575  0.6872  0.3166 -0.1197
  476MOL0     C64157   5.813   5.103   7.554  0.4527  0.1254  0.1835
  476MOL0     C64158   5.736   5.068   7.444  0.2094 -1.4965 -0.8930
  476MOL0     C64159   5.596   5.091   7.448  0.1195  0.6475 -0.6860
  476MOL0     C64160   5.539   5.155   7.561  0.4827 -0.0974  0.4559
  476MOL0     O64161   5.406   5.175   7.563 -0.4329 -0.9321 -0.5741
  476MOL0     C64162   5.301   5.089   7.508 -0.5995  0.4172  0.5629
  476MOL0     C64163   5.182   5.076   7.596 -0.5283 -0.0016  0.3635
  476MOL0     C64164   5.066   5.025   7.513  0.0474 -0.0575  0.6392
  476MOL0     C64165   4.988   5.148   7.462  0.3573  0.4555 -0.3625
  476MOL0     C64166   4.855   5.101   7.398 -0.0465 -0.2880 -0.5111
  476MOL0     C64167   4.768   5.228   7.392  0.3085 -0.8701 -0.3587
  476MOL0     C64168   4.645   5.195   7.305 -0.3516 -0.2071 -0.3123
  476MOL0     C64169   4.601   5.321   7.234 -0.1788 -0.2397  0.0776
  476MOL0    Cl64170   4.577   5.467   7.342  0.2849 -0.2315  0.5648
  476MOL0     C64171   5.610   5.179   7.679  0.4281  0.1936  0.5325
  476MOL0     C64172   5.746   5.151   7.669  0.0872 -0.8462  0.4099
  476MOL0     O64173   6.009   5.069   7.356  0.2844 -0.4924  0.8805
  476MOL0     C64174   6.211   4.998   7.638 -0.6098 -0.0664 -0.9465
  476MOL0     C64175   6.342   4.949   7.666  0.1167 -0.6659  0.6960
  476MOL0     N64176   7.073   5.118   7.669 -0.7341 -0.7084 -0.1883
  476MOL0     N64177   7.175   5.174   7.613 -0.1126 -0.3567  0.1092
  476MOL0     C64178   8.531   5.235   7.778  0.0957  0.6826 -0.1750
  476MOL0     C64179   8.662   5.217   7.830 -0.2171  0.6874  0.4234
  476MOL0     C64180   9.095   5.040   7.777 -0.2690 -0.2900  0.9345
  476MOL0     C64181   9.222   5.081   7.720  0.0635 -0.3977  0.3193
  476MOL0     C64182   9.344   5.047   7.776 -0.1943  0.5001  0.6565
  476MOL0     C64183   9.350   4.994   7.903  0.1777  0.6174 -0.3701
  476MOL0     O64184   9.465   4.952   7.967 -0.3791 -0.0073  1.1262
  476MOL0     C64185   9.599   4.989   7.914  0.1852  0.1098  0.5113
  476MOL0     C64186   9.634   5.134   7.938  0.7500  0.2255  0.8871
  476MOL0     C64187   9.786   5.149   7.908  0.1795  0.2967 -0.8969
  476MOL0     C64188   9.824   5.299   7.914 -0.4661 -0.7741 -0.0639
  476MOL0     C64189   9.969   5.324   7.915  0.4651  0.8353 -1.0666
  476MOL0     C64190  10.085   5.349   7.921 -0.3177  0.0270 -0.3747
  476MOL0     C64191   9.231   4.967   7.970 -0.1023  0.2762  0.9651
  476MOL0     C64192   9.100   4.987   7.907 -0.0889  0.1309 -0.1570
  476MOL0     H64193   8.728   4.968   7.585  0.5987  2.5952 -3.2270
  476MOL0     H64194   8.508   4.994   7.540  0.9698  3.3982 -2.3304
  476MOL0     H64195   8.293   5.048   7.495 -0.4303 -1.4357  0.2225
  476MOL0     H64196   8.259   5.001   7.665 -0.9801  2.0214  2.2891
  476MOL0     H64197   8.097   5.178   7.698 -1.1755  1.5738 -1.2313
  476MOL0     H64198   8.129   5.214   7.520  0.4859 -2.4503 -2.3223
  476MOL0     H64199   8.040   4.987   7.463 -1.5490  1.5817 -0.8976
  476MOL0     H64200   7.995   4.964   7.628  0.6269 -0.7388  0.8883
  476MOL0     H64201   7.861   5.167   7.630 -2.6249 -0.6279 -1.2571
  476MOL0     H64202   7.893   5.184   7.458 -1.2588 -3.5926 -4.7417
  476MOL0     H64203   7.760   4.948   7.439 -1.0733  1.3340 -0.0941
  476MOL0     H64204   7.748   4.960   7.605 -1.3345 -0.8773 -1.0135
  476MOL0     H64205   7.634   5.177   7.607 -2.1491  0.7176 -0.8748
  476MOL0     H64206   7.626   5.159   7.433  2.3327 -1.1548 -0.0474
  476MOL0     H64207   7.507   4.931   7.499 -3.6937  1.0534 -2.9097
  476MOL0     H64208   7.483   4.999   7.656 -0.1626 -2.9030 -0.0303
  476MOL0     H64209   7.364   5.088   7.380 -0.8329 -3.4551  0.8758
  476MOL0     H64210   7.400   5.211   7.497  2.3948 -0.0359 -1.7381
  476MOL0     H64211   7.210   4.867   7.531  2.1844  0.1520  1.1176
  476MOL0     H64212   7.017   4.773   7.685  1.5136  0.2187  5.1878
  476MOL0     H64213   6.963   4.883   7.793 -0.1467  0.6987  0.3125
  476MOL0     H64214   6.883   4.928   7.492 -2.1890 -0.2902 -0.0203
  476MOL0     H64215   6.803   4.990   7.629 -1.1818 -0.2184  0.4519
  476MOL0     H64216   6.742   4.763   7.692  0.2194  0.6987 -0.3544
  476MOL0     H64217   6.836   4.689   7.559 -0.7991 -2.2061  3.2109
  476MOL0     H64218   6.596   4.694   7.501 -1.4046  0.0171  1.5116
  476MOL0     H64219   6.665   4.837   7.416 -3.4722 -0.2578 -0.6474
  476MOL0     H64220   6.432   4.829   7.378  0.8188  3.6456 -0.8270
  476MOL0     H64221   6.196   4.973   7.204  0.5207  0.0448 -0.0081
  476MOL0     H64222   6.225   4.801   7.216 -1.9883 -1.1951  0.1800
  476MOL0     H64223   6.071   4.854   7.269  0.6932 -0.9441  2.4418
  476MOL0     H64224   5.776   5.025   7.353 -0.9288 -1.4080 -1.4594
  476MOL0     H64225   5.534   5.068   7.363  0.3794 -2.0778 -0.2517
  476MOL0     H64226   5.269   5.128   7.411  3.0574  1.2856 -0.4387
  476MOL0     H64227   5.340   4.988   7.491 -4.0385 -1.3255  1.9226
  476MOL0     H64228   5.208   5.002   7.672 -0.4444 -2.2963 -1.7608
  476MOL0     H64229   5.161   5.169   7.650  0.7804  0.9480 -0.6830
  476MOL0     H64230   4.996   4.968   7.575  0.2846  0.4920  1.4291
  476MOL0     H64231   5.098   4.959   7.432 -1.3137  0.7456 -0.6153
  476MOL0     H64232   4.963   5.196   7.557  0.3367  1.3965 -0.8342
  476MOL0     H64233   5.050   5.208   7.395 -0.5438  2.5977  0.6359
  476MOL0     H64234   4.806   5.030   7.465 -0.0075  1.1406  1.1213
  476MOL0     H64235   4.866   5.069   7.295 -1.2347  0.1960 -0.8048
  476MOL0     H64236   4.728   5.260   7.488 -2.3782 -2.7743 -0.7379
  476MOL0     H64237   4.827   5.309   7.347 -0.0717  0.3839  1.3303
  476MOL0     H64238   4.575   5.138   7.367 -2.1111  2.8314  0.6785
  476MOL0     H64239   4.674   5.115   7.235  0.1319 -2.3348  2.1791
  476MOL0     H64240   4.509   5.310   7.175 -0.1017  2.4966 -0.6832
  476MOL0     H64241   4.684   5.348   7.168  1.0706 -2.6796  0.5393
  476MOL0     H64242   5.567   5.217   7.772 -1.0185 -0.6637  0.2427
  476MOL0     H64243   5.795   5.164   7.765 -2.3662 -1.5874  1.8513
  476MOL0     H64244   6.152   5.053   7.711 -3.7022 -2.7012 -1.2417
  476MOL0     H64245   6.387   4.976   7.761  1.8539 -0.6315 -0.1047
  476MOL0     H64246   8.479   5.310   7.837 -1.7402  0.8398 -1.8877
  476MOL0     H64247   8.693   5.271   7.919  0.3929  0.6479  0.2387
  476MOL0     H64248   9.217   5.145   7.632  0.3688 -1.1591 -0.2651
  476MOL0     H64249   9.429   5.066   7.712 -0.5472 -1.4388 -0.4818
  476MOL0     H64250   9.679   4.934   7.965 -0.1529 -1.6018 -0.6932
  476MOL0     H64251   9.607   4.956   7.810 -2.0717  0.1671  0.2801
  476MOL0     H64252   9.603   5.164   8.039  2.4552 -4.0810  2.9528
  476MOL0     H64253   9.583   5.194   7.862  0.8364 -0.9539 -0.1207
  476MOL0     H64254   9.792   5.106   7.808 -2.4651 -2.9047  0.1445
  476MOL0     H64255   9.839   5.087   7.981  0.6875 -3.0824 -3.8800
  476MOL0     H64256   9.778   5.334   8.007 -0.4888 -0.2656 -0.2662
  476MOL0     H64257   9.767   5.345   7.833 -0.1389 -1.9369 -0.9925
  476MOL0     H64258  10.188   5.371   7.941 -0.3098 -2.0248  2.5126
  476MOL0     H64259   9.241   4.926   8.070 -2.1057 -3.2639 -0.1305
  476MOL0     H64260   9.005   4.952   7.947 -2.5763  1.3392 -4.3516
  477MOL0     O64261   9.888   6.396   4.533  0.6450  0.4908  0.3782
  477MOL0     C64262   9.994   6.455   4.528  0.5607  0.5238 -0.6831
  477MOL0     O64263  10.018   6.575   4.575 -0.5614  0.3174  0.4352
  477MOL0     C64264   9.915   6.640   4.639 -0.7219 -0.9334 -0.1789
  477MOL0     C64265   9.885   6.617   4.775  0.1571 -0.0743  0.0063
  477MOL0     C64266   9.769   6.669   4.820  0.1780 -0.3504 -0.6293
  477MOL0     C64267   9.673   6.733   4.740 -0.0152 -0.2169  0.0892
  477MOL0     O64268   9.550   6.757   4.796 -0.8739  0.1200 -0.2466
  477MOL0     C64269   9.482   6.873   4.751  0.5603  1.2500 -0.1930
  477MOL0     C64270   9.391   6.931   4.862  0.4522 -0.0898 -0.4663
  477MOL0     C64271   9.272   6.842   4.906  1.1590 -0.0020 -0.6260
  477MOL0     C64272   9.161   6.865   4.803 -0.2623 -0.2303 -1.0219
  477MOL0     C64273   9.059   6.751   4.832 -0.0270  0.1584 -0.5168
  477MOL0     C64274   9.068   6.634   4.737 -0.7355 -0.1547  0.2257
  477MOL0     C64275   9.078   6.497   4.802 -0.1482 -0.2680 -0.1844
  477MOL0     C64276   9.049   6.384   4.701 -0.0796 -0.3144 -0.1823
  477MOL0     N64277   8.903   6.380   4.658 -0.4763 -0.2126  0.2374
  477MOL0     C64278   8.802   6.448   4.720 -0.4538 -0.5713  0.2098
  477MOL0     C64279   8.695   6.454   4.635 -0.3158 -0.1821 -0.2055
  477MOL0     C64280   8.559   6.501   4.686 -0.7687  0.6083  0.4950
  477MOL0     C64281   8.505   6.614   4.590 -0.0153 -0.5052 -0.3070
  477MOL0     C64282   8.443   6.548   4.468  0.8860  0.0485  0.0726
  477MOL0     C64283   8.296   6.509   4.497 -0.4194 -0.0680  1.0103
  477MOL0     O64284   8.209   6.620   4.486  0.2455  0.3770 -0.0610
  477MOL0     C64285   8.069   6.600   4.478 -0.9099  0.3136  1.6956
  477MOL0     C64286   7.987   6.714   4.513  0.9567  0.0318  0.3114
  477MOL0     C64287   7.852   6.701   4.539 -0.4672  0.1450  0.0174
  477MOL0     C64288   7.773   6.814   4.586 -0.3030  0.5358 -0.0226
  477MOL0     C64289   7.791   6.573   4.533  1.3159 -0.6521 -0.5239
  477MOL0     C64290   7.645   6.537   4.534 -0.1014  0.2318  0.9185
  477MOL0     O64291   7.607   6.413   4.546 -0.3653 -0.2848  0.7906
  477MOL0     C64292   7.473   6.402   4.549  0.1476 -0.5513  0.0341
  477MOL0     C64293   7.413   6.342   4.439 -0.1752  0.9125  1.2632
  477MOL0     C64294   7.274   6.330   4.439 -0.0656  0.1392  0.2798
  477MOL0     C64295   7.195   6.380   4.538  0.3703 -0.7590 -0.8655
  477MOL0     O64296   7.061   6.370   4.534  0.3845 -0.0148  0.0156
  477MOL0     C64297   7.010   6.341   4.664 -0.1141 -0.5437  0.0924
  477MOL0     C64298   6.918   6.225   4.633 -0.2482  0.2095 -0.6580
  477MOL0     C64299   6.845   6.179   4.763 -0.1734  0.6135 -0.7068
  477MOL0     C64300   6.727   6.090   4.726 -0.6539 -0.7919 -1.0937
  477MOL0     C64301   6.635   6.042   4.845  0.9342 -0.6890 -0.2523
  477MOL0     C64302   6.533   5.932   4.796 -0.0438 -0.8715  0.0575
  477MOL0     C64303   6.613   5.798   4.783 -0.0259 -1.2817 -1.1190
  477MOL0     C64304   6.662   5.742   4.914  0.0641  0.2449  0.3243
  477MOL0    Cl64305   6.717   5.571   4.883  0.2452 -0.1352  0.1132
  477MOL0     C64306   7.254   6.452   4.639  0.0715  0.4269  0.1474
  477MOL0     C64307   7.391   6.458   4.652 -0.2416  0.7180  1.0774
  477MOL0     O64308   7.570   6.632   4.491 -0.3698 -0.2046 -0.7654
  477MOL0     C64309   7.869   6.462   4.500  0.3587  0.5690 -0.2511
  477MOL0     C64310   8.004   6.477   4.463 -0.3703 -0.4498 -0.0125
  477MOL0     N64311   8.732   6.400   4.513  0.6901 -0.5583 -0.0615
  477MOL0     N64312   8.855   6.361   4.530  0.3979  0.6390  0.5833
  477MOL0     C64313   9.700   6.764   4.606  0.0690 -0.1208 -0.0016
  477MOL0     C64314   9.827   6.717   4.559 -0.0444  0.1384 -0.7287
  477MOL0     C64315  10.114   6.390   4.464  0.5952 -0.8181 -0.2519
  477MOL0     C64316  10.244   6.440   4.503  0.3725 -0.0927  0.3070
  477MOL0     C64317  10.355   6.394   4.432  0.1066 -0.2329  0.0719
  477MOL0     C64318  10.347   6.307   4.322 -0.4192 -0.7627  0.2663
  477MOL0     O64319  10.468   6.280   4.255 -0.0140 -0.1790 -0.0644
  477MOL0     C64320  10.463   6.164   4.172  0.6274  0.0441  0.4768
  477MOL0     C64321  10.598   6.123   4.128  0.1721  0.7042  0.2648
  477MOL0     C64322  10.688   6.059   4.233 -0.5375 -0.3404  0.5976
  477MOL0     C64323  10.805   5.994   4.164 -0.8540  0.5778 -0.2210
  477MOL0     C64324  10.894   6.093   4.105  0.3449  0.0833 -0.0826
  477MOL0     C64325  10.981   6.181   4.074 -0.1430  0.6859 -0.2367
  477MOL0     C64326  10.215   6.251   4.291 -0.2444 -0.7173 -0.0720
  477MOL0     C64327  10.107   6.299   4.360  0.9461  0.5495 -0.4326
  477MOL0     H64328   9.951   6.563   4.842  0.3985 -1.5142 -1.3322
  477MOL0     H64329   9.733   6.648   4.921 -0.8059  0.3067 -0.8259
  477MOL0     H64330   9.548   6.957   4.724  3.8943 -0.5650  1.5884
  477MOL0     H64331   9.413   6.839   4.674 -0.0520 -0.8668  1.2133
  477MOL0     H64332   9.456   6.949   4.948  0.3989  0.3568 -0.5181
  477MOL0     H64333   9.353   7.029   4.834 -2.5199 -1.2880 -0.9801
  477MOL0     H64334   9.299   6.736   4.900 -2.7138 -1.2248  0.7753
  477MOL0     H64335   9.250   6.861   5.011  3.3474  0.6391 -0.2241
  477MOL0     H64336   9.111   6.957   4.836 -1.0667 -0.7354 -0.8005
  477MOL0     H64337   9.193   6.880   4.699 -1.0490 -0.9815 -1.3888
  477MOL0     H64338   9.075   6.722   4.936  2.9402  2.9814 -0.0175
  477MOL0     H64339   8.956   6.787   4.828  0.4297  1.3947 -1.9285
  477MOL0     H64340   8.990   6.646   4.662  0.2377 -1.1823 -0.9927
  477MOL0     H64341   9.163   6.651   4.685 -1.2059  1.1309 -0.2476
  477MOL0     H64342   9.180   6.479   4.837 -1.1058 -0.1978  2.9668
  477MOL0     H64343   9.007   6.486   4.884  0.5505 -2.2861  0.1940
  477MOL0     H64344   9.081   6.295   4.756  2.0938  1.0699  0.9077
  477MOL0     H64345   9.117   6.403   4.618 -2.4731  0.8057 -2.0355
  477MOL0     H64346   8.802   6.473   4.826 -2.7855  1.9159 -0.2577
  477MOL0     H64347   8.489   6.419   4.673 -0.0873  0.1428 -0.2868
  477MOL0     H64348   8.564   6.545   4.787  0.0357  2.8913 -0.4652
  477MOL0     H64349   8.578   6.683   4.546 -0.1299  1.3795  2.2409
  477MOL0     H64350   8.435   6.678   4.644  1.8926  0.1876  1.4845
  477MOL0     H64351   8.489   6.454   4.438 -3.3355 -2.1435 -0.2600
  477MOL0     H64352   8.462   6.621   4.388  0.7942  0.3497  0.3207
  477MOL0     H64353   8.279   6.475   4.600 -3.1988  0.4797  0.8119
  477MOL0     H64354   8.270   6.436   4.420 -1.7387  2.7510 -1.3967
  477MOL0     H64355   8.032   6.810   4.531  0.3348 -0.1148  3.1205
  477MOL0     H64356   7.846   6.893   4.603  0.6335 -0.2223 -0.4027
  477MOL0     H64357   7.695   6.841   4.514  2.1320  1.4099 -2.4984
  477MOL0     H64358   7.730   6.787   4.684  2.4377 -2.6873  0.4700
  477MOL0     H64359   7.478   6.298   4.364  1.9503  1.4840  2.6991
  477MOL0     H64360   7.230   6.279   4.353  0.4063 -1.2062  0.8268
  477MOL0     H64361   7.086   6.300   4.731 -0.7140  1.0884  1.8708
  477MOL0     H64362   6.972   6.434   4.707  1.3488  0.3576 -0.4764
  477MOL0     H64363   6.840   6.244   4.558 -0.3888 -0.4308 -0.6832
  477MOL0     H64364   6.985   6.147   4.597  0.2994  0.1004  0.5267
  477MOL0     H64365   6.815   6.261   4.830  1.9639 -0.2060  1.4106
  477MOL0     H64366   6.911   6.116   4.825 -1.0135  1.6331  1.3206
  477MOL0     H64367   6.657   6.148   4.665 -2.9787  0.4374  2.4445
  477MOL0     H64368   6.773   6.008   4.670 -0.8504 -0.7484 -1.3192
  477MOL0     H64369   6.581   6.132   4.877 -0.8341 -1.0142 -2.1396
  477MOL0     H64370   6.688   6.004   4.933 -1.0216  0.6566  1.6328
  477MOL0     H64371   6.459   5.934   4.877  1.7069  3.2703  1.8619
  477MOL0     H64372   6.487   5.958   4.701  1.3196 -0.9042 -0.6402
  477MOL0     H64373   6.693   5.803   4.708 -2.4739 -1.2562 -3.9275
  477MOL0     H64374   6.546   5.732   4.728  1.8567 -2.7918 -1.6974
  477MOL0     H64375   6.577   5.743   4.983  1.1628 -3.5983  1.9984
  477MOL0     H64376   6.748   5.793   4.957 -0.6588  0.9687  0.9434
  477MOL0     H64377   7.203   6.509   4.716 -1.5936  2.1040 -2.0723
  477MOL0     H64378   7.433   6.512   4.736 -0.4063  1.2454  0.8245
  477MOL0     H64379   7.832   6.363   4.474 -1.0389  1.2827 -1.1217
  477MOL0     H64380   8.065   6.392   4.433  1.3397 -0.2592  2.5805
  477MOL0     H64381   9.621   6.810   4.547 -1.6216 -1.4898  1.0830
  477MOL0     H64382   9.853   6.725   4.453  0.5424  0.2018 -0.5849
  477MOL0     H64383  10.243   6.523   4.573  1.0004 -0.7691  1.1378
  477MOL0     H64384  10.450   6.438   4.460 -1.1562  2.6221  0.2561
  477MOL0     H64385  10.431   6.087   4.243 -2.1613  0.7969  0.1808
  477MOL0     H64386  10.397   6.190   4.089 -1.4287 -1.0756  1.6713
  477MOL0     H64387  10.644   6.210   4.080  0.5547  1.0902  1.3011
  477MOL0     H64388  10.589   6.056   4.042 -0.2996  2.0239 -0.7469
  477MOL0     H64389  10.647   5.969   4.280 -0.6907 -2.0573 -2.5414
  477MOL0     H64390  10.722   6.137   4.301 -1.2789 -0.9075  1.6472
  477MOL0     H64391  10.765   5.930   4.084 -1.6890 -0.6190  1.1061
  477MOL0     H64392  10.846   5.933   4.245 -1.6247 -0.0446 -0.2814
  477MOL0     H64393  11.065   6.247   4.064 -0.1054  0.4406 -1.7227
  477MOL0     H64394  10.210   6.193   4.200  0.1977 -0.3841 -0.3096
  477MOL0     H64395  10.012   6.267   4.318  1.1487 -0.2419 -0.3111
  478MOL0     O64396   3.515   6.073   8.568  0.1677 -0.2620  0.2319
  478MOL0     C64397   3.613   6.098   8.495 -0.1777  1.0820 -1.0966
  478MOL0     O64398   3.629   6.058   8.369  0.0487  1.0148 -1.0874
  478MOL0     C64399   3.542   5.958   8.333  0.4493  0.1158  0.3763
  478MOL0     C64400   3.542   5.821   8.374 -0.1429  0.7186  0.4736
  478MOL0     C64401   3.462   5.726   8.301 -0.0436 -0.2850 -0.3871
  478MOL0     C64402   3.375   5.772   8.202  1.2238 -0.4662 -0.0132
  478MOL0     O64403   3.279   5.684   8.152 -0.2828 -0.4927  1.1249
  478MOL0     C64404   3.186   5.738   8.058  0.7789  0.1001 -0.2015
  478MOL0     C64405   3.083   5.628   8.038  0.2581  0.6706 -0.5698
  478MOL0     C64406   2.994   5.672   7.930  0.4517 -1.2281  0.9104
  478MOL0     C64407   2.934   5.546   7.857 -0.0198 -0.2647 -0.3472
  478MOL0     C64408   2.830   5.599   7.757  0.0043 -0.0994 -0.3648
  478MOL0     C64409   2.751   5.491   7.671  0.1022 -0.4492 -0.4345
  478MOL0     C64410   2.833   5.416   7.559 -0.3416 -0.2466 -0.4204
  478MOL0     C64411   2.863   5.265   7.588  0.0536 -0.3239 -1.0125
  478MOL0     N64412   2.767   5.162   7.602 -0.2942  0.7219  0.6043
  478MOL0     C64413   2.641   5.160   7.565  0.7218  0.0099 -0.4046
  478MOL0     C64414   2.574   5.064   7.634 -0.6753 -0.3234 -0.3252
  478MOL0     C64415   2.439   5.028   7.595  0.1500  0.1137  0.5772
  478MOL0     C64416   2.431   4.955   7.464  0.5944 -0.0239  0.3776
  478MOL0     C64417   2.281   4.919   7.444  0.4914  0.1107 -0.9149
  478MOL0     C64418   2.194   5.048   7.396 -0.1088  1.4721  0.6311
  478MOL0     O64419   2.063   5.008   7.340 -0.3875 -0.1547  0.2734
  478MOL0     C64420   1.978   5.094   7.286  0.4286 -0.4208  0.2094
  478MOL0     C64421   2.009   5.222   7.263  0.1149 -0.8305 -0.2901
  478MOL0     C64422   1.911   5.312   7.217  0.0994 -1.3027  0.4640
  478MOL0     C64423   1.953   5.458   7.192  0.5379 -0.0405  0.4919
  478MOL0     C64424   1.774   5.269   7.198  0.2089  0.3854  0.0752
  478MOL0     C64425   1.666   5.348   7.138 -0.0883  0.3499 -0.0086
  478MOL0     O64426   1.611   5.302   7.025 -0.3063  0.3915 -0.0026
  478MOL0     C64427   1.510   5.368   6.965  0.0192 -0.1307 -0.5642
  478MOL0     C64428   1.390   5.399   7.022 -0.6107 -0.3219  0.2410
  478MOL0     C64429   1.295   5.486   6.967 -0.3386  0.1323  0.0366
  478MOL0     C64430   1.316   5.533   6.834  0.3751 -0.0300  0.4603
  478MOL0     O64431   1.221   5.618   6.777 -0.0442  0.0824  1.0145
  478MOL0     C64432   1.181   5.588   6.640 -0.1887  0.3512  0.9177
  478MOL0     C64433   1.035   5.602   6.623  1.0390  0.2944  0.0389
  478MOL0     C64434   0.942   5.473   6.654  0.1625  0.4514  0.1879
  478MOL0     C64435   0.790   5.500   6.612  1.5735 -0.4631 -0.4242
  478MOL0     C64436   0.689   5.396   6.673  1.1728  0.0008  0.9927
  478MOL0     C64437   0.556   5.387   6.592  0.2711  0.8082  0.4347
  478MOL0     C64438   0.466   5.504   6.604 -0.0284 -0.6016 -0.4644
  478MOL0     C64439   0.337   5.467   6.534  0.1867  0.0758 -0.4490
  478MOL0    Cl64440   0.203   5.569   6.596  0.1372  0.2204  0.0109
  478MOL0     C64441   1.440   5.497   6.769 -0.1783 -0.4834  0.0579
  478MOL0     C64442   1.534   5.420   6.837 -0.0519  0.0150 -0.3124
  478MOL0     O64443   1.637   5.454   7.194 -0.3490  0.2633  0.1348
  478MOL0     C64444   1.744   5.133   7.213 -0.1877  0.0557  0.1312
  478MOL0     C64445   1.848   5.051   7.251  0.6060  0.0124 -0.1643
  478MOL0     N64446   2.663   5.003   7.719  0.7751  0.3593 -0.1596
  478MOL0     N64447   2.779   5.054   7.697 -0.3622 -0.4397  0.4812
  478MOL0     C64448   3.381   5.909   8.157  0.3669 -0.0652  0.4485
  478MOL0     C64449   3.473   5.997   8.215  0.7343  1.2672  0.0799
  478MOL0     C64450   3.729   6.166   8.550 -0.6082  0.3551 -0.2434
  478MOL0     C64451   3.714   6.254   8.670  0.0357  0.3820  0.4202
  478MOL0     C64452   3.825   6.305   8.732  0.3532 -0.3937 -0.8145
  478MOL0     C64453   3.957   6.283   8.693  0.3002  0.0395 -0.4160
  478MOL0     O64454   4.072   6.346   8.736 -0.3510  0.0524 -0.5869
  478MOL0     C64455   4.072   6.422   8.865  0.6045 -0.7285 -1.1467
  478MOL0     C64456   4.212   6.476   8.905  0.5805  0.4066 -0.2264
  478MOL0     C64457   4.282   6.543   8.798  0.1861 -0.9849 -0.0410
  478MOL0     C64458   4.429   6.561   8.834 -0.0901  0.0971 -0.1923
  478MOL0     C64459   4.491   6.677   8.787 -0.1243 -0.6270 -0.1457
  478MOL0     C64460   4.546   6.773   8.731  0.2065 -0.6278 -0.5676
  478MOL0     C64461   3.969   6.201   8.577 -0.0611  0.1749  0.3202
  478MOL0     C64462   3.859   6.141   8.503  0.7069 -0.0900 -0.2741
  478MOL0     H64463   3.597   5.777   8.456  0.4395  0.6321  0.0454
  478MOL0     H64464   3.451   5.620   8.318 -1.5262  0.1725  1.8693
  478MOL0     H64465   3.119   5.815   8.097 -0.1923 -1.1652  0.6876
  478MOL0     H64466   3.245   5.765   7.970  2.7004 -3.3554 -0.1325
  478MOL0     H64467   3.148   5.542   8.025 -0.0273 -0.0170  2.0522
  478MOL0     H64468   3.023   5.623   8.129 -3.1077  0.2883 -2.6205
  478MOL0     H64469   2.923   5.735   7.984  2.1711 -1.1538  3.2276
  478MOL0     H64470   3.055   5.732   7.862 -2.3931  0.2997 -0.4411
  478MOL0     H64471   3.020   5.505   7.803  1.3990 -0.1568  1.7266
  478MOL0     H64472   2.894   5.471   7.925 -0.0417  0.5487  0.5547
  478MOL0     H64473   2.752   5.648   7.816  2.5063  0.5007  2.6620
  478MOL0     H64474   2.878   5.675   7.694  1.5873  0.0362  0.9577
  478MOL0     H64475   2.694   5.425   7.736 -1.6516  2.4332  1.1878
  478MOL0     H64476   2.676   5.545   7.612  0.4398 -0.3352 -0.7633
  478MOL0     H64477   2.770   5.427   7.470 -1.5201 -0.3950  0.3688
  478MOL0     H64478   2.932   5.459   7.544 -0.7805  1.7627  1.8488
  478MOL0     H64479   2.914   5.268   7.685  0.2633  2.1045 -1.1168
  478MOL0     H64480   2.946   5.233   7.524  2.2720  2.8927 -0.0120
  478MOL0     H64481   2.594   5.227   7.494  1.1737 -1.9746 -2.7063
  478MOL0     H64482   2.392   4.956   7.663  2.8884 -0.8641  1.5800
  478MOL0     H64483   2.389   5.120   7.564 -0.2850 -0.8492 -1.7491
  478MOL0     H64484   2.496   4.867   7.474  3.3357  1.7490 -0.5880
  478MOL0     H64485   2.475   5.014   7.383  0.5409  0.4924  0.7190
  478MOL0     H64486   2.232   4.871   7.530 -0.9265  0.9404 -1.2289
  478MOL0     H64487   2.281   4.846   7.363  0.7178  0.2842 -1.0709
  478MOL0     H64488   2.248   5.092   7.312 -3.6654  3.2119 -0.9453
  478MOL0     H64489   2.170   5.121   7.474  1.2928  3.9229 -1.1206
  478MOL0     H64490   2.113   5.250   7.278  0.0910  0.8353 -2.5621
  478MOL0     H64491   1.881   5.531   7.230 -1.6298 -1.6156 -0.4175
  478MOL0     H64492   2.054   5.477   7.229  1.0418 -1.0132 -0.3433
  478MOL0     H64493   1.970   5.471   7.085  1.3038 -0.8350  0.5020
  478MOL0     H64494   1.369   5.359   7.121  1.2916 -0.0350  0.8089
  478MOL0     H64495   1.199   5.499   7.015  0.5983 -0.5403  2.2099
  478MOL0     H64496   1.236   5.661   6.581  0.9790  1.5095  3.2903
  478MOL0     H64497   1.217   5.491   6.606  1.0145  1.2856 -0.6542
  478MOL0     H64498   0.990   5.683   6.682  1.4322  1.1099 -0.7505
  478MOL0     H64499   1.018   5.629   6.518 -0.9387 -0.9013  0.0151
  478MOL0     H64500   0.935   5.452   6.761  0.4547  2.2443  0.5927
  478MOL0     H64501   0.981   5.379   6.614  0.6356  0.1344  1.3494
  478MOL0     H64502   0.765   5.601   6.645 -0.7439 -0.6252 -1.5303
  478MOL0     H64503   0.790   5.510   6.503 -1.5137 -0.4604 -0.5126
  478MOL0     H64504   0.665   5.436   6.771 -0.7846 -1.1930  1.0649
  478MOL0     H64505   0.735   5.297   6.670 -0.5396 -0.8376  0.7531
  478MOL0     H64506   0.572   5.368   6.486 -1.5024 -4.2682  0.7931
  478MOL0     H64507   0.509   5.299   6.638  3.3560 -0.5951  1.1662
  478MOL0     H64508   0.510   5.597   6.565  0.1617 -0.9815 -1.1675
  478MOL0     H64509   0.447   5.524   6.710 -1.1673 -2.5878 -0.2592
  478MOL0     H64510   0.300   5.366   6.553 -2.7343  0.6594 -2.2417
  478MOL0     H64511   0.347   5.483   6.426  0.3336  0.9505 -0.3150
  478MOL0     H64512   1.459   5.523   6.666  0.5018  0.9349  0.5137
  478MOL0     H64513   1.630   5.415   6.786 -0.2906  3.3142 -1.3606
  478MOL0     H64514   1.649   5.090   7.184  0.4926 -1.7290  0.4130
  478MOL0     H64515   1.825   4.945   7.264 -0.2005  0.2786  0.6697
  478MOL0     H64516   3.330   5.952   8.071  0.7580  0.7312  0.6133
  478MOL0     H64517   3.487   6.103   8.197 -0.1864  1.2510 -0.7735
  478MOL0     H64518   3.614   6.259   8.712 -1.0102 -3.8527 -1.0346
  478MOL0     H64519   3.804   6.377   8.811  1.5385  0.9783 -1.6874
  478MOL0     H64520   4.013   6.514   8.858  2.8708  1.0947  1.5251
  478MOL0     H64521   4.028   6.366   8.949 -0.6718  0.4100 -1.0204
  478MOL0     H64522   4.270   6.388   8.934  0.8226 -0.5496 -3.2516
  478MOL0     H64523   4.208   6.535   8.997 -0.6105 -1.1483  0.7820
  478MOL0     H64524   4.237   6.642   8.783 -1.1344 -1.2478  1.7745
  478MOL0     H64525   4.270   6.485   8.706 -2.0289  1.2548 -1.2845
  478MOL0     H64526   4.486   6.468   8.826  0.2560 -0.0014  2.5286
  478MOL0     H64527   4.435   6.585   8.940 -0.1220 -0.1458 -0.1334
  478MOL0     H64528   4.600   6.839   8.667  0.2009 -3.6524 -4.0062
  478MOL0     H64529   4.072   6.193   8.542 -1.1137 -3.0429 -2.6373
  478MOL0     H64530   3.875   6.093   8.407 -3.4003  1.3196 -1.8977
  479MOL0     O64531   8.728   6.991   3.374 -0.0299 -0.1241 -0.2757
  479MOL0     C64532   8.772   6.879   3.399 -0.1634 -0.0136 -0.6141
  479MOL0     O64533   8.707   6.782   3.460 -0.5038 -0.2992  0.0208
  479MOL0     C64534   8.591   6.796   3.529 -0.4887  0.4114  0.5117
  479MOL0     C64535   8.569   6.874   3.639 -0.4560  0.2936 -0.1836
  479MOL0     C64536   8.452   6.876   3.704  1.5696 -0.0927  0.1358
  479MOL0     C64537   8.350   6.801   3.657 -0.3092 -0.4266  0.9112
  479MOL0     O64538   8.228   6.807   3.722 -0.1352 -1.2074 -1.0281
  479MOL0     C64539   8.102   6.790   3.646 -0.6100  0.4095  0.1695
  479MOL0     C64540   8.009   6.890   3.708  0.0134  0.2312  1.0431
  479MOL0     C64541   7.863   6.867   3.672 -0.3382 -0.6334  0.0567
  479MOL0     C64542   7.763   6.934   3.766 -0.7708  0.4740  0.3151
  479MOL0     C64543   7.622   6.897   3.726 -0.4585  0.1881  0.4663
  479MOL0     C64544   7.516   6.976   3.804  0.3850 -0.4699 -0.0124
  479MOL0     C64545   7.382   6.917   3.770  0.6167 -0.4479 -0.1101
  479MOL0     C64546   7.267   7.015   3.809  0.1100  1.0349 -0.1908
  479MOL0     N64547   7.133   6.951   3.783  0.4223  0.0704  0.0023
  479MOL0     C64548   7.093   6.835   3.837  0.2734 -0.0903  0.3899
  479MOL0     C64549   6.966   6.812   3.792 -0.2093  0.8553 -0.3486
  479MOL0     C64550   6.881   6.693   3.823 -0.7184 -0.7333 -0.0711
  479MOL0     C64551   6.811   6.708   3.963 -0.1948 -0.6795  0.1923
  479MOL0     C64552   6.720   6.835   3.975  0.0995 -0.1925 -0.2375
  479MOL0     C64553   6.589   6.831   3.903 -0.0160  0.5851 -0.0206
  479MOL0     O64554   6.505   6.735   3.967  0.0310 -0.5209 -0.3576
  479MOL0     C64555   6.406   6.779   4.053  0.0597 -0.3746 -0.8897
  479MOL0     C64556   6.414   6.894   4.129 -0.3143 -0.7993 -0.2896
  479MOL0     C64557   6.309   6.933   4.224  0.5652  0.5972  0.2579
  479MOL0     C64558   6.315   7.072   4.284 -0.1475  0.2260 -0.2745
  479MOL0     C64559   6.196   6.852   4.237 -0.3053  0.6932 -0.3679
  479MOL0     C64560   6.078   6.883   4.319 -0.4504 -1.2976 -0.5575
  479MOL0     O64561   5.964   6.811   4.288 -0.2368 -0.1306 -0.6159
  479MOL0     C64562   5.855   6.835   4.365  0.3308  0.1300 -0.4018
  479MOL0     C64563   5.802   6.730   4.446 -0.1453  0.2761 -0.2282
  479MOL0     C64564   5.672   6.746   4.497  0.0209  0.2979 -0.3586
  479MOL0     C64565   5.591   6.863   4.467  0.3214  0.1899 -0.3958
  479MOL0     O64566   5.463   6.861   4.483  0.0685 -0.3734 -0.4467
  479MOL0     C64567   5.432   6.831   4.616 -0.4787 -0.5152 -0.6047
  479MOL0     C64568   5.329   6.930   4.658  0.3959 -0.0523  0.1062
  479MOL0     C64569   5.194   6.906   4.577  0.0379 -0.6177 -0.0526
  479MOL0     C64570   5.108   6.794   4.644 -0.8256 -0.3428  0.1338
  479MOL0     C64571   4.975   6.785   4.572 -0.8642  0.8794 -0.2269
  479MOL0     C64572   4.963   6.696   4.450 -0.4732 -0.4065 -0.4246
  479MOL0     C64573   5.005   6.552   4.478  0.4995 -0.7525  0.2754
  479MOL0     C64574   4.935   6.447   4.399  0.4224  0.2586  0.6628
  479MOL0    Cl64575   5.048   6.316   4.386 -0.5622  0.2407 -0.2230
  479MOL0     C64576   5.644   6.963   4.394  0.9137 -0.5650 -0.6040
  479MOL0     C64577   5.778   6.956   4.352 -0.2047  0.8141 -0.4162
  479MOL0     O64578   6.085   6.965   4.409  0.1997 -0.7642  0.0769
  479MOL0     C64579   6.197   6.727   4.174  0.4263 -0.2111  0.6034
  479MOL0     C64580   6.299   6.697   4.083  0.5337  0.4204  0.2912
  479MOL0     N64581   6.938   6.903   3.698 -0.1253 -0.2294  0.5945
  479MOL0     N64582   7.043   6.985   3.693  0.5871  0.0260  0.3942
  479MOL0     C64583   8.357   6.718   3.538 -0.0604 -0.4322 -0.2485
  479MOL0     C64584   8.488   6.712   3.473  0.1484 -0.7703  0.3601
  479MOL0     C64585   8.900   6.850   3.332 -0.2684  0.9100 -0.7278
  479MOL0     C64586   8.969   6.940   3.241 -0.3440 -0.4924 -0.5853
  479MOL0     C64587   9.099   6.905   3.181 -0.5522  1.3793 -0.9181
  479MOL0     C64588   9.161   6.779   3.214  0.0647 -0.5435  0.2467
  479MOL0     O64589   9.281   6.745   3.157 -0.1477  0.0298  0.0087
  479MOL0     C64590   9.379   6.694   3.252  1.1825  0.0161  0.3372
  479MOL0     C64591   9.480   6.800   3.292 -0.8645  0.9295 -0.0110
  479MOL0     C64592   9.584   6.824   3.183  0.3436 -0.4132 -0.8513
  479MOL0     C64593   9.664   6.950   3.222 -0.9547  0.7050 -0.9980
  479MOL0     C64594   9.787   6.949   3.143  0.0506  0.5229  0.2731
  479MOL0     C64595   9.880   6.960   3.069  0.4458 -0.0586  0.1505
  479MOL0     C64596   9.086   6.687   3.284  0.3110 -0.6135 -0.4906
  479MOL0     C64597   8.961   6.724   3.345  0.1097  0.3679 -0.0909
  479MOL0     H64598   8.651   6.938   3.671 -0.1499 -0.7104  1.1086
  479MOL0     H64599   8.436   6.951   3.782  0.3572  1.5447 -1.5760
  479MOL0     H64600   8.118   6.823   3.543  1.2779  0.5830  0.4688
  479MOL0     H64601   8.064   6.689   3.665 -0.5046  0.5146  0.9711
  479MOL0     H64602   8.009   6.872   3.816 -4.1600 -0.3667  1.1175
  479MOL0     H64603   8.028   6.991   3.670 -3.1688  0.3912 -0.4788
  479MOL0     H64604   7.851   6.901   3.568  0.6640  0.2806  0.2187
  479MOL0     H64605   7.844   6.760   3.675  0.3481 -0.7894 -0.6414
  479MOL0     H64606   7.789   6.915   3.871  1.1133 -0.3737 -0.2540
  479MOL0     H64607   7.777   7.040   3.743 -2.6160  0.6441 -0.2002
  479MOL0     H64608   7.617   6.942   3.626  0.2961  0.5149  0.5641
  479MOL0     H64609   7.600   6.792   3.705  2.3073 -0.0811 -1.7434
  479MOL0     H64610   7.543   6.973   3.910  3.6224  1.4808 -0.6225
  479MOL0     H64611   7.511   7.081   3.772 -2.7683 -0.0335  1.5091
  479MOL0     H64612   7.378   6.895   3.663  2.9194  1.2675 -0.6224
  479MOL0     H64613   7.376   6.822   3.823 -1.1008  1.0328  2.5687
  479MOL0     H64614   7.281   7.115   3.768  0.3010  2.3857  2.9288
  479MOL0     H64615   7.279   7.021   3.917 -1.4671 -1.1790  0.1663
  479MOL0     H64616   7.143   6.762   3.901  0.3486  0.5749  1.0999
  479MOL0     H64617   6.810   6.671   3.743 -1.4744  0.8312  0.1456
  479MOL0     H64618   6.954   6.612   3.828  0.9803  0.7830  0.8489
  479MOL0     H64619   6.890   6.704   4.039  1.1317  0.5241 -1.0671
  479MOL0     H64620   6.745   6.623   3.983 -0.8792 -0.4321 -0.9124
  479MOL0     H64621   6.774   6.914   3.923  0.2798 -3.2948 -5.5196
  479MOL0     H64622   6.716   6.868   4.079  0.3549  0.2306 -0.3582
  479MOL0     H64623   6.609   6.789   3.804 -3.5586  0.3214 -0.7616
  479MOL0     H64624   6.541   6.926   3.876 -0.2002 -0.4286 -3.9533
  479MOL0     H64625   6.503   6.955   4.132 -0.4251 -0.4802 -2.1906
  479MOL0     H64626   6.383   7.139   4.231  0.8966  3.2143  4.2141
  479MOL0     H64627   6.222   7.128   4.274 -1.1647 -1.4181 -0.3018
  479MOL0     H64628   6.354   7.066   4.386 -3.3260 -1.6015  0.9679
  479MOL0     H64629   5.864   6.643   4.462  1.1353  1.2640  0.3570
  479MOL0     H64630   5.632   6.659   4.548 -0.4529  1.1742  0.7977
  479MOL0     H64631   5.395   6.729   4.627  1.5506 -1.3758 -1.2262
  479MOL0     H64632   5.517   6.850   4.682 -2.6022  1.0092  1.8632
  479MOL0     H64633   5.313   6.925   4.766  0.6600 -3.0216  0.1008
  479MOL0     H64634   5.370   7.025   4.624 -0.3077  0.1604 -0.1703
  479MOL0     H64635   5.203   6.889   4.469  1.4708 -3.7366  0.4406
  479MOL0     H64636   5.146   7.002   4.596  2.4360  0.7741 -0.5261
  479MOL0     H64637   5.156   6.696   4.645  2.8830  1.3336  0.7858
  479MOL0     H64638   5.107   6.819   4.751  1.0169 -0.8160  0.2913
  479MOL0     H64639   4.961   6.884   4.528 -1.3936  1.0932  0.4127
  479MOL0     H64640   4.895   6.774   4.645 -0.6873  1.0464 -0.0067
  479MOL0     H64641   4.857   6.697   4.422 -0.4379  2.3694 -0.7428
  479MOL0     H64642   5.024   6.731   4.366  1.8963 -0.0281  1.3376
  479MOL0     H64643   4.984   6.534   4.584  0.4147  0.7408  0.5386
  479MOL0     H64644   5.112   6.541   4.462  1.0170  4.3588 -1.5560
  479MOL0     H64645   4.911   6.490   4.301 -0.3173  2.0058  1.5542
  479MOL0     H64646   4.839   6.412   4.438 -1.4961 -0.8996 -4.3188
  479MOL0     H64647   5.585   7.045   4.354  3.1896  1.6704  0.3328
  479MOL0     H64648   5.806   7.037   4.285  0.1164  1.5429  0.5747
  479MOL0     H64649   6.121   6.651   4.185  0.5624 -0.5733 -0.7471
  479MOL0     H64650   6.281   6.604   4.031 -2.2653  0.8188  0.4240
  479MOL0     H64651   8.284   6.651   3.493  0.9092  0.4983 -3.4671
  479MOL0     H64652   8.513   6.668   3.376  4.0088  0.5771  0.5601
  479MOL0     H64653   8.925   7.038   3.222 -0.1096  0.0924  1.5235
  479MOL0     H64654   9.151   6.969   3.111 -0.6465  0.5268 -1.7950
  479MOL0     H64655   9.325   6.652   3.337 -1.0738  0.4899 -0.7943
  479MOL0     H64656   9.429   6.611   3.200 -1.3729 -0.6285 -1.2504
  479MOL0     H64657   9.536   6.771   3.381  1.6080  2.1603 -1.0825
  479MOL0     H64658   9.420   6.889   3.312 -0.2890  1.8567 -2.1800
  479MOL0     H64659   9.536   6.834   3.085 -0.2330 -0.4050 -0.5693
  479MOL0     H64660   9.655   6.742   3.200  2.7363  1.7362  0.1017
  479MOL0     H64661   9.690   6.924   3.325  0.1092 -1.6064 -1.7752
  479MOL0     H64662   9.613   7.046   3.211 -3.1769 -0.4083 -0.7660
  479MOL0     H64663   9.951   6.991   2.996 -1.0309  0.2548 -1.2295
  479MOL0     H64664   9.104   6.580   3.277  3.0731 -0.2491  0.0674
  479MOL0     H64665   8.903   6.651   3.400 -0.9270  1.9806  1.0689
  480MOL0     O64666   0.050   3.225  11.041 -0.0438 -0.6506  0.1699
  480MOL0     C64667   0.048   3.143  11.130 -0.7549  0.0905 -0.7042
  480MOL0     O64668  -0.055   3.135  11.230  0.6107  0.0667  0.5496
  480MOL0     C64669  -0.148   3.241  11.226  0.6659  0.7791  0.1030
  480MOL0     C64670  -0.129   3.359  11.295 -0.7394  0.5149 -0.8839
  480MOL0     C64671  -0.207   3.476  11.276 -0.4927 -0.4270  0.1408
  480MOL0     C64672  -0.309   3.476  11.179  0.3193  0.5634 -0.8345
  480MOL0     O64673  -0.386   3.579  11.143  0.5630 -0.0144  0.4640
  480MOL0     C64674  -0.386   3.710  11.208 -0.7475 -0.0716  0.1506
  480MOL0     C64675  -0.500   3.808  11.178 -1.2237 -0.1909  0.9774
  480MOL0     C64676  -0.637   3.778  11.231 -0.2914 -0.3835  0.0646
  480MOL0     C64677  -0.712   3.899  11.274  0.3033 -0.0076  0.2096
  480MOL0     C64678  -0.859   3.876  11.271 -0.2406  0.5300  1.2232
  480MOL0     C64679  -0.930   3.993  11.337 -1.4411 -0.2337 -0.1149
  480MOL0     C64680  -1.079   3.991  11.343 -0.3327 -0.8449  0.0024
  480MOL0     C64681  -1.134   4.078  11.455  1.2008 -1.3255 -0.1026
  480MOL0     N64682  -1.284   4.087  11.469 -0.0446  0.5163 -0.6836
  480MOL0     C64683  -1.376   4.013  11.409 -0.6875  0.5477 -1.0722
  480MOL0     C64684  -1.497   4.064  11.448 -0.4189  0.2369  0.1591
  480MOL0     C64685  -1.636   4.009  11.419 -0.0404 -0.4832  0.2987
  480MOL0     C64686  -1.738   4.085  11.501  0.4501  0.1854  0.0042
  480MOL0     C64687  -1.882   4.057  11.452  0.1510  0.0340 -0.7228
  480MOL0     C64688  -1.987   4.130  11.542  0.0915  0.0733  0.1859
  480MOL0     O64689  -1.962   4.269  11.538  0.2661  0.3587 -0.0499
  480MOL0     C64690  -2.058   4.334  11.461  0.2800  0.7842  0.0107
  480MOL0     C64691  -2.101   4.295  11.336 -0.6178  0.3409  0.8057
  480MOL0     C64692  -2.182   4.379  11.257 -0.5471 -0.1182  1.0007
  480MOL0     C64693  -2.208   4.335  11.116  1.0154 -0.2222 -0.9731
  480MOL0     C64694  -2.227   4.499  11.316  0.2386  0.7940  0.4296
  480MOL0     C64695  -2.313   4.596  11.244 -0.1452 -0.5996 -0.1213
  480MOL0     O64696  -2.266   4.629  11.121 -0.4872  0.0610 -0.0358
  480MOL0     C64697  -2.330   4.711  11.035 -0.6839  0.0984  0.1528
  480MOL0     C64698  -2.433   4.659  10.953  0.4351  0.1590 -1.2487
  480MOL0     C64699  -2.503   4.745  10.878 -0.0188  0.5577 -0.2264
  480MOL0     C64700  -2.496   4.880  10.882  0.5343  0.1577 -0.1307
  480MOL0     O64701  -2.583   4.956  10.812 -0.9278 -0.8786  0.6263
  480MOL0     C64702  -2.564   5.096  10.811  0.0362  0.3119  0.0703
  480MOL0     C64703  -2.635   5.163  10.929 -0.0198  0.9718  0.9587
  480MOL0     C64704  -2.653   5.309  10.896  0.0278 -0.4469  0.1679
  480MOL0     C64705  -2.636   5.413  11.010 -0.3923  0.4196  0.1446
  480MOL0     C64706  -2.765   5.452  11.071  0.0999 -0.2292 -0.3155
  480MOL0     C64707  -2.742   5.568  11.166 -0.4422 -0.3950 -0.0156
  480MOL0     C64708  -2.870   5.636  11.223 -0.1947  0.9172  0.0695
  480MOL0     C64709  -2.833   5.723  11.342  0.3535 -0.2576  0.4299
  480MOL0    Cl64710  -2.982   5.791  11.413  0.2052  0.2566  0.1178
  480MOL0     C64711  -2.399   4.933  10.974 -0.0470 -0.6817  0.4699
  480MOL0     C64712  -2.315   4.850  11.041 -0.3080 -0.0575 -0.0170
  480MOL0     O64713  -2.419   4.645  11.296 -0.0572 -0.4780  0.3874
  480MOL0     C64714  -2.200   4.532  11.451  0.4434  0.9656  0.2265
  480MOL0     C64715  -2.101   4.451  11.524 -0.0828 -0.6647 -0.5873
  480MOL0     N64716  -1.471   4.175  11.535 -0.2287  0.4533  0.2713
  480MOL0     N64717  -1.343   4.187  11.540  0.1111  0.2215  0.4341
  480MOL0     C64718  -0.334   3.353  11.123  0.0058 -0.2112  0.5674
  480MOL0     C64719  -0.258   3.227  11.143 -0.6987  0.4400 -0.7446
  480MOL0     C64720   0.167   3.049  11.140  0.4453 -0.6493 -0.0542
  480MOL0     C64721   0.216   3.010  11.272 -0.0142  0.1359 -0.3084
  480MOL0     C64722   0.322   2.922  11.279  0.4159 -1.0474 -1.4144
  480MOL0     C64723   0.382   2.866  11.171 -0.2585  0.2405  1.0521
  480MOL0     O64724   0.502   2.795  11.181 -0.3822  0.1820  0.3159
  480MOL0     C64725   0.486   2.660  11.225 -0.7550 -0.9024  0.6729
  480MOL0     C64726   0.611   2.584  11.277  0.9193  0.0694  0.2444
  480MOL0     C64727   0.682   2.661  11.394  0.3978 -0.8896  0.2261
  480MOL0     C64728   0.675   2.572  11.516  0.4225  0.6751 -0.4588
  480MOL0     C64729   0.771   2.465  11.503 -0.5629  0.4864 -0.1837
  480MOL0     C64730   0.859   2.377  11.496 -0.2137  0.0522  0.6392
  480MOL0     C64731   0.334   2.903  11.045 -0.7827 -0.4585 -0.4068
  480MOL0     C64732   0.230   2.992  11.028  0.0079  0.5698  0.0674
  480MOL0     H64733  -0.044   3.369  11.361  0.2311 -0.7132 -1.8929
  480MOL0     H64734  -0.173   3.566  11.326  0.4699 -0.7320  0.0580
  480MOL0     H64735  -0.385   3.705  11.317 -0.6783 -2.2732  0.0834
  480MOL0     H64736  -0.289   3.755  11.183 -1.7141  2.6613  0.9371
  480MOL0     H64737  -0.474   3.910  11.205 -0.6746  0.5657 -2.0228
  480MOL0     H64738  -0.511   3.810  11.069  0.8644  0.4741  0.7295
  480MOL0     H64739  -0.675   3.711  11.154  1.2321 -0.4675 -0.6433
  480MOL0     H64740  -0.620   3.713  11.317 -2.3585  0.2751  1.0442
  480MOL0     H64741  -0.688   3.928  11.377 -0.9004 -0.3330  0.5975
  480MOL0     H64742  -0.705   3.981  11.202 -4.3312 -0.8474 -1.5960
  480MOL0     H64743  -0.893   3.860  11.168 -0.0745  3.1592  0.6858
  480MOL0     H64744  -0.870   3.784  11.329  0.0874  0.2356  0.8251
  480MOL0     H64745  -0.901   3.983  11.441  0.7494 -0.2713 -0.6853
  480MOL0     H64746  -0.892   4.089  11.300  2.7913 -0.7472  2.3420
  480MOL0     H64747  -1.118   4.045  11.257 -0.7051 -2.0321 -0.5978
  480MOL0     H64748  -1.121   3.890  11.344 -3.6529  0.3468  2.9422
  480MOL0     H64749  -1.099   4.181  11.443 -1.1274 -0.4702 -0.1086
  480MOL0     H64750  -1.096   4.028  11.545 -1.1096 -2.6011  0.2452
  480MOL0     H64751  -1.357   3.932  11.340  0.9789 -1.6450  1.7553
  480MOL0     H64752  -1.657   4.036  11.315  1.6962  2.6839  0.6545
  480MOL0     H64753  -1.645   3.900  11.430  0.2770 -0.4676  0.7007
  480MOL0     H64754  -1.710   4.191  11.499  1.0037  0.0399 -0.2972
  480MOL0     H64755  -1.729   4.051  11.605  2.3904  2.1344  0.5559
  480MOL0     H64756  -1.901   3.949  11.451  1.3778 -0.2949  1.9296
  480MOL0     H64757  -1.888   4.085  11.347  0.3020  2.9990 -0.0388
  480MOL0     H64758  -1.985   4.090  11.644 -0.4490 -2.4057 -0.7107
  480MOL0     H64759  -2.078   4.099  11.491  0.2252  0.5985 -0.3835
  480MOL0     H64760  -2.065   4.203  11.291 -2.3356  0.4662 -0.9712
  480MOL0     H64761  -2.186   4.402  11.033 -3.4274 -1.2497 -3.2638
  480MOL0     H64762  -2.144   4.248  11.094  0.3073 -1.2222  0.6921
  480MOL0     H64763  -2.314   4.314  11.100  0.6453  2.4637 -2.5526
  480MOL0     H64764  -2.473   4.558  10.959  1.0055 -0.0293  3.8199
  480MOL0     H64765  -2.586   4.709  10.817 -0.2726  1.6567 -0.5469
  480MOL0     H64766  -2.460   5.131  10.811  0.0555  0.3452  1.8926
  480MOL0     H64767  -2.605   5.138  10.719  1.5781  2.7224  0.3853
  480MOL0     H64768  -2.734   5.122  10.953 -0.0557  1.3845  1.5389
  480MOL0     H64769  -2.568   5.152  11.015  2.4374 -0.8040 -1.0670
  480MOL0     H64770  -2.758   5.322  10.869 -0.2860  2.3488  2.1912
  480MOL0     H64771  -2.582   5.351  10.825  2.3755 -1.0450  2.0422
  480MOL0     H64772  -2.582   5.367  11.094  2.0109  1.8421 -0.5128
  480MOL0     H64773  -2.586   5.505  10.979  1.2917 -0.9210 -1.3327
  480MOL0     H64774  -2.808   5.373  11.133 -0.9988  0.8475  0.3291
  480MOL0     H64775  -2.833   5.477  10.989 -0.4318 -0.3765  0.0796
  480MOL0     H64776  -2.691   5.522  11.251 -0.2905 -1.3432 -0.6123
  480MOL0     H64777  -2.681   5.648  11.122 -1.2878 -0.6406 -1.7145
  480MOL0     H64778  -2.939   5.555  11.252  1.5068 -0.0469  1.6345
  480MOL0     H64779  -2.927   5.695  11.151 -3.7517 -1.9726  0.1589
  480MOL0     H64780  -2.766   5.803  11.310 -1.7655  0.8768 -1.4242
  480MOL0     H64781  -2.774   5.658  11.408  0.2315 -1.6111 -0.7312
  480MOL0     H64782  -2.376   5.039  10.977 -4.7627  0.7192 -1.6793
  480MOL0     H64783  -2.236   4.877  11.110 -0.7228  2.5247 -0.4447
  480MOL0     H64784  -2.226   4.624  11.502  1.0941  0.4101  1.6081
  480MOL0     H64785  -2.060   4.489  11.617 -0.2966 -1.1893 -0.2735
  480MOL0     H64786  -0.418   3.338  11.055 -1.8281 -1.2742  2.9237
  480MOL0     H64787  -0.288   3.132  11.100 -2.4011  0.3688  0.4803
  480MOL0     H64788   0.178   3.054  11.363 -1.7865 -1.1116 -0.3839
  480MOL0     H64789   0.366   2.909  11.378  0.7939  1.2408 -1.2102
  480MOL0     H64790   0.413   2.666  11.306 -1.9490 -2.4716 -0.2360
  480MOL0     H64791   0.453   2.597  11.142 -0.4658 -0.5689  0.2938
  480MOL0     H64792   0.680   2.572  11.194  0.7969 -0.5331  0.2287
  480MOL0     H64793   0.576   2.483  11.302  0.7433 -0.7425 -2.8584
  480MOL0     H64794   0.616   2.744  11.421  0.6601 -0.2131 -1.0908
  480MOL0     H64795   0.783   2.698  11.372 -0.5481  0.9964 -1.3347
  480MOL0     H64796   0.577   2.526  11.523  2.5691 -4.5365 -0.3531
  480MOL0     H64797   0.698   2.626  11.609  0.6818 -1.0042  0.4924
  480MOL0     H64798   0.934   2.302  11.511  0.9502  1.4941  2.4556
  480MOL0     H64799   0.383   2.861  10.957 -1.0534 -3.0609  0.5826
  480MOL0     H64800   0.206   3.036  10.932  1.1752  0.2860 -0.3696
  481MOL0     O64801   5.906   6.241   0.924  0.0383 -0.5971  0.7166
  481MOL0     C64802   6.020   6.287   0.939 -0.1452  0.2885 -0.2595
  481MOL0     O64803   6.059   6.392   1.025 -0.4429  0.4234 -0.0426
  481MOL0     C64804   5.963   6.450   1.101  1.0015 -0.2966 -0.1468
  481MOL0     C64805   5.920   6.578   1.071 -0.3907  0.8128 -0.7558
  481MOL0     C64806   5.796   6.623   1.123 -0.2241 -0.8160  0.6674
  481MOL0     C64807   5.730   6.558   1.221 -1.1027  0.5543  0.2566
  481MOL0     O64808   5.617   6.619   1.273  0.0066 -0.0689 -0.4363
  481MOL0     C64809   5.565   6.561   1.395 -0.3312  0.5202  0.2391
  481MOL0     C64810   5.476   6.677   1.449 -0.0274  0.0130 -0.4477
  481MOL0     C64811   5.362   6.734   1.368 -0.5433 -0.1390  0.1287
  481MOL0     C64812   5.268   6.625   1.332  0.0479 -1.6981 -0.2100
  481MOL0     C64813   5.133   6.656   1.262 -0.6623  0.2407 -0.3764
  481MOL0     C64814   5.136   6.785   1.181  0.5064 -1.3516  0.0069
  481MOL0     C64815   4.998   6.812   1.120  1.0168 -0.0127 -0.0835
  481MOL0     C64816   4.987   6.933   1.026 -0.8695  0.2653  0.5080
  481MOL0     N64817   4.860   7.002   0.976  0.5511 -0.4365 -0.2466
  481MOL0     C64818   4.779   7.082   1.056 -0.4737 -0.6409 -0.6532
  481MOL0     C64819   4.680   7.132   0.976 -1.1019  0.5233 -0.1420
  481MOL0     C64820   4.558   7.208   1.033 -0.4516 -0.3790 -0.1857
  481MOL0     C64821   4.442   7.115   1.013  0.2118 -0.0892  0.8671
  481MOL0     C64822   4.386   7.126   0.871  0.3121  0.3502  1.0461
  481MOL0     C64823   4.231   7.089   0.870 -0.0129  0.0181 -0.1271
  481MOL0     O64824   4.151   7.194   0.918 -0.5613 -0.7108  0.4168
  481MOL0     C64825   4.065   7.255   0.827  0.4120  0.4105 -1.9197
  481MOL0     C64826   3.982   7.175   0.748 -0.4223 -0.4363  1.1063
  481MOL0     C64827   3.890   7.241   0.652 -0.2924  0.8591 -0.2007
  481MOL0     C64828   3.786   7.148   0.605 -0.3388  0.2528  0.6343
  481MOL0     C64829   3.898   7.385   0.643 -0.9976  0.8575  0.8185
  481MOL0     C64830   3.811   7.459   0.557  0.5495  0.0153 -0.1675
  481MOL0     O64831   3.841   7.587   0.535  0.7306  0.7094 -0.5698
  481MOL0     C64832   3.781   7.647   0.421 -0.8101 -0.7756 -0.6723
  481MOL0     C64833   3.698   7.751   0.441 -0.4328 -0.7546 -0.2154
  481MOL0     C64834   3.631   7.832   0.345 -0.5902  0.7663  0.0113
  481MOL0     C64835   3.654   7.787   0.210  0.6482 -1.3044  0.0576
  481MOL0     O64836   3.594   7.862   0.114 -0.2386  0.3615  0.5076
  481MOL0     C64837   3.536   7.792  -0.004 -0.2085 -0.2995  0.2307
  481MOL0     C64838   3.432   7.880  -0.079 -0.6478 -1.0386  0.1531
  481MOL0     C64839   3.305   7.812  -0.126  0.7889  0.0211  0.4028
  481MOL0     C64840   3.221   7.878  -0.234 -0.9121  0.5375  0.3881
  481MOL0     C64841   3.079   7.817  -0.243  0.0574  0.4619 -0.3630
  481MOL0     C64842   2.991   7.879  -0.137  0.5680  0.3013  0.3851
  481MOL0     C64843   2.859   7.811  -0.136  1.2923 -0.3279 -0.5550
  481MOL0     C64844   2.858   7.666  -0.086 -0.2463  0.5128 -0.3750
  481MOL0    Cl64845   2.689   7.609  -0.054  0.0956  0.0839 -0.1913
  481MOL0     C64846   3.745   7.686   0.188  0.5502  0.3168  0.7807
  481MOL0     C64847   3.815   7.624   0.293 -0.5518 -0.0565  0.4275
  481MOL0     O64848   3.707   7.406   0.516 -0.5675 -0.1284  0.3229
  481MOL0     C64849   3.995   7.458   0.717 -0.3237 -0.0284  0.1780
  481MOL0     C64850   4.068   7.391   0.805 -0.7065 -0.4344 -0.4131
  481MOL0     N64851   4.711   7.097   0.846 -0.2528  0.2665 -0.3374
  481MOL0     N64852   4.824   7.033   0.845  0.6093 -0.5536  0.2761
  481MOL0     C64853   5.779   6.429   1.258  0.5666  1.0838  0.5636
  481MOL0     C64854   5.892   6.372   1.198 -0.7599 -0.5389  0.2324
  481MOL0     C64855   6.124   6.228   0.853 -0.1899 -0.7358  0.7327
  481MOL0     C64856   6.114   6.108   0.782 -0.4576  0.2167 -0.1461
  481MOL0     C64857   6.228   6.068   0.694  0.3128  0.2769  1.0082
  481MOL0     C64858   6.348   6.134   0.682  0.5277 -0.5223  0.2547
  481MOL0     O64859   6.450   6.091   0.611  0.2077  0.4408  0.0311
  481MOL0     C64860   6.447   5.966   0.547 -0.2329 -0.3621 -0.3720
  481MOL0     C64861   6.528   5.954   0.423  0.0087  0.2360  0.8579
  481MOL0     C64862   6.497   5.819   0.361 -0.0092 -0.7232 -0.6818
  481MOL0     C64863   6.553   5.810   0.219  0.0129  0.7761  0.3561
  481MOL0     C64864   6.478   5.913   0.138  0.1963 -0.3347 -0.1058
  481MOL0     C64865   6.441   6.007   0.067  0.8779  0.2106  0.4252
  481MOL0     C64866   6.352   6.252   0.752 -0.4428 -0.4728 -0.4841
  481MOL0     C64867   6.245   6.300   0.829 -0.6797 -0.0751 -1.1152
  481MOL0     H64868   5.983   6.628   0.998  2.3253 -4.0335 -2.1684
  481MOL0     H64869   5.747   6.708   1.077  1.7893 -0.7207 -1.4957
  481MOL0     H64870   5.510   6.467   1.386 -0.2262  0.4960 -0.2023
  481MOL0     H64871   5.638   6.546   1.474 -1.8797 -0.9259  1.4620
  481MOL0     H64872   5.426   6.652   1.542  2.2960  0.4510  1.0089
  481MOL0     H64873   5.542   6.763   1.468  0.1190 -0.1874 -0.0529
  481MOL0     H64874   5.322   6.815   1.429  1.4351 -1.3945  3.3785
  481MOL0     H64875   5.403   6.786   1.280 -0.8867 -1.3497 -0.7819
  481MOL0     H64876   5.320   6.550   1.271  1.6500  0.2262 -1.3583
  481MOL0     H64877   5.250   6.578   1.429  2.3190 -1.6025  0.3220
  481MOL0     H64878   5.120   6.577   1.187  0.5182 -1.0456  0.7012
  481MOL0     H64879   5.050   6.659   1.333 -0.5043 -1.4055 -0.0590
  481MOL0     H64880   5.157   6.877   1.236  0.1841 -1.1503 -0.1998
  481MOL0     H64881   5.213   6.772   1.104  2.3868 -0.8093  1.7212
  481MOL0     H64882   4.966   6.726   1.059  4.6542 -2.1115  0.6851
  481MOL0     H64883   4.939   6.829   1.210  0.8634  2.0602 -0.5312
  481MOL0     H64884   5.053   6.903   0.945  0.8584 -0.4428  2.0975
  481MOL0     H64885   5.037   7.011   1.084 -1.2355 -0.9699  2.6159
  481MOL0     H64886   4.776   7.096   1.163  1.6119 -0.0246 -0.6224
  481MOL0     H64887   4.570   7.235   1.138  2.9018 -0.1337 -0.5494
  481MOL0     H64888   4.551   7.311   0.996  2.8191  1.0698  2.6565
  481MOL0     H64889   4.366   7.145   1.085 -1.3790 -3.0879  0.5774
  481MOL0     H64890   4.465   7.012   1.041 -1.3004  0.0610  2.9203
  481MOL0     H64891   4.434   7.044   0.816 -1.8584 -0.8170  0.7753
  481MOL0     H64892   4.417   7.223   0.830  0.0024  0.3306  0.7610
  481MOL0     H64893   4.197   7.006   0.933  1.4681 -1.0996 -0.7574
  481MOL0     H64894   4.211   7.062   0.766  0.2273 -0.4173 -0.0614
  481MOL0     H64895   3.981   7.067   0.761  0.9545 -0.5210  0.6293
  481MOL0     H64896   3.819   7.124   0.504 -1.2466 -2.4543  0.9092
  481MOL0     H64897   3.787   7.058   0.667 -0.4633  1.3726  2.3632
  481MOL0     H64898   3.689   7.199   0.609 -0.2404  0.4803  0.1864
  481MOL0     H64899   3.687   7.786   0.543  2.4329  2.1972 -0.7439
  481MOL0     H64900   3.544   7.892   0.372 -1.8082 -0.1801 -1.5855
  481MOL0     H64901   3.616   7.773  -0.077  0.9353 -0.1173  1.3981
  481MOL0     H64902   3.498   7.694   0.024  1.9495 -0.3292  3.6831
  481MOL0     H64903   3.404   7.958  -0.009  0.8650  0.7281 -1.1002
  481MOL0     H64904   3.477   7.937  -0.161  0.7863  3.5801  3.7484
  481MOL0     H64905   3.250   7.813  -0.031  3.3634 -2.8284  2.0842
  481MOL0     H64906   3.319   7.704  -0.135  4.0017  0.3600  0.2299
  481MOL0     H64907   3.207   7.986  -0.224  0.9760  1.1891 -2.8123
  481MOL0     H64908   3.274   7.871  -0.329 -1.9168 -1.3134 -0.0815
  481MOL0     H64909   3.099   7.710  -0.235 -0.5796  0.0621 -3.0946
  481MOL0     H64910   3.038   7.847  -0.339  0.7211 -0.1293 -0.8419
  481MOL0     H64911   3.032   7.861  -0.037 -3.9833  2.1659  2.8605
  481MOL0     H64912   2.978   7.986  -0.153  3.3113  1.3342  3.8268
  481MOL0     H64913   2.810   7.802  -0.233 -0.8160 -2.5602  0.5990
  481MOL0     H64914   2.785   7.868  -0.078  0.7457 -1.4963 -0.0642
  481MOL0     H64915   2.912   7.673   0.008 -1.6197  0.2021  0.4617
  481MOL0     H64916   2.907   7.597  -0.156 -2.2775  1.3510 -2.7800
  481MOL0     H64917   3.771   7.667   0.085 -0.5224  0.2484  0.5119
  481MOL0     H64918   3.886   7.545   0.271 -1.8960 -1.5248  1.1369
  481MOL0     H64919   4.001   7.566   0.716  1.2910 -0.0836  1.2539
  481MOL0     H64920   4.122   7.456   0.873 -2.4975  0.9129 -0.1989
  481MOL0     H64921   5.715   6.362   1.314 -4.4545  1.0060 -4.4275
  481MOL0     H64922   5.919   6.269   1.221  0.9047  0.2196  2.0804
  481MOL0     H64923   6.021   6.051   0.783  1.4229 -3.1263 -0.9839
  481MOL0     H64924   6.208   5.972   0.646 -0.4530  1.4387 -1.1232
  481MOL0     H64925   6.482   5.887   0.615  0.2349  0.9150  0.9104
  481MOL0     H64926   6.343   5.954   0.514 -0.2736  2.2168 -1.3541
  481MOL0     H64927   6.636   5.964   0.438  0.6370 -2.0831 -1.3861
  481MOL0     H64928   6.495   6.030   0.352 -3.6319 -3.0407 -1.3917
  481MOL0     H64929   6.388   5.814   0.350  0.1349  0.0311 -2.9279
  481MOL0     H64930   6.538   5.735   0.418 -2.8946 -1.9668 -0.2407
  481MOL0     H64931   6.543   5.713   0.170  0.7282  1.7511 -1.8884
  481MOL0     H64932   6.657   5.841   0.208  0.2149  0.8155  2.1529
  481MOL0     H64933   6.408   6.092   0.010 -0.5125  0.3423  1.3759
  481MOL0     H64934   6.447   6.302   0.741 -0.9254  0.7188  0.5484
  481MOL0     H64935   6.259   6.401   0.866 -0.4758 -0.6310  0.3631
  482MOL0     O64936   5.548   0.809   1.486  0.1740  0.2493  0.6172
  482MOL0     C64937   5.532   0.933   1.477  1.2218 -0.6492 -0.6904
  482MOL0     O64938   5.416   0.999   1.445  0.0684  0.7999  0.8766
  482MOL0     C64939   5.324   0.933   1.368  1.1636  0.1587 -0.2594
  482MOL0     C64940   5.238   0.839   1.424 -0.4684  0.3318 -0.1636
  482MOL0     C64941   5.147   0.779   1.328 -0.1660 -0.2193 -0.6006
  482MOL0     C64942   5.143   0.814   1.194 -0.2689 -0.0055  0.7830
  482MOL0     O64943   5.059   0.746   1.111 -0.4415 -0.4011 -0.1553
  482MOL0     C64944   4.994   0.825   1.014  0.0486 -0.1607  0.2978
  482MOL0     C64945   4.854   0.767   0.993  0.2253 -0.0770 -0.4715
  482MOL0     C64946   4.823   0.635   0.917  0.2842 -0.7133  0.2204
  482MOL0     C64947   4.671   0.602   0.896  0.1170  0.4896 -0.7420
  482MOL0     C64948   4.657   0.484   0.803 -0.1961 -0.9706  0.6032
  482MOL0     C64949   4.513   0.440   0.805 -0.6762 -0.7034  0.4278
  482MOL0     C64950   4.405   0.525   0.738  0.8797  0.0985  0.3668
  482MOL0     C64951   4.319   0.455   0.620  0.0172 -0.0084 -0.7051
  482MOL0     N64952   4.256   0.338   0.683 -0.3809 -0.6563 -0.0013
  482MOL0     C64953   4.162   0.331   0.788  0.4631  0.4700  0.3967
  482MOL0     C64954   4.133   0.197   0.793  0.4123 -0.6366  0.4924
  482MOL0     C64955   4.006   0.138   0.856  0.0589 -0.0216  0.1741
  482MOL0     C64956   3.912   0.118   0.740 -0.2838 -0.2103 -0.1379
  482MOL0     C64957   3.791   0.028   0.781  0.0619 -0.1951 -0.3782
  482MOL0     C64958   3.706   0.062   0.909  0.1845 -0.1911 -0.1240
  482MOL0     O64959   3.582  -0.009   0.906  0.1042  0.1877 -0.3797
  482MOL0     C64960   3.470   0.069   0.948 -1.3580 -0.0233  0.6150
  482MOL0     C64961   3.483   0.139   1.070 -0.6303 -0.2943 -0.1844
  482MOL0     C64962   3.374   0.214   1.112  0.4158 -0.9009 -0.0528
  482MOL0     C64963   3.384   0.304   1.232  0.0631  0.0970  0.2652
  482MOL0     C64964   3.258   0.205   1.041  0.4853 -0.8428 -0.1751
  482MOL0     C64965   3.136   0.281   1.080 -0.1946  0.9112 -0.0772
  482MOL0     O64966   3.153   0.411   1.102 -0.0083  0.0443 -0.0861
  482MOL0     C64967   3.073   0.501   1.160  0.3472 -0.5661 -0.3769
  482MOL0     C64968   3.116   0.632   1.150 -0.0936  0.0003 -0.8289
  482MOL0     C64969   3.059   0.726   1.241  0.3583 -0.6847  0.2342
  482MOL0     C64970   2.941   0.704   1.315  0.2066 -0.2381  0.5764
  482MOL0     O64971   2.876   0.799   1.387  0.9461  0.2242 -0.6232
  482MOL0     C64972   2.905   0.933   1.359 -0.2210 -0.4784  0.1407
  482MOL0     C64973   2.782   1.021   1.366  0.1442  0.1962 -0.1112
  482MOL0     C64974   2.797   1.167   1.310 -0.8094  0.2431 -0.4266
  482MOL0     C64975   2.856   1.178   1.177  0.4795 -0.3156 -0.7721
  482MOL0     C64976   2.844   1.325   1.127  0.1925 -0.0187 -0.6531
  482MOL0     C64977   2.931   1.354   1.001 -0.2586  0.1953 -0.4301
  482MOL0     C64978   2.870   1.278   0.877  0.2367 -0.8039 -0.6001
  482MOL0     C64979   2.930   1.333   0.746  0.3000 -0.1772  0.1955
  482MOL0    Cl64980   3.109   1.366   0.754  0.8191 -0.1204 -0.1153
  482MOL0     C64981   2.886   0.575   1.296  0.0692 -0.0749 -0.1704
  482MOL0     C64982   2.959   0.473   1.239 -0.2165 -0.3127  0.0462
  482MOL0     O64983   3.035   0.214   1.090  0.1338 -0.7982  0.4962
  482MOL0     C64984   3.240   0.125   0.928 -0.6658  0.0420  0.6536
  482MOL0     C64985   3.352   0.060   0.878 -0.5350 -0.0431  0.4670
  482MOL0     N64986   4.211   0.138   0.696 -0.4936  0.6916 -0.2568
  482MOL0     N64987   4.278   0.218   0.629 -0.1570  0.1314 -0.2298
  482MOL0     C64988   5.239   0.902   1.142 -0.5262 -0.3871 -0.5909
  482MOL0     C64989   5.326   0.960   1.227  0.0824 -0.1271 -0.7950
  482MOL0     C64990   5.643   1.021   1.523  0.2176  0.1848  0.1872
  482MOL0     C64991   5.773   0.964   1.545  0.2122  0.1061  0.5015
  482MOL0     C64992   5.875   1.044   1.617  0.4294  0.2451  0.2760
  482MOL0     C64993   5.851   1.180   1.641 -0.0138  0.3059  0.6091
  482MOL0     O64994   5.951   1.266   1.689 -0.3228  0.5865  0.2739
  482MOL0     C64995   6.084   1.214   1.704 -0.5420 -0.8168 -0.6613
  482MOL0     C64996   6.176   1.335   1.741  0.7776  0.1583  0.6362
  482MOL0     C64997   6.326   1.291   1.742  0.2316 -1.4659 -0.4060
  482MOL0     C64998   6.413   1.418   1.747  0.2214  0.0292  0.3385
  482MOL0     C64999   6.418   1.471   1.881 -0.0770  1.0313 -0.1204
  482MOL0     C65000   6.413   1.507   1.992  0.6808  0.1459 -0.3516
  482MOL0     C65001   5.735   1.237   1.598 -0.3967 -0.9055 -0.8578
  482MOL0     C65002   5.628   1.157   1.562 -0.7464 -0.3182 -0.3469
  482MOL0     H65003   5.250   0.827   1.531  1.0693  0.4695 -0.3041
  482MOL0     H65004   5.065   0.714   1.357  1.3972 -2.8172 -1.6747
  482MOL0     H65005   4.981   0.927   1.053 -1.1522  1.0227 -2.8915
  482MOL0     H65006   5.052   0.829   0.922  1.3002  0.3341  1.0886
  482MOL0     H65007   4.794   0.778   1.084  0.2221  1.4193 -0.6243
  482MOL0     H65008   4.806   0.845   0.934  1.8318 -0.3618 -2.2343
  482MOL0     H65009   4.854   0.654   0.813 -0.4915  2.8103  0.5250
  482MOL0     H65010   4.881   0.562   0.975  3.0481  0.6675 -0.6159
  482MOL0     H65011   4.639   0.584   0.999  0.2369  2.7252 -0.2472
  482MOL0     H65012   4.618   0.692   0.862 -0.0014  1.1914  1.1929
  482MOL0     H65013   4.696   0.506   0.703 -0.9066  0.1089  0.5454
  482MOL0     H65014   4.724   0.408   0.842  2.1169 -0.6944 -2.4411
  482MOL0     H65015   4.516   0.346   0.749  2.2236 -1.0886  1.0785
  482MOL0     H65016   4.474   0.422   0.905 -2.9985 -1.8704 -0.5958
  482MOL0     H65017   4.327   0.554   0.808 -2.6353  1.9718 -3.8119
  482MOL0     H65018   4.440   0.620   0.696  0.0970 -0.7996 -2.6129
  482MOL0     H65019   4.380   0.405   0.544 -0.0972 -1.8378  0.3566
  482MOL0     H65020   4.243   0.513   0.568 -0.5386 -2.4598 -2.8036
  482MOL0     H65021   4.115   0.421   0.827  1.7124  2.2840 -1.9293
  482MOL0     H65022   4.044   0.044   0.898 -1.1711 -0.8440 -0.4924
  482MOL0     H65023   3.969   0.203   0.936  0.2396  1.6172 -1.0240
  482MOL0     H65024   3.950   0.057   0.657  1.4366 -0.6187  0.8876
  482MOL0     H65025   3.891   0.218   0.700 -0.3377 -0.3816 -0.5484
  482MOL0     H65026   3.835  -0.072   0.788  2.2732  0.8226  1.5936
  482MOL0     H65027   3.718   0.021   0.700 -1.2513  0.3325  0.7122
  482MOL0     H65028   3.682   0.168   0.918 -0.3031 -0.3651  0.6862
  482MOL0     H65029   3.757   0.029   0.999 -0.3799  1.5244  0.8769
  482MOL0     H65030   3.572   0.136   1.133 -0.4874  1.3182 -0.2808
  482MOL0     H65031   3.314   0.283   1.314 -0.9155 -1.4055 -0.9172
  482MOL0     H65032   3.484   0.293   1.276  1.0942  4.1126 -0.6776
  482MOL0     H65033   3.373   0.408   1.198  3.8408 -0.3850 -3.1680
  482MOL0     H65034   3.199   0.657   1.086 -1.7239 -1.6739 -3.8084
  482MOL0     H65035   3.127   0.810   1.245  3.7279 -3.1002 -1.1661
  482MOL0     H65036   2.982   0.971   1.428  2.1502 -2.3777 -1.2981
  482MOL0     H65037   2.964   0.943   1.267  1.5650 -0.2739  1.2497
  482MOL0     H65038   2.695   0.971   1.322 -0.4298  2.2626 -1.4991
  482MOL0     H65039   2.768   1.025   1.474  2.8282  1.3873  0.2539
  482MOL0     H65040   2.861   1.220   1.380  1.0891 -1.4678 -0.7694
  482MOL0     H65041   2.700   1.218   1.315 -0.6540  0.6022 -0.9395
  482MOL0     H65042   2.964   1.172   1.192  0.2740  2.2887  3.1034
  482MOL0     H65043   2.821   1.110   1.099  3.2581  0.3963 -2.8034
  482MOL0     H65044   2.874   1.396   1.205  0.6256  0.5055 -1.2755
  482MOL0     H65045   2.739   1.337   1.101  0.4045  2.5633 -0.6657
  482MOL0     H65046   2.927   1.460   0.975  1.0932  1.0249  2.4188
  482MOL0     H65047   3.032   1.318   1.023  0.4950  1.8917 -0.9055
  482MOL0     H65048   2.761   1.281   0.884  0.3116 -0.0003  0.6049
  482MOL0     H65049   2.905   1.176   0.895 -2.5280 -1.3775  2.5832
  482MOL0     H65050   2.891   1.432   0.719  4.4952  2.2112  2.0714
  482MOL0     H65051   2.900   1.284   0.652  0.3049  2.8848 -1.5319
  482MOL0     H65052   2.788   0.569   1.342 -1.3618  2.0914 -2.6584
  482MOL0     H65053   2.920   0.373   1.250  1.3203 -1.0576 -0.8285
  482MOL0     H65054   3.149   0.129   0.870  0.2135  0.3744 -0.7451
  482MOL0     H65055   3.345  -0.004   0.790  2.4578  0.5997 -0.3362
  482MOL0     H65056   5.227   0.940   1.041 -1.1376  1.2671  0.0811
  482MOL0     H65057   5.386   1.040   1.185 -2.0844  3.6499  2.5971
  482MOL0     H65058   5.795   0.859   1.524  0.8338  0.2204  0.5419
  482MOL0     H65059   5.969   0.992   1.637  1.2424  1.2832 -0.7247
  482MOL0     H65060   6.110   1.128   1.766  0.3986 -2.2045 -2.8523
  482MOL0     H65061   6.114   1.171   1.608  1.4271 -1.3515  0.1514
  482MOL0     H65062   6.151   1.368   1.843  5.2519 -0.0041  2.0100
  482MOL0     H65063   6.154   1.413   1.668 -0.3987  0.0661  0.8763
  482MOL0     H65064   6.346   1.231   1.653  0.5712 -0.8991 -0.7253
  482MOL0     H65065   6.342   1.240   1.837 -0.6737 -2.3605 -0.7194
  482MOL0     H65066   6.384   1.488   1.667  0.3305  0.6452  0.8312
  482MOL0     H65067   6.515   1.380   1.735 -0.5501 -1.8935 -0.6483
  482MOL0     H65068   6.407   1.535   2.096 -1.4059 -2.6749  0.4071
  482MOL0     H65069   5.710   1.341   1.621  1.9178 -0.2602 -0.9679
  482MOL0     H65070   5.528   1.198   1.565 -1.0710 -1.0908 -0.4048
  483MOL0     O65071   9.143   6.390  10.185  0.1827 -0.4520 -0.2940
  483MOL0     C65072   9.155   6.340  10.073 -0.5721 -0.1109 -0.4104
  483MOL0     O65073   9.094   6.222  10.034  0.0458 -0.3939  0.9534
  483MOL0     C65074   8.976   6.183  10.101  0.3623  0.2247  0.0127
  483MOL0     C65075   8.905   6.082  10.027  0.1739  0.1934 -0.4326
  483MOL0     C65076   8.785   6.021  10.081  0.0452 -0.8054  0.1183
  483MOL0     C65077   8.742   6.063  10.212  0.1270  0.7287 -0.1402
  483MOL0     O65078   8.617   6.027  10.272  0.0171 -0.4699 -0.3533
  483MOL0     C65079   8.533   5.959  10.180 -0.0542 -0.5978  0.2023
  483MOL0     C65080   8.395   5.948  10.235 -0.1778 -0.0015 -0.6230
  483MOL0     C65081   8.306   6.074  10.239  0.0874 -0.2359 -1.1606
  483MOL0     C65082   8.167   6.046  10.295 -0.0440 -0.5051 -0.6314
  483MOL0     C65083   8.079   6.174  10.273  0.3285 -0.1812 -0.3283
  483MOL0     C65084   7.935   6.173  10.346 -0.5576 -0.0800 -0.7650
  483MOL0     C65085   7.829   6.091  10.266  0.5014 -0.2535 -0.4155
  483MOL0     C65086   7.683   6.117  10.317 -0.0691 -0.6637  0.4543
  483MOL0     N65087   7.584   6.073  10.220 -0.1546 -0.3967  1.5445
  483MOL0     C65088   7.521   5.947  10.210  0.1094 -0.2516 -0.3982
  483MOL0     C65089   7.432   5.953  10.107 -0.7937  0.1130  0.0846
  483MOL0     C65090   7.345   5.841  10.040  0.2352  0.8029 -0.2609
  483MOL0     C65091   7.215   5.814  10.116  0.3549 -0.1151  0.1321
  483MOL0     C65092   7.138   5.952  10.135 -0.3763  0.7004 -0.0251
  483MOL0     C65093   6.992   5.938  10.192 -0.5848 -0.2144 -0.5825
  483MOL0     O65094   6.999   5.856  10.305 -0.8150  0.7683 -1.1436
  483MOL0     C65095   6.886   5.799  10.364 -0.4661  0.2684  1.0283
  483MOL0     C65096   6.900   5.713  10.472  0.2883 -0.2408  0.6025
  483MOL0     C65097   6.790   5.642  10.521  1.0932  0.0564  0.3149
  483MOL0     C65098   6.808   5.532  10.631 -0.2145 -0.0629  0.5829
  483MOL0     C65099   6.658   5.657  10.467 -1.4017  0.2830 -0.3107
  483MOL0     C65100   6.542   5.561  10.494 -0.7597  0.3011  0.9419
  483MOL0     O65101   6.454   5.558  10.387  0.2531  0.1002  0.5673
  483MOL0     C65102   6.359   5.455  10.389  1.1445  0.4807 -0.5488
  483MOL0     C65103   6.230   5.491  10.350  0.0593  1.2559  0.9598
  483MOL0     C65104   6.136   5.388  10.341  0.4725  0.1877  0.4039
  483MOL0     C65105   6.172   5.251  10.347  0.4268  0.0123 -0.1759
  483MOL0     O65106   6.083   5.146  10.354 -0.6001  0.3755  0.7312
  483MOL0     C65107   5.945   5.174  10.365  0.4221 -1.2310  0.0228
  483MOL0     C65108   5.857   5.051  10.396  0.0359  0.3385  1.0683
  483MOL0     C65109   5.822   4.967  10.269  0.1975  0.9455  0.5205
  483MOL0     C65110   5.949   4.902  10.202  0.8076  0.8977  1.3181
  483MOL0     C65111   5.920   4.807  10.078  0.5956 -0.7105  0.7775
  483MOL0     C65112   5.824   4.878   9.975 -0.5016 -0.7761  1.3161
  483MOL0     C65113   5.813   4.792   9.847 -0.2904 -0.2049  0.3616
  483MOL0     C65114   5.720   4.837   9.745 -0.5172 -1.0106  0.0862
  483MOL0    Cl65115   5.737   5.018   9.707 -0.1513 -0.2714 -0.2280
  483MOL0     C65116   6.306   5.226  10.386  0.6691 -0.1654  0.2343
  483MOL0     C65117   6.401   5.323  10.401 -0.8850  0.8995 -0.3484
  483MOL0     O65118   6.531   5.511  10.598  0.4098 -0.1405  0.1276
  483MOL0     C65119   6.649   5.752  10.363 -0.2765  0.0827  0.2246
  483MOL0     C65120   6.757   5.819  10.309  0.4311  0.2766  0.3785
  483MOL0     N65121   7.442   6.081  10.048  0.2743  0.1600  1.2801
  483MOL0     N65122   7.526   6.151  10.125  0.1880  0.2727  0.0350
  483MOL0     C65123   8.811   6.166  10.278  0.2553 -1.1054 -0.3338
  483MOL0     C65124   8.930   6.222  10.231  0.1749 -0.5075 -0.3070
  483MOL0     C65125   9.265   6.387   9.991 -0.4796 -0.4588 -0.3119
  483MOL0     C65126   9.265   6.361   9.854  0.3771 -0.5483 -1.1778
  483MOL0     C65127   9.369   6.390   9.772 -0.4467  0.0392 -0.5145
  483MOL0     C65128   9.489   6.444   9.831 -0.1171 -0.8512  0.2311
  483MOL0     O65129   9.593   6.470   9.742 -0.8233  0.5217 -0.2868
  483MOL0     C65130   9.702   6.552   9.777 -0.2414 -0.0192 -0.5208
  483MOL0     C65131   9.730   6.623   9.643 -0.7151  0.8698  0.5361
  483MOL0     C65132   9.867   6.701   9.646  0.8565 -0.7695 -0.3364
  483MOL0     C65133   9.994   6.629   9.656 -0.1415  0.3530  0.6836
  483MOL0     C65134  10.014   6.534   9.545  0.2778  0.3275  1.0506
  483MOL0     C65135  10.015   6.456   9.450 -0.0100 -0.3923 -0.3958
  483MOL0     C65136   9.489   6.486   9.967 -0.5746 -0.7206 -0.0721
  483MOL0     C65137   9.378   6.457  10.046 -0.6165  0.8714  0.7453
  483MOL0     H65138   8.940   6.052   9.929  2.2742  0.0259  0.3339
  483MOL0     H65139   8.730   5.948  10.023 -1.9165  0.3796  0.3713
  483MOL0     H65140   8.533   6.010  10.083  0.8638  0.5146  0.7489
  483MOL0     H65141   8.580   5.861  10.169  1.3388 -0.1088  1.4538
  483MOL0     H65142   8.339   5.875  10.175  0.7754  0.2365 -1.8519
  483MOL0     H65143   8.409   5.908  10.335  1.4419  0.3803 -0.6655
  483MOL0     H65144   8.359   6.152  10.295 -0.0375  0.6353 -2.2373
  483MOL0     H65145   8.303   6.114  10.138  1.6607  0.1515 -1.0758
  483MOL0     H65146   8.119   5.962  10.244 -0.7825  0.5239 -1.6803
  483MOL0     H65147   8.185   6.029  10.401  0.1876  2.4361 -0.1392
  483MOL0     H65148   8.128   6.265  10.307 -1.4512  0.1345  1.5968
  483MOL0     H65149   8.064   6.189  10.166  2.9282  1.7712 -0.5377
  483MOL0     H65150   7.945   6.140  10.449 -0.7749  2.1440  0.0225
  483MOL0     H65151   7.898   6.275  10.340 -1.5655 -0.5026 -2.1651
  483MOL0     H65152   7.825   6.115  10.159  2.0917  1.8921 -0.0550
  483MOL0     H65153   7.858   5.987  10.283  0.7725  0.0510  1.0801
  483MOL0     H65154   7.662   6.221  10.344  0.0730 -0.8114  1.1743
  483MOL0     H65155   7.671   6.060  10.410  2.6746  0.6331  1.7141
  483MOL0     H65156   7.553   5.860  10.266  2.8881  1.5783  1.1247
  483MOL0     H65157   7.334   5.888   9.942  3.0325  1.2101 -0.4702
  483MOL0     H65158   7.404   5.749  10.036  0.2487  0.8488 -1.3936
  483MOL0     H65159   7.240   5.764  10.211  1.7658 -0.3145 -0.3248
  483MOL0     H65160   7.155   5.741  10.060 -2.9313  1.4543  1.3592
  483MOL0     H65161   7.122   6.003  10.040  1.3831 -0.0564 -0.7752
  483MOL0     H65162   7.203   6.000  10.209  0.5336  1.1167 -1.0656
  483MOL0     H65163   6.942   5.875  10.118  2.0003  2.5072 -5.1366
  483MOL0     H65164   6.938   6.033  10.200 -1.5141 -0.6210 -1.6096
  483MOL0     H65165   6.999   5.696  10.514  0.2028 -2.2027  0.0814
  483MOL0     H65166   6.914   5.519  10.651  0.1054  3.8278  2.4515
  483MOL0     H65167   6.756   5.551  10.726  1.2643 -0.0690  1.4205
  483MOL0     H65168   6.781   5.436  10.587  0.3521  0.7220 -1.5944
  483MOL0     H65169   6.205   5.594  10.325 -1.1690  0.5361 -0.9947
  483MOL0     H65170   6.032   5.415  10.322 -0.1762 -1.7527  1.0150
  483MOL0     H65171   5.953   5.242  10.451  1.0444 -1.9061  0.5112
  483MOL0     H65172   5.913   5.224  10.273  0.9703  0.0053  0.4656
  483MOL0     H65173   5.896   4.974  10.462 -2.3169 -2.8643 -0.9850
  483MOL0     H65174   5.768   5.088  10.448 -1.5996 -1.0853 -0.5779
  483MOL0     H65175   5.779   5.035  10.195 -2.1355  0.7419  1.5995
  483MOL0     H65176   5.757   4.883  10.294  0.6443 -0.2958 -2.1434
  483MOL0     H65177   6.006   4.990  10.170 -1.7709  2.0116 -0.5441
  483MOL0     H65178   6.006   4.847  10.278  2.0083 -0.6915 -0.6257
  483MOL0     H65179   5.873   4.719  10.125  1.1760 -1.3080  0.2502
  483MOL0     H65180   6.012   4.767  10.035  0.2812 -1.4915  0.8093
  483MOL0     H65181   5.727   4.889  10.025  0.8738  0.5363  3.9321
  483MOL0     H65182   5.868   4.972   9.942  2.9344 -1.9069  2.2570
  483MOL0     H65183   5.770   4.695   9.873  0.9324 -0.3767  1.8960
  483MOL0     H65184   5.914   4.782   9.805 -0.4154 -0.1895  0.0514
  483MOL0     H65185   5.616   4.814   9.771 -0.8908  0.4910  0.0315
  483MOL0     H65186   5.748   4.792   9.650  1.8361  1.4748 -0.5020
  483MOL0     H65187   6.340   5.123  10.399  0.2858 -0.7244 -2.5804
  483MOL0     H65188   6.502   5.299  10.431 -2.2679 -3.5136  1.6553
  483MOL0     H65189   6.558   5.766  10.305  0.0402 -0.8485 -0.4992
  483MOL0     H65190   6.748   5.876  10.217  1.2224  0.8593  0.6456
  483MOL0     H65191   8.791   6.202  10.379 -0.8859 -0.1894 -0.8635
  483MOL0     H65192   8.984   6.292  10.294 -0.4492 -2.3751  2.5223
  483MOL0     H65193   9.179   6.313   9.807 -1.3442 -1.3958  2.4678
  483MOL0     H65194   9.349   6.365   9.669  1.1331 -0.3127 -0.7471
  483MOL0     H65195   9.677   6.627   9.853  0.0246 -0.3436 -0.1031
  483MOL0     H65196   9.790   6.500   9.817  0.8744  1.5454 -0.8333
  483MOL0     H65197   9.644   6.682   9.611 -0.5646 -0.3105 -2.3803
  483MOL0     H65198   9.747   6.540   9.573  1.5611 -0.5188  2.5642
  483MOL0     H65199   9.854   6.771   9.729 -2.1822 -3.3920  1.6747
  483MOL0     H65200   9.860   6.753   9.550 -3.0758 -0.2730  0.0618
  483MOL0     H65201   9.999   6.565   9.745  1.9825  0.7724  0.9374
  483MOL0     H65202  10.074   6.703   9.673  0.7072 -0.5041  0.5338
  483MOL0     H65203  10.009   6.385   9.370  0.4160 -2.9399  1.6626
  483MOL0     H65204   9.578   6.529  10.012  1.0290 -3.9499  0.0715
  483MOL0     H65205   9.377   6.478  10.153  2.0103  0.6878  0.8820
  484MOL0     O65206   1.265  11.107   1.871  0.1106  0.2011 -0.1954
  484MOL0     C65207   1.326  11.195   1.821  0.9471  0.3429 -0.0451
  484MOL0     O65208   1.336  11.323   1.874  0.3951  0.1924  0.0023
  484MOL0     C65209   1.268  11.354   1.990  0.0139 -0.3095  0.3672
  484MOL0     C65210   1.140  11.312   2.021 -0.1189 -0.3238  0.7534
  484MOL0     C65211   1.070  11.361   2.124 -0.1322  0.1354  0.4530
  484MOL0     C65212   1.141  11.446   2.219  0.1072  0.1686 -0.2576
  484MOL0     O65213   1.085  11.487   2.343  0.0085  0.8582 -0.0409
  484MOL0     C65214   0.951  11.540   2.323  0.4168 -0.5482 -0.4732
  484MOL0     C65215   0.919  11.634   2.446 -0.2255 -0.4323 -0.3950
  484MOL0     C65216   0.765  11.657   2.462 -0.0378  0.2576  1.1745
  484MOL0     C65217   0.698  11.688   2.329 -0.0859  0.4019 -0.5731
  484MOL0     C65218   0.561  11.753   2.356 -1.4896  0.2642  0.3316
  484MOL0     C65219   0.502  11.793   2.212 -0.4097 -0.8534  0.7282
  484MOL0     C65220   0.361  11.838   2.237 -0.7204 -0.6878  0.1052
  484MOL0     C65221   0.320  11.954   2.139  0.1094  0.4034  0.2436
  484MOL0     N65222   0.186  12.023   2.139  0.1501  0.2420 -0.4046
  484MOL0     C65223   0.065  11.977   2.119  0.5761  0.6620 -0.3946
  484MOL0     C65224  -0.025  12.082   2.122 -0.9924  0.0231 -0.9820
  484MOL0     C65225  -0.174  12.063   2.102  0.0329 -1.0210  0.3183
  484MOL0     C65226  -0.267  12.165   2.172 -0.0444 -0.0658  1.0381
  484MOL0     C65227  -0.366  12.094   2.266  0.4243  0.5589 -0.6004
  484MOL0     C65228  -0.446  12.217   2.326 -0.4069  0.4613 -0.1334
  484MOL0     O65229  -0.522  12.268   2.215 -0.0684 -1.3993  0.3264
  484MOL0     C65230  -0.634  12.349   2.227  0.4232  0.6919  0.2217
  484MOL0     C65231  -0.663  12.416   2.109 -0.5673  0.7462  0.4625
  484MOL0     C65232  -0.768  12.509   2.096  0.8605  0.7436 -0.1181
  484MOL0     C65233  -0.798  12.594   1.975  0.1876 -0.1811  0.3983
  484MOL0     C65234  -0.855  12.524   2.211  0.4338  0.0750 -0.6720
  484MOL0     C65235  -0.974  12.606   2.224  0.1401  0.4561 -0.3269
  484MOL0     O65236  -1.000  12.665   2.342 -0.4611  0.1987  0.5696
  484MOL0     C65237  -1.119  12.722   2.386 -0.6541 -0.1282  0.1000
  484MOL0     C65238  -1.230  12.752   2.308 -0.3991 -0.1562 -0.2015
  484MOL0     C65239  -1.336  12.823   2.369 -0.5632  0.0754 -0.7649
  484MOL0     C65240  -1.335  12.855   2.509 -0.7568  0.0883 -0.2821
  484MOL0     O65241  -1.442  12.920   2.561 -0.8486  0.0238  1.1196
  484MOL0     C65242  -1.446  12.978   2.695  0.6896  0.4405 -0.2511
  484MOL0     C65243  -1.586  13.019   2.737 -0.1423 -0.1096 -0.0728
  484MOL0     C65244  -1.587  13.093   2.867 -0.9777  0.4539  0.2148
  484MOL0     C65245  -1.702  13.188   2.880 -0.5744 -0.1884 -0.7537
  484MOL0     C65246  -1.703  13.247   3.021 -0.5524  0.5587  0.2094
  484MOL0     C65247  -1.811  13.345   3.048 -0.3251 -0.3207  0.0960
  484MOL0     C65248  -1.801  13.470   2.953  0.9065  0.3062 -0.4128
  484MOL0     C65249  -1.923  13.559   2.968 -0.4993 -0.2045 -0.5798
  484MOL0    Cl65250  -1.943  13.620   3.136  0.1459  0.5108 -0.2211
  484MOL0     C65251  -1.222  12.824   2.584 -0.2620  0.1075 -0.5907
  484MOL0     C65252  -1.113  12.756   2.520  0.4894 -0.0048 -0.1102
  484MOL0     O65253  -1.045  12.619   2.124  0.3339  0.2188 -0.4363
  484MOL0     C65254  -0.825  12.451   2.328 -0.2054 -0.3600  0.1683
  484MOL0     C65255  -0.714  12.362   2.336 -0.8749 -0.3572 -0.5519
  484MOL0     N65256   0.050  12.197   2.135  0.5783  0.0194  0.0170
  484MOL0     N65257   0.173  12.159   2.137 -0.0690 -0.6177  0.0700
  484MOL0     C65258   1.274  11.486   2.192 -0.5008  0.5428  0.9069
  484MOL0     C65259   1.339  11.432   2.081 -0.1661  0.2979  1.2455
  484MOL0     C65260   1.408  11.171   1.699  0.6941 -0.9450  0.6371
  484MOL0     C65261   1.437  11.040   1.642  0.1943 -0.8740 -0.5880
  484MOL0     C65262   1.537  11.029   1.538  0.2192 -0.0887 -0.5702
  484MOL0     C65263   1.591  11.140   1.472  0.3506 -0.0944  0.0684
  484MOL0     O65264   1.677  11.140   1.367  0.1502 -0.0091  0.6113
  484MOL0     C65265   1.791  11.057   1.401  0.1475 -0.2580  0.1840
  484MOL0     C65266   1.815  10.969   1.272 -0.1944 -0.2132 -0.4308
  484MOL0     C65267   1.948  10.881   1.267 -0.3221 -0.2906  0.3138
  484MOL0     C65268   2.078  10.968   1.263  0.5932 -0.2961  0.2750
  484MOL0     C65269   2.202  10.896   1.318  0.1305  0.4407 -0.0723
  484MOL0     C65270   2.282  10.816   1.359 -0.8665  1.1573 -0.6852
  484MOL0     C65271   1.556  11.264   1.531  0.6391  0.2422  0.7878
  484MOL0     C65272   1.467  11.277   1.629 -1.1449 -0.7801 -0.2338
  484MOL0     H65273   1.093  11.253   1.942  0.8360 -1.4230  0.9929
  484MOL0     H65274   0.972  11.322   2.148 -0.2927 -0.3874 -0.9416
  484MOL0     H65275   0.956  11.605   2.235  1.4724 -1.4582 -1.1084
  484MOL0     H65276   0.882  11.459   2.303 -0.1130  0.2343 -1.9337
  484MOL0     H65277   0.961  11.596   2.539 -0.8732  1.4784  0.7339
  484MOL0     H65278   0.958  11.736   2.437 -4.0327  1.8356  4.2542
  484MOL0     H65279   0.710  11.573   2.504 -1.3327  1.7828  2.6948
  484MOL0     H65280   0.751  11.738   2.534  1.2449  0.5890  1.0691
  484MOL0     H65281   0.759  11.747   2.260 -0.2051  1.3172  0.0819
  484MOL0     H65282   0.681  11.589   2.286  0.0193  0.8502 -1.6782
  484MOL0     H65283   0.507  11.671   2.403  0.0002 -2.0149 -1.6904
  484MOL0     H65284   0.564  11.839   2.424  1.4365 -0.4936  1.3251
  484MOL0     H65285   0.571  11.860   2.161  0.9347 -2.0760  0.8450
  484MOL0     H65286   0.485  11.714   2.138 -1.8733  1.9205 -2.1282
  484MOL0     H65287   0.287  11.759   2.226 -0.9053 -0.2228 -2.7482
  484MOL0     H65288   0.350  11.873   2.340  3.2988 -1.1028  0.8423
  484MOL0     H65289   0.330  11.893   2.048  0.6330  0.8799 -0.0263
  484MOL0     H65290   0.393  12.035   2.133  0.6119 -0.1276 -1.7951
  484MOL0     H65291   0.044  11.871   2.107  0.7553  0.8068 -2.2914
  484MOL0     H65292  -0.191  12.070   1.995  0.8246  4.5645  0.2678
  484MOL0     H65293  -0.187  11.963   2.146  2.6848 -0.3502  2.9471
  484MOL0     H65294  -0.322  12.215   2.092  2.1196  0.3146 -0.2935
  484MOL0     H65295  -0.205  12.243   2.219  0.0110 -2.2925  5.1306
  484MOL0     H65296  -0.319  12.036   2.346 -3.4381 -1.6121  0.3404
  484MOL0     H65297  -0.434  12.032   2.206 -0.2486  1.0256 -0.3310
  484MOL0     H65298  -0.380  12.289   2.374  0.3633 -0.8917  0.9098
  484MOL0     H65299  -0.517  12.195   2.407  0.2360 -2.3787 -0.2377
  484MOL0     H65300  -0.589  12.399   2.031  0.1744  1.3107  1.0324
  484MOL0     H65301  -0.796  12.699   2.004 -0.3269  0.7973 -2.6977
  484MOL0     H65302  -0.725  12.571   1.896  0.6102 -0.1162  0.7709
  484MOL0     H65303  -0.897  12.576   1.931  0.1226 -0.1965  0.5509
  484MOL0     H65304  -1.235  12.756   2.200  0.1644  1.8868 -0.2082
  484MOL0     H65305  -1.429  12.848   2.320 -1.1786 -0.3098  0.1776
  484MOL0     H65306  -1.421  12.899   2.766  2.6806 -2.7499 -4.1168
  484MOL0     H65307  -1.386  13.069   2.687  2.3350 -0.7000 -1.5046
  484MOL0     H65308  -1.626  13.089   2.663  3.0241  2.7591  0.6839
  484MOL0     H65309  -1.640  12.926   2.756  1.7116 -0.5814  3.7284
  484MOL0     H65310  -1.500  13.154   2.890 -1.9733  3.3039 -2.7630
  484MOL0     H65311  -1.598  13.012   2.940 -1.3142 -0.9011 -1.2520
  484MOL0     H65312  -1.678  13.272   2.815  0.4626 -1.5143 -2.1762
  484MOL0     H65313  -1.797  13.136   2.863 -0.4424 -0.9984  0.7902
  484MOL0     H65314  -1.604  13.287   3.045  0.7862 -2.8143  0.8893
  484MOL0     H65315  -1.712  13.167   3.096  0.1614 -0.1527 -0.4480
  484MOL0     H65316  -1.905  13.293   3.028 -1.4789  0.9174  2.0580
  484MOL0     H65317  -1.801  13.369   3.154 -0.5147  1.6852 -0.2985
  484MOL0     H65318  -1.793  13.448   2.846  1.8439 -2.8317  0.1978
  484MOL0     H65319  -1.711  13.529   2.976  1.4911  0.5567 -3.0415
  484MOL0     H65320  -2.005  13.494   2.936  1.4381 -4.7313  2.5197
  484MOL0     H65321  -1.905  13.640   2.897 -0.0092  0.5607  0.3846
  484MOL0     H65322  -1.210  12.871   2.682 -0.8605  0.5849 -0.7422
  484MOL0     H65323  -1.018  12.738   2.569  0.4111 -1.8610 -0.5501
  484MOL0     H65324  -0.885  12.466   2.417  2.0476 -0.7881  1.8658
  484MOL0     H65325  -0.707  12.306   2.429  3.5196 -0.2910 -0.5965
  484MOL0     H65326   1.339  11.557   2.242 -2.1548  1.3953  1.9448
  484MOL0     H65327   1.430  11.486   2.059 -0.5744 -0.0705 -1.7515
  484MOL0     H65328   1.410  10.946   1.690  2.7674 -1.9738 -1.1284
  484MOL0     H65329   1.558  10.927   1.509 -1.4368  0.0149 -2.3172
  484MOL0     H65330   1.877  11.120   1.427 -0.7424  0.6509  0.9905
  484MOL0     H65331   1.779  10.996   1.491  1.2103 -2.2643 -0.9657
  484MOL0     H65332   1.803  11.032   1.184  0.0507  1.3141  0.5803
  484MOL0     H65333   1.736  10.894   1.267 -1.1170  0.8274 -2.3041
  484MOL0     H65334   1.942  10.811   1.183 -2.9310 -2.8674  2.3915
  484MOL0     H65335   1.954  10.821   1.358  0.2254  0.0135  0.4797
  484MOL0     H65336   2.056  11.049   1.333 -0.2268 -0.9912  0.8322
  484MOL0     H65337   2.102  11.007   1.163  0.4303 -0.7530  0.0566
  484MOL0     H65338   2.334  10.736   1.407 -1.3254  1.5333  0.4913
  484MOL0     H65339   1.591  11.361   1.497 -1.6860  1.6380  2.1012
  484MOL0     H65340   1.454  11.379   1.666 -0.4075 -1.3583  1.7464
  485MOL0     O65341   7.365   5.549   9.685  0.3161  0.0197  0.0709
  485MOL0     C65342   7.399   5.431   9.676 -0.1142  0.4449 -0.7111
  485MOL0     O65343   7.346   5.322   9.733 -0.2070 -0.0142  0.4076
  485MOL0     C65344   7.227   5.337   9.798 -0.2233 -0.3175  0.1094
  485MOL0     C65345   7.219   5.302   9.933 -0.7097 -0.6300  0.4439
  485MOL0     C65346   7.103   5.320  10.009  0.0171 -0.4316  0.8882
  485MOL0     C65347   6.992   5.373   9.943 -0.0211 -0.1227 -0.0933
  485MOL0     O65348   6.878   5.385  10.017  0.2601 -0.2395  0.3227
  485MOL0     C65349   6.823   5.511  10.019 -0.2966  0.4679  0.1650
  485MOL0     C65350   6.681   5.504  10.085  0.0540 -0.1621 -0.5887
  485MOL0     C65351   6.583   5.407  10.010  0.2243 -0.2155  0.5874
  485MOL0     C65352   6.434   5.421  10.053 -0.2074 -0.1064 -0.2777
  485MOL0     C65353   6.325   5.355   9.965 -0.1560 -0.3301 -0.2881
  485MOL0     C65354   6.349   5.213   9.936 -0.8694 -1.4542 -0.5247
  485MOL0     C65355   6.231   5.136   9.854 -0.6607 -0.4904  0.9683
  485MOL0     C65356   6.107   5.123   9.945 -0.5004  0.0239  0.8921
  485MOL0     N65357   6.022   5.242   9.921 -0.0099 -0.7701  0.4526
  485MOL0     C65358   5.954   5.256   9.799  0.6307  0.4340 -0.2080
  485MOL0     C65359   5.867   5.350   9.821 -0.4081 -0.9488 -0.1339
  485MOL0     C65360   5.799   5.432   9.714 -0.0018 -0.7106 -0.1879
  485MOL0     C65361   5.697   5.542   9.766 -0.2416  0.5010 -0.0322
  485MOL0     C65362   5.567   5.545   9.694  0.0346 -0.3455  0.5665
  485MOL0     C65363   5.479   5.653   9.755 -0.2639  0.5235 -0.1795
  485MOL0     O65364   5.401   5.616   9.873 -0.4125  0.5463 -0.5711
  485MOL0     C65365   5.299   5.519   9.863  0.7557 -0.8708  0.2821
  485MOL0     C65366   5.234   5.476   9.982  0.6373  0.5383 -0.0209
  485MOL0     C65367   5.117   5.398   9.983 -0.8303 -0.5384 -0.3398
  485MOL0     C65368   5.069   5.363  10.125 -0.2314 -0.6065  0.0579
  485MOL0     C65369   5.062   5.356   9.860 -0.7413 -0.5357 -0.5251
  485MOL0     C65370   4.944   5.264   9.839  0.1296 -0.2265 -0.3284
  485MOL0     O65371   4.896   5.255   9.706 -0.8960  0.3569 -1.0236
  485MOL0     C65372   4.773   5.192   9.692  0.4861  0.3452 -0.6469
  485MOL0     C65373   4.757   5.052   9.725 -0.2649 -0.7600  0.2520
  485MOL0     C65374   4.636   4.984   9.700  0.0125 -0.4152  0.0942
  485MOL0     C65375   4.523   5.060   9.648 -0.4964  0.5314 -0.0782
  485MOL0     O65376   4.403   4.997   9.621  0.3314  0.2075  0.1156
  485MOL0     C65377   4.421   4.874   9.549  0.2264  0.4631  0.2277
  485MOL0     C65378   4.282   4.832   9.477 -0.8332  1.2533 -0.1572
  485MOL0     C65379   4.227   4.944   9.393  0.0574  0.4666  1.0385
  485MOL0     C65380   4.112   4.901   9.304  0.6620 -0.2746 -0.2562
  485MOL0     C65381   4.156   4.826   9.179 -0.3242  0.0377  0.5797
  485MOL0     C65382   4.039   4.771   9.097  0.5598 -1.0050  0.6502
  485MOL0     C65383   3.935   4.875   9.060 -0.0205  1.0169  0.8210
  485MOL0     C65384   3.859   4.835   8.940  0.3045 -0.0318  1.3204
  485MOL0    Cl65385   3.690   4.907   8.940 -0.0976 -0.3361 -0.2422
  485MOL0     C65386   4.541   5.195   9.630  0.3892  0.1652  0.9359
  485MOL0     C65387   4.664   5.257   9.649 -0.8119 -0.1581  0.3006
  485MOL0     O65388   4.890   5.211   9.938 -0.1170 -0.7402 -0.4080
  485MOL0     C65389   5.132   5.400   9.742 -0.1148 -0.0948 -0.0454
  485MOL0     C65390   5.249   5.473   9.742  0.0161  0.3633  0.5957
  485MOL0     N65391   5.893   5.402   9.948  0.0843  0.0195  0.5596
  485MOL0     N65392   5.966   5.326  10.012  0.0644 -0.8354 -0.0738
  485MOL0     C65393   6.994   5.379   9.800 -0.1431 -0.4611  0.1185
  485MOL0     C65394   7.116   5.380   9.721  0.3821  1.6962 -0.1094
  485MOL0     C65395   7.520   5.414   9.607 -0.5270  0.3017  0.3033
  485MOL0     C65396   7.599   5.513   9.571 -0.5493  0.2847  0.0296
  485MOL0     C65397   7.722   5.497   9.513 -0.3490 -0.1111 -0.2153
  485MOL0     C65398   7.778   5.368   9.487 -0.2613  0.2315  0.5957
  485MOL0     O65399   7.902   5.338   9.450 -0.1753  0.3443  0.8223
  485MOL0     C65400   8.002   5.441   9.439  0.2784  0.2113  0.0586
  485MOL0     C65401   8.134   5.388   9.374  1.0589 -1.0106  0.1577
  485MOL0     C65402   8.236   5.505   9.350  0.5189 -0.1256  0.0664
  485MOL0     C65403   8.373   5.450   9.332  0.0903  0.7138  0.3486
  485MOL0     C65404   8.474   5.558   9.312 -0.0046  0.2584 -0.6796
  485MOL0     C65405   8.570   5.637   9.296  0.0337 -0.2412  1.3379
  485MOL0     C65406   7.684   5.264   9.508 -0.2949  0.5340 -0.4466
  485MOL0     C65407   7.557   5.286   9.562  0.4619 -0.0495 -0.0391
  485MOL0     H65408   7.305   5.272   9.992 -2.0735 -1.3084  2.1694
  485MOL0     H65409   7.106   5.303  10.116 -0.3415 -0.0459  0.9601
  485MOL0     H65410   6.888   5.584  10.069 -0.4771  0.9005 -0.2257
  485MOL0     H65411   6.798   5.542   9.917  3.8380  0.2110 -1.1082
  485MOL0     H65412   6.691   5.475  10.190  0.3170 -1.2592 -0.9064
  485MOL0     H65413   6.634   5.603  10.081 -2.9461 -1.4971 -0.7395
  485MOL0     H65414   6.583   5.444   9.907  1.9902  1.4678  1.1371
  485MOL0     H65415   6.598   5.299  10.016  0.0545 -0.1355  4.1275
  485MOL0     H65416   6.421   5.375  10.152  1.2500  0.7581  0.3452
  485MOL0     H65417   6.405   5.526  10.065 -2.4204 -0.6885  0.0381
  485MOL0     H65418   6.227   5.374  10.011 -0.2693  0.6323 -0.8827
  485MOL0     H65419   6.319   5.403   9.867 -3.1143 -1.0324 -0.5568
  485MOL0     H65420   6.447   5.196   9.889  0.2515 -1.3365  1.6146
  485MOL0     H65421   6.358   5.169  10.036  2.1529 -3.4397 -1.5292
  485MOL0     H65422   6.221   5.183   9.755 -0.8199  1.1903  1.7531
  485MOL0     H65423   6.261   5.031   9.844  1.6852 -0.0291  2.3692
  485MOL0     H65424   6.133   5.111  10.050  0.1508  0.4721  0.7910
  485MOL0     H65425   6.050   5.036   9.910 -0.6944  1.5098 -3.0849
  485MOL0     H65426   5.974   5.200   9.708  2.2334 -2.0522  1.5372
  485MOL0     H65427   5.870   5.485   9.650 -0.0354  0.1893  0.4894
  485MOL0     H65428   5.741   5.359   9.657 -0.7008  1.8424 -2.9397
  485MOL0     H65429   5.755   5.635   9.760 -0.0328  0.2916 -2.1268
  485MOL0     H65430   5.681   5.527   9.873  0.2629 -0.5416 -0.0868
  485MOL0     H65431   5.518   5.451   9.721  0.6910 -1.3983 -1.6703
  485MOL0     H65432   5.566   5.561   9.585 -0.6152 -1.8108  0.3392
  485MOL0     H65433   5.399   5.675   9.684 -1.1933  0.6722  0.8716
  485MOL0     H65434   5.538   5.744   9.768 -0.5940  1.2614 -3.1366
  485MOL0     H65435   5.268   5.526  10.073  1.9220 -1.3940  0.6391
  485MOL0     H65436   5.071   5.254  10.134 -2.7254 -0.7997 -1.0412
  485MOL0     H65437   5.143   5.403  10.195 -0.3961 -0.2928  0.0540
  485MOL0     H65438   4.964   5.391  10.135 -0.2686 -0.3460 -0.9637
  485MOL0     H65439   4.855   5.007   9.734  0.8151  0.8461 -2.3313
  485MOL0     H65440   4.629   4.877   9.722 -0.3163 -0.3231  0.4660
  485MOL0     H65441   4.505   4.867   9.479  0.3887 -2.9974  0.6207
  485MOL0     H65442   4.444   4.793   9.619  4.4879  2.4403  1.4689
  485MOL0     H65443   4.292   4.736   9.424  0.4905  0.8256  0.7971
  485MOL0     H65444   4.205   4.835   9.555  0.7194  3.4719  1.4124
  485MOL0     H65445   4.306   4.988   9.332  0.0028 -0.0712  0.5785
  485MOL0     H65446   4.186   5.024   9.456 -0.4301  0.3242  0.9095
  485MOL0     H65447   4.045   4.841   9.366 -1.5738  2.7064  0.4714
  485MOL0     H65448   4.053   4.990   9.281 -1.6625 -1.0988  2.0028
  485MOL0     H65449   4.214   4.738   9.209 -3.6566 -2.4172  0.3599
  485MOL0     H65450   4.210   4.897   9.115 -0.8816  0.0010  0.0651
  485MOL0     H65451   4.076   4.727   9.004 -0.9900  3.0356 -2.1886
  485MOL0     H65452   3.998   4.685   9.151 -0.0719 -0.4086  1.1469
  485MOL0     H65453   3.978   4.971   9.031 -0.6575  0.5576 -1.8556
  485MOL0     H65454   3.855   4.899   9.131 -1.3434  1.0667 -0.6195
  485MOL0     H65455   3.840   4.728   8.946  0.5792 -0.0209  2.7110
  485MOL0     H65456   3.912   4.875   8.853 -0.5502  2.3142  1.8037
  485MOL0     H65457   4.464   5.253   9.582 -0.4926 -1.1517  0.7134
  485MOL0     H65458   4.672   5.361   9.621  2.7586 -0.5011 -0.3465
  485MOL0     H65459   5.107   5.371   9.640  0.1104 -1.0764  0.1683
  485MOL0     H65460   5.292   5.488   9.643 -0.7480  3.4664  0.6193
  485MOL0     H65461   6.903   5.385   9.742 -1.1535 -2.4379  1.4083
  485MOL0     H65462   7.123   5.406   9.616  2.4862 -1.8758 -1.0405
  485MOL0     H65463   7.580   5.617   9.598 -0.2651  0.7460 -1.4944
  485MOL0     H65464   7.779   5.587   9.492 -1.5727  1.7352  3.6069
  485MOL0     H65465   7.964   5.520   9.374 -1.8407 -0.0340  0.9342
  485MOL0     H65466   8.033   5.480   9.537  3.6178  0.3075 -0.9077
  485MOL0     H65467   8.104   5.333   9.284 -1.9744 -2.6152  1.9776
  485MOL0     H65468   8.181   5.317   9.443 -0.8819  0.2876  2.9835
  485MOL0     H65469   8.241   5.576   9.433 -1.6533  0.7078 -0.4518
  485MOL0     H65470   8.209   5.567   9.264  1.7435  0.4714  0.0899
  485MOL0     H65471   8.369   5.376   9.252 -1.4352  0.8664  0.2519
  485MOL0     H65472   8.395   5.399   9.426 -1.1253  3.2507  2.1239
  485MOL0     H65473   8.655   5.702   9.296  0.7410 -1.1087 -0.2684
  485MOL0     H65474   7.707   5.162   9.481 -0.6609  0.1601  0.5868
  485MOL0     H65475   7.490   5.201   9.561  2.1262 -1.4259  0.6820
  486MOL0     O65476  10.629   5.339   4.059  0.3232  0.4412  0.0948
  486MOL0     C65477  10.734   5.361   4.117 -0.3680 -1.0482  0.0112
  486MOL0     O65478  10.753   5.470   4.202  0.4099  0.3152  0.4080
  486MOL0     C65479  10.648   5.553   4.223 -0.0992 -0.8419  0.9582
  486MOL0     C65480  10.570   5.541   4.340 -0.1453  0.2249 -0.2370
  486MOL0     C65481  10.470   5.635   4.350  0.3312  0.4773 -0.4244
  486MOL0     C65482  10.451   5.742   4.261  0.4299 -0.7035  0.5067
  486MOL0     O65483  10.351   5.829   4.265  0.6904 -0.1228 -0.0305
  486MOL0     C65484  10.241   5.797   4.348 -0.0068 -0.4680 -0.6401
  486MOL0     C65485  10.130   5.904   4.344 -0.6364  0.1077  0.8270
  486MOL0     C65486  10.006   5.868   4.416  0.6682  0.5343  0.8538
  486MOL0     C65487   9.909   5.981   4.422  0.0914  0.2864  0.4537
  486MOL0     C65488   9.762   5.948   4.469  0.2557  0.3926  0.5080
  486MOL0     C65489   9.688   6.085   4.465 -0.2055  0.4730  0.3835
  486MOL0     C65490   9.550   6.093   4.534 -0.0770  0.5560  0.0548
  486MOL0     C65491   9.507   6.244   4.560  0.3483  0.1701 -0.1137
  486MOL0     N65492   9.511   6.325   4.436 -0.1053  0.9084  0.3107
  486MOL0     C65493   9.550   6.456   4.427 -0.4601  0.3506  0.4623
  486MOL0     C65494   9.552   6.489   4.303  1.3192  0.0380 -0.1167
  486MOL0     C65495   9.569   6.616   4.238  0.4078  0.0853  0.0489
  486MOL0     C65496   9.704   6.643   4.182 -0.7179  0.2880  0.3484
  486MOL0     C65497   9.679   6.664   4.030 -1.1745  0.2294 -0.0782
  486MOL0     C65498   9.802   6.720   3.958 -0.2886  0.9328 -0.1477
  486MOL0     O65499   9.917   6.636   3.986  0.4534 -0.7454 -0.2849
  486MOL0     C65500  10.040   6.668   3.929 -0.7532  0.1869 -0.1644
  486MOL0     C65501  10.144   6.575   3.947 -0.1994 -0.9055  0.4552
  486MOL0     C65502  10.270   6.585   3.877 -0.0593  0.5140 -0.4494
  486MOL0     C65503  10.381   6.472   3.901  0.8130  0.7229  0.2557
  486MOL0     C65504  10.295   6.700   3.795  0.0744  0.4115 -0.3349
  486MOL0     C65505  10.425   6.743   3.731 -0.3575  0.4609  1.1702
  486MOL0     O65506  10.410   6.820   3.613 -1.2863 -0.4755 -0.7967
  486MOL0     C65507  10.501   6.825   3.510 -0.0168 -0.3662  0.3240
  486MOL0     C65508  10.521   6.937   3.435  0.1005  0.0803 -0.7829
  486MOL0     C65509  10.624   6.959   3.343  0.7940 -0.1905 -0.8857
  486MOL0     C65510  10.715   6.863   3.326  0.2201  1.0639 -0.1709
  486MOL0     O65511  10.807   6.866   3.220  0.0395  0.3522  0.1844
  486MOL0     C65512  10.792   6.954   3.109  0.2899  0.2219  0.8691
  486MOL0     C65513  10.909   7.048   3.117 -1.3644 -0.6558 -0.1076
  486MOL0     C65514  10.926   7.135   2.999  0.8843 -0.0384  0.3579
  486MOL0     C65515  10.793   7.218   2.981  0.6221  0.3471  0.4200
  486MOL0     C65516  10.803   7.334   2.886 -0.3729 -0.5960  0.3491
  486MOL0     C65517  10.782   7.289   2.742 -0.3371  0.0463  1.5905
  486MOL0     C65518  10.794   7.405   2.644 -0.0486 -0.5544  0.4953
  486MOL0     C65519  10.932   7.464   2.607 -0.3847  0.4357 -0.4410
  486MOL0    Cl65520  10.995   7.576   2.739 -0.0682 -0.1227  0.3975
  486MOL0     C65521  10.708   6.745   3.400  0.4321 -0.0149  0.1457
  486MOL0     C65522  10.598   6.727   3.485  0.9059  0.8001 -0.2098
  486MOL0     O65523  10.528   6.696   3.766  0.8653 -0.0559 -0.8722
  486MOL0     C65524  10.185   6.788   3.777 -0.1154  0.8195 -0.0243
  486MOL0     C65525  10.063   6.770   3.842  0.3422  0.3323 -0.1199
  486MOL0     N65526   9.500   6.385   4.225 -0.2186 -0.0326  0.4056
  486MOL0     N65527   9.483   6.288   4.307  0.1146  0.1437 -0.5204
  486MOL0     C65528  10.537   5.750   4.151 -0.2815  0.2527  0.3070
  486MOL0     C65529  10.635   5.654   4.128 -0.1054 -0.9096 -0.0172
  486MOL0     C65530  10.850   5.280   4.080 -0.4168 -0.1175 -0.5749
  486MOL0     C65531  10.844   5.206   3.957  0.2015 -0.2412  0.0410
  486MOL0     C65532  10.958   5.139   3.918 -0.5654 -0.5064  0.1504
  486MOL0     C65533  11.077   5.148   3.998  1.1417  0.1510  0.6742
  486MOL0     O65534  11.185   5.076   3.948  0.5957  0.2433  1.0521
  486MOL0     C65535  11.308   5.071   4.012  0.5135 -0.6886 -0.2071
  486MOL0     C65536  11.387   5.195   3.991  0.2169 -0.3853  0.8494
  486MOL0     C65537  11.494   5.237   4.084  0.9984  1.1694 -0.1920
  486MOL0     C65538  11.583   5.359   4.045  0.3728  0.5384  0.1809
  486MOL0     C65539  11.641   5.425   4.161 -0.3505 -0.1935 -0.3425
  486MOL0     C65540  11.695   5.480   4.259  0.5752 -0.0930 -0.1475
  486MOL0     C65541  11.071   5.203   4.119  0.4391 -0.2284 -0.5216
  486MOL0     C65542  10.962   5.271   4.167  0.5092  0.0036  0.2071
  486MOL0     H65543  10.591   5.456   4.405 -3.5789 -0.3287  0.3034
  486MOL0     H65544  10.395   5.616   4.426  2.6067 -2.4637  1.3132
  486MOL0     H65545  10.198   5.701   4.318 -3.0017  0.0893  1.3859
  486MOL0     H65546  10.269   5.781   4.453 -1.3821  0.8399 -0.0276
  486MOL0     H65547  10.175   5.992   4.391 -1.0383  1.0055 -0.4132
  486MOL0     H65548  10.105   5.914   4.238  1.9573 -0.0789  0.1251
  486MOL0     H65549   9.965   5.802   4.340 -0.0548  1.3919  0.4703
  486MOL0     H65550  10.013   5.825   4.517  0.8305 -1.9745 -0.1623
  486MOL0     H65551   9.947   6.065   4.482 -0.8524  0.8425  0.2854
  486MOL0     H65552   9.891   6.016   4.320 -0.8432 -0.1663  0.4544
  486MOL0     H65553   9.696   5.887   4.407  3.5333 -0.8016 -2.1240
  486MOL0     H65554   9.760   5.911   4.572 -2.7302 -2.8455 -0.4714
  486MOL0     H65555   9.757   6.158   4.508 -2.9929  2.5411  1.6235
  486MOL0     H65556   9.675   6.109   4.359 -1.2164  1.1120  0.6414
  486MOL0     H65557   9.476   6.045   4.471  2.5805 -2.2657 -1.1651
  486MOL0     H65558   9.560   6.041   4.629 -0.7958 -1.0716 -0.7306
  486MOL0     H65559   9.574   6.283   4.638 -0.0635  0.3673  0.1464
  486MOL0     H65560   9.407   6.241   4.604  0.5855 -4.7218  0.6865
  486MOL0     H65561   9.581   6.525   4.505 -1.1971  0.0957  0.9830
  486MOL0     H65562   9.479   6.632   4.177 -0.7810  4.8042  2.5225
  486MOL0     H65563   9.549   6.694   4.313 -1.8678 -0.4038  0.0331
  486MOL0     H65564   9.752   6.548   4.206 -2.0657 -0.2173  1.1578
  486MOL0     H65565   9.763   6.728   4.219  1.6075 -1.7505  1.5565
  486MOL0     H65566   9.600   6.739   4.018 -0.2998  0.8893 -2.1458
  486MOL0     H65567   9.657   6.568   3.983 -0.8460 -0.3320  0.8979
  486MOL0     H65568   9.823   6.822   3.991  0.6803  0.5368  0.5239
  486MOL0     H65569   9.779   6.712   3.851 -0.8200 -3.6721  0.0980
  486MOL0     H65570  10.116   6.494   4.013 -1.6192 -1.0271 -0.2693
  486MOL0     H65571  10.435   6.470   3.806  0.6973  4.1140 -0.0084
  486MOL0     H65572  10.449   6.508   3.979 -1.6188  2.0994  1.8814
  486MOL0     H65573  10.339   6.375   3.928  0.3550  0.5991 -0.8649
  486MOL0     H65574  10.459   7.022   3.461 -3.3582 -2.9537  1.9995
  486MOL0     H65575  10.629   7.051   3.286  1.2200  0.8043  0.6878
  486MOL0     H65576  10.793   6.890   3.020  0.8012  3.4729 -1.6542
  486MOL0     H65577  10.693   7.000   3.104 -0.4010 -1.3450 -0.7613
  486MOL0     H65578  10.904   7.108   3.208 -1.1887 -1.8544  0.7149
  486MOL0     H65579  10.999   6.988   3.132 -1.6900 -1.8149 -2.3594
  486MOL0     H65580  10.955   7.069   2.917 -0.2915 -1.1577  0.8228
  486MOL0     H65581  11.002   7.210   3.024  1.4044 -0.9525  1.6407
  486MOL0     H65582  10.714   7.151   2.946 -1.2320  2.3278  0.5672
  486MOL0     H65583  10.750   7.251   3.077  0.3324 -1.1808  0.8530
  486MOL0     H65584  10.888   7.396   2.913 -2.5573  1.4882  2.9908
  486MOL0     H65585  10.716   7.399   2.901  1.8365  3.9205 -3.7910
  486MOL0     H65586  10.854   7.213   2.710  0.1393  1.3615 -0.6999
  486MOL0     H65587  10.681   7.249   2.726  0.0245 -0.0187 -0.9762
  486MOL0     H65588  10.729   7.489   2.669 -0.0951  0.0466 -1.4336
  486MOL0     H65589  10.755   7.367   2.549  0.2653 -3.8051  1.5659
  486MOL0     H65590  10.926   7.519   2.513 -0.6046  1.0410 -0.0737
  486MOL0     H65591  11.001   7.380   2.594 -0.7583  0.5105 -3.6489
  486MOL0     H65592  10.789   6.674   3.411  0.5117  0.1709  0.8245
  486MOL0     H65593  10.600   6.637   3.545  1.1130 -0.7832 -2.4576
  486MOL0     H65594  10.176   6.878   3.717 -1.9153  0.1949 -0.7646
  486MOL0     H65595   9.989   6.849   3.833 -0.5141 -0.2080  1.7151
  486MOL0     H65596  10.525   5.833   4.081 -0.1747  1.3167  1.5174
  486MOL0     H65597  10.678   5.656   4.028  1.5082  2.0069  0.6222
  486MOL0     H65598  10.768   5.224   3.881 -0.3783 -0.5651  0.5387
  486MOL0     H65599  10.960   5.101   3.817  2.6627 -0.3543  0.0480
  486MOL0     H65600  11.288   5.062   4.120 -4.9399 -1.3942 -0.9863
  486MOL0     H65601  11.371   4.985   3.987 -0.7184 -2.1129  1.2788
  486MOL0     H65602  11.317   5.279   3.989 -0.8434 -1.2583 -0.1381
  486MOL0     H65603  11.437   5.189   3.894  0.6346  2.1244  0.8276
  486MOL0     H65604  11.552   5.145   4.092 -2.6919 -1.3735 -0.0191
  486MOL0     H65605  11.443   5.256   4.179  0.5976 -1.9357  0.3045
  486MOL0     H65606  11.528   5.441   3.997  0.5715 -0.2284 -1.3897
  486MOL0     H65607  11.662   5.326   3.979 -0.9027  3.0863 -2.8902
  486MOL0     H65608  11.744   5.528   4.341  0.5700 -1.3158  0.5906
  486MOL0     H65609  11.151   5.198   4.192  0.8342  0.9279 -0.8557
  486MOL0     H65610  10.967   5.318   4.265  0.4002  1.1120 -0.2994
  487MOL0     O65611  10.308   8.927   2.791  0.0630 -0.5777 -0.3527
  487MOL0     C65612  10.357   8.925   2.685 -1.0624  0.1813  0.2477
  487MOL0     O65613  10.290   8.942   2.562 -0.0156  0.0492 -0.2484
  487MOL0     C65614  10.154   8.952   2.546  0.1488 -0.1882  0.4254
  487MOL0     C65615  10.117   8.977   2.413 -0.7911 -0.0795  0.1574
  487MOL0     C65616   9.981   8.989   2.378 -0.1996  0.1033  0.0517
  487MOL0     C65617   9.882   8.970   2.465 -0.9972 -0.7361  0.3156
  487MOL0     O65618   9.745   8.988   2.440  0.0420  0.3130 -0.2247
  487MOL0     C65619   9.703   8.980   2.297  0.9075 -0.2602 -0.1720
  487MOL0     C65620   9.551   8.985   2.293  1.0023  0.2912 -0.0104
  487MOL0     C65621   9.497   8.844   2.295 -0.8181 -0.9830  0.0669
  487MOL0     C65622   9.343   8.836   2.296 -0.7031  0.2493  0.2091
  487MOL0     C65623   9.280   8.715   2.223 -0.6951  0.1015  0.9577
  487MOL0     C65624   9.135   8.736   2.186  1.0996 -0.2370 -0.5148
  487MOL0     C65625   9.084   8.625   2.097 -0.5177  0.4600  0.4916
  487MOL0     C65626   8.944   8.662   2.046  0.0152  0.6982  0.0865
  487MOL0     N65627   8.853   8.649   2.158 -0.4026  0.3119 -0.4779
  487MOL0     C65628   8.778   8.534   2.194  0.9306 -0.0703  0.1770
  487MOL0     C65629   8.711   8.582   2.298  0.4024  0.7097  0.1911
  487MOL0     C65630   8.598   8.494   2.358 -0.0847  0.1070 -0.0689
  487MOL0     C65631   8.483   8.469   2.256 -0.4868  0.0955 -0.6754
  487MOL0     C65632   8.420   8.604   2.218 -0.5506 -0.2973 -0.4618
  487MOL0     C65633   8.321   8.650   2.325  0.3781  0.1103  0.5030
  487MOL0     O65634   8.386   8.751   2.408  0.2384 -0.1435 -0.0749
  487MOL0     C65635   8.302   8.849   2.452 -0.4816 -0.3504  0.2360
  487MOL0     C65636   8.208   8.821   2.553  0.4209  0.0982  0.3823
  487MOL0     C65637   8.114   8.920   2.593  0.5141  0.0967 -0.2042
  487MOL0     C65638   8.026   8.900   2.713  0.6063 -0.2764 -0.7087
  487MOL0     C65639   8.112   9.039   2.519  0.9636 -0.0392  0.4721
  487MOL0     C65640   8.013   9.148   2.536 -1.0533 -0.6131 -0.3638
  487MOL0     O65641   7.895   9.113   2.593 -0.1963 -0.1365  0.4069
  487MOL0     C65642   7.795   9.200   2.583 -1.4380 -0.6113  0.4131
  487MOL0     C65643   7.790   9.282   2.696 -0.0422 -0.6357 -0.1282
  487MOL0     C65644   7.693   9.387   2.710 -0.2196  0.4347  0.3329
  487MOL0     C65645   7.609   9.416   2.604 -0.5840 -0.0532  0.2646
  487MOL0     O65646   7.528   9.521   2.612 -0.0182 -0.0192  0.0740
  487MOL0     C65647   7.460   9.576   2.491  0.6275  0.0802  0.2456
  487MOL0     C65648   7.385   9.705   2.523 -0.9045  0.8393 -0.1553
  487MOL0     C65649   7.310   9.753   2.392 -1.0598 -0.4548 -0.5714
  487MOL0     C65650   7.230   9.648   2.322  1.0668  0.4908  0.3583
  487MOL0     C65651   7.132   9.705   2.222 -0.4299 -0.1791 -0.2650
  487MOL0     C65652   7.115   9.618   2.098 -0.1452 -0.8464 -0.9926
  487MOL0     C65653   6.983   9.652   2.038  0.5292  0.5352  0.6133
  487MOL0     C65654   6.965   9.585   1.909  0.7350  1.4905  0.4160
  487MOL0    Cl65655   6.798   9.606   1.854  0.1159 -0.0880  0.5131
  487MOL0     C65656   7.622   9.336   2.488 -0.4977  0.3730  0.3387
  487MOL0     C65657   7.719   9.230   2.474 -0.1083 -0.5842 -0.1347
  487MOL0     O65658   8.037   9.261   2.489  0.2124  0.4735 -0.0745
  487MOL0     C65659   8.209   9.064   2.422  0.3971 -0.2315 -0.1842
  487MOL0     C65660   8.294   8.967   2.382 -0.1626  0.9205  0.7046
  487MOL0     N65661   8.745   8.709   2.336  0.3464 -0.6358 -0.6353
  487MOL0     N65662   8.837   8.754   2.249  0.4678  0.3207 -0.0638
  487MOL0     C65663   9.917   8.923   2.596  0.0543 -0.0653 -0.6521
  487MOL0     C65664  10.053   8.929   2.637  0.3631  0.3058 -0.1646
  487MOL0     C65665  10.505   8.907   2.689 -0.4088  0.3277 -0.3473
  487MOL0     C65666  10.566   8.840   2.795  0.3354  0.1741 -0.0721
  487MOL0     C65667  10.703   8.806   2.798 -0.7240 -0.3920  0.3144
  487MOL0     C65668  10.786   8.826   2.677  0.4643  0.6648 -0.5843
  487MOL0     O65669  10.917   8.797   2.656  0.1746  0.2414 -0.7491
  487MOL0     C65670  10.995   8.755   2.769 -0.2392 -0.3475 -0.5004
  487MOL0     C65671  11.120   8.709   2.707 -0.4660  0.3116  0.2821
  487MOL0     C65672  11.113   8.577   2.634 -0.1669 -0.0141  0.2133
  487MOL0     C65673  11.254   8.533   2.568 -0.4439 -0.7294  0.2512
  487MOL0     C65674  11.355   8.635   2.548  0.0449 -0.0515  0.2813
  487MOL0     C65675  11.434   8.729   2.540  0.6013  0.5825 -0.1321
  487MOL0     C65676  10.723   8.877   2.566 -0.1711 -0.7212 -0.7047
  487MOL0     C65677  10.585   8.914   2.572 -0.8872 -0.3872 -0.0546
  487MOL0     H65678  10.200   8.995   2.345 -0.3773 -0.0271  0.6667
  487MOL0     H65679   9.956   9.021   2.277  1.3200  0.3266 -0.2855
  487MOL0     H65680   9.734   9.075   2.253 -1.6130  0.5176 -0.4026
  487MOL0     H65681   9.750   8.898   2.243 -1.5878 -1.1280 -1.1743
  487MOL0     H65682   9.503   9.031   2.380 -1.4485 -2.4555  0.2284
  487MOL0     H65683   9.524   9.031   2.198  1.9147 -1.3641 -1.1215
  487MOL0     H65684   9.536   8.781   2.214  0.4146 -0.3418  0.1482
  487MOL0     H65685   9.524   8.806   2.393 -3.7330  1.6718  2.0870
  487MOL0     H65686   9.303   8.818   2.396  3.2851  0.8749  2.1188
  487MOL0     H65687   9.308   8.931   2.255 -0.0696 -0.1319 -1.3062
  487MOL0     H65688   9.333   8.690   2.131  1.0405  0.5173  1.7887
  487MOL0     H65689   9.300   8.630   2.289  0.1205 -1.3285 -1.0193
  487MOL0     H65690   9.074   8.743   2.277 -1.8665  2.2568 -2.4681
  487MOL0     H65691   9.108   8.831   2.138 -2.2013  0.2447  1.8789
  487MOL0     H65692   9.139   8.619   2.002 -2.1147  1.1497 -0.5219
  487MOL0     H65693   9.087   8.526   2.144  2.8619  0.5027  0.5820
  487MOL0     H65694   8.907   8.602   1.963 -2.0686  0.0899  1.3600
  487MOL0     H65695   8.937   8.763   2.007 -0.8164 -0.5126 -3.2143
  487MOL0     H65696   8.780   8.430   2.163  0.4715 -0.2312  0.6767
  487MOL0     H65697   8.649   8.402   2.386  1.0357 -0.1452 -2.5900
  487MOL0     H65698   8.550   8.537   2.446  2.0708 -2.6622  2.6809
  487MOL0     H65699   8.414   8.405   2.311 -0.0213  0.3982  0.2870
  487MOL0     H65700   8.518   8.427   2.162 -0.4784  1.9740 -1.5559
  487MOL0     H65701   8.361   8.589   2.128 -0.7814 -0.2571 -0.3173
  487MOL0     H65702   8.498   8.680   2.203 -0.9018 -0.2363 -2.1465
  487MOL0     H65703   8.291   8.562   2.384  1.5548 -0.0228  0.9527
  487MOL0     H65704   8.239   8.701   2.274  2.5682  3.0722 -0.3293
  487MOL0     H65705   8.229   8.723   2.596  1.9101 -0.6907 -1.9430
  487MOL0     H65706   7.920   8.899   2.687  0.6628  1.5060 -1.1757
  487MOL0     H65707   8.039   8.800   2.753 -2.1501 -1.0815 -1.5909
  487MOL0     H65708   8.036   8.978   2.790 -3.9089  0.6316 -0.7512
  487MOL0     H65709   7.848   9.252   2.782 -0.9839 -2.0725  0.0456
  487MOL0     H65710   7.677   9.448   2.798  4.0407  0.9906  0.9371
  487MOL0     H65711   7.533   9.598   2.413  1.0170 -3.9148 -0.7376
  487MOL0     H65712   7.385   9.503   2.459  1.0005  0.4366 -1.4900
  487MOL0     H65713   7.318   9.678   2.605  0.1895  0.9751  0.8064
  487MOL0     H65714   7.451   9.784   2.560 -3.1202  1.8416  1.9382
  487MOL0     H65715   7.379   9.805   2.325  0.0705  1.2994  1.7647
  487MOL0     H65716   7.247   9.835   2.427 -2.1856 -2.1500  1.6269
  487MOL0     H65717   7.305   9.592   2.264  1.9088  1.6000  0.3435
  487MOL0     H65718   7.168   9.590   2.390 -1.6788  0.1705 -2.2198
  487MOL0     H65719   7.172   9.802   2.191  0.8078 -0.0831  1.4882
  487MOL0     H65720   7.041   9.735   2.276  0.1293  2.1960 -0.5219
  487MOL0     H65721   7.204   9.633   2.035 -0.0489 -0.2550 -0.7260
  487MOL0     H65722   7.107   9.512   2.121 -0.0719 -0.1814  2.5601
  487MOL0     H65723   6.984   9.761   2.037 -0.7345  0.5874  1.9747
  487MOL0     H65724   6.909   9.611   2.108 -2.1534 -0.2950 -2.4527
  487MOL0     H65725   6.990   9.479   1.911  0.3367  1.3915  0.2039
  487MOL0     H65726   7.031   9.626   1.831 -2.1358 -0.1668 -3.2115
  487MOL0     H65727   7.554   9.353   2.405 -0.1938  2.3218  0.4401
  487MOL0     H65728   7.726   9.172   2.383  1.5469 -0.2058 -0.2765
  487MOL0     H65729   8.202   9.155   2.364  0.9474 -0.6374 -0.8983
  487MOL0     H65730   8.362   8.983   2.299  0.5781 -1.0571  0.8734
  487MOL0     H65731   9.837   8.891   2.662  0.1359 -1.2369 -1.0959
  487MOL0     H65732  10.075   8.891   2.737  1.4189 -2.4668 -1.3574
  487MOL0     H65733  10.508   8.817   2.885  1.8288  0.1856  0.9235
  487MOL0     H65734  10.757   8.783   2.889  3.7161  2.0138 -1.3730
  487MOL0     H65735  11.013   8.842   2.833 -2.5074  2.7038 -3.5969
  487MOL0     H65736  10.954   8.669   2.822  3.7182 -2.2632 -0.2175
  487MOL0     H65737  11.206   8.709   2.775  0.7277 -2.8745 -1.0323
  487MOL0     H65738  11.141   8.784   2.631 -2.2058  0.9730  0.4047
  487MOL0     H65739  11.050   8.597   2.547  1.7942 -2.9172 -2.0826
  487MOL0     H65740  11.059   8.496   2.684 -0.1253 -0.9969 -1.2509
  487MOL0     H65741  11.247   8.483   2.471  1.9252 -1.0591  0.1816
  487MOL0     H65742  11.293   8.468   2.647 -4.2349 -2.2841  1.0726
  487MOL0     H65743  11.500   8.813   2.533 -0.0720  1.1272 -0.0478
  487MOL0     H65744  10.783   8.883   2.476 -1.2811 -0.0925 -1.4146
  487MOL0     H65745  10.561   8.968   2.481 -1.0213  2.4092  1.5345
  488MOL0     O65746   8.788   4.932   0.657 -0.6338 -0.1701  0.3071
  488MOL0     C65747   8.800   4.827   0.591 -0.1984 -0.5150  0.4156
  488MOL0     O65748   8.712   4.725   0.587 -0.2573  0.6032 -0.3178
  488MOL0     C65749   8.583   4.760   0.625 -0.0052  0.4673  0.1668
  488MOL0     C65750   8.475   4.751   0.537  0.0768 -0.9343  0.5059
  488MOL0     C65751   8.338   4.759   0.575  0.7992  0.3241 -0.4564
  488MOL0     C65752   8.314   4.783   0.709  0.3795  0.1937  0.4765
  488MOL0     O65753   8.187   4.782   0.762  0.3644  0.4700  0.1325
  488MOL0     C65754   8.073   4.731   0.696  0.3307  0.2921  0.0401
  488MOL0     C65755   7.941   4.766   0.755 -0.2662  0.8348 -0.4145
  488MOL0     C65756   7.879   4.899   0.718 -1.0092  0.1695 -0.1652
  488MOL0     C65757   7.742   4.916   0.786  0.1622 -0.6886  0.6568
  488MOL0     C65758   7.685   5.051   0.741  0.2715 -0.4564 -0.7381
  488MOL0     C65759   7.567   5.091   0.831 -1.7506  0.1288  0.5465
  488MOL0     C65760   7.443   4.997   0.820 -0.5504  0.5549 -0.1276
  488MOL0     C65761   7.321   5.042   0.906 -0.0610 -0.1489 -0.6653
  488MOL0     N65762   7.220   4.942   0.904  1.2006  0.0136 -0.0077
  488MOL0     C65763   7.150   4.895   1.022  0.4145  0.2751  0.1753
  488MOL0     C65764   7.064   4.806   0.971 -0.6438  0.6473 -0.0178
  488MOL0     C65765   6.969   4.717   1.051  0.2903  0.2258 -0.1261
  488MOL0     C65766   6.883   4.804   1.144 -0.5178  0.3337  0.2482
  488MOL0     C65767   6.826   4.733   1.262  0.0926  0.2848 -0.1857
  488MOL0     C65768   6.717   4.630   1.228  0.2499 -0.8781 -0.2311
  488MOL0     O65769   6.699   4.541   1.342 -0.5017  0.1093  0.0253
  488MOL0     C65770   6.592   4.560   1.435  0.3187 -0.1026 -0.2246
  488MOL0     C65771   6.580   4.460   1.529 -0.0368  0.8241 -0.1539
  488MOL0     C65772   6.486   4.459   1.633 -0.1318  0.0917  0.4555
  488MOL0     C65773   6.501   4.341   1.722  0.9291 -0.8658  0.0977
  488MOL0     C65774   6.401   4.566   1.642  0.6092 -0.0417  0.1736
  488MOL0     C65775   6.293   4.583   1.745 -1.2941 -0.0278  0.2421
  488MOL0     O65776   6.213   4.690   1.740 -0.5339  0.0449 -0.5507
  488MOL0     C65777   6.118   4.717   1.834 -0.5173 -0.4124 -0.3063
  488MOL0     C65778   6.003   4.777   1.782  0.0823 -0.9770  0.3024
  488MOL0     C65779   5.897   4.813   1.870 -0.8975 -0.1446  0.6022
  488MOL0     C65780   5.906   4.777   2.008  0.3242 -0.6671  0.4223
  488MOL0     O65781   5.807   4.796   2.099 -0.0563  0.2730  0.2421
  488MOL0     C65782   5.687   4.870   2.054  0.0630  0.9322  0.0409
  488MOL0     C65783   5.588   4.900   2.168  0.3743  0.3229  0.4006
  488MOL0     C65784   5.460   4.960   2.104 -0.8022 -0.3937 -0.1415
  488MOL0     C65785   5.365   5.004   2.219  0.1663 -0.5964  0.7676
  488MOL0     C65786   5.230   5.042   2.164 -0.0426 -0.5265 -0.1953
  488MOL0     C65787   5.132   5.097   2.275  0.4365  0.4526 -0.1410
  488MOL0     C65788   5.086   4.979   2.367 -0.0655  0.4872  0.3044
  488MOL0     C65789   4.951   5.012   2.432 -0.4735  0.8826 -0.2751
  488MOL0    Cl65790   4.982   5.113   2.583  0.2377 -0.3232 -0.3129
  488MOL0     C65791   6.018   4.708   2.056  0.2688  0.4914 -0.2094
  488MOL0     C65792   6.125   4.680   1.972  0.6499  0.3449  0.5693
  488MOL0     O65793   6.306   4.505   1.842 -0.5321 -0.3680  1.0271
  488MOL0     C65794   6.409   4.665   1.545  0.0374  0.1769 -0.5754
  488MOL0     C65795   6.502   4.665   1.450  0.0974 -0.1566  1.1082
  488MOL0     N65796   7.102   4.778   0.842 -1.0698 -0.1096  0.0401
  488MOL0     N65797   7.203   4.854   0.809  0.2288 -0.2993 -0.1524
  488MOL0     C65798   8.417   4.799   0.800  0.8294  0.7287 -0.6710
  488MOL0     C65799   8.553   4.792   0.761 -0.4733  0.2633  0.3532
  488MOL0     C65800   8.925   4.805   0.523 -0.0015 -0.4060  0.0511
  488MOL0     C65801   9.037   4.873   0.554 -1.1313 -0.5547 -0.2481
  488MOL0     C65802   9.157   4.860   0.482  0.8105 -1.0947 -0.0696
  488MOL0     C65803   9.158   4.754   0.389  0.6212 -0.0153 -0.2008
  488MOL0     O65804   9.280   4.720   0.328  0.4231 -0.3627  0.4316
  488MOL0     C65805   9.406   4.750   0.378 -0.0145 -0.8271 -0.1454
  488MOL0     C65806   9.442   4.696   0.509 -0.8571 -0.6020  0.6194
  488MOL0     C65807   9.476   4.542   0.506  0.4560  0.7579  0.2308
  488MOL0     C65808   9.359   4.455   0.536  0.3196  0.1158 -0.3531
  488MOL0     C65809   9.388   4.314   0.491 -0.5731  0.2377 -0.0707
  488MOL0     C65810   9.442   4.212   0.468 -0.0896  0.6308  0.9998
  488MOL0     C65811   9.043   4.681   0.350 -0.2158  0.9977 -1.3036
  488MOL0     C65812   8.933   4.706   0.423  0.1813 -0.1721 -0.7737
  488MOL0     H65813   8.488   4.742   0.429  0.9801  1.9308  0.2956
  488MOL0     H65814   8.259   4.748   0.502 -0.1910  1.2876  0.4440
  488MOL0     H65815   8.061   4.767   0.593 -1.3425  1.4526  0.6122
  488MOL0     H65816   8.077   4.622   0.702 -0.5791  0.3219  1.5125
  488MOL0     H65817   7.883   4.679   0.721  1.3274 -0.4467  0.0015
  488MOL0     H65818   7.939   4.760   0.864 -2.6464  0.3645 -0.4199
  488MOL0     H65819   7.946   4.979   0.751 -0.6644 -0.6667  1.2638
  488MOL0     H65820   7.881   4.900   0.609  0.8091 -3.2405 -0.2847
  488MOL0     H65821   7.672   4.838   0.752  0.5720 -0.4092 -0.9021
  488MOL0     H65822   7.742   4.895   0.893  1.7989 -0.7956  0.6578
  488MOL0     H65823   7.765   5.126   0.743 -0.1893  0.0976 -2.0254
  488MOL0     H65824   7.649   5.037   0.639  0.5983 -0.6791 -0.8256
  488MOL0     H65825   7.596   5.108   0.935 -0.4636  1.4904  0.0111
  488MOL0     H65826   7.534   5.187   0.789  1.3109  2.5174  3.0813
  488MOL0     H65827   7.414   4.992   0.714  0.6894 -0.6126 -0.4483
  488MOL0     H65828   7.471   4.892   0.837  2.3014  0.4961 -3.7761
  488MOL0     H65829   7.270   5.127   0.859 -1.8709 -2.9344 -4.1879
  488MOL0     H65830   7.360   5.070   1.005  0.6455 -1.6496 -0.4927
  488MOL0     H65831   7.153   4.934   1.123 -3.4860 -0.4998  0.7188
  488MOL0     H65832   6.902   4.659   0.986 -0.8049 -0.7712  1.7995
  488MOL0     H65833   7.031   4.650   1.111  0.9935 -0.0333 -1.1193
  488MOL0     H65834   6.801   4.853   1.091 -1.0382 -1.3305 -0.5831
  488MOL0     H65835   6.954   4.871   1.193  1.3322 -1.6201  0.4040
  488MOL0     H65836   6.785   4.815   1.321  0.2652  0.5355 -0.4107
  488MOL0     H65837   6.900   4.681   1.324  0.8781  0.3014 -1.0887
  488MOL0     H65838   6.748   4.570   1.142  0.3776  0.3203 -1.0481
  488MOL0     H65839   6.624   4.680   1.199  0.8363 -1.3639 -3.3390
  488MOL0     H65840   6.646   4.377   1.506 -1.6599 -0.1413 -1.6335
  488MOL0     H65841   6.406   4.289   1.736  1.4520 -1.3236  2.4291
  488MOL0     H65842   6.564   4.260   1.686 -1.2076 -3.0478  1.0393
  488MOL0     H65843   6.540   4.384   1.815 -3.0190 -0.6352  1.8591
  488MOL0     H65844   6.009   4.790   1.675  4.1888 -2.2388  0.1965
  488MOL0     H65845   5.810   4.867   1.833 -1.2362 -2.1756 -1.8778
  488MOL0     H65846   5.719   4.964   2.007 -0.9664  2.3023  1.9557
  488MOL0     H65847   5.637   4.809   1.979  2.7957  0.4823 -1.5824
  488MOL0     H65848   5.542   4.814   2.218 -3.5859  1.1716 -1.4024
  488MOL0     H65849   5.633   4.972   2.237 -0.4622 -0.4487  1.8068
  488MOL0     H65850   5.412   4.896   2.029  1.1032 -0.3593 -1.4760
  488MOL0     H65851   5.482   5.058   2.060 -1.5049  0.2002  0.7774
  488MOL0     H65852   5.351   4.920   2.287  1.7501 -1.6628 -0.1410
  488MOL0     H65853   5.403   5.090   2.274 -0.0233 -0.2381  0.3504
  488MOL0     H65854   5.190   4.952   2.116 -2.2400 -1.0415  2.3471
  488MOL0     H65855   5.239   5.122   2.090  1.3823  2.6521  3.1135
  488MOL0     H65856   5.176   5.181   2.330 -3.3612  1.4780  1.6172
  488MOL0     H65857   5.050   5.137   2.216  0.7776 -0.1370 -1.0400
  488MOL0     H65858   5.155   4.955   2.448 -2.0626 -1.2826  1.5894
  488MOL0     H65859   5.081   4.887   2.309  1.6916 -1.1391  2.5730
  488MOL0     H65860   4.893   4.924   2.463 -0.0757  0.9004  0.5483
  488MOL0     H65861   4.892   5.072   2.363  0.7871  0.0144 -2.2045
  488MOL0     H65862   6.022   4.674   2.159  3.8644 -3.0442 -1.2300
  488MOL0     H65863   6.213   4.632   2.016  0.0761 -1.1700  0.1416
  488MOL0     H65864   6.339   4.746   1.532 -0.3246 -0.5297 -4.1996
  488MOL0     H65865   6.505   4.750   1.384 -0.8357 -1.7086 -1.0614
  488MOL0     H65866   8.389   4.811   0.905 -3.5971 -3.9061 -0.9662
  488MOL0     H65867   8.630   4.809   0.835 -0.4046 -1.2983  0.6776
  488MOL0     H65868   9.037   4.942   0.638  1.2520 -1.0320  0.2330
  488MOL0     H65869   9.239   4.927   0.505  0.0126 -0.4260  0.9608
  488MOL0     H65870   9.484   4.719   0.307 -0.5918 -0.4586 -0.9638
  488MOL0     H65871   9.421   4.858   0.383  3.9421 -1.2715  0.8967
  488MOL0     H65872   9.362   4.720   0.579 -3.3504 -1.1276 -1.8618
  488MOL0     H65873   9.535   4.745   0.539 -0.0945 -1.2478 -0.6282
  488MOL0     H65874   9.558   4.522   0.576  2.0810  0.6425 -1.6070
  488MOL0     H65875   9.518   4.504   0.412  2.0584 -3.1517  2.2924
  488MOL0     H65876   9.276   4.492   0.475 -1.2252 -1.2171  0.8343
  488MOL0     H65877   9.328   4.459   0.641  1.4787  1.4306 -0.0320
  488MOL0     H65878   9.492   4.120   0.447 -2.0152 -0.5327  1.3091
  488MOL0     H65879   9.043   4.594   0.286  0.2513 -1.7234  2.0738
  488MOL0     H65880   8.850   4.639   0.399 -2.0682  2.4549 -0.8780
  489MOL0     O65881   6.556   9.392  10.086 -0.5396  0.0647  0.5567
  489MOL0     C65882   6.577   9.269  10.081  0.4180 -0.4073  0.4976
  489MOL0     O65883   6.478   9.165  10.067  0.3853  0.7210 -0.5376
  489MOL0     C65884   6.354   9.173  10.123 -0.0838  0.2419 -0.2835
  489MOL0     C65885   6.284   9.287  10.172 -0.2469 -0.2093 -0.9334
  489MOL0     C65886   6.173   9.270  10.263 -0.2585  0.1260 -0.7704
  489MOL0     C65887   6.116   9.148  10.286 -0.1524  0.0292 -0.0185
  489MOL0     O65888   6.003   9.124  10.357 -0.1385 -1.0922 -0.1677
  489MOL0     C65889   6.024   9.074  10.488 -0.1459  0.4361  0.0250
  489MOL0     C65890   5.922   9.122  10.580  1.1037  0.5074 -0.3254
  489MOL0     C65891   5.828   9.004  10.602 -0.2600  0.3568 -0.5672
  489MOL0     C65892   5.707   9.052  10.680 -0.7177 -0.6532  0.9889
  489MOL0     C65893   5.616   8.931  10.698 -1.1878 -0.0579  0.3214
  489MOL0     C65894   5.480   8.983  10.738  0.4252  0.3243  0.3345
  489MOL0     C65895   5.404   8.870  10.815 -0.1230  0.4119  0.6696
  489MOL0     C65896   5.254   8.901  10.842  0.0766 -0.2072  0.1942
  489MOL0     N65897   5.239   9.015  10.923 -1.2294 -0.2060 -0.6764
  489MOL0     C65898   5.300   9.060  11.039 -0.5479  0.5678  0.1880
  489MOL0     C65899   5.256   9.187  11.057  0.1249 -0.9314 -0.0223
  489MOL0     C65900   5.287   9.283  11.176  0.7232  0.2008  0.2835
  489MOL0     C65901   5.434   9.311  11.213 -1.6967  0.1418 -0.2874
  489MOL0     C65902   5.504   9.384  11.095  0.0751  1.1221  0.3710
  489MOL0     C65903   5.582   9.296  10.998  0.1456 -0.8626  0.4664
  489MOL0     O65904   5.672   9.375  10.925  0.2015 -0.5842 -0.0875
  489MOL0     C65905   5.800   9.371  10.957  0.6401  0.3083  0.3175
  489MOL0     C65906   5.838   9.370  11.094 -0.5299  0.7048  0.3280
  489MOL0     C65907   5.971   9.372  11.125  0.1046 -0.3090 -0.3064
  489MOL0     C65908   6.006   9.393  11.269  0.2874  0.5079 -0.1941
  489MOL0     C65909   6.058   9.384  11.020 -0.2166  0.3196 -0.4830
  489MOL0     C65910   6.208   9.396  11.048  0.3478 -0.0670 -0.0441
  489MOL0     O65911   6.292   9.303  10.988  0.2078 -0.0317  0.7580
  489MOL0     C65912   6.428   9.337  10.968  0.4779  0.1098  0.2569
  489MOL0     C65913   6.527   9.241  11.004 -0.5210  0.4130 -0.8266
  489MOL0     C65914   6.667   9.260  11.003 -0.6577  0.2928  0.5671
  489MOL0     C65915   6.713   9.391  10.962 -0.4464 -0.0906  0.0839
  489MOL0     O65916   6.843   9.432  10.952 -0.1912 -0.6077  0.3406
  489MOL0     C65917   6.940   9.343  10.895 -0.2474 -0.2886  0.2226
  489MOL0     C65918   6.919   9.326  10.745 -0.9432  0.0260 -0.3955
  489MOL0     C65919   6.910   9.177  10.706 -0.1951 -0.5754 -0.5394
  489MOL0     C65920   6.943   9.155  10.558 -0.1603 -0.0075  0.6250
  489MOL0     C65921   6.907   9.009  10.531  0.1891  0.5400 -0.0378
  489MOL0     C65922   6.975   8.943  10.408  0.1388 -0.4996  0.3264
  489MOL0     C65923   6.903   8.815  10.375 -0.4724  0.0348  0.5866
  489MOL0     C65924   6.929   8.767  10.232 -0.1583 -0.0780  0.2630
  489MOL0    Cl65925   6.802   8.641  10.199  0.3547 -0.4742 -0.4962
  489MOL0     C65926   6.618   9.481  10.919 -0.8333 -0.1313 -0.6053
  489MOL0     C65927   6.479   9.453  10.912  0.1700 -0.3970 -0.2239
  489MOL0     O65928   6.242   9.500  11.100  0.3805 -0.2345  0.7961
  489MOL0     C65929   6.027   9.379  10.890  0.6749 -0.2331 -0.5558
  489MOL0     C65930   5.895   9.371  10.855 -0.1744  0.4159 -0.0719
  489MOL0     N65931   5.182   9.226  10.956 -0.0586 -0.1962 -0.1881
  489MOL0     N65932   5.167   9.121  10.877 -0.0001 -0.0888  0.4640
  489MOL0     C65933   6.180   9.037  10.236  0.2064 -0.1129  0.0831
  489MOL0     C65934   6.296   9.050  10.167  0.9205 -0.3163  0.2499
  489MOL0     C65935   6.716   9.231  10.040  0.9580 -0.6786  0.6127
  489MOL0     C65936   6.807   9.330   9.993  0.0549  0.7854  0.4449
  489MOL0     C65937   6.930   9.276   9.941 -0.2288 -0.7775 -0.1476
  489MOL0     C65938   6.952   9.136   9.936  0.8032  0.4049 -0.7699
  489MOL0     O65939   7.065   9.062   9.888 -0.3282  0.0392  0.1026
  489MOL0     C65940   7.191   9.129   9.890 -0.8747  0.8820 -0.2462
  489MOL0     C65941   7.247   9.134  10.032  0.3614 -0.6133 -0.3004
  489MOL0     C65942   7.241   9.000  10.113  0.3194  0.1078  1.3895
  489MOL0     C65943   7.269   8.865  10.043  0.0224  0.1345  0.1118
  489MOL0     C65944   7.158   8.793   9.972 -0.5514  0.6014 -0.2075
  489MOL0     C65945   7.061   8.736   9.921  0.4406  0.6650 -0.6309
  489MOL0     C65946   6.860   9.049   9.979 -0.2468  0.4443 -0.3610
  489MOL0     C65947   6.737   9.098  10.027 -0.2774 -0.2081 -0.3250
  489MOL0     H65948   6.304   9.388  10.137  0.9893 -0.4791 -1.0645
  489MOL0     H65949   6.121   9.357  10.303 -0.4766 -0.4851  0.3284
  489MOL0     H65950   6.014   8.966  10.480 -0.8944  0.6111 -2.0033
  489MOL0     H65951   6.126   9.088  10.525 -0.1042 -0.1762  0.1376
  489MOL0     H65952   5.961   9.148  10.678 -0.5191 -0.9634  0.7612
  489MOL0     H65953   5.855   9.200  10.542 -1.5104 -0.4268  2.0534
  489MOL0     H65954   5.796   8.957  10.508  0.3795  0.7772 -1.0042
  489MOL0     H65955   5.879   8.930  10.664  0.8172  1.7647  0.2769
  489MOL0     H65956   5.741   9.085  10.778  3.5032 -1.4054 -0.0203
  489MOL0     H65957   5.660   9.130  10.619 -0.0402 -0.7998  0.2626
  489MOL0     H65958   5.614   8.879  10.601  1.2601 -0.6928  0.5539
  489MOL0     H65959   5.653   8.860  10.772 -1.2020  0.9549  1.3293
  489MOL0     H65960   5.510   9.064  10.805  3.2249  1.4385 -2.0525
  489MOL0     H65961   5.424   9.025  10.654 -1.2995 -0.1034  1.2279
  489MOL0     H65962   5.420   8.778  10.757 -1.4548  1.2016 -1.0516
  489MOL0     H65963   5.452   8.858  10.912  2.3588  2.3755 -0.2088
  489MOL0     H65964   5.212   8.814  10.893 -1.7708  1.3891  1.5498
  489MOL0     H65965   5.204   8.919  10.746 -0.4514 -0.8929  0.3345
  489MOL0     H65966   5.373   9.004  11.096 -0.9586  0.5826  0.7348
  489MOL0     H65967   5.225   9.374  11.169 -0.1128 -0.2649  1.2995
  489MOL0     H65968   5.236   9.255  11.269  0.9933  1.6331  0.8914
  489MOL0     H65969   5.485   9.216  11.232 -0.7556  0.9569  1.4267
  489MOL0     H65970   5.428   9.373  11.302 -1.8693 -2.5470  1.6980
  489MOL0     H65971   5.572   9.458  11.139  0.1508  1.7440 -0.7516
  489MOL0     H65972   5.434   9.431  11.026 -0.5149 -1.1904 -0.7202
  489MOL0     H65973   5.518   9.249  10.922  3.6893 -0.3429 -3.2118
  489MOL0     H65974   5.625   9.216  11.059 -0.0684 -1.7378 -0.4956
  489MOL0     H65975   5.769   9.362  11.177  2.0061  0.9026  2.5857
  489MOL0     H65976   6.112   9.388  11.296  0.4679 -1.2291 -1.0690
  489MOL0     H65977   5.971   9.488  11.310  3.1800  0.4360  2.8679
  489MOL0     H65978   5.959   9.322  11.338  0.1643  1.8765  1.1856
  489MOL0     H65979   6.499   9.151  11.058  1.9382 -0.1427 -0.3575
  489MOL0     H65980   6.734   9.188  11.047  0.1691  0.4795 -0.3526
  489MOL0     H65981   7.038   9.391  10.909  0.2437 -1.1930 -0.0780
  489MOL0     H65982   6.935   9.250  10.952 -0.1684 -1.3198 -1.3986
  489MOL0     H65983   6.837   9.386  10.703  1.9785  4.0553 -0.9826
  489MOL0     H65984   7.018   9.355  10.707 -1.3790  1.5301 -0.4522
  489MOL0     H65985   6.807   9.150  10.733 -1.0980  1.6662 -1.4725
  489MOL0     H65986   6.981   9.119  10.765  2.4347  1.3321 -1.6225
  489MOL0     H65987   6.891   9.216  10.484  1.2313 -0.6906 -0.9735
  489MOL0     H65988   7.050   9.171  10.547 -0.1154 -0.3836  0.5232
  489MOL0     H65989   6.799   9.005  10.540  0.2207  3.2098  3.6044
  489MOL0     H65990   6.943   8.945  10.613 -1.2086 -0.5340 -0.2273
  489MOL0     H65991   6.970   9.013  10.324 -0.8590 -0.1723  0.6446
  489MOL0     H65992   7.081   8.931  10.432 -0.0945  1.2043  2.5463
  489MOL0     H65993   6.799   8.847  10.373 -0.1375  1.1547 -0.2292
  489MOL0     H65994   6.937   8.734  10.441  1.8832  0.7617  0.3764
  489MOL0     H65995   7.028   8.721  10.239 -0.3957 -0.4324  1.6297
  489MOL0     H65996   6.927   8.846  10.157 -6.4437 -0.9253 -1.0291
  489MOL0     H65997   6.649   9.581  10.891 -0.9302 -0.4247 -1.8436
  489MOL0     H65998   6.413   9.534  10.885  0.8070  0.3005  0.2421
  489MOL0     H65999   6.100   9.396  10.811 -0.2561 -1.3692 -1.7136
  489MOL0     H66000   5.871   9.366  10.750  0.1740 -2.4171 -0.0908
  489MOL0     H66001   6.151   8.937  10.267  0.0117 -0.3263 -0.7609
  489MOL0     H66002   6.354   8.960  10.152  2.1114  0.4062  0.4420
  489MOL0     H66003   6.794   9.438   9.992 -1.0743  0.6604 -0.1343
  489MOL0     H66004   7.011   9.333   9.896 -0.2450 -1.0046 -0.4614
  489MOL0     H66005   7.251   9.069   9.822 -2.5110  0.5854 -1.4984
  489MOL0     H66006   7.177   9.230   9.851 -0.3692  1.3033  0.6297
  489MOL0     H66007   7.189   9.211  10.083  1.5229  1.7398 -2.2989
  489MOL0     H66008   7.347   9.178  10.027  0.2037  0.3439  2.9196
  489MOL0     H66009   7.144   9.003  10.163 -0.8909 -1.1699 -0.7064
  489MOL0     H66010   7.322   9.003  10.186  1.6633 -1.9235  0.1302
  489MOL0     H66011   7.287   8.796  10.126 -2.7054  1.6375  2.1085
  489MOL0     H66012   7.359   8.872   9.981 -0.6315  1.6340 -0.7198
  489MOL0     H66013   6.983   8.691   9.864  1.8870 -1.1034 -1.2661
  489MOL0     H66014   6.882   8.944   9.964  0.6692  0.9104 -2.6033
  489MOL0     H66015   6.657   9.031  10.056 -1.4581  0.5477 -1.6991
  490MOL0     O66016   7.085   2.346   9.353 -0.1152 -0.2371 -0.1958
  490MOL0     C66017   7.145   2.247   9.339 -0.0586 -1.2927  0.9393
  490MOL0     O66018   7.097   2.122   9.357 -0.0405  0.5743  0.5079
  490MOL0     C66019   6.968   2.114   9.401 -0.1526 -0.6174 -0.1038
  490MOL0     C66020   6.854   2.157   9.325 -0.3862  0.3081 -0.4086
  490MOL0     C66021   6.722   2.140   9.381 -0.1053 -0.3707  0.4571
  490MOL0     C66022   6.707   2.070   9.498  0.3825  0.4263  0.6896
  490MOL0     O66023   6.575   2.065   9.547  0.8053  1.4848  0.2331
  490MOL0     C66024   6.553   1.955   9.646 -0.4027  0.3643  0.6649
  490MOL0     C66025   6.409   1.933   9.660 -0.7114  0.0801  0.3968
  490MOL0     C66026   6.347   2.047   9.736 -0.7014 -0.7297  0.2949
  490MOL0     C66027   6.198   2.026   9.734 -0.6871 -0.1689 -0.1628
  490MOL0     C66028   6.142   1.904   9.821  0.0907 -0.3458  0.9474
  490MOL0     C66029   5.986   1.915   9.824  0.9001 -0.5039 -0.1921
  490MOL0     C66030   5.922   1.801   9.895  0.6811  0.1533  0.4006
  490MOL0     C66031   5.769   1.820   9.913  0.5353  0.5146 -0.2211
  490MOL0     N66032   5.722   1.919  10.015 -0.3115  0.5667  1.0377
  490MOL0     C66033   5.621   1.897  10.104  0.4699  0.2517 -0.1039
  490MOL0     C66034   5.597   2.024  10.149  0.5277  0.2959 -0.2143
  490MOL0     C66035   5.517   2.059  10.268 -0.5177 -0.4502  0.4508
  490MOL0     C66036   5.362   2.042  10.258 -0.5015 -1.1584  0.2183
  490MOL0     C66037   5.297   2.049  10.399 -0.3672 -0.2514 -0.5504
  490MOL0     C66038   5.165   1.973  10.408 -0.6402  0.5572 -0.0752
  490MOL0     O66039   5.104   1.999  10.542 -0.6870  0.9234  0.7433
  490MOL0     C66040   4.991   2.078  10.550  0.7624 -0.8608 -0.2919
  490MOL0     C66041   4.933   2.166  10.448 -0.8674  0.2653  0.2414
  490MOL0     C66042   4.808   2.226  10.468 -0.3911  0.3462  0.0069
  490MOL0     C66043   4.749   2.301  10.348 -0.2030 -0.9824  0.1304
  490MOL0     C66044   4.736   2.203  10.592  0.6892  0.6212 -0.5789
  490MOL0     C66045   4.601   2.258  10.634 -0.6537 -0.4533 -0.3531
  490MOL0     O66046   4.574   2.257  10.768 -0.5427 -0.0455  0.2179
  490MOL0     C66047   4.458   2.320  10.794 -0.6176  0.3286  0.2438
  490MOL0     C66048   4.469   2.458  10.821 -0.2546  0.5047 -0.4194
  490MOL0     C66049   4.350   2.543  10.844 -0.6862  0.4887 -0.4408
  490MOL0     C66050   4.223   2.485  10.842 -0.3762  0.6369  0.1991
  490MOL0     O66051   4.105   2.556  10.845  0.2545  0.9648 -0.2756
  490MOL0     C66052   4.123   2.704  10.838 -0.1582 -0.4342 -0.5252
  490MOL0     C66053   3.994   2.777  10.868  0.6870 -0.7223 -0.2326
  490MOL0     C66054   4.015   2.926  10.875  0.5483  0.1202 -0.3043
  490MOL0     C66055   3.884   2.989  10.911  1.8390  0.0826 -0.2815
  490MOL0     C66056   3.885   3.138  10.923  0.2469  0.0620  0.2355
  490MOL0     C66057   3.746   3.192  10.967 -0.1794 -0.6342  0.4981
  490MOL0     C66058   3.737   3.349  10.947  0.4967  0.5353  0.2855
  490MOL0     C66059   3.829   3.438  11.039  0.6470  0.4771  0.1630
  490MOL0    Cl66060   3.761   3.442  11.211  0.1142  0.3510 -0.2527
  490MOL0     C66061   4.221   2.341  10.814 -0.3006  0.2915  0.1584
  490MOL0     C66062   4.338   2.260  10.796  0.8139 -0.5660  0.5125
  490MOL0     O66063   4.529   2.286  10.543  0.9017  0.4146  0.4331
  490MOL0     C66064   4.797   2.122  10.691  0.9532 -0.0238  0.6409
  490MOL0     C66065   4.913   2.059  10.664 -0.0486  0.3479  0.3426
  490MOL0     N66066   5.676   2.113  10.082 -0.4601 -0.0396 -0.6302
  490MOL0     N66067   5.751   2.053  10.003 -0.1406 -0.6851  0.3885
  490MOL0     C66068   6.819   2.031   9.577 -0.1470 -0.1732  0.2064
  490MOL0     C66069   6.950   2.061   9.527 -0.4000 -0.8426  0.3214
  490MOL0     C66070   7.286   2.252   9.300 -0.5564 -0.1645  0.5359
  490MOL0     C66071   7.368   2.145   9.340 -0.1983  0.6480  0.3440
  490MOL0     C66072   7.490   2.125   9.278  0.2248  0.3741  0.2250
  490MOL0     C66073   7.540   2.227   9.198  0.0583 -0.3145 -0.2665
  490MOL0     O66074   7.660   2.226   9.135 -0.1750  0.6566 -0.0011
  490MOL0     C66075   7.755   2.116   9.146  0.9475 -0.0775  0.2100
  490MOL0     C66076   7.715   2.018   9.040  0.6045  0.1982  0.4968
  490MOL0     C66077   7.685   2.093   8.910 -1.1236 -0.9835  0.2442
  490MOL0     C66078   7.820   2.141   8.850 -0.2894 -0.7005 -0.7421
  490MOL0     C66079   7.907   2.039   8.796 -0.5247 -0.2532 -0.4437
  490MOL0     C66080   7.978   1.959   8.743 -0.0830  0.1808 -0.2073
  490MOL0     C66081   7.463   2.341   9.178  0.1325  0.4274 -0.2305
  490MOL0     C66082   7.336   2.352   9.220  0.0082 -0.0439  1.3025
  490MOL0     H66083   6.886   2.197   9.229  1.8106  0.6378  0.3966
  490MOL0     H66084   6.631   2.165   9.327 -0.0490 -1.5571 -0.2135
  490MOL0     H66085   6.607   1.866   9.613 -1.0853 -0.3174  1.3545
  490MOL0     H66086   6.580   1.987   9.748 -0.6576 -2.5607  1.7524
  490MOL0     H66087   6.365   1.916   9.562  1.2106 -0.1843 -0.4682
  490MOL0     H66088   6.410   1.853   9.735  1.9783 -0.1011  0.2830
  490MOL0     H66089   6.384   2.057   9.838  0.0442 -0.9429  0.0540
  490MOL0     H66090   6.375   2.137   9.680  0.8554  0.4568  2.8126
  490MOL0     H66091   6.157   2.117   9.779  4.1561  1.2264  2.1039
  490MOL0     H66092   6.156   2.031   9.633 -2.4991  1.2103  0.6108
  490MOL0     H66093   6.163   1.814   9.763  0.7522  0.5076 -0.1785
  490MOL0     H66094   6.185   1.903   9.921  0.0646 -0.3913  0.9577
  490MOL0     H66095   5.951   2.006   9.875  0.4545 -0.1506 -1.1160
  490MOL0     H66096   5.946   1.918   9.723 -0.9739  1.5510  0.5147
  490MOL0     H66097   5.931   1.709   9.837  2.4187  0.2269  0.4874
  490MOL0     H66098   5.966   1.788   9.994 -0.2215 -1.3248  0.6333
  490MOL0     H66099   5.725   1.721   9.924 -2.2473  1.6608 -0.0931
  490MOL0     H66100   5.729   1.849   9.815  1.5285  0.6976 -0.5889
  490MOL0     H66101   5.580   1.804  10.141 -0.7738 -0.2166 -2.4527
  490MOL0     H66102   5.543   1.988  10.347 -1.4534 -3.5782 -1.8218
  490MOL0     H66103   5.539   2.160  10.304  0.4208 -0.4829  0.0027
  490MOL0     H66104   5.342   1.937  10.232 -3.4888 -0.1241 -2.1390
  490MOL0     H66105   5.317   2.115  10.191  1.1741  1.0441  1.3379
  490MOL0     H66106   5.296   2.152  10.436  1.7428 -0.6939  0.8624
  490MOL0     H66107   5.364   2.008  10.475 -1.4195  1.8302  1.6653
  490MOL0     H66108   5.169   1.864  10.399  0.3289  0.6814 -1.3551
  490MOL0     H66109   5.091   1.990  10.329  0.4741 -1.1946 -1.5608
  490MOL0     H66110   4.978   2.193  10.353  0.3114 -2.6676 -0.1315
  490MOL0     H66111   4.804   2.283  10.255 -1.9369  4.1009 -2.2626
  490MOL0     H66112   4.644   2.277  10.327 -1.0286  1.4878  1.0481
  490MOL0     H66113   4.741   2.408  10.368 -0.2470 -0.4814 -2.2870
  490MOL0     H66114   4.568   2.503  10.812 -0.7380  1.3927 -1.5342
  490MOL0     H66115   4.372   2.648  10.861  0.7538  0.3377 -1.2513
  490MOL0     H66116   4.198   2.739  10.910  1.0978 -2.8530 -0.5739
  490MOL0     H66117   4.167   2.731  10.741 -1.3128  1.2965 -0.6247
  490MOL0     H66118   3.921   2.756  10.790 -0.6689  0.8273  0.5706
  490MOL0     H66119   3.957   2.745  10.966 -0.9247  2.4546  0.3229
  490MOL0     H66120   4.062   2.951  10.779  2.0552 -1.2655  0.0478
  490MOL0     H66121   4.086   2.961  10.950 -1.2947  1.9215  0.6964
  490MOL0     H66122   3.829   2.966  10.819  0.5507  0.3411  0.4008
  490MOL0     H66123   3.827   2.935  10.987 -2.7426  4.5473  0.0065
  490MOL0     H66124   3.914   3.180  10.826  1.4050 -3.3530 -1.0562
  490MOL0     H66125   3.965   3.164  10.993  1.3267 -0.4805 -0.7649
  490MOL0     H66126   3.680   3.138  10.899  1.2409 -0.9788 -0.6487
  490MOL0     H66127   3.731   3.161  11.071 -1.6485 -2.4388 -0.1931
  490MOL0     H66128   3.637   3.388  10.963 -0.3811  0.5180 -4.0102
  490MOL0     H66129   3.775   3.376  10.848  0.1881 -2.0915 -0.6329
  490MOL0     H66130   3.839   3.538  10.995 -1.6564  0.9903  0.6559
  490MOL0     H66131   3.926   3.391  11.026 -0.5104 -2.2710  0.7730
  490MOL0     H66132   4.122   2.296  10.814 -0.2999  0.2715 -0.6935
  490MOL0     H66133   4.331   2.154  10.773  3.5170 -0.7507  0.2317
  490MOL0     H66134   4.755   2.111  10.790 -0.4030 -0.6125  0.0263
  490MOL0     H66135   4.954   1.990  10.738 -2.0896 -0.5712  0.6739
  490MOL0     H66136   6.795   1.997   9.677  2.4357  0.6686  1.1801
  490MOL0     H66137   7.035   2.022   9.584  1.1889 -2.1762 -2.7244
  490MOL0     H66138   7.346   2.064   9.408 -0.9341 -0.5282 -1.2139
  490MOL0     H66139   7.531   2.027   9.302 -1.5649 -0.4194  0.2341
  490MOL0     H66140   7.855   2.161   9.141 -0.5129  3.3958 -0.4454
  490MOL0     H66141   7.745   2.056   9.237  0.6470 -1.2295 -0.5475
  490MOL0     H66142   7.633   1.950   9.065  1.9207 -1.3544  0.7399
  490MOL0     H66143   7.791   1.942   9.016 -1.8345 -1.9061 -1.0445
  490MOL0     H66144   7.601   2.162   8.919 -1.6708 -1.5315 -0.5319
  490MOL0     H66145   7.653   2.023   8.832  0.4957  0.0800 -1.4729
  490MOL0     H66146   7.879   2.205   8.916  2.5833 -3.3303 -0.5204
  490MOL0     H66147   7.791   2.196   8.760 -2.8901  3.4781  2.2818
  490MOL0     H66148   8.035   1.894   8.680  1.4374  0.8773  0.4232
  490MOL0     H66149   7.498   2.418   9.109 -1.6844  1.2901 -0.2619
  490MOL0     H66150   7.274   2.432   9.182  0.4964 -0.5027 -0.5814
  491MOL0     O66151   3.249   1.739   8.245  0.8461  0.3115 -0.1171
  491MOL0     C66152   3.325   1.711   8.340 -0.6604  0.3513 -0.0361
  491MOL0     O66153   3.299   1.710   8.468 -0.2585 -0.3716 -0.8415
  491MOL0     C66154   3.179   1.766   8.512 -0.5116  0.6287  0.0098
  491MOL0     C66155   3.177   1.873   8.602 -0.1383 -0.0179  0.2247
  491MOL0     C66156   3.056   1.934   8.653 -0.0233  0.2966  0.1327
  491MOL0     C66157   2.934   1.895   8.592  0.2718  0.1040  0.2167
  491MOL0     O66158   2.812   1.964   8.608 -0.7167 -0.4818  0.8227
  491MOL0     C66159   2.809   2.098   8.650 -0.3496 -0.3570 -0.1494
  491MOL0     C66160   2.663   2.147   8.655  0.2442  0.5139  0.5609
  491MOL0     C66161   2.591   2.151   8.522  0.5459  0.1656 -0.8179
  491MOL0     C66162   2.430   2.130   8.539 -0.5280 -0.0646 -0.1511
  491MOL0     C66163   2.366   2.092   8.407 -0.1079 -0.5264 -1.1642
  491MOL0     C66164   2.218   2.075   8.415 -0.9604 -0.0951  0.7333
  491MOL0     C66165   2.170   2.031   8.281 -1.2468  0.8372 -0.4056
  491MOL0     C66166   2.040   2.097   8.250 -0.3398 -0.4128 -0.6317
  491MOL0     N66167   1.982   2.048   8.128  0.3240  0.0500 -1.1702
  491MOL0     C66168   1.941   1.923   8.101  0.7739  0.1065 -0.2262
  491MOL0     C66169   1.874   1.930   7.980 -0.1788 -0.5465 -0.9643
  491MOL0     C66170   1.820   1.814   7.886 -0.7226 -0.0334  0.2600
  491MOL0     C66171   1.712   1.734   7.959 -0.4199 -0.3717  0.2591
  491MOL0     C66172   1.656   1.630   7.862  0.0130  0.6454 -0.0567
  491MOL0     C66173   1.603   1.503   7.925  1.1696  0.9070  0.4850
  491MOL0     O66174   1.523   1.538   8.044  0.5026 -0.3987  0.2152
  491MOL0     C66175   1.393   1.588   8.032  0.2294 -0.7705  0.2591
  491MOL0     C66176   1.333   1.605   8.158 -0.4862 -0.1992 -0.3327
  491MOL0     C66177   1.201   1.637   8.175 -0.9165  0.3596  1.2190
  491MOL0     C66178   1.154   1.647   8.318  0.4073  0.2060  0.1882
  491MOL0     C66179   1.112   1.648   8.061  0.3499 -0.0975  0.1250
  491MOL0     C66180   0.972   1.683   8.075  0.2692 -0.4098 -0.2072
  491MOL0     O66181   0.908   1.628   8.183 -0.8106  0.2577  0.5413
  491MOL0     C66182   0.776   1.652   8.208  0.1369 -0.0846  0.0824
  491MOL0     C66183   0.743   1.634   8.343 -0.3477 -0.3867  0.0741
  491MOL0     C66184   0.611   1.642   8.387  0.9649 -0.7137 -0.3089
  491MOL0     C66185   0.507   1.665   8.296 -0.3754  0.4708  1.0597
  491MOL0     O66186   0.379   1.656   8.346 -0.3399  0.2252 -0.7864
  491MOL0     C66187   0.271   1.684   8.253 -0.2543 -0.1901  0.1562
  491MOL0     C66188   0.150   1.670   8.349  0.0874 -0.3161 -0.1854
  491MOL0     C66189   0.111   1.526   8.372 -0.1517 -0.6696  0.2630
  491MOL0     C66190  -0.004   1.514   8.477  0.1609  0.1588  0.8057
  491MOL0     C66191  -0.043   1.374   8.500 -0.3689 -0.3269 -0.7738
  491MOL0     C66192  -0.102   1.309   8.376  0.6791 -0.5805  0.4977
  491MOL0     C66193  -0.139   1.169   8.401  0.0157  0.5937  0.5397
  491MOL0     C66194  -0.223   1.112   8.286  0.1204 -0.9025 -0.2891
  491MOL0    Cl66195  -0.286   0.952   8.323 -0.1590  0.3880  0.3662
  491MOL0     C66196   0.546   1.679   8.160  0.3932  0.6697  0.3906
  491MOL0     C66197   0.677   1.677   8.112  0.8204  0.2247 -0.3719
  491MOL0     O66198   0.927   1.769   8.007 -0.5540  0.2469 -0.4803
  491MOL0     C66199   1.173   1.624   7.933 -0.0966 -1.2983 -0.0032
  491MOL0     C66200   1.306   1.587   7.923  0.4935 -0.2358 -0.8224
  491MOL0     N66201   1.891   2.055   7.941  0.2926  0.1215  0.4102
  491MOL0     N66202   1.945   2.129   8.028 -0.3741  0.1516  0.9457
  491MOL0     C66203   2.940   1.793   8.501 -0.0321 -0.0599 -0.6177
  491MOL0     C66204   3.055   1.718   8.474  0.2170  0.2282  0.0571
  491MOL0     C66205   3.464   1.672   8.303 -0.0897 -0.1494  0.5046
  491MOL0     C66206   3.565   1.658   8.408  0.5685  0.2725  0.1864
  491MOL0     C66207   3.693   1.607   8.370  0.4758 -0.4842  0.6489
  491MOL0     C66208   3.727   1.570   8.235  0.1876  0.6630  0.0033
  491MOL0     O66209   3.846   1.501   8.198  0.0167 -0.4762 -0.5335
  491MOL0     C66210   3.965   1.559   8.254  0.5088  0.1368 -0.5230
  491MOL0     C66211   4.102   1.526   8.184  0.2481  0.0186 -1.1579
  491MOL0     C66212   4.154   1.390   8.242 -0.0623 -0.9265 -0.1243
  491MOL0     C66213   4.291   1.352   8.174  1.2611 -0.5785 -0.5799
  491MOL0     C66214   4.403   1.414   8.249 -0.6750  0.2507  0.4339
  491MOL0     C66215   4.497   1.447   8.327  0.7906 -0.9621  0.8196
  491MOL0     C66216   3.628   1.580   8.139 -0.1446  0.0366 -0.3406
  491MOL0     C66217   3.502   1.632   8.173  1.8282 -0.5331 -0.5285
  491MOL0     H66218   3.269   1.913   8.641 -0.0072 -0.6574  0.5934
  491MOL0     H66219   3.073   2.000   8.737  1.8877 -1.9912  1.6588
  491MOL0     H66220   2.860   2.106   8.746  1.3251  2.2158 -1.1315
  491MOL0     H66221   2.861   2.170   8.585 -1.9442  1.6551  0.6695
  491MOL0     H66222   2.608   2.087   8.728 -1.7910 -0.1018 -1.3557
  491MOL0     H66223   2.647   2.246   8.698  1.2192 -0.2555  2.8109
  491MOL0     H66224   2.614   2.234   8.455  1.4798  0.6703  0.1064
  491MOL0     H66225   2.619   2.065   8.460  2.1175  1.0131 -1.3246
  491MOL0     H66226   2.410   2.047   8.608  0.0447 -1.3274 -1.4588
  491MOL0     H66227   2.397   2.223   8.587 -0.1449  0.0376 -0.0836
  491MOL0     H66228   2.393   2.168   8.333 -3.7829  1.9282 -0.2599
  491MOL0     H66229   2.398   1.993   8.373 -2.1858 -0.9475 -2.0794
  491MOL0     H66230   2.183   2.007   8.493 -0.0373 -0.2528  1.0242
  491MOL0     H66231   2.178   2.173   8.442 -1.4658 -0.1234  0.1093
  491MOL0     H66232   2.239   2.059   8.201  0.4612  0.0993  0.7576
  491MOL0     H66233   2.158   1.922   8.285 -0.7917  0.7008 -2.2403
  491MOL0     H66234   2.048   2.205   8.237  1.1291 -0.3296  0.6078
  491MOL0     H66235   1.969   2.072   8.330  0.2959 -0.0598  0.0584
  491MOL0     H66236   1.946   1.834   8.163  0.3077  0.1129 -0.1733
  491MOL0     H66237   1.787   1.852   7.789 -0.5475 -0.6384 -0.0385
  491MOL0     H66238   1.898   1.740   7.868 -2.3824 -1.6006 -0.8220
  491MOL0     H66239   1.629   1.797   7.993  0.2126  0.6625 -0.0761
  491MOL0     H66240   1.746   1.684   8.050 -2.4096 -2.0239  0.1575
  491MOL0     H66241   1.737   1.601   7.795 -0.0123 -1.7093  0.8372
  491MOL0     H66242   1.579   1.684   7.807 -2.6585 -1.9542  0.8616
  491MOL0     H66243   1.691   1.444   7.948  0.1179 -2.0222 -2.2735
  491MOL0     H66244   1.548   1.445   7.850 -2.2465  1.0074  2.7039
  491MOL0     H66245   1.392   1.586   8.247 -0.9493 -1.2410 -0.2286
  491MOL0     H66246   1.083   1.727   8.338  1.5494  1.2132  0.3352
  491MOL0     H66247   1.117   1.547   8.345  1.5584 -0.2887  0.0019
  491MOL0     H66248   1.238   1.665   8.387 -1.5434 -1.6544  3.2744
  491MOL0     H66249   0.828   1.606   8.404  1.6905  0.8988 -2.0162
  491MOL0     H66250   0.577   1.601   8.482 -1.4980 -0.3467 -0.9584
  491MOL0     H66251   0.274   1.781   8.203  3.7348  1.0180  2.3317
  491MOL0     H66252   0.263   1.610   8.173  0.6911 -0.0902 -0.0376
  491MOL0     H66253   0.176   1.727   8.439 -0.0390 -0.4474 -0.0652
  491MOL0     H66254   0.066   1.727   8.307 -0.0948  1.3428  2.2550
  491MOL0     H66255   0.193   1.457   8.395  0.7531  0.5911  0.9297
  491MOL0     H66256   0.066   1.502   8.275 -0.2123  0.4497  0.0047
  491MOL0     H66257   0.039   1.557   8.568  1.3724 -1.3812  1.0100
  491MOL0     H66258  -0.091   1.576   8.454  1.7877  1.5897 -1.9665
  491MOL0     H66259  -0.123   1.369   8.575 -1.8508 -0.7123 -2.3064
  491MOL0     H66260   0.040   1.309   8.529 -3.4771 -3.2940  2.6865
  491MOL0     H66261  -0.185   1.363   8.329 -1.2088 -2.9651  0.9194
  491MOL0     H66262  -0.023   1.305   8.300  1.9430  3.2375  1.3907
  491MOL0     H66263  -0.196   1.159   8.494 -2.1243 -0.3339 -0.8014
  491MOL0     H66264  -0.042   1.120   8.410  0.2365  0.4292 -1.9251
  491MOL0     H66265  -0.165   1.110   8.194  0.1763 -2.3045 -0.2403
  491MOL0     H66266  -0.310   1.177   8.276  1.5034  1.2045  0.5375
  491MOL0     H66267   0.468   1.704   8.089 -1.7547  0.8563  2.6482
  491MOL0     H66268   0.711   1.671   8.009 -1.4979 -1.9008 -1.1128
  491MOL0     H66269   1.110   1.632   7.845  1.1059  1.4434 -0.7309
  491MOL0     H66270   1.339   1.578   7.820 -0.1135 -1.5044 -0.9251
  491MOL0     H66271   2.842   1.768   8.464 -1.2543  2.7466  0.4505
  491MOL0     H66272   3.048   1.641   8.398  2.2683 -0.8893  0.9112
  491MOL0     H66273   3.529   1.707   8.498  2.2442 -2.4963  2.5435
  491MOL0     H66274   3.766   1.592   8.448  0.3404  0.2878  0.9269
  491MOL0     H66275   3.951   1.667   8.254  2.1431  0.4001 -2.1264
  491MOL0     H66276   3.978   1.531   8.359  1.8282 -0.6940 -0.8826
  491MOL0     H66277   4.172   1.606   8.207 -1.9416  1.4219  1.2792
  491MOL0     H66278   4.068   1.517   8.081 -4.6874 -0.4235  0.2229
  491MOL0     H66279   4.072   1.318   8.232 -2.6584  1.5470  1.7682
  491MOL0     H66280   4.159   1.406   8.350 -2.5682  0.5628 -0.1421
  491MOL0     H66281   4.296   1.386   8.070  0.8862 -2.3352 -1.2015
  491MOL0     H66282   4.298   1.243   8.173 -0.1533 -0.6873 -0.6965
  491MOL0     H66283   4.581   1.479   8.385  0.0742  4.1805 -0.4859
  491MOL0     H66284   3.654   1.548   8.038  1.6363 -0.6294  0.2962
  491MOL0     H66285   3.428   1.631   8.095 -0.0035  0.6733  1.1044
  492MOL0     O66286   8.581   3.990   1.755 -0.0629  0.0618  0.0577
  492MOL0     C66287   8.667   3.950   1.839  0.3545 -0.4132  0.3689
  492MOL0     O66288   8.648   3.848   1.927  0.5548  0.6783  1.0239
  492MOL0     C66289   8.523   3.790   1.918 -0.2488 -0.0851 -0.2140
  492MOL0     C66290   8.414   3.828   1.995 -0.0716  0.4313  0.4365
  492MOL0     C66291   8.292   3.763   1.979 -0.3683  0.3297 -0.2946
  492MOL0     C66292   8.287   3.638   1.918 -0.3050  0.1756  0.3175
  492MOL0     O66293   8.171   3.571   1.935  0.0291  0.5243  0.1618
  492MOL0     C66294   8.146   3.430   1.904 -0.4702  0.3072 -0.8692
  492MOL0     C66295   8.135   3.358   2.042 -0.4068  0.5948  0.1568
  492MOL0     C66296   8.206   3.222   2.044  0.2895  0.4873 -0.4696
  492MOL0     C66297   8.195   3.146   2.174 -0.4197  0.1867 -0.5902
  492MOL0     C66298   8.045   3.132   2.220  0.5310  0.7093  0.1100
  492MOL0     C66299   8.041   2.997   2.305  0.2606  0.4538  0.9091
  492MOL0     C66300   7.899   2.950   2.338 -0.5727 -0.2736  0.9136
  492MOL0     C66301   7.892   2.844   2.440  0.4541 -0.0668 -0.0623
  492MOL0     N66302   7.755   2.810   2.471  0.5680 -0.1002 -0.6981
  492MOL0     C66303   7.651   2.770   2.394  0.2290 -0.0740  0.1894
  492MOL0     C66304   7.545   2.775   2.471  0.0512  0.6902 -0.0686
  492MOL0     C66305   7.408   2.739   2.424 -1.2318 -0.0407  0.6193
  492MOL0     C66306   7.314   2.678   2.529 -0.2972  0.6945  0.2882
  492MOL0     C66307   7.255   2.791   2.608 -0.0772  1.2210  0.4750
  492MOL0     C66308   7.152   2.743   2.713  0.2944  1.2790 -0.5191
  492MOL0     O66309   7.038   2.673   2.646  0.5644 -0.3372  0.2681
  492MOL0     C66310   6.933   2.631   2.717 -0.1633  0.4112  0.4228
  492MOL0     C66311   6.866   2.706   2.813  0.7050 -0.1941  0.0404
  492MOL0     C66312   6.747   2.666   2.873  0.8313  0.7061  0.0441
  492MOL0     C66313   6.676   2.772   2.964  0.2091  0.3852  0.8283
  492MOL0     C66314   6.702   2.535   2.844 -0.0628  0.2050  0.6359
  492MOL0     C66315   6.573   2.484   2.886 -1.3012  0.4066  0.5992
  492MOL0     O66316   6.530   2.367   2.830  0.0949  0.1578  0.1675
  492MOL0     C66317   6.409   2.307   2.869  0.4398 -0.2187  0.1050
  492MOL0     C66318   6.372   2.279   3.005 -0.1950 -0.9798 -0.5032
  492MOL0     C66319   6.251   2.208   3.021  0.9364  0.8570 -1.0264
  492MOL0     C66320   6.174   2.157   2.918  0.6194  0.0457  0.3755
  492MOL0     O66321   6.063   2.074   2.919 -0.0649  0.1156 -0.2671
  492MOL0     C66322   6.004   2.027   3.040 -0.2407 -0.1866  0.8425
  492MOL0     C66323   5.861   1.969   3.017 -0.6751 -0.0669  0.9688
  492MOL0     C66324   5.768   2.086   2.970 -0.3290  0.2620 -0.3499
  492MOL0     C66325   5.630   2.032   2.937 -0.3433 -0.2980 -0.7297
  492MOL0     C66326   5.529   2.140   2.899 -0.9948 -0.1956  0.1235
  492MOL0     C66327   5.388   2.078   2.880  0.6560 -1.9476 -0.3818
  492MOL0     C66328   5.291   2.180   2.811  0.0195 -0.1669 -0.3264
  492MOL0     C66329   5.152   2.113   2.805 -0.3384 -0.2606 -0.1957
  492MOL0    Cl66330   5.039   2.201   2.695 -0.4411  0.0731  0.2717
  492MOL0     C66331   6.218   2.189   2.784 -0.6181 -0.4292 -0.2186
  492MOL0     C66332   6.337   2.260   2.766 -0.5605 -0.3155  0.4718
  492MOL0     O66333   6.510   2.549   2.963  0.4985 -0.2670 -0.2419
  492MOL0     C66334   6.776   2.448   2.757  0.5693 -0.5938  0.5713
  492MOL0     C66335   6.882   2.502   2.687 -0.4261  0.3672  0.0042
  492MOL0     N66336   7.584   2.785   2.600  0.4603  0.3359  0.3310
  492MOL0     N66337   7.716   2.802   2.603 -0.7403  0.0109 -0.7156
  492MOL0     C66338   8.393   3.600   1.838 -0.2592 -0.4235  0.7604
  492MOL0     C66339   8.505   3.677   1.832 -0.8474 -0.5371  0.0186
  492MOL0     C66340   8.801   4.005   1.840 -0.1414  0.2246  0.3050
  492MOL0     C66341   8.883   4.009   1.952 -0.3432  0.9972  0.4269
  492MOL0     C66342   9.012   4.062   1.957  0.8268 -0.2020 -0.5832
  492MOL0     C66343   9.073   4.110   1.836  0.0514 -0.5300  0.8888
  492MOL0     O66344   9.195   4.165   1.844 -0.4643  0.0808 -0.0124
  492MOL0     C66345   9.309   4.073   1.839  0.7723 -0.0577  0.9476
  492MOL0     C66346   9.433   4.158   1.876 -0.3744 -0.4426 -0.6580
  492MOL0     C66347   9.455   4.150   2.026  0.5082  0.3001 -0.2040
  492MOL0     C66348   9.545   4.257   2.083  0.2352 -0.5933  0.0263
  492MOL0     C66349   9.479   4.385   2.106  0.8900 -0.2532 -1.6082
  492MOL0     C66350   9.428   4.490   2.135 -0.7584 -0.2956 -0.3547
  492MOL0     C66351   8.994   4.096   1.713 -0.7561  0.2199 -0.4917
  492MOL0     C66352   8.864   4.048   1.723  0.6574 -0.7866  0.7174
  492MOL0     H66353   8.406   3.906   2.070  0.8944  1.9098 -0.9250
  492MOL0     H66354   8.206   3.788   2.040 -2.2924  1.6235 -3.3374
  492MOL0     H66355   8.044   3.424   1.865 -1.5769  2.1149  1.4895
  492MOL0     H66356   8.228   3.385   1.848  0.1714  1.3558 -0.7897
  492MOL0     H66357   8.181   3.425   2.115  1.3228 -0.8621  0.4701
  492MOL0     H66358   8.029   3.346   2.068  0.0079 -0.9297  1.2679
  492MOL0     H66359   8.174   3.151   1.967  2.4732  0.0173 -1.0303
  492MOL0     H66360   8.310   3.248   2.022  0.0599  0.5398 -1.5075
  492MOL0     H66361   8.241   3.047   2.170 -0.2147  0.1086  1.8680
  492MOL0     H66362   8.251   3.194   2.255  0.5142 -0.1501 -1.0199
  492MOL0     H66363   8.005   3.217   2.277 -1.6004 -0.1475 -0.0064
  492MOL0     H66364   7.978   3.115   2.135 -1.0657 -1.3999  1.6694
  492MOL0     H66365   8.082   2.909   2.256 -1.4164 -0.0715  0.3706
  492MOL0     H66366   8.099   2.998   2.398  1.1940  0.2580  0.3345
  492MOL0     H66367   7.843   3.040   2.361  1.6048  1.0091  1.5173
  492MOL0     H66368   7.854   2.894   2.256 -3.2677 -1.1722  2.8569
  492MOL0     H66369   7.932   2.881   2.534 -1.4403 -0.9003  1.1231
  492MOL0     H66370   7.946   2.753   2.411 -0.6335 -0.1312 -2.0753
  492MOL0     H66371   7.646   2.745   2.288  1.8160  6.1903 -1.7875
  492MOL0     H66372   7.362   2.825   2.374  1.8953  0.8002 -1.0248
  492MOL0     H66373   7.430   2.660   2.352 -0.9645 -2.9282  3.6613
  492MOL0     H66374   7.362   2.598   2.585 -0.8634 -0.8870 -1.3914
  492MOL0     H66375   7.240   2.640   2.458  0.3527 -0.7036  0.3244
  492MOL0     H66376   7.195   2.848   2.537 -0.3144 -2.9098 -2.9919
  492MOL0     H66377   7.328   2.854   2.661  0.5946  0.6174  0.2836
  492MOL0     H66378   7.119   2.830   2.770  2.7934  1.7565  0.3508
  492MOL0     H66379   7.194   2.674   2.786 -0.6188  1.7210  0.4430
  492MOL0     H66380   6.900   2.808   2.823  0.0959 -0.1253  1.6568
  492MOL0     H66381   6.601   2.816   2.898  0.4763 -1.6974 -0.9832
  492MOL0     H66382   6.627   2.734   3.054  0.7236 -0.9872  0.5480
  492MOL0     H66383   6.754   2.844   2.990  1.5431 -1.4291  2.1637
  492MOL0     H66384   6.432   2.318   3.087  1.6047  0.8017 -2.5254
  492MOL0     H66385   6.216   2.192   3.122  0.1166  3.1562 -0.9021
  492MOL0     H66386   6.067   1.943   3.071 -0.3808 -0.5745  0.0845
  492MOL0     H66387   6.007   2.102   3.120  1.0210  0.0019  0.6477
  492MOL0     H66388   5.867   1.900   2.932  0.1065  1.0049  0.1147
  492MOL0     H66389   5.818   1.921   3.105 -3.7073  1.4261  0.4129
  492MOL0     H66390   5.812   2.132   2.881 -1.4480  1.5177 -0.2851
  492MOL0     H66391   5.754   2.166   3.043  0.2888  2.8014 -2.8301
  492MOL0     H66392   5.636   1.971   2.847 -1.4609 -0.6581 -0.5811
  492MOL0     H66393   5.589   1.971   3.018  0.6980 -0.6583 -0.4584
  492MOL0     H66394   5.567   2.199   2.815 -1.1377  0.4098  0.4793
  492MOL0     H66395   5.531   2.216   2.977  0.8991 -1.7765  1.7031
  492MOL0     H66396   5.407   1.995   2.811  1.0090  1.1333 -4.3101
  492MOL0     H66397   5.349   2.048   2.978 -0.8052 -1.5781 -0.8272
  492MOL0     H66398   5.325   2.204   2.710  0.6604 -0.0764 -0.0974
  492MOL0     H66399   5.281   2.278   2.860  2.0137  0.1476 -0.4365
  492MOL0     H66400   5.113   2.110   2.907  1.3519  0.7937  0.5228
  492MOL0     H66401   5.167   2.011   2.768 -0.1826 -0.1115 -0.5479
  492MOL0     H66402   6.178   2.150   2.691  0.1281 -3.7641  0.7364
  492MOL0     H66403   6.374   2.284   2.667 -2.3215  0.8967  0.0557
  492MOL0     H66404   6.743   2.349   2.730 -0.6835  0.1998 -0.9602
  492MOL0     H66405   6.917   2.426   2.617  0.7278 -0.1255  1.0756
  492MOL0     H66406   8.393   3.513   1.775  3.0288 -0.3671  0.5048
  492MOL0     H66407   8.583   3.645   1.763  1.7529  1.0300  2.0156
  492MOL0     H66408   8.824   3.981   2.038 -0.5453  0.1188  0.0162
  492MOL0     H66409   9.065   4.072   2.052 -0.5783 -2.2738  0.4913
  492MOL0     H66410   9.308   3.980   1.898  1.5311 -0.1052  0.8933
  492MOL0     H66411   9.318   4.049   1.733 -2.4320  3.6193 -0.4224
  492MOL0     H66412   9.404   4.260   1.849 -1.3653 -0.5132  0.0845
  492MOL0     H66413   9.524   4.132   1.821  0.8299 -1.3123  1.5848
  492MOL0     H66414   9.495   4.048   2.036 -1.2566 -0.5141 -0.8645
  492MOL0     H66415   9.359   4.151   2.079  1.8575  1.4460  2.3930
  492MOL0     H66416   9.627   4.280   2.014 -2.7554  1.9456 -3.0082
  492MOL0     H66417   9.587   4.232   2.180 -3.0479  2.6907  2.5616
  492MOL0     H66418   9.386   4.587   2.150  2.4468  1.0929  0.4811
  492MOL0     H66419   9.038   4.135   1.622 -1.8293  2.1501 -0.2529
  492MOL0     H66420   8.804   4.042   1.632 -0.5387  0.1306  1.4240
  493MOL0     O66421   5.841  10.964  10.612  0.0575 -0.1362  0.1516
  493MOL0     C66422   5.812  11.057  10.683  0.0973  0.0108  0.3834
  493MOL0     O66423   5.728  11.157  10.642 -0.3791  0.0452 -0.1353
  493MOL0     C66424   5.650  11.151  10.528 -0.3931  0.0904  0.4705
  493MOL0     C66425   5.596  11.035  10.473 -0.5596  0.0174 -0.6828
  493MOL0     C66426   5.519  11.035  10.354 -0.4019 -0.3754 -0.7876
  493MOL0     C66427   5.496  11.149  10.284  0.0545 -1.0213  0.4145
  493MOL0     O66428   5.414  11.163  10.172 -0.1171  0.0288 -0.3353
  493MOL0     C66429   5.428  11.051  10.083 -0.2479 -0.0054  0.0257
  493MOL0     C66430   5.401  11.103   9.941  0.1311  0.1799  0.0579
  493MOL0     C66431   5.260  11.160   9.925 -1.6023  0.0502  0.2738
  493MOL0     C66432   5.160  11.071   9.844  0.0458  0.2524  0.2490
  493MOL0     C66433   5.024  11.136   9.848  0.9038  0.2103  0.0040
  493MOL0     C66434   4.917  11.078   9.749  0.8040  0.4898 -0.4047
  493MOL0     C66435   4.772  11.126   9.769 -1.5874  0.0134 -0.2326
  493MOL0     C66436   4.701  11.100   9.635  0.1909  0.8595 -0.4780
  493MOL0     N66437   4.714  11.204   9.534  0.4936 -0.4049  0.5343
  493MOL0     C66438   4.642  11.318   9.523 -0.7237 -0.3560  0.3070
  493MOL0     C66439   4.692  11.377   9.413 -0.6177  0.2904 -0.3576
  493MOL0     C66440   4.662  11.525   9.391 -0.1781 -0.3464  0.1147
  493MOL0     C66441   4.539  11.547   9.293  0.0308  0.2989 -0.1857
  493MOL0     C66442   4.573  11.519   9.142  0.1047  0.0506  0.1884
  493MOL0     C66443   4.510  11.389   9.101  0.5720  0.7901  0.3501
  493MOL0     O66444   4.371  11.410   9.090  0.5803  0.3482  0.4157
  493MOL0     C66445   4.295  11.303   9.055  0.4909  0.1430  0.4005
  493MOL0     C66446   4.320  11.164   9.076 -0.4611  0.0702 -0.0827
  493MOL0     C66447   4.252  11.054   9.027  0.5700 -0.4468 -0.0881
  493MOL0     C66448   4.321  10.918   9.034 -0.0620  0.1133 -0.3955
  493MOL0     C66449   4.131  11.089   8.955 -0.4359 -0.4274  0.0868
  493MOL0     C66450   4.036  10.980   8.904  0.1605  0.0584 -0.4130
  493MOL0     O66451   4.096  10.889   8.831 -0.3097  0.7702  0.0995
  493MOL0     C66452   4.023  10.798   8.760 -0.9426 -0.2047  1.0563
  493MOL0     C66453   3.992  10.670   8.796 -0.0256  0.2060  0.3465
  493MOL0     C66454   3.917  10.581   8.713 -0.3494 -0.6169  0.2387
  493MOL0     C66455   3.880  10.628   8.585  0.6272  0.1108  0.0250
  493MOL0     O66456   3.813  10.560   8.491  0.5256 -0.2113  0.3483
  493MOL0     C66457   3.782  10.418   8.517  0.3528 -1.0029  0.5751
  493MOL0     C66458   3.687  10.371   8.399 -0.1155  0.4997  0.3645
  493MOL0     C66459   3.620  10.246   8.454 -0.3918  1.0294 -0.5518
  493MOL0     C66460   3.524  10.188   8.350  0.5684  0.0979 -0.7090
  493MOL0     C66461   3.568  10.154   8.214  0.0787  0.6093  0.6860
  493MOL0     C66462   3.685  10.062   8.201 -0.5974 -0.0831  0.2574
  493MOL0     C66463   3.751  10.086   8.057  1.0699 -0.0773  0.9343
  493MOL0     C66464   3.683   9.995   7.947 -0.0248  0.2640  0.7717
  493MOL0    Cl66465   3.579  10.094   7.845 -0.3449 -0.1767  0.7981
  493MOL0     C66466   3.903  10.762   8.548 -0.3747 -0.1770  0.4513
  493MOL0     C66467   3.972  10.848   8.640  0.3112  0.6181 -0.3298
  493MOL0     O66468   3.914  10.997   8.927 -0.3974 -0.7810  0.5259
  493MOL0     C66469   4.099  11.225   8.941  1.2241 -0.7795  0.9779
  493MOL0     C66470   4.176  11.328   8.984 -0.2983 -0.1408  0.8906
  493MOL0     N66471   4.781  11.293   9.349  0.1795 -0.2115 -0.7642
  493MOL0     N66472   4.787  11.185   9.418  0.4825  0.3663 -0.4623
  493MOL0     C66473   5.551  11.270  10.338 -0.5890 -0.0848  0.8336
  493MOL0     C66474   5.632  11.271  10.452  0.1477 -0.3756 -0.2482
  493MOL0     C66475   5.854  11.053  10.826 -0.2689  0.9312  0.5215
  493MOL0     C66476   5.772  11.086  10.931 -0.3339 -0.4298 -0.8025
  493MOL0     C66477   5.818  11.080  11.064 -0.0718 -0.5784  0.1335
  493MOL0     C66478   5.940  11.017  11.095  0.4273  0.5458  0.8577
  493MOL0     O66479   5.971  10.995  11.225  0.4152  1.1333  0.2977
  493MOL0     C66480   6.080  11.066  11.278 -0.5853 -0.8248  0.8603
  493MOL0     C66481   6.063  11.057  11.430  0.1792  0.9322 -0.6336
  493MOL0     C66482   6.158  11.148  11.500  0.4079  0.0968 -0.8594
  493MOL0     C66483   6.119  11.192  11.648  0.2798 -0.0374 -0.7661
  493MOL0     C66484   6.217  11.283  11.710  0.3567  0.9239  0.5843
  493MOL0     C66485   6.303  11.353  11.763 -0.2787  0.9573  0.3960
  493MOL0     C66486   6.013  10.962  10.986  0.8320  0.1221 -0.2064
  493MOL0     C66487   5.976  10.986  10.854  0.3514  0.0130 -0.2879
  493MOL0     H66488   5.614  10.936  10.514 -1.3837  0.6530  1.3104
  493MOL0     H66489   5.476  10.939  10.326 -0.1490 -1.1199  1.1777
  493MOL0     H66490   5.533  11.020  10.091 -0.0497  0.7444  0.5107
  493MOL0     H66491   5.358  10.974  10.115 -1.3362  1.3035  0.9449
  493MOL0     H66492   5.473  11.177   9.905  0.3195 -0.4487 -0.8919
  493MOL0     H66493   5.413  11.016   9.877 -0.0879 -1.8416  2.6069
  493MOL0     H66494   5.217  11.169  10.025 -1.1426  1.3576  0.3617
  493MOL0     H66495   5.257  11.259   9.880 -2.9642  0.0141  0.2411
  493MOL0     H66496   5.190  11.061   9.739 -0.6519 -4.2161  0.2874
  493MOL0     H66497   5.145  10.973   9.890 -1.2845  0.6370  0.6721
  493MOL0     H66498   4.986  11.143   9.950 -0.2340  2.2768 -0.5146
  493MOL0     H66499   5.040  11.242   9.822  0.7771 -0.0528 -1.2414
  493MOL0     H66500   4.956  11.091   9.648  0.1866  0.9190 -0.5938
  493MOL0     H66501   4.921  10.970   9.764 -0.8625 -0.1655 -3.8295
  493MOL0     H66502   4.727  11.068   9.851  0.7433 -0.4512  0.8024
  493MOL0     H66503   4.770  11.230   9.802 -2.0745  0.3505 -1.2846
  493MOL0     H66504   4.593  11.092   9.653  0.3722 -0.5022  0.1259
  493MOL0     H66505   4.737  11.007   9.590 -0.8478  0.0475  0.3098
  493MOL0     H66506   4.564  11.354   9.588 -1.2774 -3.3063  1.4461
  493MOL0     H66507   4.644  11.588   9.479 -0.2355 -0.1728 -0.0222
  493MOL0     H66508   4.749  11.560   9.334 -1.4310  2.3572 -0.2972
  493MOL0     H66509   4.500  11.650   9.296  0.8747  0.7075 -1.9509
  493MOL0     H66510   4.454  11.500   9.343  2.0456 -1.0396  2.1784
  493MOL0     H66511   4.680  11.513   9.119 -0.6829 -5.0341 -4.3750
  493MOL0     H66512   4.528  11.595   9.078  1.8847  0.7571 -0.2856
  493MOL0     H66513   4.537  11.308   9.170  0.5940 -0.6483 -1.2943
  493MOL0     H66514   4.547  11.365   9.001 -2.7837  0.1385 -0.8307
  493MOL0     H66515   4.408  11.150   9.138 -1.4695 -1.7632  1.0146
  493MOL0     H66516   4.328  10.892   8.928 -1.1397  3.8358 -1.5668
  493MOL0     H66517   4.422  10.927   9.075 -1.5465  1.4770  3.4052
  493MOL0     H66518   4.261  10.856   9.101  1.1155  2.5210  3.1655
  493MOL0     H66519   4.023  10.632   8.893  0.4294 -0.5605 -0.0904
  493MOL0     H66520   3.888  10.479   8.734  1.0516 -1.0861 -0.0260
  493MOL0     H66521   3.873  10.357   8.521  2.5199  2.0763  2.2121
  493MOL0     H66522   3.728  10.426   8.612 -0.8013  0.8095 -0.1899
  493MOL0     H66523   3.609  10.444   8.375 -2.8333 -2.2712  0.0885
  493MOL0     H66524   3.751  10.347   8.313  0.2774  2.3267  0.1182
  493MOL0     H66525   3.563  10.280   8.541 -0.8728  0.5725 -0.6843
  493MOL0     H66526   3.705  10.181   8.479 -0.1331  0.8179 -1.9047
  493MOL0     H66527   3.476  10.103   8.401  2.1545 -0.1623  0.4047
  493MOL0     H66528   3.449  10.265   8.328  1.4335  1.3554  0.5784
  493MOL0     H66529   3.586  10.247   8.159 -0.4413  0.3122 -0.0006
  493MOL0     H66530   3.491  10.104   8.153 -0.3042  1.7223  0.2279
  493MOL0     H66531   3.752  10.093   8.282 -0.7915 -3.2978  1.8215
  493MOL0     H66532   3.662   9.958   8.225  2.8690 -0.2757  3.8791
  493MOL0     H66533   3.850  10.040   8.067  1.1615 -0.2759 -0.6725
  493MOL0     H66534   3.765  10.188   8.021 -1.1099 -0.5485 -1.5937
  493MOL0     H66535   3.643   9.901   7.984 -0.6027  0.9249  1.8757
  493MOL0     H66536   3.764   9.971   7.878 -0.7711 -3.5877  1.0398
  493MOL0     H66537   3.870  10.801   8.453  1.0474  0.1696  0.0793
  493MOL0     H66538   3.988  10.952   8.615  1.0666  0.1985 -1.7109
  493MOL0     H66539   4.007  11.246   8.887  0.5248 -1.0139  2.0495
  493MOL0     H66540   4.168  11.435   8.971 -2.8491 -0.4816 -1.2689
  493MOL0     H66541   5.535  11.361  10.282 -0.0058 -0.5264 -0.0803
  493MOL0     H66542   5.647  11.374  10.481 -4.4919  0.0455  1.5876
  493MOL0     H66543   5.671  11.123  10.919 -0.7369 -1.9836 -2.6456
  493MOL0     H66544   5.758  11.117  11.147  1.4266 -1.0210  1.4729
  493MOL0     H66545   6.171  11.009  11.255 -0.9322 -0.2942 -2.1688
  493MOL0     H66546   6.084  11.165  11.232 -1.3710 -0.5902  1.2781
  493MOL0     H66547   6.077  10.951  11.451  0.3549  0.5384 -2.4985
  493MOL0     H66548   5.961  11.082  11.459  0.2912  0.6439  0.0077
  493MOL0     H66549   6.175  11.231  11.430  5.0507  0.9828  0.9549
  493MOL0     H66550   6.252  11.093  11.499  0.6745  0.5462 -1.1083
  493MOL0     H66551   6.109  11.100  11.706  0.8102  2.2097  3.1989
  493MOL0     H66552   6.021  11.238  11.633  0.9077  1.4513 -0.4699
  493MOL0     H66553   6.374  11.416  11.813 -0.1764  1.2622 -0.1317
  493MOL0     H66554   6.106  10.907  10.996  2.5309  2.5602 -1.6695
  493MOL0     H66555   6.037  10.949  10.772 -0.2158  2.3454 -1.8431
  494MOL0     O66556   1.779   0.377   5.193  0.1774  0.0823 -0.8356
  494MOL0     C66557   1.764   0.494   5.220 -0.8743 -0.5375  0.0090
  494MOL0     O66558   1.646   0.572   5.200 -0.1049 -0.5231 -0.0375
  494MOL0     C66559   1.537   0.525   5.135 -1.1390 -0.0075  0.0103
  494MOL0     C66560   1.481   0.620   5.044 -0.5481 -0.4793  0.5093
  494MOL0     C66561   1.367   0.582   4.979 -0.1928  0.5080  0.2045
  494MOL0     C66562   1.323   0.443   4.985 -0.3398 -0.1724 -0.2775
  494MOL0     O66563   1.210   0.416   4.908 -0.1862  0.6854  0.5470
  494MOL0     C66564   1.134   0.302   4.943  0.6367  0.3443  0.1305
  494MOL0     C66565   1.157   0.178   4.854 -0.0431  0.8475  0.2031
  494MOL0     C66566   1.082   0.180   4.712  0.2461  0.0603  0.4605
  494MOL0     C66567   0.951   0.116   4.737 -0.2272  1.0718  0.0976
  494MOL0     C66568   0.872   0.101   4.606 -0.3980 -0.2213  0.6269
  494MOL0     C66569   0.839   0.235   4.553 -1.0525 -0.9118  0.4734
  494MOL0     C66570   0.760   0.245   4.417  0.2726  1.3576  0.8771
  494MOL0     C66571   0.769   0.383   4.358  0.6121 -0.3637  0.0376
  494MOL0     N66572   0.701   0.394   4.228  0.8057  0.5128  0.4010
  494MOL0     C66573   0.752   0.428   4.109  0.2392 -0.2130 -0.2934
  494MOL0     C66574   0.654   0.421   4.016 -0.8542 -0.8682  0.7269
  494MOL0     C66575   0.672   0.460   3.867 -0.5946  0.5458 -0.9096
  494MOL0     C66576   0.577   0.566   3.827  0.0934  0.3381  0.3259
  494MOL0     C66577   0.566   0.607   3.681  1.4142  0.5725  0.1590
  494MOL0     C66578   0.423   0.651   3.642  0.1883 -0.1178 -0.3666
  494MOL0     O66579   0.386   0.770   3.719 -0.1719 -0.9185  0.1771
  494MOL0     C66580   0.258   0.825   3.699 -0.2790  0.1898  0.4139
  494MOL0     C66581   0.252   0.959   3.753  0.0382 -0.5652 -0.4158
  494MOL0     C66582   0.144   1.038   3.714 -0.9950 -0.3973  0.0309
  494MOL0     C66583   0.147   1.185   3.745 -0.2989 -1.1349  0.1841
  494MOL0     C66584   0.037   0.985   3.647  0.5182  0.7685  1.3906
  494MOL0     C66585  -0.082   1.065   3.612 -0.8681  0.2693 -0.1376
  494MOL0     O66586  -0.062   1.196   3.574 -0.6516  1.0419 -0.2001
  494MOL0     C66587  -0.178   1.261   3.540  0.4017 -0.3785  0.0892
  494MOL0     C66588  -0.275   1.279   3.642 -0.1884 -0.6057 -0.0753
  494MOL0     C66589  -0.395   1.352   3.610 -0.1644 -0.0425  0.6254
  494MOL0     C66590  -0.414   1.415   3.482 -0.0726 -0.3453  0.1919
  494MOL0     O66591  -0.531   1.484   3.468 -0.8519  0.2930  0.4509
  494MOL0     C66592  -0.571   1.550   3.345 -0.1230 -0.4701  0.7266
  494MOL0     C66593  -0.721   1.557   3.340  0.3629 -0.6705 -0.1717
  494MOL0     C66594  -0.785   1.608   3.467  0.4786 -0.1661  0.0725
  494MOL0     C66595  -0.940   1.618   3.449 -0.2049  0.2841  0.6055
  494MOL0     C66596  -0.996   1.696   3.331  0.2558 -0.4024  0.3217
  494MOL0     C66597  -1.151   1.722   3.350 -0.8780  0.1142 -0.6578
  494MOL0     C66598  -1.190   1.834   3.237  0.4040  0.3275 -1.0308
  494MOL0     C66599  -1.346   1.858   3.220 -0.0604  0.3257  0.3191
  494MOL0    Cl66600  -1.411   1.697   3.170  1.1838 -0.0870 -0.3623
  494MOL0     C66601  -0.308   1.407   3.387 -1.1793 -0.3255 -0.3102
  494MOL0     C66602  -0.189   1.334   3.421 -0.0997 -0.3824  0.4445
  494MOL0     O66603  -0.189   1.002   3.622 -0.2125 -0.9802 -0.4538
  494MOL0     C66604   0.036   0.843   3.618  0.4706 -0.5293  0.5727
  494MOL0     C66605   0.146   0.765   3.634  0.0081 -0.1674 -0.4680
  494MOL0     N66606   0.532   0.382   4.083  0.0190 -0.5717 -0.3180
  494MOL0     N66607   0.570   0.365   4.208 -0.1426  0.4696 -0.2656
  494MOL0     C66608   1.387   0.348   5.061 -0.2617  0.2173 -0.4462
  494MOL0     C66609   1.488   0.393   5.145  0.7046  0.7028  0.1379
  494MOL0     C66610   1.884   0.565   5.276  0.2292 -0.4364  0.4533
  494MOL0     C66611   1.879   0.703   5.302  0.1453 -1.0565  0.7504
  494MOL0     C66612   1.997   0.765   5.342  0.3781  0.5243  0.6678
  494MOL0     C66613   2.116   0.698   5.328 -0.1188 -0.5135 -0.1362
  494MOL0     O66614   2.232   0.771   5.360  0.1239  0.1496 -0.1619
  494MOL0     C66615   2.358   0.707   5.341 -0.0365  0.1420  0.6858
  494MOL0     C66616   2.470   0.803   5.375 -0.8256 -0.6972  0.4023
  494MOL0     C66617   2.600   0.753   5.311  0.8850 -0.1644 -0.4221
  494MOL0     C66618   2.663   0.642   5.395 -0.1559  0.2932 -0.1296
  494MOL0     C66619   2.591   0.511   5.379 -0.5301 -1.3378  0.1669
  494MOL0     C66620   2.535   0.405   5.388 -0.3755 -0.4049 -0.0182
  494MOL0     C66621   2.128   0.560   5.310 -0.0745 -0.0334 -0.4695
  494MOL0     C66622   2.009   0.496   5.285 -0.6918  0.5422 -0.0243
  494MOL0     H66623   1.525   0.718   5.030  0.4041 -1.0559 -0.6854
  494MOL0     H66624   1.324   0.659   4.916 -3.9699  0.1037  1.9566
  494MOL0     H66625   1.154   0.269   5.045 -0.1081  2.0645  0.8818
  494MOL0     H66626   1.028   0.330   4.934  0.3974 -0.7381 -0.7266
  494MOL0     H66627   1.264   0.180   4.829 -0.2784 -0.2683 -1.0309
  494MOL0     H66628   1.143   0.090   4.918  1.1647  0.9351  0.6153
  494MOL0     H66629   1.073   0.280   4.670 -1.9032  0.2576  1.2351
  494MOL0     H66630   1.141   0.124   4.639 -1.2442  2.6191 -2.9502
  494MOL0     H66631   0.971   0.020   4.787  3.7634  0.9714 -1.3093
  494MOL0     H66632   0.892   0.168   4.813 -1.1781 -0.3626  0.3937
  494MOL0     H66633   0.930   0.043   4.533 -1.7943 -2.6312  1.3131
  494MOL0     H66634   0.777   0.056   4.635 -1.1869 -0.8393 -2.5805
  494MOL0     H66635   0.782   0.288   4.629 -0.0445  0.5904  0.2110
  494MOL0     H66636   0.928   0.296   4.537 -1.0766 -1.3172 -1.5507
  494MOL0     H66637   0.812   0.184   4.342 -1.6526 -0.8382  1.2046
  494MOL0     H66638   0.657   0.210   4.430 -0.5059  1.6210 -3.1896
  494MOL0     H66639   0.871   0.424   4.359 -0.7915  3.7427 -2.0190
  494MOL0     H66640   0.717   0.445   4.431  1.2045  0.1870  0.0001
  494MOL0     H66641   0.857   0.449   4.093  0.9435 -2.1224  1.2998
  494MOL0     H66642   0.774   0.493   3.849 -0.6256  1.1501 -0.0425
  494MOL0     H66643   0.646   0.371   3.808  0.7507 -0.8191  0.4664
  494MOL0     H66644   0.603   0.657   3.884 -1.4386 -0.3427  2.2346
  494MOL0     H66645   0.479   0.544   3.869  0.4137  1.3370  1.7077
  494MOL0     H66646   0.596   0.523   3.618 -0.9865 -0.4118  0.2330
  494MOL0     H66647   0.639   0.688   3.670  3.7024 -1.7399 -3.7559
  494MOL0     H66648   0.349   0.572   3.656 -1.7592  0.9682 -3.3518
  494MOL0     H66649   0.419   0.672   3.534  0.4534  1.1092 -0.1526
  494MOL0     H66650   0.330   1.006   3.811  0.6171  0.2956 -1.8371
  494MOL0     H66651   0.226   1.214   3.815 -0.7100  1.5979 -0.3999
  494MOL0     H66652   0.152   1.249   3.657  1.7516 -0.4663  0.7385
  494MOL0     H66653   0.056   1.200   3.805  0.2136 -0.6035  0.8454
  494MOL0     H66654  -0.254   1.240   3.741 -0.8208 -2.5382 -0.6487
  494MOL0     H66655  -0.471   1.377   3.682 -0.2323 -1.5583  1.1081
  494MOL0     H66656  -0.533   1.653   3.350 -1.1923 -0.1049  1.9781
  494MOL0     H66657  -0.521   1.508   3.258 -2.4399  0.6971 -1.2809
  494MOL0     H66658  -0.756   1.618   3.256 -0.8420 -2.4916 -1.0473
  494MOL0     H66659  -0.760   1.457   3.317 -2.3623  0.4354 -0.7755
  494MOL0     H66660  -0.745   1.702   3.508 -1.7191 -0.5269  3.5356
  494MOL0     H66661  -0.773   1.534   3.546 -1.4623  0.8575  1.4317
  494MOL0     H66662  -0.978   1.517   3.436  4.3871 -1.6996  0.8423
  494MOL0     H66663  -0.979   1.674   3.535 -0.0007 -1.5779  1.9762
  494MOL0     H66664  -0.965   1.647   3.239 -1.8596  0.2053 -0.7862
  494MOL0     H66665  -0.948   1.794   3.337 -1.5432  0.4375  1.8994
  494MOL0     H66666  -1.209   1.631   3.331  0.6860 -0.9862 -0.2888
  494MOL0     H66667  -1.182   1.767   3.445  1.1387  1.3002 -0.5131
  494MOL0     H66668  -1.145   1.813   3.140  1.4457 -0.7635 -0.3354
  494MOL0     H66669  -1.145   1.929   3.269 -0.6610  0.1202  1.3054
  494MOL0     H66670  -1.358   1.931   3.139  0.5138  1.2301  1.0348
  494MOL0     H66671  -1.385   1.900   3.313 -0.3404  1.8785 -0.4683
  494MOL0     H66672  -0.308   1.447   3.286 -1.7497 -1.7098 -0.8885
  494MOL0     H66673  -0.106   1.335   3.352  1.5554  0.0816  2.3530
  494MOL0     H66674  -0.056   0.801   3.577 -0.5023  1.8397  0.1388
  494MOL0     H66675   0.140   0.662   3.599 -0.7957  0.6311 -2.8620
  494MOL0     H66676   1.367   0.241   5.059 -1.5328  0.3493  1.8668
  494MOL0     H66677   1.531   0.325   5.218 -3.7908  0.7323  3.2331
  494MOL0     H66678   1.789   0.764   5.306 -1.6471 -3.3090 -1.7937
  494MOL0     H66679   1.989   0.865   5.383  1.4892  0.0800  2.0696
  494MOL0     H66680   2.371   0.629   5.417  0.4991 -1.3385 -0.8637
  494MOL0     H66681   2.370   0.673   5.238  2.9282  2.0229  0.2836
  494MOL0     H66682   2.484   0.821   5.481  2.5671  1.0099 -0.2035
  494MOL0     H66683   2.443   0.903   5.338 -2.1750 -1.2502 -0.2014
  494MOL0     H66684   2.667   0.839   5.314 -0.5330  0.9511  1.6805
  494MOL0     H66685   2.583   0.716   5.209  0.1485 -1.4774  0.1504
  494MOL0     H66686   2.659   0.664   5.502 -1.4846 -0.1230 -0.0709
  494MOL0     H66687   2.769   0.629   5.371 -0.5571 -1.6367 -1.0483
  494MOL0     H66688   2.483   0.312   5.375  0.4971 -0.8646 -0.3155
  494MOL0     H66689   2.216   0.502   5.333  0.2547  1.0664  1.2436
  494MOL0     H66690   2.004   0.388   5.292 -0.2411  0.6290  3.0215
  495MOL0     O66691   9.152   6.101   2.852 -0.1463 -0.3897  0.7433
  495MOL0     C66692   9.249   6.140   2.780  0.3702 -0.1517 -0.3626
  495MOL0     O66693   9.295   6.078   2.674  0.4383  0.3402 -0.2430
  495MOL0     C66694   9.233   5.962   2.627 -0.2357 -0.2660 -0.3944
  495MOL0     C66695   9.094   5.945   2.604 -0.5195 -0.3811  0.1222
  495MOL0     C66696   9.037   5.835   2.542  0.1145 -0.2292  0.1344
  495MOL0     C66697   9.125   5.728   2.500  0.5093 -0.1054  0.8253
  495MOL0     O66698   9.064   5.626   2.433  0.7205  0.2269 -0.0100
  495MOL0     C66699   9.120   5.498   2.457 -0.7941  0.1489 -0.3490
  495MOL0     C66700   9.084   5.415   2.342  0.1967 -0.4436  0.3935
  495MOL0     C66701   8.935   5.412   2.319  0.0880  0.2053  0.3021
  495MOL0     C66702   8.861   5.364   2.444  0.2868 -0.0094 -0.2293
  495MOL0     C66703   8.707   5.355   2.423  0.4645 -0.0837  0.5252
  495MOL0     C66704   8.659   5.278   2.300  0.0017  0.2806 -0.4504
  495MOL0     C66705   8.516   5.232   2.337 -0.6811 -0.1714  0.1504
  495MOL0     C66706   8.476   5.131   2.235 -0.5594 -0.1450  0.1393
  495MOL0     N66707   8.368   5.038   2.273 -0.7991  0.2318  0.7606
  495MOL0     C66708   8.234   5.070   2.270  0.1594 -0.2633 -0.0475
  495MOL0     C66709   8.164   4.954   2.250 -0.0722  0.3546 -0.5872
  495MOL0     C66710   8.017   4.938   2.235 -0.1549  0.1130 -0.6549
  495MOL0     C66711   7.983   4.815   2.317  0.6298  0.3191  0.2167
  495MOL0     C66712   7.838   4.799   2.357  0.2167 -0.2955  0.8953
  495MOL0     C66713   7.737   4.829   2.249  0.6100 -0.2291  0.2562
  495MOL0     O66714   7.602   4.817   2.294  0.0536 -0.4017  0.0574
  495MOL0     C66715   7.563   4.689   2.321 -0.0259  0.4020 -0.2361
  495MOL0     C66716   7.452   4.685   2.407 -0.9383 -0.1943 -0.0157
  495MOL0     C66717   7.394   4.552   2.424 -0.8919  0.0191  1.3956
  495MOL0     C66718   7.263   4.567   2.497 -0.3178 -0.1622 -1.0594
  495MOL0     C66719   7.450   4.438   2.368 -0.0767  0.9018 -1.2729
  495MOL0     C66720   7.400   4.298   2.405  0.1637 -0.4738 -0.3901
  495MOL0     O66721   7.470   4.196   2.360  0.2620  0.8767 -0.2310
  495MOL0     C66722   7.429   4.063   2.367  0.3541 -0.6325 -0.5218
  495MOL0     C66723   7.315   3.999   2.421 -0.3119 -0.2791  0.0364
  495MOL0     C66724   7.310   3.865   2.428 -0.0775 -0.3665  0.6389
  495MOL0     C66725   7.402   3.774   2.364  0.0538  0.2830  0.3803
  495MOL0     O66726   7.390   3.634   2.377 -0.2874  0.1888 -0.1243
  495MOL0     C66727   7.297   3.580   2.464 -0.0737 -0.5040  0.3730
  495MOL0     C66728   7.306   3.423   2.468  0.2662  0.0617  0.3752
  495MOL0     C66729   7.194   3.354   2.553 -0.6799 -0.3447  0.1724
  495MOL0     C66730   7.053   3.385   2.519  0.0734  1.1671 -0.1895
  495MOL0     C66731   6.948   3.283   2.567  0.2333 -0.0414  0.3343
  495MOL0     C66732   6.936   3.146   2.493 -0.4827  0.0266  0.8650
  495MOL0     C66733   6.814   3.068   2.535  0.3460  0.9037 -0.2092
  495MOL0     C66734   6.819   2.919   2.494  0.2046  0.8934 -0.8098
  495MOL0    Cl66735   6.847   2.892   2.317 -0.0370  0.7343  0.0434
  495MOL0     C66736   7.507   3.834   2.287  0.0007  0.3425 -0.0126
  495MOL0     C66737   7.519   3.975   2.299 -0.2755 -0.2841 -0.3082
  495MOL0     O66738   7.293   4.294   2.463  0.6357  0.3137  0.7657
  495MOL0     C66739   7.561   4.453   2.290  0.3607 -0.1889  0.1959
  495MOL0     C66740   7.625   4.570   2.272  0.2701 -0.0498 -0.6810
  495MOL0     N66741   8.263   4.854   2.239 -0.0496  0.1038 -0.3867
  495MOL0     N66742   8.380   4.909   2.243  0.2819  0.6949 -0.5231
  495MOL0     C66743   9.269   5.752   2.499 -0.4567 -0.5233 -0.4498
  495MOL0     C66744   9.316   5.868   2.567 -0.8285  0.1553  0.2199
  495MOL0     C66745   9.326   6.264   2.817 -0.3022 -0.4954 -0.0566
  495MOL0     C66746   9.459   6.285   2.773  0.5087 -0.3248 -0.7993
  495MOL0     C66747   9.520   6.404   2.809 -0.0133 -0.2317  0.5019
  495MOL0     C66748   9.449   6.507   2.877  0.6197  0.3225 -0.0482
  495MOL0     O66749   9.515   6.617   2.923 -0.0814 -0.1666 -0.2286
  495MOL0     C66750   9.637   6.666   2.862  0.3714  0.7351  1.2488
  495MOL0     C66751   9.768   6.606   2.905 -0.2906 -0.4579  0.0657
  495MOL0     C66752   9.868   6.630   2.794  0.9909 -0.2499 -0.5894
  495MOL0     C66753  10.009   6.610   2.853  0.4933 -0.8078  0.3584
  495MOL0     C66754  10.052   6.478   2.871 -0.2033 -0.3321 -0.8471
  495MOL0     C66755  10.110   6.369   2.908  0.4708 -1.0412  0.7329
  495MOL0     C66756   9.321   6.478   2.921  0.2936 -0.9482 -0.2215
  495MOL0     C66757   9.263   6.358   2.902 -1.2754 -0.7069  0.3904
  495MOL0     H66758   9.025   6.021   2.639  0.6124  1.2032 -0.9333
  495MOL0     H66759   8.930   5.821   2.536 -0.3885  2.7155  0.8108
  495MOL0     H66760   9.228   5.508   2.471 -0.6651  2.8522 -2.5118
  495MOL0     H66761   9.077   5.460   2.550  1.1856 -0.2214  0.4767
  495MOL0     H66762   9.139   5.464   2.261 -0.7441 -0.4820 -0.2870
  495MOL0     H66763   9.121   5.312   2.344  1.7983  0.1277  1.2432
  495MOL0     H66764   8.894   5.511   2.295 -0.2437 -0.4327 -1.9882
  495MOL0     H66765   8.925   5.347   2.232  3.2332  0.3730 -0.3146
  495MOL0     H66766   8.903   5.270   2.480  2.4344 -0.4128 -3.3078
  495MOL0     H66767   8.873   5.440   2.521  0.6426 -0.4357  0.1411
  495MOL0     H66768   8.675   5.311   2.518 -1.0621 -2.5769 -1.0339
  495MOL0     H66769   8.677   5.459   2.408  2.9710  0.5652 -0.5877
  495MOL0     H66770   8.657   5.339   2.210  4.0555  2.2243  0.5269
  495MOL0     H66771   8.722   5.190   2.283 -0.2445 -0.0603  0.3108
  495MOL0     H66772   8.527   5.177   2.431  2.7117  0.7998  0.4425
  495MOL0     H66773   8.455   5.322   2.351  1.1930  0.9583  1.5939
  495MOL0     H66774   8.561   5.069   2.205 -0.9694 -0.8482  0.4008
  495MOL0     H66775   8.438   5.193   2.153  3.2850 -0.1838 -1.8729
  495MOL0     H66776   8.202   5.172   2.284  1.8494  0.5948 -1.8366
  495MOL0     H66777   7.971   5.028   2.275  0.4889  0.0862  0.1778
  495MOL0     H66778   7.992   4.918   2.131 -0.8702  2.5568 -1.0099
  495MOL0     H66779   8.038   4.828   2.410 -0.0854  0.5861  0.6128
  495MOL0     H66780   8.015   4.725   2.264  0.3731  0.6056 -0.4379
  495MOL0     H66781   7.815   4.863   2.443  1.4782 -1.6988  2.3551
  495MOL0     H66782   7.825   4.695   2.389  2.3322 -0.1256  2.5057
  495MOL0     H66783   7.755   4.763   2.164 -1.0829  0.1763 -0.4499
  495MOL0     H66784   7.750   4.931   2.211  2.1781 -0.9881 -1.4109
  495MOL0     H66785   7.405   4.778   2.437  0.6417  1.3421 -2.0199
  495MOL0     H66786   7.277   4.511   2.590 -1.3899  0.8312 -0.2508
  495MOL0     H66787   7.237   4.669   2.528 -2.5869 -1.3549  1.3136
  495MOL0     H66788   7.173   4.527   2.449  0.8072 -0.9550 -2.5586
  495MOL0     H66789   7.240   4.060   2.470 -0.7852 -2.6632  2.5336
  495MOL0     H66790   7.217   3.840   2.479 -1.3336 -1.3188 -1.9630
  495MOL0     H66791   7.307   3.638   2.556 -2.5455  0.9074 -0.1617
  495MOL0     H66792   7.194   3.612   2.445 -0.0528 -0.1937  0.7601
  495MOL0     H66793   7.298   3.392   2.364 -0.1394  2.8021 -0.4985
  495MOL0     H66794   7.401   3.400   2.517 -0.6950  1.3492  3.0852
  495MOL0     H66795   7.202   3.373   2.660 -0.0033  1.4805 -0.1542
  495MOL0     H66796   7.217   3.250   2.529 -1.8854 -0.3322 -1.1812
  495MOL0     H66797   7.026   3.479   2.569 -0.6552  1.1491 -0.5435
  495MOL0     H66798   7.033   3.400   2.412  1.2488  1.8559 -0.3387
  495MOL0     H66799   6.853   3.333   2.547  0.6923  0.9163  0.4839
  495MOL0     H66800   6.952   3.265   2.675  2.3958  1.8942  0.6484
  495MOL0     H66801   6.933   3.158   2.384 -1.6154  1.2797  1.0019
  495MOL0     H66802   7.024   3.087   2.521  1.4184  1.0350 -2.3723
  495MOL0     H66803   6.721   3.106   2.493 -1.0456 -0.2361  1.6479
  495MOL0     H66804   6.800   3.073   2.644 -2.4997  1.1352 -0.5185
  495MOL0     H66805   6.725   2.873   2.524  2.2226 -2.3166  1.3399
  495MOL0     H66806   6.895   2.872   2.558 -1.5609 -0.2196  0.5579
  495MOL0     H66807   7.582   3.770   2.242 -3.9701 -4.5110 -0.6476
  495MOL0     H66808   7.602   4.012   2.241  2.0402 -3.1300  0.9151
  495MOL0     H66809   7.609   4.365   2.247 -0.4006 -1.1455  1.2537
  495MOL0     H66810   7.719   4.571   2.220  0.4691  0.0119 -0.3262
  495MOL0     H66811   9.337   5.681   2.454 -1.8679 -3.4246  1.6418
  495MOL0     H66812   9.421   5.892   2.580 -1.3277  1.7560  1.6635
  495MOL0     H66813   9.514   6.211   2.715  0.6689  0.2596 -1.4120
  495MOL0     H66814   9.623   6.422   2.779 -0.5135  0.7428 -0.7013
  495MOL0     H66815   9.619   6.666   2.754  0.6021 -0.5922  1.1928
  495MOL0     H66816   9.657   6.769   2.894  0.1134  1.1095  0.2514
  495MOL0     H66817   9.776   6.499   2.926 -0.3768 -0.2093  1.4779
  495MOL0     H66818   9.795   6.657   2.998  0.5431  3.0946 -1.9307
  495MOL0     H66819   9.851   6.728   2.748 -0.0886 -0.2288 -0.1652
  495MOL0     H66820   9.854   6.564   2.708 -2.3161  0.9584 -1.1280
  495MOL0     H66821  10.020   6.662   2.948 -0.7811 -1.0625  0.6688
  495MOL0     H66822  10.082   6.650   2.782  0.4268 -3.1650 -1.1437
  495MOL0     H66823  10.146   6.271   2.931 -0.6728 -1.7008 -0.1394
  495MOL0     H66824   9.256   6.548   2.972  0.0969 -0.9285 -0.4966
  495MOL0     H66825   9.163   6.346   2.944 -0.7264 -0.5719  1.7697
  496MOL0     O66826   2.350   4.854   2.889 -0.0878 -0.3155 -0.0739
  496MOL0     C66827   2.382   4.741   2.835  0.3760 -0.4753 -0.2904
  496MOL0     O66828   2.301   4.673   2.751  0.5188  0.2873  0.0711
  496MOL0     C66829   2.194   4.737   2.693  0.0319  0.6264  0.2338
  496MOL0     C66830   2.077   4.655   2.663  0.1211 -0.3988 -0.4195
  496MOL0     C66831   1.972   4.705   2.588  0.1315  0.2225 -0.4481
  496MOL0     C66832   1.968   4.838   2.564 -0.7775 -0.8440  0.5014
  496MOL0     O66833   1.856   4.875   2.491  0.2441 -0.3098 -0.0976
  496MOL0     C66834   1.824   5.012   2.452  0.2702  0.4196  0.9316
  496MOL0     C66835   1.694   5.018   2.371 -0.5448  0.1331 -0.6372
  496MOL0     C66836   1.570   4.981   2.446  0.9803  0.8505 -0.4008
  496MOL0     C66837   1.441   5.020   2.374 -0.0267  0.0138  0.1366
  496MOL0     C66838   1.313   4.954   2.436 -0.0619  0.3126 -1.3799
  496MOL0     C66839   1.181   5.006   2.367  0.3682  0.1053 -0.5854
  496MOL0     C66840   1.141   4.954   2.228  0.6270  0.2043 -0.0552
  496MOL0     C66841   1.083   4.812   2.210 -1.1251  0.4766 -0.1452
  496MOL0     N66842   1.033   4.783   2.075  0.2801 -0.3198 -0.3846
  496MOL0     C66843   0.904   4.795   2.041  1.6570 -0.2009  0.0777
  496MOL0     C66844   0.881   4.695   1.954  0.8168 -0.4525 -0.3695
  496MOL0     C66845   0.747   4.660   1.893 -0.8363  0.2270 -0.1909
  496MOL0     C66846   0.734   4.520   1.836  0.3121 -0.2645 -0.6498
  496MOL0     C66847   0.594   4.484   1.798 -0.3178 -0.0299 -0.7945
  496MOL0     C66848   0.532   4.583   1.698  0.0781  1.2008  0.3035
  496MOL0     O66849   0.478   4.698   1.760  0.7206  0.1490 -1.0616
  496MOL0     C66850   0.348   4.697   1.792  0.7964  0.0883 -0.8596
  496MOL0     C66851   0.263   4.588   1.796  0.0083  1.2062 -0.0979
  496MOL0     C66852   0.128   4.593   1.848  0.8123 -0.1756 -0.3835
  496MOL0     C66853   0.045   4.476   1.858  0.7797  0.1701 -0.4095
  496MOL0     C66854   0.070   4.717   1.884 -0.2459 -0.0910  0.0236
  496MOL0     C66855  -0.075   4.744   1.923  0.5142 -1.2405 -0.0211
  496MOL0     O66856  -0.161   4.636   1.941  0.4231 -0.2791  0.0201
  496MOL0     C66857  -0.297   4.652   1.922  0.9459  0.5614 -0.4960
  496MOL0     C66858  -0.351   4.611   1.799 -0.1777  0.1855  0.3354
  496MOL0     C66859  -0.480   4.639   1.770 -1.0309 -0.4359 -0.2272
  496MOL0     C66860  -0.568   4.693   1.864  0.5982  0.1153 -0.5078
  496MOL0     O66861  -0.705   4.685   1.831 -0.3214 -0.2209 -0.2572
  496MOL0     C66862  -0.785   4.796   1.880 -0.7795 -0.2996  0.7308
  496MOL0     C66863  -0.865   4.748   2.007  0.2942  0.1369  0.2818
  496MOL0     C66864  -0.947   4.619   1.999  0.2778  0.4165 -0.2664
  496MOL0     C66865  -1.030   4.578   2.133  0.1912 -0.4035 -0.7420
  496MOL0     C66866  -1.118   4.455   2.121 -0.6063 -0.0629 -0.0412
  496MOL0     C66867  -1.156   4.397   2.254  0.4996  0.1650  0.4461
  496MOL0     C66868  -1.285   4.306   2.246  0.4395 -0.2030  0.5479
  496MOL0     C66869  -1.407   4.372   2.192 -0.3367 -0.1431  0.2028
  496MOL0    Cl66870  -1.549   4.265   2.216 -0.4899 -0.2746 -0.4440
  496MOL0     C66871  -0.511   4.729   1.985  0.4298 -0.7920 -0.1461
  496MOL0     C66872  -0.379   4.711   2.021  0.1843 -0.1429  0.2936
  496MOL0     O66873  -0.108   4.865   1.923 -0.0745 -0.2218 -0.3688
  496MOL0     C66874   0.155   4.827   1.859 -0.0330 -0.1084  0.6820
  496MOL0     C66875   0.291   4.811   1.814  0.9066  0.7182 -0.0111
  496MOL0     N66876   0.991   4.626   1.939  0.7597  0.1146  0.2587
  496MOL0     N66877   1.081   4.683   2.007 -0.1258  0.5125 -0.0958
  496MOL0     C66878   2.078   4.926   2.586 -0.0143 -0.1308 -0.3778
  496MOL0     C66879   2.195   4.873   2.652  0.2449 -0.8311  0.1265
  496MOL0     C66880   2.523   4.693   2.864 -1.1415  0.4481  0.4496
  496MOL0     C66881   2.568   4.582   2.794  0.2565  0.5300  0.6434
  496MOL0     C66882   2.693   4.523   2.815  0.5823  0.4307 -0.4588
  496MOL0     C66883   2.779   4.583   2.904 -0.5241 -0.8984 -0.3866
  496MOL0     O66884   2.910   4.552   2.927  0.1973 -0.0411 -0.2285
  496MOL0     C66885   2.947   4.420   2.906  0.7800 -0.6784  1.1426
  496MOL0     C66886   2.866   4.313   2.996 -0.1521 -0.1738  0.0340
  496MOL0     C66887   2.914   4.167   2.988 -0.0661 -0.1198 -0.0284
  496MOL0     C66888   2.816   4.068   2.922 -0.3649  0.2029 -0.2444
  496MOL0     C66889   2.712   4.039   3.018 -0.4252 -0.4462 -0.3635
  496MOL0     C66890   2.636   4.015   3.114  0.4047  0.4441 -0.4925
  496MOL0     C66891   2.736   4.699   2.969  0.3251 -0.6281 -0.7827
  496MOL0     C66892   2.614   4.754   2.952  0.3728 -1.2837  0.2967
  496MOL0     H66893   2.087   4.549   2.685  2.9632  0.2736  2.2115
  496MOL0     H66894   1.901   4.630   2.554  0.0504 -0.2726  0.7285
  496MOL0     H66895   1.803   5.070   2.542 -1.2395 -0.7174  1.3517
  496MOL0     H66896   1.901   5.051   2.385  2.1035 -2.2980  1.2699
  496MOL0     H66897   1.681   5.123   2.343 -1.3224  0.5062  1.0236
  496MOL0     H66898   1.707   4.963   2.277  2.0164  0.7265 -0.7125
  496MOL0     H66899   1.570   4.872   2.451 -2.7753  0.8054  2.0589
  496MOL0     H66900   1.573   5.035   2.542  2.3698  0.8313 -0.4124
  496MOL0     H66901   1.439   5.129   2.368  0.8033  0.0423  0.2355
  496MOL0     H66902   1.462   4.976   2.276  1.4217  1.9733 -0.4774
  496MOL0     H66903   1.326   4.846   2.435  0.5332  0.3404  0.5893
  496MOL0     H66904   1.308   4.983   2.541 -0.5530 -0.4158 -1.1942
  496MOL0     H66905   1.099   4.998   2.438 -0.6649  4.7867 -0.9846
  496MOL0     H66906   1.191   5.114   2.355 -0.3760 -0.0633 -3.4143
  496MOL0     H66907   1.072   5.032   2.195  1.3316  1.0441  0.4074
  496MOL0     H66908   1.238   4.955   2.176  0.5983  0.4001 -0.1036
  496MOL0     H66909   1.016   4.798   2.295  1.3765 -1.0681  1.6867
  496MOL0     H66910   1.155   4.735   2.237 -1.3956  0.2433 -0.0853
  496MOL0     H66911   0.834   4.867   2.080  1.5242 -0.9201  1.1977
  496MOL0     H66912   0.674   4.688   1.970  1.0486 -2.6290  2.9256
  496MOL0     H66913   0.730   4.732   1.812 -1.0144  2.8730  2.0413
  496MOL0     H66914   0.780   4.452   1.908  1.2577  1.5349  0.5332
  496MOL0     H66915   0.785   4.506   1.740 -0.5890 -0.9951 -1.0337
  496MOL0     H66916   0.524   4.476   1.882  1.6854 -0.6024  0.8924
  496MOL0     H66917   0.593   4.382   1.757 -0.0687 -0.8926  1.2351
  496MOL0     H66918   0.463   4.521   1.640  1.3502  0.4590 -0.4812
  496MOL0     H66919   0.615   4.615   1.634  3.0442  1.7882  4.0824
  496MOL0     H66920   0.309   4.492   1.772 -0.8243  0.9942 -0.9168
  496MOL0     H66921  -0.038   4.495   1.790  1.4933 -0.5583 -1.5068
  496MOL0     H66922   0.085   4.378   1.831  2.6968  0.7879  0.0235
  496MOL0     H66923   0.003   4.472   1.959 -1.1000  2.6706 -1.0171
  496MOL0     H66924  -0.296   4.579   1.711 -0.0899 -3.5832  1.6071
  496MOL0     H66925  -0.526   4.623   1.673 -1.6843  0.2973 -0.0527
  496MOL0     H66926  -0.716   4.877   1.905  0.3234 -1.0009  0.0792
  496MOL0     H66927  -0.848   4.840   1.803  1.7470  0.7144 -0.8980
  496MOL0     H66928  -0.805   4.744   2.098  0.3264  0.2581  0.2655
  496MOL0     H66929  -0.925   4.838   2.022  2.0253  1.8624 -2.2560
  496MOL0     H66930  -0.874   4.540   1.978 -0.7607  0.2464 -4.0710
  496MOL0     H66931  -1.016   4.616   1.914  0.3360  0.4574 -0.3155
  496MOL0     H66932  -0.954   4.554   2.208 -0.9295 -0.6176  0.3578
  496MOL0     H66933  -1.083   4.667   2.169 -0.7350  0.4093 -3.8500
  496MOL0     H66934  -1.061   4.391   2.053  0.2576  1.2594 -0.6102
  496MOL0     H66935  -1.208   4.475   2.062  2.3165 -1.0734 -5.6086
  496MOL0     H66936  -1.071   4.342   2.295  0.3054 -0.2884  0.2379
  496MOL0     H66937  -1.168   4.478   2.326  0.0187 -1.0344  1.7470
  496MOL0     H66938  -1.304   4.252   2.340 -0.7074 -2.8226 -1.0721
  496MOL0     H66939  -1.264   4.216   2.188 -0.2738 -1.0433  1.5421
  496MOL0     H66940  -1.399   4.395   2.085 -1.2481 -1.2558 -0.1178
  496MOL0     H66941  -1.437   4.458   2.252  0.4235 -0.4226  1.0093
  496MOL0     H66942  -0.573   4.790   2.050  2.0077  1.5963 -0.7385
  496MOL0     H66943  -0.344   4.747   2.118  0.4944 -1.1419  0.5556
  496MOL0     H66944   0.124   4.931   1.859 -1.2524 -0.3854  3.7572
  496MOL0     H66945   0.352   4.900   1.798  0.1433  1.4702  1.1561
  496MOL0     H66946   2.075   5.033   2.565  3.2417  0.3188  0.9086
  496MOL0     H66947   2.286   4.928   2.675  0.7832 -2.0212  0.9375
  496MOL0     H66948   2.504   4.533   2.721  0.1511 -2.6712  2.6433
  496MOL0     H66949   2.717   4.435   2.755  1.4211 -0.1791  0.7255
  496MOL0     H66950   2.932   4.394   2.800  1.8763 -1.2760  1.1085
  496MOL0     H66951   3.054   4.425   2.929  1.2869  5.0516 -0.8508
  496MOL0     H66952   2.756   4.312   2.999 -0.1842  1.5003  0.7647
  496MOL0     H66953   2.879   4.354   3.097 -2.8385  1.6257 -0.2369
  496MOL0     H66954   2.946   4.128   3.085 -1.1633  1.7949  1.1694
  496MOL0     H66955   3.003   4.170   2.924 -0.6198  1.5230 -0.7978
  496MOL0     H66956   2.877   3.984   2.888 -3.6587 -2.7672  0.5672
  496MOL0     H66957   2.772   4.106   2.829 -3.4002 -2.8176 -0.2467
  496MOL0     H66958   2.575   4.003   3.202  1.3022 -1.5504 -0.0828
  496MOL0     H66959   2.798   4.751   3.041 -1.8286 -1.7031  2.0311
  496MOL0     H66960   2.598   4.848   3.004  2.1724 -0.1745 -1.0458
  497MOL0     O66961   1.238   6.771   6.990 -0.2203  0.0349  0.2024
  497MOL0     C66962   1.258   6.825   7.103 -0.7132  0.2067  0.5180
  497MOL0     O66963   1.166   6.876   7.186  0.3632  0.3348  0.0356
  497MOL0     C66964   1.039   6.877   7.146  1.4024 -0.2494 -0.5283
  497MOL0     C66965   0.944   6.779   7.192 -0.5111 -0.6832  0.3800
  497MOL0     C66966   0.813   6.786   7.139 -0.1052 -0.4522  0.5560
  497MOL0     C66967   0.778   6.896   7.051  0.8405  0.0826  0.2843
  497MOL0     O66968   0.650   6.922   6.999 -0.1339 -0.0305  0.5011
  497MOL0     C66969   0.615   6.840   6.889  0.1259  0.6406 -0.2853
  497MOL0     C66970   0.461   6.863   6.858 -0.1252  0.0532 -0.2675
  497MOL0     C66971   0.439   6.985   6.778 -0.2872 -0.3540  0.4156
  497MOL0     C66972   0.290   7.021   6.783 -0.2519 -0.1223 -0.6984
  497MOL0     C66973   0.255   7.135   6.689  0.4561 -0.0893  0.6621
  497MOL0     C66974   0.112   7.182   6.680 -0.0723 -0.5281  0.8040
  497MOL0     C66975   0.074   7.271   6.795 -0.3662  0.3452  0.6117
  497MOL0     C66976  -0.072   7.320   6.783  0.5351  0.4989  0.2647
  497MOL0     N66977  -0.123   7.399   6.904  0.0712 -0.6234  1.1079
  497MOL0     C66978  -0.168   7.344   7.015  1.0608  0.2459  0.4205
  497MOL0     C66979  -0.202   7.450   7.089  0.0235 -0.2488  0.5107
  497MOL0     C66980  -0.272   7.436   7.223 -0.1106 -0.0357  0.0763
  497MOL0     C66981  -0.421   7.401   7.213  0.6877  0.0781  0.5327
  497MOL0     C66982  -0.516   7.523   7.212  0.2487 -0.4734 -0.3566
  497MOL0     C66983  -0.650   7.475   7.248  0.0879  0.0054 -0.2686
  497MOL0     O66984  -0.736   7.590   7.256  0.4069  0.5057 -0.5928
  497MOL0     C66985  -0.846   7.571   7.327  0.7373  0.1255 -0.5200
  497MOL0     C66986  -0.846   7.525   7.463 -0.4515 -0.6697 -0.3155
  497MOL0     C66987  -0.966   7.531   7.544  0.9161 -0.1180  0.2040
  497MOL0     C66988  -0.952   7.483   7.680  0.0949 -0.6150 -0.5476
  497MOL0     C66989  -1.093   7.574   7.498 -0.8405  0.0484  0.1814
  497MOL0     C66990  -1.224   7.576   7.579  0.9739 -0.7293 -0.0729
  497MOL0     O66991  -1.334   7.619   7.513 -0.3847  0.2392  0.3737
  497MOL0     C66992  -1.466   7.620   7.552 -0.4847  0.9433 -0.0044
  497MOL0     C66993  -1.530   7.512   7.616  0.1233  0.1859  0.3514
  497MOL0     C66994  -1.662   7.519   7.644 -0.4837 -0.3955  1.0187
  497MOL0     C66995  -1.736   7.634   7.609  0.5770 -1.1226  0.5054
  497MOL0     O66996  -1.869   7.661   7.640 -1.1554  0.3304  0.1926
  497MOL0     C66997  -1.951   7.545   7.644 -0.1878  0.5703  0.2929
  497MOL0     C66998  -2.090   7.605   7.679 -0.4030  0.5518 -0.6103
  497MOL0     C66999  -2.185   7.618   7.564  1.2317  0.1193 -0.2685
  497MOL0     C67000  -2.302   7.714   7.618  0.2935  0.2811 -0.1298
  497MOL0     C67001  -2.429   7.706   7.521 -0.2801 -0.4408 -0.9722
  497MOL0     C67002  -2.506   7.570   7.548 -0.1723  0.2143  0.4297
  497MOL0     C67003  -2.584   7.540   7.419 -0.0385  0.3206 -0.5864
  497MOL0     C67004  -2.684   7.420   7.437 -0.4397  0.3817  0.1259
  497MOL0    Cl67005  -2.795   7.434   7.567  0.1288 -0.4753 -0.3095
  497MOL0     C67006  -1.673   7.723   7.531 -0.2955 -0.7633  0.6158
  497MOL0     C67007  -1.541   7.717   7.498 -0.1136 -0.2688 -0.5291
  497MOL0     O67008  -1.231   7.530   7.692  0.0992  0.0570  0.0884
  497MOL0     C67009  -1.089   7.618   7.359  0.6609  0.3212  0.2818
  497MOL0     C67010  -0.971   7.609   7.281 -0.3042  0.4679  0.8718
  497MOL0     N67011  -0.170   7.564   7.023 -0.7785  0.0750  0.0535
  497MOL0     N67012  -0.116   7.532   6.908  0.3066 -0.6206 -0.5452
  497MOL0     C67013   0.869   6.988   7.013  0.1486  0.5387 -0.8601
  497MOL0     C67014   0.996   6.979   7.066  0.9173  0.0123 -0.5534
  497MOL0     C67015   1.397   6.822   7.151 -0.3898  0.1869 -0.4275
  497MOL0     C67016   1.503   6.796   7.057 -0.1077 -0.7291  0.7685
  497MOL0     C67017   1.636   6.783   7.087  0.0178  0.2849  0.7041
  497MOL0     C67018   1.675   6.796   7.221 -0.1710  0.0877  0.9546
  497MOL0     O67019   1.810   6.787   7.236  0.4561 -0.3580  0.8369
  497MOL0     C67020   1.851   6.762   7.379  0.6562  0.2179  1.3728
  497MOL0     C67021   2.000   6.741   7.375  0.2864  0.4100 -0.9923
  497MOL0     C67022   2.091   6.845   7.309  0.5153 -0.2417  0.5644
  497MOL0     C67023   2.070   6.967   7.386  0.0880 -0.7028  1.2239
  497MOL0     C67024   2.137   7.069   7.301 -0.6075 -0.0818  0.9000
  497MOL0     C67025   2.194   7.152   7.240 -0.7226  0.3131 -0.3133
  497MOL0     C67026   1.576   6.827   7.318  0.2462 -0.0364  1.8682
  497MOL0     C67027   1.437   6.837   7.280 -0.1171 -0.7522  0.7040
  497MOL0     H67028   0.972   6.708   7.269 -1.3426 -1.2841  0.1389
  497MOL0     H67029   0.747   6.702   7.158 -0.8168 -0.2722 -0.9385
  497MOL0     H67030   0.677   6.870   6.804  0.3380  1.1367  0.0348
  497MOL0     H67031   0.626   6.736   6.918 -1.4939 -0.0390 -1.9067
  497MOL0     H67032   0.419   6.773   6.811  1.8897 -0.2789 -1.5688
  497MOL0     H67033   0.406   6.873   6.952 -4.8224  0.6053 -2.7514
  497MOL0     H67034   0.504   7.069   6.807  1.3779 -1.7299  0.7923
  497MOL0     H67035   0.468   6.955   6.677 -3.2150  1.0468 -0.9941
  497MOL0     H67036   0.230   6.932   6.762 -2.0625  1.0699 -0.7862
  497MOL0     H67037   0.248   7.047   6.881 -1.8729  0.9500 -1.6297
  497MOL0     H67038   0.318   7.222   6.708  1.6002 -0.2597 -1.9184
  497MOL0     H67039   0.284   7.098   6.590 -1.9262  0.5796 -0.3680
  497MOL0     H67040   0.089   7.249   6.597 -0.9931 -0.1782  1.3224
  497MOL0     H67041   0.052   7.091   6.678  0.9808 -1.3660  3.0608
  497MOL0     H67042   0.094   7.222   6.891  1.8145 -0.2532 -0.1113
  497MOL0     H67043   0.132   7.364   6.798 -0.9081  0.7013  0.3784
  497MOL0     H67044  -0.130   7.231   6.757  0.7918 -0.6013  3.0852
  497MOL0     H67045  -0.080   7.381   6.693  1.5672  0.7486  0.3277
  497MOL0     H67046  -0.188   7.242   7.045  1.0548  0.6802  1.9781
  497MOL0     H67047  -0.234   7.352   7.282  2.7672  0.7904 -0.4622
  497MOL0     H67048  -0.241   7.524   7.280  2.0044 -1.6525  1.5823
  497MOL0     H67049  -0.455   7.337   7.294 -0.7023 -0.0357 -0.1249
  497MOL0     H67050  -0.439   7.347   7.120  2.5826  1.1779 -0.5470
  497MOL0     H67051  -0.511   7.568   7.112  1.3297 -0.6288 -0.3908
  497MOL0     H67052  -0.486   7.594   7.290  0.6016 -1.8852  0.8380
  497MOL0     H67053  -0.648   7.427   7.346 -1.0644  1.1085  0.3204
  497MOL0     H67054  -0.686   7.398   7.180 -1.8110  0.1558  0.5249
  497MOL0     H67055  -0.759   7.493   7.519  0.9694  1.6740 -1.0216
  497MOL0     H67056  -0.850   7.448   7.701  0.8557  1.1440 -1.0959
  497MOL0     H67057  -0.969   7.565   7.750 -0.8804 -1.4281  0.1957
  497MOL0     H67058  -1.022   7.403   7.703 -1.2289  0.5814 -0.2755
  497MOL0     H67059  -1.478   7.417   7.626 -0.5134 -0.0245  1.8332
  497MOL0     H67060  -1.718   7.439   7.692 -2.3773  3.0160  5.2349
  497MOL0     H67061  -1.957   7.491   7.550  0.4658 -0.4066  0.7950
  497MOL0     H67062  -1.912   7.481   7.724 -1.3593 -0.1840  0.2799
  497MOL0     H67063  -2.131   7.529   7.746  0.8874  1.8011  1.7530
  497MOL0     H67064  -2.075   7.698   7.734 -2.6120 -0.0314  1.0986
  497MOL0     H67065  -2.237   7.524   7.550  3.2982 -0.8423 -2.0864
  497MOL0     H67066  -2.131   7.644   7.472  1.8194 -0.1314  0.0029
  497MOL0     H67067  -2.330   7.693   7.722 -0.0764  1.4153  0.0193
  497MOL0     H67068  -2.264   7.817   7.617 -1.3796  1.2926 -6.7146
  497MOL0     H67069  -2.392   7.718   7.419 -0.1029 -3.2291 -1.3075
  497MOL0     H67070  -2.488   7.793   7.550  1.1956  0.8066 -1.5613
  497MOL0     H67071  -2.438   7.486   7.564 -1.0530 -1.0542 -1.9514
  497MOL0     H67072  -2.579   7.582   7.629 -0.2716  1.6060  0.1553
  497MOL0     H67073  -2.509   7.521   7.342  0.0954 -2.2141  0.0866
  497MOL0     H67074  -2.642   7.631   7.398  1.4769  0.6304 -4.1503
  497MOL0     H67075  -2.637   7.322   7.446  0.2237  0.7811  1.2334
  497MOL0     H67076  -2.748   7.412   7.349 -1.5169 -1.3053  1.0094
  497MOL0     H67077  -1.738   7.807   7.505  2.6520  2.0968  1.7638
  497MOL0     H67078  -1.500   7.795   7.435 -0.9713  1.8898  1.4723
  497MOL0     H67079  -1.178   7.656   7.310  0.0738 -0.6159  0.6084
  497MOL0     H67080  -0.982   7.650   7.182 -0.9950  2.5954  1.7614
  497MOL0     H67081   0.836   7.060   6.939  1.1289 -0.1650 -2.0098
  497MOL0     H67082   1.060   7.057   7.025  3.1515 -0.9480  0.9125
  497MOL0     H67083   1.476   6.778   6.954  3.7658  1.1072 -0.7755
  497MOL0     H67084   1.714   6.760   7.015  0.3204  0.2574  1.0426
  497MOL0     H67085   1.830   6.848   7.444  0.1787  0.2628  1.1700
  497MOL0     H67086   1.804   6.671   7.418 -2.4105  1.3022  0.5275
  497MOL0     H67087   2.007   6.646   7.320 -1.7917 -1.0486  1.0454
  497MOL0     H67088   2.042   6.725   7.475 -1.1086 -1.4292 -0.6268
  497MOL0     H67089   2.058   6.845   7.205 -2.0259 -0.1003  1.2842
  497MOL0     H67090   2.195   6.817   7.326  0.6407  1.2493  2.6891
  497MOL0     H67091   2.128   6.960   7.479  1.6998 -1.6310  0.1889
  497MOL0     H67092   1.969   7.004   7.408 -0.5765 -3.6927  3.9959
  497MOL0     H67093   2.252   7.212   7.174  4.1125 -0.0252  3.1265
  497MOL0     H67094   1.615   6.840   7.418  0.5773 -0.4294  1.7949
  497MOL0     H67095   1.372   6.856   7.365  0.2862  1.2211  0.6347
  498MOL0     O67096   4.522   0.729   9.691  0.0276  0.4259  0.5744
  498MOL0     C67097   4.498   0.666   9.588 -0.0502 -0.6922 -0.5824
  498MOL0     O67098   4.370   0.654   9.536  0.6019 -0.0687 -0.2756
  498MOL0     C67099   4.252   0.697   9.594  0.0453  0.4115 -0.4144
  498MOL0     C67100   4.133   0.645   9.529 -0.6743 -0.9421  0.0893
  498MOL0     C67101   4.000   0.672   9.588 -0.2367 -0.6735  0.6880
  498MOL0     C67102   3.988   0.751   9.701 -0.3501 -0.2385  0.3651
  498MOL0     O67103   3.863   0.785   9.747  0.9775  1.0146  0.7704
  498MOL0     C67104   3.768   0.676   9.775 -0.0793 -0.2561 -0.4634
  498MOL0     C67105   3.669   0.719   9.873 -0.7518  0.9509 -0.5133
  498MOL0     C67106   3.564   0.607   9.894 -0.0647 -0.5668  0.2196
  498MOL0     C67107   3.467   0.650  10.003  0.0225 -0.0297  0.0984
  498MOL0     C67108   3.357   0.553  10.012 -0.4411  0.8485 -1.4139
  498MOL0     C67109   3.250   0.574   9.913  0.2234  0.4318 -0.4203
  498MOL0     C67110   3.136   0.479   9.935  0.3737 -0.1606  0.2280
  498MOL0     C67111   3.070   0.457   9.794 -0.2096 -0.2884  0.2217
  498MOL0     N67112   2.991   0.559   9.731  0.4508 -0.0005 -0.4721
  498MOL0     C67113   2.919   0.659   9.791 -0.1491 -0.9003  0.9495
  498MOL0     C67114   2.855   0.731   9.690 -0.1610  0.1247 -0.8870
  498MOL0     C67115   2.757   0.842   9.701 -0.5688 -0.1081  0.2351
  498MOL0     C67116   2.688   0.879   9.575  0.6179 -0.1084  1.1756
  498MOL0     C67117   2.585   0.991   9.607 -0.1326 -0.4450 -0.7908
  498MOL0     C67118   2.605   1.097   9.716 -0.1555 -0.1168  0.4000
  498MOL0     O67119   2.496   1.181   9.723  0.2052  0.1126 -0.5211
  498MOL0     C67120   2.461   1.191   9.859  0.1261 -1.1538  0.3451
  498MOL0     C67121   2.467   1.314   9.925 -0.4778 -0.1327 -0.7672
  498MOL0     C67122   2.412   1.327  10.051  0.3625  0.3408 -0.3633
  498MOL0     C67123   2.409   1.470  10.104  1.4294 -0.4392  0.3972
  498MOL0     C67124   2.375   1.221  10.132 -0.8727 -0.2618 -1.0373
  498MOL0     C67125   2.317   1.230  10.270 -0.6908 -0.0254  1.1350
  498MOL0     O67126   2.250   1.333  10.311  0.6511  0.6382 -0.1001
  498MOL0     C67127   2.161   1.318  10.423  0.3978 -0.5041  0.1304
  498MOL0     C67128   2.188   1.378  10.539  0.9796 -0.0533  0.1194
  498MOL0     C67129   2.089   1.385  10.640 -0.2549  0.7231  0.2556
  498MOL0     C67130   1.963   1.330  10.614 -0.0981  0.5698 -0.7581
  498MOL0     O67131   1.853   1.327  10.698 -0.2443 -0.3260 -0.1346
  498MOL0     C67132   1.861   1.415  10.808  0.4891 -0.2762  0.0294
  498MOL0     C67133   1.807   1.564  10.786 -0.8715 -0.2461 -1.2342
  498MOL0     C67134   1.686   1.575  10.690  1.0785  0.7910 -0.3639
  498MOL0     C67135   1.571   1.509  10.767 -0.1750 -0.1687 -0.6182
  498MOL0     C67136   1.445   1.526  10.682 -0.2568 -0.1511  0.0880
  498MOL0     C67137   1.389   1.663  10.688  0.1997 -0.2035  0.9189
  498MOL0     C67138   1.273   1.677  10.586 -0.5035 -0.5083 -0.2217
  498MOL0     C67139   1.143   1.627  10.647  0.9519 -0.5225 -0.0427
  498MOL0    Cl67140   1.009   1.649  10.531 -0.1612  0.0168 -0.0588
  498MOL0     C67141   1.951   1.251  10.498  0.9054  0.0768 -0.1476
  498MOL0     C67142   2.037   1.261  10.392 -0.7781  0.1148 -0.4946
  498MOL0     O67143   2.359   1.140  10.350  0.0997 -0.2125  0.5373
  498MOL0     C67144   2.388   1.095  10.074  0.4613 -0.2492 -0.2347
  498MOL0     C67145   2.422   1.075   9.936  0.2180  0.8470  0.8201
  498MOL0     N67146   2.898   0.670   9.572 -0.4526 -0.0437 -0.0689
  498MOL0     N67147   2.971   0.568   9.600 -0.4493  0.4716  1.0157
  498MOL0     C67148   4.106   0.815   9.754  0.4006 -0.3720  0.5705
  498MOL0     C67149   4.234   0.791   9.703 -0.2415 -0.6801  0.7933
  498MOL0     C67150   4.614   0.605   9.517  0.1053  1.5941  0.1072
  498MOL0     C67151   4.578   0.546   9.391 -0.1307  0.2584 -0.8859
  498MOL0     C67152   4.674   0.478   9.317 -0.6818 -0.4486 -0.1151
  498MOL0     C67153   4.804   0.471   9.362 -0.4226  0.7824  0.6005
  498MOL0     O67154   4.907   0.423   9.283 -0.1786 -0.1102  0.2014
  498MOL0     C67155   4.892   0.404   9.142  0.1699  0.0932 -0.2159
  498MOL0     C67156   5.022   0.345   9.084  0.0546 -0.1942 -0.1691
  498MOL0     C67157   5.041   0.193   9.119 -0.1507 -0.1086 -0.5205
  498MOL0     C67158   5.180   0.162   9.072  0.0493 -0.4751 -0.0128
  498MOL0     C67159   5.224   0.022   9.087  0.5411 -0.6346 -0.3595
  498MOL0     C67160   5.259  -0.095   9.077  0.2592  0.6696 -1.1744
  498MOL0     C67161   4.833   0.527   9.486  0.5262 -1.1798 -0.2548
  498MOL0     C67162   4.745   0.598   9.564  0.6040  0.9395  0.2586
  498MOL0     H67163   4.155   0.584   9.442 -3.6011  2.6581 -3.5637
  498MOL0     H67164   3.912   0.639   9.535  0.9617  0.9729 -2.6471
  498MOL0     H67165   3.706   0.655   9.687 -2.4906 -0.5292  1.1881
  498MOL0     H67166   3.821   0.589   9.814 -1.3644 -0.2817  1.3528
  498MOL0     H67167   3.719   0.732   9.969 -1.6738  5.2854 -0.4181
  498MOL0     H67168   3.627   0.819   9.863 -0.5171  1.2025  0.8692
  498MOL0     H67169   3.516   0.585   9.798 -1.5772  1.8705  0.3547
  498MOL0     H67170   3.602   0.514   9.938 -1.0339 -1.5279 -0.8964
  498MOL0     H67171   3.523   0.637  10.096 -0.9028 -4.3910  0.2568
  498MOL0     H67172   3.446   0.756   9.986 -0.2725 -0.0910  0.0794
  498MOL0     H67173   3.407   0.457   9.994  3.0491  1.3267  3.5669
  498MOL0     H67174   3.315   0.556  10.113  0.6775 -2.3539 -0.7267
  498MOL0     H67175   3.207   0.673   9.930 -0.2014  0.1423  0.2724
  498MOL0     H67176   3.284   0.571   9.809 -1.3951  0.9827 -0.9936
  498MOL0     H67177   3.173   0.384   9.977 -0.0268 -0.5848 -0.3700
  498MOL0     H67178   3.068   0.521  10.010  1.1047  1.0326  0.2503
  498MOL0     H67179   3.003   0.370   9.795 -2.6700  1.2605 -4.3122
  498MOL0     H67180   3.148   0.422   9.725  2.5843 -0.8243  3.3717
  498MOL0     H67181   2.909   0.679   9.897  2.6831  1.2446  0.9489
  498MOL0     H67182   2.670   0.801   9.754  0.0416 -0.1337  1.2342
  498MOL0     H67183   2.801   0.929   9.749 -0.7461  1.4625 -2.2890
  498MOL0     H67184   2.637   0.803   9.516  2.2469  1.0208 -1.9194
  498MOL0     H67185   2.758   0.925   9.505 -2.4453  0.3844 -1.8203
  498MOL0     H67186   2.499   0.935   9.645  0.7828 -0.9856  0.5351
  498MOL0     H67187   2.563   1.049   9.517  2.9829  2.5576  0.1516
  498MOL0     H67188   2.695   1.152   9.684  0.9879 -2.1210  0.0160
  498MOL0     H67189   2.635   1.048   9.809  1.3993  2.7767  1.5485
  498MOL0     H67190   2.510   1.406   9.889  3.1733  0.0711  3.3437
  498MOL0     H67191   2.505   1.520  10.088  0.3097  2.0791  1.2141
  498MOL0     H67192   2.335   1.515  10.038 -1.2970 -3.3443  1.2532
  498MOL0     H67193   2.377   1.491  10.206  0.4640  3.4047 -0.5531
  498MOL0     H67194   2.277   1.436  10.561 -1.0188  2.6023  1.9775
  498MOL0     H67195   2.100   1.445  10.730 -1.8342 -1.0335  1.6929
  498MOL0     H67196   1.803   1.363  10.884  0.2507 -0.1209 -0.0422
  498MOL0     H67197   1.959   1.426  10.855 -1.3343  2.2252  3.7182
  498MOL0     H67198   1.792   1.607  10.886  1.5768  0.5974 -1.1650
  498MOL0     H67199   1.884   1.624  10.738  1.7546 -1.3252  1.3456
  498MOL0     H67200   1.699   1.517  10.598 -0.1211  0.1017 -0.1305
  498MOL0     H67201   1.675   1.682  10.668  0.1709  0.5370 -1.2171
  498MOL0     H67202   1.593   1.403  10.785 -2.0913 -0.4862  0.0715
  498MOL0     H67203   1.559   1.558  10.864  0.1882 -0.9369 -0.1708
  498MOL0     H67204   1.364   1.465  10.723 -0.0472  0.3024  1.2405
  498MOL0     H67205   1.461   1.489  10.581  3.3114  0.0932  0.4338
  498MOL0     H67206   1.360   1.686  10.790 -1.5574  1.4469  0.1032
  498MOL0     H67207   1.469   1.736  10.669  2.5042 -3.1430 -2.0389
  498MOL0     H67208   1.284   1.624  10.491 -2.1614  0.4802 -1.0253
  498MOL0     H67209   1.263   1.784  10.563  0.8892 -0.0320  1.1945
  498MOL0     H67210   1.112   1.684  10.735  0.6695  1.2236 -1.1999
  498MOL0     H67211   1.156   1.522  10.672  0.3128 -1.6119 -3.6430
  498MOL0     H67212   1.851   1.210  10.488 -0.0381  1.3200  2.8462
  498MOL0     H67213   2.020   1.213  10.296  0.7332 -4.4899  1.2505
  498MOL0     H67214   2.351   1.010  10.131  0.0908  1.6004  2.4567
  498MOL0     H67215   2.417   0.977   9.891  1.2866  1.5659 -1.0071
  498MOL0     H67216   4.097   0.884   9.837 -0.4082 -0.3564  0.4756
  498MOL0     H67217   4.315   0.853   9.740  0.2480 -0.3643 -0.7546
  498MOL0     H67218   4.480   0.564   9.347 -0.8730 -3.5187 -1.1304
  498MOL0     H67219   4.644   0.461   9.214 -2.0226 -2.5120  0.5463
  498MOL0     H67220   4.810   0.336   9.117  0.3482 -0.1940 -0.0361
  498MOL0     H67221   4.869   0.499   9.094  0.9797  0.2480 -0.3198
  498MOL0     H67222   5.102   0.410   9.118 -2.1412  2.6916 -0.1189
  498MOL0     H67223   5.016   0.348   8.974  2.4984 -1.4667 -0.4046
  498MOL0     H67224   4.969   0.129   9.067  0.4805 -0.6514 -0.7417
  498MOL0     H67225   5.034   0.179   9.227 -1.4018  0.4030 -0.5153
  498MOL0     H67226   5.248   0.216   9.139 -2.8833 -0.3959  3.1725
  498MOL0     H67227   5.194   0.188   8.967 -1.1734 -0.1975 -0.1232
  498MOL0     H67228   5.289  -0.197   9.061  3.2871  1.8213 -3.7743
  498MOL0     H67229   4.936   0.531   9.519  0.1857 -1.7210  0.9478
  498MOL0     H67230   4.772   0.635   9.663  0.6260  2.3909 -0.2602
  499MOL0     O67231   4.827   2.086   1.645  0.1049 -0.8378  0.0609
  499MOL0     C67232   4.739   2.170   1.654 -0.3524 -0.7827 -0.3373
  499MOL0     O67233   4.763   2.287   1.716  0.2945  0.0830  0.2405
  499MOL0     C67234   4.888   2.335   1.747  0.4417 -0.0905  0.1599
  499MOL0     C67235   4.905   2.389   1.874  0.2698 -1.3530  0.5858
  499MOL0     C67236   5.028   2.434   1.918 -0.3557  0.0719 -0.1683
  499MOL0     C67237   5.146   2.429   1.843  0.4075 -0.1435 -0.3523
  499MOL0     O67238   5.260   2.478   1.904  0.4815  0.3327  0.0562
  499MOL0     C67239   5.373   2.466   1.819 -1.1697 -1.1020 -1.0583
  499MOL0     C67240   5.486   2.521   1.898  0.0210 -0.4773  1.4387
  499MOL0     C67241   5.558   2.415   1.978 -0.6353  1.1685 -0.6221
  499MOL0     C67242   5.628   2.472   2.105  0.2328 -0.4596  0.6348
  499MOL0     C67243   5.768   2.522   2.067 -0.3854 -0.4259  0.3621
  499MOL0     C67244   5.866   2.550   2.186 -0.4845  0.5943  0.0322
  499MOL0     C67245   5.906   2.413   2.246 -1.2709 -0.1239  0.0541
  499MOL0     C67246   6.017   2.421   2.356 -0.0982 -0.4925 -0.0344
  499MOL0     N67247   6.094   2.300   2.368 -1.1301  1.1404 -0.1355
  499MOL0     C67248   6.065   2.174   2.416  0.3359 -0.0525  0.2270
  499MOL0     C67249   6.166   2.085   2.377  0.5994  0.3776 -0.7104
  499MOL0     C67250   6.178   1.939   2.407  0.9309 -0.3091 -0.1570
  499MOL0     C67251   6.121   1.849   2.295 -0.0626 -1.0441 -0.2533
  499MOL0     C67252   6.150   1.704   2.321  0.4197  0.3959  0.8614
  499MOL0     C67253   6.073   1.614   2.212  0.8225  0.2878 -0.3067
  499MOL0     O67254   6.061   1.474   2.252  1.1446  0.0143 -0.3855
  499MOL0     C67255   5.979   1.389   2.192 -0.4778  0.3357  0.0583
  499MOL0     C67256   6.025   1.255   2.190  0.4129 -0.7805 -0.2527
  499MOL0     C67257   5.939   1.152   2.143  0.7602 -0.6433  0.3271
  499MOL0     C67258   5.975   1.002   2.169  0.0849  0.0994 -0.1993
  499MOL0     C67259   5.826   1.193   2.063 -0.0526 -0.0218 -0.4596
  499MOL0     C67260   5.746   1.092   1.983 -0.5245  0.1126  0.0565
  499MOL0     O67261   5.770   0.954   1.993 -0.4721  0.7664  0.2412
  499MOL0     C67262   5.684   0.859   1.939 -0.2237  0.0301 -0.2838
  499MOL0     C67263   5.709   0.737   1.993 -0.2068  0.2965 -0.0222
  499MOL0     C67264   5.636   0.624   1.957 -0.6289  0.1500 -0.7759
  499MOL0     C67265   5.536   0.632   1.860 -0.3177 -0.1636 -0.1479
  499MOL0     O67266   5.483   0.511   1.821 -0.0280  0.8755  0.5770
  499MOL0     C67267   5.374   0.509   1.728  0.5292 -0.0446  0.2736
  499MOL0     C67268   5.249   0.543   1.795  0.0435  0.1804  0.0933
  499MOL0     C67269   5.128   0.507   1.708  0.0884 -0.8523 -0.4373
  499MOL0     C67270   5.057   0.382   1.744 -0.0074 -0.5672 -0.7832
  499MOL0     C67271   4.932   0.371   1.660  0.8150 -0.8700 -0.4195
  499MOL0     C67272   4.882   0.230   1.657 -0.0561 -0.4734 -1.2904
  499MOL0     C67273   4.880   0.162   1.803 -0.3114  0.6341  1.3096
  499MOL0     C67274   4.754   0.065   1.805  0.2267  0.4527  0.0156
  499MOL0    Cl67275   4.678   0.075   1.978  0.1380 -0.1126  0.2488
  499MOL0     C67276   5.498   0.757   1.800 -0.3689  0.1028 -0.3779
  499MOL0     C67277   5.580   0.875   1.842  0.5771 -0.1844 -0.1872
  499MOL0     O67278   5.655   1.145   1.921  0.2907  1.0053  0.0673
  499MOL0     C67279   5.801   1.327   2.042 -0.3446  0.5490  0.0223
  499MOL0     C67280   5.868   1.422   2.119  0.5266 -0.2054  0.5555
  499MOL0     N67281   6.260   2.160   2.306  0.8490 -0.9575 -0.9085
  499MOL0     N67282   6.217   2.285   2.306  0.2291  0.1200 -0.8239
  499MOL0     C67283   5.133   2.379   1.705  0.0517  0.0489 -0.6146
  499MOL0     C67284   5.008   2.331   1.660  0.8958 -0.3190  0.4874
  499MOL0     C67285   4.605   2.148   1.610  0.6904 -0.1054  0.1394
  499MOL0     C67286   4.494   2.190   1.674  1.0406  0.0716  0.0896
  499MOL0     C67287   4.366   2.141   1.633 -0.1029 -0.4833 -0.0577
  499MOL0     C67288   4.352   2.035   1.537  0.2053  0.3236  0.2497
  499MOL0     O67289   4.225   1.989   1.495 -0.2489 -0.3522 -0.3921
  499MOL0     C67290   4.233   1.865   1.428  0.4962 -0.0582 -0.2167
  499MOL0     C67291   4.082   1.836   1.379  0.1280  0.1591  0.4785
  499MOL0     C67292   4.029   1.945   1.283 -0.2046  0.1356 -0.4753
  499MOL0     C67293   3.886   1.928   1.235  0.8267  0.4704 -0.4083
  499MOL0     C67294   3.875   1.830   1.125 -0.0680 -0.4490  0.1780
  499MOL0     C67295   3.870   1.766   1.021 -0.3318 -0.3565 -0.1515
  499MOL0     C67296   4.470   1.994   1.476 -0.8352  0.4133  0.0479
  499MOL0     C67297   4.593   2.059   1.499  0.2176 -0.9944  0.5105
  499MOL0     H67298   4.820   2.405   1.940 -0.5318  0.3685 -0.7765
  499MOL0     H67299   5.030   2.472   2.020  1.7709 -3.6805  1.4105
  499MOL0     H67300   5.392   2.360   1.802 -2.4082 -1.0363 -3.1298
  499MOL0     H67301   5.370   2.519   1.724 -2.2486 -2.7494 -1.9922
  499MOL0     H67302   5.563   2.572   1.838  2.6762 -3.0843  2.3669
  499MOL0     H67303   5.445   2.601   1.961  0.3290  0.2760  0.6968
  499MOL0     H67304   5.485   2.339   2.006  0.0781  0.5469 -0.4225
  499MOL0     H67305   5.634   2.363   1.918 -0.8901 -1.1318  0.9139
  499MOL0     H67306   5.567   2.553   2.146  0.1712 -0.1704 -0.0293
  499MOL0     H67307   5.637   2.395   2.182 -1.3289  1.2564  2.6636
  499MOL0     H67308   5.811   2.452   1.995  1.5612  1.0626 -0.0184
  499MOL0     H67309   5.755   2.613   2.008 -0.7248 -0.5894  0.1792
  499MOL0     H67310   5.954   2.609   2.160  0.3703 -0.3085  0.8025
  499MOL0     H67311   5.807   2.605   2.260  1.3119  1.0307  1.2131
  499MOL0     H67312   5.817   2.362   2.285 -2.7193  1.2556 -1.3200
  499MOL0     H67313   5.949   2.345   2.172  0.5747  1.1215 -0.0811
  499MOL0     H67314   5.979   2.451   2.455 -2.2783 -1.4691 -0.5090
  499MOL0     H67315   6.092   2.495   2.326  1.0094 -1.4552  0.2769
  499MOL0     H67316   5.975   2.148   2.472 -0.0776 -1.5821 -1.0934
  499MOL0     H67317   6.281   1.917   2.436  2.2591  1.1606 -3.2898
  499MOL0     H67318   6.112   1.924   2.494 -2.2505  1.6431 -2.0188
  499MOL0     H67319   6.172   1.894   2.209 -3.3151  1.9400 -0.8532
  499MOL0     H67320   6.014   1.872   2.288 -0.4753 -3.1945 -3.2514
  499MOL0     H67321   6.104   1.686   2.418 -1.4404  0.1963 -0.0072
  499MOL0     H67322   6.254   1.673   2.335 -0.1995 -3.0634 -1.0646
  499MOL0     H67323   6.103   1.612   2.107 -0.8445  1.2329 -0.8374
  499MOL0     H67324   5.975   1.662   2.211  1.2955  1.3637  0.9515
  499MOL0     H67325   6.120   1.230   2.238 -0.3048 -0.6954  1.2756
  499MOL0     H67326   5.989   0.945   2.077 -2.0943  0.3795 -0.7776
  499MOL0     H67327   6.070   1.005   2.223  0.0284 -1.1329  0.0092
  499MOL0     H67328   5.903   0.952   2.235 -0.5029 -0.5825 -1.3385
  499MOL0     H67329   5.784   0.720   2.070  0.4553 -1.3712 -0.9995
  499MOL0     H67330   5.660   0.523   1.989 -0.5632  0.3887 -0.0284
  499MOL0     H67331   5.397   0.575   1.644  0.6742  0.6582  0.8565
  499MOL0     H67332   5.358   0.416   1.674 -0.9875  1.0152 -1.1768
  499MOL0     H67333   5.231   0.484   1.886  1.4448 -0.2789  0.1031
  499MOL0     H67334   5.251   0.649   1.822 -2.3768  0.5027 -0.7551
  499MOL0     H67335   5.150   0.502   1.601 -0.5571  1.8433 -0.7780
  499MOL0     H67336   5.054   0.586   1.723 -1.8793 -2.6112 -0.3944
  499MOL0     H67337   5.126   0.298   1.738  2.2482  1.1022  0.4630
  499MOL0     H67338   5.020   0.389   1.846  0.9448 -0.9094 -0.4068
  499MOL0     H67339   4.938   0.395   1.554 -1.8429 -0.9310 -0.6511
  499MOL0     H67340   4.851   0.431   1.704 -1.4682 -0.8427 -4.2177
  499MOL0     H67341   4.787   0.234   1.603 -0.9879  0.6615  0.3017
  499MOL0     H67342   4.953   0.166   1.605  0.5360  1.0739 -2.4370
  499MOL0     H67343   4.873   0.236   1.884  0.8797  1.6541  0.5014
  499MOL0     H67344   4.969   0.104   1.831  1.2768  2.3569  0.0254
  499MOL0     H67345   4.789  -0.034   1.774  0.6655  0.8976 -0.9780
  499MOL0     H67346   4.673   0.086   1.734 -0.2048 -1.9090 -0.2902
  499MOL0     H67347   5.421   0.766   1.724 -0.5292 -0.3951 -0.2804
  499MOL0     H67348   5.549   0.969   1.799  0.1655 -0.7692 -1.1991
  499MOL0     H67349   5.719   1.365   1.982  0.4606  4.0276  0.9340
  499MOL0     H67350   5.831   1.523   2.116  0.4464 -0.2382  0.4291
  499MOL0     H67351   5.216   2.391   1.637  0.6794  0.6084  0.2234
  499MOL0     H67352   5.007   2.286   1.561  1.3376  0.3933  0.1509
  499MOL0     H67353   4.498   2.264   1.753 -0.8958 -0.0483  0.3518
  499MOL0     H67354   4.270   2.181   1.666  1.3041  0.9943  2.5930
  499MOL0     H67355   4.298   1.868   1.340  1.2372  3.7597  0.2474
  499MOL0     H67356   4.271   1.792   1.499  1.7475  0.5871 -0.1984
  499MOL0     H67357   4.025   1.828   1.472  1.2425 -2.0655  1.0416
  499MOL0     H67358   4.077   1.741   1.324  0.8251  1.1247 -1.3221
  499MOL0     H67359   4.081   1.953   1.186  1.7227  3.9068  0.6622
  499MOL0     H67360   4.025   2.041   1.335 -0.1312 -0.5005  0.7243
  499MOL0     H67361   3.852   2.030   1.216  1.7410  1.4741  2.8079
  499MOL0     H67362   3.817   1.893   1.312 -0.0844  3.7620  0.3995
  499MOL0     H67363   3.866   1.710   0.929  1.8108 -2.3730  0.8868
  499MOL0     H67364   4.469   1.907   1.410 -1.4633  0.5585 -0.1333
  499MOL0     H67365   4.676   2.041   1.432 -0.8411 -1.5317 -0.6887
  500MOL0     O67366   3.330   7.023   8.654 -0.2936  0.1060 -0.1597
  500MOL0     C67367   3.419   6.956   8.603 -0.5449  0.0469  0.0838
  500MOL0     O67368   3.403   6.854   8.518 -0.4406  0.7498 -0.4339
  500MOL0     C67369   3.283   6.802   8.480 -0.8709 -0.1570  0.2984
  500MOL0     C67370   3.166   6.796   8.558 -0.2908  0.4278  0.1946
  500MOL0     C67371   3.058   6.729   8.504  0.0717  0.2695 -0.1473
  500MOL0     C67372   3.045   6.674   8.377 -0.0066  0.8395 -0.5085
  500MOL0     O67373   2.928   6.603   8.342 -0.2766  0.6167  0.1504
  500MOL0     C67374   2.812   6.666   8.379  0.1217 -0.1020  0.5973
  500MOL0     C67375   2.709   6.635   8.276 -1.0167  0.3312  0.0626
  500MOL0     C67376   2.585   6.726   8.291 -0.2043 -0.0726 -0.2693
  500MOL0     C67377   2.472   6.663   8.213  0.3110  0.6367  0.4614
  500MOL0     C67378   2.338   6.750   8.213 -0.0745  0.1019 -0.5166
  500MOL0     C67379   2.221   6.687   8.130 -0.0018 -0.2173  0.2926
  500MOL0     C67380   2.104   6.789   8.105 -0.1024 -0.0409  0.1421
  500MOL0     C67381   2.053   6.866   8.227  0.7589 -0.3243  0.2915
  500MOL0     N67382   1.927   6.934   8.188  0.0165  0.6109  0.1535
  500MOL0     C67383   1.825   6.893   8.106  0.0573 -0.3727  0.6785
  500MOL0     C67384   1.734   6.995   8.089 -0.0638  0.0753 -0.1299
  500MOL0     C67385   1.609   6.992   8.010 -0.1592 -0.3976  0.0569
  500MOL0     C67386   1.510   6.879   8.035  0.6892 -0.3724 -0.4868
  500MOL0     C67387   1.390   6.894   7.945  1.2300  0.0676  0.1388
  500MOL0     C67388   1.327   6.757   7.936 -0.4844 -0.3482 -0.1393
  500MOL0     O67389   1.271   6.722   8.058 -0.3087  1.0923  0.5930
  500MOL0     C67390   1.142   6.764   8.096 -0.0117 -0.8891 -0.6306
  500MOL0     C67391   1.092   6.732   8.227  0.3596 -0.5973  0.7265
  500MOL0     C67392   0.961   6.772   8.271  0.2992  0.0500 -1.0739
  500MOL0     C67393   0.910   6.727   8.407  0.0678  0.2652 -0.3320
  500MOL0     C67394   0.881   6.859   8.193  0.1841  0.0663 -0.5121
  500MOL0     C67395   0.746   6.909   8.240 -0.5131  0.0422 -0.3255
  500MOL0     O67396   0.736   6.956   8.370 -0.3827  0.1684 -0.0468
  500MOL0     C67397   0.620   7.029   8.398 -0.4226  0.5308  0.8548
  500MOL0     C67398   0.604   7.163   8.367 -0.4327  0.3991 -0.1688
  500MOL0     C67399   0.480   7.223   8.375  0.1298  0.4516  0.1010
  500MOL0     C67400   0.361   7.158   8.416  1.1247  0.5397 -0.1412
  500MOL0     O67401   0.227   7.207   8.422 -0.3385 -0.4112 -0.7578
  500MOL0     C67402   0.192   7.313   8.321 -0.1851  0.2295  0.3069
  500MOL0     C67403   0.042   7.346   8.336 -0.3000  0.6338 -0.7266
  500MOL0     C67404  -0.012   7.429   8.225 -0.3869  0.4713 -0.1319
  500MOL0     C67405  -0.131   7.505   8.258  0.1565  0.9157 -0.7324
  500MOL0     C67406  -0.168   7.590   8.128 -0.1066  0.1398  0.1135
  500MOL0     C67407  -0.311   7.649   8.158 -0.1514  0.1743  0.1833
  500MOL0     C67408  -0.388   7.692   8.034 -0.5090 -0.4187  0.7318
  500MOL0     C67409  -0.325   7.806   7.963 -0.5574  0.2634 -0.4326
  500MOL0    Cl67410  -0.440   7.847   7.839 -0.0965  0.6217 -0.0129
  500MOL0     C67411   0.380   7.027   8.468 -0.1242 -1.0021  0.0639
  500MOL0     C67412   0.504   6.967   8.453  0.8710 -0.3446  0.1780
  500MOL0     O67413   0.650   6.899   8.160 -0.7845  0.2045  0.0859
  500MOL0     C67414   0.927   6.884   8.072  0.5867  0.3318 -0.2618
  500MOL0     C67415   1.054   6.849   8.020  0.8515 -1.0998  0.1372
  500MOL0     N67416   1.788   7.106   8.160  0.3376  0.4405  0.0355
  500MOL0     N67417   1.890   7.064   8.228  0.9881 -0.4351 -0.3684
  500MOL0     C67418   3.170   6.673   8.303  0.2717  0.0240 -0.1328
  500MOL0     C67419   3.286   6.732   8.357 -0.2297  0.4164 -0.8872
  500MOL0     C67420   3.556   6.989   8.638 -0.2194  0.1586 -0.0901
  500MOL0     C67421   3.577   7.093   8.732  0.4052  0.5737  0.7518
  500MOL0     C67422   3.707   7.119   8.774  0.1466  0.0599  1.0988
  500MOL0     C67423   3.818   7.056   8.710  0.8263 -0.0139 -0.2732
  500MOL0     O67424   3.949   7.083   8.752  0.3098 -0.1651  0.0297
  500MOL0     C67425   3.982   7.191   8.836  1.1269  0.1478 -0.3565
  500MOL0     C67426   4.119   7.226   8.831  1.2452 -0.0970  0.8581
  500MOL0     C67427   4.208   7.130   8.906  0.5369  0.1332 -0.3716
  500MOL0     C67428   4.348   7.189   8.899 -0.7035  0.2068  0.5517
  500MOL0     C67429   4.363   7.285   9.006 -0.6249 -0.6879 -0.2666
  500MOL0     C67430   4.373   7.368   9.098 -0.0801  0.2156  0.1085
  500MOL0     C67431   3.796   6.961   8.608  0.0933  0.2992  0.5445
  500MOL0     C67432   3.666   6.926   8.577  0.1350  0.3406  0.2739
  500MOL0     H67433   3.173   6.832   8.660  0.7968 -0.7869  0.5806
  500MOL0     H67434   2.966   6.737   8.562 -3.0465  1.4220 -4.6262
  500MOL0     H67435   2.783   6.642   8.482 -2.0040  1.4047  0.4175
  500MOL0     H67436   2.824   6.774   8.387 -0.1689 -0.1607  2.2614
  500MOL0     H67437   2.747   6.651   8.174 -1.0811  1.9502  0.2765
  500MOL0     H67438   2.674   6.534   8.298 -2.8479  0.4534 -1.9278
  500MOL0     H67439   2.560   6.736   8.397  2.8244 -1.3212  0.6769
  500MOL0     H67440   2.603   6.827   8.254 -0.3285 -0.5172 -1.5661
  500MOL0     H67441   2.507   6.666   8.109  0.2113 -4.1938  0.0773
  500MOL0     H67442   2.457   6.557   8.232  0.6310  0.5139  0.0430
  500MOL0     H67443   2.297   6.761   8.314  0.2688  0.2653 -0.3940
  500MOL0     H67444   2.361   6.852   8.179  4.5778 -0.7533 -0.5550
  500MOL0     H67445   2.262   6.658   8.033  2.2108  0.6247  0.9067
  500MOL0     H67446   2.193   6.594   8.180 -2.1102 -0.5941 -1.4660
  500MOL0     H67447   2.131   6.866   8.032 -3.4448  1.7147  0.5228
  500MOL0     H67448   2.029   6.732   8.049  1.1413 -0.3429 -1.2668
  500MOL0     H67449   2.136   6.928   8.262 -0.7990  1.1452  1.5372
  500MOL0     H67450   2.041   6.788   8.303 -0.3116 -2.0325 -1.5296
  500MOL0     H67451   1.796   6.792   8.078  2.7138 -1.3782  1.1961
  500MOL0     H67452   1.564   7.091   8.018 -1.5197 -0.9838 -0.2027
  500MOL0     H67453   1.653   6.973   7.912  1.1412  2.1411  0.0580
  500MOL0     H67454   1.470   6.876   8.137  0.1686  2.5263 -0.5138
  500MOL0     H67455   1.564   6.786   8.016  3.5895  1.2132 -0.6044
  500MOL0     H67456   1.401   6.934   7.844 -3.6685 -0.1947 -0.7784
  500MOL0     H67457   1.321   6.965   7.993  0.7134 -0.2618 -0.1116
  500MOL0     H67458   1.393   6.675   7.904 -0.7271  0.1193 -1.9373
  500MOL0     H67459   1.258   6.772   7.852 -0.2232 -0.3490 -0.3575
  500MOL0     H67460   1.164   6.686   8.293  1.4132  1.7992  1.3551
  500MOL0     H67461   0.867   6.800   8.477  2.8675  2.4573 -0.7430
  500MOL0     H67462   0.818   6.671   8.386  0.6591 -0.3817 -1.2671
  500MOL0     H67463   0.978   6.672   8.473  0.1467  0.3125 -0.3727
  500MOL0     H67464   0.687   7.226   8.335 -0.1235  0.4361  0.6827
  500MOL0     H67465   0.486   7.325   8.337  0.6294  0.0133 -1.0634
  500MOL0     H67466   0.258   7.397   8.343  0.9344 -1.3388  3.5472
  500MOL0     H67467   0.211   7.277   8.219  0.1512  4.1611 -1.1853
  500MOL0     H67468  -0.003   7.247   8.332  0.3555  0.2918  0.0485
  500MOL0     H67469   0.020   7.388   8.435  0.5693 -2.7841  1.0718
  500MOL0     H67470  -0.029   7.355   8.146 -2.6952  0.0735  0.6473
  500MOL0     H67471   0.065   7.494   8.185  3.2086 -2.5521  1.3025
  500MOL0     H67472  -0.205   7.430   8.287  1.7355 -0.0172  1.1044
  500MOL0     H67473  -0.123   7.561   8.352 -0.9805 -1.3216  0.8117
  500MOL0     H67474  -0.168   7.533   8.035 -0.0305 -2.9560  1.8534
  500MOL0     H67475  -0.094   7.671   8.125 -0.5537  0.6405  1.4713
  500MOL0     H67476  -0.360   7.579   8.226  1.1201 -1.1133 -0.1931
  500MOL0     H67477  -0.301   7.743   8.214  2.3099  0.8750 -1.2825
  500MOL0     H67478  -0.488   7.721   8.066 -0.5169 -0.2545  0.5547
  500MOL0     H67479  -0.382   7.609   7.963  0.0948 -0.5897  0.9718
  500MOL0     H67480  -0.227   7.781   7.922  0.1354 -3.0473  2.7926
  500MOL0     H67481  -0.310   7.888   8.034  3.2507  0.3838 -1.1790
  500MOL0     H67482   0.307   6.955   8.506 -1.1102 -1.0373 -1.7239
  500MOL0     H67483   0.510   6.861   8.473 -1.0222 -0.4760  0.1737
  500MOL0     H67484   0.854   6.937   8.011  0.1264  0.2588  0.2147
  500MOL0     H67485   1.082   6.890   7.924  0.9054 -0.8769  0.2494
  500MOL0     H67486   3.175   6.625   8.206  2.4371  1.1801 -0.6445
  500MOL0     H67487   3.379   6.732   8.302 -0.0309 -1.9411 -0.6639
  500MOL0     H67488   3.493   7.145   8.779 -0.4802  1.3108 -1.5199
  500MOL0     H67489   3.722   7.192   8.853  1.5970  0.0930  0.8218
  500MOL0     H67490   3.922   7.279   8.814  1.5465  0.5119 -0.0537
  500MOL0     H67491   3.950   7.166   8.938 -2.0351  1.3692 -0.9534
  500MOL0     H67492   4.105   7.328   8.869 -0.3910  0.2601 -0.5728
  500MOL0     H67493   4.159   7.226   8.729 -2.5834  1.0532 -0.8211
  500MOL0     H67494   4.200   7.032   8.857  1.0340 -0.0917 -0.0186
  500MOL0     H67495   4.180   7.122   9.011 -2.1185  1.5914 -0.8969
  500MOL0     H67496   4.374   7.233   8.802 -2.3615 -0.7758 -0.3816
  500MOL0     H67497   4.409   7.100   8.919 -0.4916 -0.0408 -1.0566
  500MOL0     H67498   4.395   7.444   9.169 -1.6490  1.0010 -0.2132
  500MOL0     H67499   3.872   6.913   8.547 -0.9707 -1.0835  0.2700
  500MOL0     H67500   3.645   6.861   8.493 -0.5562  2.2951 -1.1307
  501MOL0     O67501   9.387   7.247   5.074 -0.2304  0.0785  0.0548
  501MOL0     C67502   9.503   7.288   5.102 -0.3143 -0.1717  0.5443
  501MOL0     O67503   9.550   7.412   5.060 -0.6408  0.7136  0.3311
  501MOL0     C67504   9.481   7.486   4.967  0.5219  0.2467  0.0253
  501MOL0     C67505   9.359   7.540   5.008 -0.8317 -0.6373 -0.0177
  501MOL0     C67506   9.297   7.628   4.917  0.3727 -0.6643  0.0656
  501MOL0     C67507   9.361   7.663   4.796  1.0607 -0.6659 -1.0943
  501MOL0     O67508   9.304   7.770   4.730 -0.7021  0.5232 -0.5351
  501MOL0     C67509   9.338   7.808   4.598 -0.1636  1.0188 -0.4247
  501MOL0     C67510   9.229   7.909   4.561  0.2354  0.2418  0.1925
  501MOL0     C67511   9.096   7.828   4.564 -0.1386  0.1016 -0.7684
  501MOL0     C67512   8.994   7.907   4.488 -0.6593 -0.4341  0.0264
  501MOL0     C67513   8.845   7.875   4.517 -0.1504  0.3186  0.3260
  501MOL0     C67514   8.749   7.950   4.428  0.2465 -0.1181 -0.1547
  501MOL0     C67515   8.613   7.942   4.504  0.2698 -0.5468 -0.3016
  501MOL0     C67516   8.508   8.016   4.425  0.4067  0.3108  0.6858
  501MOL0     N67517   8.402   7.925   4.394  1.0593  0.2352 -0.6147
  501MOL0     C67518   8.295   7.891   4.480  0.3600  0.2136  0.0336
  501MOL0     C67519   8.232   7.790   4.416 -0.3032  0.2074  0.5735
  501MOL0     C67520   8.119   7.696   4.455 -0.7990 -0.4888  0.0441
  501MOL0     C67521   7.990   7.713   4.370 -0.1571  0.0972 -0.1396
  501MOL0     C67522   7.872   7.619   4.406  0.9778 -0.6960 -1.1339
  501MOL0     C67523   7.764   7.605   4.297  0.6536 -0.4538  0.9360
  501MOL0     O67524   7.665   7.509   4.350 -0.5270 -0.4780  0.3080
  501MOL0     C67525   7.555   7.501   4.271  0.5365 -0.3355 -0.6011
  501MOL0     C67526   7.533   7.562   4.149  0.1474 -0.6508  0.5174
  501MOL0     C67527   7.406   7.541   4.072 -0.2517 -1.0738  0.8526
  501MOL0     C67528   7.396   7.606   3.941  0.0366  0.4017  0.5302
  501MOL0     C67529   7.302   7.465   4.133  0.1667  0.3497  0.4754
  501MOL0     C67530   7.175   7.427   4.062  1.2288  0.2127  0.0030
  501MOL0     O67531   7.104   7.313   4.106 -0.6190  0.2427  0.4469
  501MOL0     C67532   6.979   7.296   4.050  0.3800 -0.3222 -0.3612
  501MOL0     C67533   6.860   7.313   4.119  0.1867 -0.2432 -0.6550
  501MOL0     C67534   6.733   7.287   4.058 -0.0932 -0.2895  0.4545
  501MOL0     C67535   6.723   7.230   3.929  0.3290  0.4326 -0.1924
  501MOL0     O67536   6.610   7.201   3.858  1.0164  0.2763  0.0668
  501MOL0     C67537   6.482   7.241   3.899 -0.3725 -0.3933 -0.3329
  501MOL0     C67538   6.382   7.217   3.782 -0.0759  0.1073  0.7281
  501MOL0     C67539   6.239   7.229   3.828  1.3938 -0.5693  0.0017
  501MOL0     C67540   6.160   7.335   3.746 -0.7961  0.5828 -1.8835
  501MOL0     C67541   6.009   7.321   3.767  0.1929 -0.3133  1.0256
  501MOL0     C67542   5.938   7.422   3.680 -0.2181  0.6839 -0.5244
  501MOL0     C67543   5.802   7.371   3.642 -0.0946  0.3414  0.4861
  501MOL0     C67544   5.758   7.400   3.497 -0.6517  0.1378  0.8449
  501MOL0    Cl67545   5.787   7.571   3.460  0.1982  0.3340  0.2045
  501MOL0     C67546   6.846   7.214   3.860 -1.2693 -0.2275 -0.5634
  501MOL0     C67547   6.974   7.232   3.927  0.6424  0.2927 -1.0803
  501MOL0     O67548   7.133   7.503   3.974 -0.2124 -0.2155  0.5171
  501MOL0     C67549   7.325   7.420   4.264 -0.8777  0.0937  0.0642
  501MOL0     C67550   7.454   7.433   4.332  0.3209  0.0647 -0.1854
  501MOL0     N67551   8.284   7.764   4.288  0.1704  0.2099  0.5821
  501MOL0     N67552   8.384   7.849   4.282 -0.5346 -0.1445 -0.3462
  501MOL0     C67553   9.471   7.600   4.751  0.0557  0.1291  0.9535
  501MOL0     C67554   9.524   7.500   4.838 -0.2544 -0.1995  1.4183
  501MOL0     C67555   9.593   7.202   5.187 -1.1746 -0.8867  1.0584
  501MOL0     C67556   9.550   7.091   5.249  0.0822  0.3367 -0.6283
  501MOL0     C67557   9.639   7.028   5.337  0.4680  0.0938 -0.0564
  501MOL0     C67558   9.771   7.064   5.352 -0.7367  0.2204  0.4620
  501MOL0     O67559   9.861   6.986   5.424  0.1099 -0.1140  0.5619
  501MOL0     C67560   9.815   6.879   5.505 -0.2421 -0.4184 -0.2922
  501MOL0     C67561   9.930   6.847   5.600  0.2130  0.4262 -0.0445
  501MOL0     C67562  10.022   6.743   5.533 -0.9077 -0.3423  0.3444
  501MOL0     C67563  10.128   6.692   5.629  0.3440 -0.3243  0.0550
  501MOL0     C67564  10.161   6.551   5.597  0.4133  0.8432  0.6941
  501MOL0     C67565  10.185   6.439   5.578 -0.2862  0.4917 -0.0700
  501MOL0     C67566   9.818   7.170   5.270  0.1027  0.0273 -1.1329
  501MOL0     C67567   9.735   7.237   5.194 -0.6473  0.8003 -0.7004
  501MOL0     H67568   9.324   7.527   5.111 -0.6809  0.4643  0.1808
  501MOL0     H67569   9.211   7.688   4.946  1.5259  0.3564  1.6056
  501MOL0     H67570   9.435   7.852   4.625 -0.7887  1.5268  1.0902
  501MOL0     H67571   9.344   7.728   4.523 -1.5263  2.2809 -1.9448
  501MOL0     H67572   9.233   7.988   4.637  3.1411 -1.2206  1.6873
  501MOL0     H67573   9.262   7.943   4.462  1.2913 -0.6231  0.2408
  501MOL0     H67574   9.096   7.727   4.522 -2.2022 -0.5708  0.6792
  501MOL0     H67575   9.060   7.802   4.664  0.5213 -0.7950 -0.7564
  501MOL0     H67576   9.021   8.012   4.502 -0.0038 -0.5573 -0.2634
  501MOL0     H67577   9.018   7.901   4.382  2.4320  2.4760  0.3810
  501MOL0     H67578   8.827   7.769   4.495 -1.0828  0.2446  1.3687
  501MOL0     H67579   8.824   7.892   4.623  3.6185  0.6772  1.1569
  501MOL0     H67580   8.783   8.051   4.405 -1.1705 -0.0864 -2.4071
  501MOL0     H67581   8.746   7.892   4.336 -1.6726 -0.3535  0.0168
  501MOL0     H67582   8.578   7.840   4.520 -0.0276 -0.9832 -3.1315
  501MOL0     H67583   8.619   7.994   4.600 -0.5124 -0.1782 -0.4441
  501MOL0     H67584   8.556   8.055   4.335  1.2823  1.5981  1.6823
  501MOL0     H67585   8.476   8.102   4.486  0.5680  2.0194 -1.5293
  501MOL0     H67586   8.267   7.920   4.581 -2.0150  0.3415 -0.5787
  501MOL0     H67587   8.151   7.592   4.467  1.6119  0.4803  3.3004
  501MOL0     H67588   8.090   7.733   4.554 -1.9573  1.1472 -0.8517
  501MOL0     H67589   8.017   7.699   4.265 -0.2662  2.4918 -0.5328
  501MOL0     H67590   7.947   7.813   4.368 -1.4884 -0.4592 -0.8411
  501MOL0     H67591   7.823   7.670   4.489  2.7137  2.1059 -1.7123
  501MOL0     H67592   7.913   7.520   4.428  1.0181 -0.7595 -1.4909
  501MOL0     H67593   7.813   7.584   4.202 -0.0571 -1.3113  0.7411
  501MOL0     H67594   7.718   7.703   4.287  2.7966  0.4277 -1.3036
  501MOL0     H67595   7.610   7.620   4.100 -0.7034  1.3178  1.4082
  501MOL0     H67596   7.411   7.529   3.864  0.7358  0.8504  0.2197
  501MOL0     H67597   7.304   7.663   3.922 -0.8846 -0.6408  1.7015
  501MOL0     H67598   7.479   7.676   3.938  1.2798 -1.0476 -1.6644
  501MOL0     H67599   6.870   7.344   4.222 -0.2517 -3.4676  0.4723
  501MOL0     H67600   6.641   7.311   4.110 -0.3012  1.3706 -0.6023
  501MOL0     H67601   6.452   7.174   3.980  0.8334  1.3798  1.6925
  501MOL0     H67602   6.485   7.345   3.934 -0.0353  0.0473 -1.5974
  501MOL0     H67603   6.408   7.297   3.710  1.2879  2.0798  3.2395
  501MOL0     H67604   6.403   7.131   3.718  0.4385  2.5130 -2.6586
  501MOL0     H67605   6.222   7.235   3.936  1.3307 -2.2934  0.1146
  501MOL0     H67606   6.198   7.131   3.803  1.0551 -1.6443  4.0765
  501MOL0     H67607   6.196   7.432   3.782  1.3331 -0.4664 -1.0054
  501MOL0     H67608   6.176   7.341   3.638  0.6181  0.4179 -1.7023
  501MOL0     H67609   5.992   7.359   3.868  1.7579  5.5156 -0.4698
  501MOL0     H67610   5.979   7.216   3.763 -0.8060 -0.1356  2.7869
  501MOL0     H67611   5.927   7.520   3.727 -0.3779  0.4455 -0.0576
  501MOL0     H67612   5.994   7.429   3.587  0.5958  0.8915 -0.0309
  501MOL0     H67613   5.729   7.415   3.711  0.8133  1.1696  0.9433
  501MOL0     H67614   5.807   7.262   3.651 -1.0628  0.4027  1.9865
  501MOL0     H67615   5.651   7.379   3.486 -0.4883 -0.3764  0.0679
  501MOL0     H67616   5.808   7.339   3.421 -1.1729  0.9415 -0.1689
  501MOL0     H67617   6.839   7.162   3.765 -2.1321 -0.1888 -0.5348
  501MOL0     H67618   7.065   7.223   3.869 -0.2269 -0.5942 -2.3716
  501MOL0     H67619   7.239   7.367   4.305 -1.3946  2.2834  2.0071
  501MOL0     H67620   7.460   7.387   4.430 -1.9982 -0.4332 -0.1958
  501MOL0     H67621   9.525   7.622   4.659 -2.2073 -0.5458 -0.6340
  501MOL0     H67622   9.618   7.458   4.805  0.1018  1.8612 -0.4615
  501MOL0     H67623   9.451   7.050   5.234  1.1319 -1.7636 -2.3481
  501MOL0     H67624   9.608   6.933   5.380 -0.6678  0.4807 -0.0070
  501MOL0     H67625   9.736   6.919   5.568  0.4157 -0.5427  0.6314
  501MOL0     H67626   9.772   6.790   5.457  1.3477 -1.1756 -0.3926
  501MOL0     H67627   9.897   6.802   5.694  0.3075  1.1901  0.3708
  501MOL0     H67628   9.989   6.937   5.622 -0.9695  0.8389  1.7025
  501MOL0     H67629  10.044   6.776   5.431  0.8262 -0.0390  0.7859
  501MOL0     H67630   9.950   6.664   5.512 -0.1452 -0.4367 -2.1689
  501MOL0     H67631  10.102   6.698   5.735  2.3183  1.1914  0.5227
  501MOL0     H67632  10.213   6.760   5.612  1.0609 -1.1862  0.1198
  501MOL0     H67633  10.222   6.340   5.557  0.6137  0.9799 -0.8599
  501MOL0     H67634   9.920   7.206   5.274 -0.1104  0.5274  1.2858
  501MOL0     H67635   9.786   7.312   5.133  2.2425 -1.4358 -1.2401
  502MOL0     O67636  10.894  10.543   9.898  0.1455  1.5017 -0.3884
  502MOL0     C67637  10.922  10.649   9.845  0.0372 -0.4570  0.9423
  502MOL0     O67638  10.854  10.767   9.853 -0.2851 -0.4852 -0.1607
  502MOL0     C67639  10.738  10.770   9.931  1.1971 -0.4141 -0.1204
  502MOL0     C67640  10.719  10.866  10.032 -0.0136 -0.1861 -0.2123
  502MOL0     C67641  10.585  10.883  10.087 -0.1876  0.4531  0.5416
  502MOL0     C67642  10.481  10.805  10.058 -1.1398  0.4530 -0.6853
  502MOL0     O67643  10.356  10.817  10.107  0.2824  0.0737 -0.1751
  502MOL0     C67644  10.311  10.937  10.168  0.6056 -1.3556 -0.0829
  502MOL0     C67645  10.171  10.906  10.226  0.1273 -0.5651  0.5963
  502MOL0     C67646  10.078  10.830  10.120 -0.1251  0.4225 -0.1599
  502MOL0     C67647   9.932  10.857  10.126  0.2611 -0.1614 -0.7869
  502MOL0     C67648   9.883  10.998  10.088 -0.4149 -1.3933  0.7593
  502MOL0     C67649   9.729  11.025  10.109  0.4796  0.4134  0.2931
  502MOL0     C67650   9.685  11.171  10.139  0.1772 -0.7084  1.1651
  502MOL0     C67651   9.653  11.259  10.009 -0.1650 -0.7950 -0.3148
  502MOL0     N67652   9.780  11.303   9.942  0.0904 -0.2762 -0.5026
  502MOL0     C67653   9.849  11.244   9.839  0.1427  0.8861 -0.7678
  502MOL0     C67654   9.962  11.305   9.824  1.3246 -0.6312 -0.0496
  502MOL0     C67655  10.074  11.255   9.745  0.2481 -0.4590 -0.0235
  502MOL0     C67656  10.150  11.135   9.813  0.1710  0.0726 -0.2461
  502MOL0     C67657  10.217  11.047   9.710 -0.1741 -0.0043 -0.1167
  502MOL0     C67658  10.306  11.128   9.630  0.0657  1.0949  0.8539
  502MOL0     O67659  10.377  11.021   9.565  0.8656  0.3175 -0.1619
  502MOL0     C67660  10.493  11.041   9.505  0.2600 -0.1341 -0.2967
  502MOL0     C67661  10.561  10.928   9.478  0.1184  0.3019  0.7573
  502MOL0     C67662  10.686  10.925   9.427  0.6037 -0.5824  0.4607
  502MOL0     C67663  10.733  10.794   9.384  0.1598  0.1982  0.0037
  502MOL0     C67664  10.755  11.051   9.401  0.0423  0.7648 -0.5324
  502MOL0     C67665  10.893  11.064   9.345  0.0422  0.7631  0.3394
  502MOL0     O67666  10.938  11.187   9.309 -0.5847 -0.8835  0.9147
  502MOL0     C67667  11.072  11.207   9.317  0.0949  0.5558  0.0778
  502MOL0     C67668  11.168  11.144   9.234 -0.0259  0.3545 -0.2487
  502MOL0     C67669  11.302  11.169   9.243 -0.0745  0.5228  0.4970
  502MOL0     C67670  11.349  11.261   9.338  0.0773  0.1409  0.8788
  502MOL0     O67671  11.485  11.292   9.351 -0.0966 -0.5167  0.1145
  502MOL0     C67672  11.577  11.266   9.244  1.0869  0.0047  0.0498
  502MOL0     C67673  11.708  11.327   9.277  0.1534  0.0434 -0.1276
  502MOL0     C67674  11.786  11.240   9.375 -0.3334  0.1269 -0.3852
  502MOL0     C67675  11.923  11.291   9.412  0.2132  0.0818 -0.3188
  502MOL0     C67676  12.006  11.190   9.496  0.6057  0.7925  0.0016
  502MOL0     C67677  12.092  11.094   9.410  0.2202  0.0192 -0.4978
  502MOL0     C67678  12.233  11.152   9.394 -0.0494  0.3302  0.2781
  502MOL0     C67679  12.296  11.126   9.254 -1.3029  0.1679  0.0124
  502MOL0    Cl67680  12.329  10.946   9.206 -0.2000  0.0082  0.3456
  502MOL0     C67681  11.253  11.335   9.413  0.4958  0.1381 -0.7933
  502MOL0     C67682  11.117  11.311   9.401 -0.2043  0.3857  0.1520
  502MOL0     O67683  10.956  10.958   9.321  0.7182  0.1780  0.5132
  502MOL0     C67684  10.679  11.174   9.418 -0.6970 -0.2189  0.1540
  502MOL0     C67685  10.554  11.163   9.471  0.3393 -0.3087  1.1181
  502MOL0     N67686   9.970  11.403   9.914  0.4415  0.0770  0.0443
  502MOL0     N67687   9.867  11.402   9.987 -0.9612  0.0530  0.5794
  502MOL0     C67688  10.506  10.694   9.972 -0.7520  0.2887  0.1231
  502MOL0     C67689  10.627  10.686   9.904 -0.6262  0.5754 -0.4514
  502MOL0     C67690  11.034  10.641   9.747 -0.3921  0.3980 -0.5749
  502MOL0     C67691  11.046  10.736   9.644 -0.6062  0.0908  0.5310
  502MOL0     C67692  11.150  10.731   9.551  0.6604  0.6005  0.6822
  502MOL0     C67693  11.237  10.623   9.548  0.0923 -0.9768  1.3573
  502MOL0     O67694  11.350  10.621   9.472  0.6126 -0.2366  0.5798
  502MOL0     C67695  11.424  10.747   9.459  0.8798 -0.2920  0.1728
  502MOL0     C67696  11.562  10.722   9.398  0.3179  0.4683  0.0180
  502MOL0     C67697  11.660  10.648   9.490  0.4720 -0.2806 -1.0669
  502MOL0     C67698  11.794  10.623   9.422 -0.6428 -0.1359 -0.1297
  502MOL0     C67699  11.883  10.520   9.486 -0.0883 -0.0818  0.5059
  502MOL0     C67700  11.968  10.455   9.535 -0.8315  0.6783  0.1343
  502MOL0     C67701  11.218  10.521   9.641  0.4143  0.3126  0.1057
  502MOL0     C67702  11.121  10.528   9.742 -0.1695 -0.8965  0.0972
  502MOL0     H67703  10.794  10.941  10.053  0.1000 -0.8939  2.2323
  502MOL0     H67704  10.572  10.968  10.154 -0.9388  0.4970  0.3525
  502MOL0     H67705  10.374  10.955  10.256  1.5126 -4.0633 -0.0755
  502MOL0     H67706  10.303  11.015  10.092  0.7215 -2.1791 -0.9597
  502MOL0     H67707  10.173  10.856  10.323  0.8763 -0.9277  0.4029
  502MOL0     H67708  10.118  11.000  10.244 -2.7445 -2.0415  0.3692
  502MOL0     H67709  10.114  10.873  10.026  0.4838  3.1641  1.2295
  502MOL0     H67710  10.087  10.722  10.138 -1.1621  0.6143  1.7027
  502MOL0     H67711   9.874  10.787  10.066  0.6355 -1.2737  0.1197
  502MOL0     H67712   9.915  10.843  10.233 -1.3429 -0.2963 -1.0366
  502MOL0     H67713   9.939  11.067  10.153  0.0922 -0.4499 -0.6277
  502MOL0     H67714   9.915  11.028   9.988 -3.0953  1.8932  0.6843
  502MOL0     H67715   9.677  10.980  10.023  2.3606  0.6674 -1.0494
  502MOL0     H67716   9.702  10.959  10.192  2.0852 -1.0274 -0.2637
  502MOL0     H67717   9.587  11.160  10.187  0.1411 -1.7544  0.8621
  502MOL0     H67718   9.756  11.226  10.202 -1.1633 -0.9431  2.9744
  502MOL0     H67719   9.598  11.347  10.043  1.8625 -0.4621  2.4918
  502MOL0     H67720   9.593  11.201   9.939 -4.2595 -0.2508  2.3860
  502MOL0     H67721   9.830  11.144   9.801  1.5137  0.6052 -0.7587
  502MOL0     H67722  10.037  11.227   9.646 -0.8793 -2.7342  0.9699
  502MOL0     H67723  10.131  11.348   9.739  0.9492 -0.8798  0.0475
  502MOL0     H67724  10.081  11.065   9.859 -0.2555 -1.0005 -2.4058
  502MOL0     H67725  10.218  11.178   9.888 -1.1560  2.6341 -0.3797
  502MOL0     H67726  10.141  11.008   9.642 -2.5035 -1.6636  3.1267
  502MOL0     H67727  10.263  10.959   9.755  0.7719 -0.7423 -2.3680
  502MOL0     H67728  10.366  11.187   9.699  0.7950  0.9690  0.3319
  502MOL0     H67729  10.254  11.188   9.554  0.7977 -1.0767 -1.4836
  502MOL0     H67730  10.506  10.836   9.494 -2.1282  1.4752  0.2462
  502MOL0     H67731  10.643  10.731   9.380  0.0106  0.3766  0.5512
  502MOL0     H67732  10.777  10.786   9.284  5.0569 -1.5223  1.9555
  502MOL0     H67733  10.815  10.761   9.449  2.6252  0.2531 -2.8467
  502MOL0     H67734  11.137  11.068   9.164  0.6563  1.0754 -1.3669
  502MOL0     H67735  11.369  11.123   9.171 -0.3097 -1.1177  1.2678
  502MOL0     H67736  11.589  11.160   9.222 -2.8754 -0.6851  0.4758
  502MOL0     H67737  11.541  11.314   9.153  1.2174 -0.5013 -0.2695
  502MOL0     H67738  11.771  11.330   9.188  2.9185 -0.5572  1.6606
  502MOL0     H67739  11.689  11.425   9.322  0.4925 -0.8149  2.0153
  502MOL0     H67740  11.779  11.146   9.319 -0.7309 -0.5392  0.7495
  502MOL0     H67741  11.726  11.231   9.466 -0.8690  0.4326 -0.6952
  502MOL0     H67742  11.969  11.320   9.317 -0.8926  2.6536 -0.1485
  502MOL0     H67743  11.906  11.386   9.463 -1.0017  0.3101 -1.0875
  502MOL0     H67744  11.940  11.134   9.563  1.0814  0.9022  0.5696
  502MOL0     H67745  12.074  11.241   9.564  0.3189 -2.5985  3.1449
  502MOL0     H67746  12.106  11.003   9.470  6.0846 -0.4830 -2.0091
  502MOL0     H67747  12.041  11.067   9.317 -0.7804 -0.3638  0.1440
  502MOL0     H67748  12.287  11.112   9.481 -0.6553  2.7253  1.8424
  502MOL0     H67749  12.232  11.260   9.409  0.8221  0.4093 -0.1946
  502MOL0     H67750  12.390  11.183   9.248 -0.4954 -0.9555  1.4805
  502MOL0     H67751  12.229  11.169   9.179 -1.3437 -0.0873 -0.1006
  502MOL0     H67752  11.277  11.419   9.478  0.3157 -0.9346  0.7115
  502MOL0     H67753  11.051  11.363   9.470  0.5212  0.7449  0.5939
  502MOL0     H67754  10.727  11.268   9.392  1.4079 -0.8676  1.4555
  502MOL0     H67755  10.505  11.259   9.480  2.0149  0.6714  0.2156
  502MOL0     H67756  10.422  10.631   9.947 -1.7661  1.4561  0.4931
  502MOL0     H67757  10.637  10.609   9.829  3.2124  0.1518  0.2918
  502MOL0     H67758  10.964  10.807   9.642  0.0610  0.9303  2.0608
  502MOL0     H67759  11.155  10.812   9.479 -1.9050 -0.0362 -0.3212
  502MOL0     H67760  11.366  10.803   9.385 -1.0161 -2.0806  0.2214
  502MOL0     H67761  11.434  10.797   9.556  0.0877 -0.5233  0.3812
  502MOL0     H67762  11.600  10.817   9.358  2.6934 -1.5544 -2.9952
  502MOL0     H67763  11.545  10.650   9.317  0.4321 -1.4454  1.6423
  502MOL0     H67764  11.614  10.558   9.533  0.6382 -1.0432 -2.4240
  502MOL0     H67765  11.677  10.724   9.567 -0.9060  1.6305 -2.5461
  502MOL0     H67766  11.855  10.714   9.413 -1.8404  0.5474 -1.6071
  502MOL0     H67767  11.785  10.572   9.326 -1.1290 -2.2795  0.9714
  502MOL0     H67768  12.037  10.384   9.575  1.6387  2.2068 -1.1959
  502MOL0     H67769  11.278  10.435   9.617 -2.5236 -2.0910  0.8018
  502MOL0     H67770  11.109  10.447   9.814  1.8311  0.9101  2.6404
  503MOL0     O67771   0.015   3.101   1.592  0.4828 -0.5512 -0.6160
  503MOL0     C67772  -0.004   3.158   1.483  0.3375 -0.0280  0.0700
  503MOL0     O67773  -0.120   3.185   1.415  0.7324  0.7019  0.0753
  503MOL0     C67774  -0.235   3.130   1.461  0.4020  0.2226 -0.2570
  503MOL0     C67775  -0.255   2.996   1.486  0.0659  0.2329  0.3706
  503MOL0     C67776  -0.375   2.948   1.533 -0.0616  0.2980  0.0063
  503MOL0     C67777  -0.486   3.024   1.556  0.2714  0.4482 -0.5436
  503MOL0     O67778  -0.592   2.948   1.590  0.5364  0.4078  0.3235
  503MOL0     C67779  -0.721   2.966   1.538  0.4100 -0.0387  0.5379
  503MOL0     C67780  -0.743   2.889   1.410  0.5027  1.3613  0.4857
  503MOL0     C67781  -0.719   2.732   1.423  0.1142 -0.0794  0.5030
  503MOL0     C67782  -0.820   2.670   1.514  0.1738  0.1882  0.6898
  503MOL0     C67783  -0.776   2.524   1.538  0.4702  0.4528  0.2418
  503MOL0     C67784  -0.899   2.443   1.602 -0.6785 -0.6085 -0.2111
  503MOL0     C67785  -0.883   2.297   1.583 -1.1595  0.6844  0.3458
  503MOL0     C67786  -1.007   2.211   1.548 -0.4477 -1.0372 -0.5141
  503MOL0     N67787  -1.059   2.147   1.667  0.5699 -0.6485  1.0157
  503MOL0     C67788  -0.991   2.061   1.749 -0.0014 -0.4732 -0.2568
  503MOL0     C67789  -1.050   2.076   1.869 -0.3060 -0.1400  0.8925
  503MOL0     C67790  -0.997   2.036   2.007  0.2171 -0.9176  0.3938
  503MOL0     C67791  -0.868   2.078   2.047 -0.1437 -0.5474  0.0960
  503MOL0     C67792  -0.838   2.235   2.041 -0.1686  0.2037 -0.1028
  503MOL0     C67793  -0.700   2.258   2.003 -0.4702  0.8829 -0.5341
  503MOL0     O67794  -0.669   2.207   1.873 -0.6664 -0.6386 -0.2936
  503MOL0     C67795  -0.532   2.202   1.843  0.3256 -0.5775  0.3600
  503MOL0     C67796  -0.501   2.191   1.713 -0.1031  1.0216  0.8244
  503MOL0     C67797  -0.371   2.166   1.668 -0.7607  0.6532  0.2172
  503MOL0     C67798  -0.343   2.142   1.521  0.6096 -0.0178  0.6966
  503MOL0     C67799  -0.261   2.158   1.764 -0.7673 -0.5780  0.2845
  503MOL0     C67800  -0.122   2.123   1.724 -0.6263 -0.6119 -0.3368
  503MOL0     O67801  -0.071   2.193   1.620 -0.4919 -0.2818  0.0108
  503MOL0     C67802   0.054   2.154   1.580  0.4361  0.6740  0.7563
  503MOL0     C67803   0.058   2.064   1.476  0.0615 -0.6977  0.6868
  503MOL0     C67804   0.179   2.007   1.428 -0.4173  0.3159  0.2625
  503MOL0     C67805   0.303   2.029   1.501  0.1512 -1.0443 -0.8449
  503MOL0     O67806   0.434   1.985   1.479  0.4181 -0.3791 -0.4039
  503MOL0     C67807   0.457   1.856   1.420 -0.5035 -1.0439 -0.8923
  503MOL0     C67808   0.546   1.763   1.506  0.0648 -0.3941 -0.0114
  503MOL0     C67809   0.684   1.818   1.545  0.8003  0.3571  0.5188
  503MOL0     C67810   0.779   1.826   1.435 -0.8885 -0.1220  0.3565
  503MOL0     C67811   0.930   1.800   1.480  0.0534 -0.2147  0.0296
  503MOL0     C67812   1.023   1.829   1.364 -0.1677 -1.1097 -0.0711
  503MOL0     C67813   1.169   1.830   1.425  0.5997  0.5345  1.1334
  503MOL0     C67814   1.273   1.835   1.311 -0.7038  0.2856 -1.2447
  503MOL0    Cl67815   1.426   1.891   1.395 -0.1956  0.2339  0.2220
  503MOL0     C67816   0.291   2.131   1.599 -1.0035  0.4485  0.1984
  503MOL0     C67817   0.175   2.192   1.632  0.1783  0.2236  0.4930
  503MOL0     O67818  -0.064   2.052   1.801  1.0825  0.9126 -0.4626
  503MOL0     C67819  -0.295   2.187   1.895  0.0074  1.6568  0.1033
  503MOL0     C67820  -0.430   2.194   1.934 -0.6425  0.4903  0.2283
  503MOL0     N67821  -1.163   2.155   1.852 -0.3887  0.2981  0.3075
  503MOL0     N67822  -1.160   2.201   1.733  0.5292  0.5864  0.5614
  503MOL0     C67823  -0.480   3.162   1.531 -0.1930  1.1994 -0.1668
  503MOL0     C67824  -0.356   3.207   1.489 -0.4698  0.2570  0.5959
  503MOL0     C67825   0.116   3.192   1.414 -0.2760 -0.2071  0.9833
  503MOL0     C67826   0.248   3.155   1.461 -0.2900  0.3958  0.1733
  503MOL0     C67827   0.365   3.196   1.385 -0.4094 -0.2663 -0.3220
  503MOL0     C67828   0.354   3.262   1.267  0.3156  0.0511 -0.9700
  503MOL0     O67829   0.464   3.313   1.202 -0.9982 -0.2215  0.0371
  503MOL0     C67830   0.589   3.285   1.250 -0.1828 -0.5209  0.4484
  503MOL0     C67831   0.683   3.339   1.144  0.5413 -0.5256  0.6572
  503MOL0     C67832   0.664   3.490   1.121 -0.4397  0.0425  0.4516
  503MOL0     C67833   0.661   3.578   1.243 -0.2487  0.5388 -0.2424
  503MOL0     C67834   0.796   3.611   1.277  0.5567  0.4172 -0.0573
  503MOL0     C67835   0.903   3.613   1.316 -0.8103  0.4769  0.3315
  503MOL0     C67836   0.231   3.314   1.235  0.7780 -0.8674 -0.5013
  503MOL0     C67837   0.113   3.274   1.300  0.9727  0.9715 -0.2291
  503MOL0     H67838  -0.179   2.921   1.466  1.5563  1.4800  1.1283
  503MOL0     H67839  -0.390   2.844   1.560 -1.9084  0.8194  1.2038
  503MOL0     H67840  -0.800   2.940   1.609  0.0959 -0.6344 -0.0267
  503MOL0     H67841  -0.740   3.073   1.522 -0.0268  0.0488  1.5602
  503MOL0     H67842  -0.847   2.904   1.377  0.2816  0.1457  0.5509
  503MOL0     H67843  -0.683   2.924   1.325 -2.1389  1.1806 -1.6158
  503MOL0     H67844  -0.722   2.687   1.323  0.8994  2.3443 -0.6963
  503MOL0     H67845  -0.614   2.721   1.450  0.5407 -0.7307 -1.2534
  503MOL0     H67846  -0.827   2.718   1.612 -1.1753  1.1999  0.1488
  503MOL0     H67847  -0.924   2.667   1.480 -0.1844 -0.0350  1.7547
  503MOL0     H67848  -0.754   2.480   1.440  1.6680 -1.2689  1.2289
  503MOL0     H67849  -0.690   2.514   1.605  0.6305 -0.5952 -0.1038
  503MOL0     H67850  -0.907   2.481   1.704  0.8770 -0.5837 -0.0766
  503MOL0     H67851  -0.987   2.484   1.552 -0.8002 -2.5190 -1.6681
  503MOL0     H67852  -0.817   2.273   1.499  0.2400 -2.8303  2.2481
  503MOL0     H67853  -0.827   2.248   1.664 -0.5751  0.3548 -0.2489
  503MOL0     H67854  -0.980   2.138   1.471 -0.3865  2.1493 -3.8289
  503MOL0     H67855  -1.081   2.261   1.484 -0.4018 -0.6280 -0.2518
  503MOL0     H67856  -0.913   1.994   1.714 -0.2331  0.5533 -3.0142
  503MOL0     H67857  -1.072   2.071   2.079 -0.9477 -0.7895 -0.8363
  503MOL0     H67858  -1.005   1.927   2.008 -0.4409 -0.8795  0.2486
  503MOL0     H67859  -0.801   2.020   1.982  1.0918 -0.6034  1.3585
  503MOL0     H67860  -0.850   2.043   2.149 -1.4108  0.0017  0.5122
  503MOL0     H67861  -0.849   2.285   2.138  1.4328  0.7480 -0.1726
  503MOL0     H67862  -0.915   2.282   1.978 -1.7110 -0.0762  1.4862
  503MOL0     H67863  -0.654   2.199   2.082 -1.7944  1.2024  0.5033
  503MOL0     H67864  -0.669   2.362   2.009  0.7114  0.4911  0.5337
  503MOL0     H67865  -0.575   2.190   1.634 -0.0639 -0.0986  0.7850
  503MOL0     H67866  -0.247   2.184   1.491  1.0531  0.6847  2.9041
  503MOL0     H67867  -0.352   2.036   1.496 -0.1056  0.5142 -1.4726
  503MOL0     H67868  -0.410   2.185   1.446 -0.1045 -0.7954  0.8718
  503MOL0     H67869  -0.039   2.040   1.433  1.5196 -1.4482 -2.3985
  503MOL0     H67870   0.181   1.936   1.345 -2.4916 -3.1828  2.9247
  503MOL0     H67871   0.357   1.813   1.404 -0.2803 -2.0564  0.3051
  503MOL0     H67872   0.505   1.862   1.322 -2.4475 -0.1286 -1.8423
  503MOL0     H67873   0.495   1.740   1.599 -0.2355 -1.6100 -0.4555
  503MOL0     H67874   0.570   1.666   1.460  0.0749  0.2173 -1.3456
  503MOL0     H67875   0.720   1.738   1.611  1.9223 -0.2351 -0.7595
  503MOL0     H67876   0.693   1.917   1.590  1.2346  0.4235  0.2928
  503MOL0     H67877   0.754   1.756   1.355 -1.5337 -0.0385  0.4803
  503MOL0     H67878   0.779   1.924   1.385  1.4046  0.0108  0.4949
  503MOL0     H67879   0.934   1.693   1.501 -0.9755 -0.9761 -3.0325
  503MOL0     H67880   0.947   1.848   1.576 -0.6834 -0.0461  0.0835
  503MOL0     H67881   1.007   1.753   1.287  1.3130 -0.2906 -1.2395
  503MOL0     H67882   1.000   1.925   1.316  0.2728  0.2988  2.3790
  503MOL0     H67883   1.195   1.744   1.488  3.8421  0.5386  0.0014
  503MOL0     H67884   1.173   1.913   1.495 -3.0204  1.8846 -0.0379
  503MOL0     H67885   1.242   1.906   1.233 -1.1357  0.3188 -1.0481
  503MOL0     H67886   1.298   1.736   1.271 -2.0666 -0.3685 -0.5375
  503MOL0     H67887   0.379   2.182   1.639 -1.9169  2.8306 -0.6469
  503MOL0     H67888   0.163   2.271   1.705  0.6930  0.2339  0.5696
  503MOL0     H67889  -0.208   2.185   1.960 -1.4295 -0.4462  2.1294
  503MOL0     H67890  -0.450   2.214   2.039  2.0116  1.0305  0.7154
  503MOL0     H67891  -0.559   3.237   1.537  1.4800  2.9535  1.5701
  503MOL0     H67892  -0.345   3.314   1.473  2.7084  0.1300  1.1345
  503MOL0     H67893   0.261   3.092   1.549 -1.8049 -2.3490 -1.4322
  503MOL0     H67894   0.461   3.163   1.424  0.5242  2.0138 -0.5707
  503MOL0     H67895   0.613   3.325   1.349  0.1675  1.2660 -0.3021
  503MOL0     H67896   0.598   3.176   1.254 -1.1558 -0.9292 -3.6384
  503MOL0     H67897   0.667   3.287   1.050 -0.1648 -0.5292  0.7800
  503MOL0     H67898   0.787   3.314   1.170  0.1052 -3.7238 -0.3213
  503MOL0     H67899   0.572   3.504   1.063 -1.7283 -2.3623  1.7922
  503MOL0     H67900   0.738   3.533   1.053 -0.2840  1.4112  1.4287
  503MOL0     H67901   0.617   3.525   1.327 -2.0002 -3.1246 -3.1730
  503MOL0     H67902   0.610   3.673   1.221  1.3457  2.3132  2.9513
  503MOL0     H67903   1.003   3.619   1.353 -1.6374  3.5277  2.4360
  503MOL0     H67904   0.224   3.374   1.145 -1.4409 -1.6165 -0.8996
  503MOL0     H67905   0.014   3.299   1.263  0.2857 -0.3680  0.6193
  504MOL0     O67906   3.387   7.923   9.873 -0.0530  0.2027  0.1138
  504MOL0     C67907   3.469   7.982   9.804 -0.1173 -0.1289 -0.0133
  504MOL0     O67908   3.449   8.026   9.674 -0.1326  0.4241  0.1413
  504MOL0     C67909   3.327   7.994   9.609 -0.4399  0.5120 -0.4326
  504MOL0     C67910   3.326   7.949   9.469  0.5427  0.7386 -0.4622
  504MOL0     C67911   3.209   7.893   9.416 -0.5650 -0.2379 -1.0198
  504MOL0     C67912   3.086   7.906   9.479  0.1876  0.7071 -0.5139
  504MOL0     O67913   2.979   7.868   9.401 -0.1095 -0.3952  0.6836
  504MOL0     C67914   2.847   7.857   9.469 -0.1917 -0.6582 -0.2394
  504MOL0     C67915   2.750   7.796   9.373  0.4836  0.0229  0.2308
  504MOL0     C67916   2.791   7.677   9.294 -0.5338 -1.2650  0.2295
  504MOL0     C67917   2.687   7.637   9.184  0.2080 -0.2120  0.6218
  504MOL0     C67918   2.556   7.582   9.231 -0.3656 -0.3755 -0.6844
  504MOL0     C67919   2.460   7.573   9.113 -0.5519 -0.9157  0.4683
  504MOL0     C67920   2.317   7.537   9.149  0.0362 -0.2051  0.1807
  504MOL0     C67921   2.298   7.387   9.168 -0.2315  0.5861  0.0935
  504MOL0     N67922   2.176   7.343   9.249 -0.4747  0.4774 -0.3504
  504MOL0     C67923   2.047   7.334   9.205 -0.3703  0.4883  0.6627
  504MOL0     C67924   1.987   7.277   9.314 -0.5489 -0.2329 -0.2208
  504MOL0     C67925   1.841   7.239   9.310 -0.4192 -0.1829  0.2386
  504MOL0     C67926   1.835   7.090   9.356  0.2463 -0.0376  0.6376
  504MOL0     C67927   1.676   7.060   9.354  0.6136 -0.7039 -0.1715
  504MOL0     C67928   1.629   6.925   9.412 -0.5384 -0.5971  0.8363
  504MOL0     O67929   1.502   6.890   9.351  0.0487 -0.0231 -0.3002
  504MOL0     C67930   1.428   6.781   9.381  0.5329 -0.4734 -0.2478
  504MOL0     C67931   1.474   6.676   9.446 -0.3807 -0.2777 -0.0840
  504MOL0     C67932   1.394   6.563   9.476 -0.2070  0.1412  0.1998
  504MOL0     C67933   1.471   6.442   9.529  0.3230 -0.5296  0.1687
  504MOL0     C67934   1.256   6.561   9.439 -0.6058  0.6932 -0.4255
  504MOL0     C67935   1.163   6.452   9.465  0.2718 -0.2855  0.0971
  504MOL0     O67936   1.039   6.476   9.412 -0.1004 -0.3580 -0.3533
  504MOL0     C67937   0.934   6.396   9.438 -0.2609  0.2049  0.1074
  504MOL0     C67938   0.870   6.358   9.556 -1.2958  0.0768 -0.5287
  504MOL0     C67939   0.761   6.267   9.553  0.0835  0.1963 -0.6359
  504MOL0     C67940   0.727   6.205   9.433  0.6259 -0.1971 -0.1218
  504MOL0     O67941   0.612   6.135   9.422 -0.6867 -0.3948  0.8124
  504MOL0     C67942   0.599   6.022   9.502 -0.2568 -0.5081  0.5080
  504MOL0     C67943   0.614   5.897   9.411  1.5453 -0.1186 -1.4181
  504MOL0     C67944   0.760   5.874   9.370 -0.5073  0.6545 -0.6781
  504MOL0     C67945   0.855   5.841   9.488 -0.3565  1.1492 -1.1365
  504MOL0     C67946   0.993   5.773   9.447 -0.2229  0.7105  0.4316
  504MOL0     C67947   1.083   5.830   9.344  0.2197  0.4725  0.2701
  504MOL0     C67948   1.093   5.986   9.353  0.3915  0.3653 -1.2631
  504MOL0     C67949   1.208   6.037   9.269 -0.2956 -0.0603 -0.1926
  504MOL0    Cl67950   1.235   5.940   9.112  0.2879  0.1020 -0.0742
  504MOL0     C67951   0.796   6.235   9.314  0.5282  0.3911 -0.1248
  504MOL0     C67952   0.893   6.331   9.315 -0.6828  0.6005 -0.3327
  504MOL0     O67953   1.201   6.350   9.526 -0.6657  0.7173  0.2590
  504MOL0     C67954   1.217   6.671   9.364 -0.6049  0.5154  0.4201
  504MOL0     C67955   1.295   6.783   9.350 -0.1503 -0.0626  0.0507
  504MOL0     N67956   2.068   7.267   9.421  0.2723 -0.1283  0.2994
  504MOL0     N67957   2.181   7.312   9.383 -0.6782 -0.2813 -0.3646
  504MOL0     C67958   3.082   7.959   9.611  0.2112 -0.4109 -0.1677
  504MOL0     C67959   3.198   8.005   9.671 -0.9848  0.0990 -0.0004
  504MOL0     C67960   3.597   8.014   9.862  0.4876  0.5202 -0.0577
  504MOL0     C67961   3.624   7.978   9.990  0.8669 -1.2439 -0.2863
  504MOL0     C67962   3.741   8.003  10.053  0.0548  0.2985 -0.8902
  504MOL0     C67963   3.841   8.072   9.984  0.3206 -0.0932 -0.5686
  504MOL0     O67964   3.963   8.078  10.053 -0.2597 -0.6384 -0.0361
  504MOL0     C67965   4.040   8.194  10.017  0.1847 -0.1595 -0.2869
  504MOL0     C67966   4.167   8.194  10.103 -0.0943 -1.0064  0.5674
  504MOL0     C67967   4.147   8.203  10.259  0.9596  0.3268 -0.4711
  504MOL0     C67968   4.276   8.202  10.331  0.2689 -0.1699 -0.7145
  504MOL0     C67969   4.290   8.279  10.455  0.2784  0.1735  0.5219
  504MOL0     C67970   4.299   8.328  10.563  0.4886  0.5870 -0.3798
  504MOL0     C67971   3.804   8.118   9.859  0.1791  0.2564  0.2211
  504MOL0     C67972   3.678   8.091   9.793 -0.7372  0.1815 -0.5036
  504MOL0     H67973   3.420   7.946   9.415 -0.3631 -1.5028 -2.0583
  504MOL0     H67974   3.206   7.863   9.312  0.2517  2.3425 -1.8788
  504MOL0     H67975   2.856   7.785   9.550  0.7128 -2.6103 -1.9609
  504MOL0     H67976   2.804   7.948   9.511 -1.6150 -1.3093 -0.2263
  504MOL0     H67977   2.666   7.767   9.437 -0.0307  0.6036 -0.1681
  504MOL0     H67978   2.714   7.860   9.292  0.0123 -0.8777 -0.2876
  504MOL0     H67979   2.881   7.708   9.240 -0.7707 -0.4271  0.2968
  504MOL0     H67980   2.826   7.591   9.352 -1.5933  1.0534  4.8065
  504MOL0     H67981   2.669   7.719   9.114 -0.9954 -0.5374  0.5218
  504MOL0     H67982   2.735   7.552   9.134  0.7926 -0.2012  1.1500
  504MOL0     H67983   2.563   7.479   9.266  2.3961 -0.9788 -2.6162
  504MOL0     H67984   2.520   7.655   9.304  3.1557  0.5264  0.3896
  504MOL0     H67985   2.454   7.668   9.060  2.0452 -0.8864  0.0988
  504MOL0     H67986   2.505   7.499   9.045 -0.3980 -1.0983  0.7683
  504MOL0     H67987   2.304   7.596   9.240  2.4768  2.8402 -1.2569
  504MOL0     H67988   2.252   7.580   9.073  2.9217  0.4674 -2.0721
  504MOL0     H67989   2.393   7.347   9.204 -0.6398 -2.3931 -1.7574
  504MOL0     H67990   2.298   7.332   9.073 -0.7315  1.2619 -0.3075
  504MOL0     H67991   2.009   7.367   9.109 -1.1378  0.7915  1.0621
  504MOL0     H67992   1.780   7.293   9.384  1.7725  1.3022  1.0377
  504MOL0     H67993   1.798   7.261   9.212  2.2488 -1.6401 -1.3546
  504MOL0     H67994   1.881   7.073   9.454 -0.5621 -4.9696  0.4295
  504MOL0     H67995   1.879   7.031   9.275  0.3553 -0.0707  0.7200
  504MOL0     H67996   1.639   7.060   9.251 -0.5317  1.9285  0.1626
  504MOL0     H67997   1.634   7.148   9.403  4.3326  2.0112 -1.3611
  504MOL0     H67998   1.630   6.936   9.521  4.0698  2.9613  0.7472
  504MOL0     H67999   1.704   6.853   9.378 -1.8204 -0.5696 -2.4641
  504MOL0     H68000   1.580   6.662   9.461 -0.4814 -0.1209  0.8322
  504MOL0     H68001   1.438   6.357   9.470 -0.1341  0.8486 -1.6589
  504MOL0     H68002   1.580   6.451   9.524  0.2616 -0.1088 -0.5427
  504MOL0     H68003   1.441   6.427   9.634 -1.6374 -0.5838 -0.3596
  504MOL0     H68004   0.902   6.408   9.647 -3.2474 -2.8945  1.9908
  504MOL0     H68005   0.710   6.236   9.644 -0.4862 -1.6411 -1.5189
  504MOL0     H68006   0.673   6.021   9.583  1.2768 -1.9205 -0.8374
  504MOL0     H68007   0.503   6.037   9.554  0.8157  0.0583  2.4265
  504MOL0     H68008   0.568   5.818   9.471  0.0132  1.6690 -0.0917
  504MOL0     H68009   0.546   5.918   9.328 -2.0236 -0.9107  1.0624
  504MOL0     H68010   0.796   5.953   9.304  2.3255  0.7066  0.7757
  504MOL0     H68011   0.761   5.784   9.308  4.1369  0.6705 -0.9664
  504MOL0     H68012   0.870   5.936   9.541  0.7066 -0.4664  1.6635
  504MOL0     H68013   0.802   5.778   9.560 -0.0357  1.6456 -0.4462
  504MOL0     H68014   0.970   5.669   9.421 -1.5477  0.3843  2.6852
  504MOL0     H68015   1.061   5.771   9.532  0.4268  2.1106 -0.0143
  504MOL0     H68016   1.178   5.777   9.354  0.1334  0.0627 -0.9431
  504MOL0     H68017   1.041   5.797   9.249 -0.8423 -1.7757  1.4451
  504MOL0     H68018   1.111   6.024   9.454  1.3237  2.8188 -2.2764
  504MOL0     H68019   0.995   6.030   9.332 -0.2880  0.0472  1.0494
  504MOL0     H68020   1.302   6.025   9.323  1.0380  2.2427 -1.8092
  504MOL0     H68021   1.198   6.145   9.257  1.9238  0.0560 -1.4830
  504MOL0     H68022   0.772   6.180   9.223  0.7173  1.4567 -0.8332
  504MOL0     H68023   0.953   6.354   9.228  2.8606 -0.3063  1.6921
  504MOL0     H68024   1.117   6.692   9.326 -0.7596  1.3856  1.2565
  504MOL0     H68025   1.253   6.873   9.307  1.7466  0.5923 -0.5212
  504MOL0     H68026   2.995   7.975   9.673  1.3049  2.1390  0.8852
  504MOL0     H68027   3.181   8.054   9.766 -2.6510 -1.2480  0.4468
  504MOL0     H68028   3.551   7.933  10.057  1.0610  0.1294  0.8938
  504MOL0     H68029   3.763   7.965  10.152  0.5149  2.3872 -0.1309
  504MOL0     H68030   4.070   8.195   9.912  0.3933 -2.6349 -0.3093
  504MOL0     H68031   3.989   8.288  10.038  2.1617  0.6865  1.0361
  504MOL0     H68032   4.222   8.285  10.077 -0.3415 -0.3111  2.3272
  504MOL0     H68033   4.227   8.104  10.089 -1.4325 -1.8811  0.3644
  504MOL0     H68034   4.083   8.121  10.292 -0.4870  1.0875 -1.2926
  504MOL0     H68035   4.093   8.292  10.296 -1.4835 -1.7606  1.3966
  504MOL0     H68036   4.357   8.230  10.263  0.4008  3.7256  0.8072
  504MOL0     H68037   4.285   8.097  10.360  0.1192  0.1897  0.6892
  504MOL0     H68038   4.289   8.381  10.656  0.9827  2.5482 -1.3904
  504MOL0     H68039   3.878   8.172   9.801  0.2980  0.9910  1.0434
  504MOL0     H68040   3.662   8.135   9.695  0.5320  0.7874 -0.4591
  505MOL0     O68041   5.008   7.097   6.945 -0.1519  0.1241  0.0001
  505MOL0     C68042   5.037   7.125   7.061  0.2473 -0.1545 -0.8322
  505MOL0     O68043   4.948   7.145   7.164  0.1241  0.0486  0.1619
  505MOL0     C68044   4.812   7.139   7.161  0.1816 -0.3696  0.2872
  505MOL0     C68045   4.730   7.101   7.055  0.7215  0.4779 -0.1986
  505MOL0     C68046   4.597   7.104   7.062 -0.2402 -0.9022 -0.0544
  505MOL0     C68047   4.537   7.163   7.176 -0.1027 -0.2147 -0.4595
  505MOL0     O68048   4.407   7.197   7.195 -0.5795  0.3311 -0.2973
  505MOL0     C68049   4.312   7.107   7.146  0.2314  0.2871 -0.0100
  505MOL0     C68050   4.169   7.152   7.190 -0.4427  0.3025  0.7518
  505MOL0     C68051   4.137   7.108   7.333  0.0430  0.2577 -1.1967
  505MOL0     C68052   4.003   7.166   7.396  0.4557 -0.3020  0.5100
  505MOL0     C68053   3.987   7.129   7.544 -0.2158 -0.1649  0.4835
  505MOL0     C68054   3.841   7.133   7.580 -0.0469  0.5994  0.7228
  505MOL0     C68055   3.814   7.093   7.719 -0.1237 -0.2264  0.4116
  505MOL0     C68056   3.661   7.073   7.757  0.1646  1.0967  0.4460
  505MOL0     N68057   3.571   7.193   7.734  0.0381 -0.3103 -0.4651
  505MOL0     C68058   3.444   7.198   7.798  0.8610 -0.7223  0.5268
  505MOL0     C68059   3.378   7.305   7.744 -0.1259  0.2367 -0.3603
  505MOL0     C68060   3.251   7.350   7.802 -0.9186 -1.3760  0.3664
  505MOL0     C68061   3.282   7.480   7.874  0.0716  0.0559 -0.3576
  505MOL0     C68062   3.174   7.501   7.985  0.4167 -0.4691  0.3313
  505MOL0     C68063   3.042   7.550   7.926  0.7700 -0.2596 -0.1642
  505MOL0     O68064   2.944   7.563   8.033 -0.4800 -0.0863 -0.3558
  505MOL0     C68065   2.814   7.546   8.001 -0.6642 -0.1634  0.1220
  505MOL0     C68066   2.734   7.616   8.094 -0.1704  0.3564 -1.2083
  505MOL0     C68067   2.597   7.612   8.083 -0.2965  0.4083 -0.6166
  505MOL0     C68068   2.524   7.670   8.198 -0.1106 -0.3596  0.1811
  505MOL0     C68069   2.533   7.544   7.972 -0.2058  0.4969 -0.8713
  505MOL0     C68070   2.389   7.554   7.955  0.5990  0.0039  0.3263
  505MOL0     O68071   2.330   7.675   7.961  0.2988  0.1273 -0.1347
  505MOL0     C68072   2.200   7.691   7.907 -0.1302  0.6698  0.1857
  505MOL0     C68073   2.183   7.707   7.772 -0.1047 -0.4743  0.9859
  505MOL0     C68074   2.057   7.734   7.721  1.1809  0.3645  1.0011
  505MOL0     C68075   1.941   7.730   7.797  0.2305  0.4010  0.9519
  505MOL0     O68076   1.815   7.768   7.750 -0.5675 -0.6824 -0.8141
  505MOL0     C68077   1.710   7.668   7.772  0.3536 -0.0620  0.1820
  505MOL0     C68078   1.617   7.677   7.654  0.2508  0.6129  0.1956
  505MOL0     C68079   1.523   7.796   7.668 -0.0288  0.3975  0.2869
  505MOL0     C68080   1.460   7.809   7.525  0.2124 -0.4798 -0.6908
  505MOL0     C68081   1.310   7.838   7.533 -0.0671  0.0958  0.8800
  505MOL0     C68082   1.266   7.857   7.388  0.7984  0.4957  0.4806
  505MOL0     C68083   1.143   7.950   7.385  0.3988  0.7701 -0.2106
  505MOL0     C68084   1.058   7.940   7.254  0.0554 -0.1699 -0.0747
  505MOL0    Cl68085   0.985   7.783   7.256  0.6884 -0.1205  0.1210
  505MOL0     C68086   1.960   7.724   7.937 -0.0145  0.7123 -0.1315
  505MOL0     C68087   2.089   7.715   7.990  0.9600  0.5952  0.6927
  505MOL0     O68088   2.327   7.448   7.923 -0.6828  0.0474 -0.4285
  505MOL0     C68089   2.615   7.484   7.873  0.1416  0.7142 -0.2279
  505MOL0     C68090   2.761   7.478   7.885  0.6137  0.6011 -0.4345
  505MOL0     N68091   3.448   7.344   7.628 -0.1390 -0.3803 -0.8413
  505MOL0     N68092   3.567   7.293   7.642  0.6648  0.4598  0.6173
  505MOL0     C68093   4.617   7.204   7.269 -0.2226 -0.3960 -0.5970
  505MOL0     C68094   4.757   7.189   7.276  1.4617 -0.5067 -0.1849
  505MOL0     C68095   5.176   7.160   7.089  1.0121 -0.3924  0.0958
  505MOL0     C68096   5.211   7.192   7.225  0.1631  0.2900  0.1042
  505MOL0     C68097   5.344   7.231   7.246  0.6142  0.1757 -1.1444
  505MOL0     C68098   5.444   7.232   7.147  1.0736 -0.5610 -0.6919
  505MOL0     O68099   5.568   7.273   7.180 -0.0039 -0.5336 -0.4765
  505MOL0     C68100   5.642   7.358   7.087 -0.3374 -0.0205  0.2856
  505MOL0     C68101   5.651   7.490   7.157 -0.3092 -0.0676 -0.0578
  505MOL0     C68102   5.540   7.590   7.120 -0.3305 -0.8097 -0.4617
  505MOL0     C68103   5.540   7.633   6.980  0.4555 -0.8578  0.4881
  505MOL0     C68104   5.413   7.697   6.952  0.4153 -0.7730 -0.1240
  505MOL0     C68105   5.314   7.761   6.923  0.5326  0.2984 -0.0662
  505MOL0     C68106   5.399   7.195   7.017 -0.4988 -0.3623 -0.7114
  505MOL0     C68107   5.266   7.173   6.980 -0.6972 -1.4188  0.0358
  505MOL0     H68108   4.772   7.071   6.960 -0.0250 -0.7835 -0.1577
  505MOL0     H68109   4.525   7.100   6.981  0.1102 -1.6057 -0.3379
  505MOL0     H68110   4.324   7.113   7.037 -0.1177 -0.7502 -0.1237
  505MOL0     H68111   4.322   7.001   7.173 -0.0533  0.1936 -0.2659
  505MOL0     H68112   4.157   7.261   7.188  0.3175  0.3967  0.9905
  505MOL0     H68113   4.101   7.113   7.115 -1.3380  1.5474  0.8784
  505MOL0     H68114   4.132   6.999   7.343  0.3139  0.1625 -1.9876
  505MOL0     H68115   4.222   7.132   7.399  1.1208 -3.1941 -1.1227
  505MOL0     H68116   4.005   7.274   7.382  0.8015 -0.0814  2.0718
  505MOL0     H68117   3.920   7.129   7.334  1.3986 -0.4927 -0.6862
  505MOL0     H68118   4.023   7.028   7.568  1.4753  0.7557  2.0452
  505MOL0     H68119   4.034   7.204   7.607 -0.8382 -1.0454  2.0578
  505MOL0     H68120   3.804   7.235   7.561  2.7671  1.8056  1.1687
  505MOL0     H68121   3.789   7.067   7.510  4.9334 -2.4958 -0.5648
  505MOL0     H68122   3.874   7.006   7.748 -1.3603 -0.2950  3.0454
  505MOL0     H68123   3.853   7.172   7.785 -2.2031  2.2569 -1.1213
  505MOL0     H68124   3.662   7.050   7.864 -1.0874  1.2675  0.5091
  505MOL0     H68125   3.618   6.994   7.696 -1.0546  3.3807 -1.8414
  505MOL0     H68126   3.408   7.139   7.882 -3.5600 -1.7375 -1.7945
  505MOL0     H68127   3.187   7.362   7.714  1.9463  3.8370 -1.4421
  505MOL0     H68128   3.213   7.276   7.873  2.0409 -1.0766  2.4523
  505MOL0     H68129   3.281   7.572   7.815  0.0793 -0.0652 -0.5463
  505MOL0     H68130   3.383   7.492   7.914  0.6406  0.0981 -1.7402
  505MOL0     H68131   3.208   7.586   8.045  0.8620 -1.2616  1.2240
  505MOL0     H68132   3.153   7.420   8.056 -4.6486  0.9821  0.9025
  505MOL0     H68133   3.007   7.493   7.840 -0.7028  2.4834 -1.5309
  505MOL0     H68134   3.060   7.648   7.882  1.4983 -0.1319  0.3963
  505MOL0     H68135   2.777   7.681   8.169  2.1680 -0.7945 -1.4556
  505MOL0     H68136   2.531   7.777   8.179  3.3100 -0.5723 -0.3906
  505MOL0     H68137   2.417   7.652   8.186 -0.5538  0.5707  2.2250
  505MOL0     H68138   2.557   7.631   8.295  2.7804 -0.7332 -0.8441
  505MOL0     H68139   2.274   7.712   7.713  1.4214 -0.7190  3.1934
  505MOL0     H68140   2.030   7.747   7.617 -0.4412 -0.3157  1.3182
  505MOL0     H68141   1.751   7.567   7.778  0.9632  0.2570  2.7932
  505MOL0     H68142   1.663   7.695   7.867  3.5585 -0.3987  2.0435
  505MOL0     H68143   1.679   7.680   7.564 -2.7195  0.3325 -2.0131
  505MOL0     H68144   1.568   7.580   7.653 -0.4870  0.9750 -1.8119
  505MOL0     H68145   1.576   7.887   7.698  0.0859  0.2108  0.6527
  505MOL0     H68146   1.448   7.765   7.740  0.3296  0.1571  0.5608
  505MOL0     H68147   1.512   7.889   7.472 -2.4302  0.6841 -1.6737
  505MOL0     H68148   1.487   7.718   7.471 -0.5770 -0.4076 -1.2238
  505MOL0     H68149   1.291   7.938   7.575 -0.9958  1.6506 -2.8201
  505MOL0     H68150   1.252   7.769   7.594 -2.8353  2.5618  1.2401
  505MOL0     H68151   1.344   7.907   7.330 -1.1910  2.1006 -0.9917
  505MOL0     H68152   1.255   7.758   7.341  0.6610 -0.5008  2.5113
  505MOL0     H68153   1.194   8.044   7.407 -1.2017  1.6595 -0.1457
  505MOL0     H68154   1.079   7.935   7.472  0.3406  2.0750 -0.0015
  505MOL0     H68155   1.117   7.971   7.168  0.8975  1.8598  1.1723
  505MOL0     H68156   0.978   8.014   7.256 -0.3332 -0.5126 -1.6123
  505MOL0     H68157   1.872   7.732   8.000  1.6970 -2.4954  2.9838
  505MOL0     H68158   2.106   7.733   8.096 -1.2716 -0.1827  1.2406
  505MOL0     H68159   2.565   7.432   7.793 -0.8817 -2.1388  2.0654
  505MOL0     H68160   2.805   7.419   7.806 -0.9437 -0.4611 -0.5693
  505MOL0     H68161   4.559   7.256   7.345 -0.2493  1.4766 -1.8366
  505MOL0     H68162   4.812   7.226   7.362 -0.3263  0.7101  0.4977
  505MOL0     H68163   5.139   7.187   7.306 -1.8910 -4.9108 -1.6139
  505MOL0     H68164   5.364   7.252   7.350 -0.5025  1.2942 -1.1201
  505MOL0     H68165   5.743   7.325   7.060 -1.2690 -2.3036 -0.6610
  505MOL0     H68166   5.592   7.364   6.990 -0.9960 -0.5801  0.5778
  505MOL0     H68167   5.751   7.531   7.139  0.4440 -1.6193  0.4265
  505MOL0     H68168   5.642   7.466   7.263 -3.0033  0.8437 -0.0039
  505MOL0     H68169   5.560   7.683   7.174  1.3149 -0.5494 -1.4432
  505MOL0     H68170   5.450   7.534   7.144 -0.3046 -1.1582 -1.1753
  505MOL0     H68171   5.548   7.543   6.919  3.7861 -1.6343  1.8835
  505MOL0     H68172   5.627   7.694   6.954  2.1319 -3.8347 -1.3653
  505MOL0     H68173   5.228   7.807   6.879 -0.1149  0.7661  1.6276
  505MOL0     H68174   5.483   7.197   6.949  1.1365 -1.8118  1.1444
  505MOL0     H68175   5.227   7.161   6.880 -0.6736 -3.4402  0.2178
  506MOL0     O68176   9.177   8.546   8.631 -0.6870 -0.0303  0.7221
  506MOL0     C68177   9.257   8.527   8.720 -0.7545 -0.3455 -0.9443
  506MOL0     O68178   9.242   8.448   8.837 -0.0821  0.5539 -0.4549
  506MOL0     C68179   9.133   8.363   8.844  0.7184 -0.1650 -0.2611
  506MOL0     C68180   9.008   8.391   8.903  0.2105  0.6098  0.1893
  506MOL0     C68181   8.895   8.302   8.908 -0.4277  0.6364 -0.8672
  506MOL0     C68182   8.913   8.175   8.862 -0.9323 -0.5447 -0.1087
  506MOL0     O68183   8.841   8.058   8.855 -0.4755  0.2686 -0.9821
  506MOL0     C68184   8.703   8.062   8.878 -0.1138  0.7059  0.4355
  506MOL0     C68185   8.621   8.136   8.765  0.8178 -0.4865 -0.2501
  506MOL0     C68186   8.489   8.176   8.824  0.2481  0.3681  0.0416
  506MOL0     C68187   8.381   8.170   8.718 -0.3154  0.3253  0.4523
  506MOL0     C68188   8.246   8.239   8.753  0.9467 -0.6289 -0.5883
  506MOL0     C68189   8.149   8.211   8.634  0.3209  0.1532 -1.5660
  506MOL0     C68190   8.025   8.291   8.647 -0.3700 -0.6039  0.7116
  506MOL0     C68191   8.039   8.438   8.597  0.7709  0.3237  0.0041
  506MOL0     N68192   8.043   8.451   8.450  0.6848  0.8744  0.4432
  506MOL0     C68193   7.964   8.397   8.352 -0.9180 -0.6889 -0.8461
  506MOL0     C68194   8.007   8.445   8.236 -0.1233  0.2849  0.1028
  506MOL0     C68195   7.957   8.433   8.096 -0.5106 -0.5590  0.2150
  506MOL0     C68196   7.824   8.352   8.090 -0.8342  0.3752 -0.0241
  506MOL0     C68197   7.786   8.331   7.947  0.0468 -0.3183  0.2853
  506MOL0     C68198   7.659   8.241   7.940  0.2422  0.1667 -0.0490
  506MOL0     O68199   7.685   8.106   7.996  0.5430 -0.9309 -0.1498
  506MOL0     C68200   7.576   8.017   7.998 -0.3713  0.3561 -0.2434
  506MOL0     C68201   7.589   7.886   8.036  0.2844 -0.3064 -0.7796
  506MOL0     C68202   7.483   7.792   8.053 -0.1039  0.2955  0.0159
  506MOL0     C68203   7.519   7.644   8.085  0.6529 -0.4273 -1.1901
  506MOL0     C68204   7.357   7.831   8.022 -0.2125 -0.8043  0.4377
  506MOL0     C68205   7.237   7.739   8.030  0.2496  0.0091  0.5293
  506MOL0     O68206   7.241   7.650   8.142 -0.3712  0.3498  0.0984
  506MOL0     C68207   7.137   7.570   8.179 -1.0243 -0.2092 -0.0072
  506MOL0     C68208   7.174   7.449   8.233 -0.9156 -0.1411 -0.7221
  506MOL0     C68209   7.078   7.371   8.301 -0.6615 -0.5180  0.9015
  506MOL0     C68210   6.949   7.414   8.312 -0.7209 -0.2384 -0.3902
  506MOL0     O68211   6.844   7.350   8.383  0.2910 -0.6242  0.5946
  506MOL0     C68212   6.853   7.210   8.396 -0.2670 -0.0774 -0.1771
  506MOL0     C68213   6.719   7.137   8.399  0.3836 -0.0521  0.4680
  506MOL0     C68214   6.653   7.163   8.537 -0.2069  0.3172  0.2328
  506MOL0     C68215   6.526   7.089   8.571 -0.0672  0.2065  0.1963
  506MOL0     C68216   6.475   7.130   8.713 -1.0340 -0.4835  0.0951
  506MOL0     C68217   6.365   7.044   8.769 -0.3032 -0.5747  1.0104
  506MOL0     C68218   6.338   7.070   8.919  0.5929 -0.3067  0.2405
  506MOL0     C68219   6.336   7.218   8.963  0.1050  0.7393 -0.6024
  506MOL0    Cl68220   6.222   7.309   8.861 -0.2848  0.1841 -0.2671
  506MOL0     C68221   6.907   7.542   8.265  0.2957  0.9688 -0.0040
  506MOL0     C68222   7.011   7.618   8.200 -0.1668  0.9430  0.0651
  506MOL0     O68223   7.143   7.758   7.952  0.7411 -0.5101 -0.2363
  506MOL0     C68224   7.346   7.967   7.971  0.0614  0.1015 -0.2843
  506MOL0     C68225   7.444   8.055   7.968 -1.6785  0.7811  0.2643
  506MOL0     N68226   8.115   8.524   8.253  0.2183  0.3659  0.7868
  506MOL0     N68227   8.139   8.529   8.388  0.2344 -0.0927 -0.2483
  506MOL0     C68228   9.036   8.149   8.802 -0.2370  0.5415 -0.3961
  506MOL0     C68229   9.149   8.235   8.798 -0.0527 -0.5025  0.2239
  506MOL0     C68230   9.389   8.603   8.719  1.4862 -0.6276  0.2866
  506MOL0     C68231   9.491   8.573   8.804 -0.2499  0.7215  0.0901
  506MOL0     C68232   9.621   8.620   8.789  0.2055 -0.4554 -0.3308
  506MOL0     C68233   9.639   8.717   8.693  0.1889  0.0492  0.2731
  506MOL0     O68234   9.758   8.785   8.669 -0.0196  0.0014  0.1443
  506MOL0     C68235   9.859   8.783   8.781 -0.3126  0.2494 -0.3796
  506MOL0     C68236   9.957   8.889   8.759 -0.0422 -0.5600  0.2828
  506MOL0     C68237  10.051   8.866   8.639 -0.3148  0.1904  0.0422
  506MOL0     C68238  10.169   8.962   8.634  0.8001 -0.7053 -0.5696
  506MOL0     C68239  10.299   8.899   8.617 -0.0941  0.5552 -0.7236
  506MOL0     C68240  10.401   8.838   8.598  0.7127  0.4059  0.2339
  506MOL0     C68241   9.535   8.750   8.604  0.3454  0.3066 -0.4949
  506MOL0     C68242   9.411   8.692   8.608 -0.4781  0.2783  0.0743
  506MOL0     H68243   9.004   8.490   8.947 -0.6803  0.3849  0.6605
  506MOL0     H68244   8.803   8.337   8.955  0.3926  0.1729  1.1959
  506MOL0     H68245   8.666   7.959   8.873  0.2925  0.5943 -0.3963
  506MOL0     H68246   8.691   8.092   8.983  0.8413 -1.5096  1.2306
  506MOL0     H68247   8.674   8.218   8.716  2.7352 -1.1626  0.5970
  506MOL0     H68248   8.600   8.060   8.688  0.3886 -1.4619  0.7992
  506MOL0     H68249   8.465   8.100   8.899  2.3431 -0.9414 -0.5243
  506MOL0     H68250   8.484   8.272   8.877 -3.2763 -0.4124  1.4029
  506MOL0     H68251   8.425   8.219   8.631 -1.0214  0.8064  0.3569
  506MOL0     H68252   8.375   8.065   8.688  2.1884 -0.4155  2.2465
  506MOL0     H68253   8.196   8.196   8.840  0.1286 -0.8085 -1.1333
  506MOL0     H68254   8.259   8.345   8.776  4.6693 -1.3507  1.5769
  506MOL0     H68255   8.201   8.235   8.541  0.5167 -1.9767 -2.0591
  506MOL0     H68256   8.125   8.104   8.636 -2.5345  0.6925  1.7733
  506MOL0     H68257   7.950   8.235   8.591  1.1784 -0.2389 -1.8542
  506MOL0     H68258   7.990   8.293   8.751 -1.0298 -1.3329  0.5145
  506MOL0     H68259   8.131   8.484   8.635  0.8935  2.0946 -2.2132
  506MOL0     H68260   7.955   8.499   8.630 -0.5056 -0.3104 -1.9442
  506MOL0     H68261   7.877   8.333   8.351 -1.0902 -0.4989  0.3994
  506MOL0     H68262   7.942   8.534   8.056  3.2809 -0.5007 -1.4792
  506MOL0     H68263   8.037   8.380   8.044 -0.0068 -1.1891  1.5727
  506MOL0     H68264   7.739   8.388   8.150 -1.3042  0.0168 -0.4692
  506MOL0     H68265   7.843   8.252   8.130 -1.6614 -1.5144 -3.8653
  506MOL0     H68266   7.875   8.282   7.906 -0.2395 -0.3327 -0.3208
  506MOL0     H68267   7.763   8.423   7.894  0.5752 -0.9720 -1.1401
  506MOL0     H68268   7.626   8.219   7.838 -1.5936 -2.3790  0.9932
  506MOL0     H68269   7.575   8.286   7.994 -3.0678 -1.9315 -3.0835
  506MOL0     H68270   7.688   7.848   8.057  0.9116  2.0450  0.9377
  506MOL0     H68271   7.626   7.627   8.073  0.5028 -2.6505  0.1347
  506MOL0     H68272   7.488   7.612   8.184  0.9976  0.0465 -0.9238
  506MOL0     H68273   7.463   7.580   8.016 -1.6329  1.4920 -1.2687
  506MOL0     H68274   7.277   7.423   8.211  0.9206  4.4736  1.0437
  506MOL0     H68275   7.113   7.272   8.328  4.3739  0.7212 -0.0144
  506MOL0     H68276   6.915   7.169   8.315  1.9596 -0.1867  1.4942
  506MOL0     H68277   6.914   7.182   8.483  1.0008  1.4003 -0.5562
  506MOL0     H68278   6.656   7.184   8.323 -1.5641 -2.1031  0.7016
  506MOL0     H68279   6.734   7.030   8.381 -2.9803 -0.4260 -0.7395
  506MOL0     H68280   6.636   7.271   8.548  0.4992  0.6855 -1.7921
  506MOL0     H68281   6.730   7.145   8.612 -0.4747  0.0036  0.4354
  506MOL0     H68282   6.451   7.111   8.494  1.0649  1.1617 -0.6853
  506MOL0     H68283   6.554   6.984   8.562 -3.3519 -0.7856  0.0868
  506MOL0     H68284   6.449   7.236   8.709  2.2276  0.4057 -0.1174
  506MOL0     H68285   6.554   7.108   8.785 -1.5959 -1.3048  0.4752
  506MOL0     H68286   6.279   7.051   8.702  0.0030 -2.1616  0.4174
  506MOL0     H68287   6.396   6.939   8.771  1.2405 -0.2043 -0.6675
  506MOL0     H68288   6.416   7.013   8.969  4.1862  0.7333 -3.6087
  506MOL0     H68289   6.240   7.028   8.947 -0.8815  2.5554 -0.2585
  506MOL0     H68290   6.438   7.254   8.946  0.1173  0.5827 -0.8704
  506MOL0     H68291   6.312   7.232   9.068  1.8143  0.2968 -0.1186
  506MOL0     H68292   6.804   7.574   8.276 -1.1171 -2.6448 -1.3447
  506MOL0     H68293   6.976   7.717   8.175  0.1270  1.6344  2.1569
  506MOL0     H68294   7.248   8.008   7.948 -0.7525 -2.3630 -1.4252
  506MOL0     H68295   7.415   8.152   7.929 -1.5262  0.0960 -1.6544
  506MOL0     H68296   9.053   8.046   8.771 -2.0378 -0.0960  0.5647
  506MOL0     H68297   9.251   8.201   8.785  0.6389  1.4149  0.2211
  506MOL0     H68298   9.479   8.492   8.876  1.4527 -1.3509 -1.7933
  506MOL0     H68299   9.695   8.574   8.853  0.6096 -2.0919 -1.8806
  506MOL0     H68300   9.817   8.808   8.878  1.0414 -0.7433  0.5109
  506MOL0     H68301   9.912   8.690   8.806 -1.5774 -0.2387  0.5646
  506MOL0     H68302  10.016   8.906   8.850 -2.4202  2.0015  1.4829
  506MOL0     H68303   9.908   8.985   8.742 -0.4439 -0.3557  2.4092
  506MOL0     H68304   9.990   8.876   8.549 -2.0444  1.5859  1.3001
  506MOL0     H68305  10.094   8.765   8.641  0.7703  0.5424 -2.3652
  506MOL0     H68306  10.171   9.019   8.727 -2.9339 -1.2116 -0.0202
  506MOL0     H68307  10.160   9.040   8.557  0.9022 -1.3535 -1.2506
  506MOL0     H68308  10.490   8.779   8.592  1.3041  1.2826  0.2122
  506MOL0     H68309   9.552   8.820   8.522  1.0252 -0.7650 -1.2911
  506MOL0     H68310   9.339   8.730   8.536 -0.9687 -0.3728  0.2058
  507MOL0     O68311  11.096  10.566   5.754  0.0736 -0.3953  0.5346
  507MOL0     C68312  11.020  10.541   5.849  0.2065  0.1174 -0.9202
  507MOL0     O68313  11.038  10.562   5.981  0.4488  0.2238  1.0722
  507MOL0     C68314  11.161  10.605   6.010 -0.4129 -0.4056  0.0454
  507MOL0     C68315  11.184  10.742   6.061 -0.0087 -0.2617  0.1213
  507MOL0     C68316  11.307  10.774   6.124 -0.6604  0.3153  0.3872
  507MOL0     C68317  11.408  10.674   6.141 -0.3043  1.2991 -0.0913
  507MOL0     O68318  11.532  10.692   6.202  0.6462  0.7457 -0.4835
  507MOL0     C68319  11.553  10.814   6.291  0.2446  0.0870 -0.0915
  507MOL0     C68320  11.698  10.825   6.345  1.0423 -0.2272  0.4004
  507MOL0     C68321  11.716  10.955   6.429 -0.1941 -0.2286 -0.1155
  507MOL0     C68322  11.833  10.942   6.535 -0.0380 -0.2607 -0.3822
  507MOL0     C68323  11.834  11.072   6.625  0.2767  0.8180  1.0809
  507MOL0     C68324  11.721  11.064   6.731 -0.4965 -0.4134 -1.2688
  507MOL0     C68325  11.775  10.994   6.864  0.1588  0.5314  1.0302
  507MOL0     C68326  11.660  10.923   6.944 -0.5397 -1.0910  0.5779
  507MOL0     N68327  11.563  11.029   6.976  0.3623  0.1262 -0.7317
  507MOL0     C68328  11.564  11.096   7.097  0.3150  0.1059 -0.2752
  507MOL0     C68329  11.469  11.196   7.085 -0.5100 -0.2918  0.6788
  507MOL0     C68330  11.412  11.297   7.180 -0.2056 -0.1221  0.4733
  507MOL0     C68331  11.361  11.223   7.301 -0.1501 -0.3765 -0.5904
  507MOL0     C68332  11.311  11.324   7.410  0.0140 -0.9024 -0.4970
  507MOL0     C68333  11.239  11.454   7.363  0.2783 -0.5229 -0.6159
  507MOL0     O68334  11.211  11.529   7.480  0.5962 -0.3108 -0.7511
  507MOL0     C68335  11.126  11.637   7.478 -0.1042  0.0414 -0.5000
  507MOL0     C68336  11.048  11.678   7.371  0.6587  0.8454  0.9260
  507MOL0     C68337  10.977  11.795   7.367  0.8615  0.2590 -0.5812
  507MOL0     C68338  10.889  11.826   7.264  0.7227  0.3919  0.0322
  507MOL0     C68339  10.954  11.854   7.489 -0.4334  0.3087 -0.3954
  507MOL0     C68340  10.858  11.965   7.516 -0.4136  0.7482  0.1472
  507MOL0     O68341  10.767  11.949   7.620  0.4650  0.1110 -0.0019
  507MOL0     C68342  10.663  12.046   7.620 -0.7763  0.6524  0.2141
  507MOL0     C68343  10.528  12.018   7.600 -0.6556  0.6463  1.7297
  507MOL0     C68344  10.433  12.122   7.610 -0.3510 -0.8537  0.0447
  507MOL0     C68345  10.477  12.250   7.630  0.2665 -0.1886 -0.7058
  507MOL0     O68346  10.402  12.362   7.615 -0.3748  0.1246  0.0712
  507MOL0     C68347  10.271  12.353   7.557 -0.2932 -0.8891 -0.0667
  507MOL0     C68348  10.199  12.489   7.568  0.2270  0.2414 -0.7095
  507MOL0     C68349  10.044  12.460   7.540  0.0836 -0.2633 -0.2334
  507MOL0     C68350   9.970  12.563   7.445  0.1229 -0.4136 -0.0584
  507MOL0     C68351   9.837  12.533   7.404 -0.5444 -0.1167  0.4736
  507MOL0     C68352   9.831  12.416   7.312  0.0548 -1.5754 -0.5693
  507MOL0     C68353   9.896  12.435   7.172 -0.4650  0.3620 -0.4217
  507MOL0     C68354   9.874  12.311   7.082  0.5319 -0.4546 -0.5119
  507MOL0    Cl68355   9.838  12.351   6.913  0.1072  0.4826  0.1506
  507MOL0     C68356  10.613  12.283   7.657  1.3367  0.7155 -0.9102
  507MOL0     C68357  10.700  12.171   7.658  0.3189  0.6001 -0.0056
  507MOL0     O68358  10.868  12.066   7.446 -0.5576  0.3901 -0.9116
  507MOL0     C68359  11.030  11.815   7.599 -0.1610 -0.0352  0.0323
  507MOL0     C68360  11.121  11.714   7.594  0.1615  0.3727  0.3593
  507MOL0     N68361  11.417  11.201   6.952 -0.7780  0.1615 -0.4449
  507MOL0     N68362  11.477  11.103   6.890  0.6830  0.5321 -1.0428
  507MOL0     C68363  11.395  10.557   6.071  0.7091 -0.0897  0.4799
  507MOL0     C68364  11.270  10.516   6.017 -0.0572 -0.2419  0.9497
  507MOL0     C68365  10.903  10.467   5.827  0.1931 -1.1033  0.1899
  507MOL0     C68366  10.843  10.399   5.927 -0.6400 -0.1837  0.0633
  507MOL0     C68367  10.733  10.313   5.901 -0.0769  0.0251  0.0826
  507MOL0     C68368  10.694  10.289   5.771  0.4393  1.0034  0.3726
  507MOL0     O68369  10.607  10.186   5.754 -0.3466 -0.0659  1.2809
  507MOL0     C68370  10.599  10.112   5.629  0.5678 -1.1828 -0.2531
  507MOL0     C68371  10.515  10.186   5.516  0.1074 -0.8403  0.4996
  507MOL0     C68372  10.442  10.089   5.421 -0.4395 -0.0948 -0.2159
  507MOL0     C68373  10.369  10.171   5.315  0.5533  0.2990 -0.1869
  507MOL0     C68374  10.230  10.190   5.356 -0.0632  0.0822 -0.0007
  507MOL0     C68375  10.114  10.197   5.386 -0.6598 -0.7048  0.2536
  507MOL0     C68376  10.765  10.359   5.663  0.2464  0.6951 -0.1107
  507MOL0     C68377  10.863  10.444   5.694 -0.0963 -0.7340 -0.2331
  507MOL0     H68378  11.104  10.815   6.067 -1.2567 -1.5242 -0.4864
  507MOL0     H68379  11.323  10.872   6.169 -0.1679  1.9755 -3.0850
  507MOL0     H68380  11.528  10.906   6.237  0.1928 -0.7936 -1.6337
  507MOL0     H68381  11.485  10.813   6.376 -1.0471  2.3879 -1.0107
  507MOL0     H68382  11.722  10.734   6.400  1.2347 -1.2454 -1.2776
  507MOL0     H68383  11.751  10.831   6.250 -0.2613 -0.3374 -0.3661
  507MOL0     H68384  11.751  11.030   6.357  0.0082 -0.3525 -0.1480
  507MOL0     H68385  11.618  10.978   6.470  0.1792 -0.2599  0.8256
  507MOL0     H68386  11.819  10.852   6.596  1.0423  2.5948  4.7035
  507MOL0     H68387  11.924  10.932   6.476 -1.0578 -0.7679 -1.9241
  507MOL0     H68388  11.933  11.095   6.663  1.3214 -0.4980 -0.6678
  507MOL0     H68389  11.812  11.160   6.563 -1.4575  0.4587  1.1464
  507MOL0     H68390  11.695  11.169   6.751  1.0309 -0.0250 -1.2102
  507MOL0     H68391  11.635  11.002   6.703 -0.1056 -2.2038  1.2072
  507MOL0     H68392  11.846  10.922   6.821  0.0044  2.0249 -2.0400
  507MOL0     H68393  11.826  11.072   6.922 -2.0189  5.1597 -2.5236
  507MOL0     H68394  11.699  10.863   7.026 -0.6955 -0.8771  0.8099
  507MOL0     H68395  11.610  10.855   6.874 -2.4506  1.8432 -1.1532
  507MOL0     H68396  11.631  11.082   7.181 -0.0030  1.3297  0.2024
  507MOL0     H68397  11.478  11.380   7.206  0.4585 -1.0581  1.8966
  507MOL0     H68398  11.327  11.338   7.125  2.2338  1.6256 -2.3459
  507MOL0     H68399  11.440  11.163   7.346 -0.2284 -0.8621 -1.0876
  507MOL0     H68400  11.272  11.161   7.285 -0.6019 -0.5054  2.0905
  507MOL0     H68401  11.399  11.361   7.463  1.3862  0.8914 -3.7357
  507MOL0     H68402  11.234  11.281   7.474  1.8679 -0.1153  2.4700
  507MOL0     H68403  11.154  11.411   7.310  1.1478 -1.9531 -0.9054
  507MOL0     H68404  11.299  11.520   7.301  0.3455  2.1512  2.0615
  507MOL0     H68405  11.049  11.602   7.293  0.6683  1.8305 -0.0534
  507MOL0     H68406  10.897  11.930   7.231  1.2386  0.4087  0.1997
  507MOL0     H68407  10.916  11.767   7.176  2.7794 -1.6803  1.8911
  507MOL0     H68408  10.789  11.796   7.295  2.9441 -6.0131  2.7831
  507MOL0     H68409  10.501  11.914   7.583 -0.9896  1.0470 -0.5381
  507MOL0     H68410  10.335  12.090   7.578  1.4967 -2.8684 -4.4335
  507MOL0     H68411  10.274  12.344   7.448  1.2492 -0.3140 -0.1000
  507MOL0     H68412  10.213  12.275   7.606  3.1743 -4.7951 -1.5845
  507MOL0     H68413  10.209  12.535   7.667 -1.2138 -2.0434  0.5896
  507MOL0     H68414  10.239  12.559   7.494  0.2980  1.9821  0.8816
  507MOL0     H68415   9.998  12.463   7.639  0.0188 -0.6067 -0.2500
  507MOL0     H68416  10.035  12.361   7.493  1.1308  0.9016 -3.1073
  507MOL0     H68417   9.961  12.663   7.488 -1.8462  1.1305 -3.6584
  507MOL0     H68418  10.029  12.591   7.358  0.6529  1.5753  0.9024
  507MOL0     H68419   9.789  12.622   7.360  0.2083 -0.2719 -0.7194
  507MOL0     H68420   9.780  12.510   7.494 -1.6177  1.1739  0.1625
  507MOL0     H68421   9.873  12.324   7.355 -2.0149 -2.6758 -0.7680
  507MOL0     H68422   9.726  12.404   7.287 -0.2072 -0.0803 -0.2878
  507MOL0     H68423  10.003  12.459   7.182 -0.3476 -0.2955 -0.0355
  507MOL0     H68424   9.865  12.532   7.131 -1.2543 -1.0606 -3.5245
  507MOL0     H68425   9.789  12.253   7.119  1.1774  0.1079  2.0298
  507MOL0     H68426   9.966  12.253   7.093  1.8514  1.9099  2.4293
  507MOL0     H68427  10.645  12.384   7.682  0.2432  0.5707  1.2793
  507MOL0     H68428  10.803  12.183   7.689 -0.4581  1.5207  2.5315
  507MOL0     H68429  11.016  11.862   7.695 -1.0936 -3.9731  2.0423
  507MOL0     H68430  11.183  11.694   7.681 -0.3441  0.7762  0.8191
  507MOL0     H68431  11.481  10.492   6.087  0.9399 -0.8149 -2.9824
  507MOL0     H68432  11.264  10.416   5.977  1.0707 -0.2125  0.6786
  507MOL0     H68433  10.882  10.413   6.027  1.0667 -0.7325 -0.4956
  507MOL0     H68434  10.682  10.264   5.983  1.0265 -1.8207 -0.2754
  507MOL0     H68435  10.698  10.086   5.591  0.5737 -0.9825 -0.3802
  507MOL0     H68436  10.543  10.020   5.647 -1.7954 -0.3403 -2.7102
  507MOL0     H68437  10.575  10.256   5.457  0.7935 -1.1178  0.8606
  507MOL0     H68438  10.451  10.256   5.571  1.7137  2.0138 -1.0703
  507MOL0     H68439  10.379  10.012   5.464  0.2132  0.2914  1.4965
  507MOL0     H68440  10.526  10.036   5.373 -3.0869 -3.8001 -1.2585
  507MOL0     H68441  10.371  10.112   5.223 -3.1996 -2.0573  1.0118
  507MOL0     H68442  10.404  10.272   5.296 -0.6841  0.4247 -2.0390
  507MOL0     H68443  10.019  10.179   5.431 -1.1008  0.7949 -0.0104
  507MOL0     H68444  10.752  10.323   5.562  0.5781  2.3315 -0.7530
  507MOL0     H68445  10.914  10.493   5.612  1.5744  2.1954  2.3221
  508MOL0     O68446   2.362   0.913   4.365  0.4541 -0.3525  0.4885
  508MOL0     C68447   2.382   0.886   4.484 -0.3921 -0.1151  0.4149
  508MOL0     O68448   2.310   0.930   4.588 -0.4133  0.6369 -1.5074
  508MOL0     C68449   2.188   0.982   4.568  1.2797  0.1334 -0.2497
  508MOL0     C68450   2.084   0.916   4.497 -0.5863  0.1184  1.5427
  508MOL0     C68451   1.953   0.941   4.512  0.2475  0.1310  0.7278
  508MOL0     C68452   1.911   1.032   4.604 -0.3830  0.8052  0.4997
  508MOL0     O68453   1.781   1.057   4.624 -0.1613 -0.9509  0.1252
  508MOL0     C68454   1.714   1.135   4.524 -0.5921 -0.5093 -0.1249
  508MOL0     C68455   1.564   1.154   4.543 -0.3465 -0.0092 -0.4999
  508MOL0     C68456   1.489   1.039   4.611  0.5145  0.3883  0.9496
  508MOL0     C68457   1.506   0.898   4.543  0.4275 -0.0516 -0.1606
  508MOL0     C68458   1.411   0.801   4.615 -0.0908  0.4212  0.7628
  508MOL0     C68459   1.259   0.827   4.599  0.0500  1.1097  0.5046
  508MOL0     C68460   1.174   0.700   4.627 -0.8114  0.0238 -0.4430
  508MOL0     C68461   1.203   0.584   4.531 -0.6411 -0.0711 -0.2599
  508MOL0     N68462   1.199   0.624   4.386  0.9994 -0.0602  0.3256
  508MOL0     C68463   1.303   0.651   4.298  0.7864 -0.4641  0.2338
  508MOL0     C68464   1.240   0.658   4.177 -0.6574 -0.3260 -0.0159
  508MOL0     C68465   1.288   0.696   4.042  0.1037  0.0232  0.4344
  508MOL0     C68466   1.320   0.848   4.030 -0.3331  0.0010 -0.1555
  508MOL0     C68467   1.458   0.873   4.062 -0.2836  0.7849 -0.8694
  508MOL0     C68468   1.547   0.873   3.935  0.1250  0.2993 -1.3268
  508MOL0     O68469   1.588   0.736   3.920 -0.1168  0.7974 -0.6460
  508MOL0     C68470   1.700   0.698   3.995  0.8488  1.3952 -0.5333
  508MOL0     C68471   1.798   0.780   4.043 -0.0578 -0.4453  1.1264
  508MOL0     C68472   1.916   0.740   4.102  0.4822  0.3794  0.0119
  508MOL0     C68473   2.020   0.846   4.134 -0.1087 -0.3427  0.3474
  508MOL0     C68474   1.932   0.602   4.131  0.2105  0.4170  0.0137
  508MOL0     C68475   2.052   0.548   4.206 -0.2770 -0.3684  0.3274
  508MOL0     O68476   2.091   0.607   4.319 -0.0481 -0.3399  0.0840
  508MOL0     C68477   2.197   0.551   4.388  0.5587  0.1233  0.4726
  508MOL0     C68478   2.173   0.541   4.523 -0.5659  0.5193 -0.1560
  508MOL0     C68479   2.275   0.499   4.612 -0.2261 -0.6434  0.5017
  508MOL0     C68480   2.407   0.463   4.564  0.0102  0.6902  0.3701
  508MOL0     O68481   2.496   0.404   4.654  0.6587  0.7541 -0.1844
  508MOL0     C68482   2.629   0.397   4.608  0.7192  0.3903 -0.3080
  508MOL0     C68483   2.736   0.361   4.711  0.1266 -0.0987  0.3827
  508MOL0     C68484   2.726   0.443   4.841 -0.1401 -0.1777 -1.2178
  508MOL0     C68485   2.860   0.430   4.925  0.3436  0.8825  0.2583
  508MOL0     C68486   2.849   0.497   5.049  1.3043  0.3954 -1.8848
  508MOL0     C68487   2.990   0.500   5.118 -0.5909 -0.4050  0.9846
  508MOL0     C68488   3.023   0.639   5.172 -0.4968  0.5059 -0.0470
  508MOL0     C68489   3.130   0.630   5.280 -1.4035  0.0793  0.3086
  508MOL0    Cl68490   3.279   0.604   5.199  0.0714  0.2231  0.2652
  508MOL0     C68491   2.426   0.477   4.422 -0.5733  0.1531 -0.2262
  508MOL0     C68492   2.322   0.523   4.334 -0.0963 -0.8123 -0.0320
  508MOL0     O68493   2.100   0.441   4.160 -0.5644 -0.4451 -0.3363
  508MOL0     C68494   1.835   0.514   4.088  0.0840 -0.2354  0.5601
  508MOL0     C68495   1.720   0.558   4.023  0.6305 -0.3405  0.5244
  508MOL0     N68496   1.115   0.624   4.195 -0.5430  0.1891 -0.5380
  508MOL0     N68497   1.080   0.621   4.321 -0.3167 -0.0397 -0.2195
  508MOL0     C68498   2.009   1.102   4.681 -1.1602 -0.0268 -0.1041
  508MOL0     C68499   2.147   1.081   4.654  0.7925  0.5869 -0.0192
  508MOL0     C68500   2.518   0.829   4.523  1.6561  0.0584 -0.1237
  508MOL0     C68501   2.588   0.849   4.646  0.4849 -0.1052 -0.0724
  508MOL0     C68502   2.722   0.809   4.660 -0.0929  0.2991  0.2653
  508MOL0     C68503   2.785   0.734   4.560 -0.7674 -0.7342 -0.9489
  508MOL0     O68504   2.916   0.706   4.587  0.3231  0.0433  0.9609
  508MOL0     C68505   2.971   0.592   4.519 -0.6032  1.0946  0.3607
  508MOL0     C68506   3.119   0.585   4.557 -0.2979 -0.1251  0.5730
  508MOL0     C68507   3.163   0.438   4.519  0.6310 -0.4246 -0.1360
  508MOL0     C68508   3.313   0.428   4.525  0.4744  0.1814 -0.1415
  508MOL0     C68509   3.384   0.477   4.403  1.3996  1.0017  0.1530
  508MOL0     C68510   3.440   0.519   4.311 -0.1323  0.1472  0.3271
  508MOL0     C68511   2.712   0.700   4.446 -0.3081 -0.0806 -0.6544
  508MOL0     C68512   2.588   0.764   4.423  0.5999  1.0713  0.0822
  508MOL0     H68513   2.133   0.844   4.433  2.8689  1.7222  2.1382
  508MOL0     H68514   1.879   0.885   4.456 -1.6643  0.8680  2.4035
  508MOL0     H68515   1.769   1.228   4.506  0.2793 -1.4498 -2.8388
  508MOL0     H68516   1.730   1.090   4.426  1.7872  3.1144 -1.6205
  508MOL0     H68517   1.560   1.242   4.608  1.7778 -0.6348  0.5773
  508MOL0     H68518   1.513   1.187   4.452  2.0668  0.8053 -1.6358
  508MOL0     H68519   1.525   1.031   4.714 -0.2491  1.0704  1.2728
  508MOL0     H68520   1.384   1.069   4.611  0.4364  0.1275  0.2571
  508MOL0     H68521   1.477   0.906   4.438 -0.2402  0.0159  0.0262
  508MOL0     H68522   1.612   0.870   4.548 -0.4074 -3.5779  1.5738
  508MOL0     H68523   1.440   0.702   4.580  2.4277  1.8188 -1.4504
  508MOL0     H68524   1.440   0.809   4.721  0.7139  1.1837  0.4995
  508MOL0     H68525   1.235   0.914   4.661 -2.0563  0.4666  0.6680
  508MOL0     H68526   1.224   0.862   4.502  0.7836 -3.2448 -1.5825
  508MOL0     H68527   1.203   0.662   4.726 -0.1511 -0.6447 -0.8831
  508MOL0     H68528   1.070   0.731   4.617 -0.8979 -0.1697 -0.1668
  508MOL0     H68529   1.133   0.503   4.552 -1.8100  1.3357  1.6388
  508MOL0     H68530   1.299   0.533   4.547 -0.5336 -0.3488 -1.6579
  508MOL0     H68531   1.408   0.675   4.317  0.9493 -0.3913 -0.7397
  508MOL0     H68532   1.369   0.624   4.023  0.2676  0.0886  0.8735
  508MOL0     H68533   1.207   0.678   3.970 -0.1348 -2.1225  1.1485
  508MOL0     H68534   1.248   0.892   4.100 -2.9244  1.5518 -3.5147
  508MOL0     H68535   1.284   0.887   3.935  0.6116 -0.4543 -0.7118
  508MOL0     H68536   1.504   0.804   4.134  0.9410  0.8123 -1.5929
  508MOL0     H68537   1.458   0.973   4.107 -0.6638  0.4749 -0.1562
  508MOL0     H68538   1.628   0.944   3.921  0.6079  0.2744  0.9541
  508MOL0     H68539   1.487   0.905   3.850 -1.6855  2.2542  0.5645
  508MOL0     H68540   1.791   0.887   4.027  1.7858 -0.7021 -2.7326
  508MOL0     H68541   2.037   0.916   4.052  3.3801 -1.1960  0.1868
  508MOL0     H68542   2.005   0.909   4.221 -0.3644  2.6645 -1.7292
  508MOL0     H68543   2.122   0.807   4.145  1.5453  2.7001 -2.2795
  508MOL0     H68544   2.076   0.572   4.562  0.3885  1.1945  1.8155
  508MOL0     H68545   2.246   0.470   4.712 -1.7395 -0.4963  0.1392
  508MOL0     H68546   2.624   0.319   4.531  1.1753  1.1436 -1.1229
  508MOL0     H68547   2.655   0.492   4.561  2.2792  1.2636  2.1623
  508MOL0     H68548   2.728   0.259   4.748  0.0200  0.5144  2.1576
  508MOL0     H68549   2.833   0.367   4.661 -0.1036 -3.6079 -0.7198
  508MOL0     H68550   2.636   0.429   4.900  0.2515  1.7144 -0.0781
  508MOL0     H68551   2.727   0.550   4.816  0.3999 -0.1102 -0.9207
  508MOL0     H68552   2.876   0.322   4.932 -2.4540  0.3970  0.3146
  508MOL0     H68553   2.946   0.468   4.868  0.9452  0.4919  0.8901
  508MOL0     H68554   2.794   0.443   5.127  4.9150  1.0418  1.3957
  508MOL0     H68555   2.795   0.589   5.027 -2.1226 -1.0310 -0.1850
  508MOL0     H68556   3.011   0.418   5.187  1.4222  1.3191  2.5719
  508MOL0     H68557   3.066   0.490   5.039 -2.7529  1.0385 -1.4576
  508MOL0     H68558   2.929   0.678   5.211  0.1163  0.3565  1.6800
  508MOL0     H68559   3.068   0.701   5.094  1.7631  0.0793  0.8519
  508MOL0     H68560   3.111   0.548   5.350  1.8143 -2.3906 -1.4418
  508MOL0     H68561   3.135   0.725   5.335 -0.0323  0.6296 -0.7007
  508MOL0     H68562   2.513   0.451   4.363  1.4716  3.1626  1.2169
  508MOL0     H68563   2.333   0.541   4.228 -2.4284  2.9392  0.1764
  508MOL0     H68564   1.844   0.407   4.104 -1.2871 -0.5727 -0.6186
  508MOL0     H68565   1.651   0.482   3.986  2.7648 -0.8853 -2.7554
  508MOL0     H68566   1.974   1.175   4.753 -0.6697 -1.5715  1.7998
  508MOL0     H68567   2.231   1.117   4.713  0.6252 -3.8357  3.4066
  508MOL0     H68568   2.523   0.872   4.730  0.5677 -1.8532  0.5163
  508MOL0     H68569   2.778   0.818   4.753  0.5746 -1.0388  0.0202
  508MOL0     H68570   2.913   0.501   4.537 -3.6842  2.7621 -0.4652
  508MOL0     H68571   2.962   0.603   4.410 -0.9644  0.9041  0.3706
  508MOL0     H68572   3.143   0.617   4.659  0.7192 -2.4585  1.1205
  508MOL0     H68573   3.158   0.662   4.489 -2.7220 -0.1281 -0.9755
  508MOL0     H68574   3.143   0.421   4.412  2.7973  1.6530 -0.9552
  508MOL0     H68575   3.119   0.368   4.590 -0.1422 -1.2177 -1.3571
  508MOL0     H68576   3.344   0.326   4.548  0.1232  0.2245  0.5417
  508MOL0     H68577   3.349   0.477   4.616  0.4011 -0.8340  0.4480
  508MOL0     H68578   3.496   0.564   4.232  0.9825  1.6413  1.8919
  508MOL0     H68579   2.756   0.634   4.372  0.7016 -0.8567  0.6030
  508MOL0     H68580   2.536   0.756   4.329 -0.3938  1.9010  0.5401
  509MOL0     O68581   0.987   6.246   0.012 -0.1373 -0.3637  0.0299
  509MOL0     C68582   1.087   6.178   0.021  0.0515 -0.4587  0.8422
  509MOL0     O68583   1.101   6.045  -0.039 -0.1625 -0.1865 -0.5784
  509MOL0     C68584   0.990   5.984  -0.092  0.2662  0.8939  0.4846
  509MOL0     C68585   0.974   5.845  -0.064  0.4621  0.8133  0.4553
  509MOL0     C68586   0.866   5.775  -0.124 -0.4436  0.6026  0.3182
  509MOL0     C68587   0.765   5.834  -0.193 -0.2546  0.5672 -0.3049
  509MOL0     O68588   0.647   5.770  -0.218 -0.4362  0.2084  0.4327
  509MOL0     C68589   0.667   5.642  -0.279  1.4268  0.0565 -0.1067
  509MOL0     C68590   0.527   5.589  -0.314  0.3682 -0.3609 -0.6945
  509MOL0     C68591   0.521   5.452  -0.382 -0.3555  0.0559 -0.5881
  509MOL0     C68592   0.375   5.386  -0.376  0.4461  0.6284 -0.2561
  509MOL0     C68593   0.387   5.249  -0.443 -0.8902 -0.3787 -0.1764
  509MOL0     C68594   0.265   5.161  -0.425  0.2063  0.3954 -0.5978
  509MOL0     C68595   0.296   5.030  -0.498  0.3751 -0.1832 -0.1646
  509MOL0     C68596   0.412   4.949  -0.435 -0.7206 -0.7557 -0.4440
  509MOL0     N68597   0.391   4.938  -0.288 -0.5457 -0.7938  0.4624
  509MOL0     C68598   0.305   4.858  -0.224  0.8561 -0.3924  0.0834
  509MOL0     C68599   0.299   4.896  -0.099 -0.9489 -0.5125  0.7298
  509MOL0     C68600   0.203   4.843   0.001 -0.2673  0.3735 -0.2748
  509MOL0     C68601   0.272   4.784   0.125  0.0677 -0.2476 -1.1719
  509MOL0     C68602   0.402   4.705   0.088 -0.9592 -0.1813 -0.1798
  509MOL0     C68603   0.473   4.622   0.199 -0.1436 -0.4245  0.2627
  509MOL0     O68604   0.506   4.697   0.322 -0.6322 -0.2491  0.3907
  509MOL0     C68605   0.417   4.693   0.432 -0.7021 -0.5437  0.2551
  509MOL0     C68606   0.304   4.615   0.449 -0.0939  0.4208  0.0557
  509MOL0     C68607   0.229   4.609   0.568 -0.7071  0.3259 -0.6995
  509MOL0     C68608   0.092   4.553   0.565 -0.0213  0.6025  0.4236
  509MOL0     C68609   0.267   4.692   0.680  0.3216 -0.5337  0.2274
  509MOL0     C68610   0.206   4.711   0.813 -0.0062  0.2465  0.2517
  509MOL0     O68611   0.279   4.785   0.900 -0.2369 -0.2035  0.5432
  509MOL0     C68612   0.209   4.801   1.023 -0.0672 -0.2932  0.5895
  509MOL0     C68613   0.180   4.700   1.114  0.4880  0.1082  0.1629
  509MOL0     C68614   0.133   4.722   1.247  0.6200  0.1175 -0.0622
  509MOL0     C68615   0.111   4.856   1.287  0.3315 -0.1401  0.8349
  509MOL0     O68616   0.062   4.899   1.408  0.5055 -0.3740 -0.0104
  509MOL0     C68617   0.052   4.796   1.510 -0.0303  0.1927  0.0507
  509MOL0     C68618  -0.075   4.718   1.509 -0.0480  0.4643 -0.7625
  509MOL0     C68619  -0.197   4.798   1.459  0.3170  0.5338  1.0745
  509MOL0     C68620  -0.229   4.909   1.559 -0.6005  0.6103 -0.5012
  509MOL0     C68621  -0.369   4.929   1.567  0.6632  0.3922 -0.0297
  509MOL0     C68622  -0.397   5.042   1.677 -0.0598 -0.0586  0.5504
  509MOL0     C68623  -0.545   5.062   1.711  0.0284  0.3316 -0.2076
  509MOL0     C68624  -0.584   5.088   1.850 -0.1524  0.5616 -0.4078
  509MOL0    Cl68625  -0.493   5.230   1.896 -0.3423  0.0287  0.1989
  509MOL0     C68626   0.127   4.964   1.195 -0.3152  0.3900 -0.1600
  509MOL0     C68627   0.183   4.936   1.072 -0.0634  0.8637 -0.3322
  509MOL0     O68628   0.094   4.654   0.832 -0.1140 -0.8736  0.7838
  509MOL0     C68629   0.373   4.775   0.656 -0.5297 -0.0985 -0.5929
  509MOL0     C68630   0.448   4.775   0.539  0.4934 -0.2305 -0.1252
  509MOL0     N68631   0.376   5.007  -0.084 -0.3872 -0.3440 -1.0052
  509MOL0     N68632   0.445   5.024  -0.194 -0.1480 -0.0111  0.7457
  509MOL0     C68633   0.775   5.971  -0.220 -0.5473  0.2051  0.2790
  509MOL0     C68634   0.882   6.048  -0.167 -1.1369  0.1704  0.0844
  509MOL0     C68635   1.193   6.232   0.100  0.0815 -0.3057  0.6996
  509MOL0     C68636   1.318   6.171   0.086  0.2159 -0.3628  0.7035
  509MOL0     C68637   1.429   6.218   0.146  0.3738 -0.0119  0.1503
  509MOL0     C68638   1.426   6.329   0.224 -0.2604 -0.1538  0.4704
  509MOL0     O68639   1.549   6.380   0.267 -0.6284  0.1160 -0.0405
  509MOL0     C68640   1.607   6.462   0.176 -0.1005  0.1636  0.1303
  509MOL0     C68641   1.637   6.604   0.242 -0.6722 -1.0741  0.3292
  509MOL0     C68642   1.773   6.591   0.325 -0.0607 -0.8357 -0.2569
  509MOL0     C68643   1.797   6.714   0.414 -0.0215  0.7933  0.2412
  509MOL0     C68644   1.792   6.835   0.343  0.0847 -0.3986 -0.2163
  509MOL0     C68645   1.803   6.941   0.290  0.4490  0.1476  0.6535
  509MOL0     C68646   1.306   6.388   0.246  0.3779  0.5675  0.2374
  509MOL0     C68647   1.194   6.345   0.172  0.2676  1.1944  0.0780
  509MOL0     H68648   1.042   5.784  -0.006 -1.8805 -3.6331 -1.0087
  509MOL0     H68649   0.857   5.671  -0.094  0.9082  0.0898 -0.9452
  509MOL0     H68650   0.728   5.640  -0.370  4.3300  1.5914  1.6474
  509MOL0     H68651   0.710   5.577  -0.203 -0.6460  0.7057  1.7273
  509MOL0     H68652   0.466   5.586  -0.223 -0.5237  1.5534 -1.1910
  509MOL0     H68653   0.486   5.667  -0.378  3.6218  1.3659 -0.8683
  509MOL0     H68654   0.552   5.451  -0.487  1.0993 -6.2206 -0.4973
  509MOL0     H68655   0.583   5.384  -0.324 -2.4543 -1.2005  0.2716
  509MOL0     H68656   0.347   5.376  -0.271  2.1128  0.7868  0.2341
  509MOL0     H68657   0.298   5.435  -0.436  1.3664 -1.1938 -3.1524
  509MOL0     H68658   0.387   5.262  -0.551  0.0172 -1.3175 -0.3009
  509MOL0     H68659   0.484   5.209  -0.411 -0.8041 -0.3014 -0.3415
  509MOL0     H68660   0.240   5.131  -0.323  1.5312 -0.6139 -0.5439
  509MOL0     H68661   0.180   5.211  -0.473 -0.9635 -2.0170 -1.2135
  509MOL0     H68662   0.209   4.967  -0.477  1.4697 -1.5771  0.4149
  509MOL0     H68663   0.310   5.034  -0.606  0.0379  1.0336 -0.1687
  509MOL0     H68664   0.511   4.993  -0.448  0.1004 -2.5482 -0.4953
  509MOL0     H68665   0.408   4.843  -0.462 -1.9519 -0.1382 -2.8936
  509MOL0     H68666   0.231   4.788  -0.262 -0.8194  0.6782  1.2477
  509MOL0     H68667   0.143   4.932   0.027  1.4704  0.6826  3.2104
  509MOL0     H68668   0.135   4.773  -0.048  1.4242 -0.4997 -1.4738
  509MOL0     H68669   0.191   4.725   0.170 -0.6203  0.3941 -1.5433
  509MOL0     H68670   0.298   4.860   0.199 -2.5266 -0.8715  0.5237
  509MOL0     H68671   0.474   4.780   0.052  0.2029 -1.1642  0.0087
  509MOL0     H68672   0.382   4.644  -0.001 -0.3189  1.0116 -1.1765
  509MOL0     H68673   0.569   4.587   0.160 -0.1975 -1.4526  1.0249
  509MOL0     H68674   0.419   4.529   0.221  1.0356 -1.8180 -2.3433
  509MOL0     H68675   0.268   4.554   0.366 -1.4694  0.7109  0.4143
  509MOL0     H68676   0.058   4.526   0.465 -0.8999 -2.5847  1.4858
  509MOL0     H68677   0.088   4.453   0.609  3.3313 -0.6737 -1.7827
  509MOL0     H68678   0.026   4.624   0.616  2.6680  1.6275  2.7435
  509MOL0     H68679   0.199   4.602   1.073  0.4695  0.2344 -0.1481
  509MOL0     H68680   0.124   4.638   1.315  2.3004 -0.9957 -1.1577
  509MOL0     H68681   0.142   4.733   1.506  0.4246  0.8649 -3.3772
  509MOL0     H68682   0.052   4.859   1.599  2.0855  2.3290 -1.3172
  509MOL0     H68683  -0.052   4.620   1.465  0.5372 -2.2634  4.8187
  509MOL0     H68684  -0.089   4.678   1.610  1.7020 -1.7184 -1.2824
  509MOL0     H68685  -0.272   4.720   1.450  2.7787 -1.7597 -5.0686
  509MOL0     H68686  -0.180   4.838   1.358  0.4606 -2.1774 -0.0603
  509MOL0     H68687  -0.196   4.879   1.659 -0.9922  1.0433 -0.2370
  509MOL0     H68688  -0.184   5.004   1.529 -0.0936  0.1957 -1.0745
  509MOL0     H68689  -0.419   4.836   1.598  1.7574  0.6122  2.7274
  509MOL0     H68690  -0.422   4.959   1.476 -1.6168  1.3916  1.5216
  509MOL0     H68691  -0.352   5.006   1.770 -0.7890 -0.3460  0.7992
  509MOL0     H68692  -0.361   5.141   1.647 -3.2296  0.5780 -1.6785
  509MOL0     H68693  -0.605   4.981   1.669 -0.4350  0.3032  0.4993
  509MOL0     H68694  -0.576   5.148   1.651  2.0000  1.0864 -0.2274
  509MOL0     H68695  -0.557   5.019   1.930 -0.1902  0.4235 -0.5127
  509MOL0     H68696  -0.693   5.096   1.860 -0.5559 -2.7870 -0.9109
  509MOL0     H68697   0.109   5.069   1.218  2.7062  1.2116 -1.0429
  509MOL0     H68698   0.207   5.017   1.004 -2.7308  3.0615  1.1353
  509MOL0     H68699   0.412   4.853   0.720 -1.1675  1.0596 -1.5570
  509MOL0     H68700   0.535   4.839   0.524 -0.4655  0.3644 -4.5640
  509MOL0     H68701   0.690   6.012  -0.273  0.0880 -0.3852 -1.2760
  509MOL0     H68702   0.904   6.151  -0.193 -0.5267  0.3549  1.2616
  509MOL0     H68703   1.336   6.085   0.022  3.4918  1.0640 -0.4702
  509MOL0     H68704   1.528   6.174   0.133  0.7733  0.9611 -0.2203
  509MOL0     H68705   1.706   6.421   0.155  0.3135 -0.0363  2.2489
  509MOL0     H68706   1.558   6.475   0.079 -2.3072 -1.2965  0.9779
  509MOL0     H68707   1.553   6.640   0.302 -1.3060 -4.7972  1.9909
  509MOL0     H68708   1.649   6.675   0.160 -1.5075  0.3137  1.3778
  509MOL0     H68709   1.857   6.592   0.255  0.2615  2.9623 -0.0476
  509MOL0     H68710   1.774   6.499   0.383  0.8356  1.3382  3.5279
  509MOL0     H68711   1.890   6.714   0.473 -0.6107  0.2147  1.2076
  509MOL0     H68712   1.725   6.689   0.492 -0.7424 -2.5098 -1.3013
  509MOL0     H68713   1.818   7.034   0.238  0.2436  0.8176  1.7693
  509MOL0     H68714   1.296   6.474   0.312 -1.0002  0.4771  0.1796
  509MOL0     H68715   1.107   6.409   0.181 -0.8817 -0.0968 -1.3144
  510MOL0     O68716   5.782   2.990   6.126  0.3168 -0.4693  0.3345
  510MOL0     C68717   5.873   2.964   6.205  0.4264  0.5032  0.2468
  510MOL0     O68718   5.860   2.958   6.344  1.0291 -0.0438 -0.8148
  510MOL0     C68719   5.740   2.970   6.395  0.0601  0.3733  0.1485
  510MOL0     C68720   5.646   2.876   6.356 -0.3824  0.1140 -0.6327
  510MOL0     C68721   5.517   2.884   6.407 -0.8630 -0.1967  0.5184
  510MOL0     C68722   5.486   2.988   6.502 -0.9819  0.7101  0.8817
  510MOL0     O68723   5.362   3.012   6.556  0.0631 -0.2747  0.6865
  510MOL0     C68724   5.240   2.967   6.483  0.4957  0.9209 -0.1249
  510MOL0     C68725   5.216   3.047   6.358 -0.7327  0.3740  0.3230
  510MOL0     C68726   5.176   2.960   6.234 -0.2506  0.5116  0.2242
  510MOL0     C68727   5.112   3.029   6.113 -0.6804  0.1255 -0.8489
  510MOL0     C68728   5.061   2.927   6.015 -0.8547  0.2280  0.5804
  510MOL0     C68729   4.930   2.866   6.052 -0.5569  0.5069  0.3850
  510MOL0     C68730   4.822   2.977   6.084  0.1212  0.2045  0.2021
  510MOL0     C68731   4.676   2.932   6.065 -1.0616  0.4861  0.8845
  510MOL0     N68732   4.563   3.030   6.103 -0.9503  0.5258  0.4152
  510MOL0     C68733   4.548   3.149   6.035 -0.0479 -0.2009  0.6043
  510MOL0     C68734   4.422   3.194   6.081 -0.0766 -0.4659  0.6670
  510MOL0     C68735   4.349   3.319   6.032 -0.1963 -0.4117  0.9943
  510MOL0     C68736   4.336   3.432   6.125 -0.0528  0.0044  0.2401
  510MOL0     C68737   4.228   3.410   6.228  0.1788 -0.4129  0.4371
  510MOL0     C68738   4.212   3.543   6.305 -0.0650  1.1459 -0.0944
  510MOL0     O68739   4.093   3.528   6.387  1.0902  0.4673  0.3751
  510MOL0     C68740   3.972   3.552   6.321 -0.1260 -0.2755  1.2274
  510MOL0     C68741   3.854   3.534   6.389 -0.2480  0.2774 -0.2419
  510MOL0     C68742   3.721   3.537   6.339  0.0732  0.5014 -0.3156
  510MOL0     C68743   3.609   3.509   6.429  0.2232  0.2102 -0.0599
  510MOL0     C68744   3.705   3.566   6.206  0.0975 -0.2992  0.1743
  510MOL0     C68745   3.576   3.579   6.135 -0.1139 -1.3192 -0.6781
  510MOL0     O68746   3.483   3.647   6.217  0.4362  0.3206  0.2546
  510MOL0     C68747   3.365   3.707   6.165 -0.3966  0.8496  0.5251
  510MOL0     C68748   3.288   3.757   6.275 -0.2014  0.1897 -0.4582
  510MOL0     C68749   3.168   3.816   6.247  0.7142  0.1893 -0.2766
  510MOL0     C68750   3.122   3.828   6.119 -0.2247 -0.4451  0.4741
  510MOL0     O68751   2.999   3.874   6.083  0.3353  0.5107 -0.3583
  510MOL0     C68752   2.929   3.977   6.155 -0.2858  0.0035 -0.4101
  510MOL0     C68753   2.823   4.058   6.080  0.1867 -0.2186  0.3032
  510MOL0     C68754   2.871   4.124   5.946 -0.1515 -0.5640  0.4952
  510MOL0     C68755   2.760   4.188   5.867 -0.7825 -0.1119 -0.1013
  510MOL0     C68756   2.675   4.084   5.793 -0.2258 -0.3328 -0.4785
  510MOL0     C68757   2.526   4.114   5.770 -0.3402  0.0142  0.9052
  510MOL0     C68758   2.459   3.988   5.688 -0.0547  0.7836 -0.0660
  510MOL0     C68759   2.307   4.010   5.686 -0.1406 -0.6728  0.7948
  510MOL0    Cl68760   2.222   4.011   5.842 -0.2438  0.1946  0.3666
  510MOL0     C68761   3.212   3.790   6.009  0.4198  0.7363 -0.9005
  510MOL0     C68762   3.328   3.724   6.039  0.5977 -0.2303  1.3406
  510MOL0     O68763   3.555   3.545   6.019 -0.4004  0.1879  0.0299
  510MOL0     C68764   3.818   3.589   6.129 -1.1900  0.0514  0.7091
  510MOL0     C68765   3.946   3.587   6.181 -0.8513  0.2041 -0.3685
  510MOL0     N68766   4.376   3.107   6.181 -0.1613  0.3182  0.5943
  510MOL0     N68767   4.456   3.005   6.180 -0.4643 -0.0868 -0.1543
  510MOL0     C68768   5.583   3.084   6.531  0.2605  1.0392 -0.2259
  510MOL0     C68769   5.709   3.077   6.482 -0.6727 -0.1486  0.7185
  510MOL0     C68770   6.008   2.921   6.150 -0.4401 -0.0628  0.5090
  510MOL0     C68771   6.016   2.907   6.006  0.6922 -0.7775 -1.0273
  510MOL0     C68772   6.150   2.890   5.952  0.2426  0.3002 -0.8395
  510MOL0     C68773   6.261   2.880   6.033 -0.7404 -0.0065  0.6508
  510MOL0     O68774   6.394   2.871   5.991  0.2804  0.3764 -0.5206
  510MOL0     C68775   6.415   2.876   5.852 -0.6845  0.2680  0.5698
  510MOL0     C68776   6.573   2.894   5.800  0.7819 -1.0399  0.2896
  510MOL0     C68777   6.640   3.007   5.890 -0.4189  0.7121  0.9883
  510MOL0     C68778   6.719   2.960   6.007  0.1491  0.0288 -0.8096
  510MOL0     C68779   6.818   2.871   5.968 -0.3819  0.4409 -0.4956
  510MOL0     C68780   6.905   2.807   5.931 -0.6702 -0.2358 -0.5468
  510MOL0     C68781   6.243   2.876   6.173 -0.5245  0.3222  0.3948
  510MOL0     C68782   6.122   2.903   6.228 -0.5205 -0.6063 -0.3969
  510MOL0     H68783   5.673   2.790   6.294 -0.2997 -1.5573  1.6056
  510MOL0     H68784   5.440   2.813   6.379 -0.1319 -0.8104  0.0349
  510MOL0     H68785   5.246   2.861   6.459 -3.3166  1.0458 -2.3878
  510MOL0     H68786   5.155   2.967   6.550  1.2443 -0.4238  0.8758
  510MOL0     H68787   5.151   3.132   6.383 -1.7373 -0.2815  0.0181
  510MOL0     H68788   5.310   3.097   6.334 -1.3619  1.5349  0.1813
  510MOL0     H68789   5.258   2.908   6.184 -2.0500  0.3918 -2.8144
  510MOL0     H68790   5.107   2.885   6.272  0.3016  1.2588  2.9398
  510MOL0     H68791   5.032   3.098   6.141  0.3079  1.8359 -1.9880
  510MOL0     H68792   5.187   3.097   6.070 -0.5746  0.3571 -0.2981
  510MOL0     H68793   5.042   2.970   5.916 -0.8068  0.8067  0.8174
  510MOL0     H68794   5.136   2.853   5.988  4.2473  5.0998 -0.3975
  510MOL0     H68795   4.902   2.801   5.969  2.3311 -0.2744 -0.0999
  510MOL0     H68796   4.940   2.812   6.147  0.5677  2.8717  1.7339
  510MOL0     H68797   4.840   2.999   6.190 -1.2640 -2.9471  1.2311
  510MOL0     H68798   4.835   3.058   6.012  2.1264  0.3855  0.6989
  510MOL0     H68799   4.660   2.844   6.128  1.7878 -0.9459 -0.2326
  510MOL0     H68800   4.662   2.897   5.962 -1.9628  0.9775  0.8285
  510MOL0     H68801   4.605   3.196   5.956 -3.3412 -1.0825 -2.6049
  510MOL0     H68802   4.425   3.360   5.965 -0.6779  2.7973  2.2619
  510MOL0     H68803   4.254   3.292   5.983 -0.8408  1.2169  1.2921
  510MOL0     H68804   4.316   3.524   6.070  4.3570  0.2467 -1.3485
  510MOL0     H68805   4.428   3.438   6.182 -0.8617 -0.4453  1.6457
  510MOL0     H68806   4.254   3.337   6.305  0.8933  0.3017  0.8864
  510MOL0     H68807   4.134   3.388   6.177  0.9677 -0.3302 -1.1021
  510MOL0     H68808   4.206   3.630   6.238  3.7292  1.4666 -0.2440
  510MOL0     H68809   4.303   3.554   6.364 -1.4361  1.7669  2.0038
  510MOL0     H68810   3.856   3.500   6.493 -3.3207 -2.2287 -0.8274
  510MOL0     H68811   3.657   3.475   6.521  2.0774  3.5712  0.3614
  510MOL0     H68812   3.551   3.599   6.449 -1.9191 -0.6709 -1.8587
  510MOL0     H68813   3.542   3.433   6.387  2.8263  0.5878 -5.9967
  510MOL0     H68814   3.330   3.750   6.375  1.0164  0.3196 -0.9443
  510MOL0     H68815   3.114   3.858   6.331  2.1979 -0.4960  1.0585
  510MOL0     H68816   2.887   3.925   6.242 -1.9357 -1.7109 -2.1309
  510MOL0     H68817   3.008   4.044   6.191  0.1382 -0.3978 -0.5726
  510MOL0     H68818   2.730   4.005   6.061 -1.0549  1.6884  0.8625
  510MOL0     H68819   2.794   4.134   6.153  1.0262  0.8643 -0.4607
  510MOL0     H68820   2.919   4.044   5.889 -0.4949  1.6899 -3.3125
  510MOL0     H68821   2.940   4.206   5.970  0.4766 -0.7337 -0.6215
  510MOL0     H68822   2.703   4.240   5.945 -0.9338  0.6133 -0.6853
  510MOL0     H68823   2.799   4.269   5.804  0.4481 -2.1778 -2.1412
  510MOL0     H68824   2.690   3.991   5.849 -0.9777  2.5884  5.2595
  510MOL0     H68825   2.720   4.075   5.693 -0.1195  0.2725 -0.4854
  510MOL0     H68826   2.480   4.130   5.868  0.8741 -0.6362  1.6050
  510MOL0     H68827   2.510   4.199   5.703 -0.7395 -0.9265 -0.2257
  510MOL0     H68828   2.478   3.890   5.732  1.2427  0.5074 -1.1615
  510MOL0     H68829   2.492   3.992   5.583 -0.9961 -1.5352 -0.5151
  510MOL0     H68830   2.261   3.932   5.626 -1.4042  0.9051 -0.3727
  510MOL0     H68831   2.266   4.093   5.628 -3.0707 -3.2229 -1.1281
  510MOL0     H68832   3.194   3.809   5.903  0.6671  0.1588 -1.0506
  510MOL0     H68833   3.388   3.693   5.954  0.0377  2.3931 -0.1337
  510MOL0     H68834   3.817   3.608   6.022  2.3183 -1.1657  0.3509
  510MOL0     H68835   4.015   3.590   6.097 -0.1146  2.3984  0.2498
  510MOL0     H68836   5.547   3.152   6.608 -3.4423 -0.3783 -0.5013
  510MOL0     H68837   5.784   3.148   6.515 -2.1054  1.0487  1.5399
  510MOL0     H68838   5.932   2.925   5.940 -0.0886  1.9612  0.5401
  510MOL0     H68839   6.153   2.888   5.844 -2.5317  1.2265 -1.0184
  510MOL0     H68840   6.380   2.785   5.802  0.9733  0.8652 -1.8616
  510MOL0     H68841   6.355   2.956   5.807  0.3777  1.0707  0.5387
  510MOL0     H68842   6.570   2.935   5.698  1.1151 -2.8660 -0.5099
  510MOL0     H68843   6.627   2.799   5.800  0.7801 -1.0649 -0.9109
  510MOL0     H68844   6.560   3.068   5.936 -0.3173 -0.2060  2.4448
  510MOL0     H68845   6.696   3.073   5.823 -0.4947 -0.3293 -0.1240
  510MOL0     H68846   6.656   2.901   6.075  0.6478 -0.5199 -0.8144
  510MOL0     H68847   6.753   3.033   6.081  1.3606 -2.6406  1.4389
  510MOL0     H68848   6.995   2.756   5.902  0.2293 -1.4417  3.6513
  510MOL0     H68849   6.328   2.864   6.239 -0.3051 -0.3402 -0.0014
  510MOL0     H68850   6.112   2.923   6.335  2.4139  1.5192 -0.4031
  511MOL0     O68851   8.136  11.376   5.377 -0.0264 -0.3058  0.0231
  511MOL0     C68852   8.161  11.258   5.388  0.3538  0.6179  0.3253
  511MOL0     O68853   8.065  11.158   5.393  0.8599  0.2192  0.4594
  511MOL0     C68854   7.935  11.197   5.359  0.0596  0.0573  0.0176
  511MOL0     C68855   7.849  11.249   5.465 -0.8882  0.3503 -0.5977
  511MOL0     C68856   7.722  11.283   5.428  0.1664 -0.6420 -0.5914
  511MOL0     C68857   7.672  11.247   5.306 -0.6393  0.8260  0.2658
  511MOL0     O68858   7.554  11.295   5.264 -0.0313  0.0008  0.1376
  511MOL0     C68859   7.451  11.195   5.259 -0.4019  0.0514 -0.5688
  511MOL0     C68860   7.319  11.248   5.193 -0.0203 -0.3835  0.2922
  511MOL0     C68861   7.199  11.153   5.198  0.7236 -1.3368  0.2258
  511MOL0     C68862   7.100  11.199   5.085 -0.1084 -0.0538  0.1102
  511MOL0     C68863   6.985  11.108   5.068  0.1747 -0.6513  0.5370
  511MOL0     C68864   7.011  10.964   5.039 -0.4080 -0.4810  0.1163
  511MOL0     C68865   6.894  10.876   5.002  0.0570  0.1289  0.4728
  511MOL0     C68866   6.828  10.798   5.113  0.7674 -0.4895 -0.5622
  511MOL0     N68867   6.898  10.669   5.136  0.1367 -0.9281 -0.6249
  511MOL0     C68868   7.020  10.653   5.197 -0.4725  0.2642  0.0002
  511MOL0     C68869   7.039  10.524   5.197  0.0026 -0.8084 -0.1599
  511MOL0     C68870   7.154  10.453   5.256  0.1290  0.2296 -0.0393
  511MOL0     C68871   7.281  10.481   5.172 -0.1123 -0.3471 -0.4975
  511MOL0     C68872   7.270  10.434   5.025  1.0447  0.0687  0.4924
  511MOL0     C68873   7.237  10.282   5.013 -0.0421 -0.4815 -0.4773
  511MOL0     O68874   7.241  10.233   4.884  0.4627 -0.5531  0.4009
  511MOL0     C68875   7.128  10.207   4.819  1.0109  0.2230  0.1575
  511MOL0     C68876   7.139  10.123   4.709 -0.0750  0.8265 -0.8029
  511MOL0     C68877   7.032  10.101   4.621  0.3033  0.1131  0.0138
  511MOL0     C68878   7.071  10.028   4.503  0.3974  0.1866  0.6465
  511MOL0     C68879   6.897  10.144   4.657 -0.3938  0.8466  0.1159
  511MOL0     C68880   6.772  10.120   4.573 -0.6889  0.9915 -0.6982
  511MOL0     O68881   6.787  10.124   4.433  0.1342  0.1128 -0.1048
  511MOL0     C68882   6.684  10.093   4.348  0.3050  0.0362  0.5697
  511MOL0     C68883   6.602   9.980   4.360 -0.4174 -0.0327  0.5036
  511MOL0     C68884   6.504   9.964   4.262  0.2156 -0.2298  0.3597
  511MOL0     C68885   6.476  10.053   4.155  0.0942  0.1655  0.6104
  511MOL0     O68886   6.367  10.030   4.067  0.3888  0.1617 -0.1692
  511MOL0     C68887   6.371  10.076   3.931 -0.3123 -0.6842  0.1724
  511MOL0     C68888   6.275   9.988   3.852 -0.3922 -0.1727  0.5041
  511MOL0     C68889   6.129  10.010   3.894 -0.5149  0.3525  0.4528
  511MOL0     C68890   6.032   9.904   3.836 -0.4014 -0.2914  0.5967
  511MOL0     C68891   5.880   9.925   3.846 -0.1867 -1.2560 -0.1463
  511MOL0     C68892   5.796   9.807   3.817  0.3801  0.1612  0.3221
  511MOL0     C68893   5.651   9.816   3.863  0.9368  1.1635  0.0874
  511MOL0     C68894   5.588   9.678   3.839  0.6289 -0.3093  0.6237
  511MOL0    Cl68895   5.458   9.648   3.968  0.4893 -0.1730 -0.2979
  511MOL0     C68896   6.559  10.159   4.139  0.4375 -0.2347 -0.1467
  511MOL0     C68897   6.659  10.173   4.235 -0.0434 -0.0320 -0.0267
  511MOL0     O68898   6.667  10.106   4.641  0.8280 -0.4826 -0.5029
  511MOL0     C68899   6.882  10.228   4.771 -0.3751  0.4560 -0.2917
  511MOL0     C68900   7.000  10.258   4.843  0.8440 -0.0727  0.6750
  511MOL0     N68901   6.941  10.465   5.127 -0.4012 -0.2020 -0.1409
  511MOL0     N68902   6.858  10.551   5.082  1.7834 -0.4152 -0.8165
  511MOL0     C68903   7.749  11.184   5.207  0.3699  0.1722 -0.2310
  511MOL0     C68904   7.881  11.163   5.231 -0.4339 -0.1339 -0.7836
  511MOL0     C68905   8.304  11.215   5.412  0.2525  0.1167  0.0350
  511MOL0     C68906   8.336  11.080   5.404 -0.1516  0.8363  0.5238
  511MOL0     C68907   8.467  11.047   5.439  0.2732  0.2434  0.2612
  511MOL0     C68908   8.558  11.146   5.487  0.4125  0.6511 -0.7922
  511MOL0     O68909   8.685  11.109   5.533 -0.2250 -0.0178  0.5210
  511MOL0     C68910   8.784  11.036   5.455 -0.2443 -0.2984 -0.2629
  511MOL0     C68911   8.841  11.131   5.344  0.4930  0.7314  0.6032
  511MOL0     C68912   8.905  11.267   5.392  0.0020 -0.5693  0.4429
  511MOL0     C68913   9.017  11.310   5.302 -0.0025 -0.4522  0.2464
  511MOL0     C68914   8.988  11.357   5.167 -0.6122 -0.4936 -0.0000
  511MOL0     C68915   8.971  11.400   5.057 -0.6934 -0.4627  0.9325
  511MOL0     C68916   8.513  11.275   5.496 -0.3939  0.4519  0.3957
  511MOL0     C68917   8.391  11.318   5.453 -0.3129  0.0438  0.1435
  511MOL0     H68918   7.882  11.272   5.566  1.1564 -0.2991 -1.0701
  511MOL0     H68919   7.648  11.324   5.497  0.5894 -3.8002  1.9947
  511MOL0     H68920   7.486  11.107   5.204  1.0505  0.6713 -0.6890
  511MOL0     H68921   7.412  11.156   5.354 -0.5366 -3.0479 -1.7875
  511MOL0     H68922   7.295  11.343   5.241  0.9599 -0.9756  2.0324
  511MOL0     H68923   7.345  11.258   5.087  0.4752  0.9070  0.5241
  511MOL0     H68924   7.235  11.051   5.187  1.8751 -0.9270  0.0449
  511MOL0     H68925   7.146  11.158   5.294  1.6687 -2.7406  0.8587
  511MOL0     H68926   7.052  11.294   5.108 -1.1976 -0.3026 -1.0270
  511MOL0     H68927   7.149  11.193   4.987  1.1015 -1.1786  0.7493
  511MOL0     H68928   6.918  11.123   5.154  0.3831 -2.2673  1.0257
  511MOL0     H68929   6.928  11.141   4.980  4.2923  3.0126 -1.0853
  511MOL0     H68930   7.089  10.949   4.963 -0.4306 -1.0071  0.1918
  511MOL0     H68931   7.048  10.922   5.133 -2.9318 -2.2132  0.4243
  511MOL0     H68932   6.815  10.931   4.951 -0.9948  0.5849  2.4985
  511MOL0     H68933   6.929  10.797   4.935 -1.7839 -2.0491  1.9352
  511MOL0     H68934   6.730  10.773   5.070  0.7777  1.0635 -1.5709
  511MOL0     H68935   6.813  10.857   5.204 -4.0316 -0.6758 -0.9503
  511MOL0     H68936   7.070  10.729   5.257  2.7860 -0.2497 -1.8177
  511MOL0     H68937   7.159  10.486   5.360  1.8083 -0.8948  0.2828
  511MOL0     H68938   7.123  10.348   5.259  0.1802  0.2297  1.3335
  511MOL0     H68939   7.365  10.424   5.213  0.3386  1.4393  1.2102
  511MOL0     H68940   7.312  10.585   5.183  0.4648 -0.7457  2.5547
  511MOL0     H68941   7.364  10.438   4.970 -0.9790 -1.0969 -3.4312
  511MOL0     H68942   7.198  10.505   4.983 -0.2947 -0.5405  1.6678
  511MOL0     H68943   7.149  10.250   5.070  0.4347 -0.9364  0.0135
  511MOL0     H68944   7.330  10.232   5.042  0.6610 -0.1340 -2.0460
  511MOL0     H68945   7.240  10.091   4.687 -0.5200 -0.7575 -0.6939
  511MOL0     H68946   7.175   9.993   4.500 -0.8292 -4.5859  3.2683
  511MOL0     H68947   7.003   9.943   4.508 -1.6607  1.5784 -1.4792
  511MOL0     H68948   7.050  10.076   4.407 -0.0881 -0.1552  0.5816
  511MOL0     H68949   6.610   9.913   4.445 -0.3859  0.9479  1.2841
  511MOL0     H68950   6.457   9.866   4.272  0.4649 -0.2747  1.2365
  511MOL0     H68951   6.344  10.182   3.923  1.4554 -0.1851  0.3738
  511MOL0     H68952   6.468  10.057   3.885 -0.1806 -0.8787  0.5263
  511MOL0     H68953   6.261  10.023   3.749 -5.0313 -0.8385  0.7185
  511MOL0     H68954   6.297   9.881   3.847  3.7538  0.5416 -1.2871
  511MOL0     H68955   6.094  10.111   3.871 -0.0412 -0.0496 -2.4438
  511MOL0     H68956   6.123   9.990   4.001 -1.9910 -1.6858  0.0510
  511MOL0     H68957   6.043   9.899   3.727 -2.9164  2.9634  0.0500
  511MOL0     H68958   6.056   9.806   3.879 -1.2762 -0.8882 -0.2292
  511MOL0     H68959   5.864  10.014   3.785 -3.1211 -0.7806  1.1255
  511MOL0     H68960   5.861   9.967   3.946  3.5405  0.1340  0.1589
  511MOL0     H68961   5.790   9.786   3.709  0.0748  2.3605 -0.1286
  511MOL0     H68962   5.845   9.725   3.871 -3.1426  0.3377  4.2616
  511MOL0     H68963   5.596   9.883   3.795 -0.7900  1.3601  1.5944
  511MOL0     H68964   5.633   9.856   3.964  1.4424 -2.6117  1.8215
  511MOL0     H68965   5.663   9.598   3.835  2.6518  1.5346 -0.6296
  511MOL0     H68966   5.545   9.670   3.739  2.0052 -0.3670  0.0143
  511MOL0     H68967   6.551  10.225   4.054 -1.0697 -2.5208 -1.9053
  511MOL0     H68968   6.727  10.257   4.223  1.9504 -1.2443  2.0459
  511MOL0     H68969   6.785  10.268   4.798 -0.2213  2.9145 -2.9571
  511MOL0     H68970   6.989  10.315   4.935  0.7784 -0.7651  1.1059
  511MOL0     H68971   7.704  11.176   5.108 -0.1703  0.7456 -0.0386
  511MOL0     H68972   7.948  11.132   5.152  0.5549  1.6635 -0.7011
  511MOL0     H68973   8.263  11.005   5.372  1.3734 -1.2220  1.6098
  511MOL0     H68974   8.497  10.944   5.425  1.6579  0.6896 -0.2611
  511MOL0     H68975   8.864  11.006   5.523  1.5877  1.7815 -1.3786
  511MOL0     H68976   8.740  10.951   5.401  0.5387 -0.6504 -0.3600
  511MOL0     H68977   8.755  11.147   5.279  0.2464 -1.9439  0.1435
  511MOL0     H68978   8.917  11.083   5.282 -0.4014  1.1567 -0.8582
  511MOL0     H68979   8.932  11.267   5.498  0.1386 -3.0031  0.4666
  511MOL0     H68980   8.829  11.345   5.394 -0.0458 -0.6184  0.5584
  511MOL0     H68981   9.091  11.229   5.301  1.4414  0.8046  1.0673
  511MOL0     H68982   9.076  11.388   5.352 -0.6757  0.4296 -0.3100
  511MOL0     H68983   8.938  11.441   4.963 -1.2215 -0.6551  1.0316
  511MOL0     H68984   8.583  11.344   5.541  3.8076 -1.9846 -1.7945
  511MOL0     H68985   8.374  11.424   5.466 -0.3668  0.1321 -0.5880
  512MOL0     O68986  10.549   1.630   4.056  0.7129  0.0702  0.4237
  512MOL0     C68987  10.627   1.621   3.963  0.4314  0.3265 -0.8941
  512MOL0     O68988  10.601   1.665   3.841  0.1116 -0.0521  0.2256
  512MOL0     C68989  10.491   1.748   3.814  0.4064 -0.0282  0.2116
  512MOL0     C68990  10.359   1.741   3.871 -0.3587  0.7779  1.4111
  512MOL0     C68991  10.259   1.819   3.819  0.0410  0.0603  0.0724
  512MOL0     C68992  10.283   1.906   3.707 -0.2549 -0.8190 -0.5707
  512MOL0     O68993  10.194   1.986   3.641 -0.2580  0.2152  0.1234
  512MOL0     C68994  10.086   2.030   3.723  0.2132 -0.2079 -0.0388
  512MOL0     C68995  10.075   2.174   3.785 -0.3699  0.5892 -0.2841
  512MOL0     C68996   9.931   2.188   3.859  0.3624 -0.0315  0.6055
  512MOL0     C68997   9.965   2.235   4.001  0.8290 -0.7963 -0.0057
  512MOL0     C68998   9.852   2.227   4.106 -0.6741 -0.0943  0.0410
  512MOL0     C68999   9.896   2.314   4.233  0.5270 -0.0770  0.4417
  512MOL0     C69000   9.809   2.277   4.361 -0.4048  0.3658 -0.6434
  512MOL0     C69001   9.688   2.366   4.358  0.1246 -0.3814 -0.6758
  512MOL0     N69002   9.706   2.512   4.391  0.0462  0.4124  0.3634
  512MOL0     C69003   9.713   2.608   4.297 -0.0956  0.7226 -1.4693
  512MOL0     C69004   9.763   2.711   4.370  0.6204 -0.1155 -0.1219
  512MOL0     C69005   9.810   2.847   4.317  0.0852  0.3206  0.2892
  512MOL0     C69006   9.958   2.876   4.355  0.9393  0.1947  0.2867
  512MOL0     C69007  10.065   2.795   4.270 -0.6292 -0.8478 -0.9867
  512MOL0     C69008  10.049   2.643   4.252 -0.2304 -0.8722  0.3654
  512MOL0     O69009  10.162   2.583   4.190 -0.0354  0.2613 -0.5546
  512MOL0     C69010  10.183   2.596   4.057  0.0277  0.0178 -0.0088
  512MOL0     C69011  10.271   2.504   4.006  1.0817 -0.0753 -0.3966
  512MOL0     C69012  10.307   2.502   3.868 -0.5350 -0.0781 -0.1141
  512MOL0     C69013  10.396   2.393   3.827 -0.6432  0.2408 -0.5490
  512MOL0     C69014  10.243   2.600   3.780 -0.3228  0.1136  0.1947
  512MOL0     C69015  10.284   2.628   3.641  0.1072  0.1830 -0.1247
  512MOL0     O69016  10.236   2.736   3.576  0.3507 -0.5726  0.4014
  512MOL0     C69017  10.301   2.778   3.459 -0.3992 -0.6473  0.2007
  512MOL0     C69018  10.446   2.791   3.463 -0.4151 -0.1819 -0.1568
  512MOL0     C69019  10.513   2.846   3.352 -0.7846 -0.3782 -0.0920
  512MOL0     C69020  10.441   2.858   3.231 -0.1984 -1.3730 -0.4559
  512MOL0     O69021  10.504   2.889   3.113  0.1982  0.8220  0.2297
  512MOL0     C69022  10.465   2.807   3.006 -1.0130  0.5577 -0.0034
  512MOL0     C69023  10.550   2.849   2.885  0.4633  0.2756  0.6071
  512MOL0     C69024  10.698   2.835   2.907 -0.2686  1.0282  0.1378
  512MOL0     C69025  10.769   2.883   2.783 -0.2742 -0.1149  0.4569
  512MOL0     C69026  10.907   2.804   2.791 -0.4349 -0.6836 -0.5485
  512MOL0     C69027  11.006   2.872   2.892  0.3225  0.8619  0.5599
  512MOL0     C69028  11.145   2.817   2.888 -0.2346  0.2117 -0.5639
  512MOL0     C69029  11.213   2.841   3.027 -0.1564  0.4071  0.3145
  512MOL0    Cl69030  11.151   2.730   3.148 -0.2269 -0.0370 -0.0386
  512MOL0     C69031  10.302   2.862   3.237 -0.2446  0.1601 -0.9427
  512MOL0     C69032  10.230   2.814   3.345  0.6407  0.1560  0.4623
  512MOL0     O69033  10.353   2.543   3.582 -0.2593 -0.2786  0.4063
  512MOL0     C69034  10.142   2.678   3.836 -0.5381  0.0768 -0.5318
  512MOL0     C69035  10.121   2.679   3.967  0.0953  0.0051  0.0719
  512MOL0     N69036   9.774   2.683   4.496  0.9461  0.5311  0.5466
  512MOL0     N69037   9.750   2.560   4.514 -0.2585 -0.2141  0.5290
  512MOL0     C69038  10.406   1.910   3.654 -0.0075 -0.3206  0.3799
  512MOL0     C69039  10.506   1.836   3.705 -0.1393  0.0187 -0.7891
  512MOL0     C69040  10.766   1.570   3.989 -0.3385 -0.7387 -0.4144
  512MOL0     C69041  10.810   1.522   4.112 -0.1869 -0.2919 -0.2635
  512MOL0     C69042  10.947   1.475   4.127  0.0764 -0.4793 -0.1841
  512MOL0     C69043  11.046   1.503   4.034  0.4484 -0.5731  0.7727
  512MOL0     O69044  11.176   1.464   4.032 -0.6306 -0.2304 -0.0221
  512MOL0     C69045  11.231   1.432   4.162 -0.2539  0.5544 -1.0123
  512MOL0     C69046  11.209   1.284   4.178 -0.3501 -0.4386 -0.1764
  512MOL0     C69047  11.266   1.198   4.064 -0.0041 -0.5921 -0.3329
  512MOL0     C69048  11.265   1.047   4.101  0.0706  0.1842 -0.4703
  512MOL0     C69049  11.391   0.976   4.065  0.7702  0.7476 -1.0238
  512MOL0     C69050  11.492   0.926   4.023 -1.2445  0.6264 -0.7067
  512MOL0     C69051  11.004   1.550   3.908  0.3715  0.1965  0.3171
  512MOL0     C69052  10.867   1.572   3.884  0.4702  0.5274 -0.0164
  512MOL0     H69053  10.330   1.655   3.932 -0.0410 -1.8132 -1.7919
  512MOL0     H69054  10.162   1.794   3.860  1.1276 -1.1768  2.0250
  512MOL0     H69055  10.002   2.034   3.654 -0.9997 -0.5295  1.3585
  512MOL0     H69056  10.053   1.954   3.795 -1.2241 -0.3564 -0.8105
  512MOL0     H69057  10.157   2.187   3.856  1.5372 -1.5557 -1.9367
  512MOL0     H69058  10.088   2.259   3.717 -1.7480  1.4563  0.4811
  512MOL0     H69059   9.864   2.256   3.805  3.6623  3.1960  0.2071
  512MOL0     H69060   9.893   2.085   3.861  1.4953 -0.7630 -4.1594
  512MOL0     H69061  10.044   2.169   4.038 -1.7481 -4.0433  0.1770
  512MOL0     H69062   9.996   2.338   3.983 -3.7459  0.7901  0.1484
  512MOL0     H69063   9.760   2.272   4.066 -0.3440  1.2972  0.7775
  512MOL0     H69064   9.830   2.124   4.135 -0.9681  0.2695  1.1721
  512MOL0     H69065  10.004   2.305   4.253  0.8184  2.6989  0.6026
  512MOL0     H69066   9.879   2.419   4.207  3.3473  0.4537  0.3806
  512MOL0     H69067   9.782   2.171   4.368 -1.6294  0.6376 -0.9427
  512MOL0     H69068   9.870   2.305   4.447 -1.1776  2.3696 -0.7003
  512MOL0     H69069   9.608   2.325   4.420  0.8484  1.3723  1.5417
  512MOL0     H69070   9.641   2.358   4.259 -1.1649 -2.8909  0.0509
  512MOL0     H69071   9.687   2.601   4.191 -0.5221 -2.2411 -1.2553
  512MOL0     H69072   9.793   2.844   4.209 -1.6606 -1.2974  0.5583
  512MOL0     H69073   9.742   2.925   4.353  1.0366  0.7737  1.1838
  512MOL0     H69074   9.965   2.870   4.464 -1.9485  2.8684  0.7832
  512MOL0     H69075   9.978   2.982   4.339 -0.9434  1.0978  3.1440
  512MOL0     H69076  10.161   2.809   4.322 -0.5953  3.5687 -1.9095
  512MOL0     H69077  10.085   2.855   4.181  4.5507  0.6985  0.8795
  512MOL0     H69078   9.962   2.624   4.189 -0.2169  0.5203 -0.1168
  512MOL0     H69079  10.026   2.599   4.350  0.7854  1.4940  1.7757
  512MOL0     H69080  10.324   2.437   4.073  0.0879 -0.3857  0.1007
  512MOL0     H69081  10.401   2.309   3.897  2.8230  2.0396  1.7000
  512MOL0     H69082  10.366   2.357   3.729  0.4819 -1.9215 -0.1543
  512MOL0     H69083  10.498   2.432   3.818  0.2966 -1.8134  0.4496
  512MOL0     H69084  10.498   2.773   3.557  1.7834  0.8980 -1.0856
  512MOL0     H69085  10.619   2.867   3.346 -1.4775  4.2007 -0.2005
  512MOL0     H69086  10.485   2.701   3.025 -0.7005  0.5184 -0.5452
  512MOL0     H69087  10.362   2.816   2.970 -0.6861  0.0125 -1.1402
  512MOL0     H69088  10.524   2.778   2.806  1.2496 -0.3718  0.9097
  512MOL0     H69089  10.533   2.951   2.851  2.5349  0.3657 -0.2890
  512MOL0     H69090  10.719   2.730   2.929 -3.0368  0.4265  0.2319
  512MOL0     H69091  10.727   2.903   2.987 -3.0693 -0.3423  2.5017
  512MOL0     H69092  10.710   2.849   2.697  0.2678  0.9742 -0.3678
  512MOL0     H69093  10.780   2.992   2.778 -0.5462 -0.0994  0.1391
  512MOL0     H69094  10.962   2.822   2.699  3.6278  0.1117  1.7849
  512MOL0     H69095  10.900   2.696   2.805  1.3652 -0.4783  3.1160
  512MOL0     H69096  11.015   2.972   2.851  1.4973 -0.1967 -1.9609
  512MOL0     H69097  10.959   2.865   2.991 -1.8972  1.6987 -0.3790
  512MOL0     H69098  11.207   2.853   2.806  1.0978 -0.9486 -0.1066
  512MOL0     H69099  11.133   2.710   2.867 -2.0840  0.5277 -1.3082
  512MOL0     H69100  11.181   2.940   3.061 -0.6692  0.5273 -0.4840
  512MOL0     H69101  11.323   2.839   3.026 -0.1688 -1.4890 -0.7170
  512MOL0     H69102  10.239   2.878   3.150  2.7922 -1.2868 -3.5989
  512MOL0     H69103  10.122   2.810   3.336  0.7281  0.3729 -0.7428
  512MOL0     H69104  10.082   2.754   3.787  0.9086  1.5006 -0.1975
  512MOL0     H69105  10.036   2.742   3.991  0.5002  0.6002 -0.0334
  512MOL0     H69106  10.436   1.960   3.563  1.0284 -1.4565  0.0635
  512MOL0     H69107  10.603   1.835   3.656  0.1526  0.5529 -0.2442
  512MOL0     H69108  10.742   1.497   4.194  1.0983 -1.3033  0.5355
  512MOL0     H69109  10.957   1.416   4.217  0.7219  2.0726  1.5081
  512MOL0     H69110  11.336   1.462   4.168 -0.0657 -0.2606  0.0054
  512MOL0     H69111  11.181   1.480   4.248  0.9623  1.3252 -0.7086
  512MOL0     H69112  11.102   1.262   4.187 -0.1372 -0.5728  3.0417
  512MOL0     H69113  11.260   1.258   4.271  0.8462  1.5083 -0.2285
  512MOL0     H69114  11.371   1.225   4.070 -0.4159  0.8391  1.8856
  512MOL0     H69115  11.216   1.211   3.968 -1.3978  0.3658  0.4814
  512MOL0     H69116  11.184   1.000   4.046 -0.1210 -1.0986  0.8414
  512MOL0     H69117  11.251   1.030   4.208 -1.0467  1.2659 -0.4243
  512MOL0     H69118  11.589   0.894   3.991 -0.5381  2.3701 -0.3791
  512MOL0     H69119  11.072   1.553   3.823  3.1221  0.9716  2.3873
  512MOL0     H69120  10.836   1.596   3.783  0.7204 -1.2689 -0.5498
  513MOL0     O69121   2.969   7.102   2.899  0.4372 -0.0114 -1.0075
  513MOL0     C69122   2.941   6.999   2.956  0.3100  0.3865  0.2870
  513MOL0     O69123   2.946   6.875   2.893  0.4785  0.7795  0.1320
  513MOL0     C69124   2.996   6.844   2.774 -0.7481 -0.7523 -0.6151
  513MOL0     C69125   2.962   6.718   2.720  0.1557 -0.0825 -0.3356
  513MOL0     C69126   3.015   6.676   2.598 -1.0242  0.0071 -0.4882
  513MOL0     C69127   3.103   6.750   2.523 -0.3895  0.0807 -0.6268
  513MOL0     O69128   3.153   6.689   2.415  0.3519 -0.3903  0.1714
  513MOL0     C69129   3.236   6.767   2.331  0.4382 -0.0768  0.9600
  513MOL0     C69130   3.273   6.686   2.210  0.3788  0.2306  1.1919
  513MOL0     C69131   3.138   6.655   2.130 -0.3807 -0.0853 -0.6973
  513MOL0     C69132   3.096   6.505   2.145 -0.9690 -0.3312 -0.0293
  513MOL0     C69133   3.032   6.457   2.014 -0.7658  0.4222 -1.0015
  513MOL0     C69134   2.948   6.326   2.006 -0.6991 -0.5681  1.0586
  513MOL0     C69135   3.022   6.189   2.020  0.5612 -1.1257  1.0923
  513MOL0     C69136   3.037   6.153   2.171  0.5271 -0.0095 -0.5672
  513MOL0     N69137   3.138   6.044   2.198  0.6757 -0.7180  1.3377
  513MOL0     C69138   3.155   5.926   2.125 -0.0408  0.6172  0.3349
  513MOL0     C69139   3.256   5.864   2.186  0.0665  0.5639  0.0178
  513MOL0     C69140   3.297   5.724   2.148 -0.2369  0.5225  0.2665
  513MOL0     C69141   3.446   5.702   2.176  0.1894 -0.6162 -0.2429
  513MOL0     C69142   3.493   5.562   2.144  0.5163 -0.0387 -0.4625
  513MOL0     C69143   3.432   5.449   2.224  0.8372  0.2097 -1.0710
  513MOL0     O69144   3.468   5.459   2.370 -0.1664 -0.3450 -0.2220
  513MOL0     C69145   3.395   5.377   2.456 -0.1323 -0.2215  0.1619
  513MOL0     C69146   3.315   5.267   2.415 -0.2265  0.4205  0.0420
  513MOL0     C69147   3.244   5.195   2.509  0.6051 -0.0186 -0.9850
  513MOL0     C69148   3.173   5.073   2.449 -0.3337 -0.1848 -0.1565
  513MOL0     C69149   3.221   5.242   2.640  0.2037  0.8040  0.1422
  513MOL0     C69150   3.124   5.181   2.726  1.1355 -0.2643 -0.5417
  513MOL0     O69151   3.042   5.272   2.797 -0.8152  0.2640 -0.4462
  513MOL0     C69152   2.939   5.246   2.885  0.2531  0.8575 -0.1049
  513MOL0     C69153   2.880   5.359   2.946 -0.0129 -0.3341 -0.3786
  513MOL0     C69154   2.774   5.340   3.038  0.0668  0.0356 -0.0056
  513MOL0     C69155   2.733   5.208   3.072  0.2711  0.4027 -0.2998
  513MOL0     O69156   2.640   5.176   3.163  0.2809 -0.0862 -0.8777
  513MOL0     C69157   2.625   5.264   3.281 -0.5789  0.7825 -0.1686
  513MOL0     C69158   2.518   5.211   3.379  0.1482  0.2555 -0.1118
  513MOL0     C69159   2.378   5.235   3.330  0.9260 -0.2085  0.3021
  513MOL0     C69160   2.357   5.350   3.238 -0.4270  0.1834 -0.0983
  513MOL0     C69161   2.209   5.363   3.195 -0.4619  0.3359  0.8684
  513MOL0     C69162   2.100   5.405   3.298 -1.1104 -0.3665 -0.2495
  513MOL0     C69163   2.140   5.508   3.412  0.6286  0.1530  1.1564
  513MOL0     C69164   2.015   5.583   3.467  0.0618  0.1213  0.0338
  513MOL0    Cl69165   2.085   5.721   3.558  0.2961 -0.1621 -0.3435
  513MOL0     C69166   2.800   5.100   3.016  0.3746 -0.0672  0.7888
  513MOL0     C69167   2.898   5.123   2.919  1.0810  0.1448 -0.0046
  513MOL0     O69168   3.124   5.060   2.740  0.2244  0.4481 -1.0539
  513MOL0     C69169   3.300   5.352   2.682  0.5331  0.1686  0.0814
  513MOL0     C69170   3.388   5.420   2.589  0.1203  0.3521 -0.1212
  513MOL0     N69171   3.307   5.949   2.277 -0.9170  0.6339 -0.5837
  513MOL0     N69172   3.223   6.041   2.300  0.0020  0.0022 -0.2922
  513MOL0     C69173   3.140   6.880   2.577 -0.1047  0.3890 -0.6680
  513MOL0     C69174   3.096   6.918   2.702  0.5181 -0.3993 -0.2405
  513MOL0     C69175   2.907   7.001   3.098 -1.1162 -1.1870 -0.7307
  513MOL0     C69176   2.867   6.883   3.165 -0.8193 -0.2122  0.4869
  513MOL0     C69177   2.824   6.888   3.292 -0.4023 -0.0274 -0.2094
  513MOL0     C69178   2.838   7.009   3.371 -0.3317  0.3717 -0.0748
  513MOL0     O69179   2.807   7.011   3.506  0.3058 -0.5024 -0.1843
  513MOL0     C69180   2.663   7.006   3.527  0.1825 -0.0567 -0.0038
  513MOL0     C69181   2.631   6.995   3.679 -0.0771  0.6642 -0.3607
  513MOL0     C69182   2.732   6.901   3.753  0.5866  0.6057 -0.9493
  513MOL0     C69183   2.671   6.816   3.869  0.3067 -0.3923 -0.1872
  513MOL0     C69184   2.562   6.733   3.819 -0.0898  0.8822 -0.0656
  513MOL0     C69185   2.462   6.676   3.783 -0.7296  0.5723 -0.2516
  513MOL0     C69186   2.885   7.121   3.308 -0.4434 -0.6215  0.2907
  513MOL0     C69187   2.926   7.119   3.174  1.1305 -0.0362  0.6894
  513MOL0     H69188   2.882   6.659   2.763 -1.7780  0.9391 -2.3208
  513MOL0     H69189   2.981   6.587   2.546 -1.9356  1.1234 -1.8823
  513MOL0     H69190   3.175   6.851   2.295 -0.9387  0.3810  4.0832
  513MOL0     H69191   3.320   6.811   2.386  0.5912 -1.2186  1.6686
  513MOL0     H69192   3.343   6.739   2.145  1.5353 -2.1930  0.3596
  513MOL0     H69193   3.324   6.596   2.246  0.3241  0.1181  0.9858
  513MOL0     H69194   3.058   6.727   2.149  1.4103  1.8691 -0.2184
  513MOL0     H69195   3.150   6.682   2.025  1.1685  1.1559 -0.2311
  513MOL0     H69196   3.183   6.443   2.168 -0.4588  0.5756  0.5200
  513MOL0     H69197   3.027   6.510   2.230 -0.8320 -1.2126  0.1369
  513MOL0     H69198   2.966   6.534   1.975  0.4757 -0.1900 -4.7138
  513MOL0     H69199   3.114   6.456   1.942  0.9504  1.7442  0.8453
  513MOL0     H69200   2.855   6.340   2.062 -1.5030  0.5189 -0.4791
  513MOL0     H69201   2.908   6.333   1.905 -0.5334  3.0400  1.0963
  513MOL0     H69202   2.957   6.110   1.981  0.3004  0.0512 -1.0189
  513MOL0     H69203   3.116   6.183   1.965  0.6980 -3.0973  1.4583
  513MOL0     H69204   2.939   6.113   2.199  0.9152 -0.8556 -0.3727
  513MOL0     H69205   3.060   6.235   2.239 -0.7711  0.0361 -0.1585
  513MOL0     H69206   3.100   5.882   2.042 -0.6014  0.6855  0.6686
  513MOL0     H69207   3.229   5.657   2.203  0.7591  0.0959  1.0013
  513MOL0     H69208   3.277   5.716   2.041 -0.1418  4.8665 -0.2220
  513MOL0     H69209   3.482   5.737   2.274  0.7679  0.3607 -0.7872
  513MOL0     H69210   3.508   5.751   2.101 -1.9948  0.1625 -1.6404
  513MOL0     H69211   3.603   5.560   2.149  0.4837 -0.1256  0.4665
  513MOL0     H69212   3.467   5.540   2.040 -1.6574 -2.1801  0.4526
  513MOL0     H69213   3.475   5.356   2.185 -1.4444 -2.0373  1.3158
  513MOL0     H69214   3.323   5.451   2.214  0.1865 -2.2714  3.0546
  513MOL0     H69215   3.320   5.236   2.311  2.0875  0.3098  0.1258
  513MOL0     H69216   3.064   5.076   2.460 -0.5275 -1.9431 -1.1645
  513MOL0     H69217   3.191   5.055   2.343  1.8041  0.8234 -0.0050
  513MOL0     H69218   3.197   4.977   2.496 -0.8026 -1.0575 -1.6140
  513MOL0     H69219   2.910   5.460   2.923  0.8896 -0.3059  0.8227
  513MOL0     H69220   2.724   5.425   3.084 -0.7725 -1.7812  2.6727
  513MOL0     H69221   2.717   5.263   3.340 -0.4359  1.1212 -0.3812
  513MOL0     H69222   2.616   5.372   3.262  0.9003  0.4559 -3.3214
  513MOL0     H69223   2.533   5.103   3.392  2.5080  0.7557  1.9685
  513MOL0     H69224   2.530   5.255   3.478 -1.1954  0.4288 -0.0082
  513MOL0     H69225   2.325   5.258   3.423  1.3615 -1.1963  0.8060
  513MOL0     H69226   2.344   5.139   3.289 -0.7775  0.9188 -1.0693
  513MOL0     H69227   2.401   5.440   3.281 -1.6210  1.3031 -1.1569
  513MOL0     H69228   2.413   5.323   3.148  1.4101  1.4746  0.5957
  513MOL0     H69229   2.166   5.276   3.143  0.4877  0.2574  0.1981
  513MOL0     H69230   2.204   5.442   3.120 -2.7682 -0.4720  0.0897
  513MOL0     H69231   2.013   5.442   3.243 -0.1933 -1.4022 -2.5525
  513MOL0     H69232   2.076   5.311   3.347  3.4425 -0.2095  2.9392
  513MOL0     H69233   2.200   5.583   3.359 -1.3964 -0.2517 -2.0210
  513MOL0     H69234   2.197   5.460   3.491  0.6886  3.3747  3.2533
  513MOL0     H69235   1.959   5.523   3.540 -1.1794  2.8968  1.5125
  513MOL0     H69236   1.952   5.632   3.393  0.9608  0.2511 -0.6642
  513MOL0     H69237   2.770   5.000   3.048 -1.3415 -0.1878 -1.0370
  513MOL0     H69238   2.938   5.030   2.878  0.8236  0.6607 -1.4956
  513MOL0     H69239   3.283   5.393   2.781  2.1697  0.9438  0.0717
  513MOL0     H69240   3.436   5.510   2.625  2.3276 -1.0344  0.5716
  513MOL0     H69241   3.193   6.954   2.518 -0.3381  2.4788  1.5839
  513MOL0     H69242   3.122   7.015   2.743 -0.7486 -0.3665  0.5334
  513MOL0     H69243   2.881   6.789   3.112  1.9931  0.5038 -0.1641
  513MOL0     H69244   2.784   6.801   3.343 -1.8659  1.1293  0.7058
  513MOL0     H69245   2.610   7.092   3.485 -0.3234 -1.1394 -1.6621
  513MOL0     H69246   2.636   6.918   3.469  2.0937 -0.5753 -0.1887
  513MOL0     H69247   2.528   6.961   3.694  0.3209 -0.4145  0.0667
  513MOL0     H69248   2.643   7.086   3.738 -1.9424 -0.1529  1.4185
  513MOL0     H69249   2.819   6.961   3.779  1.0686  0.1432 -1.4727
  513MOL0     H69250   2.779   6.822   3.693 -0.0569  0.1839 -0.9152
  513MOL0     H69251   2.628   6.890   3.938 -2.7200 -2.0946 -0.0559
  513MOL0     H69252   2.744   6.753   3.920 -0.6608 -2.6734 -1.4694
  513MOL0     H69253   2.376   6.617   3.757 -0.3027 -0.5364  0.7893
  513MOL0     H69254   2.902   7.212   3.364  0.8686 -0.8957  0.3803
  513MOL0     H69255   2.958   7.204   3.113 -0.2031 -0.5123 -0.7352
  514MOL0     O69256   7.861   2.205   7.113  0.2863 -0.0711  0.1879
  514MOL0     C69257   7.954   2.181   7.185  0.7316  0.4405 -0.4056
  514MOL0     O69258   7.957   2.171   7.324 -0.0310 -0.0662  0.3853
  514MOL0     C69259   7.844   2.186   7.399  0.8675  0.8632  0.0637
  514MOL0     C69260   7.850   2.254   7.523  0.3035  0.3426 -0.2322
  514MOL0     C69261   7.744   2.263   7.610 -0.1709  0.3686  0.4505
  514MOL0     C69262   7.626   2.190   7.585  0.3579  0.1661 -0.5320
  514MOL0     O69263   7.532   2.173   7.685 -0.7413  0.4856 -0.4617
  514MOL0     C69264   7.391   2.152   7.651 -0.6990 -0.2255  0.6441
  514MOL0     C69265   7.300   2.159   7.775 -0.7315 -1.0268  0.1338
  514MOL0     C69266   7.151   2.166   7.740 -0.5482 -0.0025  1.0552
  514MOL0     C69267   7.078   2.151   7.869  0.3566 -0.2444 -0.3097
  514MOL0     C69268   6.940   2.212   7.850  0.9133  1.0796 -0.4411
  514MOL0     C69269   6.866   2.207   7.984 -0.7557  0.9633 -0.4518
  514MOL0     C69270   6.749   2.297   7.974 -0.1216 -0.6680 -0.5235
  514MOL0     C69271   6.695   2.333   8.112 -0.7460 -0.2240  0.3322
  514MOL0     N69272   6.577   2.414   8.113 -0.5578 -0.0201  0.3205
  514MOL0     C69273   6.559   2.531   8.039 -0.8463 -0.0548 -0.4244
  514MOL0     C69274   6.452   2.583   8.110  0.0083 -0.3110  0.7254
  514MOL0     C69275   6.388   2.724   8.092 -0.0790 -0.1507 -0.3191
  514MOL0     C69276   6.249   2.726   8.028  0.0306 -0.1365 -0.0233
  514MOL0     C69277   6.135   2.687   8.124  0.3269  0.1295  0.0963
  514MOL0     C69278   6.003   2.670   8.036 -0.4666  0.5261  0.0803
  514MOL0     O69279   5.962   2.796   7.977  0.2435  0.4322  0.6085
  514MOL0     C69280   5.835   2.812   7.931  0.2377 -0.2200  1.1685
  514MOL0     C69281   5.800   2.940   7.892  0.1024  0.2313 -0.1045
  514MOL0     C69282   5.674   2.976   7.842 -0.1031  0.0943  0.1173
  514MOL0     C69283   5.662   3.117   7.782 -0.3326 -0.7722  0.2733
  514MOL0     C69284   5.575   2.880   7.843 -0.3943 -0.2538  0.4547
  514MOL0     C69285   5.426   2.892   7.821  0.1017 -0.6851  0.3914
  514MOL0     O69286   5.351   2.972   7.902 -0.0835 -0.3874  0.1662
  514MOL0     C69287   5.219   2.990   7.870  1.0206  0.5723 -0.6110
  514MOL0     C69288   5.115   2.918   7.933 -0.3329 -0.1249  0.9498
  514MOL0     C69289   4.979   2.934   7.894 -0.5259  0.8938 -0.7670
  514MOL0     C69290   4.945   3.028   7.798 -0.3344 -0.8748  0.2613
  514MOL0     O69291   4.814   3.041   7.771  0.1932  0.0923 -0.0445
  514MOL0     C69292   4.780   3.185   7.770 -1.3064  0.2547 -0.0318
  514MOL0     C69293   4.635   3.206   7.791  0.2754  0.2927  0.6126
  514MOL0     C69294   4.590   3.166   7.934  1.5037  0.2686 -0.9069
  514MOL0     C69295   4.580   3.297   8.022 -0.6720 -0.0314 -0.1701
  514MOL0     C69296   4.442   3.370   7.996 -0.8821  0.3119  0.0471
  514MOL0     C69297   4.455   3.513   8.044  0.7376 -0.2576 -0.8630
  514MOL0     C69298   4.536   3.618   7.973  0.1541  0.6732  0.1424
  514MOL0     C69299   4.517   3.745   8.055  0.0379  0.6239  0.5053
  514MOL0    Cl69300   4.617   3.878   7.985 -0.3182 -0.1668  0.0704
  514MOL0     C69301   5.051   3.097   7.732  0.2247  0.0012 -0.8285
  514MOL0     C69302   5.181   3.082   7.768 -0.5213  0.4365 -0.5009
  514MOL0     O69303   5.385   2.843   7.715  0.5257  0.0001  0.8072
  514MOL0     C69304   5.605   2.744   7.868  0.1202 -0.5805  0.0718
  514MOL0     C69305   5.734   2.710   7.919 -0.3522  0.0445  0.3010
  514MOL0     N69306   6.396   2.503   8.201 -0.0808  0.2355 -0.3773
  514MOL0     N69307   6.477   2.401   8.198  0.5362  0.2153  0.7054
  514MOL0     C69308   7.619   2.124   7.463  0.1990  0.3373 -0.9640
  514MOL0     C69309   7.720   2.139   7.370  0.7313  1.3957 -0.6240
  514MOL0     C69310   8.082   2.165   7.115  0.5352  0.0637  0.0404
  514MOL0     C69311   8.204   2.185   7.182 -1.9815 -0.1148 -1.0552
  514MOL0     C69312   8.323   2.172   7.114 -0.2486  1.1128 -0.2331
  514MOL0     C69313   8.320   2.153   6.968  0.5962  0.0580 -0.5511
  514MOL0     O69314   8.428   2.133   6.888 -0.0306 -0.8410 -0.4717
  514MOL0     C69315   8.551   2.186   6.937  0.5807  0.1944 -0.5117
  514MOL0     C69316   8.552   2.345   6.939  0.4200  0.3742  0.0512
  514MOL0     C69317   8.685   2.399   7.003 -0.1969  0.0635  0.4065
  514MOL0     C69318   8.715   2.362   7.151 -0.4237  0.5244  0.3792
  514MOL0     C69319   8.593   2.404   7.228 -0.7992 -0.6554  0.1293
  514MOL0     C69320   8.505   2.458   7.288  0.6036  0.8535  0.6644
  514MOL0     C69321   8.196   2.137   6.910  0.1714 -0.5948 -0.5658
  514MOL0     C69322   8.084   2.146   6.978  0.0747 -0.9387  0.2562
  514MOL0     H69323   7.949   2.286   7.555 -0.3778  2.6044 -0.2061
  514MOL0     H69324   7.742   2.301   7.711 -0.4077  0.6383  0.3435
  514MOL0     H69325   7.361   2.234   7.586  1.5736  1.3970  1.5446
  514MOL0     H69326   7.387   2.052   7.606 -1.7671 -0.7461  1.8242
  514MOL0     H69327   7.324   2.076   7.841 -1.7567 -1.9042 -0.5655
  514MOL0     H69328   7.321   2.252   7.829 -2.1909 -0.7717  0.3021
  514MOL0     H69329   7.132   2.265   7.697 -0.6389  0.4727  2.1561
  514MOL0     H69330   7.120   2.091   7.667 -0.8307  0.8773  0.2581
  514MOL0     H69331   7.070   2.045   7.893  1.0069 -0.7059 -1.9953
  514MOL0     H69332   7.136   2.197   7.951  0.5725 -0.2921 -0.4345
  514MOL0     H69333   6.969   2.316   7.832  2.4609  0.8698  0.6300
  514MOL0     H69334   6.874   2.168   7.775  0.8527 -1.3823  0.9205
  514MOL0     H69335   6.836   2.102   7.994  2.7480 -0.2115 -0.8736
  514MOL0     H69336   6.936   2.231   8.064 -0.6277 -1.1341  0.1324
  514MOL0     H69337   6.778   2.383   7.913 -3.5950 -0.9275 -2.8824
  514MOL0     H69338   6.669   2.243   7.923 -1.2455  1.4623 -1.1186
  514MOL0     H69339   6.770   2.380   8.177 -2.4639  0.6595  1.7502
  514MOL0     H69340   6.678   2.244   8.171  1.4935 -0.7267  0.3011
  514MOL0     H69341   6.620   2.576   7.961 -0.2337  1.8005  1.0338
  514MOL0     H69342   6.384   2.779   8.186  2.4521 -0.5234  0.0827
  514MOL0     H69343   6.458   2.780   8.028  1.8889  0.0888  1.8932
  514MOL0     H69344   6.247   2.654   7.945  2.5573  4.7575 -5.0311
  514MOL0     H69345   6.229   2.825   7.987  2.8266  0.8372  0.7217
  514MOL0     H69346   6.120   2.756   8.207 -0.4177 -0.9124  0.8553
  514MOL0     H69347   6.163   2.597   8.180  0.7386  0.4557  0.4212
  514MOL0     H69348   5.932   2.626   8.107  0.5183 -3.0670 -0.9567
  514MOL0     H69349   6.027   2.597   7.958 -1.7930 -0.4230  0.5156
  514MOL0     H69350   5.869   3.021   7.914 -2.8875  3.0776 -0.3001
  514MOL0     H69351   5.637   3.191   7.859  1.7702  0.2620  0.0341
  514MOL0     H69352   5.763   3.138   7.746  0.3096 -0.8699  1.9084
  514MOL0     H69353   5.596   3.119   7.695  0.9453  2.0424 -0.7413
  514MOL0     H69354   5.143   2.860   8.021 -3.2152 -1.5235  1.0746
  514MOL0     H69355   4.914   2.865   7.947  0.2306  0.6760 -0.0936
  514MOL0     H69356   4.828   3.242   7.850  1.7437  0.9073 -2.1245
  514MOL0     H69357   4.808   3.239   7.679 -0.6667 -2.2663 -1.4559
  514MOL0     H69358   4.612   3.309   7.763 -1.7633 -0.4061 -0.5119
  514MOL0     H69359   4.577   3.141   7.724 -1.6227  0.4280  2.0479
  514MOL0     H69360   4.655   3.090   7.978 -1.2674 -0.2522  2.7614
  514MOL0     H69361   4.488   3.126   7.935  1.5521  0.0805  1.3485
  514MOL0     H69362   4.590   3.291   8.131 -0.0451  0.8644 -0.1684
  514MOL0     H69363   4.665   3.362   7.999 -1.1061  0.7669  0.4372
  514MOL0     H69364   4.358   3.327   8.051  1.7475 -2.0140  2.6243
  514MOL0     H69365   4.415   3.368   7.890 -2.8307 -2.5977  0.4943
  514MOL0     H69366   4.354   3.554   8.031  0.7570 -0.4785 -1.8468
  514MOL0     H69367   4.484   3.514   8.149  1.3926 -1.9682 -0.9997
  514MOL0     H69368   4.522   3.639   7.866  2.1099  1.8765  0.0632
  514MOL0     H69369   4.642   3.591   7.978 -0.5046 -1.8632  3.0167
  514MOL0     H69370   4.537   3.722   8.160 -3.6422 -1.1127  0.9778
  514MOL0     H69371   4.411   3.771   8.048 -0.0542 -0.0841 -1.4767
  514MOL0     H69372   5.025   3.173   7.659  0.0460  1.9141  1.1444
  514MOL0     H69373   5.247   3.142   7.706  0.3707 -0.9221 -0.9093
  514MOL0     H69374   5.527   2.669   7.867  0.4604 -0.9452  0.5463
  514MOL0     H69375   5.763   2.608   7.941 -0.2104 -0.0268 -0.2056
  514MOL0     H69376   7.534   2.062   7.438 -2.4368  4.0099 -2.0276
  514MOL0     H69377   7.716   2.084   7.277 -0.6394 -1.0195  0.7568
  514MOL0     H69378   8.210   2.205   7.288  2.1420 -0.0144 -1.1344
  514MOL0     H69379   8.413   2.187   7.174 -0.0385 -1.1877  0.1013
  514MOL0     H69380   8.580   2.160   7.040 -2.5458  2.1813  1.0002
  514MOL0     H69381   8.630   2.144   6.874 -0.9403 -0.9076 -1.7265
  514MOL0     H69382   8.465   2.392   6.985  0.3887  0.3915 -0.0251
  514MOL0     H69383   8.535   2.383   6.837 -4.5186  0.0299  0.4987
  514MOL0     H69384   8.693   2.508   7.008  0.9894 -0.0844  3.1640
  514MOL0     H69385   8.763   2.363   6.935  0.5312 -1.6781  2.0694
  514MOL0     H69386   8.804   2.420   7.177  0.9353 -1.1205 -0.4272
  514MOL0     H69387   8.737   2.257   7.172  1.3728  0.5257 -1.2286
  514MOL0     H69388   8.421   2.495   7.344  0.4917 -1.6981  2.3525
  514MOL0     H69389   8.187   2.121   6.803 -1.0055  2.4336 -1.0062
  514MOL0     H69390   7.989   2.136   6.926  0.2831 -1.8564  0.0420
  515MOL0     O69391   6.100   5.388   8.044 -0.3551  0.0583  0.5096
  515MOL0     C69392   6.138   5.494   8.091 -0.1735  0.0497 -0.0019
  515MOL0     O69393   6.068   5.570   8.183  0.2331 -0.8455  0.5209
  515MOL0     C69394   5.948   5.518   8.234 -0.4207 -0.5847 -0.4081
  515MOL0     C69395   5.839   5.604   8.219 -0.4914 -0.3438 -0.2175
  515MOL0     C69396   5.714   5.568   8.276  0.7728  0.8598  0.0984
  515MOL0     C69397   5.686   5.440   8.324 -0.8791 -0.4679 -0.2840
  515MOL0     O69398   5.561   5.412   8.372 -0.0130 -0.1405 -0.1421
  515MOL0     C69399   5.532   5.276   8.395  1.0993 -0.0235 -0.8295
  515MOL0     C69400   5.395   5.254   8.451  0.0410  0.2322  0.1726
  515MOL0     C69401   5.372   5.295   8.597 -0.5645 -0.7655 -0.4979
  515MOL0     C69402   5.229   5.257   8.665 -0.9325  0.4489 -0.1294
  515MOL0     C69403   5.168   5.360   8.750  1.2824  0.3790  0.0362
  515MOL0     C69404   5.218   5.339   8.903 -0.6817 -0.3485  0.6749
  515MOL0     C69405   5.136   5.236   8.982 -0.6339  0.1263 -0.6971
  515MOL0     C69406   5.188   5.218   9.122 -0.3276 -0.5076 -0.1352
  515MOL0     N69407   5.301   5.128   9.112 -0.0454 -0.4873  0.6035
  515MOL0     C69408   5.429   5.155   9.058 -0.1903 -0.6761 -0.0567
  515MOL0     C69409   5.494   5.041   9.054  0.0145  0.6848  0.6039
  515MOL0     C69410   5.629   5.020   8.987  0.2389 -0.3238 -0.2207
  515MOL0     C69411   5.712   4.902   9.041  0.3231 -0.3364 -0.8062
  515MOL0     C69412   5.857   4.923   9.017 -0.3979  0.6828  0.0314
  515MOL0     C69413   5.940   4.809   9.067  1.1723  0.2368 -0.1240
  515MOL0     O69414   5.939   4.818   9.206 -0.2781  0.3055 -0.6556
  515MOL0     C69415   6.044   4.802   9.297 -0.2604  0.4705  0.4132
  515MOL0     C69416   6.180   4.790   9.254 -0.5716 -0.7117 -0.1254
  515MOL0     C69417   6.279   4.762   9.352  0.5291 -0.9927 -0.1753
  515MOL0     C69418   6.421   4.773   9.309  0.3017 -0.3962 -0.7931
  515MOL0     C69419   6.240   4.765   9.494  0.3389 -0.5235  0.4881
  515MOL0     C69420   6.332   4.730   9.610  0.1237 -0.8767  1.0392
  515MOL0     O69421   6.320   4.798   9.726  0.8209 -0.0254 -0.0147
  515MOL0     C69422   6.393   4.762   9.835  0.5211 -0.6836 -0.7728
  515MOL0     C69423   6.331   4.703   9.945  0.4919  0.1280  0.6138
  515MOL0     C69424   6.417   4.662  10.049  0.6492 -0.6720  0.5829
  515MOL0     C69425   6.554   4.684  10.061  0.3138  0.3597 -0.6941
  515MOL0     O69426   6.628   4.633  10.163  0.2317  0.5759  0.3524
  515MOL0     C69427   6.647   4.494  10.150 -0.3099 -0.1511  0.7880
  515MOL0     C69428   6.793   4.447  10.174 -0.0714 -0.2163  0.0749
  515MOL0     C69429   6.825   4.483  10.319 -0.8131  0.1422 -0.4285
  515MOL0     C69430   6.966   4.436  10.372  0.7058  0.9558  0.6943
  515MOL0     C69431   6.996   4.486  10.514 -0.7981  0.3084  0.4365
  515MOL0     C69432   6.920   4.405  10.618  0.0489  0.1693 -0.0576
  515MOL0     C69433   6.935   4.436  10.768  0.0323 -0.1420 -0.5938
  515MOL0     C69434   6.882   4.574  10.811 -1.0245 -0.1400 -0.1139
  515MOL0    Cl69435   6.850   4.580  10.991  0.2991  0.2740 -0.9552
  515MOL0     C69436   6.611   4.754   9.964  0.8555 -1.1472  0.0976
  515MOL0     C69437   6.533   4.793   9.848 -0.5703 -0.1180 -0.1048
  515MOL0     O69438   6.413   4.642   9.585  0.3486 -0.3214  0.6175
  515MOL0     C69439   6.106   4.787   9.528  0.2548  0.1517  0.0467
  515MOL0     C69440   6.010   4.809   9.434 -0.3400  0.2082 -0.3293
  515MOL0     N69441   5.408   4.949   9.109 -0.7229  1.0238 -0.0609
  515MOL0     N69442   5.303   5.005   9.156 -0.9602  0.2602 -0.2932
  515MOL0     C69443   5.802   5.356   8.333  0.0324 -0.6876 -0.1170
  515MOL0     C69444   5.927   5.391   8.291  0.9846 -0.3144  0.6863
  515MOL0     C69445   6.282   5.532   8.070 -0.6569 -0.4495 -0.0383
  515MOL0     C69446   6.341   5.635   8.147  0.5964  0.3370  0.1298
  515MOL0     C69447   6.477   5.666   8.144  0.0274 -0.9355 -1.7744
  515MOL0     C69448   6.560   5.600   8.052  0.3629  0.2162  0.3640
  515MOL0     O69449   6.695   5.617   8.063 -0.2655 -0.3764 -0.5281
  515MOL0     C69450   6.766   5.643   7.939  1.1854  0.0841  0.2610
  515MOL0     C69451   6.879   5.746   7.958  0.0400 -0.8205 -0.3374
  515MOL0     C69452   6.991   5.673   8.032  0.2951 -0.0087 -0.0857
  515MOL0     C69453   7.124   5.741   8.031 -0.3445 -0.1108 -0.3444
  515MOL0     C69454   7.196   5.763   7.902 -0.0014 -0.7895 -0.1544
  515MOL0     C69455   7.247   5.779   7.792  0.3838 -0.2377 -0.4466
  515MOL0     C69456   6.495   5.499   7.967  0.0269  0.0435 -0.7693
  515MOL0     C69457   6.356   5.460   7.980 -0.5120 -0.3377  0.4815
  515MOL0     H69458   5.847   5.696   8.162 -0.4090  1.0880  1.9610
  515MOL0     H69459   5.631   5.638   8.274 -0.5907 -0.7213 -1.2594
  515MOL0     H69460   5.556   5.229   8.300  0.9028 -0.8717 -0.4629
  515MOL0     H69461   5.601   5.236   8.469 -1.3371 -0.4012  1.4021
  515MOL0     H69462   5.328   5.300   8.378 -2.0959 -2.3056  0.3832
  515MOL0     H69463   5.372   5.147   8.440  0.0840  0.2828 -0.4727
  515MOL0     H69464   5.441   5.250   8.669  0.9119  1.0740 -0.6772
  515MOL0     H69465   5.391   5.402   8.598  0.3138 -0.8731  2.1260
  515MOL0     H69466   5.156   5.238   8.586 -1.5939  2.0996  0.0457
  515MOL0     H69467   5.256   5.166   8.719 -1.3428  1.8154  2.5104
  515MOL0     H69468   5.199   5.461   8.722  1.0832  0.7502  1.1276
  515MOL0     H69469   5.060   5.341   8.753  1.7602 -2.6285  1.2031
  515MOL0     H69470   5.322   5.307   8.890 -1.1067 -1.7871  0.6515
  515MOL0     H69471   5.227   5.433   8.957  3.0142 -1.6119  2.5978
  515MOL0     H69472   5.032   5.270   8.985 -0.5853  0.2395 -0.1935
  515MOL0     H69473   5.150   5.136   8.938  0.5978 -0.9796  1.9778
  515MOL0     H69474   5.114   5.171   9.187 -0.3228  0.2560  0.4404
  515MOL0     H69475   5.212   5.313   9.170  0.4270  0.6878 -2.7203
  515MOL0     H69476   5.469   5.251   9.026  3.0049 -1.0064  2.4484
  515MOL0     H69477   5.614   5.005   8.880 -2.4182  0.8154 -0.0923
  515MOL0     H69478   5.677   5.118   8.993 -0.5351 -0.0036  1.7310
  515MOL0     H69479   5.674   4.818   8.982 -0.7987  0.6025 -1.4419
  515MOL0     H69480   5.691   4.875   9.145 -3.1559 -1.8148 -1.7706
  515MOL0     H69481   5.884   5.016   9.067 -3.6694  0.0067  3.5195
  515MOL0     H69482   5.869   4.933   8.909 -3.1406  1.0453 -0.3046
  515MOL0     H69483   6.041   4.810   9.024  0.5759 -0.9590 -1.6486
  515MOL0     H69484   5.915   4.707   9.039  1.3143  0.4778 -1.1966
  515MOL0     H69485   6.209   4.798   9.150 -0.4166 -0.9435 -0.1003
  515MOL0     H69486   6.450   4.679   9.262 -1.5533 -0.7250 -1.3736
  515MOL0     H69487   6.434   4.852   9.234  1.1983  1.4592  1.2101
  515MOL0     H69488   6.488   4.797   9.392  1.0672 -1.7264 -0.9988
  515MOL0     H69489   6.236   4.657   9.921 -0.3527  2.7611 -1.4722
  515MOL0     H69490   6.385   4.601  10.132 -0.5259  0.2808  0.8520
  515MOL0     H69491   6.578   4.453  10.224 -0.7651 -1.8767 -0.5083
  515MOL0     H69492   6.628   4.463  10.046  3.5670  0.7992 -0.3774
  515MOL0     H69493   6.799   4.341  10.149 -0.4534 -0.2562  0.1375
  515MOL0     H69494   6.858   4.492  10.100 -2.2052  2.5805 -0.2828
  515MOL0     H69495   6.741   4.449  10.380  0.6050 -1.4375  0.7249
  515MOL0     H69496   6.828   4.590  10.339  1.0735 -0.0171  0.3243
  515MOL0     H69497   6.964   4.326  10.369 -0.5983  0.9756 -0.1717
  515MOL0     H69498   7.046   4.476  10.309  1.3226 -2.0909 -0.6429
  515MOL0     H69499   6.953   4.586  10.516 -0.2813  0.7882 -3.7452
  515MOL0     H69500   7.102   4.482  10.539 -0.8308 -2.3724  0.4840
  515MOL0     H69501   6.812   4.415  10.599 -0.0508  0.2904  0.5779
  515MOL0     H69502   6.954   4.301  10.612  0.7995  0.2172  2.4742
  515MOL0     H69503   7.041   4.429  10.797 -0.1539 -1.5449 -0.1381
  515MOL0     H69504   6.879   4.361  10.826 -1.6286  0.4224 -1.4131
  515MOL0     H69505   6.782   4.587  10.768 -1.3228  3.0713  1.2342
  515MOL0     H69506   6.957   4.649  10.783  0.1002 -0.1512  2.5363
  515MOL0     H69507   6.719   4.767   9.960  0.7887 -0.9048 -1.5435
  515MOL0     H69508   6.588   4.850   9.773  0.3179  0.1597  0.7342
  515MOL0     H69509   6.067   4.795   9.629 -0.4516 -0.2763 -0.1892
  515MOL0     H69510   5.909   4.828   9.468 -0.3794  2.1444 -1.3740
  515MOL0     H69511   5.790   5.252   8.362 -0.9927 -0.6761 -0.4598
  515MOL0     H69512   6.004   5.316   8.276  2.4781  1.6182 -2.5435
  515MOL0     H69513   6.284   5.686   8.224  0.1125 -1.7401  1.2089
  515MOL0     H69514   6.519   5.741   8.209  2.9660 -2.3308 -1.9000
  515MOL0     H69515   6.805   5.548   7.901 -0.4839 -0.4529 -0.2427
  515MOL0     H69516   6.703   5.682   7.858  1.6600  2.8355  1.1200
  515MOL0     H69517   6.832   5.832   8.006 -3.4335 -1.4473 -2.3022
  515MOL0     H69518   6.924   5.781   7.865  0.3008 -1.7861 -0.5847
  515MOL0     H69519   7.013   5.573   7.994  1.2329  0.4762 -0.8593
  515MOL0     H69520   6.961   5.652   8.135  2.5057  0.6511  0.7693
  515MOL0     H69521   7.190   5.688   8.100  0.1699  1.0569  0.0911
  515MOL0     H69522   7.112   5.838   8.082  3.4392 -0.6747  2.0606
  515MOL0     H69523   7.291   5.795   7.696 -2.1444 -0.7012 -1.7363
  515MOL0     H69524   6.564   5.449   7.899  1.6651 -0.4763  1.1608
  515MOL0     H69525   6.323   5.381   7.913 -0.9740  0.2780 -0.0357
  516MOL0     O69526   8.363   6.213   5.567 -0.0649 -0.3263 -0.5634
  516MOL0     C69527   8.384   6.312   5.494  0.6128  0.2017 -0.0619
  516MOL0     O69528   8.286   6.415   5.469 -0.5039  0.1489 -0.0886
  516MOL0     C69529   8.162   6.383   5.500 -0.5009 -0.3273  1.1559
  516MOL0     C69530   8.123   6.405   5.633 -0.2603  0.3504  0.2997
  516MOL0     C69531   7.990   6.398   5.667  0.0857  0.2968  0.1897
  516MOL0     C69532   7.891   6.372   5.573  0.1930 -0.0125  0.1072
  516MOL0     O69533   7.767   6.344   5.620 -0.8288 -0.1735 -0.3821
  516MOL0     C69534   7.651   6.346   5.538  0.7871  0.5663  0.1083
  516MOL0     C69535   7.521   6.334   5.618  0.1531 -0.1499 -0.6678
  516MOL0     C69536   7.405   6.334   5.515  0.5493  0.1245  0.1222
  516MOL0     C69537   7.268   6.376   5.572  0.0432  0.2731  0.5185
  516MOL0     C69538   7.153   6.359   5.469  0.1380  0.2860 -1.0751
  516MOL0     C69539   7.012   6.406   5.518  0.0657  0.5027 -0.1378
  516MOL0     C69540   7.001   6.563   5.506  0.9201 -0.1503  0.2984
  516MOL0     C69541   6.901   6.628   5.605  0.3969 -0.0382  0.1812
  516MOL0     N69542   6.761   6.603   5.574 -0.5293 -0.3291  0.0810
  516MOL0     C69543   6.678   6.518   5.646  0.2410  0.2780 -0.0900
  516MOL0     C69544   6.565   6.514   5.576 -0.0403 -0.7081  0.3473
  516MOL0     C69545   6.442   6.432   5.597 -0.9934  0.2631  1.0176
  516MOL0     C69546   6.403   6.327   5.478  0.3495 -0.3293  0.0588
  516MOL0     C69547   6.257   6.282   5.503  0.0008  0.4031 -0.5491
  516MOL0     C69548   6.189   6.178   5.406 -0.1054  0.4262  0.2756
  516MOL0     O69549   6.149   6.240   5.288  0.8055 -0.2128 -0.5382
  516MOL0     C69550   6.087   6.163   5.195  0.0185 -0.2646 -0.0414
  516MOL0     C69551   6.061   6.222   5.066  0.0472  0.2329  0.4800
  516MOL0     C69552   5.981   6.154   4.968  0.7832 -0.3256  0.2803
  516MOL0     C69553   5.971   6.233   4.850  1.0080 -0.1461 -0.3569
  516MOL0     C69554   5.908   6.041   5.009 -0.1655  0.5084  0.4829
  516MOL0     C69555   5.807   5.977   4.925 -0.2451 -0.0680  0.7379
  516MOL0     O69556   5.750   6.059   4.831 -0.8272 -0.0751  0.0393
  516MOL0     C69557   5.622   6.048   4.787  0.6509 -0.1574  0.2520
  516MOL0     C69558   5.522   5.954   4.823 -1.1088 -0.3328  0.4400
  516MOL0     C69559   5.391   5.948   4.760  0.3635 -0.0997  0.4216
  516MOL0     C69560   5.365   6.040   4.664 -0.6640  0.4423 -0.7393
  516MOL0     O69561   5.246   6.034   4.602  0.7625  0.9331  0.2006
  516MOL0     C69562   5.257   5.926   4.506  1.0779 -0.8635  0.5489
  516MOL0     C69563   5.130   5.940   4.410 -0.6308 -0.2574  1.0246
  516MOL0     C69564   5.025   5.837   4.430  0.2936  0.1119 -0.0845
  516MOL0     C69565   4.902   5.855   4.337 -1.0012  0.6673  0.2653
  516MOL0     C69566   4.814   5.733   4.363 -1.1276 -0.7591 -0.6056
  516MOL0     C69567   4.700   5.707   4.261 -0.7449  0.1995  0.1741
  516MOL0     C69568   4.610   5.829   4.258 -0.2122  0.0842 -0.5787
  516MOL0     C69569   4.521   5.863   4.380  0.7240 -0.1020 -0.1859
  516MOL0    Cl69570   4.444   6.023   4.342  0.0996  0.8570  0.4679
  516MOL0     C69571   5.465   6.129   4.623  0.3722 -0.1062 -0.5871
  516MOL0     C69572   5.587   6.137   4.685 -0.3327  0.2124 -0.2703
  516MOL0     O69573   5.780   5.858   4.943 -0.5527 -0.2200  0.3985
  516MOL0     C69574   5.936   5.984   5.131  0.4550  1.0573  0.0384
  516MOL0     C69575   6.020   6.038   5.229 -0.3940  0.0955  0.0915
  516MOL0     N69576   6.593   6.591   5.469 -0.6442  0.4947  0.8304
  516MOL0     N69577   6.700   6.656   5.468  0.3016 -0.4266  0.0278
  516MOL0     C69578   7.931   6.355   5.437 -0.2628 -0.4460 -0.5446
  516MOL0     C69579   8.059   6.366   5.404  0.5493  0.1124 -0.7820
  516MOL0     C69580   8.516   6.328   5.429  0.3517  0.3709  0.0763
  516MOL0     C69581   8.630   6.263   5.478  0.3057  0.1022 -0.3943
  516MOL0     C69582   8.748   6.267   5.406  0.0766 -0.6759  0.2059
  516MOL0     C69583   8.755   6.323   5.279 -0.1579  0.8787  0.1084
  516MOL0     O69584   8.869   6.337   5.206 -0.4271  0.6648 -0.0592
  516MOL0     C69585   8.942   6.215   5.199 -0.3747 -0.2696 -0.8098
  516MOL0     C69586   9.037   6.220   5.078 -0.5555 -0.0002 -0.2057
  516MOL0     C69587   9.111   6.084   5.067  0.6649  0.2439 -0.6024
  516MOL0     C69588   9.173   6.065   4.928  0.0149  0.1623 -0.2637
  516MOL0     C69589   9.285   6.157   4.910 -0.9445 -0.8645  0.2030
  516MOL0     C69590   9.376   6.241   4.897 -0.2987  0.3524  0.6212
  516MOL0     C69591   8.643   6.384   5.229  1.1556 -0.3563  0.0074
  516MOL0     C69592   8.519   6.383   5.301 -0.4030  0.9899  0.5071
  516MOL0     H69593   8.181   6.430   5.721 -0.5097  3.2820 -0.2685
  516MOL0     H69594   7.950   6.404   5.768 -1.6835 -2.1195 -0.2892
  516MOL0     H69595   7.661   6.444   5.489  2.6148 -0.3324 -1.4737
  516MOL0     H69596   7.647   6.259   5.473 -0.5238  1.1399 -0.6117
  516MOL0     H69597   7.511   6.248   5.685  0.0413  1.0717  0.9435
  516MOL0     H69598   7.505   6.420   5.684  0.2392 -1.2537  0.8410
  516MOL0     H69599   7.414   6.403   5.431 -1.2648  1.1653  0.7345
  516MOL0     H69600   7.392   6.239   5.461 -2.7110  0.4926  0.0165
  516MOL0     H69601   7.246   6.305   5.652  0.9057  1.6739  2.0941
  516MOL0     H69602   7.278   6.477   5.614  0.1318 -0.2869  1.9039
  516MOL0     H69603   7.181   6.417   5.381  2.1106 -0.0868 -0.7359
  516MOL0     H69604   7.136   6.253   5.444 -3.0557  1.3126 -4.0303
  516MOL0     H69605   6.944   6.349   5.454  0.2169 -1.0010  1.0177
  516MOL0     H69606   6.991   6.371   5.619 -1.3472  2.9304  0.4875
  516MOL0     H69607   7.099   6.608   5.522 -0.6432  3.3153  1.0122
  516MOL0     H69608   6.977   6.581   5.400 -0.7729 -2.2301  0.2638
  516MOL0     H69609   6.917   6.736   5.591 -0.5193  0.5001  2.6346
  516MOL0     H69610   6.911   6.615   5.714 -1.9456  1.2777  0.6278
  516MOL0     H69611   6.697   6.448   5.726 -0.7235 -2.4122 -2.0501
  516MOL0     H69612   6.455   6.374   5.689 -0.7738 -1.5083 -0.0710
  516MOL0     H69613   6.364   6.508   5.603  0.6151  1.9228  1.8948
  516MOL0     H69614   6.472   6.243   5.471 -0.0017 -0.8039  1.7761
  516MOL0     H69615   6.408   6.381   5.383  1.3454 -1.2381 -0.4133
  516MOL0     H69616   6.192   6.370   5.508  1.2217  1.2712  0.6554
  516MOL0     H69617   6.256   6.231   5.600 -0.1702 -0.1456 -0.8354
  516MOL0     H69618   6.094   6.145   5.450 -1.6039 -0.4253 -3.2550
  516MOL0     H69619   6.247   6.086   5.395 -1.1166 -0.2274  0.1827
  516MOL0     H69620   6.109   6.316   5.043 -1.3976  0.8216 -0.2888
  516MOL0     H69621   5.881   6.295   4.849  2.1718  1.6319 -0.6857
  516MOL0     H69622   6.049   6.308   4.832  1.9639 -0.4958  1.9399
  516MOL0     H69623   5.971   6.163   4.766 -1.4920 -0.8540  0.1757
  516MOL0     H69624   5.530   5.879   4.900 -2.9410 -0.4663  0.5563
  516MOL0     H69625   5.306   5.889   4.793 -0.4517  2.7136  4.0550
  516MOL0     H69626   5.332   5.956   4.433 -0.8682  3.3608 -0.0605
  516MOL0     H69627   5.266   5.833   4.562 -0.5818 -1.1296  0.4401
  516MOL0     H69628   5.097   6.044   4.424  0.8839  0.3645  0.2870
  516MOL0     H69629   5.169   5.916   4.311 -0.7305 -2.4871  1.4831
  516MOL0     H69630   4.979   5.850   4.528 -1.7572  0.0857 -0.9871
  516MOL0     H69631   5.070   5.741   4.405 -0.5982 -0.4050  0.2363
  516MOL0     H69632   4.845   5.945   4.363 -0.5164  0.7379  1.1111
  516MOL0     H69633   4.931   5.877   4.234 -0.7722  1.6977  0.5444
  516MOL0     H69634   4.772   5.734   4.464  3.3704  1.1503  1.5484
  516MOL0     H69635   4.879   5.646   4.351 -1.7818 -1.9288  3.0719
  516MOL0     H69636   4.752   5.680   4.169  1.4679  0.5662  1.2497
  516MOL0     H69637   4.646   5.619   4.297  1.2013 -1.6823 -1.2553
  516MOL0     H69638   4.551   5.819   4.166  2.0458 -0.7776 -2.0216
  516MOL0     H69639   4.671   5.916   4.234  1.7028  0.0810  3.5027
  516MOL0     H69640   4.584   5.867   4.469  0.6557 -1.5645 -0.0475
  516MOL0     H69641   4.451   5.783   4.403  0.6704 -0.0795 -0.2713
  516MOL0     H69642   5.455   6.188   4.532  0.8881  0.2675 -0.4086
  516MOL0     H69643   5.668   6.197   4.645  0.0594  0.4208  0.8047
  516MOL0     H69644   5.894   5.884   5.134 -1.7190  1.8373 -1.7153
  516MOL0     H69645   6.050   5.981   5.317 -2.0385  0.6498  1.0544
  516MOL0     H69646   7.842   6.336   5.377 -0.8166  1.7630 -0.4994
  516MOL0     H69647   8.091   6.363   5.300  3.1750  2.1038 -0.1356
  516MOL0     H69648   8.620   6.213   5.574  0.5381  0.0431 -0.3984
  516MOL0     H69649   8.836   6.225   5.454 -0.1870 -0.8885  0.5022
  516MOL0     H69650   9.011   6.213   5.284  2.1290  3.8518 -2.4668
  516MOL0     H69651   8.874   6.129   5.190 -0.0419 -0.9631  2.2324
  516MOL0     H69652   9.114   6.298   5.083  1.1725 -1.5104 -1.8268
  516MOL0     H69653   8.977   6.233   4.988  0.2847 -0.2964 -0.8246
  516MOL0     H69654   9.029   6.015   5.091 -0.3278  1.7617  0.5712
  516MOL0     H69655   9.195   6.086   5.136 -0.8798  0.4656  1.3616
  516MOL0     H69656   9.102   6.089   4.849 -0.2673 -1.8032 -0.6627
  516MOL0     H69657   9.201   5.963   4.901  2.7757 -0.0992  2.8887
  516MOL0     H69658   9.446   6.314   4.862  1.7107 -2.6397 -2.2380
  516MOL0     H69659   8.641   6.427   5.130 -2.0360  1.3825  0.6908
  516MOL0     H69660   8.431   6.420   5.250 -0.4330 -0.5479 -0.6199
  517MOL0     O69661   6.209   6.611   9.949 -0.0619  0.1262  0.2524
  517MOL0     C69662   6.272   6.510   9.923 -0.4469  0.2541 -0.6013
  517MOL0     O69663   6.213   6.385   9.922  0.3532 -0.2708  0.3598
  517MOL0     C69664   6.087   6.374   9.965 -0.8350 -0.2756  0.2728
  517MOL0     C69665   6.009   6.292   9.891 -0.1488 -0.2836 -0.0076
  517MOL0     C69666   5.870   6.276   9.917 -1.2340 -0.4113 -0.0050
  517MOL0     C69667   5.814   6.342  10.025 -0.0249 -0.3197  0.3437
  517MOL0     O69668   5.687   6.317  10.056  0.4378 -0.3418 -0.3585
  517MOL0     C69669   5.593   6.276   9.946  0.4081 -0.5121  0.6634
  517MOL0     C69670   5.458   6.316   9.984 -0.7856  0.3303  0.5574
  517MOL0     C69671   5.351   6.277   9.887  0.0694  0.1409  0.2536
  517MOL0     C69672   5.354   6.133   9.871  0.7908  0.2940  0.2167
  517MOL0     C69673   5.218   6.089   9.810 -0.4865  1.0267 -0.1757
  517MOL0     C69674   5.217   5.951   9.756  0.2304 -0.0371  0.8009
  517MOL0     C69675   5.098   5.905   9.687  0.1922 -0.6849  0.2758
  517MOL0     C69676   4.982   5.873   9.779  0.1388  0.6636 -0.4546
  517MOL0     N69677   4.893   5.776   9.711 -1.4222  0.3426  0.0042
  517MOL0     C69678   4.848   5.792   9.584 -0.0465 -0.7795 -0.0983
  517MOL0     C69679   4.811   5.670   9.544  0.8020 -0.2668  0.4342
  517MOL0     C69680   4.745   5.632   9.410  0.2383 -0.9086 -0.6748
  517MOL0     C69681   4.595   5.686   9.410 -0.5551  0.1718  0.7157
  517MOL0     C69682   4.533   5.685   9.274  0.9185  0.8257  0.1510
  517MOL0     C69683   4.394   5.739   9.266 -0.1249  0.2910  0.9146
  517MOL0     O69684   4.310   5.667   9.354 -0.2354 -0.6048  0.0109
  517MOL0     C69685   4.207   5.615   9.294  0.7155  0.1302  0.2555
  517MOL0     C69686   4.088   5.687   9.277  0.8965  0.8287 -0.0994
  517MOL0     C69687   3.972   5.630   9.232 -0.5586 -0.7433  0.2988
  517MOL0     C69688   3.846   5.718   9.232 -0.6617  0.4205 -0.0969
  517MOL0     C69689   3.969   5.491   9.191 -0.7290 -1.2561 -1.0615
  517MOL0     C69690   3.862   5.417   9.127  0.2879 -1.1302  0.2284
  517MOL0     O69691   3.759   5.495   9.071 -0.3352 -0.2736  0.1504
  517MOL0     C69692   3.671   5.429   8.981 -0.0762  0.2851 -0.2233
  517MOL0     C69693   3.537   5.408   9.017 -0.5022  0.6628 -0.0065
  517MOL0     C69694   3.449   5.332   8.939  0.1192  0.3956  0.0053
  517MOL0     C69695   3.491   5.279   8.811 -0.2364  0.1928  0.1370
  517MOL0     O69696   3.398   5.213   8.731  0.1097 -0.4840  0.2440
  517MOL0     C69697   3.449   5.093   8.672  0.8140  0.3351  1.2151
  517MOL0     C69698   3.342   5.043   8.578  0.5646  0.0017 -0.0785
  517MOL0     C69699   3.197   5.093   8.605 -0.0829 -0.5168 -0.7987
  517MOL0     C69700   3.096   5.024   8.518  0.0675 -0.6921  0.6264
  517MOL0     C69701   2.956   5.054   8.564  0.7641 -0.3756  0.6823
  517MOL0     C69702   2.842   4.995   8.475 -0.0861  0.1242 -0.6854
  517MOL0     C69703   2.705   5.037   8.530  0.1342  0.2853 -0.1250
  517MOL0     C69704   2.602   4.973   8.456 -0.7146 -0.3902 -0.1174
  517MOL0    Cl69705   2.446   4.999   8.531  0.6349  0.0574  0.1251
  517MOL0     C69706   3.631   5.297   8.779  0.2765  0.5312 -0.3454
  517MOL0     C69707   3.712   5.382   8.858 -0.5738  0.0533 -0.2485
  517MOL0     O69708   3.874   5.298   9.104  0.0185  0.1358  0.3256
  517MOL0     C69709   4.087   5.419   9.214 -0.8699 -0.0383  0.2811
  517MOL0     C69710   4.204   5.480   9.263 -0.1445  0.1324 -0.2565
  517MOL0     N69711   4.835   5.586   9.653  0.2261  0.3930  0.2277
  517MOL0     N69712   4.884   5.649   9.753 -0.2101 -0.2424 -0.3158
  517MOL0     C69713   5.897   6.412  10.110 -0.2631 -0.1406  0.4983
  517MOL0     C69714   6.036   6.428  10.082  0.1453  0.2844 -0.3438
  517MOL0     C69715   6.413   6.527   9.884 -0.6807  0.2711  0.2473
  517MOL0     C69716   6.490   6.649   9.904  0.7484  0.3753  1.0670
  517MOL0     C69717   6.626   6.657   9.876 -0.3932  0.3866  0.2996
  517MOL0     C69718   6.689   6.545   9.809 -0.3940  0.2217  0.3482
  517MOL0     O69719   6.824   6.529   9.770  0.2044  0.1675  0.1293
  517MOL0     C69720   6.931   6.619   9.802  0.7318  0.3493 -0.1019
  517MOL0     C69721   7.039   6.549   9.890  1.3291  0.5093  0.6699
  517MOL0     C69722   7.122   6.668   9.953 -0.6045 -0.1651  0.4101
  517MOL0     C69723   7.228   6.614  10.059  0.8281 -0.4672  0.4038
  517MOL0     C69724   7.308   6.504  10.005  0.4491  0.3572  1.7244
  517MOL0     C69725   7.367   6.415   9.952 -0.0723  0.6178  0.3532
  517MOL0     C69726   6.610   6.434   9.784 -0.8845  0.5502  0.1509
  517MOL0     C69727   6.480   6.420   9.823 -0.8229 -1.1655  0.4580
  517MOL0     H69728   6.052   6.228   9.814  1.8950 -0.4323  1.1848
  517MOL0     H69729   5.818   6.195   9.868 -0.4429 -2.3667  2.1933
  517MOL0     H69730   5.616   6.321   9.849  1.8410  1.5339  1.8627
  517MOL0     H69731   5.600   6.167   9.943 -3.8962 -0.9168 -0.6392
  517MOL0     H69732   5.447   6.266  10.080  3.2157 -1.6824  0.1927
  517MOL0     H69733   5.437   6.422  10.001 -0.5534  0.4020  0.4085
  517MOL0     H69734   5.248   6.305   9.910 -0.7718 -1.9879 -0.6314
  517MOL0     H69735   5.374   6.317   9.788  1.1051 -0.2726  0.3147
  517MOL0     H69736   5.430   6.092   9.803 -2.2691 -1.8107 -2.2810
  517MOL0     H69737   5.356   6.081   9.967 -4.0188  0.1701  0.5224
  517MOL0     H69738   5.143   6.096   9.890  0.3277 -0.0798  0.7191
  517MOL0     H69739   5.192   6.162   9.733  2.0491  3.0152  0.6968
  517MOL0     H69740   5.300   5.955   9.684  1.1571  0.4184  1.8676
  517MOL0     H69741   5.247   5.879   9.832 -3.0140 -0.2863  1.9720
  517MOL0     H69742   5.080   5.977   9.607  1.1234 -0.5931  0.1387
  517MOL0     H69743   5.133   5.808   9.649  1.8036  0.3945 -1.1396
  517MOL0     H69744   4.925   5.964   9.803  0.2080  0.4022  0.7410
  517MOL0     H69745   5.031   5.830   9.866  0.5717  0.3807 -0.8318
  517MOL0     H69746   4.840   5.886   9.530  0.6132 -0.7520 -0.1576
  517MOL0     H69747   4.801   5.671   9.324  0.7928  0.6538  0.3581
  517MOL0     H69748   4.743   5.524   9.395 -0.4692 -1.1055  0.7638
  517MOL0     H69749   4.591   5.789   9.448  0.2558  0.6387 -0.4058
  517MOL0     H69750   4.532   5.622   9.473 -0.3213 -0.4449  0.3329
  517MOL0     H69751   4.525   5.579   9.249 -3.0381  0.8863  0.5038
  517MOL0     H69752   4.594   5.738   9.201  2.3261  1.2515  1.5771
  517MOL0     H69753   4.361   5.735   9.162  1.1793  1.2264  0.4272
  517MOL0     H69754   4.393   5.846   9.291  1.5172  1.0514 -1.7180
  517MOL0     H69755   4.076   5.786   9.321  0.4053 -0.5293  3.1155
  517MOL0     H69756   3.817   5.766   9.138 -1.0529  2.2316  0.9028
  517MOL0     H69757   3.760   5.653   9.250 -0.6131  0.1049 -0.9894
  517MOL0     H69758   3.852   5.799   9.306  3.6399  1.9155 -1.7653
  517MOL0     H69759   3.495   5.459   9.103 -0.1381  0.1943  0.4531
  517MOL0     H69760   3.342   5.331   8.956  0.1268 -2.7336  0.5535
  517MOL0     H69761   3.529   5.119   8.602 -0.3408 -0.8933 -0.6442
  517MOL0     H69762   3.470   5.008   8.738 -0.4448  0.2770  1.5658
  517MOL0     H69763   3.364   5.081   8.477  0.6633  0.0044 -0.0558
  517MOL0     H69764   3.358   4.935   8.585  2.8904  0.2801 -0.1391
  517MOL0     H69765   3.188   5.201   8.594  2.2451 -0.1016  0.6876
  517MOL0     H69766   3.174   5.075   8.711  1.0966  0.2789 -0.3863
  517MOL0     H69767   3.104   5.055   8.413  0.6205  1.8285  1.3544
  517MOL0     H69768   3.118   4.918   8.530  0.8572 -0.5012  0.8863
  517MOL0     H69769   2.941   5.162   8.571  0.6844 -0.4279  1.3649
  517MOL0     H69770   2.929   5.003   8.657 -2.8837  1.9553  1.1130
  517MOL0     H69771   2.847   5.023   8.369  0.9903 -0.4528 -0.8129
  517MOL0     H69772   2.856   4.886   8.478 -3.6489 -0.4255  3.0317
  517MOL0     H69773   2.689   5.145   8.517 -0.3029  0.0920 -1.3420
  517MOL0     H69774   2.700   5.016   8.638 -0.7010  1.1022  0.0106
  517MOL0     H69775   2.624   4.866   8.458 -1.4949 -0.5955 -1.4588
  517MOL0     H69776   2.605   5.021   8.358  0.1452  0.0850  0.1324
  517MOL0     H69777   3.676   5.259   8.688  2.5203  0.4451  0.7524
  517MOL0     H69778   3.816   5.400   8.832 -0.4000 -2.7752 -1.8805
  517MOL0     H69779   4.083   5.313   9.192  1.2525  0.1430 -1.3666
  517MOL0     H69780   4.293   5.419   9.268  0.2172  0.3059 -2.8364
  517MOL0     H69781   5.843   6.451  10.196 -3.5441 -0.3223 -1.3244
  517MOL0     H69782   6.098   6.490  10.146  1.0439  0.0319 -0.9537
  517MOL0     H69783   6.426   6.728   9.942 -2.0442 -2.6002  3.1343
  517MOL0     H69784   6.675   6.750   9.904 -3.1296  2.0948 -0.1857
  517MOL0     H69785   6.969   6.666   9.711  2.7587 -0.4304  0.2961
  517MOL0     H69786   6.879   6.692   9.865 -1.9077 -1.4680 -0.0017
  517MOL0     H69787   7.094   6.469   9.841 -1.8197 -0.3906 -1.6870
  517MOL0     H69788   6.976   6.508   9.970  1.5229 -1.4958 -0.1432
  517MOL0     H69789   7.056   6.739  10.004  1.3321 -0.2064  3.1844
  517MOL0     H69790   7.181   6.714   9.873 -0.5684 -1.3825 -0.2786
  517MOL0     H69791   7.184   6.590  10.156 -0.7471  0.4240 -0.0473
  517MOL0     H69792   7.288   6.705  10.075 -1.5380  1.4444 -0.9399
  517MOL0     H69793   7.424   6.343   9.897  2.0562  1.3019  1.5480
  517MOL0     H69794   6.652   6.355   9.722 -0.6767  1.0300 -0.3217
  517MOL0     H69795   6.430   6.326   9.803  1.0920 -2.1279 -0.0264
  518MOL0     O69796   9.313   5.724   9.184 -0.2463 -1.1916  0.3874
  518MOL0     C69797   9.393   5.692   9.096 -0.2942 -0.1172  0.0780
  518MOL0     O69798   9.440   5.567   9.062 -0.0503  1.0212 -0.9466
  518MOL0     C69799   9.402   5.452   9.136 -0.0737 -1.0697 -0.3226
  518MOL0     C69800   9.483   5.339   9.126  0.5881 -0.0418  0.0004
  518MOL0     C69801   9.451   5.214   9.184  0.4399 -0.6780 -0.0765
  518MOL0     C69802   9.324   5.188   9.238  0.4696  0.9205  0.2379
  518MOL0     O69803   9.290   5.060   9.288 -0.7193  0.2528  1.0934
  518MOL0     C69804   9.146   5.042   9.331 -0.3325  0.5182 -0.3678
  518MOL0     C69805   9.118   4.894   9.387 -0.0429 -0.3657  0.3320
  518MOL0     C69806   8.970   4.879   9.383  0.1589  0.2924 -0.2896
  518MOL0     C69807   8.929   4.728   9.398 -0.7545  0.1688 -1.4918
  518MOL0     C69808   8.776   4.707   9.386 -0.1850 -0.1191 -0.7158
  518MOL0     C69809   8.695   4.747   9.516 -0.5967  0.6170 -0.3085
  518MOL0     C69810   8.658   4.632   9.614  0.8973  0.3989 -0.6665
  518MOL0     C69811   8.626   4.666   9.768 -0.3573 -0.0123  0.2151
  518MOL0     N69812   8.512   4.749   9.799 -0.6184 -0.2926 -0.2815
  518MOL0     C69813   8.490   4.822   9.916 -1.5122  0.4022  0.0249
  518MOL0     C69814   8.368   4.864   9.905  0.2261  0.4477 -0.5431
  518MOL0     C69815   8.299   4.940  10.017  0.2249 -0.3628  0.0853
  518MOL0     C69816   8.397   4.995  10.125  0.1815 -0.7379  0.1124
  518MOL0     C69817   8.318   5.073  10.233 -0.0711 -0.1421  0.1936
  518MOL0     C69818   8.227   5.187  10.182 -0.1283  0.4553 -0.3386
  518MOL0     O69819   8.096   5.145  10.132  0.2380 -0.2447  0.4017
  518MOL0     C69820   7.989   5.119  10.210 -0.3533  0.2077 -0.1187
  518MOL0     C69821   8.008   5.082  10.346 -0.4461  0.6098 -0.2891
  518MOL0     C69822   7.896   5.042  10.426 -0.9252  1.4472  0.6474
  518MOL0     C69823   7.944   4.996  10.559  1.0034 -0.2489 -0.0677
  518MOL0     C69824   7.767   5.055  10.375  0.2442  0.7141 -0.3005
  518MOL0     C69825   7.639   5.023  10.449  0.9452  0.2960 -0.4639
  518MOL0     O69826   7.532   5.002  10.371 -0.3607 -0.0564 -0.3763
  518MOL0     C69827   7.412   4.985  10.429 -0.6792  0.5577  0.3277
  518MOL0     C69828   7.365   4.856  10.461  0.1756 -0.1141 -0.2221
  518MOL0     C69829   7.244   4.852  10.534  0.4065  0.2653  0.2786
  518MOL0     C69830   7.160   4.964  10.552 -0.0515  0.1686 -1.2773
  518MOL0     O69831   7.041   4.938  10.616 -0.5226  0.2792  0.0988
  518MOL0     C69832   6.965   5.050  10.634 -0.1106  0.5578  0.5148
  518MOL0     C69833   6.830   5.018  10.705 -0.2760  0.4777 -0.0632
  518MOL0     C69834   6.746   5.143  10.724 -0.2868  0.5686 -0.4292
  518MOL0     C69835   6.600   5.114  10.764  0.0877 -0.0525  0.4069
  518MOL0     C69836   6.523   5.248  10.759 -0.3453  0.2350 -0.0587
  518MOL0     C69837   6.396   5.264  10.835  0.0158  1.0330  0.2729
  518MOL0     C69838   6.295   5.154  10.796 -0.2538  0.5368 -0.6881
  518MOL0     C69839   6.148   5.182  10.820 -0.1039  0.6276 -0.1157
  518MOL0    Cl69840   6.041   5.068  10.726 -0.2254  0.4390 -0.0009
  518MOL0     C69841   7.210   5.091  10.514  0.2139 -0.8265  0.5551
  518MOL0     C69842   7.339   5.099  10.463 -0.4177  0.3935 -0.5411
  518MOL0     O69843   7.647   5.009  10.568 -0.4669 -0.5089 -0.3105
  518MOL0     C69844   7.759   5.104  10.239 -0.2838 -0.6917 -0.2802
  518MOL0     C69845   7.865   5.125  10.157  0.6209  0.1934 -0.2449
  518MOL0     N69846   8.316   4.833   9.774 -0.2313 -0.3440 -1.2759
  518MOL0     N69847   8.398   4.763   9.716 -1.1026  0.2664 -0.5553
  518MOL0     C69848   9.241   5.305   9.254 -0.1238  0.4833 -0.4439
  518MOL0     C69849   9.281   5.432   9.203 -0.8309  0.1931  0.1368
  518MOL0     C69850   9.464   5.810   9.036  0.2861 -0.3028  1.0801
  518MOL0     C69851   9.573   5.786   8.945 -0.4730  0.3364 -0.1910
  518MOL0     C69852   9.659   5.888   8.901 -0.9339  0.0528  0.3601
  518MOL0     C69853   9.648   6.013   8.955 -1.0190  0.3017 -0.2588
  518MOL0     O69854   9.731   6.112   8.905  0.3252  0.2481  0.5349
  518MOL0     C69855   9.844   6.145   8.977 -0.5223 -0.6460 -0.2851
  518MOL0     C69856   9.820   6.243   9.090  0.0240 -0.8232  0.7622
  518MOL0     C69857   9.722   6.363   9.060 -0.3107 -0.2887 -0.4259
  518MOL0     C69858   9.777   6.467   8.965 -0.0483  0.4314  0.6672
  518MOL0     C69859   9.767   6.445   8.817 -0.0250  0.2913  0.9783
  518MOL0     C69860   9.748   6.414   8.702 -0.4517  0.3174 -0.1634
  518MOL0     C69861   9.538   6.040   9.037 -1.4102  0.2293 -0.6929
  518MOL0     C69862   9.445   5.943   9.081  0.4830  0.5795  0.2477
  518MOL0     H69863   9.575   5.350   9.070  1.1871  1.4333  1.1957
  518MOL0     H69864   9.522   5.132   9.179  1.1128 -0.1778  0.8414
  518MOL0     H69865   9.109   5.104   9.413 -2.4072 -0.7907 -0.2251
  518MOL0     H69866   9.094   5.065   9.238  0.7660  0.5893 -0.9705
  518MOL0     H69867   9.157   4.818   9.320 -0.9093 -0.6302  0.1210
  518MOL0     H69868   9.147   4.879   9.491 -1.0083 -3.0303  0.2781
  518MOL0     H69869   8.933   4.928   9.473 -0.5514 -0.6902 -0.0246
  518MOL0     H69870   8.922   4.910   9.290 -2.6388 -0.0013  0.9618
  518MOL0     H69871   8.975   4.675   9.314 -0.1635 -1.9895  0.1241
  518MOL0     H69872   8.967   4.676   9.486  0.6230 -0.1790 -2.2577
  518MOL0     H69873   8.736   4.771   9.307  2.3621  1.4833 -0.7968
  518MOL0     H69874   8.754   4.601   9.372 -0.1578 -0.4526  1.4311
  518MOL0     H69875   8.745   4.832   9.564 -0.7764  1.6408 -1.8726
  518MOL0     H69876   8.600   4.788   9.481 -0.0842 -0.3816 -3.1086
  518MOL0     H69877   8.578   4.573   9.569  2.1817  0.0953 -2.6956
  518MOL0     H69878   8.745   4.566   9.605  0.8426  0.0107  1.2026
  518MOL0     H69879   8.711   4.718   9.813  1.6412  0.2075 -3.4980
  518MOL0     H69880   8.615   4.570   9.820  1.3855 -0.6080 -0.4565
  518MOL0     H69881   8.559   4.839   9.999 -0.3869  2.8864 -1.3312
  518MOL0     H69882   8.252   5.029   9.973  1.4858  1.1298  1.6415
  518MOL0     H69883   8.224   4.876  10.064 -0.6580 -0.1227 -0.9506
  518MOL0     H69884   8.473   5.055  10.075 -1.4633  0.2459 -1.3272
  518MOL0     H69885   8.450   4.912  10.172  0.9763 -1.1943 -1.5193
  518MOL0     H69886   8.406   5.111  10.286 -1.5867  1.0831  1.9863
  518MOL0     H69887   8.266   5.011  10.306 -3.0366  1.0053 -0.7601
  518MOL0     H69888   8.265   5.241  10.095  2.0617 -0.8239 -0.2477
  518MOL0     H69889   8.218   5.257  10.266 -0.6941 -2.7354  2.4404
  518MOL0     H69890   8.107   5.089  10.392  0.3122  2.4556 -2.0599
  518MOL0     H69891   7.940   4.886  10.555  2.1588 -0.2911 -0.6246
  518MOL0     H69892   8.047   5.020  10.589  0.8132 -1.9062  2.1855
  518MOL0     H69893   7.883   5.032  10.642  1.2554  0.8708 -0.3542
  518MOL0     H69894   7.434   4.774  10.446  0.7483  0.1022  1.0891
  518MOL0     H69895   7.222   4.753  10.573  0.8486  0.4930  1.1360
  518MOL0     H69896   7.027   5.109  10.701  3.1096 -0.0513 -1.6761
  518MOL0     H69897   6.945   5.098  10.538  1.7607  2.3862  0.9572
  518MOL0     H69898   6.783   4.937  10.648  1.7332 -2.8816  2.6241
  518MOL0     H69899   6.857   4.970  10.800 -1.0916  1.8867  0.9290
  518MOL0     H69900   6.760   5.195  10.629  0.9063 -1.0183 -1.1821
  518MOL0     H69901   6.796   5.202  10.802  0.2463 -1.0855  0.5245
  518MOL0     H69902   6.548   5.045  10.697 -1.3714  2.7497 -1.5857
  518MOL0     H69903   6.599   5.079  10.867 -1.6507 -0.8598  0.1428
  518MOL0     H69904   6.507   5.258  10.651  3.2583  2.1978 -0.5591
  518MOL0     H69905   6.588   5.329  10.791 -0.3467  0.2388 -0.0673
  518MOL0     H69906   6.415   5.257  10.942 -0.6895  0.2285  0.3602
  518MOL0     H69907   6.342   5.357  10.815 -1.8444 -0.1832 -0.6301
  518MOL0     H69908   6.317   5.056  10.841  0.7219  0.8513 -0.4519
  518MOL0     H69909   6.306   5.141  10.688  2.8301 -1.3145 -0.2569
  518MOL0     H69910   6.113   5.279  10.785 -0.8801  0.3299 -0.1784
  518MOL0     H69911   6.124   5.187  10.926 -2.9925  5.3235 -0.7331
  518MOL0     H69912   7.157   5.184  10.531  0.4923 -0.6700  0.5658
  518MOL0     H69913   7.386   5.196  10.448 -1.0699  0.9939  1.0276
  518MOL0     H69914   7.664   5.136  10.198  0.3371 -0.3185 -1.4829
  518MOL0     H69915   7.851   5.148  10.052 -0.9969 -0.1334 -0.1280
  518MOL0     H69916   9.138   5.312   9.289  0.6775  2.0694  1.8036
  518MOL0     H69917   9.209   5.513   9.205 -1.7223 -0.5208 -1.4820
  518MOL0     H69918   9.602   5.689   8.907  0.7999  0.4530  0.4531
  518MOL0     H69919   9.737   5.861   8.830 -0.9241  0.3987  0.2408
  518MOL0     H69920   9.888   6.055   9.022  1.5687 -0.5870 -2.0215
  518MOL0     H69921   9.911   6.201   8.912 -1.9879  0.1695 -1.1365
  518MOL0     H69922   9.922   6.268   9.121 -0.4580  0.6095  1.2862
  518MOL0     H69923   9.761   6.212   9.177 -0.4004  3.4113  2.2240
  518MOL0     H69924   9.698   6.410   9.155 -0.2933 -0.7897 -0.1683
  518MOL0     H69925   9.629   6.327   9.014 -0.4526 -0.2820 -0.1472
  518MOL0     H69926   9.881   6.488   8.993  0.2856  0.4610 -0.5485
  518MOL0     H69927   9.719   6.559   8.978  0.0791  0.7746 -0.9675
  518MOL0     H69928   9.718   6.392   8.601  3.2421  0.9199 -1.5469
  518MOL0     H69929   9.504   6.139   9.065  1.9389  1.6179 -1.0167
  518MOL0     H69930   9.360   5.960   9.147  1.3949  1.6595  1.1612
  519MOL0     O69931   6.857   6.588   1.301  0.3313  0.1434  0.8809
  519MOL0     C69932   6.872   6.706   1.326  0.3646  1.1065 -0.3139
  519MOL0     O69933   6.778   6.801   1.358 -0.2316 -0.2891 -0.5795
  519MOL0     C69934   6.645   6.766   1.387  0.1276 -0.6182  0.7416
  519MOL0     C69935   6.551   6.867   1.367  0.3214  0.0514  0.2765
  519MOL0     C69936   6.417   6.841   1.375 -0.3491  0.0679 -0.8310
  519MOL0     C69937   6.356   6.709   1.407  0.7723  0.0297  0.0630
  519MOL0     O69938   6.218   6.694   1.421  0.3424 -0.6970  0.2259
  519MOL0     C69939   6.127   6.752   1.328 -0.0968 -0.3081  0.7332
  519MOL0     C69940   5.993   6.788   1.400  0.2432 -0.9894  0.0407
  519MOL0     C69941   5.938   6.696   1.512  0.7296 -0.5751  0.6548
  519MOL0     C69942   5.827   6.754   1.606 -0.8172 -0.1600  0.1982
  519MOL0     C69943   5.873   6.859   1.702  0.6222 -0.5201 -0.0736
  519MOL0     C69944   5.782   6.856   1.826 -0.9092  0.1639 -0.3467
  519MOL0     C69945   5.845   6.948   1.927 -0.2797 -0.1257  0.2459
  519MOL0     C69946   5.787   6.934   2.064 -0.1925  0.0811  0.6719
  519MOL0     N69947   5.644   6.988   2.060 -0.3480 -0.3821  0.5433
  519MOL0     C69948   5.545   6.933   2.129 -0.2009 -0.1236 -0.6021
  519MOL0     C69949   5.439   7.018   2.132 -0.0115 -0.5802 -0.2533
  519MOL0     C69950   5.321   7.009   2.217  0.4690  0.0190 -0.0648
  519MOL0     C69951   5.246   7.139   2.252  0.0000 -0.3723  0.4485
  519MOL0     C69952   5.144   7.112   2.358 -0.2768 -0.4344 -0.0875
  519MOL0     C69953   5.005   7.076   2.306 -0.9380 -0.2468  0.7115
  519MOL0     O69954   4.910   7.048   2.410 -0.4209  0.3408 -0.3659
  519MOL0     C69955   4.781   7.066   2.383  0.7240 -1.3692  0.2367
  519MOL0     C69956   4.701   7.039   2.494 -0.0615 -1.0855  1.2353
  519MOL0     C69957   4.564   7.020   2.471 -0.9720 -0.7202 -0.4634
  519MOL0     C69958   4.485   6.954   2.584  0.1318  0.5569 -0.0727
  519MOL0     C69959   4.505   7.058   2.351 -0.1866 -0.1223 -0.2549
  519MOL0     C69960   4.356   7.063   2.333 -0.3290  0.3042 -0.3732
  519MOL0     O69961   4.322   7.146   2.234  0.4276 -0.1125 -0.2471
  519MOL0     C69962   4.196   7.141   2.174 -0.9438  0.3386 -0.7921
  519MOL0     C69963   4.093   7.219   2.221 -0.4715  0.2111  0.9740
  519MOL0     C69964   3.956   7.216   2.180 -0.2536 -0.4240  0.6545
  519MOL0     C69965   3.934   7.122   2.071 -0.5567 -0.4692  0.4504
  519MOL0     O69966   3.806   7.105   2.009 -0.8130  0.6176 -0.4879
  519MOL0     C69967   3.756   7.227   1.959  0.8012 -0.2557  0.0994
  519MOL0     C69968   3.613   7.220   1.902  0.7940 -0.6630  1.2784
  519MOL0     C69969   3.515   7.146   1.987 -1.3452  0.6101 -0.0499
  519MOL0     C69970   3.372   7.166   1.936 -1.2995 -0.3094 -0.3872
  519MOL0     C69971   3.275   7.058   1.989  0.3521  0.0683 -0.0482
  519MOL0     C69972   3.123   7.076   1.953 -0.0151 -0.0820  0.5529
  519MOL0     C69973   3.094   7.033   1.807 -1.3506  0.0867 -0.7310
  519MOL0     C69974   2.962   6.969   1.771  0.4307  0.1928 -0.0517
  519MOL0    Cl69975   2.933   6.837   1.867  0.1620 -0.2602  0.3650
  519MOL0     C69976   4.036   7.042   2.017 -0.5828  0.0835 -0.3122
  519MOL0     C69977   4.172   7.051   2.069 -0.0067 -0.1835  0.3175
  519MOL0     O69978   4.277   7.002   2.403  0.1125  0.3377 -0.3229
  519MOL0     C69979   4.593   7.104   2.248  0.6095  0.2289  0.7653
  519MOL0     C69980   4.727   7.099   2.262  0.2761  0.4402  0.2707
  519MOL0     N69981   5.486   7.129   2.060 -0.4885 -0.2857  0.3307
  519MOL0     N69982   5.609   7.117   2.017 -0.2021  0.1204 -1.0338
  519MOL0     C69983   6.455   6.605   1.428  0.4418 -0.0802  0.5880
  519MOL0     C69984   6.593   6.637   1.414 -0.0297  0.6928 -0.0177
  519MOL0     C69985   7.011   6.765   1.318  0.7321  0.4954  0.1489
  519MOL0     C69986   7.101   6.689   1.252 -0.4750 -0.5612  0.0891
  519MOL0     C69987   7.235   6.727   1.246  0.2083  0.0053 -0.1831
  519MOL0     C69988   7.270   6.834   1.325 -0.6025 -0.0546  0.0368
  519MOL0     O69989   7.402   6.857   1.338 -0.1320 -0.0681  0.0576
  519MOL0     C69990   7.443   6.988   1.309  0.2499 -0.1393  0.8154
  519MOL0     C69991   7.591   6.984   1.290 -0.6517  1.6797 -0.6885
  519MOL0     C69992   7.654   7.113   1.248  0.2119 -0.4114  0.3794
  519MOL0     C69993   7.805   7.105   1.222  0.1598 -0.3032  0.2548
  519MOL0     C69994   7.892   7.059   1.324 -0.2739 -0.7289 -0.3443
  519MOL0     C69995   7.960   7.020   1.416  0.0131 -1.0041  0.3225
  519MOL0     C69996   7.179   6.919   1.396  0.5976 -0.0656 -0.1687
  519MOL0     C69997   7.046   6.887   1.385 -0.2342  0.2401 -0.1319
  519MOL0     H69998   6.592   6.965   1.343  0.3656 -0.3561 -1.4163
  519MOL0     H69999   6.349   6.925   1.357 -0.2021  0.7570  1.4375
  519MOL0     H70000   6.163   6.845   1.283 -1.5935 -0.5004 -0.9219
  519MOL0     H70001   6.114   6.680   1.247 -1.1846 -1.3585  1.8008
  519MOL0     H70002   6.001   6.890   1.437  0.2335  0.2172 -3.0483
  519MOL0     H70003   5.924   6.779   1.316  0.4394 -2.0738 -0.0233
  519MOL0     H70004   5.886   6.609   1.471 -1.8669  1.9887 -1.9933
  519MOL0     H70005   6.016   6.653   1.575  1.0420 -0.6800  0.1955
  519MOL0     H70006   5.737   6.793   1.558 -3.1765 -5.2880 -0.2594
  519MOL0     H70007   5.792   6.663   1.657 -2.4974  0.4730  0.2478
  519MOL0     H70008   5.974   6.842   1.741  1.4363  0.2932 -1.7410
  519MOL0     H70009   5.873   6.955   1.650  0.4894 -0.9783 -0.9284
  519MOL0     H70010   5.689   6.894   1.783 -1.8419 -1.9329 -0.2935
  519MOL0     H70011   5.767   6.756   1.866 -0.6558  0.5040  0.6280
  519MOL0     H70012   5.954   6.938   1.938 -0.4334 -2.0845  0.3187
  519MOL0     H70013   5.809   7.044   1.889 -1.7993 -1.6508 -2.4840
  519MOL0     H70014   5.846   6.996   2.132 -1.1193  2.7842 -0.7912
  519MOL0     H70015   5.801   6.829   2.088 -1.4875 -0.3894 -0.4906
  519MOL0     H70016   5.554   6.837   2.179  4.2253 -1.9824 -4.1536
  519MOL0     H70017   5.250   6.951   2.158 -0.5828  1.8082 -0.6389
  519MOL0     H70018   5.359   6.965   2.310  0.3757  0.5757  0.2438
  519MOL0     H70019   5.194   7.194   2.172 -0.4218 -1.7593 -0.2589
  519MOL0     H70020   5.321   7.207   2.293  2.2742 -3.4599  1.7851
  519MOL0     H70021   5.123   7.208   2.408  2.0953 -0.5113  1.1807
  519MOL0     H70022   5.184   7.056   2.443 -2.1743 -0.4632  0.8477
  519MOL0     H70023   5.016   6.991   2.238 -4.4226 -1.0532  0.9941
  519MOL0     H70024   4.971   7.159   2.244  0.7880 -0.7287 -0.9992
  519MOL0     H70025   4.752   7.014   2.586  0.8136  0.3620  1.1769
  519MOL0     H70026   4.433   6.862   2.554 -2.1786  1.2154  1.6275
  519MOL0     H70027   4.555   6.921   2.661 -1.4553  0.6634  1.4801
  519MOL0     H70028   4.403   7.014   2.623  1.8111  1.9760  1.3925
  519MOL0     H70029   4.103   7.297   2.296 -0.4876  3.6860 -2.3174
  519MOL0     H70030   3.876   7.266   2.234  0.6097  0.3596  1.2488
  519MOL0     H70031   3.756   7.307   2.034  2.0689 -0.1149 -0.0356
  519MOL0     H70032   3.826   7.267   1.885 -1.4269  2.2903 -0.8284
  519MOL0     H70033   3.570   7.321   1.903  1.3928 -0.4078  1.1289
  519MOL0     H70034   3.601   7.184   1.799 -1.7430  1.1830  0.8261
  519MOL0     H70035   3.526   7.178   2.091  1.7594 -0.2660 -0.0002
  519MOL0     H70036   3.545   7.041   1.975 -0.1690  0.8731  0.4888
  519MOL0     H70037   3.357   7.266   1.977  2.1195 -0.4669  1.6488
  519MOL0     H70038   3.377   7.169   1.826  0.6508  1.6751 -0.3124
  519MOL0     H70039   3.286   7.051   2.098  1.4275 -1.2778 -0.2061
  519MOL0     H70040   3.306   6.961   1.948  3.1844  0.7475  0.2876
  519MOL0     H70041   3.063   7.017   2.023 -2.7963  1.6494 -0.2217
  519MOL0     H70042   3.097   7.181   1.966 -1.0640 -0.3753  0.8654
  519MOL0     H70043   3.175   6.964   1.780 -0.8929  0.6555 -0.8175
  519MOL0     H70044   3.112   7.110   1.732 -0.3279  1.6841  1.0712
  519MOL0     H70045   2.951   6.950   1.664  0.8826 -3.6262  0.4214
  519MOL0     H70046   2.871   7.025   1.793 -1.9420 -3.3186 -0.0906
  519MOL0     H70047   4.019   6.971   1.937  0.8531 -0.7895  0.1070
  519MOL0     H70048   4.247   6.983   2.030 -0.7713 -3.7826  4.3256
  519MOL0     H70049   4.553   7.120   2.148  1.3344 -1.7513  0.1053
  519MOL0     H70050   4.770   7.127   2.167 -1.7922 -0.5938 -1.0421
  519MOL0     H70051   6.440   6.502   1.457  1.0162 -0.8696 -1.7265
  519MOL0     H70052   6.658   6.552   1.432 -1.8131 -1.3950 -2.6725
  519MOL0     H70053   7.078   6.596   1.202  3.0437 -0.9434 -1.0834
  519MOL0     H70054   7.316   6.667   1.206 -1.0499 -3.0140  1.5011
  519MOL0     H70055   7.397   7.018   1.214 -2.7077 -1.7633  1.6091
  519MOL0     H70056   7.418   7.061   1.386  2.4282  2.6367 -0.9258
  519MOL0     H70057   7.614   6.913   1.209  0.8851 -0.7920  1.7597
  519MOL0     H70058   7.646   6.941   1.374 -1.6139 -2.5742 -1.9665
  519MOL0     H70059   7.639   7.198   1.316  0.1487 -0.0309 -0.1008
  519MOL0     H70060   7.607   7.137   1.152  0.2001  0.0810  0.5068
  519MOL0     H70061   7.845   7.203   1.195 -0.5610  0.4840  1.8923
  519MOL0     H70062   7.819   7.030   1.143 -4.1122 -2.4305  1.2232
  519MOL0     H70063   8.027   7.002   1.497  0.3914 -1.0319  0.0077
  519MOL0     H70064   7.207   7.007   1.452 -0.3775  0.2029 -0.0880
  519MOL0     H70065   6.970   6.945   1.437 -0.5960 -0.9879  0.7642
  520MOL0     O70066   9.919   4.867   4.821 -0.2419 -0.3356  0.3982
  520MOL0     C70067   9.892   4.749   4.846  0.5412  0.1357 -0.3602
  520MOL0     O70068   9.766   4.695   4.865  0.4981 -1.6928  0.0840
  520MOL0     C70069   9.657   4.776   4.836 -1.4587 -0.2735  0.9950
  520MOL0     C70070   9.561   4.725   4.750  0.4423 -0.2759 -0.2411
  520MOL0     C70071   9.441   4.786   4.721  0.5453  0.1274  0.0029
  520MOL0     C70072   9.415   4.915   4.773  0.0454 -0.4190 -0.7456
  520MOL0     O70073   9.294   4.976   4.761  0.2082 -0.9740  0.5093
  520MOL0     C70074   9.178   4.917   4.701 -0.6488 -0.0508 -0.3621
  520MOL0     C70075   9.062   4.996   4.749  1.0263 -0.1906  0.6662
  520MOL0     C70076   8.926   4.953   4.678  0.0696  0.3813 -0.3026
  520MOL0     C70077   8.798   4.964   4.763  0.0222  0.0043  0.5582
  520MOL0     C70078   8.673   4.957   4.674 -0.0885  0.6446  0.1567
  520MOL0     C70079   8.634   5.096   4.623 -0.9440  0.0427 -0.7975
  520MOL0     C70080   8.529   5.086   4.516  0.1548  0.6435  0.1371
  520MOL0     C70081   8.381   5.056   4.562 -0.3540  0.2218  0.9413
  520MOL0     N70082   8.333   5.165   4.642  1.1018  0.1536  0.0679
  520MOL0     C70083   8.238   5.255   4.600  0.2085 -0.8705  0.9875
  520MOL0     C70084   8.201   5.318   4.715  0.2799  0.2308 -0.0503
  520MOL0     C70085   8.091   5.422   4.746 -0.7354  0.0801 -0.4518
  520MOL0     C70086   7.976   5.365   4.829  0.0217  0.4294 -0.6338
  520MOL0     C70087   7.908   5.253   4.754  0.3880  0.1384 -0.7799
  520MOL0     C70088   7.808   5.184   4.847  0.0942 -1.1899 -0.0742
  520MOL0     O70089   7.748   5.082   4.779  1.6697 -0.5852  0.0949
  520MOL0     C70090   7.729   4.961   4.850 -0.0243 -0.8046 -0.0713
  520MOL0     C70091   7.694   4.844   4.782 -1.6417 -0.4006  0.1286
  520MOL0     C70092   7.680   4.724   4.846 -0.0417 -0.2645 -0.4352
  520MOL0     C70093   7.651   4.598   4.767 -0.2634  0.0431  0.3204
  520MOL0     C70094   7.694   4.719   4.984  0.3762 -0.0388 -0.2733
  520MOL0     C70095   7.644   4.592   5.064  0.4770 -0.3618 -0.1447
  520MOL0     O70096   7.721   4.571   5.172 -0.5184  0.8341  0.2420
  520MOL0     C70097   7.730   4.441   5.229 -0.9205 -1.2073 -0.3806
  520MOL0     C70098   7.817   4.360   5.167 -0.4830  0.5763 -0.1665
  520MOL0     C70099   7.841   4.226   5.219  0.1562 -0.1013  0.7186
  520MOL0     C70100   7.790   4.189   5.341 -0.5703 -0.3674  0.2882
  520MOL0     O70101   7.808   4.062   5.391  0.1783 -0.0368 -0.3905
  520MOL0     C70102   7.949   4.021   5.395  0.2430  0.0853 -0.1696
  520MOL0     C70103   8.029   4.087   5.515  0.5644 -0.2700 -0.2053
  520MOL0     C70104   8.023   4.024   5.657 -0.2681  0.5967  0.2837
  520MOL0     C70105   7.899   4.044   5.741  0.0198  0.3467 -0.3163
  520MOL0     C70106   7.909   3.953   5.862 -0.2542  0.1828 -0.1739
  520MOL0     C70107   7.915   4.022   5.997 -1.3891 -0.2074 -0.2515
  520MOL0     C70108   7.792   4.094   6.043  0.1416 -0.6140  0.2584
  520MOL0     C70109   7.799   4.152   6.191 -0.7155  0.2612 -0.0138
  520MOL0    Cl70110   7.815   4.021   6.299 -0.3032  0.2530  0.2133
  520MOL0     C70111   7.700   4.276   5.409 -0.2446 -0.2080  0.6621
  520MOL0     C70112   7.662   4.399   5.347 -0.0991  0.2014 -0.3447
  520MOL0     O70113   7.562   4.510   5.015  0.5476  0.0898  0.1853
  520MOL0     C70114   7.724   4.834   5.059  0.3335 -0.0027 -0.0166
  520MOL0     C70115   7.741   4.953   4.988  0.5663 -0.1196  0.2734
  520MOL0     N70116   8.270   5.262   4.821  0.7494  0.0886 -0.4030
  520MOL0     N70117   8.340   5.166   4.780  0.3236  0.1025  0.1109
  520MOL0     C70118   9.513   4.979   4.860 -0.0800  0.5452  0.2836
  520MOL0     C70119   9.628   4.900   4.898  0.4122  0.0974  0.1751
  520MOL0     C70120  10.013   4.659   4.845 -1.0880  0.6643  1.3231
  520MOL0     C70121  10.145   4.713   4.848  0.7278 -0.3673  0.4647
  520MOL0     C70122  10.263   4.644   4.838  0.2299  0.1395 -0.4224
  520MOL0     C70123  10.256   4.510   4.833  0.5582  0.3394 -0.4653
  520MOL0     O70124  10.358   4.432   4.820 -0.3523  0.9710 -0.5052
  520MOL0     C70125  10.482   4.476   4.769 -0.2990  1.0856  1.5046
  520MOL0     C70126  10.555   4.362   4.688  0.2086 -0.2462  0.2054
  520MOL0     C70127  10.524   4.219   4.742 -0.1959  0.1966  0.4708
  520MOL0     C70128  10.589   4.197   4.884  0.8358 -0.4097 -0.3268
  520MOL0     C70129  10.547   4.062   4.918  0.1840 -0.1026  0.2544
  520MOL0     C70130  10.518   3.956   4.962 -0.5872  1.1260  0.1911
  520MOL0     C70131  10.127   4.448   4.832 -0.2014 -0.4139  0.1448
  520MOL0     C70132  10.008   4.520   4.846 -0.1939  0.5044  0.2673
  520MOL0     H70133   9.567   4.631   4.695  1.7070  0.7261 -1.9243
  520MOL0     H70134   9.369   4.746   4.650 -3.6819 -0.0135  3.8988
  520MOL0     H70135   9.189   4.919   4.592  1.4370 -2.2789 -0.2671
  520MOL0     H70136   9.170   4.814   4.737  3.4910 -0.9044 -1.4081
  520MOL0     H70137   9.059   4.988   4.858 -0.7381  2.1027  0.8541
  520MOL0     H70138   9.085   5.095   4.709  2.3433 -0.5076  0.5986
  520MOL0     H70139   8.934   5.019   4.591 -0.0316  1.0297  0.1777
  520MOL0     H70140   8.941   4.846   4.657  3.6659  0.5935  0.6188
  520MOL0     H70141   8.800   4.878   4.830 -0.9768 -1.1481 -0.8350
  520MOL0     H70142   8.796   5.051   4.829 -5.5927  0.9684 -0.3982
  520MOL0     H70143   8.690   4.884   4.595  0.2721  1.7035 -0.7680
  520MOL0     H70144   8.585   4.929   4.731  0.5948 -0.4406  0.7047
  520MOL0     H70145   8.610   5.172   4.698  1.8589  0.0283  0.2231
  520MOL0     H70146   8.721   5.134   4.568 -0.0676  1.1110  1.2206
  520MOL0     H70147   8.523   5.174   4.452 -2.0300 -0.5537 -1.4361
  520MOL0     H70148   8.551   4.999   4.453  1.0165 -0.5519  1.9993
  520MOL0     H70149   8.383   4.958   4.610 -0.1878  0.7358  2.0020
  520MOL0     H70150   8.322   5.041   4.471  3.1555  1.9067 -1.9062
  520MOL0     H70151   8.206   5.285   4.501  2.3854  3.9709  1.4735
  520MOL0     H70152   8.134   5.495   4.815 -0.4921 -1.6552  1.3369
  520MOL0     H70153   8.051   5.469   4.656  1.2674  1.2991 -0.7554
  520MOL0     H70154   7.912   5.448   4.859 -0.7091 -0.5932  0.7959
  520MOL0     H70155   8.012   5.324   4.924 -0.9426 -1.2878 -0.9628
  520MOL0     H70156   7.986   5.179   4.735  0.2364  0.4290 -2.6728
  520MOL0     H70157   7.858   5.275   4.659  0.9843  0.7235 -0.9684
  520MOL0     H70158   7.727   5.250   4.880  0.2763 -1.8366  1.7721
  520MOL0     H70159   7.867   5.150   4.933 -0.0982 -0.2306  0.4480
  520MOL0     H70160   7.668   4.849   4.677 -2.1401  0.3330  0.2792
  520MOL0     H70161   7.691   4.509   4.816 -0.0079  1.1738  2.2663
  520MOL0     H70162   7.543   4.583   4.757 -0.5454  0.7362  2.0837
  520MOL0     H70163   7.706   4.596   4.672  0.1587  0.4265  0.5508
  520MOL0     H70164   7.865   4.392   5.076  3.3568  2.9994  2.4487
  520MOL0     H70165   7.903   4.163   5.156 -0.0219  1.5741 -1.2452
  520MOL0     H70166   7.949   3.912   5.410 -0.2701  0.2011  0.7373
  520MOL0     H70167   8.003   4.044   5.303 -0.7799  0.4285 -0.7008
  520MOL0     H70168   8.137   4.089   5.499  1.1122  0.8999  2.9900
  520MOL0     H70169   7.993   4.191   5.516 -0.6944 -0.6903  0.8276
  520MOL0     H70170   8.114   4.036   5.717  1.0355 -0.3609 -1.4181
  520MOL0     H70171   8.020   3.917   5.634 -3.5453  0.4050  1.1027
  520MOL0     H70172   7.900   4.151   5.764  0.6858 -0.1363  2.1785
  520MOL0     H70173   7.802   4.015   5.700  0.0709 -1.2986  0.6345
  520MOL0     H70174   7.997   3.888   5.861 -2.0411 -2.4666  1.6774
  520MOL0     H70175   7.821   3.888   5.865 -1.4319  1.6149 -1.7502
  520MOL0     H70176   7.937   3.949   6.075  1.4959  1.9942  1.1859
  520MOL0     H70177   8.001   4.089   6.001  0.1216 -2.0565 -0.0230
  520MOL0     H70178   7.710   4.023   6.030  1.3982 -1.9250 -0.8332
  520MOL0     H70179   7.777   4.181   5.977  2.2491 -0.5234 -0.1674
  520MOL0     H70180   7.720   4.222   6.220 -0.8910  0.2512 -0.4615
  520MOL0     H70181   7.885   4.218   6.205 -0.8593  0.0671  2.2674
  520MOL0     H70182   7.651   4.243   5.500  0.5633  0.7101  1.4436
  520MOL0     H70183   7.574   4.452   5.380  0.2237  0.3242  0.3305
  520MOL0     H70184   7.729   4.824   5.167 -0.5343  0.9305  0.1307
  520MOL0     H70185   7.751   5.036   5.057  1.6123 -1.9129  2.3656
  520MOL0     H70186   9.488   5.074   4.905 -1.2733 -0.0275  0.8860
  520MOL0     H70187   9.700   4.943   4.967  0.6744  0.3453 -0.2445
  520MOL0     H70188  10.144   4.818   4.876  1.2316 -0.6519  1.5931
  520MOL0     H70189  10.351   4.704   4.857 -1.3318  2.2401  0.5290
  520MOL0     H70190  10.462   4.554   4.695 -1.0830 -0.5041 -0.0089
  520MOL0     H70191  10.555   4.504   4.846 -2.1195  3.5695  2.4742
  520MOL0     H70192  10.662   4.386   4.674  0.4047 -2.4955 -3.7300
  520MOL0     H70193  10.523   4.362   4.583 -0.8059 -1.2275  0.5025
  520MOL0     H70194  10.565   4.144   4.674  0.2934 -1.6729  2.6984
  520MOL0     H70195  10.417   4.201   4.756  0.6699 -4.2175  3.4503
  520MOL0     H70196  10.552   4.266   4.960 -0.0438 -1.6767  0.4454
  520MOL0     H70197  10.698   4.207   4.891  0.8405 -0.4278 -0.3713
  520MOL0     H70198  10.480   3.862   4.998  0.4324  1.4692  2.3575
  520MOL0     H70199  10.123   4.340   4.833 -2.7996 -0.3742  0.4300
  520MOL0     H70200   9.916   4.464   4.832 -1.0352  1.4370  1.8243
  521MOL0     O70201   7.416   1.555   2.257 -0.0699 -0.5559 -0.3389
  521MOL0     C70202   7.459   1.446   2.218 -0.0702  0.5204 -0.8674
  521MOL0     O70203   7.398   1.322   2.232 -0.0597  0.0218 -1.1385
  521MOL0     C70204   7.273   1.303   2.287  1.0696  0.0809  0.4322
  521MOL0     C70205   7.248   1.191   2.366 -0.0982  0.2605  0.7006
  521MOL0     C70206   7.129   1.157   2.425 -1.5563 -0.1075  0.5393
  521MOL0     C70207   7.019   1.242   2.411  0.5994 -0.7590 -0.4430
  521MOL0     O70208   6.910   1.229   2.498  0.2653 -0.0775  0.6060
  521MOL0     C70209   6.872   1.345   2.572 -0.3034 -0.5239 -0.5611
  521MOL0     C70210   6.757   1.298   2.667 -0.0701  0.4634  0.0733
  521MOL0     C70211   6.783   1.165   2.745 -0.0907  1.2110 -0.9427
  521MOL0     C70212   6.683   1.152   2.853  0.4652 -0.0788 -0.3195
  521MOL0     C70213   6.681   1.011   2.914  0.3789 -0.5083 -0.9451
  521MOL0     C70214   6.561   0.992   3.012  0.0866 -0.3274  0.3943
  521MOL0     C70215   6.598   1.048   3.163  0.7540 -0.1478  0.5430
  521MOL0     C70216   6.531   0.971   3.280 -0.6830 -0.3105  0.1871
  521MOL0     N70217   6.386   0.998   3.304  0.1003  1.2609 -0.4581
  521MOL0     C70218   6.276   0.921   3.275  0.6876 -0.1983 -0.5336
  521MOL0     C70219   6.162   0.985   3.305 -0.4077 -1.6025 -0.0254
  521MOL0     C70220   6.020   0.946   3.287  0.6020  0.2804  0.7502
  521MOL0     C70221   5.904   1.027   3.351  0.2047  0.3248  1.2273
  521MOL0     C70222   5.771   0.961   3.325 -0.1022 -0.4483  0.5577
  521MOL0     C70223   5.655   1.054   3.356 -0.9483 -0.5001  0.6248
  521MOL0     O70224   5.535   0.974   3.364 -0.0659  0.3558 -0.4673
  521MOL0     C70225   5.421   1.054   3.372  0.1930 -0.6698 -0.0506
  521MOL0     C70226   5.415   1.190   3.358  0.9108 -0.4396  0.8478
  521MOL0     C70227   5.296   1.265   3.354  0.7907 -0.2878 -0.6227
  521MOL0     C70228   5.315   1.409   3.312 -0.3739 -0.0463  0.9168
  521MOL0     C70229   5.170   1.206   3.377  0.2151 -0.1392  0.0347
  521MOL0     C70230   5.044   1.278   3.374  0.5270 -0.6405  0.3704
  521MOL0     O70231   5.018   1.376   3.289  0.0534  0.0570  0.3969
  521MOL0     C70232   4.895   1.430   3.310 -0.4799 -0.3015  0.2005
  521MOL0     C70233   4.879   1.524   3.412  0.0419  0.0806 -0.4066
  521MOL0     C70234   4.758   1.586   3.431  0.1400  0.4236  0.9500
  521MOL0     C70235   4.653   1.553   3.342 -0.9927  0.6646  0.5327
  521MOL0     O70236   4.530   1.608   3.345  0.1741  0.0570 -0.1836
  521MOL0     C70237   4.505   1.718   3.429  0.2936  0.1149 -1.1081
  521MOL0     C70238   4.366   1.771   3.399  0.9105  1.2033 -0.6823
  521MOL0     C70239   4.258   1.719   3.490  0.5960 -0.4383 -0.9575
  521MOL0     C70240   4.245   1.579   3.455 -0.0368  0.1548  0.1108
  521MOL0     C70241   4.118   1.514   3.507 -0.1271 -0.3421  0.4090
  521MOL0     C70242   3.988   1.593   3.488  0.5395 -0.8544 -0.4193
  521MOL0     C70243   3.877   1.499   3.538 -0.7181  0.3859 -0.2530
  521MOL0     C70244   3.732   1.548   3.515 -0.1995  0.7988 -0.6094
  521MOL0    Cl70245   3.715   1.703   3.579 -0.4990  0.0125 -0.1952
  521MOL0     C70246   4.666   1.456   3.235  0.0913 -0.2527 -0.1795
  521MOL0     C70247   4.790   1.398   3.228 -0.1061  0.2997 -0.0033
  521MOL0     O70248   4.967   1.223   3.453  0.4889 -0.0232 -0.0549
  521MOL0     C70249   5.173   1.067   3.407 -0.0947  0.2609  0.3326
  521MOL0     C70250   5.304   0.992   3.413  0.4442  0.0503  0.9525
  521MOL0     N70251   6.208   1.094   3.370  0.8517 -0.4550  0.1401
  521MOL0     N70252   6.337   1.100   3.376 -0.2708 -0.6134 -0.2960
  521MOL0     C70253   7.036   1.355   2.322  0.5431  0.4130  0.0118
  521MOL0     C70254   7.154   1.381   2.257 -0.2119  0.1990  0.0983
  521MOL0     C70255   7.590   1.447   2.156  1.1619 -0.0051 -0.3368
  521MOL0     C70256   7.672   1.331   2.131 -0.0038  0.4520 -0.2196
  521MOL0     C70257   7.808   1.337   2.086 -1.0931 -0.4536  0.3353
  521MOL0     C70258   7.880   1.456   2.099 -0.1430 -0.3771  0.5159
  521MOL0     O70259   8.016   1.432   2.079  0.2456  0.5958 -0.1779
  521MOL0     C70260   8.103   1.545   2.064  0.0709 -0.4136 -0.4650
  521MOL0     C70261   8.228   1.490   1.990 -0.2859 -0.7473 -0.7439
  521MOL0     C70262   8.310   1.389   2.072 -0.0732 -0.1374  0.8454
  521MOL0     C70263   8.390   1.450   2.189  1.6772  0.5602 -0.2443
  521MOL0     C70264   8.493   1.352   2.223  0.5100  0.2740 -1.2260
  521MOL0     C70265   8.559   1.260   2.261 -0.0191 -0.3657 -0.7507
  521MOL0     C70266   7.805   1.571   2.127 -0.4686 -0.8021 -1.0221
  521MOL0     C70267   7.667   1.567   2.139  0.4248  0.1077  0.0700
  521MOL0     H70268   7.339   1.136   2.388 -0.0267 -0.1509 -0.5342
  521MOL0     H70269   7.134   1.066   2.484 -1.7303 -1.4829 -1.4607
  521MOL0     H70270   6.958   1.378   2.631  0.0028  2.4243 -2.4240
  521MOL0     H70271   6.849   1.430   2.507 -0.4145  0.5946  0.9101
  521MOL0     H70272   6.741   1.377   2.740  2.6368  2.8341 -1.6693
  521MOL0     H70273   6.664   1.304   2.609  1.7943  2.9287 -2.9923
  521MOL0     H70274   6.783   1.077   2.681 -3.0697  0.2441  0.2414
  521MOL0     H70275   6.881   1.197   2.783  0.5048  2.7359 -3.4835
  521MOL0     H70276   6.694   1.224   2.935 -0.3993 -0.8116  0.4771
  521MOL0     H70277   6.586   1.168   2.806  0.0494 -0.2880  0.4470
  521MOL0     H70278   6.677   0.942   2.830 -1.4365 -0.9467 -0.5389
  521MOL0     H70279   6.769   0.988   2.974  0.4561  6.0677  2.5010
  521MOL0     H70280   6.467   1.022   2.965  0.4838 -3.0516 -2.4407
  521MOL0     H70281   6.541   0.886   3.032 -1.2130 -0.5806 -1.9380
  521MOL0     H70282   6.704   1.052   3.192  0.0927 -2.2110  3.7496
  521MOL0     H70283   6.556   1.149   3.158 -1.3231 -1.0022  0.1090
  521MOL0     H70284   6.594   0.992   3.366 -1.0820  3.0334 -0.2185
  521MOL0     H70285   6.534   0.864   3.258 -3.2505 -0.5965  0.8710
  521MOL0     H70286   6.269   0.829   3.218 -2.9482 -0.3653 -0.0893
  521MOL0     H70287   5.997   0.929   3.181 -1.0038  1.4448  0.8728
  521MOL0     H70288   6.017   0.845   3.329 -3.0060  0.0328  0.2011
  521MOL0     H70289   5.908   1.119   3.292  0.9995 -2.2205 -3.1580
  521MOL0     H70290   5.913   1.040   3.459 -1.5833  3.2632  1.1115
  521MOL0     H70291   5.768   0.868   3.383  0.1696  0.5612  2.2559
  521MOL0     H70292   5.773   0.945   3.216  3.1443  1.4672  0.2048
  521MOL0     H70293   5.660   1.133   3.279  4.6096 -0.3348  0.8099
  521MOL0     H70294   5.685   1.091   3.454  0.5863  1.2590 -0.4247
  521MOL0     H70295   5.502   1.245   3.321  1.9241 -2.7010 -0.3698
  521MOL0     H70296   5.412   1.448   3.344  0.2203  0.9970 -1.8978
  521MOL0     H70297   5.309   1.416   3.203  0.4525 -0.3224  0.8460
  521MOL0     H70298   5.235   1.471   3.354  0.3778  0.6642  1.3396
  521MOL0     H70299   4.962   1.550   3.477 -0.4447 -0.4946  0.4647
  521MOL0     H70300   4.749   1.655   3.515 -0.0258 -0.8394  2.0054
  521MOL0     H70301   4.511   1.692   3.535  4.9156  1.4245 -0.8608
  521MOL0     H70302   4.586   1.790   3.416  1.9402 -1.5934 -0.6856
  521MOL0     H70303   4.364   1.879   3.415 -1.1686  0.8558  2.0860
  521MOL0     H70304   4.345   1.753   3.293 -2.8096  0.7300  0.0149
  521MOL0     H70305   4.171   1.782   3.467  1.4599  1.8291  1.5371
  521MOL0     H70306   4.273   1.751   3.593  0.0554 -0.0276 -0.9981
  521MOL0     H70307   4.263   1.558   3.350  5.0547  0.5894  0.6581
  521MOL0     H70308   4.328   1.528   3.505  1.9676  2.2339 -0.9398
  521MOL0     H70309   4.127   1.481   3.611  0.3630 -0.1273  0.4380
  521MOL0     H70310   4.099   1.422   3.451  0.2462  0.3886 -0.9680
  521MOL0     H70311   3.983   1.687   3.544  1.6738  0.2205 -2.0646
  521MOL0     H70312   3.969   1.616   3.383  0.2763  0.2937 -0.1375
  521MOL0     H70313   3.885   1.491   3.647 -2.5047  0.8159 -0.0666
  521MOL0     H70314   3.890   1.393   3.516 -1.7291  0.3063 -0.4885
  521MOL0     H70315   3.650   1.489   3.556  0.2941  0.2808 -0.3550
  521MOL0     H70316   3.713   1.567   3.409  0.1077 -0.3149 -0.8806
  521MOL0     H70317   4.589   1.424   3.166  1.6313 -4.3689 -0.2753
  521MOL0     H70318   4.817   1.318   3.161 -0.8231 -0.3706  0.4948
  521MOL0     H70319   5.084   1.006   3.414  1.7208 -2.5696  0.4365
  521MOL0     H70320   5.307   0.884   3.429  2.9429 -0.4953 -2.1248
  521MOL0     H70321   6.961   1.431   2.309 -2.8577 -1.7965  4.2076
  521MOL0     H70322   7.169   1.475   2.204 -1.8864  0.2037 -0.4264
  521MOL0     H70323   7.637   1.228   2.135  0.2904  0.3102  4.0596
  521MOL0     H70324   7.867   1.253   2.051 -0.5994  0.0671 -0.1009
  521MOL0     H70325   8.055   1.629   2.013 -1.9047  0.2512  2.2845
  521MOL0     H70326   8.135   1.583   2.161  2.6978 -4.6205  0.5849
  521MOL0     H70327   8.299   1.573   1.989  1.0508 -1.6677  2.5384
  521MOL0     H70328   8.206   1.450   1.891 -4.1421  0.0198 -0.3259
  521MOL0     H70329   8.373   1.350   1.991 -1.0045  2.3956 -1.2488
  521MOL0     H70330   8.250   1.312   2.122 -1.9754  2.3489  2.6339
  521MOL0     H70331   8.318   1.458   2.271  1.6974  0.8394 -0.2513
  521MOL0     H70332   8.432   1.548   2.164  1.5206  0.1068 -2.5241
  521MOL0     H70333   8.615   1.172   2.286 -0.5791  0.1004  2.6125
  521MOL0     H70334   7.860   1.664   2.132 -1.1194 -0.4375  3.1170
  521MOL0     H70335   7.614   1.659   2.163 -0.9420 -0.9007  1.1209
  522MOL0     O70336   1.155   4.647  10.388  0.1948 -0.3894  0.9916
  522MOL0     C70337   1.102   4.534  10.373 -1.0420 -0.6871 -0.4549
  522MOL0     O70338   0.967   4.504  10.368 -0.8450  1.1890  0.2445
  522MOL0     C70339   0.890   4.598  10.324  0.6155 -0.3140  0.4689
  522MOL0     C70340   0.769   4.605  10.388 -0.1479  0.8090  1.1062
  522MOL0     C70341   0.679   4.706  10.357  0.5736  0.5112 -0.0598
  522MOL0     C70342   0.700   4.801  10.263 -1.0610  0.7209  0.1421
  522MOL0     O70343   0.593   4.884  10.245  0.0577 -0.3162 -0.6546
  522MOL0     C70344   0.613   4.995  10.156 -0.4581 -0.7914 -0.7843
  522MOL0     C70345   0.498   5.096  10.144  0.1683  0.4305  0.0160
  522MOL0     C70346   0.409   5.081  10.024 -0.3669  0.3316 -0.2841
  522MOL0     C70347   0.302   5.198  10.024 -0.7254 -0.2490  0.2560
  522MOL0     C70348   0.182   5.151   9.940 -0.3648  0.2350 -0.4592
  522MOL0     C70349   0.064   5.249   9.953  0.9136  0.2311 -0.1450
  522MOL0     C70350  -0.055   5.182   9.872  0.2774 -0.4000 -0.8289
  522MOL0     C70351  -0.172   5.280   9.859 -0.5743 -0.6681  0.8406
  522MOL0     N70352  -0.282   5.204   9.797  0.4387 -0.2002  0.2463
  522MOL0     C70353  -0.394   5.171   9.865  0.3222 -0.2877  0.1609
  522MOL0     C70354  -0.467   5.107   9.774  0.0645  0.0468  0.4654
  522MOL0     C70355  -0.613   5.084   9.787 -0.1665 -0.1000 -1.3647
  522MOL0     C70356  -0.654   4.941   9.741  0.5561  0.4493 -0.3096
  522MOL0     C70357  -0.807   4.926   9.719 -0.5809 -0.0048  0.0111
  522MOL0     C70358  -0.897   4.907   9.838 -0.0717 -0.5115 -0.1316
  522MOL0     O70359  -0.887   4.771   9.881  0.2077  0.4633  0.1913
  522MOL0     C70360  -0.959   4.734   9.995  0.0096 -0.7527 -0.5763
  522MOL0     C70361  -1.047   4.817  10.068 -0.4225  0.1021  0.7563
  522MOL0     C70362  -1.125   4.772  10.172  0.2129  1.2527  0.1867
  522MOL0     C70363  -1.199   4.876  10.257 -0.3383  0.1255  0.4927
  522MOL0     C70364  -1.129   4.628  10.192 -0.8332 -0.2390 -0.1562
  522MOL0     C70365  -1.185   4.571  10.307  0.1928 -0.6665 -0.3426
  522MOL0     O70366  -1.233   4.446  10.281 -0.3460 -0.3512  0.0849
  522MOL0     C70367  -1.309   4.390  10.386 -0.4478 -1.0703 -0.3293
  522MOL0     C70368  -1.244   4.321  10.479 -0.7729 -1.1471 -0.3988
  522MOL0     C70369  -1.312   4.268  10.591  0.0435  0.1301 -0.9517
  522MOL0     C70370  -1.453   4.269  10.595  0.5394  0.0535  0.1436
  522MOL0     O70371  -1.512   4.205  10.705 -0.8184 -0.1054  0.6617
  522MOL0     C70372  -1.654   4.200  10.722 -0.1838 -0.2652  0.2582
  522MOL0     C70373  -1.688   4.107  10.839  0.1821  0.6358 -0.2692
  522MOL0     C70374  -1.838   4.116  10.888 -0.3612  0.9614 -0.2014
  522MOL0     C70375  -1.863   4.046  11.020  0.3119 -1.1866 -0.1065
  522MOL0     C70376  -1.960   3.931  10.991 -0.0945 -0.5440  0.4378
  522MOL0     C70377  -1.986   3.842  11.107  0.3188  0.3260  0.1050
  522MOL0     C70378  -1.866   3.762  11.160 -0.1343  0.3629 -1.4967
  522MOL0     C70379  -1.919   3.639  11.234 -0.6130  0.5798 -0.0973
  522MOL0    Cl70380  -2.017   3.678  11.368  0.2031 -0.0030  0.2706
  522MOL0     C70381  -1.529   4.313  10.480 -0.3417 -0.5388 -1.0404
  522MOL0     C70382  -1.453   4.383  10.378  0.2786 -0.4215 -0.0158
  522MOL0     O70383  -1.197   4.635  10.408 -0.7174  0.0148 -0.2347
  522MOL0     C70384  -1.041   4.545  10.122 -0.5888  1.1594  0.2771
  522MOL0     C70385  -0.964   4.597  10.014 -0.6043 -0.0106 -0.4594
  522MOL0     N70386  -0.395   5.089   9.659  0.0775 -0.2109 -0.5856
  522MOL0     N70387  -0.285   5.137   9.678 -0.8833 -0.7783  0.7655
  522MOL0     C70388   0.820   4.784  10.195 -0.4030 -0.3693 -0.2139
  522MOL0     C70389   0.916   4.687  10.217  0.5010  0.0498 -0.4529
  522MOL0     C70390   1.198   4.421  10.371 -0.6371 -0.5256  0.0386
  522MOL0     C70391   1.160   4.287  10.339  0.2683  0.0097 -0.3150
  522MOL0     C70392   1.258   4.194  10.328  0.2738  0.5902 -0.3919
  522MOL0     C70393   1.394   4.211  10.352 -0.1501 -0.5121  0.4125
  522MOL0     O70394   1.478   4.110  10.330 -0.3585 -0.5897  0.4633
  522MOL0     C70395   1.619   4.118  10.356  0.3995 -0.6990  0.1335
  522MOL0     C70396   1.694   4.065  10.235 -0.0966  0.6511 -1.0452
  522MOL0     C70397   1.836   4.024  10.282 -0.6882  0.6913  0.2397
  522MOL0     C70398   1.910   3.972  10.157 -0.1838 -0.9126  0.3361
  522MOL0     C70399   2.046   3.927  10.188 -0.4800 -0.3768  0.1295
  522MOL0     C70400   2.156   3.876  10.200  0.4816 -0.4603 -0.2509
  522MOL0     C70401   1.435   4.341  10.394  0.6667  0.3418 -0.1927
  522MOL0     C70402   1.332   4.441  10.400 -0.1268  0.2846 -0.8176
  522MOL0     H70403   0.749   4.528  10.462  3.0668 -1.3600 -0.0585
  522MOL0     H70404   0.589   4.707  10.418  0.3756  1.7284 -0.3543
  522MOL0     H70405   0.700   5.054  10.187 -2.3511  0.0662  3.7814
  522MOL0     H70406   0.629   4.969  10.051 -4.5278  0.5311 -1.9299
  522MOL0     H70407   0.434   5.085  10.231  0.3814  3.7900  0.7572
  522MOL0     H70408   0.542   5.195  10.157  2.5003 -0.8469  2.9608
  522MOL0     H70409   0.452   5.071   9.924  1.1284  1.3457  0.2258
  522MOL0     H70410   0.356   4.986  10.020 -0.6026  0.4861 -1.0091
  522MOL0     H70411   0.270   5.218  10.127  1.4771  1.8877  0.6158
  522MOL0     H70412   0.337   5.289   9.976 -2.3739  0.6315  0.6258
  522MOL0     H70413   0.216   5.154   9.836 -2.1071  1.2831 -1.0460
  522MOL0     H70414   0.151   5.048   9.963  0.4718 -0.2873 -1.5894
  522MOL0     H70415   0.021   5.249  10.053 -1.9438  0.4206 -1.2544
  522MOL0     H70416   0.107   5.346   9.928  3.9463 -0.1737  2.9128
  522MOL0     H70417  -0.020   5.154   9.772 -0.3684  1.2907 -1.5788
  522MOL0     H70418  -0.088   5.096   9.930  1.3010 -2.0373 -2.5789
  522MOL0     H70419  -0.151   5.351   9.779 -3.5872 -0.8913 -0.2813
  522MOL0     H70420  -0.201   5.322   9.956  1.0458 -1.0884  1.5496
  522MOL0     H70421  -0.429   5.185   9.967  0.4149 -2.9613  0.6270
  522MOL0     H70422  -0.638   5.104   9.891  2.1316  0.6166 -0.9056
  522MOL0     H70423  -0.671   5.158   9.729 -3.4238 -0.9016  0.6183
  522MOL0     H70424  -0.630   4.869   9.820 -3.3280 -0.1746  0.5063
  522MOL0     H70425  -0.606   4.903   9.651  1.9552  1.5710 -0.0641
  522MOL0     H70426  -0.815   4.837   9.655  2.8001 -0.2898 -0.2239
  522MOL0     H70427  -0.851   5.012   9.669 -0.6537  0.1387  0.3240
  522MOL0     H70428  -1.005   4.913   9.819  0.1552  5.1482 -1.4715
  522MOL0     H70429  -0.866   4.975   9.917 -2.1392  0.3475  0.0052
  522MOL0     H70430  -1.033   4.925  10.060  1.2845 -0.0212  1.6379
  522MOL0     H70431  -1.163   4.886  10.360  0.4142  0.2553  0.2223
  522MOL0     H70432  -1.202   4.976  10.212 -1.0229 -1.2729 -2.8619
  522MOL0     H70433  -1.304   4.847  10.259 -0.7601  1.3974 -0.7734
  522MOL0     H70434  -1.138   4.343  10.485 -1.4674  2.3005  2.1386
  522MOL0     H70435  -1.261   4.218  10.673 -1.1820  1.4068  0.6572
  522MOL0     H70436  -1.683   4.302  10.748  3.7335  1.0791  0.0488
  522MOL0     H70437  -1.705   4.157  10.635 -2.0890  2.2557  0.0358
  522MOL0     H70438  -1.659   4.003  10.822  0.1137  0.9935 -2.9853
  522MOL0     H70439  -1.628   4.131  10.927 -1.5170  1.0660  0.8283
  522MOL0     H70440  -1.903   4.076  10.809 -1.1714  0.2546  0.7830
  522MOL0     H70441  -1.861   4.222  10.901 -0.3469  0.7984  1.4812
  522MOL0     H70442  -1.773   4.011  11.072 -2.0782 -0.2803  5.3136
  522MOL0     H70443  -1.917   4.116  11.084 -0.2488 -1.3080 -0.4387
  522MOL0     H70444  -1.908   3.873  10.915 -0.4870 -0.3340  0.0003
  522MOL0     H70445  -2.058   3.954  10.948  0.6645 -2.1155 -2.3654
  522MOL0     H70446  -2.037   3.901  11.184  0.6253 -0.6470  1.0936
  522MOL0     H70447  -2.064   3.770  11.080  1.3040 -0.3418 -1.0493
  522MOL0     H70448  -1.814   3.823  11.234 -1.9240  0.4622 -0.2593
  522MOL0     H70449  -1.784   3.737  11.092  3.3329  3.4255  1.1794
  522MOL0     H70450  -1.836   3.581  11.274 -1.0386 -0.2848 -0.4508
  522MOL0     H70451  -1.974   3.580  11.160 -1.9280  2.1153 -0.4105
  522MOL0     H70452  -1.637   4.318  10.473 -0.6582 -0.4811  2.2454
  522MOL0     H70453  -1.501   4.446  10.305  1.1740  1.7486  1.1675
  522MOL0     H70454  -1.033   4.440  10.146 -2.2296  1.5559  2.8702
  522MOL0     H70455  -0.899   4.536   9.952 -0.4914  0.9695 -1.3276
  522MOL0     H70456   0.835   4.852  10.112  2.5273 -1.7509 -0.9558
  522MOL0     H70457   1.005   4.686  10.154  0.3394 -0.0543 -0.6788
  522MOL0     H70458   1.056   4.274  10.309 -0.5709  0.7679  2.0284
  522MOL0     H70459   1.237   4.096  10.287  0.6036  0.6912 -0.8184
  522MOL0     H70460   1.654   4.220  10.375 -1.7020  0.2017 -0.4671
  522MOL0     H70461   1.635   4.062  10.449 -3.2930  1.5351  2.4100
  522MOL0     H70462   1.695   4.146  10.162 -1.1391  1.6124 -0.0317
  522MOL0     H70463   1.645   3.974  10.199 -1.9753  0.4671  1.6801
  522MOL0     H70464   1.829   3.946  10.359 -2.5898  0.6474  0.0624
  522MOL0     H70465   1.898   4.108  10.314 -0.0053 -0.4702  2.1612
  522MOL0     H70466   1.912   4.055  10.085  1.6897 -0.7279  0.5574
  522MOL0     H70467   1.848   3.895  10.111 -1.4279 -0.1571  0.6960
  522MOL0     H70468   2.254   3.832  10.201 -0.3550 -2.3833 -0.0698
  522MOL0     H70469   1.538   4.375  10.407  0.4912  0.9399 -0.3206
  522MOL0     H70470   1.371   4.537  10.434 -1.0691  0.3835  0.0241
  523MOL0     O70471   3.986   9.208   7.675  0.7385 -0.1411 -0.2424
  523MOL0     C70472   4.071   9.232   7.592 -0.2099 -0.6080  0.8510
  523MOL0     O70473   4.069   9.341   7.500  0.0888  0.3612 -0.9474
  523MOL0     C70474   3.972   9.441   7.533  0.4886 -0.0583  0.1844
  523MOL0     C70475   3.852   9.431   7.462  0.4712 -0.3889 -0.2711
  523MOL0     C70476   3.753   9.529   7.479  0.2672 -0.4894 -0.7471
  523MOL0     C70477   3.759   9.635   7.578 -0.1046 -0.1625  0.1134
  523MOL0     O70478   3.664   9.728   7.588  0.8139 -0.2027 -0.7072
  523MOL0     C70479   3.549   9.746   7.505  0.0759  1.0574  0.0258
  523MOL0     C70480   3.465   9.864   7.553  0.1265 -0.1270 -0.2445
  523MOL0     C70481   3.333   9.894   7.494 -0.3372  0.9021  0.7132
  523MOL0     C70482   3.341   9.946   7.341 -0.2023 -0.0600  0.0527
  523MOL0     C70483   3.206   9.977   7.280  0.0658 -0.0683  0.1899
  523MOL0     C70484   3.145  10.087   7.350 -0.2268 -0.1826 -0.0200
  523MOL0     C70485   3.025  10.140   7.261  0.0370 -0.6482 -0.5837
  523MOL0     C70486   2.896  10.052   7.260 -0.4003 -0.9171  0.2242
  523MOL0     N70487   2.809  10.084   7.149  0.8903  0.2864 -0.0575
  523MOL0     C70488   2.735  10.198   7.135  0.1578  0.2207 -0.3869
  523MOL0     C70489   2.651  10.181   7.029  0.1189  0.2057  0.5981
  523MOL0     C70490   2.565  10.297   6.982  1.0550  0.1524 -0.0093
  523MOL0     C70491   2.584  10.346   6.836 -0.3089  0.4162 -0.3587
  523MOL0     C70492   2.547  10.238   6.738  0.2133  0.2042  0.5481
  523MOL0     C70493   2.591  10.281   6.597  0.6935  0.2360 -0.1338
  523MOL0     O70494   2.531  10.403   6.557 -0.8104  0.9197  0.4187
  523MOL0     C70495   2.399  10.384   6.518 -0.1903 -0.0731  1.0838
  523MOL0     C70496   2.390  10.339   6.385 -0.0954 -0.4567  0.9483
  523MOL0     C70497   2.261  10.353   6.319 -0.2662 -0.1321 -0.9845
  523MOL0     C70498   2.260  10.331   6.168 -0.4753  0.3897 -0.3072
  523MOL0     C70499   2.150  10.381   6.397  1.3076 -0.0535 -0.6279
  523MOL0     C70500   2.014  10.367   6.347 -0.0701 -0.8871  0.0066
  523MOL0     O70501   1.916  10.430   6.414  0.1618  0.2372 -0.3165
  523MOL0     C70502   1.789  10.424   6.358 -0.3387 -0.4540 -1.0242
  523MOL0     C70503   1.756  10.448   6.226  0.8715 -0.8077 -0.0673
  523MOL0     C70504   1.627  10.445   6.177 -0.1874 -0.3456 -0.2980
  523MOL0     C70505   1.523  10.412   6.271  0.6021 -0.5316  0.1367
  523MOL0     O70506   1.388  10.427   6.233  0.4590 -0.6980  0.6383
  523MOL0     C70507   1.325  10.558   6.246  0.3359  0.1358  0.1994
  523MOL0     C70508   1.344  10.634   6.117  0.1908  0.2887  1.3186
  523MOL0     C70509   1.240  10.589   6.014 -0.8120 -0.0463 -1.0115
  523MOL0     C70510   1.252  10.676   5.887  0.4488  0.3313  0.0847
  523MOL0     C70511   1.134  10.653   5.787  0.0115 -0.1095  0.3324
  523MOL0     C70512   1.133  10.515   5.728  0.1782 -0.0032  0.4261
  523MOL0     C70513   1.031  10.506   5.617  0.2538  0.1640  0.3780
  523MOL0     C70514   0.989  10.361   5.582 -0.5809  0.7500 -0.5627
  523MOL0    Cl70515   1.119  10.232   5.601  0.3910  0.2634 -0.1826
  523MOL0     C70516   1.549  10.393   6.406 -0.2690 -0.0851  0.1498
  523MOL0     C70517   1.688  10.390   6.444  0.3021  0.0226  0.3748
  523MOL0     O70518   1.997  10.273   6.269  0.5587  0.2691  0.0739
  523MOL0     C70519   2.174  10.417   6.536 -0.1581  0.3272 -0.5092
  523MOL0     C70520   2.296  10.416   6.599  0.1524  0.6103 -0.3302
  523MOL0     N70521   2.680  10.059   6.980  0.2163 -0.2717  0.1809
  523MOL0     N70522   2.773  10.003   7.049  0.0130  0.4235  0.7157
  523MOL0     C70523   3.890   9.639   7.641  0.5982 -0.7611  0.0346
  523MOL0     C70524   3.990   9.544   7.621  0.3828 -1.0672 -0.6516
  523MOL0     C70525   4.188   9.135   7.583 -0.4089  0.6230  0.7826
  523MOL0     C70526   4.304   9.171   7.520 -0.2517 -0.0318 -0.4082
  523MOL0     C70527   4.415   9.086   7.537 -0.6588  0.3050  1.4729
  523MOL0     C70528   4.415   8.970   7.611  0.3856 -0.1926 -0.1258
  523MOL0     O70529   4.526   8.890   7.626  0.4664  0.1690  0.1204
  523MOL0     C70530   4.644   8.894   7.545  0.1635 -0.0160 -1.0010
  523MOL0     C70531   4.750   8.784   7.588 -0.7020 -0.0382  0.0602
  523MOL0     C70532   4.889   8.808   7.519  0.2546  0.5018 -0.2860
  523MOL0     C70533   4.968   8.677   7.510 -0.1998  0.0064 -0.9406
  523MOL0     C70534   5.049   8.641   7.633 -0.8233  0.2304 -0.4890
  523MOL0     C70535   5.136   8.617   7.710  1.8938 -0.0534 -0.5403
  523MOL0     C70536   4.297   8.930   7.672  0.3533 -0.7302  0.7702
  523MOL0     C70537   4.185   9.014   7.661 -0.8069  0.1549 -0.4244
  523MOL0     H70538   3.839   9.351   7.391  1.7724  0.5873 -1.6700
  523MOL0     H70539   3.660   9.531   7.421  0.3664 -1.8836 -0.9860
  523MOL0     H70540   3.572   9.761   7.399 -0.4758 -0.5886 -0.3544
  523MOL0     H70541   3.488   9.655   7.512 -0.8601  1.5150 -1.6656
  523MOL0     H70542   3.445   9.850   7.660  0.6800 -0.1542 -0.1399
  523MOL0     H70543   3.528   9.953   7.542  2.2277 -1.5814 -0.5917
  523MOL0     H70544   3.274   9.802   7.496  0.9840  0.0161  0.6645
  523MOL0     H70545   3.292   9.972   7.557 -1.7689 -0.5453  1.6499
  523MOL0     H70546   3.412  10.029   7.342 -0.5048  0.2157 -0.6719
  523MOL0     H70547   3.382   9.871   7.273  1.2760  0.4614  0.3410
  523MOL0     H70548   3.213   9.990   7.172 -1.7466  1.3792  0.2067
  523MOL0     H70549   3.146   9.886   7.292  1.4867 -1.2908 -1.2881
  523MOL0     H70550   3.111  10.055   7.449 -0.9784 -0.8307 -0.4756
  523MOL0     H70551   3.223  10.163   7.361  1.5519 -1.7606 -1.0703
  523MOL0     H70552   3.006  10.245   7.287 -1.6651 -0.5578 -1.9860
  523MOL0     H70553   3.060  10.146   7.157  3.5929  0.5248  0.5129
  523MOL0     H70554   2.857  10.085   7.356  0.2468  2.3986 -0.5381
  523MOL0     H70555   2.914   9.944   7.260 -0.4632 -0.9526 -1.4681
  523MOL0     H70556   2.734  10.275   7.211  0.7430 -1.6969  1.6819
  523MOL0     H70557   2.463  10.256   6.980  0.8726  0.5644  0.4869
  523MOL0     H70558   2.585  10.380   7.052  3.3436  0.4725 -0.9614
  523MOL0     H70559   2.692  10.364   6.833  0.2667 -2.0813  1.5107
  523MOL0     H70560   2.532  10.440   6.817  0.2792  0.3122 -2.9371
  523MOL0     H70561   2.441  10.220   6.721  1.0677 -0.9018 -7.4189
  523MOL0     H70562   2.601  10.147   6.765  1.5529  0.5894 -0.6886
  523MOL0     H70563   2.574  10.188   6.541  0.2689 -0.1072  0.5570
  523MOL0     H70564   2.698  10.303   6.606  0.0901  3.7735 -0.2238
  523MOL0     H70565   2.476  10.308   6.327 -0.7554 -1.7360  0.6227
  523MOL0     H70566   2.217  10.234   6.146  0.4163  0.2723 -1.6273
  523MOL0     H70567   2.189  10.404   6.128 -0.8633  0.1376 -0.0854
  523MOL0     H70568   2.360  10.337   6.123 -0.8558  2.4500 -1.0185
  523MOL0     H70569   1.827  10.468   6.146 -1.8196  2.1983 -1.9218
  523MOL0     H70570   1.599  10.472   6.076  1.3682  0.2356 -0.5963
  523MOL0     H70571   1.220  10.553   6.274  0.5187  0.9959  1.0666
  523MOL0     H70572   1.372  10.620   6.323 -0.3818  2.8880 -1.4421
  523MOL0     H70573   1.310  10.737   6.131 -0.8206  0.3357 -0.9928
  523MOL0     H70574   1.444  10.630   6.072  0.4419  0.7850  1.8246
  523MOL0     H70575   1.140  10.613   6.050  0.4273  1.2779  1.7965
  523MOL0     H70576   1.257  10.486   5.981 -0.5562  0.5082 -2.7267
  523MOL0     H70577   1.238  10.777   5.927  1.0739  0.2428  0.5396
  523MOL0     H70578   1.346  10.663   5.832 -0.6309 -0.4250 -1.6724
  523MOL0     H70579   1.126  10.736   5.717  1.1191 -0.6690 -0.4828
  523MOL0     H70580   1.039  10.652   5.842 -0.5930 -3.4613 -0.5026
  523MOL0     H70581   1.228  10.489   5.681 -0.8477 -0.7449 -1.3425
  523MOL0     H70582   1.113  10.438   5.804  5.2930 -1.6649  0.4825
  523MOL0     H70583   1.070  10.545   5.523 -0.9631  1.6809  0.4684
  523MOL0     H70584   0.944  10.569   5.637  1.0491  1.0861  1.0432
  523MOL0     H70585   0.949  10.357   5.480 -0.8185  1.2608 -0.4930
  523MOL0     H70586   0.903  10.331   5.643 -0.4601 -1.9472 -1.5537
  523MOL0     H70587   1.456  10.387   6.463  0.3021  2.1216  1.4568
  523MOL0     H70588   1.705  10.378   6.550 -1.8338  1.4889  0.9592
  523MOL0     H70589   2.088  10.434   6.600 -0.0763  1.6907 -0.7236
  523MOL0     H70590   2.310  10.451   6.701  2.2518  0.4943 -0.5228
  523MOL0     H70591   3.907   9.723   7.708  0.8331 -2.3968  2.1304
  523MOL0     H70592   4.078   9.542   7.685 -1.3003  1.8057  2.0546
  523MOL0     H70593   4.314   9.258   7.456 -0.4856  0.2908 -0.0099
  523MOL0     H70594   4.505   9.098   7.478 -2.9049  0.6238 -2.2178
  523MOL0     H70595   4.611   8.901   7.441 -2.9081  1.7210 -0.0248
  523MOL0     H70596   4.694   8.989   7.565 -1.1782  0.2282  1.5401
  523MOL0     H70597   4.707   8.686   7.565  1.7117 -1.0385 -0.4484
  523MOL0     H70598   4.775   8.802   7.692  2.0103  0.0038 -0.5267
  523MOL0     H70599   4.941   8.879   7.584  0.9493 -1.1795  1.0939
  523MOL0     H70600   4.868   8.845   7.418  2.4153 -0.4419 -1.1385
  523MOL0     H70601   5.046   8.680   7.433  2.1871 -2.1612  1.1814
  523MOL0     H70602   4.907   8.589   7.492 -1.5338  1.0660 -1.7988
  523MOL0     H70603   5.218   8.601   7.776  0.5480  2.2059  1.8807
  523MOL0     H70604   4.280   8.835   7.720 -2.7890 -2.1366 -2.6680
  523MOL0     H70605   4.102   8.969   7.715 -0.1938 -0.4436  0.0386
  524MOL0     O70606   8.149   5.344  10.646 -0.2827 -0.3784 -1.1143
  524MOL0     C70607   8.247   5.288  10.696  0.2710  0.2164  0.9521
  524MOL0     O70608   8.262   5.234  10.812  0.7807  0.1014 -0.1807
  524MOL0     C70609   8.155   5.231  10.904  0.0182 -0.6863  0.8976
  524MOL0     C70610   8.200   5.227  11.036 -0.2713 -0.0446 -0.6732
  524MOL0     C70611   8.119   5.225  11.148  0.2022 -0.5856  0.0710
  524MOL0     C70612   7.982   5.218  11.119 -0.0925 -0.4292 -0.1787
  524MOL0     O70613   7.902   5.227  11.226 -0.2439  0.2332  0.0990
  524MOL0     C70614   7.764   5.183  11.221  1.1992 -0.9440  0.1558
  524MOL0     C70615   7.709   5.121  11.347  0.3199  0.3828 -0.4618
  524MOL0     C70616   7.574   5.060  11.323 -0.1612 -0.2887 -0.5061
  524MOL0     C70617   7.510   4.999  11.459  0.4556 -0.2099  0.7302
  524MOL0     C70618   7.403   4.898  11.409  0.5920 -0.3787 -0.4714
  524MOL0     C70619   7.472   4.774  11.346 -0.4816 -0.4228 -0.6717
  524MOL0     C70620   7.376   4.663  11.335  0.8817 -0.7501 -1.0365
  524MOL0     C70621   7.399   4.561  11.216 -0.2921 -0.4553 -0.8971
  524MOL0     N70622   7.295   4.455  11.202  0.1518  0.2864 -0.1599
  524MOL0     C70623   7.272   4.390  11.086 -0.7948 -0.0868 -0.2133
  524MOL0     C70624   7.184   4.292  11.121  0.1647 -0.8455 -0.7839
  524MOL0     C70625   7.127   4.186  11.041 -0.0913  0.0216 -0.1931
  524MOL0     C70626   7.214   4.089  10.959 -0.4884 -0.1442 -0.9548
  524MOL0     C70627   7.136   4.028  10.852 -0.4048  0.7434 -0.1397
  524MOL0     C70628   7.221   3.919  10.786 -0.3320 -0.5938 -0.2710
  524MOL0     O70629   7.156   3.828  10.696  0.1292 -0.1878 -0.3074
  524MOL0     C70630   7.170   3.852  10.566 -0.2460 -0.5846  0.1933
  524MOL0     C70631   7.073   3.921  10.489 -0.5487 -0.3457  0.5358
  524MOL0     C70632   7.078   3.926  10.355  0.4968 -0.7170  0.7169
  524MOL0     C70633   6.963   4.009  10.286 -0.2749  0.8137 -0.5868
  524MOL0     C70634   7.175   3.856  10.285 -0.4656  0.8338  0.3610
  524MOL0     C70635   7.193   3.851  10.134 -0.1036 -0.2105  0.2112
  524MOL0     O70636   7.261   3.746  10.076  0.2036  0.3662 -0.2325
  524MOL0     C70637   7.243   3.731   9.938 -0.6385  0.6330 -0.5760
  524MOL0     C70638   7.161   3.629   9.882  0.3942 -0.0295  0.5464
  524MOL0     C70639   7.155   3.623   9.738 -0.0809  0.4571  0.3418
  524MOL0     C70640   7.216   3.717   9.658  0.4751 -0.2028 -0.1291
  524MOL0     O70641   7.205   3.702   9.519 -0.4141 -0.1442  0.0203
  524MOL0     C70642   7.320   3.659   9.450 -0.5817  0.1294 -0.4596
  524MOL0     C70643   7.373   3.520   9.508  0.0187 -1.2597 -0.0243
  524MOL0     C70644   7.285   3.398   9.502  0.2937  0.2814  0.0532
  524MOL0     C70645   7.324   3.302   9.608 -0.2090  1.0267 -0.5212
  524MOL0     C70646   7.243   3.179   9.626  0.8774 -0.2422 -0.2306
  524MOL0     C70647   7.101   3.212   9.671  0.5016 -0.1639  0.4310
  524MOL0     C70648   7.026   3.093   9.727  0.0004 -0.4914  0.2492
  524MOL0     C70649   6.958   3.012   9.619 -0.3770 -0.5791  0.0285
  524MOL0    Cl70650   6.815   3.086   9.546 -0.3645  0.0765  0.2094
  524MOL0     C70651   7.279   3.827   9.711 -0.2845  0.1949  0.3333
  524MOL0     C70652   7.303   3.821   9.850  0.0806  0.1374  0.6192
  524MOL0     O70653   7.150   3.951  10.078 -0.4770  0.2326 -0.4469
  524MOL0     C70654   7.267   3.772  10.356 -0.0333 -0.6292 -0.8427
  524MOL0     C70655   7.266   3.782  10.498 -0.9093 -0.1845  0.1543
  524MOL0     N70656   7.159   4.308  11.260  0.1022 -0.1974  0.1574
  524MOL0     N70657   7.223   4.409  11.305 -0.4830  0.6773  0.0352
  524MOL0     C70658   7.940   5.230  10.995  0.4989  0.7559  0.8651
  524MOL0     C70659   8.020   5.232  10.876  0.3859 -0.4962  0.5268
  524MOL0     C70660   8.368   5.281  10.597 -0.1786 -0.0546 -0.9724
  524MOL0     C70661   8.383   5.372  10.488 -0.4663  0.1819 -0.2835
  524MOL0     C70662   8.499   5.354  10.415  0.8792 -0.3101 -0.0521
  524MOL0     C70663   8.594   5.256  10.429  0.3521  0.7221 -1.5867
  524MOL0     O70664   8.711   5.223  10.369  0.2853  0.5228  0.9281
  524MOL0     C70665   8.774   5.323  10.289  0.3676 -0.1779 -0.1944
  524MOL0     C70666   8.720   5.311  10.147 -0.1374  0.5843  0.1072
  524MOL0     C70667   8.769   5.178  10.098 -0.4202  0.5393 -0.7065
  524MOL0     C70668   8.916   5.178  10.062 -0.4587  1.2480 -0.5138
  524MOL0     C70669   8.955   5.078   9.963  0.6042  0.2333  0.4296
  524MOL0     C70670   8.976   5.015   9.864  0.0677  0.9069  0.2474
  524MOL0     C70671   8.575   5.167  10.539 -0.3516  0.6895  0.5595
  524MOL0     C70672   8.455   5.171  10.615 -1.2017  0.1979  0.8769
  524MOL0     H70673   8.304   5.204  11.057  0.0556  1.1599 -0.9209
  524MOL0     H70674   8.156   5.225  11.250  1.6044  0.1915 -0.4097
  524MOL0     H70675   7.700   5.269  11.199  0.3771 -1.4776  0.4067
  524MOL0     H70676   7.745   5.120  11.134 -2.3501  1.5833 -1.1573
  524MOL0     H70677   7.769   5.040  11.390 -0.1902  1.0589  1.6866
  524MOL0     H70678   7.693   5.193  11.428 -1.9343 -0.8587  0.2907
  524MOL0     H70679   7.506   5.139  11.289  1.9245  2.7356  1.7467
  524MOL0     H70680   7.573   4.985  11.244 -2.3624  0.6814 -1.4850
  524MOL0     H70681   7.577   4.931  11.512 -0.0061 -0.9049  0.4489
  524MOL0     H70682   7.473   5.071  11.532 -0.4202 -2.4759  2.6365
  524MOL0     H70683   7.341   4.869  11.495 -0.4417 -0.2820 -1.1602
  524MOL0     H70684   7.338   4.932  11.327  2.7303  3.6904 -0.7499
  524MOL0     H70685   7.509   4.794  11.245  1.1776  1.6986  0.2595
  524MOL0     H70686   7.560   4.742  11.403 -1.9273 -1.2429  1.1877
  524MOL0     H70687   7.381   4.622  11.436 -0.4644  3.3365  0.9020
  524MOL0     H70688   7.276   4.705  11.322  0.8594  1.2590  3.7156
  524MOL0     H70689   7.498   4.521  11.241 -0.1173  0.7659  0.4584
  524MOL0     H70690   7.392   4.612  11.119  0.4484 -2.1317 -1.8845
  524MOL0     H70691   7.323   4.417  10.994  1.5645  1.7994  1.5304
  524MOL0     H70692   7.066   4.119  11.102  2.1658 -2.6451 -0.6499
  524MOL0     H70693   7.057   4.243  10.979  1.4787 -0.1506 -2.2280
  524MOL0     H70694   7.267   4.011  11.014 -0.2566 -0.3784 -1.5002
  524MOL0     H70695   7.287   4.152  10.909 -1.3984 -0.2758 -2.5157
  524MOL0     H70696   7.097   4.086  10.767  0.0472 -1.3597 -1.8943
  524MOL0     H70697   7.053   3.971  10.895 -0.2688 -0.6910 -1.6634
  524MOL0     H70698   7.268   3.852  10.858 -1.8759 -2.1581 -0.6326
  524MOL0     H70699   7.297   3.967  10.724 -1.2641 -1.5255 -2.2501
  524MOL0     H70700   7.000   3.966  10.555 -0.3790 -0.0724  0.5359
  524MOL0     H70701   6.927   3.968  10.191 -1.1385  1.4444 -0.5536
  524MOL0     H70702   6.878   4.022  10.354  0.0840  0.2275 -0.0213
  524MOL0     H70703   6.992   4.111  10.259 -2.7264  1.7753  0.1205
  524MOL0     H70704   7.101   3.561   9.941 -1.6738  1.8709  0.7839
  524MOL0     H70705   7.110   3.550   9.672  0.6722  1.6130 -1.5401
  524MOL0     H70706   7.300   3.642   9.344  2.1062 -1.7754 -0.7579
  524MOL0     H70707   7.387   3.745   9.454  0.0666 -0.1894 -2.8541
  524MOL0     H70708   7.459   3.494   9.447 -0.2131 -2.7065  0.2151
  524MOL0     H70709   7.409   3.526   9.611 -1.9449 -0.5199  0.6691
  524MOL0     H70710   7.294   3.356   9.401  1.0036 -0.4313  0.4111
  524MOL0     H70711   7.179   3.426   9.508  0.3825  0.6256  0.0568
  524MOL0     H70712   7.430   3.285   9.586  0.4098  0.7235  2.2742
  524MOL0     H70713   7.333   3.344   9.709  0.6190 -1.4809  0.5307
  524MOL0     H70714   7.294   3.114   9.697  0.3878  0.9887  1.3127
  524MOL0     H70715   7.234   3.126   9.531 -1.7115  0.6336 -0.5641
  524MOL0     H70716   7.105   3.284   9.754  0.1712 -2.6903  2.7824
  524MOL0     H70717   7.049   3.253   9.584 -0.0571 -0.4411  0.6319
  524MOL0     H70718   6.953   3.121   9.803  0.5563  0.3469  0.4886
  524MOL0     H70719   7.101   3.040   9.787 -0.2353 -1.5550 -0.3529
  524MOL0     H70720   6.923   2.919   9.664  0.0480 -0.6985  0.1136
  524MOL0     H70721   7.029   2.990   9.538  0.7110  2.4418  0.0133
  524MOL0     H70722   7.305   3.895   9.630 -1.3735 -1.1904 -1.2360
  524MOL0     H70723   7.362   3.900   9.896 -0.0380  0.8452 -0.3964
  524MOL0     H70724   7.346   3.728  10.296  0.3157 -0.1370 -0.7518
  524MOL0     H70725   7.340   3.735  10.561 -0.1454 -1.9969 -1.9471
  524MOL0     H70726   7.835   5.245  10.970  0.9186  0.3188 -1.3686
  524MOL0     H70727   7.977   5.232  10.777 -0.6020 -2.5162  0.9052
  524MOL0     H70728   8.314   5.452  10.464 -2.6415 -1.5949 -0.2087
  524MOL0     H70729   8.530   5.433  10.347  0.7350 -0.3479 -0.1615
  524MOL0     H70730   8.764   5.425  10.327 -2.1616  0.0859 -1.3440
  524MOL0     H70731   8.882   5.310  10.294  0.4146 -0.2227 -1.0880
  524MOL0     H70732   8.766   5.383  10.079 -1.1426 -2.1374 -3.7651
  524MOL0     H70733   8.611   5.319  10.135 -0.3830 -2.3617 -0.5630
  524MOL0     H70734   8.714   5.166  10.004  0.3281  1.3468 -1.2604
  524MOL0     H70735   8.738   5.097  10.164 -0.9980  1.4603  0.1754
  524MOL0     H70736   8.988   5.169  10.144  0.8578  0.5820 -1.7158
  524MOL0     H70737   8.929   5.276  10.016 -0.7820  1.8657  0.6592
  524MOL0     H70738   9.006   4.978   9.768  1.5025  0.7377  0.7296
  524MOL0     H70739   8.645   5.088  10.566 -0.4382  0.4754  0.1558
  524MOL0     H70740   8.443   5.094  10.689 -1.7299 -0.4181  0.1645
  525MOL0     O70741   5.645   5.642   3.932 -0.1427 -0.5567 -0.6063
  525MOL0     C70742   5.604   5.690   4.039  0.4065  0.3856 -0.3478
  525MOL0     O70743   5.475   5.688   4.081 -1.6180  0.3788  0.6122
  525MOL0     C70744   5.361   5.661   4.007 -0.4982 -0.8585  0.4827
  525MOL0     C70745   5.349   5.610   3.873 -0.4046 -0.6272 -0.1852
  525MOL0     C70746   5.220   5.589   3.812 -0.2872  0.3954  0.3227
  525MOL0     C70747   5.104   5.617   3.874  0.5497  0.3683 -0.8446
  525MOL0     O70748   4.988   5.596   3.805 -0.0437  0.3821 -0.5591
  525MOL0     C70749   4.866   5.641   3.862  0.1439 -0.0748 -0.6916
  525MOL0     C70750   4.786   5.685   3.741  0.5467  0.4710 -0.0124
  525MOL0     C70751   4.633   5.663   3.753 -0.5233  0.1299  0.4764
  525MOL0     C70752   4.596   5.514   3.730 -0.1930 -1.0482 -0.7372
  525MOL0     C70753   4.464   5.482   3.796 -0.3460  0.7451  0.7132
  525MOL0     C70754   4.346   5.567   3.756  1.2208 -0.7371  0.7731
  525MOL0     C70755   4.211   5.538   3.827 -0.6615 -0.6956 -0.1184
  525MOL0     C70756   4.110   5.650   3.810  0.4236 -0.6222  0.0874
  525MOL0     N70757   3.980   5.630   3.876  0.1470 -0.4879  0.2250
  525MOL0     C70758   3.888   5.730   3.911  0.7994  0.2637 -0.5759
  525MOL0     C70759   3.764   5.661   3.922 -0.6663 -0.1734  0.1050
  525MOL0     C70760   3.619   5.693   3.942 -0.1166  0.0078 -0.2464
  525MOL0     C70761   3.600   5.826   4.014  0.4117 -0.4001  0.4177
  525MOL0     C70762   3.470   5.837   4.087  0.8226  0.5454  0.0454
  525MOL0     C70763   3.344   5.780   4.030  0.2659  0.5361 -0.5242
  525MOL0     O70764   3.236   5.821   4.109 -1.0308 -0.0385 -0.3373
  525MOL0     C70765   3.110   5.798   4.078  0.0325 -0.0656 -0.4569
  525MOL0     C70766   3.063   5.698   3.998 -0.1090  0.3840  0.2495
  525MOL0     C70767   2.924   5.682   3.977 -0.2752 -0.1395 -0.5950
  525MOL0     C70768   2.876   5.572   3.896  0.2449  0.6287 -0.0841
  525MOL0     C70769   2.828   5.775   4.030  0.2469  0.0085  0.6696
  525MOL0     C70770   2.674   5.780   4.005 -0.3963 -1.1083 -0.9600
  525MOL0     O70771   2.620   5.904   4.033  0.0729 -0.8545 -0.1256
  525MOL0     C70772   2.494   5.923   3.992 -0.6325 -0.3094 -0.3896
  525MOL0     C70773   2.448   5.888   3.864  0.5943 -0.2281  0.2975
  525MOL0     C70774   2.312   5.918   3.824 -0.0729 -0.4306  0.5446
  525MOL0     C70775   2.228   5.982   3.913  0.6783 -0.1714 -0.4439
  525MOL0     O70776   2.099   6.022   3.879 -0.3850 -0.0778  0.2182
  525MOL0     C70777   2.008   5.906   3.865 -0.0205 -0.3433 -0.2245
  525MOL0     C70778   1.869   5.952   3.820  0.5275 -0.3499 -0.3828
  525MOL0     C70779   1.818   6.070   3.915 -0.6169 -0.3094 -0.2253
  525MOL0     C70780   1.681   6.129   3.886  0.0788 -1.6852  0.2711
  525MOL0     C70781   1.661   6.242   3.987  0.8428 -0.5002  0.6849
  525MOL0     C70782   1.518   6.316   3.963 -0.1640  0.2630 -1.1187
  525MOL0     C70783   1.516   6.443   4.052 -0.5849  0.4511  0.8702
  525MOL0     C70784   1.371   6.487   4.074 -0.0361 -0.4622  0.1646
  525MOL0    Cl70785   1.279   6.361   4.157  0.4890 -0.0154  0.0335
  525MOL0     C70786   2.281   6.016   4.032 -0.1511 -1.2119  0.5098
  525MOL0     C70787   2.413   5.991   4.076 -0.4792 -0.5395 -0.4232
  525MOL0     O70788   2.611   5.674   3.976  0.4056 -0.1117  1.0490
  525MOL0     C70789   2.884   5.872   4.114  0.2013 -0.8046  0.1321
  525MOL0     C70790   3.018   5.880   4.142  0.0473  0.2405  0.3194
  525MOL0     N70791   3.790   5.522   3.910  0.3043 -0.2927  0.5063
  525MOL0     N70792   3.915   5.506   3.882 -0.0463 -0.0561  0.2174
  525MOL0     C70793   5.115   5.661   4.014  0.7366 -0.9846 -0.5084
  525MOL0     C70794   5.240   5.682   4.076  0.3943 -0.6953  0.1402
  525MOL0     C70795   5.699   5.758   4.126 -0.0628  1.0001 -0.3017
  525MOL0     C70796   5.833   5.749   4.118 -0.1858  0.9112 -0.4402
  525MOL0     C70797   5.920   5.823   4.194 -0.5266  0.1147 -0.0551
  525MOL0     C70798   5.876   5.922   4.282 -0.1542  0.4713  0.9877
  525MOL0     O70799   5.972   5.995   4.346 -0.4406 -0.2522  0.6194
  525MOL0     C70800   5.920   6.086   4.436 -0.7528 -0.3736  0.1434
  525MOL0     C70801   6.023   6.194   4.461 -0.6647  0.0812 -0.4283
  525MOL0     C70802   6.169   6.144   4.524 -0.4615  1.0490 -0.3945
  525MOL0     C70803   6.298   6.194   4.462  0.1217  0.0655  0.7801
  525MOL0     C70804   6.285   6.340   4.451 -0.4468  0.4813  0.0267
  525MOL0     C70805   6.280   6.459   4.458  0.5532  0.3524  0.0168
  525MOL0     C70806   5.733   5.932   4.282 -1.0779 -0.4302 -0.0875
  525MOL0     C70807   5.643   5.847   4.220 -0.0294 -0.2672 -0.3004
  525MOL0     H70808   5.441   5.592   3.819  0.1044  3.5740 -1.0783
  525MOL0     H70809   5.216   5.537   3.716  0.2763  0.7985  0.0752
  525MOL0     H70810   4.819   5.573   3.934  3.0122 -1.1956  0.2765
  525MOL0     H70811   4.885   5.726   3.928 -0.7174  0.8368 -1.5793
  525MOL0     H70812   4.808   5.792   3.726 -2.2193  1.1347  0.1961
  525MOL0     H70813   4.819   5.631   3.651  0.0796  0.2544 -0.0549
  525MOL0     H70814   4.602   5.701   3.850 -0.2652  1.1827  0.1553
  525MOL0     H70815   4.571   5.726   3.688 -0.1986  2.6488  2.4691
  525MOL0     H70816   4.590   5.500   3.622  3.5598  3.1266 -1.7846
  525MOL0     H70817   4.673   5.449   3.774  1.1609  1.9399  1.6928
  525MOL0     H70818   4.443   5.376   3.783  2.2970 -0.1840  2.9941
  525MOL0     H70819   4.468   5.501   3.904 -0.9390  0.4422  0.7870
  525MOL0     H70820   4.361   5.675   3.765 -0.7583 -0.3329 -0.1824
  525MOL0     H70821   4.325   5.553   3.650  2.7634  1.3436  0.1412
  525MOL0     H70822   4.185   5.434   3.805 -0.5401 -0.8413  0.3977
  525MOL0     H70823   4.232   5.535   3.935 -1.0776 -2.6208 -0.0661
  525MOL0     H70824   4.099   5.672   3.703 -0.7261  0.8623  0.4867
  525MOL0     H70825   4.155   5.737   3.858 -0.6528  0.2478 -0.4315
  525MOL0     H70826   3.893   5.838   3.903 -0.2386  0.8423  3.9307
  525MOL0     H70827   3.580   5.704   3.841  2.7776  1.7041 -1.2957
  525MOL0     H70828   3.590   5.604   3.998  0.7567 -0.3502 -0.3519
  525MOL0     H70829   3.594   5.906   3.940  0.4982 -1.1611 -0.4411
  525MOL0     H70830   3.674   5.847   4.091  0.5504  0.2570  0.1150
  525MOL0     H70831   3.449   5.941   4.114 -1.4312  0.2284 -0.3513
  525MOL0     H70832   3.488   5.782   4.180 -0.4007  0.4898  0.2625
  525MOL0     H70833   3.345   5.671   4.022 -1.4051  0.1774  2.4840
  525MOL0     H70834   3.327   5.811   3.927  0.4477 -0.1461 -0.7633
  525MOL0     H70835   3.130   5.625   3.953  2.9870  2.6126  0.8913
  525MOL0     H70836   2.841   5.508   3.977  0.2372 -0.7897 -1.1698
  525MOL0     H70837   2.791   5.610   3.838  0.7030  1.1550 -0.4281
  525MOL0     H70838   2.959   5.541   3.831 -0.0270  1.7138 -0.9928
  525MOL0     H70839   2.513   5.858   3.782 -0.3978  2.9481 -1.8485
  525MOL0     H70840   2.276   5.910   3.722 -3.5273  4.3703  1.0565
  525MOL0     H70841   2.054   5.833   3.798 -3.2560 -1.0154 -1.9500
  525MOL0     H70842   1.991   5.851   3.958 -0.1495  0.3745  0.1854
  525MOL0     H70843   1.877   5.994   3.719  2.6468  2.2400  0.7623
  525MOL0     H70844   1.802   5.865   3.824 -1.2144  0.9463 -0.0188
  525MOL0     H70845   1.887   6.153   3.895 -0.2920 -0.6972 -0.7201
  525MOL0     H70846   1.826   6.040   4.019  1.6863 -1.4154 -0.6769
  525MOL0     H70847   1.685   6.152   3.779  1.5208 -1.6865  0.3072
  525MOL0     H70848   1.599   6.059   3.904 -2.2159 -0.2106 -3.3092
  525MOL0     H70849   1.740   6.318   3.982  0.4215 -0.1630 -1.9100
  525MOL0     H70850   1.658   6.196   4.087  2.4580 -2.6501 -0.1728
  525MOL0     H70851   1.512   6.351   3.860  1.4457  3.6509 -0.2165
  525MOL0     H70852   1.442   6.240   3.983  2.4482 -2.8169 -2.0221
  525MOL0     H70853   1.565   6.513   3.983  0.9924 -0.7140  0.7677
  525MOL0     H70854   1.570   6.431   4.146 -0.5437  3.1120  1.2581
  525MOL0     H70855   1.319   6.516   3.982 -0.7338 -2.3974 -0.0914
  525MOL0     H70856   1.369   6.583   4.126 -2.5012 -0.2111 -0.2981
  525MOL0     H70857   2.217   6.070   4.102 -0.7052 -0.0388 -0.8465
  525MOL0     H70858   2.440   6.032   4.173  1.0219  1.8358 -1.7422
  525MOL0     H70859   2.817   5.930   4.177 -1.4822  0.1418 -2.3517
  525MOL0     H70860   3.043   5.970   4.198  2.3210 -1.0636  1.5503
  525MOL0     H70861   5.025   5.689   4.067 -1.1635 -2.0587 -2.9338
  525MOL0     H70862   5.257   5.731   4.171 -1.1540  2.3076 -0.9885
  525MOL0     H70863   5.870   5.677   4.045 -1.4960 -0.1392 -0.1120
  525MOL0     H70864   6.025   5.811   4.171 -0.9719 -1.3796 -1.6168
  525MOL0     H70865   5.832   6.134   4.392 -0.3859 -1.3218 -1.7025
  525MOL0     H70866   5.894   6.037   4.530 -3.0555 -1.3253 -0.9156
  525MOL0     H70867   5.992   6.270   4.534  0.4662 -1.6005  1.9438
  525MOL0     H70868   6.042   6.242   4.365  1.5257  2.3631  1.0251
  525MOL0     H70869   6.169   6.036   4.538 -0.8126  0.8852 -1.6057
  525MOL0     H70870   6.162   6.183   4.626  2.1740  0.1150  0.2025
  525MOL0     H70871   6.318   6.157   4.361  0.6178 -0.3582  1.0341
  525MOL0     H70872   6.376   6.167   4.533  1.1817 -2.5252 -1.2248
  525MOL0     H70873   6.269   6.566   4.453  0.8205  0.5570  2.6867
  525MOL0     H70874   5.685   6.006   4.345  0.8051  2.5848 -1.9345
  525MOL0     H70875   5.537   5.858   4.236 -0.0541  1.1262 -1.2048
  526MOL0     O70876   1.695   4.090   4.155 -0.3514  0.9661  0.4512
  526MOL0     C70877   1.791   4.165   4.147 -0.3180  0.0105  0.0501
  526MOL0     O70878   1.778   4.303   4.119 -0.2212  0.6618 -0.6384
  526MOL0     C70879   1.644   4.348   4.125  0.6083 -1.2055  0.2762
  526MOL0     C70880   1.568   4.353   4.005 -0.8186 -0.1512 -1.2967
  526MOL0     C70881   1.432   4.397   4.013 -0.6770  0.4805  0.7629
  526MOL0     C70882   1.387   4.451   4.130  0.5442 -0.0807  0.8795
  526MOL0     O70883   1.269   4.508   4.107 -0.3119  0.4678 -0.0390
  526MOL0     C70884   1.195   4.541   4.214  0.0387  0.7825 -0.3778
  526MOL0     C70885   1.206   4.684   4.252  0.1302 -0.7447  0.1542
  526MOL0     C70886   1.112   4.715   4.373  0.5234 -0.3489 -0.2396
  526MOL0     C70887   1.166   4.830   4.459 -1.1136 -0.2215  0.3602
  526MOL0     C70888   1.072   4.866   4.571  0.3634 -0.4910  0.0817
  526MOL0     C70889   1.052   5.023   4.573  0.7296  0.4933 -0.1909
  526MOL0     C70890   0.985   5.064   4.702 -0.9846  0.3197  0.3667
  526MOL0     C70891   0.979   5.221   4.719  0.2602  0.5551 -0.4787
  526MOL0     N70892   0.907   5.250   4.841 -0.5297 -0.2484  0.2452
  526MOL0     C70893   0.776   5.228   4.875  0.6730 -0.5328  0.0349
  526MOL0     C70894   0.782   5.231   5.011  0.9483 -1.2532 -1.0134
  526MOL0     C70895   0.658   5.218   5.092  0.2853  0.6205 -0.7799
  526MOL0     C70896   0.549   5.319   5.045 -0.6929 -1.0552  0.2701
  526MOL0     C70897   0.436   5.348   5.141 -0.7707 -0.5074  0.5352
  526MOL0     C70898   0.327   5.430   5.069 -0.3314 -0.8840 -0.2280
  526MOL0     O70899   0.213   5.444   5.151 -0.4696  0.1613 -0.1793
  526MOL0     C70900   0.109   5.511   5.090 -0.6780 -0.3205  0.1594
  526MOL0     C70901  -0.001   5.437   5.056  0.8622 -0.2533 -0.1997
  526MOL0     C70902  -0.106   5.486   4.985  0.9732 -0.4302  0.3270
  526MOL0     C70903  -0.199   5.386   4.931 -0.0422 -0.6382 -0.3101
  526MOL0     C70904  -0.109   5.624   4.952  0.2509  0.4529 -1.0952
  526MOL0     C70905  -0.223   5.694   4.892  0.6105 -0.5159  0.0176
  526MOL0     O70906  -0.349   5.661   4.945 -0.3884  0.3673  0.0071
  526MOL0     C70907  -0.454   5.732   4.885 -0.4546 -0.2978 -0.1180
  526MOL0     C70908  -0.500   5.687   4.760 -0.0619 -0.6292 -0.1825
  526MOL0     C70909  -0.611   5.744   4.697  0.5665 -0.1528  0.5174
  526MOL0     C70910  -0.666   5.863   4.750  0.6268  0.3134 -0.1843
  526MOL0     O70911  -0.745   5.952   4.675  0.3704  0.1048  0.3294
  526MOL0     C70912  -0.846   5.902   4.583  0.3349 -0.4322 -0.2312
  526MOL0     C70913  -0.952   6.017   4.590 -0.9566 -0.4592 -0.7962
  526MOL0     C70914  -1.022   6.023   4.729 -0.4757 -0.2597 -0.0708
  526MOL0     C70915  -1.133   6.116   4.722 -0.3351 -0.7803  0.6654
  526MOL0     C70916  -1.252   6.097   4.826 -0.4159  0.1591 -1.0984
  526MOL0     C70917  -1.379   6.172   4.792  0.0584  0.0650 -1.0212
  526MOL0     C70918  -1.478   6.145   4.907  0.5811 -0.6935  0.0882
  526MOL0     C70919  -1.610   6.220   4.884 -0.4590  0.5405  0.0695
  526MOL0    Cl70920  -1.743   6.189   5.012  0.1832  0.5207 -0.0795
  526MOL0     C70921  -0.620   5.910   4.877 -0.2988 -0.0388 -0.6003
  526MOL0     C70922  -0.524   5.838   4.946  0.0705  0.5374  0.5978
  526MOL0     O70923  -0.198   5.786   4.803 -0.1584  0.6870 -0.9794
  526MOL0     C70924   0.005   5.699   4.978  0.0859  0.4009  0.4711
  526MOL0     C70925   0.115   5.638   5.038  0.6962  0.4008 -0.1686
  526MOL0     N70926   0.910   5.272   5.051  0.6896  0.5762  0.4612
  526MOL0     N70927   0.982   5.273   4.949 -0.3581 -0.6022  0.9018
  526MOL0     C70928   1.465   4.455   4.246  1.1176 -0.2391 -0.6669
  526MOL0     C70929   1.593   4.392   4.246  0.1523  0.5960  0.1503
  526MOL0     C70930   1.927   4.112   4.164 -0.2970  0.0896  0.6257
  526MOL0     C70931   2.044   4.196   4.131  0.3441 -0.1726  0.0611
  526MOL0     C70932   2.164   4.154   4.172  0.4321  0.7877 -0.0519
  526MOL0     C70933   2.188   4.022   4.210  0.0339  0.3484  0.1424
  526MOL0     O70934   2.318   3.982   4.229 -0.4018  0.6256 -0.5845
  526MOL0     C70935   2.337   3.844   4.189 -0.8150 -0.3271 -0.1768
  526MOL0     C70936   2.482   3.814   4.210 -0.1363 -0.7289  0.1496
  526MOL0     C70937   2.532   3.683   4.154  0.5911 -0.6195 -0.2756
  526MOL0     C70938   2.677   3.655   4.215  0.5866  0.3189 -0.5599
  526MOL0     C70939   2.764   3.768   4.198  0.3226  0.0428  0.0499
  526MOL0     C70940   2.858   3.846   4.210  0.5367  0.3069  0.5060
  526MOL0     C70941   2.076   3.940   4.228 -0.2685 -0.0432 -0.2523
  526MOL0     C70942   1.950   3.979   4.208 -0.8615 -0.3880 -0.0331
  526MOL0     H70943   1.616   4.316   3.915  0.7302  3.2700 -2.0478
  526MOL0     H70944   1.362   4.394   3.930 -0.6546 -0.4583  0.7612
  526MOL0     H70945   1.097   4.499   4.193  1.0542 -1.7003 -0.5504
  526MOL0     H70946   1.233   4.491   4.304 -0.6636 -0.6151 -0.8356
  526MOL0     H70947   1.312   4.703   4.267 -0.2666  1.1053  0.8464
  526MOL0     H70948   1.180   4.750   4.169  0.4818  1.1892  1.5250
  526MOL0     H70949   1.011   4.748   4.348 -1.3012 -3.4610  2.2244
  526MOL0     H70950   1.097   4.628   4.438 -0.0635  0.8756  1.3448
  526MOL0     H70951   1.263   4.803   4.501  0.4680  0.7989 -2.3813
  526MOL0     H70952   1.168   4.913   4.388 -0.2684  2.1797  3.0252
  526MOL0     H70953   0.984   4.802   4.573  1.6966 -2.4604 -0.5225
  526MOL0     H70954   1.124   4.823   4.657  0.7690 -1.7310 -0.7558
  526MOL0     H70955   1.148   5.072   4.555  1.4357 -0.1843  1.5253
  526MOL0     H70956   0.986   5.051   4.490  2.4672  2.0741 -1.0901
  526MOL0     H70957   0.887   5.017   4.713 -0.5380 -1.6318 -2.6643
  526MOL0     H70958   1.041   5.022   4.786 -3.0553  0.5034  1.9300
  526MOL0     H70959   0.936   5.271   4.631  1.1967 -0.0603 -1.3082
  526MOL0     H70960   1.079   5.255   4.744  0.3307 -2.0059  3.8058
  526MOL0     H70961   0.691   5.203   4.813 -0.4567 -0.6192  1.5611
  526MOL0     H70962   0.627   5.114   5.081  0.8277  0.5119 -1.3622
  526MOL0     H70963   0.684   5.228   5.198  0.3994 -3.1751 -0.3079
  526MOL0     H70964   0.508   5.271   4.955  0.8925 -0.8688 -0.5979
  526MOL0     H70965   0.592   5.417   5.022 -2.7762  0.0419  0.8221
  526MOL0     H70966   0.475   5.402   5.228  3.4075 -1.0257 -0.7555
  526MOL0     H70967   0.402   5.249   5.173 -0.2660 -1.6571 -2.2125
  526MOL0     H70968   0.293   5.382   4.977 -2.1546  0.7942 -0.5120
  526MOL0     H70969   0.373   5.528   5.052  1.8775 -1.3081  2.5691
  526MOL0     H70970   0.011   5.332   5.082 -0.0956 -0.5927 -1.0600
  526MOL0     H70971  -0.207   5.296   4.992  0.5551 -1.0529 -0.8343
  526MOL0     H70972  -0.300   5.426   4.920  0.3304  0.0403 -1.4036
  526MOL0     H70973  -0.164   5.355   4.832  0.9855  0.3080 -0.2522
  526MOL0     H70974  -0.455   5.594   4.729 -0.1650 -2.0808  3.5944
  526MOL0     H70975  -0.642   5.718   4.597 -0.0141  2.9785 -0.2269
  526MOL0     H70976  -0.804   5.897   4.482  1.5051  0.2168  0.2007
  526MOL0     H70977  -0.872   5.799   4.608  2.7105 -0.1376  4.7339
  526MOL0     H70978  -0.914   6.113   4.555  0.8227 -0.9355 -0.2824
  526MOL0     H70979  -1.022   5.994   4.509 -2.1059  1.3479 -0.3743
  526MOL0     H70980  -0.949   6.059   4.802 -0.1446 -0.7297 -0.1565
  526MOL0     H70981  -1.057   5.921   4.747  0.2840 -0.5265 -0.0460
  526MOL0     H70982  -1.094   6.218   4.723 -2.5097  0.0910  0.4983
  526MOL0     H70983  -1.182   6.102   4.625  0.0840 -0.6913  0.4365
  526MOL0     H70984  -1.211   6.131   4.922 -0.0976 -0.0087 -1.1735
  526MOL0     H70985  -1.273   5.990   4.820  0.3822  0.0035 -1.2051
  526MOL0     H70986  -1.352   6.277   4.788 -2.0758  0.6467 -1.9592
  526MOL0     H70987  -1.423   6.148   4.695 -0.9411  0.2483 -0.6261
  526MOL0     H70988  -1.426   6.184   4.995  0.4719  3.2472 -1.4078
  526MOL0     H70989  -1.499   6.039   4.925 -0.2683 -0.1128  3.1716
  526MOL0     H70990  -1.644   6.186   4.786 -1.8109 -1.1738  1.0885
  526MOL0     H70991  -1.588   6.327   4.888  2.7262  0.0345 -0.6929
  526MOL0     H70992  -0.664   6.005   4.906 -3.2451 -1.5718  0.3749
  526MOL0     H70993  -0.500   5.878   5.044 -0.2221  3.1803 -0.3288
  526MOL0     H70994   0.011   5.804   4.951 -0.6521 -0.3439 -2.9344
  526MOL0     H70995   0.199   5.698   5.071  1.5107 -1.7783  2.0080
  526MOL0     H70996   1.440   4.500   4.342  3.2651  0.6191 -0.4316
  526MOL0     H70997   1.657   4.393   4.333  0.7689  1.1405 -0.3029
  526MOL0     H70998   2.046   4.300   4.101  1.8269 -0.2022 -0.0248
  526MOL0     H70999   2.242   4.228   4.163  0.1869  0.8635 -1.8691
  526MOL0     H71000   2.272   3.781   4.250 -1.6462 -1.2285 -1.9501
  526MOL0     H71001   2.314   3.851   4.083 -0.6364  2.4305 -0.1139
  526MOL0     H71002   2.495   3.810   4.319  0.7826  0.2025  0.0931
  526MOL0     H71003   2.545   3.897   4.179 -0.7736  0.5902  2.1751
  526MOL0     H71004   2.535   3.699   4.045  1.1916  0.8774 -0.0650
  526MOL0     H71005   2.473   3.591   4.157 -0.7798  0.2407  0.0802
  526MOL0     H71006   2.715   3.561   4.174  2.1986  0.4821  0.4836
  526MOL0     H71007   2.665   3.637   4.322 -0.6531  2.0275 -0.3710
  526MOL0     H71008   2.929   3.919   4.244  0.0894  1.8446 -1.6803
  526MOL0     H71009   2.093   3.840   4.267  2.2569  0.2933 -0.2908
  526MOL0     H71010   1.871   3.908   4.231 -1.2940 -0.6525 -2.1533
  527MOL0     O71011  10.278  11.053   6.631  0.5409  0.0845  0.8157
  527MOL0     C71012  10.190  11.010   6.695  0.2895  0.9965 -1.3502
  527MOL0     O71013  10.178  11.007   6.834 -0.5842  0.0634 -0.2289
  527MOL0     C71014  10.285  11.039   6.914 -0.3710 -0.0472 -0.4891
  527MOL0     C71015  10.269  11.101   7.044  0.2548  0.8409  0.5829
  527MOL0     C71016  10.374  11.111   7.136  0.2262  0.0257 -0.3973
  527MOL0     C71017  10.492  11.042   7.104 -0.6811 -0.3255  0.3648
  527MOL0     O71018  10.600  11.023   7.180 -0.3561  0.8990  0.6348
  527MOL0     C71019  10.604  11.080   7.315  0.7998 -0.3511  0.6419
  527MOL0     C71020  10.751  11.071   7.355 -0.5658 -0.5202  0.5043
  527MOL0     C71021  10.866  11.132   7.271 -0.4685  0.0359 -0.0606
  527MOL0     C71022  10.999  11.084   7.319  0.0019  0.3061  1.5180
  527MOL0     C71023  11.021  10.941   7.258  0.3886  1.0288  0.1793
  527MOL0     C71024  11.148  10.871   7.322 -0.6773 -0.5178  0.1706
  527MOL0     C71025  11.261  10.846   7.224  0.5646  0.4841  0.2138
  527MOL0     C71026  11.396  10.811   7.287 -0.8553  0.2838 -0.8696
  527MOL0     N71027  11.478  10.713   7.212  0.3782  0.4661 -0.1039
  527MOL0     C71028  11.615  10.713   7.201  0.4762 -0.4593 -0.3696
  527MOL0     C71029  11.643  10.604   7.122  0.8642  0.6357  0.3240
  527MOL0     C71030  11.780  10.563   7.077 -0.1773  0.4542  0.2208
  527MOL0     C71031  11.885  10.598   7.182  0.4681 -0.0067 -0.2224
  527MOL0     C71032  11.862  10.518   7.304 -0.0103 -0.2202 -0.8004
  527MOL0     C71033  12.000  10.484   7.371 -0.3604  0.6617 -0.2274
  527MOL0     O71034  12.078  10.595   7.364 -0.1233  0.2916 -0.5762
  527MOL0     C71035  12.215  10.569   7.356  0.2363  0.2531  0.3038
  527MOL0     C71036  12.295  10.678   7.317 -0.4970  0.2654 -0.1489
  527MOL0     C71037  12.438  10.662   7.276  1.0390  0.4738 -0.1971
  527MOL0     C71038  12.498  10.788   7.225 -0.1055 -0.4964  0.3643
  527MOL0     C71039  12.501  10.534   7.281 -0.3587 -0.3659 -0.2267
  527MOL0     C71040  12.639  10.505   7.249 -1.2724 -0.0878 -0.0266
  527MOL0     O71041  12.707  10.415   7.322  1.0978  0.1004  0.4158
  527MOL0     C71042  12.835  10.438   7.366  0.1497  0.1054  0.2167
  527MOL0     C71043  12.916  10.556   7.355  0.1194  0.6981  0.3817
  527MOL0     C71044  13.047  10.565   7.411  0.3743  0.0563 -1.1030
  527MOL0     C71045  13.099  10.451   7.485  0.8361 -0.3707  0.7353
  527MOL0     O71046  13.219  10.448   7.545  0.0150  0.2577  0.0593
  527MOL0     C71047  13.323  10.546   7.516  0.5971 -0.3690 -0.1802
  527MOL0     C71048  13.466  10.507   7.556  0.3529  0.3568  0.1090
  527MOL0     C71049  13.558  10.630   7.557 -0.2399  0.3400 -1.0772
  527MOL0     C71050  13.688  10.583   7.617  0.4768 -0.1345  0.6225
  527MOL0     C71051  13.793  10.699   7.631 -0.0834  0.2627  0.9055
  527MOL0     C71052  13.893  10.680   7.743 -0.1804 -0.4940 -1.2840
  527MOL0     C71053  14.022  10.759   7.729 -0.0647 -0.7169  0.1797
  527MOL0     C71054  14.117  10.746   7.848 -0.6292 -0.3248  0.5026
  527MOL0    Cl71055  14.027  10.789   7.995 -0.5480 -0.3531  0.5573
  527MOL0     C71056  13.017  10.346   7.505  0.5315 -0.0297 -0.0775
  527MOL0     C71057  12.892  10.337   7.442 -0.1448  0.0577 -0.2300
  527MOL0     O71058  12.690  10.573   7.158  0.0965  0.0957  0.3043
  527MOL0     C71059  12.421  10.434   7.327  0.5571  0.2546  0.0112
  527MOL0     C71060  12.278  10.443   7.361 -0.7954  0.2591 -0.2821
  527MOL0     N71061  11.534  10.531   7.099  0.2909 -0.1227  0.8128
  527MOL0     N71062  11.431  10.596   7.147 -0.3443 -0.5168  0.6973
  527MOL0     C71063  10.508  10.988   6.974 -0.0818  0.0370  0.1114
  527MOL0     C71064  10.408  10.983   6.880 -0.1951  0.0409 -0.0304
  527MOL0     C71065  10.054  10.979   6.639  0.5381  0.4304  0.8235
  527MOL0     C71066  10.021  11.023   6.507 -0.5522 -0.5220 -0.1407
  527MOL0     C71067   9.905  10.990   6.448  0.5353  0.2677  0.0764
  527MOL0     C71068   9.803  10.928   6.519  0.4711 -0.2292 -0.4527
  527MOL0     O71069   9.687  10.907   6.452 -0.3814 -0.4587 -0.8714
  527MOL0     C71070   9.574  10.861   6.521  0.0551  0.2394  0.2654
  527MOL0     C71071   9.445  10.862   6.442  0.7159 -0.5343  0.1288
  527MOL0     C71072   9.440  10.751   6.342 -0.0218  0.8803  0.2153
  527MOL0     C71073   9.330  10.771   6.229 -0.1200 -1.0657  0.3035
  527MOL0     C71074   9.199  10.788   6.291  0.2346 -0.4478  0.8729
  527MOL0     C71075   9.097  10.803   6.354  0.4595 -0.6502  0.7652
  527MOL0     C71076   9.831  10.885   6.654 -0.0882 -0.2327  0.5734
  527MOL0     C71077   9.955  10.905   6.710  0.4467  0.0432  0.2396
  527MOL0     H71078  10.168  11.116   7.082 -0.0918 -1.7409  0.8817
  527MOL0     H71079  10.359  11.135   7.241  3.9214  1.5165 -0.0305
  527MOL0     H71080  10.572  11.184   7.316  1.5512 -0.0985  2.5743
  527MOL0     H71081  10.537  11.029   7.385 -0.8393 -2.2682 -2.1185
  527MOL0     H71082  10.751  11.122   7.452 -0.9335  2.3529 -0.9016
  527MOL0     H71083  10.776  10.966   7.372  0.6602 -0.0700  1.7299
  527MOL0     H71084  10.850  11.096   7.169  0.0212  0.8245 -0.4234
  527MOL0     H71085  10.861  11.240   7.292 -1.1055  0.2528 -1.2035
  527MOL0     H71086  11.080  11.143   7.274  1.0439 -1.6503  0.6583
  527MOL0     H71087  11.012  11.083   7.427  1.2212 -0.7867  1.3929
  527MOL0     H71088  10.935  10.874   7.249  0.6993  0.6601 -0.1114
  527MOL0     H71089  11.047  10.964   7.154  0.1584 -0.7931 -0.3167
  527MOL0     H71090  11.173  10.937   7.406 -1.2351 -0.9775  0.7134
  527MOL0     H71091  11.109  10.782   7.374 -0.5446 -1.0280 -0.5868
  527MOL0     H71092  11.224  10.761   7.166  0.0777  0.6968  0.2122
  527MOL0     H71093  11.271  10.927   7.151 -2.6937  0.4880 -0.3590
  527MOL0     H71094  11.383  10.766   7.386  1.0225  0.0605 -0.6875
  527MOL0     H71095  11.448  10.905   7.310  2.4362 -1.9183  1.5111
  527MOL0     H71096  11.693  10.782   7.232  0.3442 -1.5044  2.5890
  527MOL0     H71097  11.781  10.454   7.063  1.6654  0.3982  0.4791
  527MOL0     H71098  11.802  10.610   6.981  0.6578  0.0102  0.1799
  527MOL0     H71099  11.889  10.705   7.204  1.0424  0.0917 -0.7967
  527MOL0     H71100  11.976  10.575   7.126  0.0302 -2.1667 -0.1249
  527MOL0     H71101  11.815  10.421   7.286 -3.2832  0.8646  0.9977
  527MOL0     H71102  11.803  10.571   7.380  1.0202 -1.1798  0.7242
  527MOL0     H71103  12.029  10.407   7.298 -4.1394  1.1971 -2.6097
  527MOL0     H71104  11.998  10.451   7.475  3.4781 -0.4113 -0.3507
  527MOL0     H71105  12.250  10.777   7.311 -0.0616  0.7856  3.0135
  527MOL0     H71106  12.547  10.761   7.131  3.3896 -4.8177  3.0105
  527MOL0     H71107  12.428  10.868   7.201  2.6567  1.7798 -0.6786
  527MOL0     H71108  12.577  10.804   7.298  0.0776 -2.3810  0.6307
  527MOL0     H71109  12.867  10.639   7.304  0.0679  1.1746  1.1872
  527MOL0     H71110  13.103  10.658   7.407 -0.5372  0.5944 -2.9834
  527MOL0     H71111  13.315  10.580   7.413  0.4920  1.2992  0.3510
  527MOL0     H71112  13.303  10.634   7.577  2.4454 -0.0847  0.0630
  527MOL0     H71113  13.457  10.464   7.656 -0.0000 -1.3081 -0.5922
  527MOL0     H71114  13.506  10.428   7.491  2.2913  1.1856  0.2269
  527MOL0     H71115  13.512  10.715   7.608 -2.8206 -0.6722 -1.5518
  527MOL0     H71116  13.571  10.655   7.451 -3.9014 -0.4897 -1.8738
  527MOL0     H71117  13.663  10.538   7.714 -0.2238 -0.8873  0.1099
  527MOL0     H71118  13.721  10.510   7.543 -2.8508 -1.0974 -0.0363
  527MOL0     H71119  13.732  10.790   7.640 -2.3444 -1.2441  1.8943
  527MOL0     H71120  13.851  10.700   7.539 -0.1920  0.1428  0.8354
  527MOL0     H71121  13.838  10.715   7.832  2.4541  1.9471 -0.4513
  527MOL0     H71122  13.910  10.572   7.745 -1.2628 -0.6856  0.6876
  527MOL0     H71123  13.992  10.863   7.716  1.8136 -0.0422  0.9223
  527MOL0     H71124  14.065  10.729   7.633  3.2335  1.3438  0.8341
  527MOL0     H71125  14.206  10.810   7.840  1.3183 -2.9991 -0.8090
  527MOL0     H71126  14.168  10.650   7.861  1.5157  0.5177 -0.9995
  527MOL0     H71127  13.062  10.267   7.565  2.2837  0.6816 -0.4061
  527MOL0     H71128  12.843  10.244   7.466 -0.3629 -0.1788 -1.4998
  527MOL0     H71129  12.460  10.333   7.339  3.6662  1.6077  2.5783
  527MOL0     H71130  12.219  10.358   7.394 -0.0130 -0.1956 -0.0069
  527MOL0     H71131  10.606  10.946   6.954  0.2884  0.7985  0.2857
  527MOL0     H71132  10.416  10.929   6.786  0.8181  1.2490 -0.6641
  527MOL0     H71133  10.102  11.067   6.450 -2.5459  1.7204 -1.3910
  527MOL0     H71134   9.885  11.021   6.346 -0.3857 -1.0961 -0.1918
  527MOL0     H71135   9.604  10.757   6.538 -0.3949  0.1187  0.3464
  527MOL0     H71136   9.564  10.909   6.618 -0.1823  0.8378 -0.0503
  527MOL0     H71137   9.443  10.963   6.402  0.8113 -0.2238  0.8909
  527MOL0     H71138   9.362  10.840   6.510 -2.7728 -0.2215 -3.6174
  527MOL0     H71139   9.416  10.658   6.394 -0.9219  1.2787  0.5497
  527MOL0     H71140   9.537  10.742   6.292  0.1129  1.7108  0.3094
  527MOL0     H71141   9.320  10.681   6.167  0.8219 -1.4297  0.6565
  527MOL0     H71142   9.358  10.858   6.170  0.9959 -0.7665  1.2440
  527MOL0     H71143   8.996  10.811   6.389  0.2983 -1.6285  0.5692
  527MOL0     H71144   9.752  10.829   6.704 -0.1991 -0.8893 -0.2923
  527MOL0     H71145   9.984  10.874   6.810  0.0221  2.5741  1.2145
  528MOL0     O71146   7.455   8.855   4.870  0.9145 -0.1252 -0.3515
  528MOL0     C71147   7.394   8.831   4.769  0.1226 -0.5164  0.0309
  528MOL0     O71148   7.283   8.904   4.722 -0.2384  0.6132 -0.7080
  528MOL0     C71149   7.249   9.032   4.769 -0.3200  0.3623  0.0753
  528MOL0     C71150   7.119   9.077   4.782  0.2774 -0.3082  0.4254
  528MOL0     C71151   7.103   9.215   4.802  0.4324 -0.3836  0.8382
  528MOL0     C71152   7.202   9.309   4.795  0.3142 -0.4186  0.2480
  528MOL0     O71153   7.180   9.443   4.811  0.4710 -0.0165 -0.6215
  528MOL0     C71154   7.183   9.507   4.687 -0.9103  0.1625 -0.0963
  528MOL0     C71155   7.066   9.480   4.590 -0.0997  0.0623 -0.0890
  528MOL0     C71156   6.923   9.526   4.631 -1.1017 -0.4537  0.2069
  528MOL0     C71157   6.911   9.680   4.655  0.1482  0.2891  0.0970
  528MOL0     C71158   6.768   9.734   4.675  0.2330 -1.0389  0.2365
  528MOL0     C71159   6.706   9.681   4.807  0.6055  0.1293 -0.3945
  528MOL0     C71160   6.611   9.781   4.873 -0.1311  0.0856 -0.5539
  528MOL0     C71161   6.504   9.731   4.974  0.2591 -0.0880 -0.7095
  528MOL0     N71162   6.437   9.610   4.916  0.6037 -0.3033 -0.4372
  528MOL0     C71163   6.368   9.600   4.801  0.2962 -0.0888  0.4121
  528MOL0     C71164   6.314   9.478   4.818 -0.1168  0.8314 -0.0777
  528MOL0     C71165   6.234   9.417   4.709 -0.6139 -0.1547  0.1562
  528MOL0     C71166   6.259   9.264   4.685  0.1390 -0.1524  0.4783
  528MOL0     C71167   6.156   9.217   4.588 -0.0764  0.2127 -0.6184
  528MOL0     C71168   6.174   9.067   4.561 -0.2844  1.1011 -0.1736
  528MOL0     O71169   6.081   9.016   4.467 -0.1184  0.2660 -0.4598
  528MOL0     C71170   6.083   8.881   4.439 -0.3625  0.7289 -0.6172
  528MOL0     C71171   6.182   8.785   4.473 -0.0421 -0.4688 -0.6326
  528MOL0     C71172   6.180   8.652   4.422  0.1777 -0.1236  0.3175
  528MOL0     C71173   6.294   8.564   4.444  0.4475 -0.1820  0.6019
  528MOL0     C71174   6.073   8.618   4.334 -0.6633  0.1997  0.7416
  528MOL0     C71175   6.043   8.483   4.281 -0.1544 -1.0552 -0.3785
  528MOL0     O71176   5.975   8.466   4.164 -0.7595 -0.3617  0.3119
  528MOL0     C71177   5.885   8.367   4.138 -0.1944  0.6119 -1.1593
  528MOL0     C71178   5.808   8.302   4.243 -0.3508 -0.5578 -0.0188
  528MOL0     C71179   5.707   8.211   4.204 -0.1268 -0.3025 -0.8555
  528MOL0     C71180   5.678   8.174   4.077 -0.1538  0.5608  0.0579
  528MOL0     O71181   5.576   8.081   4.061 -0.8830 -0.1427  0.8941
  528MOL0     C71182   5.451   8.141   4.031 -0.7270 -0.7065  0.4020
  528MOL0     C71183   5.340   8.035   4.050  1.0311  0.1814 -0.1859
  528MOL0     C71184   5.208   8.046   3.967 -0.3217 -0.3550  0.2064
  528MOL0     C71185   5.144   7.913   3.940 -0.2672  0.1753  0.1010
  528MOL0     C71186   5.037   7.925   3.834  0.2611  0.5103 -0.8208
  528MOL0     C71187   4.994   7.786   3.784 -0.5133 -0.9929 -0.0274
  528MOL0     C71188   4.897   7.785   3.663 -0.3101 -0.0128 -1.0551
  528MOL0     C71189   4.883   7.638   3.625 -0.1033 -0.4648  0.6956
  528MOL0    Cl71190   4.776   7.614   3.479 -0.1417  0.8385 -0.1467
  528MOL0     C71191   5.748   8.237   3.979 -0.7578 -0.2680  0.0550
  528MOL0     C71192   5.857   8.330   4.006 -0.3638 -0.6092  0.7060
  528MOL0     O71193   6.064   8.392   4.369 -1.0715 -0.2659 -0.1069
  528MOL0     C71194   5.974   8.715   4.299  0.5287 -0.8605  0.1005
  528MOL0     C71195   5.983   8.845   4.355  0.7902 -0.7323  0.4204
  528MOL0     N71196   6.373   9.413   4.929 -0.3104  0.1025  1.0378
  528MOL0     N71197   6.458   9.495   4.975 -0.8449 -0.0713 -0.0212
  528MOL0     C71198   7.333   9.260   4.793 -0.1278  0.2077  0.4654
  528MOL0     C71199   7.350   9.124   4.781 -0.4715  0.3772 -0.4677
  528MOL0     C71200   7.437   8.703   4.706  0.5434 -0.8679 -0.0469
  528MOL0     C71201   7.518   8.602   4.766  1.5610 -0.0667 -0.6100
  528MOL0     C71202   7.551   8.483   4.693  0.2471  0.3780 -0.8132
  528MOL0     C71203   7.481   8.453   4.576 -0.7558  1.0180  0.0314
  528MOL0     O71204   7.497   8.346   4.497  0.1716 -0.3661  0.2619
  528MOL0     C71205   7.569   8.230   4.544 -0.2193 -0.4739 -1.4469
  528MOL0     C71206   7.717   8.249   4.522 -0.2546 -0.5840  0.0222
  528MOL0     C71207   7.790   8.108   4.534 -0.6508 -0.7040  0.5863
  528MOL0     C71208   7.929   8.129   4.587 -0.4109  0.1467 -0.0593
  528MOL0     C71209   7.929   8.173   4.732 -0.4289  0.1578 -0.4989
  528MOL0     C71210   7.942   8.196   4.854 -0.4758 -0.3998 -0.4058
  528MOL0     C71211   7.414   8.552   4.522  0.8181 -0.9291 -0.3625
  528MOL0     C71212   7.393   8.677   4.576  0.8027  0.3112 -0.0729
  528MOL0     H71213   7.039   9.004   4.778 -1.0156  1.0776  0.1781
  528MOL0     H71214   7.004   9.253   4.826  0.8697  0.3936  1.4458
  528MOL0     H71215   7.193   9.612   4.714 -1.3025  0.2468 -0.2829
  528MOL0     H71216   7.268   9.470   4.629 -1.6441  1.9596 -2.4834
  528MOL0     H71217   7.093   9.527   4.495  3.6731 -2.2529 -0.3682
  528MOL0     H71218   7.041   9.374   4.581 -0.8249  0.2443 -0.2837
  528MOL0     H71219   6.859   9.496   4.548 -2.6532  0.8342  0.8822
  528MOL0     H71220   6.886   9.487   4.727 -1.8371  2.3247  1.1648
  528MOL0     H71221   6.966   9.695   4.748 -2.8141  2.3218  1.6855
  528MOL0     H71222   6.969   9.729   4.577 -0.3437 -0.5026 -0.7899
  528MOL0     H71223   6.760   9.843   4.670  1.6892 -0.9175  0.4020
  528MOL0     H71224   6.704   9.696   4.594 -0.3964  1.9956 -0.7952
  528MOL0     H71225   6.664   9.582   4.786  1.0038 -0.0477 -0.3554
  528MOL0     H71226   6.781   9.660   4.883  0.0429 -2.5578 -0.4850
  528MOL0     H71227   6.675   9.854   4.923 -1.5507  0.1762  1.2587
  528MOL0     H71228   6.552   9.822   4.791  0.6182  0.4813 -0.9045
  528MOL0     H71229   6.430   9.811   4.982 -0.8040 -1.0863 -0.2956
  528MOL0     H71230   6.553   9.703   5.067  2.4124  0.3683 -1.6378
  528MOL0     H71231   6.350   9.667   4.718  2.2375  1.0238  0.8206
  528MOL0     H71232   6.126   9.435   4.713 -1.0187 -1.3974 -2.5700
  528MOL0     H71233   6.262   9.473   4.619 -4.7617 -1.7550 -2.4526
  528MOL0     H71234   6.256   9.206   4.778  0.9076 -0.3731  0.3807
  528MOL0     H71235   6.353   9.241   4.633  0.1908  1.5271 -0.2328
  528MOL0     H71236   6.156   9.269   4.492 -1.6156  0.5842 -0.4427
  528MOL0     H71237   6.057   9.239   4.630 -1.3590 -1.0352 -2.8118
  528MOL0     H71238   6.166   9.001   4.648  1.5644 -1.3633 -1.7361
  528MOL0     H71239   6.277   9.058   4.525  0.2110 -0.8374  1.5372
  528MOL0     H71240   6.264   8.806   4.540 -0.0760 -1.7220 -0.1717
  528MOL0     H71241   6.328   8.507   4.357  0.6368  0.9046 -0.0562
  528MOL0     H71242   6.380   8.619   4.483 -0.6534  0.9165  1.5828
  528MOL0     H71243   6.259   8.490   4.516 -0.5163 -1.6378 -1.2682
  528MOL0     H71244   5.825   8.328   4.347 -3.5947 -1.1523  0.7442
  528MOL0     H71245   5.649   8.151   4.273  1.6174 -1.2963 -0.1794
  528MOL0     H71246   5.423   8.221   4.100 -0.6500  0.8739 -1.3244
  528MOL0     H71247   5.452   8.182   3.929 -1.3368  0.8229  0.9755
  528MOL0     H71248   5.384   7.939   4.020  0.3806 -0.8635  1.9558
  528MOL0     H71249   5.327   8.033   4.159 -1.1122  0.8450 -0.3995
  528MOL0     H71250   5.232   8.098   3.874  2.4900 -1.1075  0.3945
  528MOL0     H71251   5.134   8.099   4.027 -1.3525 -0.5561 -0.8412
  528MOL0     H71252   5.209   7.843   3.887  0.1421  2.6539 -2.9795
  528MOL0     H71253   5.091   7.880   4.029 -0.7385 -0.3651 -0.3753
  528MOL0     H71254   5.083   7.986   3.756  2.2296 -1.9865 -1.7299
  528MOL0     H71255   4.947   7.971   3.877  1.2017 -0.2144  2.1467
  528MOL0     H71256   5.086   7.737   3.752  0.0324 -1.1599  1.7169
  528MOL0     H71257   4.952   7.730   3.868  0.0598 -1.4803 -0.0558
  528MOL0     H71258   4.938   7.838   3.577  2.0918 -1.9727 -1.2586
  528MOL0     H71259   4.804   7.833   3.690 -0.0213 -0.1408  0.2205
  528MOL0     H71260   4.834   7.581   3.704 -1.0837  0.2972  0.6530
  528MOL0     H71261   4.982   7.605   3.593 -0.7497 -0.1838 -1.7290
  528MOL0     H71262   5.733   8.207   3.876  1.3735 -2.7685  0.3786
  528MOL0     H71263   5.903   8.361   3.913 -0.9784  0.0719  0.6157
  528MOL0     H71264   5.885   8.691   4.242 -0.5585  3.5532 -0.4135
  528MOL0     H71265   5.907   8.917   4.326 -0.8797 -2.3702  0.5851
  528MOL0     H71266   7.418   9.327   4.800  0.4595 -0.6912  3.6934
  528MOL0     H71267   7.451   9.083   4.781  0.0958  1.7442 -0.2560
  528MOL0     H71268   7.552   8.607   4.868 -0.5439 -2.9307  0.3533
  528MOL0     H71269   7.617   8.404   4.729 -0.1712 -0.2802 -1.4689
  528MOL0     H71270   7.559   8.200   4.649  2.3232 -1.0723 -1.2966
  528MOL0     H71271   7.539   8.151   4.475  1.9481 -1.2467 -1.5929
  528MOL0     H71272   7.763   8.320   4.591 -1.3369 -0.0717  0.2404
  528MOL0     H71273   7.732   8.295   4.424  1.6033  0.7024  0.8519
  528MOL0     H71274   7.786   8.060   4.436 -0.6656 -0.2778  0.3715
  528MOL0     H71275   7.738   8.047   4.609  2.3498 -1.8645  1.8748
  528MOL0     H71276   7.973   8.199   4.516 -2.0157  2.1988  0.8908
  528MOL0     H71277   7.992   8.039   4.581  0.5258  0.6709  1.3782
  528MOL0     H71278   7.951   8.206   4.960 -0.3452  0.8647 -0.5260
  528MOL0     H71279   7.360   8.549   4.428 -0.0304  1.7150 -0.0430
  528MOL0     H71280   7.331   8.749   4.523 -1.9029 -0.4694  1.7909
  529MOL0     O71281   9.127   8.159   0.799  0.5289 -0.8033  0.1386
  529MOL0     C71282   9.221   8.101   0.849  0.5174  0.0034  1.0254
  529MOL0     O71283   9.211   7.985   0.907 -0.6907 -0.1838 -0.2062
  529MOL0     C71284   9.094   7.937   0.939 -0.1541  1.2924  0.0727
  529MOL0     C71285   9.058   7.809   0.881 -0.9753 -0.4747  0.7262
  529MOL0     C71286   8.935   7.755   0.906 -0.1169 -0.0072  0.6076
  529MOL0     C71287   8.843   7.818   0.991  0.3072 -0.8013  0.0763
  529MOL0     O71288   8.722   7.759   1.009  0.4519 -0.2179 -0.1257
  529MOL0     C71289   8.604   7.839   0.987  0.0189 -0.2865  0.1759
  529MOL0     C71290   8.475   7.808   1.067 -0.4350 -0.0246  0.0921
  529MOL0     C71291   8.415   7.674   1.023 -0.2315  0.5601 -0.3898
  529MOL0     C71292   8.289   7.647   1.109 -0.1367  0.3627  0.2081
  529MOL0     C71293   8.186   7.553   1.050 -0.5221 -0.6946  0.8873
  529MOL0     C71294   8.242   7.409   1.078  0.5318 -0.1077  0.1533
  529MOL0     C71295   8.144   7.294   1.027  0.3521  0.1627 -0.2471
  529MOL0     C71296   8.208   7.156   1.006 -0.6342  0.2211 -1.0199
  529MOL0     N71297   8.288   7.113   1.121 -0.1725  0.0499 -0.3310
  529MOL0     C71298   8.425   7.121   1.127  0.3348  0.0971  0.4015
  529MOL0     C71299   8.466   7.046   1.237  0.5274 -1.4079  0.4664
  529MOL0     C71300   8.609   7.015   1.263 -1.5503 -1.0026 -0.7624
  529MOL0     C71301   8.660   7.116   1.371  0.1655 -0.3587  0.6312
  529MOL0     C71302   8.813   7.148   1.358  0.7733  0.6906  0.0156
  529MOL0     C71303   8.890   7.015   1.375  1.0466 -0.5491  0.4960
  529MOL0     O71304   9.029   7.049   1.409  0.9988  0.5892  0.0800
  529MOL0     C71305   9.098   6.955   1.465 -1.1237  0.7790 -0.6228
  529MOL0     C71306   9.065   6.820   1.482  0.2997 -0.0067  0.6704
  529MOL0     C71307   9.154   6.725   1.529  0.7345  0.5929 -0.8003
  529MOL0     C71308   9.120   6.582   1.511  0.5704 -0.1750  0.2002
  529MOL0     C71309   9.278   6.763   1.583 -0.2813 -0.3520 -0.4942
  529MOL0     C71310   9.379   6.676   1.631 -0.2880  0.0216 -0.1199
  529MOL0     O71311   9.336   6.565   1.708  0.0875  0.2569 -0.4692
  529MOL0     C71312   9.429   6.477   1.745  0.0761  0.4782 -0.5630
  529MOL0     C71313   9.514   6.402   1.654 -0.2782 -0.9355 -0.9030
  529MOL0     C71314   9.604   6.305   1.698 -0.2274 -0.3344  0.0737
  529MOL0     C71315   9.623   6.293   1.842 -0.6107  0.2266  0.4755
  529MOL0     O71316   9.718   6.217   1.897 -0.6536 -0.3078  0.2763
  529MOL0     C71317   9.761   6.095   1.844 -0.7415  0.1945  0.2679
  529MOL0     C71318   9.884   6.051   1.922  0.4285  0.6925 -0.0424
  529MOL0     C71319   9.921   5.911   1.867  0.4318  0.2369  0.2103
  529MOL0     C71320  10.059   5.879   1.913 -0.2951 -0.2417 -0.0581
  529MOL0     C71321  10.097   5.734   1.894  0.0806 -0.2821  0.6535
  529MOL0     C71322  10.246   5.717   1.951  0.9321  0.8166 -0.0898
  529MOL0     C71323  10.289   5.567   1.963 -0.4231 -0.3065 -0.3578
  529MOL0     C71324  10.384   5.513   1.861  0.1187  0.0941 -0.2608
  529MOL0    Cl71325  10.353   5.577   1.693  0.1839 -0.0177  0.4387
  529MOL0     C71326   9.548   6.371   1.924  0.0699  0.2160  0.9007
  529MOL0     C71327   9.441   6.450   1.880  0.3204 -0.2519  0.0735
  529MOL0     O71328   9.494   6.687   1.596 -0.8225  0.0814 -0.4660
  529MOL0     C71329   9.311   6.898   1.582 -1.0179 -0.7010  1.6551
  529MOL0     C71330   9.225   6.989   1.520  1.4528 -0.1528 -0.7925
  529MOL0     N71331   8.351   7.011   1.298 -0.3090  0.5977 -0.5564
  529MOL0     N71332   8.245   7.056   1.240  0.0756  0.5430 -0.5762
  529MOL0     C71333   8.877   7.944   1.047 -0.3139  0.4688 -0.6406
  529MOL0     C71334   9.000   8.007   1.020 -0.1084  0.0466  0.0023
  529MOL0     C71335   9.361   8.152   0.837  0.4829 -0.6636 -1.0238
  529MOL0     C71336   9.475   8.072   0.836 -0.1179 -0.9578 -0.1758
  529MOL0     C71337   9.603   8.122   0.831  0.0574 -0.1517  0.8733
  529MOL0     C71338   9.623   8.264   0.826  0.4507 -0.1149  0.0066
  529MOL0     O71339   9.742   8.320   0.792  0.6551 -0.4063 -0.4247
  529MOL0     C71340   9.821   8.355   0.909  0.3250 -0.0334 -1.1470
  529MOL0     C71341   9.799   8.500   0.949 -0.3152  0.4193 -0.0663
  529MOL0     C71342   9.887   8.507   1.084  1.3003 -0.1110 -0.0045
  529MOL0     C71343   9.882   8.648   1.153  0.0524  1.3573  0.2562
  529MOL0     C71344   9.740   8.677   1.167 -0.1124 -0.1861 -0.2906
  529MOL0     C71345   9.622   8.691   1.179 -0.2241 -0.6865 -0.4024
  529MOL0     C71346   9.509   8.346   0.835 -1.1146  0.1992 -0.6212
  529MOL0     C71347   9.380   8.287   0.847 -0.1316 -0.1679  0.2490
  529MOL0     H71348   9.146   7.780   0.826 -2.1908 -0.7894 -1.1392
  529MOL0     H71349   8.921   7.655   0.864  1.6977 -0.4839  1.0235
  529MOL0     H71350   8.624   7.944   1.011  2.7855 -0.2998 -1.6195
  529MOL0     H71351   8.573   7.843   0.883  0.1937  1.8053  0.1574
  529MOL0     H71352   8.501   7.797   1.173 -0.6453  4.2187  0.7458
  529MOL0     H71353   8.412   7.897   1.058  0.2946  0.3363 -1.9031
  529MOL0     H71354   8.389   7.681   0.917 -2.0934  6.2785  0.1282
  529MOL0     H71355   8.485   7.590   1.038 -0.2463 -0.2706 -3.9545
  529MOL0     H71356   8.324   7.628   1.211 -1.8164  1.2883  1.0097
  529MOL0     H71357   8.231   7.739   1.120  1.2446  1.1712  1.0280
  529MOL0     H71358   8.093   7.572   1.104 -1.2484 -0.3880 -0.4254
  529MOL0     H71359   8.179   7.573   0.942 -0.0749 -0.9555  0.8102
  529MOL0     H71360   8.334   7.398   1.020  0.2266 -2.3439  0.0084
  529MOL0     H71361   8.253   7.389   1.185 -1.8064  0.4420  0.5545
  529MOL0     H71362   8.063   7.279   1.099  0.7293 -1.6685 -0.1508
  529MOL0     H71363   8.087   7.325   0.939  1.2818 -1.6978 -1.5703
  529MOL0     H71364   8.270   7.165   0.916  0.4260  0.9484 -0.2292
  529MOL0     H71365   8.130   7.081   0.987 -0.0852 -0.7109  0.2736
  529MOL0     H71366   8.497   7.170   1.062  1.2313 -1.2758  0.2990
  529MOL0     H71367   8.614   6.911   1.296 -1.2470 -0.1254  2.2843
  529MOL0     H71368   8.671   7.021   1.173  0.7174 -3.2955  0.5054
  529MOL0     H71369   8.647   7.064   1.466 -1.4622 -0.6817  0.2693
  529MOL0     H71370   8.607   7.212   1.376  2.0134  0.6699  1.1881
  529MOL0     H71371   8.837   7.226   1.430 -1.5376  1.9051 -0.4504
  529MOL0     H71372   8.840   7.192   1.261  0.2711  0.7897 -0.0846
  529MOL0     H71373   8.891   6.948   1.288  4.2787 -3.5891  2.6153
  529MOL0     H71374   8.833   6.959   1.450 -1.4843  1.5163  0.2328
  529MOL0     H71375   8.965   6.779   1.468 -0.2511  0.7310  2.2051
  529MOL0     H71376   9.062   6.570   1.419 -2.6036  2.3414  1.6907
  529MOL0     H71377   9.213   6.525   1.497  0.2301 -0.3686 -1.4618
  529MOL0     H71378   9.071   6.541   1.600  1.3051  0.9812  1.1616
  529MOL0     H71379   9.499   6.425   1.549  1.6203  1.7142 -0.7060
  529MOL0     H71380   9.654   6.237   1.630  0.5773 -0.4982  0.8070
  529MOL0     H71381   9.679   6.022   1.847  1.2492 -2.2304 -0.5229
  529MOL0     H71382   9.797   6.105   1.741 -0.1337  1.0084  0.5532
  529MOL0     H71383   9.964   6.126   1.915  1.7933 -0.7198 -0.0294
  529MOL0     H71384   9.865   6.030   2.028 -0.4394 -0.5993 -0.4416
  529MOL0     H71385   9.925   5.912   1.758 -3.5759 -0.9899 -0.0961
  529MOL0     H71386   9.851   5.834   1.898  0.7852  0.0874  0.6454
  529MOL0     H71387  10.131   5.950   1.873 -2.5479  2.6231  0.5746
  529MOL0     H71388  10.057   5.901   2.021  2.9853 -0.9568  0.2487
  529MOL0     H71389  10.081   5.702   1.791 -0.7174  1.7726  0.0942
  529MOL0     H71390  10.030   5.675   1.957  2.3893 -2.3723  1.3324
  529MOL0     H71391  10.313   5.776   1.887  2.1229 -0.0282  0.3444
  529MOL0     H71392  10.243   5.759   2.051 -1.8912 -0.7570  0.6015
  529MOL0     H71393  10.200   5.505   1.959  0.4932 -1.8287  1.5732
  529MOL0     H71394  10.329   5.554   2.064  2.0009  1.5951 -0.9509
  529MOL0     H71395  10.370   5.405   1.868 -1.0779  0.2969  0.8081
  529MOL0     H71396  10.487   5.536   1.892  0.1920  0.2444 -0.6129
  529MOL0     H71397   9.568   6.367   2.031  2.0743  1.9330  0.6643
  529MOL0     H71398   9.386   6.495   1.962 -0.6226  1.2362 -1.3226
  529MOL0     H71399   9.412   6.933   1.606 -0.1534 -0.0921 -2.1246
  529MOL0     H71400   9.259   7.090   1.499 -1.3738  0.8828 -0.7672
  529MOL0     H71401   8.799   7.979   1.115 -0.2927  0.0570 -0.4013
  529MOL0     H71402   9.014   8.103   1.069 -2.8113  0.1265  0.7823
  529MOL0     H71403   9.469   7.964   0.831 -2.5492 -0.8293 -1.5561
  529MOL0     H71404   9.693   8.066   0.809  0.6079  1.0821 -0.1245
  529MOL0     H71405   9.805   8.289   0.995 -1.5058  1.1607 -0.5153
  529MOL0     H71406   9.927   8.349   0.881  1.6567  1.8015  2.7145
  529MOL0     H71407   9.691   8.508   0.963 -0.3509 -2.5131  2.2369
  529MOL0     H71408   9.845   8.562   0.871 -1.4427 -3.1492 -3.9755
  529MOL0     H71409   9.991   8.473   1.078  1.7269  1.0128  0.7467
  529MOL0     H71410   9.838   8.431   1.146  0.3133  0.8725  0.4439
  529MOL0     H71411   9.924   8.710   1.073  2.3535 -1.4256 -0.8648
  529MOL0     H71412   9.925   8.668   1.251 -3.0876  0.2247  2.0093
  529MOL0     H71413   9.516   8.703   1.192 -0.2580  1.7037 -2.1470
  529MOL0     H71414   9.526   8.453   0.821 -0.8456  0.1664 -0.5559
  529MOL0     H71415   9.289   8.344   0.857  0.9601  2.0894 -1.5347
  530MOL0     O71416   1.987   9.216   4.769  0.1368 -0.4472  0.0003
  530MOL0     C71417   1.978   9.094   4.742 -0.1812  0.6734  1.2525
  530MOL0     O71418   1.875   9.018   4.779  0.1992  0.9029 -0.3229
  530MOL0     C71419   1.784   9.052   4.879 -0.0549 -0.1907 -0.4830
  530MOL0     C71420   1.647   9.007   4.885  0.7811  0.4125 -0.8806
  530MOL0     C71421   1.558   9.038   4.992 -1.0827  0.8709  0.0007
  530MOL0     C71422   1.599   9.112   5.099  0.0520  0.5347 -0.7543
  530MOL0     O71423   1.512   9.146   5.192 -0.2745 -0.6488 -0.2567
  530MOL0     C71424   1.553   9.235   5.301 -0.5370  0.0349  0.7861
  530MOL0     C71425   1.424   9.252   5.387  0.1016 -0.0120 -0.6244
  530MOL0     C71426   1.322   9.348   5.317  0.4857  0.0311 -1.3712
  530MOL0     C71427   1.187   9.360   5.383 -0.2481 -0.0135 -0.3273
  530MOL0     C71428   1.103   9.227   5.390 -0.0708 -0.5195  0.0784
  530MOL0     C71429   1.072   9.173   5.252  0.6502 -0.1772  0.0289
  530MOL0     C71430   1.156   9.058   5.205  0.5800 -0.5087 -0.6892
  530MOL0     C71431   1.107   8.992   5.079 -0.6452 -0.5020  0.2013
  530MOL0     N71432   1.162   8.856   5.063  0.0273 -0.0840 -0.1635
  530MOL0     C71433   1.176   8.746   5.151  0.0430 -0.5867  0.5135
  530MOL0     C71434   1.165   8.638   5.067  0.9752  0.0453 -0.2926
  530MOL0     C71435   1.188   8.498   5.123 -0.6050 -1.0075 -0.1257
  530MOL0     C71436   1.180   8.393   5.023  0.4421  0.5210 -0.2640
  530MOL0     C71437   1.044   8.355   4.970  0.3056 -0.1175  0.3540
  530MOL0     C71438   0.994   8.448   4.859 -0.4329 -0.3166  0.9267
  530MOL0     O71439   0.895   8.388   4.769 -0.6851 -0.1234 -0.0359
  530MOL0     C71440   0.767   8.379   4.799  1.5238  0.5464  0.3950
  530MOL0     C71441   0.683   8.304   4.712 -0.5953 -0.2204  0.0302
  530MOL0     C71442   0.546   8.291   4.746 -0.0249  0.1066 -0.5881
  530MOL0     C71443   0.462   8.208   4.641  0.6184  0.3744  0.3969
  530MOL0     C71444   0.488   8.346   4.864  0.8838  0.7204 -0.4234
  530MOL0     C71445   0.343   8.348   4.910  0.3306  0.0518 -0.3886
  530MOL0     O71446   0.318   8.386   5.034  0.4054  0.3922 -0.4321
  530MOL0     C71447   0.184   8.427   5.067  0.0101 -0.3332 -0.3871
  530MOL0     C71448   0.075   8.332   5.082 -0.5105  0.5243 -0.0840
  530MOL0     C71449  -0.057   8.370   5.124  0.0250  0.4685  1.0635
  530MOL0     C71450  -0.076   8.508   5.143  0.6925 -0.0298  0.0538
  530MOL0     O71451  -0.200   8.566   5.154  0.2013  0.7961  0.5524
  530MOL0     C71452  -0.308   8.496   5.213 -0.1696 -0.2646 -0.2462
  530MOL0     C71453  -0.424   8.589   5.218  0.2833  0.1423  0.3838
  530MOL0     C71454  -0.543   8.543   5.314  0.3138 -0.4853  0.6592
  530MOL0     C71455  -0.513   8.551   5.466 -0.3919 -0.0542  0.6377
  530MOL0     C71456  -0.616   8.502   5.560  0.9513  1.0860 -0.4367
  530MOL0     C71457  -0.765   8.540   5.537 -0.3520  0.3068 -0.1811
  530MOL0     C71458  -0.870   8.466   5.622 -0.1790  0.8621 -0.7302
  530MOL0     C71459  -0.963   8.357   5.541  0.7523  0.7166  0.0255
  530MOL0    Cl71460  -1.052   8.429   5.412  0.0452 -0.0157 -0.2613
  530MOL0     C71461   0.031   8.600   5.148  0.3382 -0.2253  0.2470
  530MOL0     C71462   0.161   8.559   5.094  0.0080 -0.9302  0.6989
  530MOL0     O71463   0.260   8.336   4.826 -0.2553 -0.2196  0.3029
  530MOL0     C71464   0.578   8.413   4.948 -0.0548  0.0580 -0.5294
  530MOL0     C71465   0.710   8.430   4.913  0.1118  0.1981 -0.5389
  530MOL0     N71466   1.145   8.684   4.936  0.3572 -0.5844  0.0333
  530MOL0     N71467   1.156   8.813   4.940  0.0229 -0.1923 -0.3732
  530MOL0     C71468   1.738   9.149   5.102 -0.3578  0.1889 -0.0717
  530MOL0     C71469   1.823   9.133   4.993  0.2746  0.1518  0.5536
  530MOL0     C71470   2.072   9.027   4.654  0.2423  0.6219 -0.9078
  530MOL0     C71471   2.204   9.073   4.635  0.5830 -0.0303  0.1690
  530MOL0     C71472   2.295   9.005   4.554  0.4831 -0.4305  0.7936
  530MOL0     C71473   2.267   8.891   4.482 -0.2004  0.1256  0.0242
  530MOL0     O71474   2.345   8.815   4.399 -0.5589  0.4432  0.1329
  530MOL0     C71475   2.461   8.871   4.350  0.6198  0.1601 -0.0074
  530MOL0     C71476   2.517   8.793   4.231 -0.1548  0.0415 -1.0458
  530MOL0     C71477   2.414   8.779   4.112 -0.2186 -0.0849 -0.6119
  530MOL0     C71478   2.361   8.910   4.059  0.1145  0.0643 -1.1343
  530MOL0     C71479   2.469   8.998   4.017 -0.6099  0.2452 -1.2060
  530MOL0     C71480   2.555   9.076   3.973  1.5789 -0.1771  0.2323
  530MOL0     C71481   2.141   8.836   4.503  0.4101 -0.7215  0.1454
  530MOL0     C71482   2.035   8.908   4.579  0.6618  0.2887 -0.0997
  530MOL0     H71483   1.617   8.924   4.823 -1.9792  1.3677 -0.9988
  530MOL0     H71484   1.474   8.971   5.009 -0.7276 -0.2150 -2.1696
  530MOL0     H71485   1.631   9.190   5.362  1.1927 -0.1817 -1.4691
  530MOL0     H71486   1.592   9.327   5.257  0.1353 -1.4890 -2.0187
  530MOL0     H71487   1.369   9.158   5.403 -0.0790  0.4301  1.7406
  530MOL0     H71488   1.447   9.285   5.489 -2.8166 -2.9081  1.1774
  530MOL0     H71489   1.380   9.440   5.307 -0.4464  0.9906  1.2859
  530MOL0     H71490   1.298   9.314   5.216  0.1333 -2.3715 -0.5458
  530MOL0     H71491   1.205   9.389   5.486  1.6888 -0.0841 -0.6119
  530MOL0     H71492   1.142   9.444   5.330  2.6133  0.8112 -1.6334
  530MOL0     H71493   1.159   9.153   5.447 -0.0477  0.0902  0.8605
  530MOL0     H71494   1.006   9.241   5.440  1.1523 -1.1362  2.7991
  530MOL0     H71495   0.967   9.144   5.240 -0.4195  3.3412 -0.3593
  530MOL0     H71496   1.087   9.251   5.177 -1.1093 -0.8165 -1.0692
  530MOL0     H71497   1.258   9.095   5.192  0.2430 -0.0143 -1.9842
  530MOL0     H71498   1.158   8.981   5.283  3.3857  2.1723  2.1777
  530MOL0     H71499   1.143   9.053   4.996  2.7126 -0.2666  1.6422
  530MOL0     H71500   0.998   8.989   5.067 -0.8177  0.9644  1.0421
  530MOL0     H71501   1.202   8.743   5.256 -0.1049  1.1684  0.6181
  530MOL0     H71502   1.292   8.512   5.154 -1.2249  3.3841  0.6121
  530MOL0     H71503   1.120   8.481   5.207 -2.1818  1.6561 -0.7508
  530MOL0     H71504   1.220   8.302   5.068  0.1071  0.2682 -0.4806
  530MOL0     H71505   1.246   8.415   4.938 -0.4453 -0.7597 -1.3176
  530MOL0     H71506   0.962   8.360   5.043 -0.9909 -1.8833 -0.8935
  530MOL0     H71507   1.053   8.252   4.934 -0.1007  0.4528 -1.4856
  530MOL0     H71508   1.081   8.474   4.799 -0.2836 -0.9338  0.8787
  530MOL0     H71509   0.956   8.546   4.891 -1.9553  0.3559 -2.4553
  530MOL0     H71510   0.728   8.255   4.626 -2.1150  1.1871 -1.6577
  530MOL0     H71511   0.524   8.163   4.564  1.6261 -0.2787  1.5583
  530MOL0     H71512   0.402   8.134   4.695  0.4729  1.5040  1.8501
  530MOL0     H71513   0.389   8.265   4.582  1.5793  3.1532  1.7441
  530MOL0     H71514   0.081   8.229   5.047 -1.3849  0.2788  0.4444
  530MOL0     H71515  -0.135   8.295   5.131  0.7854 -0.4331  0.3071
  530MOL0     H71516  -0.329   8.398   5.169 -1.3713 -0.5994  1.0153
  530MOL0     H71517  -0.278   8.463   5.313  3.8699 -1.2845 -1.6146
  530MOL0     H71518  -0.386   8.686   5.251 -0.2437  0.4501  0.0940
  530MOL0     H71519  -0.472   8.603   5.120  1.9853 -1.4824 -0.7659
  530MOL0     H71520  -0.574   8.443   5.282 -3.9512  0.5548  0.9508
  530MOL0     H71521  -0.629   8.606   5.289  0.2359 -0.7715  0.2075
  530MOL0     H71522  -0.425   8.488   5.480 -0.6150 -1.3012 -2.7168
  530MOL0     H71523  -0.500   8.655   5.495 -0.1390  0.9952 -2.8251
  530MOL0     H71524  -0.581   8.530   5.661 -0.3021 -0.2293  0.3907
  530MOL0     H71525  -0.627   8.394   5.554 -1.4826  1.1339  1.6803
  530MOL0     H71526  -0.780   8.647   5.553  4.1775  1.2937 -1.2924
  530MOL0     H71527  -0.785   8.528   5.430  0.6912 -2.5021 -0.1402
  530MOL0     H71528  -0.933   8.535   5.678 -0.6070 -0.5541  0.6284
  530MOL0     H71529  -0.811   8.409   5.695  1.2107 -0.3433 -2.6915
  530MOL0     H71530  -1.035   8.306   5.605  0.9696  0.6978  0.2572
  530MOL0     H71531  -0.910   8.269   5.502 -0.4137  0.1900 -0.4121
  530MOL0     H71532  -0.001   8.700   5.174 -0.8239 -0.5182  0.0375
  530MOL0     H71533   0.244   8.630   5.097  0.9697 -1.9390 -0.5201
  530MOL0     H71534   0.544   8.462   5.039 -0.3195  0.1944 -0.6991
  530MOL0     H71535   0.778   8.481   4.980  0.4900 -0.6342 -0.2799
  530MOL0     H71536   1.791   9.191   5.187  2.1364 -3.1304  0.1994
  530MOL0     H71537   1.919   9.181   5.003 -0.0401  2.0383 -3.4212
  530MOL0     H71538   2.233   9.169   4.677  1.8821 -0.1002 -0.5130
  530MOL0     H71539   2.393   9.050   4.539 -1.2856  4.3589  1.8538
  530MOL0     H71540   2.444   8.974   4.318 -2.7362 -0.4528 -0.5345
  530MOL0     H71541   2.531   8.864   4.435  2.1607 -3.9587 -1.3563
  530MOL0     H71542   2.540   8.693   4.267 -0.1799  0.4145  0.0411
  530MOL0     H71543   2.611   8.841   4.201 -0.5958  0.7093 -1.3907
  530MOL0     H71544   2.334   8.708   4.134 -1.4656  1.0737 -1.2724
  530MOL0     H71545   2.485   8.742   4.038  2.6537  0.1383  1.8264
  530MOL0     H71546   2.304   8.968   4.133  0.8772 -0.7388  0.1136
  530MOL0     H71547   2.297   8.896   3.971 -0.6409  2.2700 -1.0017
  530MOL0     H71548   2.630   9.136   3.925  0.6814  1.2104  0.5078
  530MOL0     H71549   2.123   8.743   4.448 -1.4419  0.0222 -0.6106
  530MOL0     H71550   1.939   8.860   4.593 -1.6428  4.3981 -0.3201
  531MOL0     O71551   1.456   0.370   4.273  0.3050  0.0479  0.1010
  531MOL0     C71552   1.459   0.346   4.394  0.1171  0.0560 -0.0921
  531MOL0     O71553   1.379   0.266   4.464  0.1959 -0.3964  1.2251
  531MOL0     C71554   1.275   0.203   4.385  0.3686  0.2966 -1.0247
  531MOL0     C71555   1.164   0.265   4.336  0.9478 -0.4140  1.4412
  531MOL0     C71556   1.077   0.186   4.247 -0.0548  0.3479 -0.7044
  531MOL0     C71557   1.091   0.048   4.236 -0.6931 -0.7485  0.6738
  531MOL0     O71558   1.011  -0.017   4.152  1.0997  0.6400  0.1106
  531MOL0     C71559   1.047  -0.159   4.121  0.0939  0.2069 -0.2112
  531MOL0     C71560   0.966  -0.237   4.022  0.0918  0.6718  0.2621
  531MOL0     C71561   0.820  -0.245   4.058  1.6487 -0.0595 -0.2591
  531MOL0     C71562   0.734  -0.323   3.957  0.2413  0.0401  0.7243
  531MOL0     C71563   0.727  -0.268   3.814  0.2093  0.0320  1.0025
  531MOL0     C71564   0.624  -0.162   3.792  0.5008 -0.4274 -0.0784
  531MOL0     C71565   0.629  -0.036   3.877  0.0071 -0.6856  0.1702
  531MOL0     C71566   0.520   0.065   3.817  0.2386  0.3719  0.4445
  531MOL0     N71567   0.379   0.020   3.774 -0.8504  0.3623  0.3317
  531MOL0     C71568   0.279  -0.024   3.857 -0.1384  0.2583 -0.5299
  531MOL0     C71569   0.181  -0.057   3.772 -0.0933 -1.0830 -0.1766
  531MOL0     C71570   0.054  -0.125   3.821 -1.2385 -0.1226 -0.5646
  531MOL0     C71571  -0.045  -0.037   3.886  0.6675  0.7423 -0.1554
  531MOL0     C71572  -0.141  -0.110   3.971  0.2135  0.7159 -0.5904
  531MOL0     C71573  -0.247  -0.012   4.042 -0.1654 -0.3720 -0.3206
  531MOL0     O71574  -0.322   0.045   3.941 -0.7927  0.8193  0.2595
  531MOL0     C71575  -0.450   0.082   3.969 -0.0452 -0.5476 -0.7317
  531MOL0     C71576  -0.537   0.076   3.862  0.1661 -0.3654  0.6950
  531MOL0     C71577  -0.676   0.112   3.871  0.0297  0.1255  0.2390
  531MOL0     C71578  -0.761   0.120   3.749 -0.6861  0.1289 -0.3516
  531MOL0     C71579  -0.731   0.128   4.012 -0.8334  0.9162 -0.3512
  531MOL0     C71580  -0.866   0.133   4.059  0.9416  0.6024  1.6078
  531MOL0     O71581  -0.963   0.113   3.959 -0.6822 -0.0464 -0.2274
  531MOL0     C71582  -1.089   0.159   3.974  0.3828 -0.1511  0.9459
  531MOL0     C71583  -1.183   0.100   3.899 -0.9703 -0.1570 -0.0867
  531MOL0     C71584  -1.313   0.145   3.908 -0.3525 -0.6491  0.8182
  531MOL0     C71585  -1.351   0.256   3.984  0.4875 -0.0747 -0.8042
  531MOL0     O71586  -1.489   0.293   3.994  0.3308  0.4606  0.0269
  531MOL0     C71587  -1.537   0.417   4.040  0.0052 -0.6820 -0.0466
  531MOL0     C71588  -1.513   0.537   3.937 -0.9981  0.1647 -0.3548
  531MOL0     C71589  -1.635   0.554   3.838  0.8248  1.5394  0.3306
  531MOL0     C71590  -1.652   0.693   3.768 -0.7187  0.7281 -0.2032
  531MOL0     C71591  -1.525   0.720   3.684  1.2930 -0.5328 -0.7683
  531MOL0     C71592  -1.526   0.861   3.616  0.9443 -0.1871  0.1157
  531MOL0     C71593  -1.640   0.874   3.505 -0.3479  0.6232 -0.6807
  531MOL0     C71594  -1.614   1.010   3.433  0.4378 -0.5667  0.4194
  531MOL0    Cl71595  -1.736   1.032   3.309  0.0477 -0.1937 -0.7200
  531MOL0     C71596  -1.254   0.326   4.058  0.0894  0.0808  1.0899
  531MOL0     C71597  -1.122   0.281   4.042  0.2530  0.2388  0.1756
  531MOL0     O71598  -0.896   0.152   4.178  0.4218  0.2330 -0.0225
  531MOL0     C71599  -0.637   0.132   4.117 -1.2594 -0.8690 -0.1171
  531MOL0     C71600  -0.499   0.118   4.097  0.1671  0.6141 -0.0026
  531MOL0     N71601   0.219  -0.043   3.643 -0.0759  0.3634  0.0419
  531MOL0     N71602   0.346  -0.002   3.647  0.3107 -0.0527 -0.3786
  531MOL0     C71603   1.202  -0.007   4.303 -0.3420 -0.3606  1.2804
  531MOL0     C71604   1.293   0.067   4.363  0.1070 -0.0972 -0.7399
  531MOL0     C71605   1.556   0.424   4.476 -0.9306  0.2253  1.1084
  531MOL0     C71606   1.550   0.437   4.620 -0.3763 -0.7368  0.5675
  531MOL0     C71607   1.636   0.533   4.682  0.4757 -0.0600 -0.1214
  531MOL0     C71608   1.745   0.593   4.609 -0.4708 -0.3601 -1.1329
  531MOL0     O71609   1.846   0.665   4.668 -0.3239 -0.4968 -0.6169
  531MOL0     C71610   1.833   0.701   4.805 -0.0487 -0.4004 -0.0499
  531MOL0     C71611   1.948   0.779   4.867  0.6632 -0.1363 -0.0398
  531MOL0     C71612   2.079   0.709   4.841  0.5462  0.4836 -0.2013
  531MOL0     C71613   2.173   0.768   4.936 -1.0053  0.3837  1.1621
  531MOL0     C71614   2.310   0.715   4.928 -0.1160 -0.7592 -0.3212
  531MOL0     C71615   2.420   0.666   4.909 -0.3863  0.2308 -0.1272
  531MOL0     C71616   1.759   0.560   4.480 -0.0539 -0.1503  1.0246
  531MOL0     C71617   1.663   0.483   4.412  0.0024  0.6753  0.5548
  531MOL0     H71618   1.153   0.372   4.342 -2.2721 -0.4703 -0.8280
  531MOL0     H71619   0.998   0.228   4.185  0.1824  0.1179 -1.1650
  531MOL0     H71620   1.150  -0.173   4.087 -0.8220 -3.4379 -1.9065
  531MOL0     H71621   1.025  -0.218   4.210 -2.0273  0.0421 -0.7915
  531MOL0     H71622   0.969  -0.184   3.926 -2.4850 -0.5256 -0.5816
  531MOL0     H71623   0.999  -0.340   4.007 -2.3655  0.1674 -2.9572
  531MOL0     H71624   0.799  -0.270   4.163  1.5313  0.1360 -0.2349
  531MOL0     H71625   0.781  -0.143   4.061 -2.3179 -1.4055 -0.6105
  531MOL0     H71626   0.769  -0.427   3.952 -1.6712 -0.5664 -2.6581
  531MOL0     H71627   0.631  -0.329   3.992 -0.1177  2.4737  0.2134
  531MOL0     H71628   0.819  -0.216   3.784  0.3684 -0.9143 -0.2293
  531MOL0     H71629   0.711  -0.359   3.755  0.4073 -0.4799  1.7228
  531MOL0     H71630   0.643  -0.125   3.690 -1.7862  0.8585 -0.1263
  531MOL0     H71631   0.524  -0.204   3.806 -0.3319  0.7467 -2.0149
  531MOL0     H71632   0.597  -0.050   3.981 -2.5623 -0.2406 -0.4945
  531MOL0     H71633   0.729   0.007   3.889  0.8356 -2.3280 -0.6092
  531MOL0     H71634   0.558   0.108   3.723 -0.3943 -0.8042 -0.3708
  531MOL0     H71635   0.507   0.140   3.896  0.6212 -0.2713  1.1306
  531MOL0     H71636   0.277  -0.023   3.966  4.2181 -2.0735 -0.1738
  531MOL0     H71637   0.004  -0.177   3.740 -0.0757  0.2936 -1.5855
  531MOL0     H71638   0.091  -0.199   3.893 -1.9190 -1.5638 -1.6724
  531MOL0     H71639  -0.085   0.017   3.799  1.4096 -1.0749 -1.7006
  531MOL0     H71640   0.011   0.029   3.953 -0.5691  1.8301 -0.1404
  531MOL0     H71641  -0.085  -0.167   4.044 -1.1298 -2.0757 -1.5902
  531MOL0     H71642  -0.206  -0.175   3.911  0.5284 -0.6915  0.5636
  531MOL0     H71643  -0.194   0.066   4.096 -1.1999  1.2585 -1.5787
  531MOL0     H71644  -0.303  -0.065   4.121  2.3275  1.2194  2.7383
  531MOL0     H71645  -0.490   0.043   3.770 -0.2194  1.2270 -0.1130
  531MOL0     H71646  -0.694   0.108   3.664  2.2388  2.4690  1.4097
  531MOL0     H71647  -0.834   0.040   3.756 -0.1947 -0.3893 -1.0925
  531MOL0     H71648  -0.809   0.218   3.737 -0.2330  0.1204 -2.7048
  531MOL0     H71649  -1.183   0.006   3.846  4.0293 -2.0697  2.6194
  531MOL0     H71650  -1.389   0.103   3.844 -1.0957  0.8672  0.6662
  531MOL0     H71651  -1.646   0.407   4.039  0.0842 -1.6886 -0.7286
  531MOL0     H71652  -1.484   0.449   4.130  2.7353  1.0337 -2.0727
  531MOL0     H71653  -1.485   0.632   3.984 -0.8213  0.3051 -0.7369
  531MOL0     H71654  -1.429   0.520   3.870 -0.7140  3.9527 -1.2040
  531MOL0     H71655  -1.730   0.538   3.891  1.6080  1.4630  1.7400
  531MOL0     H71656  -1.627   0.477   3.760  1.0180  0.1880  1.6366
  531MOL0     H71657  -1.741   0.703   3.705 -2.2141 -2.5740  1.1279
  531MOL0     H71658  -1.662   0.763   3.852  1.3931  0.3759  0.4124
  531MOL0     H71659  -1.532   0.642   3.608 -4.9775 -0.1866 -1.0858
  531MOL0     H71660  -1.434   0.721   3.745 -0.1771  1.8632  1.5897
  531MOL0     H71661  -1.556   0.936   3.690 -0.3972  0.3979 -0.9743
  531MOL0     H71662  -1.421   0.883   3.591  2.6183 -3.3177  3.4174
  531MOL0     H71663  -1.738   0.887   3.549 -0.0731  1.9242 -0.4074
  531MOL0     H71664  -1.646   0.796   3.428 -3.6983  2.6175 -2.6703
  531MOL0     H71665  -1.514   1.015   3.390  2.0602  0.3736  3.9289
  531MOL0     H71666  -1.621   1.085   3.512  0.3424  0.3099 -0.4001
  531MOL0     H71667  -1.283   0.412   4.118  0.8341  0.1387  1.3781
  531MOL0     H71668  -1.048   0.346   4.087  3.2147 -1.2660 -2.1288
  531MOL0     H71669  -0.660   0.147   4.222  0.1606  3.4049 -0.2075
  531MOL0     H71670  -0.430   0.135   4.180 -1.7439  0.3128  1.7239
  531MOL0     H71671   1.221  -0.114   4.306 -1.6854 -0.6505  0.2886
  531MOL0     H71672   1.376   0.034   4.424 -0.3613 -1.6433 -0.8876
  531MOL0     H71673   1.475   0.382   4.677  0.4237 -1.3123  1.0905
  531MOL0     H71674   1.624   0.561   4.786 -3.2571 -1.8013  0.0724
  531MOL0     H71675   1.733   0.743   4.821  0.2483  0.5440 -0.6085
  531MOL0     H71676   1.823   0.603   4.853  1.9506 -0.9738 -0.6999
  531MOL0     H71677   1.922   0.809   4.969 -1.6602 -0.7565 -0.3868
  531MOL0     H71678   1.956   0.874   4.813 -1.9470 -0.3787 -1.0088
  531MOL0     H71679   2.122   0.713   4.740 -0.4782  3.7641 -0.6075
  531MOL0     H71680   2.069   0.601   4.858 -1.4241  0.7587  0.6783
  531MOL0     H71681   2.135   0.762   5.038  0.8834 -0.0817  1.8713
  531MOL0     H71682   2.177   0.875   4.910 -0.1247  0.3348  1.0572
  531MOL0     H71683   2.511   0.616   4.885  0.6902  1.0251  1.9852
  531MOL0     H71684   1.844   0.596   4.422 -0.1680 -3.5953 -1.6056
  531MOL0     H71685   1.678   0.468   4.305  2.1996  0.8908  0.7907
  532MOL0     O71686  10.972  10.032   2.015 -0.7665 -0.9181 -0.4829
  532MOL0     C71687  11.086  10.052   2.053 -0.1698  0.0629 -0.7047
  532MOL0     O71688  11.145   9.989   2.166  1.5565  0.1977 -0.4884
  532MOL0     C71689  11.092   9.886   2.238  0.3194  0.4608  0.3050
  532MOL0     C71690  10.960   9.835   2.236 -0.0561 -0.8801  0.2879
  532MOL0     C71691  10.928   9.731   2.320  0.6860 -0.5577  1.3800
  532MOL0     C71692  11.016   9.686   2.421  0.5033 -0.4292  0.0301
  532MOL0     O71693  10.967   9.589   2.499  0.0807 -0.3114  0.1968
  532MOL0     C71694  10.995   9.580   2.637 -0.2167  0.1913 -0.1756
  532MOL0     C71695  11.094   9.460   2.658 -0.4415 -0.1985  0.1681
  532MOL0     C71696  11.147   9.466   2.802 -0.8006 -0.2435 -0.3944
  532MOL0     C71697  11.282   9.532   2.804 -0.2955 -0.1136 -0.3677
  532MOL0     C71698  11.350   9.526   2.939  0.4020 -0.2697  0.1156
  532MOL0     C71699  11.271   9.607   3.042  0.0030  0.3123  0.4666
  532MOL0     C71700  11.267   9.758   3.008  0.6536 -0.4295  0.2358
  532MOL0     C71701  11.283   9.843   3.135  0.6746  0.0977 -0.2976
  532MOL0     N71702  11.293   9.987   3.102  0.4719 -0.3449  0.8812
  532MOL0     C71703  11.190  10.060   3.055  0.3284 -0.4250 -0.3940
  532MOL0     C71704  11.232  10.186   3.056 -0.3655 -0.7991  0.4149
  532MOL0     C71705  11.172  10.312   3.000  0.1275  0.5000  0.8162
  532MOL0     C71706  11.028  10.319   3.045 -0.4232 -0.0905 -0.3706
  532MOL0     C71707  10.987  10.465   3.044 -0.0017 -0.8341 -0.6198
  532MOL0     C71708  10.832  10.474   3.033  0.6091 -0.6479 -0.8586
  532MOL0     O71709  10.785  10.412   3.151  0.1836  0.0683  0.0267
  532MOL0     C71710  10.650  10.385   3.161  0.4255  0.7388  0.5021
  532MOL0     C71711  10.555  10.441   3.074  0.1277  0.1762 -0.3568
  532MOL0     C71712  10.417  10.414   3.080 -0.0585 -0.5913  0.1174
  532MOL0     C71713  10.319  10.483   2.984 -0.9183  0.4898  0.6069
  532MOL0     C71714  10.371  10.350   3.197  0.3881  0.9587  0.0496
  532MOL0     C71715  10.225  10.325   3.229 -0.2875 -0.8345  0.4173
  532MOL0     O71716  10.129  10.362   3.137  0.4742  0.5457  0.7858
  532MOL0     C71717   9.997  10.340   3.156 -0.8546 -0.0022  0.5707
  532MOL0     C71718   9.935  10.260   3.260 -0.3839  0.0707 -0.3889
  532MOL0     C71719   9.792  10.256   3.269 -0.0515  0.0751 -0.0085
  532MOL0     C71720   9.713  10.327   3.187  0.4786 -0.5362 -0.4337
  532MOL0     O71721   9.578  10.321   3.190 -0.5337  0.2676  0.3584
  532MOL0     C71722   9.521  10.284   3.318 -0.1151  0.4071 -0.1597
  532MOL0     C71723   9.373  10.305   3.319 -0.5526  0.2464 -0.1381
  532MOL0     C71724   9.329  10.425   3.222  0.1813 -0.0767  1.0622
  532MOL0     C71725   9.207  10.507   3.279  0.0107 -0.7653 -0.0703
  532MOL0     C71726   9.076  10.431   3.256 -0.2103  0.4569 -0.4223
  532MOL0     C71727   8.963  10.518   3.307 -0.5400  0.4310 -0.6761
  532MOL0     C71728   8.823  10.448   3.299 -0.3782 -0.1179 -0.3747
  532MOL0     C71729   8.710  10.533   3.239 -0.5134 -0.1631  0.6710
  532MOL0    Cl71730   8.568  10.430   3.223  0.4772  0.5948 -0.4536
  532MOL0     C71731   9.767  10.402   3.090 -0.0461 -0.1737  0.1200
  532MOL0     C71732   9.906  10.406   3.068  0.5269  0.1237 -0.6904
  532MOL0     O71733  10.210  10.277   3.340  0.3053 -0.1659 -0.3194
  532MOL0     C71734  10.464  10.298   3.288 -0.2838 -0.7375  0.5304
  532MOL0     C71735  10.603  10.315   3.276  0.4381  0.1818 -0.3806
  532MOL0     N71736  11.361  10.185   3.107  0.3154 -0.6684  0.0896
  532MOL0     N71737  11.399  10.065   3.126 -0.0390 -0.2098  0.6290
  532MOL0     C71738  11.142   9.731   2.415  0.2533  0.5380 -0.6021
  532MOL0     C71739  11.180   9.825   2.326 -0.2936  0.2553 -0.2848
  532MOL0     C71740  11.167  10.160   1.985  0.3850  0.3342  0.7656
  532MOL0     C71741  11.098  10.240   1.884  0.0528 -0.5342  0.1015
  532MOL0     C71742  11.177  10.326   1.809 -0.4618 -0.4422  0.2668
  532MOL0     C71743  11.316  10.332   1.826 -1.0103 -0.0059 -0.7194
  532MOL0     O71744  11.408  10.415   1.768 -0.1486  0.1400  0.5683
  532MOL0     C71745  11.348  10.511   1.679  0.5621 -0.7333 -0.0164
  532MOL0     C71746  11.457  10.596   1.615 -0.5049 -0.4964  0.0190
  532MOL0     C71747  11.558  10.498   1.543  0.0212 -0.5798  0.8422
  532MOL0     C71748  11.651  10.581   1.451  0.4211  0.6824  1.0256
  532MOL0     C71749  11.749  10.656   1.527  0.3595  0.1501  0.1360
  532MOL0     C71750  11.825  10.724   1.594  0.6963 -0.4107 -0.5521
  532MOL0     C71751  11.377  10.255   1.927  0.7269 -0.5826 -0.6896
  532MOL0     C71752  11.304  10.164   2.001  0.6910 -0.1920  0.7163
  532MOL0     H71753  10.884   9.867   2.166 -0.7713 -1.5151  0.7563
  532MOL0     H71754  10.824   9.703   2.310 -0.5705  3.1069  2.3514
  532MOL0     H71755  11.038   9.677   2.665  3.5386 -0.5737 -2.6394
  532MOL0     H71756  10.903   9.560   2.693  0.2760 -0.2875  0.4619
  532MOL0     H71757  11.061   9.358   2.637  0.4352 -0.1927 -1.3700
  532MOL0     H71758  11.181   9.470   2.592  0.8395 -2.7102  1.3166
  532MOL0     H71759  11.079   9.503   2.880 -2.9089 -0.5411 -2.0090
  532MOL0     H71760  11.148   9.360   2.827 -0.7935  0.3289  2.4066
  532MOL0     H71761  11.356   9.473   2.749 -0.6188 -2.5327  1.6123
  532MOL0     H71762  11.286   9.635   2.769 -2.9699 -0.0121 -0.5881
  532MOL0     H71763  11.354   9.429   2.988  1.4235 -0.5784 -0.5456
  532MOL0     H71764  11.449   9.566   2.918 -0.2691  0.6640 -1.4497
  532MOL0     H71765  11.168   9.573   3.059  0.3923  0.5356  3.9875
  532MOL0     H71766  11.322   9.592   3.137 -0.3129  0.6193  0.6903
  532MOL0     H71767  11.341   9.788   2.933  0.0018 -0.9189 -0.6245
  532MOL0     H71768  11.167   9.769   2.966  0.4121 -3.0199 -0.0813
  532MOL0     H71769  11.371   9.809   3.192 -0.3074  2.4097  2.8984
  532MOL0     H71770  11.198   9.827   3.201 -0.3390 -1.6952 -1.9433
  532MOL0     H71771  11.100  10.008   3.023 -1.0624  1.0911  0.8922
  532MOL0     H71772  11.231  10.400   3.028  0.7384  0.4228 -0.1803
  532MOL0     H71773  11.185  10.313   2.891 -1.2200 -1.3249  0.5996
  532MOL0     H71774  11.013  10.267   3.140 -0.9918 -1.7895 -1.3447
  532MOL0     H71775  10.976  10.263   2.966  0.3902 -3.1187  1.0796
  532MOL0     H71776  11.023  10.527   2.961 -2.6212  0.2604 -1.0267
  532MOL0     H71777  11.025  10.512   3.136  1.3958 -2.3764 -0.3552
  532MOL0     H71778  10.794  10.422   2.944 -0.3516  1.3550 -1.6963
  532MOL0     H71779  10.796  10.577   3.024  1.2945 -0.1975  1.0646
  532MOL0     H71780  10.574  10.509   2.992 -2.4089 -0.2787 -1.4202
  532MOL0     H71781  10.233  10.519   3.040 -1.4436 -4.6410  3.7120
  532MOL0     H71782  10.364  10.562   2.924 -4.6123 -0.2257 -3.6689
  532MOL0     H71783  10.289  10.405   2.913 -1.7047 -1.5320  2.9991
  532MOL0     H71784   9.990  10.202   3.334 -0.1904  2.4886  1.5156
  532MOL0     H71785   9.752  10.199   3.352  0.0235  0.8639  0.5915
  532MOL0     H71786   9.547  10.179   3.331 -1.6874 -0.0672 -0.5757
  532MOL0     H71787   9.559  10.345   3.400 -0.8285 -0.0575  0.5359
  532MOL0     H71788   9.323  10.210   3.300  0.7399 -0.8210  1.5690
  532MOL0     H71789   9.337  10.335   3.418 -1.4414  0.1881 -0.4305
  532MOL0     H71790   9.312  10.389   3.120 -0.7752  2.4130  0.2831
  532MOL0     H71791   9.419  10.486   3.210  0.5688 -0.8605 -0.3318
  532MOL0     H71792   9.209  10.521   3.387 -1.8982 -1.9369  0.1710
  532MOL0     H71793   9.196  10.609   3.242  2.0604  0.1698  1.7145
  532MOL0     H71794   9.081  10.336   3.308  3.4884  1.4559  1.4217
  532MOL0     H71795   9.076  10.407   3.149  0.6988 -2.6717  0.2030
  532MOL0     H71796   8.991  10.546   3.409 -1.4180 -2.1831  0.3703
  532MOL0     H71797   8.957  10.606   3.242 -1.7365 -1.1550 -2.8290
  532MOL0     H71798   8.782  10.426   3.398  1.1137  1.7455  0.7076
  532MOL0     H71799   8.843  10.357   3.241  0.4838 -2.2198  2.9607
  532MOL0     H71800   8.735  10.566   3.138 -2.5839 -1.2751 -0.2823
  532MOL0     H71801   8.690  10.623   3.299  0.4252  0.2745  0.3471
  532MOL0     H71802   9.691  10.448   3.027  0.8655  1.1458 -0.0628
  532MOL0     H71803   9.943  10.467   2.986 -0.1631 -1.1879 -2.0005
  532MOL0     H71804  10.437  10.253   3.383 -1.5835  2.0556  1.6310
  532MOL0     H71805  10.673  10.297   3.357 -0.6491  2.5653  1.2287
  532MOL0     H71806  11.214   9.699   2.490 -2.1529 -0.7235  1.3029
  532MOL0     H71807  11.282   9.864   2.328 -0.0277 -0.3468 -1.2318
  532MOL0     H71808  10.991  10.242   1.868  0.5021  0.6209 -3.7329
  532MOL0     H71809  11.132  10.388   1.732  1.1149 -0.0355 -0.3685
  532MOL0     H71810  11.287  10.457   1.606 -1.4308 -0.3902  1.3379
  532MOL0     H71811  11.283  10.582   1.730  2.0201  0.5651  0.1255
  532MOL0     H71812  11.523  10.642   1.689  1.1466 -1.2051 -0.9482
  532MOL0     H71813  11.408  10.670   1.552 -1.5105  0.9478  2.3647
  532MOL0     H71814  11.514  10.427   1.472 -1.9725  0.5727  0.8359
  532MOL0     H71815  11.615  10.434   1.611 -0.7860 -3.0747 -0.6803
  532MOL0     H71816  11.587  10.643   1.388 -2.5185  0.1512  3.2518
  532MOL0     H71817  11.707  10.509   1.390  1.8565  1.7917  1.0107
  532MOL0     H71818  11.893  10.783   1.652  0.3081 -0.6820  0.2008
  532MOL0     H71819  11.478  10.259   1.965  1.2379  1.3940 -2.1289
  532MOL0     H71820  11.357  10.108   2.078 -1.5519 -2.8664  0.4451
  533MOL0     O71821   8.663   0.984   1.877 -0.2180 -0.5745  0.3151
  533MOL0     C71822   8.722   0.930   1.785  0.9559  0.6748  1.1444
  533MOL0     O71823   8.731   0.985   1.657 -0.4066 -0.7496 -0.7463
  533MOL0     C71824   8.671   1.111   1.639 -0.3133  0.4116 -0.1146
  533MOL0     C71825   8.557   1.123   1.553  0.5185  0.4490  0.1890
  533MOL0     C71826   8.516   1.257   1.531  0.5427 -0.0668  0.4564
  533MOL0     C71827   8.568   1.373   1.587  0.0259 -0.0780 -0.6586
  533MOL0     O71828   8.506   1.488   1.551  0.0502  0.6626  0.2531
  533MOL0     C71829   8.491   1.589   1.648  0.4905 -0.8084 -0.6157
  533MOL0     C71830   8.395   1.694   1.592  0.8285 -0.4266  0.5155
  533MOL0     C71831   8.387   1.819   1.683 -0.2145 -0.3114  0.2498
  533MOL0     C71832   8.257   1.891   1.649  0.6431 -0.2528  0.1517
  533MOL0     C71833   8.217   1.998   1.748  0.7488  0.9241  0.2292
  533MOL0     C71834   8.217   1.936   1.891  0.1898  0.8441 -0.7693
  533MOL0     C71835   8.132   2.003   1.989 -0.8552  0.4998  0.2303
  533MOL0     C71836   8.173   2.149   2.014  0.3961  0.2136 -0.2853
  533MOL0     N71837   8.088   2.227   2.104 -1.3181 -0.0245  1.2513
  533MOL0     C71838   8.099   2.250   2.241 -0.1953  0.0209 -0.4048
  533MOL0     C71839   8.026   2.362   2.261 -0.2312  0.0521  0.1884
  533MOL0     C71840   8.032   2.412   2.406  0.9216 -0.2303 -0.1575
  533MOL0     C71841   7.897   2.488   2.431  0.9620 -0.7166 -0.1776
  533MOL0     C71842   7.775   2.388   2.439  0.6125 -0.2988  0.2909
  533MOL0     C71843   7.658   2.447   2.523 -0.5776  0.1887  0.6435
  533MOL0     O71844   7.618   2.342   2.618 -0.5272  0.1595  0.6750
  533MOL0     C71845   7.688   2.321   2.726 -0.0700  0.0875  0.0012
  533MOL0     C71846   7.814   2.366   2.760  1.4171 -0.3535  0.2652
  533MOL0     C71847   7.876   2.346   2.883  0.5973 -0.3512  0.3362
  533MOL0     C71848   8.009   2.412   2.906  0.2968  0.1733 -0.1182
  533MOL0     C71849   7.809   2.265   2.977  0.2085  1.1879  0.0785
  533MOL0     C71850   7.857   2.226   3.115  0.0799 -0.1635  0.5836
  533MOL0     O71851   7.986   2.250   3.152  0.7481  0.8529  0.3288
  533MOL0     C71852   8.025   2.184   3.269 -0.3791  0.0211  0.9114
  533MOL0     C71853   8.063   2.044   3.261  1.1468 -0.8723  0.0412
  533MOL0     C71854   8.097   1.990   3.383 -0.5999 -0.1544  0.7766
  533MOL0     C71855   8.114   2.071   3.496  0.2909 -0.3301  0.2315
  533MOL0     O71856   8.150   2.008   3.613  0.2748 -1.1469 -0.0666
  533MOL0     C71857   8.050   2.002   3.723 -0.8010  0.6335 -0.6092
  533MOL0     C71858   7.934   1.919   3.674  0.0938  0.5692  0.1551
  533MOL0     C71859   7.884   1.827   3.784 -0.2162 -0.7105  1.8544
  533MOL0     C71860   7.738   1.782   3.750  0.6874  0.2558 -0.1990
  533MOL0     C71861   7.701   1.671   3.850 -0.6207  0.0801 -0.3052
  533MOL0     C71862   7.554   1.630   3.840 -1.0846  0.1285 -0.0540
  533MOL0     C71863   7.497   1.553   3.959 -0.3351  0.3698  0.5171
  533MOL0     C71864   7.342   1.546   3.943 -1.2521  0.2788  1.2212
  533MOL0    Cl71865   7.292   1.472   3.786  0.0053 -0.1062  0.2614
  533MOL0     C71866   8.077   2.202   3.503  0.4843  0.7690  0.3278
  533MOL0     C71867   8.037   2.261   3.389 -0.1738 -0.5934 -0.3436
  533MOL0     O71868   7.765   2.190   3.192  0.5627  0.3084 -0.1963
  533MOL0     C71869   7.689   2.201   2.935 -0.3338  0.1863  0.3211
  533MOL0     C71870   7.630   2.240   2.818  0.4561 -0.5486 -0.2019
  533MOL0     N71871   7.979   2.412   2.145 -0.5590  0.3940  0.0792
  533MOL0     N71872   8.020   2.331   2.048  0.4285 -1.0736  0.6304
  533MOL0     C71873   8.693   1.354   1.655 -0.0910 -0.0663  0.3091
  533MOL0     C71874   8.738   1.225   1.689 -0.3140  0.1350 -0.3488
  533MOL0     C71875   8.790   0.803   1.817 -0.3366  0.5038 -0.3071
  533MOL0     C71876   8.862   0.732   1.721 -0.0744 -0.5357  0.0807
  533MOL0     C71877   8.937   0.623   1.751  0.0425  0.1779 -0.9949
  533MOL0     C71878   8.935   0.558   1.878  0.6112 -0.4058  1.0138
  533MOL0     O71879   9.000   0.449   1.912  0.1924  0.3251 -0.6103
  533MOL0     C71880   9.056   0.355   1.815 -0.1513  0.7364 -0.1384
  533MOL0     C71881   9.173   0.283   1.881 -0.1760 -0.2306  0.1162
  533MOL0     C71882   9.123   0.236   2.027 -0.5756 -0.2357 -0.4331
  533MOL0     C71883   9.234   0.132   2.090  0.3067 -0.7813 -0.0218
  533MOL0     C71884   9.253   0.009   2.015  0.8389  0.4622  1.1724
  533MOL0     C71885   9.275  -0.082   1.940 -0.2809  0.4063 -0.3679
  533MOL0     C71886   8.845   0.622   1.969 -0.0830  0.6839 -0.6877
  533MOL0     C71887   8.776   0.742   1.943 -1.0412 -0.1225 -0.8883
  533MOL0     H71888   8.500   1.041   1.512 -1.9724  1.0190  2.2561
  533MOL0     H71889   8.437   1.265   1.457  1.6552 -0.5197 -0.8308
  533MOL0     H71890   8.445   1.560   1.743 -0.6008  3.5117  0.3971
  533MOL0     H71891   8.585   1.643   1.665  0.4228 -0.5548 -1.0533
  533MOL0     H71892   8.416   1.736   1.493 -1.9240 -0.9247 -0.3766
  533MOL0     H71893   8.302   1.642   1.569  1.6761 -0.9852 -2.0663
  533MOL0     H71894   8.383   1.788   1.788 -0.2136 -3.5187 -0.5826
  533MOL0     H71895   8.469   1.888   1.662 -1.0782  0.3149 -1.2015
  533MOL0     H71896   8.251   1.942   1.552 -0.1681 -0.6958 -0.0389
  533MOL0     H71897   8.171   1.824   1.656 -0.6505  1.5058  2.2188
  533MOL0     H71898   8.292   2.078   1.748  2.6549 -0.7502  1.2121
  533MOL0     H71899   8.122   2.039   1.713  0.2273  0.9057  1.5551
  533MOL0     H71900   8.187   1.831   1.885 -0.1768  0.6233  2.8792
  533MOL0     H71901   8.320   1.938   1.928 -0.4255  3.8867  1.1124
  533MOL0     H71902   8.032   2.000   1.944 -0.5040 -0.7632 -0.5201
  533MOL0     H71903   8.125   1.945   2.081  2.3169  0.6403  0.6699
  533MOL0     H71904   8.190   2.200   1.919  0.1725  0.9430  0.0613
  533MOL0     H71905   8.272   2.149   2.062 -0.4825  2.4665  1.7106
  533MOL0     H71906   8.155   2.196   2.317  0.8023  2.3952  0.6500
  533MOL0     H71907   8.025   2.326   2.473 -4.0429  0.1430  0.1682
  533MOL0     H71908   8.114   2.482   2.421 -1.0476  2.3287 -0.5343
  533MOL0     H71909   7.880   2.556   2.347 -1.0058 -2.0184 -0.9013
  533MOL0     H71910   7.915   2.540   2.525  1.1850 -0.0060 -0.6078
  533MOL0     H71911   7.800   2.294   2.489 -3.1529 -1.0707  1.0235
  533MOL0     H71912   7.735   2.363   2.341 -0.3810  4.8766 -0.9127
  533MOL0     H71913   7.575   2.462   2.453  2.0142 -0.4845 -2.8704
  533MOL0     H71914   7.667   2.543   2.574 -2.0859 -0.9780  3.2886
  533MOL0     H71915   7.869   2.441   2.704  0.8776  1.2220  1.7594
  533MOL0     H71916   8.086   2.339   2.930  0.4924  0.7079  1.0022
  533MOL0     H71917   8.055   2.455   2.817  0.6480 -1.8895 -0.9800
  533MOL0     H71918   7.998   2.488   2.984  0.5984 -0.2407  0.3341
  533MOL0     H71919   8.057   1.977   3.176 -1.4761 -0.9742  0.2319
  533MOL0     H71920   8.139   1.889   3.383  2.6014  1.0496  0.6347
  533MOL0     H71921   8.111   1.970   3.808  1.7768  2.8587 -1.4778
  533MOL0     H71922   8.017   2.102   3.753  0.9375  1.1908 -0.4889
  533MOL0     H71923   7.846   1.977   3.642  0.3002 -0.7270 -3.0461
  533MOL0     H71924   7.965   1.850   3.595 -0.1613  0.9008 -0.2390
  533MOL0     H71925   7.888   1.868   3.885  3.6403 -0.3062  1.6736
  533MOL0     H71926   7.956   1.745   3.784  1.7463  0.8997  0.1538
  533MOL0     H71927   7.663   1.861   3.766  0.8047 -0.2509  3.6776
  533MOL0     H71928   7.717   1.756   3.646 -0.2768  0.2911 -0.0258
  533MOL0     H71929   7.704   1.716   3.950 -3.6557 -3.1308  1.4483
  533MOL0     H71930   7.768   1.586   3.836  2.6071  2.4350 -0.4716
  533MOL0     H71931   7.501   1.725   3.828  0.9438  1.5225  1.3386
  533MOL0     H71932   7.550   1.568   3.750  4.5420 -2.4778  1.0840
  533MOL0     H71933   7.511   1.598   4.058 -1.5182 -2.0129  1.8847
  533MOL0     H71934   7.552   1.458   3.959 -3.5993 -1.6664  1.0580
  533MOL0     H71935   7.285   1.637   3.961  0.6126  1.7883 -0.0850
  533MOL0     H71936   7.313   1.468   4.015 -0.9888  0.0972  1.1308
  533MOL0     H71937   8.086   2.253   3.598 -1.2445 -0.3342  1.1494
  533MOL0     H71938   7.990   2.359   3.387  3.8809  1.5354 -0.8333
  533MOL0     H71939   7.643   2.136   3.008  0.1813  2.1012  2.4502
  533MOL0     H71940   7.538   2.188   2.796 -0.8789  1.2706  0.7354
  533MOL0     H71941   8.754   1.440   1.681  0.3054 -0.7426  1.7326
  533MOL0     H71942   8.826   1.217   1.752 -1.6060  0.3546  1.5727
  533MOL0     H71943   8.862   0.772   1.620 -0.8366 -0.6268  0.0391
  533MOL0     H71944   8.996   0.593   1.665  1.0975  2.1554 -1.0165
  533MOL0     H71945   8.982   0.276   1.798  2.6411 -2.6957  2.1003
  533MOL0     H71946   9.093   0.397   1.721  1.2365 -3.0542 -1.5102
  533MOL0     H71947   9.251   0.359   1.884 -1.6380  1.3108  0.9693
  533MOL0     H71948   9.198   0.195   1.821  4.3588 -0.2987  1.7296
  533MOL0     H71949   9.021   0.197   2.024  0.0543 -1.9697 -0.4493
  533MOL0     H71950   9.118   0.320   2.097  0.1706 -2.5224  2.5398
  533MOL0     H71951   9.182   0.112   2.184 -0.9115 -0.1265 -0.5258
  533MOL0     H71952   9.329   0.179   2.116  0.6061 -1.6957  0.5595
  533MOL0     H71953   9.311  -0.152   1.867  0.5943  0.6761 -0.2169
  533MOL0     H71954   8.834   0.579   2.069 -1.5746  1.1948 -0.6094
  533MOL0     H71955   8.728   0.786   2.031 -0.7904 -1.3871 -0.0991
  534MOL0     O71956   7.794   5.637   6.374 -0.5590 -0.5095 -0.8150
  534MOL0     C71957   7.845   5.640   6.257  0.1235 -0.6547 -1.0636
  534MOL0     O71958   7.779   5.664   6.136 -0.6368 -0.4291 -0.6290
  534MOL0     C71959   7.652   5.702   6.126 -0.2241 -0.0188 -0.7830
  534MOL0     C71960   7.593   5.667   6.003  0.1859  0.0063 -0.2274
  534MOL0     C71961   7.469   5.722   5.969  0.3234  0.4093  1.3433
  534MOL0     C71962   7.395   5.791   6.063  0.8305  0.5559  0.7817
  534MOL0     O71963   7.268   5.832   6.025 -0.4430  0.3670 -0.1256
  534MOL0     C71964   7.168   5.858   6.130  0.6819  0.2936  0.0233
  534MOL0     C71965   7.028   5.848   6.064 -0.6188  0.4892 -0.8576
  534MOL0     C71966   6.922   5.923   6.155  0.7309 -0.0890 -0.6896
  534MOL0     C71967   6.783   5.901   6.106 -0.1269  0.3990  0.0862
  534MOL0     C71968   6.676   5.982   6.181 -0.0759  0.6741 -0.1287
  534MOL0     C71969   6.569   5.902   6.243  0.6278  0.2528 -0.2252
  534MOL0     C71970   6.459   5.982   6.300  0.2806 -0.2262 -0.2445
  534MOL0     C71971   6.344   5.918   6.388 -0.7130  0.2891  0.5565
  534MOL0     N71972   6.242   6.014   6.419  0.0590 -0.3693  0.2709
  534MOL0     C71973   6.128   6.014   6.349 -0.2855  0.0814 -0.2064
  534MOL0     C71974   6.051   6.107   6.413  0.0675  0.6612 -1.2220
  534MOL0     C71975   5.901   6.131   6.394 -0.3190 -0.0124  0.5328
  534MOL0     C71976   5.842   6.065   6.275  0.3967  0.6434 -0.0743
  534MOL0     C71977   5.898   6.118   6.141  0.2565 -0.6028 -0.4558
  534MOL0     C71978   5.788   6.107   6.031  0.6531  0.9532 -0.5715
  534MOL0     O71979   5.722   5.976   6.029 -0.7246  0.5643 -0.3228
  534MOL0     C71980   5.617   5.949   5.949  0.6407 -0.1987 -0.8849
  534MOL0     C71981   5.570   6.040   5.852 -0.1993  0.2224 -0.2016
  534MOL0     C71982   5.465   5.996   5.772 -0.0979  0.7241  0.7221
  534MOL0     C71983   5.416   6.085   5.663  0.1187 -0.5262 -0.9092
  534MOL0     C71984   5.408   5.866   5.791 -0.1777  0.8580 -0.4819
  534MOL0     C71985   5.302   5.810   5.714  0.5587 -0.1906  0.6595
  534MOL0     O71986   5.229   5.724   5.777  0.3667 -0.3070  0.6163
  534MOL0     C71987   5.112   5.666   5.725  0.3882  0.0107  0.3271
  534MOL0     C71988   4.997   5.735   5.697 -0.5349  0.3370 -0.2869
  534MOL0     C71989   4.886   5.674   5.650 -0.3114  0.2893  0.0587
  534MOL0     C71990   4.884   5.535   5.650 -0.3005  1.2977  1.0465
  534MOL0     O71991   4.772   5.454   5.636 -0.1348  0.6600  0.0473
  534MOL0     C71992   4.643   5.521   5.638 -0.0229  0.2900  0.4845
  534MOL0     C71993   4.541   5.426   5.690 -0.7593  0.7626 -0.0812
  534MOL0     C71994   4.397   5.474   5.664  0.0600  0.7423  0.0353
  534MOL0     C71995   4.286   5.367   5.653  0.0344  0.4723 -0.4336
  534MOL0     C71996   4.152   5.428   5.614  0.1762 -0.0273  0.2851
  534MOL0     C71997   4.044   5.318   5.617  0.5611 -0.0353 -0.0618
  534MOL0     C71998   3.916   5.374   5.561  0.5335 -0.4919  0.0594
  534MOL0     C71999   3.818   5.257   5.560  0.3764 -0.2607  1.1446
  534MOL0    Cl72000   3.673   5.323   5.479  0.1583 -0.3780  0.2144
  534MOL0     C72001   4.990   5.470   5.691  0.5937 -0.1207  0.3783
  534MOL0     C72002   5.107   5.535   5.729 -0.4675 -0.1249  0.7092
  534MOL0     O72003   5.280   5.851   5.595 -0.4364 -0.3353 -0.2670
  534MOL0     C72004   5.462   5.782   5.899 -0.1691 -0.6056  0.4680
  534MOL0     C72005   5.566   5.822   5.971  0.3277 -0.7219  0.4870
  534MOL0     N72006   6.135   6.161   6.513 -0.5083  0.2428 -0.1298
  534MOL0     N72007   6.252   6.113   6.503 -0.1152  0.2217  1.2012
  534MOL0     C72008   7.449   5.812   6.193  0.3235  0.0224  0.4065
  534MOL0     C72009   7.582   5.780   6.222  0.5625 -0.1248  0.0012
  534MOL0     C72010   7.988   5.624   6.251 -0.7089 -0.0433  0.0511
  534MOL0     C72011   8.065   5.608   6.368  0.0682 -0.5208 -0.1924
  534MOL0     C72012   8.204   5.587   6.361 -0.1053  1.1416  0.4348
  534MOL0     C72013   8.266   5.586   6.233 -0.5751 -0.0159  0.2046
  534MOL0     O72014   8.400   5.570   6.225  0.1950  0.0089  0.5123
  534MOL0     C72015   8.476   5.676   6.288  0.3809  0.8948  0.7844
  534MOL0     C72016   8.573   5.722   6.175  0.7459  0.3224 -0.2454
  534MOL0     C72017   8.507   5.792   6.052 -0.3338 -0.1109 -0.9517
  534MOL0     C72018   8.434   5.922   6.084 -0.3915  0.4348  0.5809
  534MOL0     C72019   8.507   5.997   6.185  0.5022 -0.2825  0.2865
  534MOL0     C72020   8.552   6.076   6.266  0.2741 -0.7064  0.6600
  534MOL0     C72021   8.192   5.605   6.120  0.3004 -0.3934  0.3397
  534MOL0     C72022   8.059   5.636   6.130 -0.6095 -0.5865 -0.2536
  534MOL0     H72023   7.636   5.596   5.934 -0.3482 -0.4874 -0.0582
  534MOL0     H72024   7.421   5.699   5.875  1.9394 -1.4744  0.9300
  534MOL0     H72025   7.172   5.779   6.205 -0.0990  0.1165 -0.1070
  534MOL0     H72026   7.204   5.952   6.173  1.4957  0.3889 -0.8301
  534MOL0     H72027   7.025   5.883   5.960 -0.2243  0.1330 -0.9908
  534MOL0     H72028   7.010   5.740   6.063  0.4503  0.2932 -0.5112
  534MOL0     H72029   6.934   5.881   6.255  2.6233 -1.6157 -1.5037
  534MOL0     H72030   6.954   6.027   6.169  0.1406  0.0038  0.0133
  534MOL0     H72031   6.786   5.924   5.999  1.4731 -1.8266 -0.4270
  534MOL0     H72032   6.762   5.794   6.113  0.7919  0.2657  1.0690
  534MOL0     H72033   6.728   6.040   6.257 -0.0048  1.1626 -0.5483
  534MOL0     H72034   6.640   6.056   6.109  1.9661 -0.3453 -2.3692
  534MOL0     H72035   6.531   5.823   6.177  1.2080 -2.2089  2.1651
  534MOL0     H72036   6.621   5.842   6.320 -0.3161 -2.8595 -1.8344
  534MOL0     H72037   6.503   6.063   6.359 -1.5445 -1.5616  3.2594
  534MOL0     H72038   6.425   6.030   6.208  3.5236 -3.3097 -3.3871
  534MOL0     H72039   6.396   5.891   6.481 -0.5854  0.2058  0.4602
  534MOL0     H72040   6.312   5.826   6.338  3.2885 -0.5770 -0.7802
  534MOL0     H72041   6.097   5.948   6.269 -1.2840  0.3426 -0.0489
  534MOL0     H72042   5.840   6.110   6.483 -2.3515 -0.5731 -0.9254
  534MOL0     H72043   5.892   6.238   6.371 -2.4243 -0.2098  0.2415
  534MOL0     H72044   5.735   6.084   6.288  0.2446 -1.0090  1.4711
  534MOL0     H72045   5.874   5.961   6.284  1.7613  1.1133  0.7772
  534MOL0     H72046   5.975   6.045   6.113 -0.3910 -2.1504  1.5331
  534MOL0     H72047   5.938   6.219   6.147 -2.0407  0.3306  0.5809
  534MOL0     H72048   5.837   6.129   5.936  3.8650 -2.2201  0.1304
  534MOL0     H72049   5.713   6.185   6.045  1.3482  1.2127  2.3660
  534MOL0     H72050   5.596   6.145   5.837 -1.1332  0.4437 -0.3005
  534MOL0     H72051   5.310   6.109   5.674  0.6128  0.9531  1.2447
  534MOL0     H72052   5.466   6.183   5.670 -1.7379  0.4555 -0.7316
  534MOL0     H72053   5.450   6.042   5.568  3.2902 -3.6021  1.3830
  534MOL0     H72054   5.006   5.843   5.710  0.9095  0.2176 -0.0504
  534MOL0     H72055   4.799   5.732   5.623  1.3099  1.7366 -2.4562
  534MOL0     H72056   4.644   5.610   5.702 -0.5296  1.2344 -0.7546
  534MOL0     H72057   4.619   5.555   5.537 -2.5105  1.0709  1.2704
  534MOL0     H72058   4.549   5.325   5.649 -1.3052  0.3744  0.7442
  534MOL0     H72059   4.555   5.405   5.797  0.6273 -3.4417 -0.8989
  534MOL0     H72060   4.397   5.530   5.570  1.2659 -1.2200 -1.2300
  534MOL0     H72061   4.358   5.533   5.746  0.0550  1.1925 -0.2874
  534MOL0     H72062   4.311   5.292   5.577  0.3569 -0.7033  0.8075
  534MOL0     H72063   4.279   5.318   5.751  0.3447  1.9107  0.3263
  534MOL0     H72064   4.169   5.463   5.512 -0.1218 -0.1366  0.1965
  534MOL0     H72065   4.114   5.509   5.677 -0.4303  0.3709 -0.5752
  534MOL0     H72066   4.060   5.223   5.565 -3.1864  0.5578 -2.7216
  534MOL0     H72067   4.034   5.290   5.722 -1.0942 -1.5003 -0.5690
  534MOL0     H72068   3.933   5.400   5.457 -0.4597 -2.4361 -0.6479
  534MOL0     H72069   3.875   5.457   5.619  1.1535  1.7188 -2.4840
  534MOL0     H72070   3.782   5.221   5.657 -0.2846 -5.2173 -0.6522
  534MOL0     H72071   3.861   5.178   5.499  2.2619  2.1919 -0.8921
  534MOL0     H72072   4.980   5.362   5.688  1.6596 -0.2436  0.8034
  534MOL0     H72073   5.191   5.475   5.763 -1.8298 -0.9885  2.7163
  534MOL0     H72074   5.419   5.682   5.898 -3.3945  0.6516 -1.0860
  534MOL0     H72075   5.606   5.757   6.048  2.7364  1.0099  0.8065
  534MOL0     H72076   7.408   5.881   6.266  0.5642  2.1654 -1.3429
  534MOL0     H72077   7.624   5.807   6.318 -0.3714  1.7096 -0.0693
  534MOL0     H72078   8.022   5.612   6.468 -1.9086  1.0396 -1.0548
  534MOL0     H72079   8.254   5.557   6.452 -0.3973  0.4887  0.3880
  534MOL0     H72080   8.402   5.750   6.320 -0.7993  0.0091  0.1768
  534MOL0     H72081   8.525   5.624   6.371 -0.5953 -1.7463 -0.1881
  534MOL0     H72082   8.628   5.635   6.138  1.2772 -0.1080  1.4681
  534MOL0     H72083   8.639   5.793   6.226 -2.0029  3.1512 -0.2904
  534MOL0     H72084   8.447   5.714   6.004  1.2983 -1.7660 -0.4530
  534MOL0     H72085   8.587   5.819   5.982  0.2333  0.3450 -0.1468
  534MOL0     H72086   8.328   5.912   6.109 -0.8739  1.7309 -0.8080
  534MOL0     H72087   8.431   5.982   5.993  0.3917 -2.7927 -1.7594
  534MOL0     H72088   8.577   6.154   6.335 -0.0293  1.9428 -2.0443
  534MOL0     H72089   8.235   5.600   6.021 -0.1679  1.2687  0.0198
  534MOL0     H72090   8.008   5.639   6.034  0.2751  2.2588 -0.7302
  535MOL0     O72091   8.249   0.540   6.773  0.1557  0.0813  0.1323
  535MOL0     C72092   8.233   0.422   6.813  0.0834 -0.5680  0.1359
  535MOL0     O72093   8.118   0.353   6.811 -0.1488  0.4796 -0.0057
  535MOL0     C72094   8.005   0.421   6.784  0.4736  0.3374  0.0819
  535MOL0     C72095   7.921   0.375   6.684  0.5800 -0.4666  0.1376
  535MOL0     C72096   7.803   0.441   6.661 -0.0400  0.0961 -0.2134
  535MOL0     C72097   7.761   0.550   6.728  0.6856 -0.2371  0.7613
  535MOL0     O72098   7.659   0.622   6.678 -0.3038 -0.7087  0.0030
  535MOL0     C72099   7.524   0.573   6.699  0.5557 -0.2848 -0.4535
  535MOL0     C72100   7.427   0.596   6.581 -0.3699 -0.8976 -0.1253
  535MOL0     C72101   7.281   0.591   6.620 -0.6061  0.0600 -1.1763
  535MOL0     C72102   7.203   0.619   6.493  0.2116  0.0317 -0.3009
  535MOL0     C72103   7.059   0.652   6.536 -0.6241  0.0213  0.2686
  535MOL0     C72104   7.056   0.802   6.561  0.7109 -0.6622 -0.0739
  535MOL0     C72105   6.917   0.861   6.601 -0.5498  0.7803  0.5903
  535MOL0     C72106   6.862   0.824   6.740  0.1240  0.3680 -0.1878
  535MOL0     N72107   6.723   0.770   6.737  0.0044  0.7482  0.4297
  535MOL0     C72108   6.609   0.841   6.774  0.1598  0.0960 -0.9085
  535MOL0     C72109   6.505   0.756   6.776 -0.2177  0.4316  0.0236
  535MOL0     C72110   6.361   0.782   6.789  0.0996  0.0426 -0.4051
  535MOL0     C72111   6.295   0.707   6.909  0.8275  0.3100 -0.0844
  535MOL0     C72112   6.145   0.741   6.915  0.4377  0.0474 -0.3732
  535MOL0     C72113   6.084   0.637   7.010  0.1246  0.0415 -1.1321
  535MOL0     O72114   5.946   0.669   7.025 -0.2653  0.1483 -0.3779
  535MOL0     C72115   5.869   0.640   7.134 -0.9545  0.1521 -0.2690
  535MOL0     C72116   5.906   0.530   7.212  0.0379 -0.0544  0.4319
  535MOL0     C72117   5.819   0.470   7.308 -0.7191  0.1097 -0.8592
  535MOL0     C72118   5.883   0.360   7.397  0.0908 -0.0859 -0.1000
  535MOL0     C72119   5.686   0.521   7.321 -1.4662  0.6589  0.9244
  535MOL0     C72120   5.587   0.452   7.404  0.5052 -0.2231  0.5373
  535MOL0     O72121   5.460   0.509   7.393 -0.4151 -0.3562  0.3776
  535MOL0     C72122   5.341   0.478   7.452  0.4221  0.1613  0.2827
  535MOL0     C72123   5.232   0.552   7.427  0.3308 -0.6423 -0.0677
  535MOL0     C72124   5.111   0.520   7.499 -0.1530 -0.3704  0.7966
  535MOL0     C72125   5.099   0.424   7.594  0.2438  1.0720 -0.1835
  535MOL0     O72126   4.985   0.389   7.651 -0.3390 -0.2737 -0.0401
  535MOL0     C72127   4.859   0.410   7.586  0.0249  0.6417 -0.6189
  535MOL0     C72128   4.741   0.349   7.655  0.5437 -0.8095  0.1423
  535MOL0     C72129   4.602   0.397   7.594 -1.6898 -0.7079  0.0073
  535MOL0     C72130   4.497   0.344   7.685  0.1282  0.2355 -0.8033
  535MOL0     C72131   4.371   0.342   7.624  0.5154  0.4443  0.5036
  535MOL0     C72132   4.267   0.262   7.699 -0.2679  1.2057 -0.0559
  535MOL0     C72133   4.124   0.265   7.639 -0.0918  0.8953 -0.2638
  535MOL0     C72134   4.079   0.404   7.593  0.0189 -0.3645 -0.2519
  535MOL0    Cl72135   4.025   0.528   7.716 -0.1735  0.1074 -0.0472
  535MOL0     C72136   5.219   0.346   7.616  0.1767 -0.1721 -0.2695
  535MOL0     C72137   5.339   0.378   7.552  0.9860 -0.2745  0.3217
  535MOL0     O72138   5.612   0.350   7.463 -0.5881 -0.4715 -0.0921
  535MOL0     C72139   5.652   0.638   7.247 -0.3802  0.2520 -0.3823
  535MOL0     C72140   5.744   0.687   7.152  0.1191  0.0763 -0.2799
  535MOL0     N72141   6.557   0.633   6.735 -0.2801  0.3372 -0.6146
  535MOL0     N72142   6.694   0.638   6.729  0.7239  0.0991  0.2705
  535MOL0     C72143   7.836   0.591   6.839  0.0411 -1.0543 -0.1794
  535MOL0     C72144   7.960   0.534   6.860  0.4732  0.5790  0.5261
  535MOL0     C72145   8.352   0.366   6.876 -0.1099 -0.4916  0.1102
  535MOL0     C72146   8.339   0.248   6.945  0.3428  0.4735 -0.1760
  535MOL0     C72147   8.443   0.176   7.000  0.8426  0.3052  0.0640
  535MOL0     C72148   8.565   0.234   7.004  0.0652 -1.0451  0.3568
  535MOL0     O72149   8.671   0.160   7.056  0.2341  0.2746 -0.0419
  535MOL0     C72150   8.800   0.229   7.065 -0.4569  1.0878  0.0998
  535MOL0     C72151   8.813   0.330   7.175  0.3228 -0.2928 -0.3194
  535MOL0     C72152   8.866   0.263   7.304 -0.5347 -0.6011  0.1566
  535MOL0     C72153   8.805   0.321   7.439 -0.4857 -0.5229  1.0646
  535MOL0     C72154   8.812   0.466   7.438 -0.7302  0.2806  0.2860
  535MOL0     C72155   8.818   0.580   7.402  0.2817  0.3042  0.5272
  535MOL0     C72156   8.583   0.361   6.939 -0.1232  0.6455 -0.1201
  535MOL0     C72157   8.487   0.422   6.868 -0.4422  0.2746  0.0576
  535MOL0     H72158   7.957   0.294   6.623  3.8115  0.6650  0.3710
  535MOL0     H72159   7.746   0.406   6.575  0.1919 -0.6468 -0.0718
  535MOL0     H72160   7.528   0.464   6.710  2.5447 -0.1722  0.2896
  535MOL0     H72161   7.486   0.619   6.791  1.4745  1.2871 -0.8393
  535MOL0     H72162   7.445   0.699   6.548  1.3432 -1.4245 -0.9246
  535MOL0     H72163   7.463   0.522   6.509  1.6028 -0.0314 -0.0773
  535MOL0     H72164   7.267   0.496   6.671  2.9208 -0.2784 -0.5566
  535MOL0     H72165   7.264   0.673   6.690 -1.6964  1.6191 -3.1486
  535MOL0     H72166   7.250   0.693   6.429  0.2854  0.9690  0.8095
  535MOL0     H72167   7.203   0.523   6.441 -4.1595  0.4931 -1.5350
  535MOL0     H72168   6.987   0.637   6.455 -0.2203  2.4587 -0.6390
  535MOL0     H72169   7.030   0.582   6.616  3.5061 -2.4174 -0.0738
  535MOL0     H72170   7.119   0.829   6.646 -1.1497 -1.8974  1.8035
  535MOL0     H72171   7.083   0.854   6.468 -1.9002 -1.2252 -1.2386
  535MOL0     H72172   6.924   0.969   6.592  2.6208  0.6186 -0.3891
  535MOL0     H72173   6.850   0.833   6.519  0.5984 -0.2134 -0.0502
  535MOL0     H72174   6.866   0.912   6.804 -3.6150  0.9282 -0.5014
  535MOL0     H72175   6.926   0.747   6.784  0.2676  2.6304  4.0300
  535MOL0     H72176   6.591   0.947   6.789 -1.6482 -0.5116  1.9754
  535MOL0     H72177   6.348   0.890   6.797  2.6837  0.4518 -0.8243
  535MOL0     H72178   6.317   0.747   6.695 -0.3483 -1.9444  0.4739
  535MOL0     H72179   6.357   0.730   6.997  2.0232 -0.6210 -0.6473
  535MOL0     H72180   6.303   0.599   6.896 -0.0412  0.1525  0.6295
  535MOL0     H72181   6.093   0.734   6.819  3.3007 -0.5391 -1.9991
  535MOL0     H72182   6.140   0.845   6.947 -0.1994 -0.3712  1.0153
  535MOL0     H72183   6.124   0.642   7.112  0.4923 -1.9859 -1.1232
  535MOL0     H72184   6.090   0.536   6.967 -1.6211 -1.6599  2.2410
  535MOL0     H72185   5.998   0.475   7.194 -1.5136 -3.2009  1.4871
  535MOL0     H72186   5.838   0.260   7.392 -0.8857 -0.4099  6.2832
  535MOL0     H72187   5.990   0.340   7.385  0.0689  0.4594 -1.2819
  535MOL0     H72188   5.882   0.390   7.502  0.7791 -2.4133  0.6378
  535MOL0     H72189   5.253   0.636   7.360  1.2784  0.1890  1.2223
  535MOL0     H72190   5.027   0.588   7.484  1.7448  1.7050 -1.1906
  535MOL0     H72191   4.832   0.515   7.569  1.4352  1.0375 -0.5704
  535MOL0     H72192   4.857   0.358   7.490 -1.9940  0.1463 -0.3617
  535MOL0     H72193   4.735   0.240   7.648 -0.1812 -0.6823 -2.0413
  535MOL0     H72194   4.741   0.377   7.761  0.0870 -2.7658  0.7019
  535MOL0     H72195   4.583   0.368   7.490 -2.0074  2.7717 -1.0376
  535MOL0     H72196   4.588   0.505   7.604  1.9868 -0.2704  2.1885
  535MOL0     H72197   4.517   0.245   7.725 -0.9236  0.5279  0.5040
  535MOL0     H72198   4.477   0.404   7.774  0.3368  1.4215 -1.5258
  535MOL0     H72199   4.387   0.294   7.527  0.7383  1.6588 -0.0851
  535MOL0     H72200   4.331   0.441   7.596 -3.5446 -1.2076 -0.3216
  535MOL0     H72201   4.301   0.159   7.714 -1.2689  0.9750  0.7124
  535MOL0     H72202   4.256   0.306   7.799  0.6423  1.4352 -0.0431
  535MOL0     H72203   4.046   0.241   7.712  3.5803 -2.7029  2.9710
  535MOL0     H72204   4.117   0.196   7.554 -0.7813 -1.1248  1.3641
  535MOL0     H72205   3.997   0.374   7.527  0.9179 -3.4820 -0.1167
  535MOL0     H72206   4.146   0.458   7.526 -0.6944  1.6349  0.5819
  535MOL0     H72207   5.214   0.253   7.672 -3.3834 -0.2039 -0.4379
  535MOL0     H72208   5.426   0.314   7.567  0.9918 -0.4456 -0.4023
  535MOL0     H72209   5.551   0.677   7.244 -1.1456 -1.5247  0.7713
  535MOL0     H72210   5.713   0.770   7.089 -0.3720  1.3924  1.6017
  535MOL0     H72211   7.813   0.670   6.910  0.5477  0.1846 -1.3376
  535MOL0     H72212   8.027   0.567   6.939  1.9031  1.1266 -0.8556
  535MOL0     H72213   8.239   0.207   6.944  1.2453 -1.8473 -0.8788
  535MOL0     H72214   8.425   0.074   7.032 -0.6914  0.0963 -1.3449
  535MOL0     H72215   8.872   0.149   7.082 -1.1645  0.5398  0.5641
  535MOL0     H72216   8.834   0.273   6.971 -1.0703  2.5087  0.5155
  535MOL0     H72217   8.716   0.375   7.198  1.5395  2.7457 -0.5933
  535MOL0     H72218   8.887   0.404   7.142 -1.6014  1.7993 -0.2307
  535MOL0     H72219   8.975   0.272   7.303 -0.5104 -0.8508  0.4376
  535MOL0     H72220   8.853   0.154   7.300  0.9956 -0.7863 -0.7007
  535MOL0     H72221   8.856   0.285   7.529 -1.2539 -1.8075  1.0126
  535MOL0     H72222   8.699   0.296   7.445 -1.0172  0.2692 -2.6408
  535MOL0     H72223   8.827   0.685   7.386 -0.1006  0.3874  0.8442
  535MOL0     H72224   8.683   0.404   6.932  0.3199 -0.0862  1.2674
  535MOL0     H72225   8.508   0.506   6.802 -0.5162  0.3140  0.0830
  536MOL0     O72226   4.628   7.655   9.800  0.0898 -0.0892  1.1758
  536MOL0     C72227   4.712   7.606   9.876  1.1473  0.0237  0.2286
  536MOL0     O72228   4.693   7.592  10.004  0.5746  0.2213  0.2397
  536MOL0     C72229   4.575   7.648  10.054  0.4958 -0.5490 -0.1782
  536MOL0     C72230   4.465   7.564  10.069  0.3743 -1.1861 -0.3937
  536MOL0     C72231   4.337   7.618  10.087  0.8675 -0.4417  0.0742
  536MOL0     C72232   4.329   7.757  10.112  0.1071 -0.2950 -0.0351
  536MOL0     O72233   4.211   7.815  10.156 -0.8310  0.1943  0.1030
  536MOL0     C72234   4.089   7.758  10.106 -0.3440  0.5408 -0.5350
  536MOL0     C72235   4.070   7.760   9.950  0.4542  0.8901 -0.1751
  536MOL0     C72236   3.932   7.717   9.911 -0.0539  0.3534  0.7102
  536MOL0     C72237   3.890   7.788   9.771 -0.2919  0.7399  0.0697
  536MOL0     C72238   3.754   7.747   9.719  0.3107 -0.1848 -0.1801
  536MOL0     C72239   3.746   7.606   9.647 -0.3929 -0.4923 -0.8171
  536MOL0     C72240   3.617   7.598   9.563  0.0712 -0.0910  0.4163
  536MOL0     C72241   3.510   7.553   9.646  0.5222  0.4280 -0.2056
  536MOL0     N72242   3.402   7.506   9.563  0.6223 -0.8543  0.0971
  536MOL0     C72243   3.281   7.572   9.547 -0.2580  0.1348  0.2146
  536MOL0     C72244   3.200   7.479   9.484  0.0387  0.3194  0.3168
  536MOL0     C72245   3.054   7.489   9.472  0.1489  0.7015 -0.8716
  536MOL0     C72246   3.001   7.368   9.557  0.7233 -0.5386 -0.6110
  536MOL0     C72247   2.848   7.365   9.548 -0.0397  0.7461 -0.6223
  536MOL0     C72248   2.792   7.232   9.592 -0.9835  0.4184  0.7005
  536MOL0     O72249   2.669   7.227   9.527 -0.3881 -0.1083 -0.0712
  536MOL0     C72250   2.601   7.115   9.552  0.0554 -0.0556 -0.2239
  536MOL0     C72251   2.644   6.987   9.567  0.3229  0.2395 -0.8833
  536MOL0     C72252   2.565   6.877   9.577 -0.0670 -0.3730 -1.1705
  536MOL0     C72253   2.631   6.753   9.625 -0.2341 -0.0145 -0.3831
  536MOL0     C72254   2.425   6.895   9.554  0.0262 -0.5367  0.6659
  536MOL0     C72255   2.342   6.780   9.529 -0.2795 -0.2682 -0.6274
  536MOL0     O72256   2.207   6.801   9.554 -0.2181  0.2817 -0.0213
  536MOL0     C72257   2.107   6.696   9.524 -0.1225 -0.0506  0.1904
  536MOL0     C72258   2.112   6.614   9.410 -0.0769  0.0269 -1.1055
  536MOL0     C72259   2.005   6.520   9.394 -0.2348 -0.1915 -0.2437
  536MOL0     C72260   1.911   6.500   9.494  0.6166  0.2536  0.5826
  536MOL0     O72261   1.797   6.431   9.465  0.1595 -0.0751  0.2625
  536MOL0     C72262   1.810   6.289   9.480  0.3865  0.0312  0.2518
  536MOL0     C72263   1.751   6.227   9.350 -0.1114  0.3916  0.0903
  536MOL0     C72264   1.736   6.068   9.365  0.2199  0.0849  1.2408
  536MOL0     C72265   1.644   6.012   9.250  0.2839  0.0834  0.3473
  536MOL0     C72266   1.613   5.862   9.237  0.3118  0.4482 -0.1422
  536MOL0     C72267   1.531   5.803   9.361 -0.2285 -0.2061  0.7750
  536MOL0     C72268   1.549   5.646   9.364 -0.1535 -0.1422  0.0580
  536MOL0     C72269   1.508   5.601   9.503  0.2508  0.1874  0.2742
  536MOL0    Cl72270   1.342   5.651   9.532  0.2789 -0.0953  0.1766
  536MOL0     C72271   1.915   6.574   9.609  0.4060 -0.6474 -0.0765
  536MOL0     C72272   2.010   6.672   9.622 -0.7077 -1.3466 -0.0353
  536MOL0     O72273   2.389   6.681   9.475  0.4271 -0.1951  0.0209
  536MOL0     C72274   2.378   7.026   9.533 -0.1117 -0.2993 -0.2669
  536MOL0     C72275   2.460   7.133   9.536 -0.2437 -0.3763  0.3495
  536MOL0     N72276   3.278   7.370   9.445  0.4138 -0.7211 -0.0789
  536MOL0     N72277   3.399   7.393   9.487 -0.1392  0.1947  0.1169
  536MOL0     C72278   4.443   7.840  10.104 -0.2445 -0.3338 -0.7109
  536MOL0     C72279   4.560   7.784  10.074  0.2062  1.5452 -0.0361
  536MOL0     C72280   4.844   7.578   9.815 -0.1045 -0.8522 -0.2238
  536MOL0     C72281   4.862   7.600   9.677  0.1710 -0.4905 -0.0376
  536MOL0     C72282   4.992   7.588   9.620  0.0062  0.4019  0.1531
  536MOL0     C72283   5.097   7.542   9.706  0.4118 -0.1975  0.0012
  536MOL0     O72284   5.227   7.536   9.649 -0.4338  0.0807 -0.4034
  536MOL0     C72285   5.341   7.495   9.732 -0.6987 -1.0058  0.0097
  536MOL0     C72286   5.382   7.607   9.832  1.2169  0.7144 -0.1653
  536MOL0     C72287   5.420   7.730   9.747 -0.0608 -0.0844  0.8118
  536MOL0     C72288   5.431   7.848   9.836 -0.2303  0.2254  0.5118
  536MOL0     C72289   5.566   7.855   9.889 -0.4100  0.1037 -0.0839
  536MOL0     C72290   5.660   7.857   9.962 -0.0161  0.0910 -0.7565
  536MOL0     C72291   5.071   7.498   9.835  0.2041  0.0821 -1.3509
  536MOL0     C72292   4.947   7.513   9.889  0.2280 -0.2576 -0.0136
  536MOL0     H72293   4.458   7.456  10.060  0.4205 -1.0832 -1.7814
  536MOL0     H72294   4.256   7.546  10.077 -0.3323  0.9883 -0.8255
  536MOL0     H72295   4.067   7.660  10.149  0.8669  0.4892  0.0386
  536MOL0     H72296   4.011   7.816  10.155 -0.5865  1.6920 -2.2092
  536MOL0     H72297   4.099   7.855   9.905  2.1441  0.1524 -0.7338
  536MOL0     H72298   4.136   7.690   9.898 -0.4356 -0.6361  0.6582
  536MOL0     H72299   3.937   7.610   9.886  2.3735  0.8374 -1.2315
  536MOL0     H72300   3.859   7.733   9.990 -0.7390  1.5472 -0.1503
  536MOL0     H72301   3.903   7.896   9.779  1.0763  0.5059  1.5200
  536MOL0     H72302   3.962   7.750   9.698  0.0522 -2.0817  1.7152
  536MOL0     H72303   3.678   7.745   9.797 -1.5538 -0.6235 -1.9453
  536MOL0     H72304   3.720   7.828   9.654 -0.8009 -2.9745 -3.3164
  536MOL0     H72305   3.818   7.589   9.566 -2.2892 -3.0697 -2.1048
  536MOL0     H72306   3.751   7.530   9.725  0.7192  0.4672  0.0781
  536MOL0     H72307   3.577   7.689   9.518 -1.0412 -1.4521 -1.4588
  536MOL0     H72308   3.636   7.529   9.481 -0.3295 -2.4520  2.2068
  536MOL0     H72309   3.473   7.632   9.711  0.2949 -0.9273  1.3924
  536MOL0     H72310   3.550   7.481   9.718  1.9450  3.4844  2.2662
  536MOL0     H72311   3.256   7.663   9.601  3.9313  1.2487  0.5718
  536MOL0     H72312   3.018   7.587   9.502 -2.1082 -0.2841 -0.1121
  536MOL0     H72313   3.019   7.469   9.370  2.6980  0.3521 -1.7489
  536MOL0     H72314   3.038   7.380   9.660  1.9769  0.7827 -1.1796
  536MOL0     H72315   3.036   7.274   9.512  0.1403 -0.0492 -2.1483
  536MOL0     H72316   2.825   7.367   9.441 -0.4844 -1.4732 -0.6184
  536MOL0     H72317   2.805   7.447   9.606 -0.7160  0.6877 -1.0244
  536MOL0     H72318   2.783   7.228   9.701  5.1399  3.7427  1.7975
  536MOL0     H72319   2.871   7.165   9.557  0.0219  2.3059 -0.8707
  536MOL0     H72320   2.745   6.958   9.594 -0.2207  0.8179  2.0605
  536MOL0     H72321   2.702   6.777   9.705  1.2481 -1.4667 -1.2154
  536MOL0     H72322   2.562   6.681   9.670  0.2539  0.0825  0.5439
  536MOL0     H72323   2.682   6.698   9.545  2.2660 -0.5486  1.4610
  536MOL0     H72324   2.182   6.630   9.328  2.0094 -2.3266  0.1235
  536MOL0     H72325   1.997   6.470   9.298 -3.7532 -2.4331  1.0044
  536MOL0     H72326   1.917   6.267   9.477  0.6449  1.2737 -1.0803
  536MOL0     H72327   1.771   6.251   9.575 -2.6701 -1.9878 -1.5880
  536MOL0     H72328   1.655   6.274   9.328  0.0590  1.0590  0.7248
  536MOL0     H72329   1.813   6.251   9.264 -0.3798  2.0586  0.3390
  536MOL0     H72330   1.688   6.050   9.462  1.0080 -1.6275  1.3453
  536MOL0     H72331   1.829   6.012   9.359 -0.8637 -1.8934  2.0678
  536MOL0     H72332   1.548   6.063   9.267  0.2694  0.0232  0.4423
  536MOL0     H72333   1.688   6.045   9.155  0.7708 -1.4984  0.0053
  536MOL0     H72334   1.710   5.813   9.228  0.1919  0.2094 -0.1680
  536MOL0     H72335   1.547   5.848   9.151 -2.2465  0.7809  1.6298
  536MOL0     H72336   1.572   5.849   9.451  0.8139 -1.4038  0.9354
  536MOL0     H72337   1.425   5.829   9.352  0.3237  1.6366 -1.5218
  536MOL0     H72338   1.653   5.620   9.342 -0.2992 -1.1333  0.4878
  536MOL0     H72339   1.481   5.604   9.290 -0.4939 -0.3327  0.4756
  536MOL0     H72340   1.577   5.637   9.580  1.3913 -0.7691 -0.2821
  536MOL0     H72341   1.513   5.492   9.495 -1.0972  0.2285 -1.9084
  536MOL0     H72342   1.835   6.559   9.682  1.5048 -3.0097  0.7474
  536MOL0     H72343   2.018   6.724   9.718 -0.7082 -3.0354  0.9117
  536MOL0     H72344   2.274   7.050   9.513 -0.4297 -1.0512  0.4150
  536MOL0     H72345   2.406   7.217   9.495  1.3766 -0.1892 -1.5408
  536MOL0     H72346   4.439   7.945  10.128  0.4264 -0.3055 -0.6800
  536MOL0     H72347   4.651   7.840  10.060  2.2455 -0.8701  2.3258
  536MOL0     H72348   4.775   7.626   9.617  0.2199 -1.3238 -0.4899
  536MOL0     H72349   5.001   7.613   9.515 -2.1990  0.8120  0.0183
  536MOL0     H72350   5.321   7.406   9.792 -0.7441 -1.8445 -1.2130
  536MOL0     H72351   5.424   7.471   9.666 -1.5300  0.3383 -1.5980
  536MOL0     H72352   5.468   7.569   9.887  0.4251  0.6000  1.0202
  536MOL0     H72353   5.302   7.635   9.901  1.8403 -0.5766  1.1260
  536MOL0     H72354   5.352   7.746   9.662  2.6578  0.4649 -1.4230
  536MOL0     H72355   5.516   7.710   9.699 -0.6151 -0.9336 -0.0034
  536MOL0     H72356   5.364   7.852   9.922 -3.4017 -2.5276 -1.6047
  536MOL0     H72357   5.413   7.945   9.788 -0.8158 -0.2389 -0.2203
  536MOL0     H72358   5.754   7.861  10.014  1.0003 -0.4290 -2.4572
  536MOL0     H72359   5.150   7.455   9.895 -0.5671 -0.9172 -1.0149
  536MOL0     H72360   4.920   7.491   9.992 -0.6553 -3.1283 -0.7609
  537MOL0     O72361   5.991   3.858   2.143  0.2995 -0.2225  0.6136
  537MOL0     C72362   6.018   3.961   2.074  0.1642  0.3779 -0.3525
  537MOL0     O72363   5.940   4.026   1.981  0.0250 -0.1535  0.1062
  537MOL0     C72364   5.812   3.979   1.960  0.2710 -0.8372  0.2045
  537MOL0     C72365   5.771   3.952   1.832 -0.3412  0.4533  0.5369
  537MOL0     C72366   5.652   3.876   1.813  0.6566 -0.4106  1.0131
  537MOL0     C72367   5.567   3.849   1.924 -0.0408 -0.6964  1.0877
  537MOL0     O72368   5.441   3.803   1.915  0.0668  0.3015  0.0390
  537MOL0     C72369   5.378   3.810   1.787 -0.5918 -0.5646  0.0552
  537MOL0     C72370   5.227   3.797   1.810 -0.5454  0.0831  0.3215
  537MOL0     C72371   5.146   3.810   1.679 -0.1762  0.3926 -0.7153
  537MOL0     C72372   5.026   3.713   1.672  0.1422  0.6630 -0.2580
  537MOL0     C72373   4.944   3.724   1.544 -0.4617  0.2651  0.5553
  537MOL0     C72374   4.839   3.619   1.519 -0.2671  0.1400 -0.0478
  537MOL0     C72375   4.902   3.480   1.520  0.0658  0.5159  0.2181
  537MOL0     C72376   4.817   3.384   1.436 -0.5248  0.7550  0.1613
  537MOL0     N72377   4.680   3.378   1.476 -0.0464  0.5251 -0.2056
  537MOL0     C72378   4.574   3.426   1.401 -0.1587  0.1006  0.5030
  537MOL0     C72379   4.476   3.381   1.472  0.2998  0.1351 -0.2244
  537MOL0     C72380   4.342   3.391   1.428 -0.9847  0.5148  0.3086
  537MOL0     C72381   4.272   3.256   1.398 -0.0434  0.5720  0.8825
  537MOL0     C72382   4.222   3.185   1.526  0.6755 -0.2694 -0.3275
  537MOL0     C72383   4.139   3.069   1.503  0.4837  0.0745  0.1010
  537MOL0     O72384   4.008   3.119   1.455 -0.0361  0.7968  0.1926
  537MOL0     C72385   3.903   3.029   1.469  0.3187 -0.2484 -0.3649
  537MOL0     C72386   3.913   2.885   1.464 -0.0090 -0.6391 -0.1664
  537MOL0     C72387   3.802   2.805   1.463  0.4080 -0.6000 -0.2590
  537MOL0     C72388   3.813   2.656   1.459  0.9030  0.0478  0.9325
  537MOL0     C72389   3.678   2.868   1.462  0.7158  1.0192 -0.4984
  537MOL0     C72390   3.548   2.789   1.471 -0.6099 -0.3980  0.4731
  537MOL0     O72391   3.443   2.837   1.399  0.7527 -1.1024  0.6216
  537MOL0     C72392   3.324   2.774   1.381  0.3970  0.5361 -0.1733
  537MOL0     C72393   3.245   2.720   1.489  0.6987  0.1049 -0.6030
  537MOL0     C72394   3.122   2.663   1.470 -0.0596 -0.0099 -0.5704
  537MOL0     C72395   3.080   2.640   1.336 -1.2136  0.5050  0.0046
  537MOL0     O72396   2.955   2.596   1.311  0.0117  0.2535 -0.4387
  537MOL0     C72397   2.963   2.484   1.218  0.4528 -0.5179  0.1869
  537MOL0     C72398   2.913   2.514   1.072 -0.0278 -0.0037 -1.1307
  537MOL0     C72399   2.763   2.499   1.055 -0.0360 -0.1652  0.6384
  537MOL0     C72400   2.720   2.563   0.923  0.4509  0.0432  0.8512
  537MOL0     C72401   2.570   2.577   0.895  0.0467 -0.1239 -0.1091
  537MOL0     C72402   2.498   2.434   0.893 -0.4617 -0.0606  0.0283
  537MOL0     C72403   2.541   2.354   0.766  0.0108 -0.1475  0.1038
  537MOL0     C72404   2.632   2.240   0.807  0.3521  0.3553  0.6881
  537MOL0    Cl72405   2.670   2.148   0.655 -0.1030  0.4092 -0.7824
  537MOL0     C72406   3.166   2.681   1.234  0.2387 -0.0589  0.1423
  537MOL0     C72407   3.282   2.752   1.254 -0.4270 -0.4680 -0.0837
  537MOL0     O72408   3.544   2.686   1.534  0.4560  0.8163  0.5329
  537MOL0     C72409   3.665   3.005   1.450  0.2040 -0.2222 -0.3502
  537MOL0     C72410   3.782   3.088   1.449  0.5555 -0.7588  0.7664
  537MOL0     N72411   4.517   3.321   1.588  0.9421 -1.2365  0.4156
  537MOL0     N72412   4.643   3.326   1.597 -0.2432  1.3134 -0.2636
  537MOL0     C72413   5.608   3.903   2.046 -0.8542  0.2711 -0.1313
  537MOL0     C72414   5.730   3.962   2.061 -0.0996 -0.4869 -0.0160
  537MOL0     C72415   6.153   4.024   2.089 -0.6156 -0.0327 -0.4941
  537MOL0     C72416   6.176   4.151   2.042  0.4499 -0.5106  0.9940
  537MOL0     C72417   6.310   4.208   2.051  0.5454 -0.7378 -0.5814
  537MOL0     C72418   6.405   4.147   2.133 -0.6746 -1.1895  0.9948
  537MOL0     O72419   6.531   4.203   2.166 -0.3832  0.0309 -0.9797
  537MOL0     C72420   6.543   4.344   2.172  0.0155  0.2319  0.3218
  537MOL0     C72421   6.496   4.399   2.304  0.1223 -0.7514 -0.4700
  537MOL0     C72422   6.489   4.552   2.292  0.6868 -0.8693  0.6201
  537MOL0     C72423   6.426   4.606   2.424 -0.0095 -0.7609 -0.6353
  537MOL0     C72424   6.278   4.602   2.417 -0.7930 -0.2497  0.4173
  537MOL0     C72425   6.151   4.593   2.399  0.0530  1.0738  0.2559
  537MOL0     C72426   6.367   4.033   2.199  0.3880 -0.4134 -0.0180
  537MOL0     C72427   6.251   3.961   2.165 -0.2924 -0.0697  1.0109
  537MOL0     H72428   5.834   3.964   1.745 -0.1605 -2.3617  0.1815
  537MOL0     H72429   5.634   3.830   1.716 -2.9385  0.5514  1.0899
  537MOL0     H72430   5.397   3.898   1.725 -0.0464 -2.3012 -2.4189
  537MOL0     H72431   5.411   3.724   1.728 -0.5088 -0.9164  0.6049
  537MOL0     H72432   5.215   3.700   1.858  0.7616  0.0720  0.6813
  537MOL0     H72433   5.204   3.876   1.882  0.8310  0.2111  0.6588
  537MOL0     H72434   5.115   3.914   1.668  0.5601  0.7871  0.7217
  537MOL0     H72435   5.205   3.801   1.587 -0.1597  2.0504 -0.8928
  537MOL0     H72436   5.067   3.613   1.680 -1.5862 -0.2943 -2.2977
  537MOL0     H72437   4.960   3.720   1.759  1.3991 -4.3024  1.3940
  537MOL0     H72438   4.898   3.823   1.540  0.2032  0.5953  0.8152
  537MOL0     H72439   5.018   3.723   1.463 -0.1667  1.9422  0.7771
  537MOL0     H72440   4.769   3.607   1.603 -2.1767 -2.8788 -1.8981
  537MOL0     H72441   4.778   3.631   1.429  0.1954 -3.1949 -0.9246
  537MOL0     H72442   4.997   3.491   1.468 -1.4267 -1.3246 -3.2408
  537MOL0     H72443   4.923   3.440   1.620 -0.2522  1.2624  0.5922
  537MOL0     H72444   4.854   3.283   1.454 -1.0595  0.3675 -0.8379
  537MOL0     H72445   4.821   3.413   1.331  0.5609  4.4576  1.0813
  537MOL0     H72446   4.565   3.484   1.309  0.5201 -0.2417  0.2075
  537MOL0     H72447   4.280   3.448   1.498 -0.8521  1.0772 -0.0242
  537MOL0     H72448   4.336   3.453   1.338  0.8324  2.5702  1.5031
  537MOL0     H72449   4.335   3.193   1.334 -0.1702 -1.0701  2.2804
  537MOL0     H72450   4.184   3.296   1.347  0.2105 -0.3920 -0.3630
  537MOL0     H72451   4.157   3.256   1.578  3.6593  1.1955  1.6877
  537MOL0     H72452   4.294   3.155   1.603  1.0856 -1.1924 -1.0543
  537MOL0     H72453   4.110   3.027   1.600 -1.1168 -0.7974 -0.7067
  537MOL0     H72454   4.182   2.985   1.447  1.1560  0.6018 -0.1868
  537MOL0     H72455   4.006   2.830   1.474 -0.8445 -1.9260  1.0190
  537MOL0     H72456   3.916   2.620   1.445  0.9583  0.6645 -0.3421
  537MOL0     H72457   3.778   2.616   1.555 -0.9148 -1.0698 -0.1390
  537MOL0     H72458   3.757   2.619   1.373  3.3284 -0.0276 -0.7296
  537MOL0     H72459   3.278   2.739   1.591  0.0955  3.0854 -0.8658
  537MOL0     H72460   3.056   2.631   1.551  1.9544 -1.5713  0.5521
  537MOL0     H72461   3.063   2.441   1.216  0.3795 -0.6624 -0.6690
  537MOL0     H72462   2.906   2.402   1.264  1.4806 -1.1626  0.3590
  537MOL0     H72463   2.937   2.618   1.049 -1.3555  0.8529  1.0709
  537MOL0     H72464   2.962   2.449   0.999  0.4257  0.4634 -1.2496
  537MOL0     H72465   2.722   2.560   1.136 -1.3148 -0.3875  0.1914
  537MOL0     H72466   2.724   2.398   1.066 -0.0363 -0.1277  0.9910
  537MOL0     H72467   2.751   2.668   0.921 -0.4704  0.3139  0.1641
  537MOL0     H72468   2.772   2.511   0.841  2.6194  0.9227  1.5979
  537MOL0     H72469   2.558   2.637   0.804  0.7821  0.9061  0.4520
  537MOL0     H72470   2.526   2.633   0.978  3.2354  0.8469  1.0592
  537MOL0     H72471   2.525   2.384   0.987 -0.3699  0.3459  0.2180
  537MOL0     H72472   2.388   2.431   0.893 -0.4620 -1.6596 -1.4758
  537MOL0     H72473   2.602   2.411   0.695  0.0247 -0.2271  0.0522
  537MOL0     H72474   2.464   2.304   0.706  1.9925 -1.2376 -1.6527
  537MOL0     H72475   2.581   2.193   0.891 -1.2823 -0.0707 -0.4790
  537MOL0     H72476   2.724   2.279   0.852 -0.2734  0.3914  1.9768
  537MOL0     H72477   3.132   2.664   1.133 -2.3443  1.9631  0.5489
  537MOL0     H72478   3.347   2.792   1.177 -0.3455  0.9115  0.6690
  537MOL0     H72479   3.563   3.038   1.435 -0.6610 -3.2365 -1.9255
  537MOL0     H72480   3.778   3.193   1.421  1.2959 -0.7005  0.8474
  537MOL0     H72481   5.545   3.891   2.134 -0.5568 -1.8921 -0.1665
  537MOL0     H72482   5.767   3.994   2.158  1.0350 -0.6550 -0.3818
  537MOL0     H72483   6.110   4.216   1.986  2.7977  2.0946  1.0335
  537MOL0     H72484   6.332   4.308   2.015 -4.6705  1.2082  0.6176
  537MOL0     H72485   6.648   4.372   2.156 -0.0294 -0.1817 -0.7342
  537MOL0     H72486   6.494   4.392   2.087  5.2482 -1.4138 -4.1745
  537MOL0     H72487   6.569   4.373   2.381 -0.4438 -1.0477 -0.0357
  537MOL0     H72488   6.397   4.366   2.335  0.9428 -2.2406  0.6907
  537MOL0     H72489   6.431   4.579   2.203  2.3545 -0.5651 -0.4273
  537MOL0     H72490   6.588   4.596   2.279 -0.3813  1.4506 -0.1422
  537MOL0     H72491   6.451   4.712   2.426 -1.5574 -0.3643 -1.4655
  537MOL0     H72492   6.453   4.554   2.516 -1.7291  1.3580  1.1846
  537MOL0     H72493   6.051   4.556   2.389 -0.3452  2.4360 -1.3266
  537MOL0     H72494   6.419   3.972   2.273 -0.4594 -2.6353 -1.1620
  537MOL0     H72495   6.231   3.860   2.200 -0.4608 -0.8220 -1.1432
  538MOL0     O72496   3.826   6.144   0.603 -0.5041 -0.6557 -0.9660
  538MOL0     C72497   3.862   6.239   0.535 -0.3498 -0.1124  0.8356
  538MOL0     O72498   3.922   6.230   0.413  0.3254  0.2082 -0.1383
  538MOL0     C72499   3.984   6.113   0.376 -0.3193  0.7001  0.6769
  538MOL0     C72500   3.977   6.080   0.235  0.5230  0.2159 -0.0044
  538MOL0     C72501   4.049   5.977   0.180  0.1175 -0.7164 -0.0960
  538MOL0     C72502   4.135   5.909   0.256 -0.5901  0.2062  0.5615
  538MOL0     O72503   4.220   5.829   0.190  0.1325  0.6959  0.1370
  538MOL0     C72504   4.306   5.729   0.249 -0.2522  0.3546 -0.6461
  538MOL0     C72505   4.382   5.639   0.147  0.3741 -0.3035  0.0620
  538MOL0     C72506   4.493   5.710   0.078 -1.3464 -0.8456 -0.5278
  538MOL0     C72507   4.577   5.619  -0.021 -1.2680 -0.5203  0.4891
  538MOL0     C72508   4.725   5.667  -0.049  0.7094  0.0079 -0.5021
  538MOL0     C72509   4.781   5.597  -0.175  0.1965 -0.4834 -0.5090
  538MOL0     C72510   4.929   5.610  -0.190 -1.3318 -0.4609 -0.4686
  538MOL0     C72511   4.977   5.760  -0.180 -0.1360  0.9722 -0.2767
  538MOL0     N72512   5.113   5.759  -0.236  0.6392 -0.3100  0.4797
  538MOL0     C72513   5.147   5.744  -0.369 -0.2698 -0.4891 -0.1092
  538MOL0     C72514   5.282   5.745  -0.378 -0.4106 -0.4949 -0.7518
  538MOL0     C72515   5.370   5.724  -0.495  0.9832  0.0018 -0.0001
  538MOL0     C72516   5.504   5.786  -0.465 -0.5226 -0.6114  0.2523
  538MOL0     C72517   5.564   5.840  -0.592  0.4178  1.0297  0.4073
  538MOL0     C72518   5.699   5.896  -0.570 -0.5415  0.1897  0.6179
  538MOL0     O72519   5.788   5.811  -0.497  0.2853  0.0401 -0.4985
  538MOL0     C72520   5.895   5.880  -0.444  0.8215  0.2503 -0.0598
  538MOL0     C72521   5.952   5.829  -0.321 -1.0227  0.4240 -0.3879
  538MOL0     C72522   6.076   5.884  -0.277 -0.0254  0.4968  0.5181
  538MOL0     C72523   6.138   5.815  -0.159  0.9163 -0.5245 -0.5006
  538MOL0     C72524   6.131   5.998  -0.330  0.0899 -0.0010  0.8950
  538MOL0     C72525   6.255   6.051  -0.285 -0.0170 -0.7625  0.3547
  538MOL0     O72526   6.356   5.981  -0.337 -1.1165  1.2538  0.2629
  538MOL0     C72527   6.487   6.037  -0.328  0.5993  0.2026 -0.4372
  538MOL0     C72528   6.568   5.981  -0.233  0.0291  1.0899  0.8375
  538MOL0     C72529   6.691   6.037  -0.203 -0.4997  0.7398  0.1844
  538MOL0     C72530   6.728   6.152  -0.261 -0.1272 -1.0497  1.0589
  538MOL0     O72531   6.843   6.206  -0.211 -0.0195  0.3524  0.3777
  538MOL0     C72532   6.905   6.291  -0.303 -0.2568 -0.5102  0.4149
  538MOL0     C72533   7.053   6.299  -0.246  0.9272  0.0640  0.4005
  538MOL0     C72534   7.147   6.378  -0.334  0.1511  0.7400 -0.3641
  538MOL0     C72535   7.113   6.522  -0.332 -0.7950 -0.1263 -0.2993
  538MOL0     C72536   7.223   6.612  -0.400 -0.9363  0.1674 -0.1857
  538MOL0     C72537   7.193   6.756  -0.367  0.0594 -0.3299  0.4611
  538MOL0     C72538   7.327   6.833  -0.390 -0.5810 -0.5096 -0.0984
  538MOL0     C72539   7.301   6.979  -0.394  1.4838  0.4467 -0.0185
  538MOL0    Cl72540   7.465   7.034  -0.434 -0.2362  0.4416 -0.1062
  538MOL0     C72541   6.653   6.204  -0.369  0.8582 -0.1066  0.0572
  538MOL0     C72542   6.524   6.146  -0.398  0.0340 -0.0112  0.0164
  538MOL0     O72543   6.259   6.149  -0.208 -0.2199  0.2215  0.3651
  538MOL0     C72544   6.069   6.051  -0.448  0.6014 -0.4088  0.4203
  538MOL0     C72545   5.956   5.994  -0.505  0.3431 -0.4121 -0.3895
  538MOL0     N72546   5.332   5.752  -0.254  0.4422 -0.3882 -0.9007
  538MOL0     N72547   5.234   5.762  -0.176  0.0376  0.2817  0.2199
  538MOL0     C72548   4.152   5.944   0.395  0.1070 -0.6424  0.6618
  538MOL0     C72549   4.069   6.041   0.462  0.0030  0.5471 -0.3241
  538MOL0     C72550   3.817   6.374   0.580 -0.6591  0.6963  0.0704
  538MOL0     C72551   3.707   6.384   0.658  0.3755 -0.1855 -0.3626
  538MOL0     C72552   3.648   6.512   0.677 -0.0757  0.1400  1.1095
  538MOL0     C72553   3.691   6.626   0.609  0.8032 -0.1694 -0.5910
  538MOL0     O72554   3.614   6.741   0.642  0.2229 -0.4919 -0.1385
  538MOL0     C72555   3.544   6.810   0.531  0.4171 -0.1738  0.5942
  538MOL0     C72556   3.418   6.730   0.484 -0.1934  0.2793 -0.2477
  538MOL0     C72557   3.312   6.758   0.585  0.5265 -0.3009 -0.4217
  538MOL0     C72558   3.175   6.688   0.548  0.7599 -0.1385 -0.7286
  538MOL0     C72559   3.134   6.726   0.415 -0.4043 -0.7466  0.1790
  538MOL0     C72560   3.103   6.769   0.306  0.4097 -0.1018  0.0479
  538MOL0     C72561   3.794   6.617   0.519  0.1973  0.9466  0.1869
  538MOL0     C72562   3.859   6.491   0.507 -0.0867  0.4922  0.7497
  538MOL0     H72563   3.917   6.138   0.166 -0.4308 -0.0959  0.5417
  538MOL0     H72564   4.052   5.962   0.073  1.3522  1.3756 -0.4043
  538MOL0     H72565   4.383   5.763   0.318 -1.8950 -0.8281  1.9595
  538MOL0     H72566   4.245   5.661   0.309  4.5789 -2.5833  1.4711
  538MOL0     H72567   4.413   5.546   0.195  1.9233 -0.0847 -0.4325
  538MOL0     H72568   4.315   5.616   0.064  3.0424 -0.9289 -2.0877
  538MOL0     H72569   4.448   5.792   0.022  2.1947  1.0750 -0.8575
  538MOL0     H72570   4.554   5.747   0.161 -1.2844  2.4982 -1.9028
  538MOL0     H72571   4.578   5.518   0.020  0.9263  0.2340  2.5627
  538MOL0     H72572   4.527   5.610  -0.118 -1.5508 -1.8429  0.7414
  538MOL0     H72573   4.723   5.775  -0.070  0.5449  0.3334  1.0855
  538MOL0     H72574   4.788   5.652   0.038  2.1795  1.8898 -1.1754
  538MOL0     H72575   4.745   5.494  -0.173  2.2242 -1.4994  5.6642
  538MOL0     H72576   4.728   5.643  -0.259  2.0719  3.9438  0.4440
  538MOL0     H72577   4.975   5.572  -0.098  0.9364  0.2035 -1.2596
  538MOL0     H72578   4.963   5.566  -0.284  0.9373  0.6975 -0.2502
  538MOL0     H72579   4.970   5.804  -0.081 -1.8458 -0.4376  0.2825
  538MOL0     H72580   4.910   5.817  -0.244 -0.7010 -1.4343 -1.9834
  538MOL0     H72581   5.071   5.731  -0.446 -1.0534  0.0374  0.5453
  538MOL0     H72582   5.383   5.616  -0.504 -1.6271 -0.7674  3.3323
  538MOL0     H72583   5.328   5.766  -0.587 -1.6754  0.1183  1.1830
  538MOL0     H72584   5.565   5.714  -0.409  1.2403  2.1003  2.1229
  538MOL0     H72585   5.511   5.877  -0.403  3.2452 -0.0622 -0.7073
  538MOL0     H72586   5.504   5.921  -0.635  1.7888  2.6869  1.4396
  538MOL0     H72587   5.584   5.750  -0.650  4.3962  1.1614  1.2325
  538MOL0     H72588   5.681   5.993  -0.522 -2.2787 -0.6744  1.8231
  538MOL0     H72589   5.747   5.915  -0.667 -1.8499  2.9294  0.4051
  538MOL0     H72590   5.929   5.730  -0.284 -0.1132  0.3052 -0.1145
  538MOL0     H72591   6.055   5.795  -0.091  0.5735  1.9608 -0.0686
  538MOL0     H72592   6.192   5.730  -0.202 -0.0922 -1.1690 -0.5215
  538MOL0     H72593   6.208   5.876  -0.100  0.2306 -0.7324  0.5499
  538MOL0     H72594   6.546   5.894  -0.172  3.0005  0.7060  1.5227
  538MOL0     H72595   6.754   5.993  -0.126  2.4885 -3.3371 -3.9866
  538MOL0     H72596   6.911   6.247  -0.403 -5.0811  1.2248 -0.9060
  538MOL0     H72597   6.863   6.392  -0.298  2.7452  0.9487 -1.1149
  538MOL0     H72598   7.028   6.344  -0.149  0.7030 -0.4762  0.6005
  538MOL0     H72599   7.102   6.208  -0.209  4.3104  0.9967 -1.3490
  538MOL0     H72600   7.160   6.348  -0.438  2.5380  0.6973 -0.1205
  538MOL0     H72601   7.253   6.370  -0.309  0.9539 -0.0283 -3.5161
  538MOL0     H72602   7.015   6.546  -0.375  0.0557  2.3411 -1.0116
  538MOL0     H72603   7.100   6.547  -0.227  1.1161  0.3139 -0.1381
  538MOL0     H72604   7.223   6.597  -0.508 -0.6093  3.1583 -0.7043
  538MOL0     H72605   7.322   6.577  -0.372  0.1931  0.2743 -3.6667
  538MOL0     H72606   7.107   6.792  -0.423  0.7077  2.0389  0.8890
  538MOL0     H72607   7.156   6.772  -0.265  1.5883 -0.6147  1.0904
  538MOL0     H72608   7.362   6.799  -0.487 -1.4575  1.9041 -1.3545
  538MOL0     H72609   7.396   6.801  -0.311  0.4087 -0.1599 -0.8117
  538MOL0     H72610   7.264   7.009  -0.296 -1.7265 -2.3129 -0.1830
  538MOL0     H72611   7.234   7.002  -0.477  1.2701  2.3979  0.6500
  538MOL0     H72612   6.685   6.299  -0.409  1.6249 -0.2559  0.2941
  538MOL0     H72613   6.451   6.189  -0.467  1.0601  2.5888  0.4436
  538MOL0     H72614   6.109   6.143  -0.491  0.6681 -0.8698 -0.5168
  538MOL0     H72615   5.923   6.041  -0.597  0.6773 -1.6359 -1.1761
  538MOL0     H72616   4.231   5.895   0.451  0.4676 -2.6051 -1.4229
  538MOL0     H72617   4.097   6.062   0.564 -3.5534 -1.2493  1.2266
  538MOL0     H72618   3.668   6.307   0.725  0.0524  0.0325 -0.3028
  538MOL0     H72619   3.574   6.533   0.753 -0.5037  0.1171  0.7041
  538MOL0     H72620   3.512   6.906   0.574  0.5725 -0.5235  1.5057
  538MOL0     H72621   3.607   6.829   0.443 -0.9870  0.5384 -0.2857
  538MOL0     H72622   3.441   6.624   0.485  3.0471  0.8412 -2.1320
  538MOL0     H72623   3.397   6.741   0.378 -1.4873  0.4197  0.0053
  538MOL0     H72624   3.296   6.866   0.589 -1.1406 -0.5395 -0.1090
  538MOL0     H72625   3.347   6.718   0.681 -1.2085  0.1198  0.4200
  538MOL0     H72626   3.099   6.722   0.619  1.3199  1.5138 -0.8570
  538MOL0     H72627   3.182   6.580   0.561  1.8943  0.2898  4.0310
  538MOL0     H72628   3.055   6.811   0.219 -3.6749  0.4812  2.3183
  538MOL0     H72629   3.826   6.705   0.465 -1.0302  0.6273 -1.1293
  538MOL0     H72630   3.941   6.486   0.436 -2.0757  0.0697 -1.6456
  539MOL0     O72631   1.243   0.009   5.133 -0.4782  0.1930  0.8900
  539MOL0     C72632   1.201  -0.075   5.205 -0.2760  0.0579  0.4953
  539MOL0     O72633   1.200  -0.072   5.333 -0.5990  0.1854 -0.2912
  539MOL0     C72634   1.277   0.022   5.385 -0.1701  0.2906  0.4594
  539MOL0     C72635   1.217   0.104   5.478 -0.3130 -1.2067 -0.5219
  539MOL0     C72636   1.280   0.209   5.540 -0.1206 -0.2788  0.0456
  539MOL0     C72637   1.413   0.240   5.506 -0.8416  0.0929  0.7088
  539MOL0     O72638   1.473   0.327   5.593 -0.1504  0.6708 -0.1673
  539MOL0     C72639   1.609   0.367   5.576 -0.4610 -0.2938  0.0868
  539MOL0     C72640   1.686   0.284   5.678  0.1716  0.0052 -0.7723
  539MOL0     C72641   1.841   0.283   5.674 -0.8221  0.2953 -0.2707
  539MOL0     C72642   1.892   0.426   5.689 -0.0111  0.3977 -0.0382
  539MOL0     C72643   2.038   0.446   5.656  0.2448 -0.5249 -0.4903
  539MOL0     C72644   2.133   0.392   5.773  0.3845 -0.1323  0.4601
  539MOL0     C72645   2.222   0.500   5.848  0.7702  0.5232  0.2478
  539MOL0     C72646   2.338   0.552   5.764  0.0231  0.8958 -1.2918
  539MOL0     N72647   2.432   0.628   5.850  0.1304  0.2255  0.5723
  539MOL0     C72648   2.466   0.604   5.979 -0.3381 -0.5522  0.3902
  539MOL0     C72649   2.546   0.707   6.022  0.8465 -0.6332  1.2088
  539MOL0     C72650   2.611   0.713   6.150 -0.0663 -0.2245 -0.2209
  539MOL0     C72651   2.517   0.776   6.253  0.3903 -0.0932 -0.3192
  539MOL0     C72652   2.581   0.818   6.382 -0.0563  0.1041  0.4036
  539MOL0     C72653   2.667   0.705   6.444  0.3981 -0.2143  0.6493
  539MOL0     O72654   2.588   0.606   6.505 -0.5576 -0.5508  0.0269
  539MOL0     C72655   2.655   0.533   6.602 -0.6165  0.2831  0.0145
  539MOL0     C72656   2.581   0.464   6.684 -0.0901 -0.3276 -0.5474
  539MOL0     C72657   2.627   0.377   6.781 -0.0791  0.2380  1.1017
  539MOL0     C72658   2.518   0.312   6.860  0.2164 -0.4658 -0.7378
  539MOL0     C72659   2.763   0.346   6.793 -1.1843  0.2701 -0.5168
  539MOL0     C72660   2.811   0.260   6.899  0.2863  0.2186 -0.1446
  539MOL0     O72661   2.790   0.286   7.030 -0.7969  0.0250  0.4611
  539MOL0     C72662   2.808   0.189   7.121  0.9608 -0.6445 -0.6143
  539MOL0     C72663   2.698   0.114   7.169  0.4585 -0.3260  0.2282
  539MOL0     C72664   2.717   0.011   7.264  0.9097  0.2163  0.6992
  539MOL0     C72665   2.844  -0.022   7.311  0.4611  0.8861 -1.1595
  539MOL0     O72666   2.863  -0.119   7.404 -0.1052  0.5435  0.0811
  539MOL0     C72667   2.759  -0.147   7.491 -0.8913  0.1755 -0.1928
  539MOL0     C72668   2.819  -0.230   7.606 -0.3418  0.2628  0.5956
  539MOL0     C72669   2.728  -0.217   7.728  0.0567  0.4168  0.5990
  539MOL0     C72670   2.583  -0.273   7.700 -0.5384 -0.2346 -0.7240
  539MOL0     C72671   2.522  -0.310   7.839  0.2397 -0.0124  1.6317
  539MOL0     C72672   2.379  -0.346   7.835 -0.9229 -0.3932  0.1095
  539MOL0     C72673   2.329  -0.413   7.959  0.4163  0.4641 -0.1500
  539MOL0     C72674   2.195  -0.497   7.947 -0.0295  0.2349  0.3895
  539MOL0    Cl72675   2.095  -0.447   7.801  0.1285 -0.4531 -0.2928
  539MOL0     C72676   2.948   0.063   7.264 -1.3764  0.7242 -0.5698
  539MOL0     C72677   2.930   0.164   7.170 -0.4570 -0.1760  0.5095
  539MOL0     O72678   2.863   0.159   6.852 -1.0640 -0.6324 -0.2999
  539MOL0     C72679   2.851   0.428   6.715  0.6388  1.0623  0.1113
  539MOL0     C72680   2.799   0.513   6.617 -0.2323  0.8184  0.2436
  539MOL0     N72681   2.567   0.800   5.922 -0.0363  0.7259  0.6788
  539MOL0     N72682   2.500   0.749   5.821 -0.2318  0.3179  0.2702
  539MOL0     C72683   1.475   0.159   5.410 -0.2002 -0.5247  0.7009
  539MOL0     C72684   1.416   0.049   5.354 -0.2767  0.0820  0.3620
  539MOL0     C72685   1.144  -0.199   5.143  0.2993 -0.9199 -0.0604
  539MOL0     C72686   1.092  -0.195   5.011 -0.8475  0.5557 -0.1307
  539MOL0     C72687   1.030  -0.301   4.942 -0.5836  0.2356  0.9472
  539MOL0     C72688   1.015  -0.425   5.013  0.5194  0.9024 -0.6494
  539MOL0     O72689   0.956  -0.543   4.963 -0.4328  0.3270 -0.6285
  539MOL0     C72690   0.862  -0.527   4.858  0.5979 -0.2006  0.0951
  539MOL0     C72691   0.808  -0.669   4.837 -0.2958 -0.4062 -1.3361
  539MOL0     C72692   0.710  -0.674   4.717  0.3798 -0.5484 -0.7022
  539MOL0     C72693   0.662  -0.815   4.669  0.8445 -0.1899 -0.3709
  539MOL0     C72694   0.534  -0.792   4.599 -0.9973 -0.3488  0.4676
  539MOL0     C72695   0.434  -0.774   4.534 -0.3732  0.1533  0.0488
  539MOL0     C72696   1.064  -0.428   5.148  0.7796 -0.6119  0.2948
  539MOL0     C72697   1.123  -0.316   5.214  0.3674  0.4483 -0.0865
  539MOL0     H72698   1.114   0.076   5.498 -0.6212 -1.0077 -1.7952
  539MOL0     H72699   1.244   0.271   5.621 -1.5778 -1.1333  0.0796
  539MOL0     H72700   1.637   0.342   5.473 -2.8974 -0.7350 -0.5217
  539MOL0     H72701   1.612   0.476   5.586 -2.6836 -0.1854  0.0785
  539MOL0     H72702   1.649   0.323   5.773 -0.3904 -2.7388  0.2104
  539MOL0     H72703   1.642   0.184   5.676 -1.3290  0.6566 -1.4794
  539MOL0     H72704   1.885   0.226   5.756  0.7590 -0.5997 -1.6647
  539MOL0     H72705   1.874   0.229   5.585 -1.3792 -1.4037  0.5149
  539MOL0     H72706   1.836   0.486   5.617  0.9096 -0.2633 -1.3368
  539MOL0     H72707   1.870   0.474   5.785  1.4099  1.9852 -0.4605
  539MOL0     H72708   2.053   0.388   5.565 -3.7282 -0.3396 -1.4469
  539MOL0     H72709   2.079   0.545   5.638  2.4175 -0.9448  1.5776
  539MOL0     H72710   2.076   0.339   5.849  0.7313 -2.4753 -0.8217
  539MOL0     H72711   2.205   0.318   5.738 -0.4269 -0.2269 -1.1011
  539MOL0     H72712   2.164   0.587   5.880  0.8315  0.3392  0.8703
  539MOL0     H72713   2.254   0.446   5.938  0.7619  1.3598  0.7662
  539MOL0     H72714   2.288   0.616   5.691 -3.2701  0.5412  0.4885
  539MOL0     H72715   2.390   0.464   5.725 -0.0886  0.5181 -0.6175
  539MOL0     H72716   2.436   0.518   6.038  2.1810 -1.4329  0.5046
  539MOL0     H72717   2.643   0.614   6.184 -1.7873  0.3404  3.6605
  539MOL0     H72718   2.699   0.777   6.144 -0.4337  0.1389 -4.4668
  539MOL0     H72719   2.442   0.700   6.277  0.0794  0.2132 -0.3189
  539MOL0     H72720   2.477   0.872   6.219  0.1153  0.7651  2.2020
  539MOL0     H72721   2.511   0.863   6.452 -0.1742 -0.1111  0.4255
  539MOL0     H72722   2.656   0.893   6.352  3.1093 -2.2027  1.9328
  539MOL0     H72723   2.735   0.742   6.521 -2.6819  2.2890  2.4134
  539MOL0     H72724   2.731   0.650   6.375  2.5023  1.0983  1.4588
  539MOL0     H72725   2.476   0.477   6.660 -0.5994  1.0107  2.0088
  539MOL0     H72726   2.558   0.214   6.886  0.9610  0.4129  1.8328
  539MOL0     H72727   2.498   0.359   6.957  1.7351 -3.3315  1.1020
  539MOL0     H72728   2.425   0.292   6.806  1.3233 -2.4062 -2.0371
  539MOL0     H72729   2.594   0.137   7.149  0.3153 -3.1178 -3.0905
  539MOL0     H72730   2.626  -0.035   7.301  1.3579 -1.5873 -0.3312
  539MOL0     H72731   2.720  -0.053   7.532 -2.0886  0.1868 -1.3084
  539MOL0     H72732   2.673  -0.202   7.452 -1.8335  1.1996  0.3707
  539MOL0     H72733   2.833  -0.331   7.567  1.2708  0.1261  1.4438
  539MOL0     H72734   2.920  -0.192   7.625  1.1999 -3.3373  0.4329
  539MOL0     H72735   2.723  -0.121   7.780 -0.9413  0.2093  0.8936
  539MOL0     H72736   2.769  -0.287   7.800  0.0711 -2.0462 -1.6570
  539MOL0     H72737   2.524  -0.194   7.654 -1.7101 -0.2452  0.6782
  539MOL0     H72738   2.581  -0.360   7.635 -2.0641 -0.3991 -0.4763
  539MOL0     H72739   2.538  -0.223   7.902 -0.1714  0.6023  0.9011
  539MOL0     H72740   2.582  -0.394   7.877 -1.8148 -2.9844 -1.1006
  539MOL0     H72741   2.314  -0.263   7.806 -0.5591 -0.1035  0.1167
  539MOL0     H72742   2.377  -0.415   7.750  0.1723  0.3104 -0.5094
  539MOL0     H72743   2.310  -0.346   8.044  0.9004  0.3410  0.0599
  539MOL0     H72744   2.406  -0.481   7.996  0.0426 -1.2952 -2.4093
  539MOL0     H72745   2.145  -0.484   8.044  0.6374 -1.2113  0.9610
  539MOL0     H72746   2.227  -0.601   7.936 -2.2630 -0.9057  3.2931
  539MOL0     H72747   3.044   0.032   7.303 -1.2150  2.7255  0.7462
  539MOL0     H72748   3.010   0.227   7.132  1.2129 -3.3974 -1.7166
  539MOL0     H72749   2.958   0.411   6.726  0.3972 -0.4688  0.2762
  539MOL0     H72750   2.862   0.565   6.546 -0.0475  3.7711  2.3718
  539MOL0     H72751   1.579   0.160   5.378 -0.1325 -3.8516  0.3704
  539MOL0     H72752   1.465  -0.004   5.273  1.9393  1.2731  0.8469
  539MOL0     H72753   1.131  -0.114   4.951  1.4194  0.2560  0.8275
  539MOL0     H72754   1.012  -0.288   4.836  0.8140 -0.1206  0.6572
  539MOL0     H72755   0.782  -0.463   4.897 -0.9151 -0.3093 -2.6205
  539MOL0     H72756   0.895  -0.478   4.766  1.7358  1.7759  1.4856
  539MOL0     H72757   0.772  -0.721   4.927 -0.8677  0.4807 -1.0492
  539MOL0     H72758   0.897  -0.723   4.804 -1.0303 -0.2303 -3.8016
  539MOL0     H72759   0.778  -0.641   4.638  1.1030 -1.4328 -0.4629
  539MOL0     H72760   0.622  -0.610   4.733  0.1496 -1.2141  0.8182
  539MOL0     H72761   0.646  -0.880   4.756  0.2391  1.7146  1.0273
  539MOL0     H72762   0.739  -0.871   4.615  0.5290 -0.2170 -0.7966
  539MOL0     H72763   0.335  -0.769   4.492 -0.1154 -0.2280 -0.6254
  539MOL0     H72764   1.059  -0.524   5.200  1.5805 -1.1602 -0.6110
  539MOL0     H72765   1.158  -0.332   5.315  1.8957  0.9754 -0.5122
  540MOL0     O72766   4.465   3.062   5.662  0.0306 -0.6706  0.0638
  540MOL0     C72767   4.455   3.184   5.656 -0.4484 -0.5687 -0.1794
  540MOL0     O72768   4.329   3.252   5.655 -0.4914  0.2674 -0.1227
  540MOL0     C72769   4.217   3.180   5.632  0.4494  0.2622 -0.7258
  540MOL0     C72770   4.168   3.086   5.726 -1.0364  0.1986  0.3082
  540MOL0     C72771   4.078   2.989   5.690 -0.0907 -0.5315 -0.2260
  540MOL0     C72772   4.005   3.010   5.569 -0.4852  0.1647 -0.2019
  540MOL0     O72773   3.901   2.918   5.541 -0.0928 -0.6356  0.1504
  540MOL0     C72774   3.918   2.848   5.418 -0.3266 -0.0094 -0.0325
  540MOL0     C72775   3.853   2.708   5.421  0.1197 -0.0021 -0.1144
  540MOL0     C72776   3.918   2.590   5.495  0.0035 -0.2566 -0.0774
  540MOL0     C72777   4.070   2.579   5.469  0.7095 -0.8105 -0.0864
  540MOL0     C72778   4.136   2.470   5.545  0.0360  0.2501 -0.1607
  540MOL0     C72779   4.291   2.464   5.562 -0.0913 -0.7052  0.8969
  540MOL0     C72780   4.359   2.327   5.584 -0.4712  0.1148  0.5454
  540MOL0     C72781   4.329   2.276   5.720  0.4658  0.4175 -0.4292
  540MOL0     N72782   4.410   2.159   5.782 -0.1613  0.3587 -0.1358
  540MOL0     C72783   4.529   2.104   5.739 -0.5842  0.0961  0.5523
  540MOL0     C72784   4.546   2.003   5.824 -0.4958 -0.5403  0.1835
  540MOL0     C72785   4.674   1.929   5.825 -0.5479  0.3639 -0.6419
  540MOL0     C72786   4.655   1.811   5.731  0.0984  0.2085  0.5561
  540MOL0     C72787   4.775   1.716   5.704 -0.0556 -0.0444  0.0731
  540MOL0     C72788   4.738   1.636   5.579  1.2305  0.5595  0.1875
  540MOL0     O72789   4.746   1.714   5.459  0.5751 -0.4699  0.4476
  540MOL0     C72790   4.685   1.670   5.342  0.5916 -0.9905 -0.3995
  540MOL0     C72791   4.705   1.755   5.232 -0.1169  0.3171 -0.4986
  540MOL0     C72792   4.652   1.730   5.108  0.5038  0.7338  0.5402
  540MOL0     C72793   4.683   1.832   4.993  0.7971  0.3146  0.1006
  540MOL0     C72794   4.579   1.606   5.090 -0.2547 -0.4156 -0.2085
  540MOL0     C72795   4.503   1.561   4.970 -0.4717  0.3016 -0.9078
  540MOL0     O72796   4.502   1.426   4.951 -0.8534  0.6098  0.3661
  540MOL0     C72797   4.445   1.386   4.832 -0.5731 -0.4496  0.1215
  540MOL0     C72798   4.503   1.409   4.703  0.5071  0.0823  0.4142
  540MOL0     C72799   4.420   1.391   4.589 -0.1121  0.1859  0.3964
  540MOL0     C72800   4.291   1.347   4.606 -0.2727  0.9625 -1.1766
  540MOL0     O72801   4.228   1.350   4.485  0.3560  0.0929  0.4492
  540MOL0     C72802   4.079   1.334   4.474  0.5742 -0.5065 -0.5153
  540MOL0     C72803   4.006   1.450   4.539 -0.6943 -0.3255 -0.0825
  540MOL0     C72804   3.870   1.401   4.604  0.4110 -0.7708 -0.4496
  540MOL0     C72805   3.874   1.409   4.758  0.7779 -0.5450  0.1332
  540MOL0     C72806   3.799   1.286   4.814  0.4246  0.0338 -0.0549
  540MOL0     C72807   3.789   1.288   4.961 -1.7661 -0.3424  0.9067
  540MOL0     C72808   3.730   1.162   5.030  0.3751 -0.3900  0.2066
  540MOL0     C72809   3.695   1.187   5.179  0.1048  0.3514 -0.3356
  540MOL0    Cl72810   3.583   1.307   5.178 -0.1339 -0.1467  0.5348
  540MOL0     C72811   4.238   1.307   4.731  0.5477  0.1967 -0.0534
  540MOL0     C72812   4.322   1.333   4.841  0.3903  0.9252 -0.2770
  540MOL0     O72813   4.447   1.639   4.903  0.3610 -0.3462 -0.6149
  540MOL0     C72814   4.565   1.526   5.204  0.9134 -0.3021  0.0674
  540MOL0     C72815   4.615   1.556   5.324 -0.2152  0.1052 -0.6643
  540MOL0     N72816   4.446   1.995   5.916 -0.4580  0.3735  0.0244
  540MOL0     N72817   4.375   2.098   5.900  0.8708 -0.2272  0.7383
  540MOL0     C72818   4.051   3.099   5.477 -0.3464 -0.1567 -0.1395
  540MOL0     C72819   4.154   3.184   5.511 -0.0239 -0.1754 -0.0188
  540MOL0     C72820   4.586   3.252   5.670  0.2534  0.4802  0.5055
  540MOL0     C72821   4.589   3.397   5.682 -1.0809  0.8316  0.8266
  540MOL0     C72822   4.706   3.469   5.672  0.1995 -0.4648 -0.3357
  540MOL0     C72823   4.821   3.401   5.666  0.3012  0.8084 -0.2830
  540MOL0     O72824   4.929   3.485   5.664  0.0263 -0.2279  0.4839
  540MOL0     C72825   5.060   3.449   5.681  0.1180  0.3676  0.3279
  540MOL0     C72826   5.146   3.566   5.681  0.1669 -0.3117 -0.0075
  540MOL0     C72827   5.088   3.683   5.751 -0.2136  0.6063 -0.8794
  540MOL0     C72828   5.195   3.787   5.788  1.1725 -0.1526 -0.5377
  540MOL0     C72829   5.260   3.853   5.677  0.3972  1.3337  0.1723
  540MOL0     C72830   5.316   3.902   5.585  1.4270  0.1366  0.1610
  540MOL0     C72831   4.828   3.256   5.665  0.4014  0.6625  0.7961
  540MOL0     C72832   4.710   3.186   5.670 -0.5594  0.4792  0.0334
  540MOL0     H72833   4.227   3.080   5.817 -0.2504  1.2229 -0.1132
  540MOL0     H72834   4.049   2.904   5.751 -0.7872  0.8753  1.4788
  540MOL0     H72835   3.860   2.911   5.351  1.7057  0.1779 -1.7182
  540MOL0     H72836   4.022   2.849   5.385 -0.4297  0.8113 -0.3350
  540MOL0     H72837   3.747   2.717   5.445  0.7725  0.2702  3.1864
  540MOL0     H72838   3.845   2.678   5.316 -0.4430  1.3905 -0.4961
  540MOL0     H72839   3.908   2.605   5.603 -1.5840 -5.5982  0.8066
  540MOL0     H72840   3.873   2.491   5.486  0.7404 -0.7249  1.1769
  540MOL0     H72841   4.090   2.579   5.361 -1.6920  1.9431 -0.6824
  540MOL0     H72842   4.113   2.673   5.505  1.9443 -2.0006  1.6760
  540MOL0     H72843   4.093   2.457   5.645 -1.0237 -0.3597 -0.6763
  540MOL0     H72844   4.104   2.378   5.494 -0.4972  0.0766  0.4797
  540MOL0     H72845   4.321   2.522   5.475 -2.0803 -0.6148  0.2367
  540MOL0     H72846   4.315   2.527   5.649 -3.1088 -2.5443  3.2700
  540MOL0     H72847   4.322   2.247   5.519  0.7155 -0.2026  0.2343
  540MOL0     H72848   4.467   2.340   5.571 -0.7722 -0.2776 -3.1926
  540MOL0     H72849   4.223   2.255   5.736  1.1963 -2.9954  0.8253
  540MOL0     H72850   4.341   2.358   5.791 -1.3369  1.0868 -0.8401
  540MOL0     H72851   4.602   2.137   5.666  1.9043 -0.2133  2.7669
  540MOL0     H72852   4.763   1.987   5.799  1.4213 -1.0715  2.2936
  540MOL0     H72853   4.694   1.884   5.922  0.1782  3.4572  0.7730
  540MOL0     H72854   4.623   1.863   5.641  1.1837 -1.1977 -0.7035
  540MOL0     H72855   4.565   1.751   5.747  1.3256 -1.6183  1.0204
  540MOL0     H72856   4.769   1.647   5.789 -0.8171 -3.2026 -2.3602
  540MOL0     H72857   4.874   1.762   5.706  2.0505 -4.1261  1.1877
  540MOL0     H72858   4.633   1.605   5.589  1.9693 -2.1484  0.3896
  540MOL0     H72859   4.796   1.544   5.570  1.2131  0.5037  0.6218
  540MOL0     H72860   4.767   1.842   5.254  0.6348 -1.2326  5.0918
  540MOL0     H72861   4.596   1.882   4.950  1.4221 -0.2515 -1.9404
  540MOL0     H72862   4.761   1.905   5.017 -1.9183  3.2336  0.6103
  540MOL0     H72863   4.728   1.774   4.911 -2.2669  0.6995 -2.0172
  540MOL0     H72864   4.599   1.459   4.709 -0.2596  1.5927  0.6740
  540MOL0     H72865   4.466   1.423   4.496  0.0620  2.0446  1.0704
  540MOL0     H72866   4.047   1.337   4.369 -0.1065 -0.0953 -0.3032
  540MOL0     H72867   4.049   1.235   4.509 -1.8615  0.3279 -0.0606
  540MOL0     H72868   4.065   1.496   4.618 -2.5049 -0.9761  1.7606
  540MOL0     H72869   4.002   1.533   4.468 -0.2372 -2.0615 -2.2463
  540MOL0     H72870   3.859   1.293   4.585  2.7805 -1.8744  3.3583
  540MOL0     H72871   3.786   1.457   4.563  1.8661  0.4606 -1.8738
  540MOL0     H72872   3.970   1.390   4.806  1.3547  0.5538 -0.5256
  540MOL0     H72873   3.834   1.503   4.797  1.5991 -0.8124  1.7057
  540MOL0     H72874   3.854   1.197   4.783 -0.4280  0.5329 -3.3361
  540MOL0     H72875   3.700   1.283   4.768  0.8309 -2.3596 -0.8902
  540MOL0     H72876   3.889   1.306   5.001 -1.3031 -1.8880  0.5072
  540MOL0     H72877   3.733   1.381   4.979 -0.8579  0.1698  1.1546
  540MOL0     H72878   3.802   1.082   5.015  1.9504  0.5267  2.2697
  540MOL0     H72879   3.647   1.123   4.971  0.8558 -0.7145 -0.2555
  540MOL0     H72880   3.778   1.219   5.244  0.7292 -0.6455 -0.6163
  540MOL0     H72881   3.645   1.101   5.224 -2.1995  1.2869 -0.9751
  540MOL0     H72882   4.140   1.261   4.737 -0.5480  2.4039  0.1290
  540MOL0     H72883   4.277   1.303   4.935 -0.6462 -0.3384 -1.1408
  540MOL0     H72884   4.512   1.432   5.199  1.1679 -0.4567  0.2551
  540MOL0     H72885   4.609   1.482   5.404 -1.7586  0.7848 -0.1006
  540MOL0     H72886   4.017   3.106   5.374  0.9802  1.1507 -0.5131
  540MOL0     H72887   4.200   3.252   5.440  2.1344  0.9349  2.2567
  540MOL0     H72888   4.493   3.447   5.688 -2.5213 -1.1969 -2.2953
  540MOL0     H72889   4.703   3.577   5.663  1.3629 -0.5120 -1.6384
  540MOL0     H72890   5.051   3.390   5.773 -0.5597 -1.9032 -1.1151
  540MOL0     H72891   5.083   3.375   5.604 -0.0975 -1.1858  1.7035
  540MOL0     H72892   5.168   3.589   5.577 -1.5410 -1.2520 -0.6228
  540MOL0     H72893   5.243   3.543   5.725  0.3904  1.3560  0.4188
  540MOL0     H72894   5.024   3.651   5.833 -1.7877  2.8108 -1.1580
  540MOL0     H72895   5.019   3.733   5.683 -0.2824  1.2435 -0.3492
  540MOL0     H72896   5.281   3.734   5.832  2.4647  1.1115 -1.4235
  540MOL0     H72897   5.154   3.857   5.861 -0.2769 -2.2537  0.7939
  540MOL0     H72898   5.365   3.945   5.499  1.5989 -1.2120 -0.4351
  540MOL0     H72899   4.919   3.199   5.668  0.4478  0.5742 -1.1922
  540MOL0     H72900   4.712   3.077   5.679 -0.1426  0.4792 -0.0557
  541MOL0     O72901   4.060   4.978   8.043  0.4106  0.4993  0.8608
  541MOL0     C72902   4.059   4.999   8.163 -0.6346  0.0614  0.7445
  541MOL0     O72903   3.956   4.996   8.258  0.0044 -0.4126  0.3752
  541MOL0     C72904   3.834   4.948   8.215  0.0491 -1.1775  0.1034
  541MOL0     C72905   3.721   5.011   8.268 -0.7299 -0.9190  0.2366
  541MOL0     C72906   3.592   4.963   8.238 -0.7778 -0.1425 -0.6729
  541MOL0     C72907   3.576   4.862   8.145 -0.3368  1.0025 -0.8862
  541MOL0     O72908   3.460   4.816   8.096  0.7927 -0.0437  0.9360
  541MOL0     C72909   3.342   4.853   8.174  0.7499  0.2376  0.6498
  541MOL0     C72910   3.201   4.796   8.120  0.0710 -0.0252 -0.9247
  541MOL0     C72911   3.077   4.873   8.135  1.5035 -0.8364 -0.7959
  541MOL0     C72912   2.957   4.835   8.044 -0.7228 -0.5248 -0.0207
  541MOL0     C72913   2.827   4.904   8.092 -0.5606  0.1164 -0.9629
  541MOL0     C72914   2.712   4.841   8.012 -0.4349  0.2100  0.2402
  541MOL0     C72915   2.584   4.908   8.057  0.3994  0.3588  0.1362
  541MOL0     C72916   2.451   4.875   7.985  0.4911 -0.6213 -0.4798
  541MOL0     N72917   2.334   4.943   8.049 -0.4041  0.0984 -0.3662
  541MOL0     C72918   2.291   4.918   8.170 -0.4742  0.9895 -0.3880
  541MOL0     C72919   2.175   4.993   8.178 -0.6778  0.0287  0.6981
  541MOL0     C72920   2.087   5.028   8.285  0.3844 -1.1471 -1.0956
  541MOL0     C72921   2.071   4.926   8.396  0.6246  0.2163 -0.4273
  541MOL0     C72922   1.981   4.808   8.353  0.6962 -0.3871 -0.6662
  541MOL0     C72923   1.832   4.848   8.310  0.3293 -0.4817  0.2802
  541MOL0     O72924   1.781   4.747   8.224 -0.7798 -0.2801 -0.3285
  541MOL0     C72925   1.709   4.640   8.268 -0.4552  0.4405  0.1069
  541MOL0     C72926   1.653   4.553   8.175  0.9496 -0.4090  0.1438
  541MOL0     C72927   1.578   4.437   8.199  0.3369 -0.4493  0.1022
  541MOL0     C72928   1.565   4.342   8.087 -0.4818 -0.2398 -0.2184
  541MOL0     C72929   1.536   4.412   8.335  0.2183 -0.3478 -1.0251
  541MOL0     C72930   1.440   4.314   8.375 -0.8914  0.3589 -0.0124
  541MOL0     O72931   1.439   4.284   8.503 -0.1782 -1.1062 -0.8173
  541MOL0     C72932   1.358   4.179   8.539 -0.0285  0.3742 -0.4385
  541MOL0     C72933   1.253   4.207   8.626  0.0438  0.3814  0.2456
  541MOL0     C72934   1.162   4.103   8.664 -0.7365  0.5735  1.0386
  541MOL0     C72935   1.182   3.970   8.617  0.0663 -0.7463  0.9315
  541MOL0     O72936   1.105   3.861   8.633 -0.6368 -0.5143  0.0184
  541MOL0     C72937   0.978   3.875   8.696 -0.0789 -0.2534  0.3336
  541MOL0     C72938   0.919   3.727   8.723 -0.0120 -0.6120  0.2005
  541MOL0     C72939   0.947   3.623   8.625 -0.0553 -0.7186 -1.3983
  541MOL0     C72940   0.867   3.496   8.633  0.6211  0.6899  0.2820
  541MOL0     C72941   0.904   3.420   8.760  0.7472 -0.4285 -0.4053
  541MOL0     C72942   1.041   3.356   8.757 -0.4653 -0.0170  0.5086
  541MOL0     C72943   1.053   3.263   8.882 -0.0896  0.2720 -0.8571
  541MOL0     C72944   1.085   3.319   9.015 -0.3927  0.0909  0.4174
  541MOL0    Cl72945   1.085   3.185   9.125  0.3037 -0.0571  0.3265
  541MOL0     C72946   1.290   3.951   8.531 -0.5895  0.4044  0.3906
  541MOL0     C72947   1.372   4.054   8.489 -0.4059  0.0475 -0.5544
  541MOL0     O72948   1.376   4.264   8.286 -0.2318 -0.3640  0.8403
  541MOL0     C72949   1.601   4.490   8.432 -0.1403  0.0757  0.0691
  541MOL0     C72950   1.680   4.604   8.407 -0.4216 -0.3532  0.1548
  541MOL0     N72951   2.154   5.059   8.057  0.7443 -0.2363  0.5078
  541MOL0     N72952   2.249   5.027   7.985  0.2528  0.4370  0.6893
  541MOL0     C72953   3.683   4.797   8.093 -0.0443 -0.6700  0.5060
  541MOL0     C72954   3.813   4.840   8.124  0.2853  0.2683 -0.6466
  541MOL0     C72955   4.189   5.034   8.221  0.0953 -0.0589  0.1678
  541MOL0     C72956   4.304   5.070   8.139 -0.1082 -0.2820 -0.0562
  541MOL0     C72957   4.424   5.111   8.202 -0.0128  0.0717 -0.3259
  541MOL0     C72958   4.439   5.138   8.340 -0.3919  1.0539 -0.2266
  541MOL0     O72959   4.567   5.168   8.380  0.6303  0.2196  0.3139
  541MOL0     C72960   4.593   5.148   8.521 -0.0955 -0.0899 -0.1265
  541MOL0     C72961   4.739   5.147   8.551 -0.0336  0.8304  0.0823
  541MOL0     C72962   4.806   5.016   8.504 -1.1189 -0.2725 -0.5147
  541MOL0     C72963   4.956   4.999   8.540 -0.4857  0.3835 -0.0988
  541MOL0     C72964   4.972   4.973   8.684  0.2851 -0.3791 -0.4735
  541MOL0     C72965   4.994   4.956   8.803  0.4275 -0.6241 -0.8435
  541MOL0     C72966   4.324   5.111   8.412  0.0703 -0.1008 -0.1785
  541MOL0     C72967   4.204   5.069   8.353 -0.0216 -0.5628 -0.7504
  541MOL0     H72968   3.732   5.098   8.333 -1.1276  0.4463 -1.4560
  541MOL0     H72969   3.516   5.024   8.285  0.2281  0.4878  0.1927
  541MOL0     H72970   3.355   4.823   8.279  0.8001 -2.8011 -0.1345
  541MOL0     H72971   3.338   4.960   8.153  0.5825  0.2616  0.8017
  541MOL0     H72972   3.214   4.796   8.011  3.1878  1.3849 -0.6578
  541MOL0     H72973   3.190   4.691   8.150  0.7269  0.7572  2.4678
  541MOL0     H72974   3.042   4.864   8.238  0.0740  0.1553 -1.1604
  541MOL0     H72975   3.110   4.974   8.108 -0.3860 -0.5289 -2.1466
  541MOL0     H72976   2.978   4.872   7.944  0.1794 -0.5100  0.1663
  541MOL0     H72977   2.933   4.729   8.036  1.7168 -1.0337 -1.2907
  541MOL0     H72978   2.807   4.879   8.197  0.9821 -2.7959 -1.2479
  541MOL0     H72979   2.836   5.013   8.088 -1.6424  0.2222 -0.8257
  541MOL0     H72980   2.735   4.860   7.907 -1.4681 -0.5712 -0.1530
  541MOL0     H72981   2.713   4.732   8.027 -1.0007  0.2340  0.4990
  541MOL0     H72982   2.573   4.875   8.160  1.4941 -2.4573 -0.5572
  541MOL0     H72983   2.597   5.017   8.056 -4.0128  1.0789  1.1222
  541MOL0     H72984   2.423   4.770   7.975 -0.8152 -0.2581 -0.8073
  541MOL0     H72985   2.464   4.926   7.889  4.0075  1.8998  1.1410
  541MOL0     H72986   2.333   4.859   8.250  0.3641  1.0322 -0.7839
  541MOL0     H72987   2.121   5.122   8.329 -3.1189 -0.3523  0.2124
  541MOL0     H72988   1.991   5.049   8.237  0.8187 -2.0983 -2.4455
  541MOL0     H72989   2.021   4.965   8.484  0.6384 -1.2110  0.2370
  541MOL0     H72990   2.166   4.885   8.433  0.3408  0.4793  0.6124
  541MOL0     H72991   1.981   4.735   8.434 -2.2595  1.9461  1.6576
  541MOL0     H72992   2.042   4.755   8.278  3.5247 -0.3219  1.4205
  541MOL0     H72993   1.834   4.936   8.246 -2.0044 -0.2338  0.4689
  541MOL0     H72994   1.769   4.866   8.398  2.0451 -4.0187  2.4820
  541MOL0     H72995   1.681   4.578   8.073  2.1957 -2.0752  0.0456
  541MOL0     H72996   1.567   4.244   8.135  1.5343  0.0780  0.4566
  541MOL0     H72997   1.484   4.372   8.020  1.0769  1.0226 -1.6406
  541MOL0     H72998   1.658   4.346   8.029 -0.4382  3.1987 -0.1073
  541MOL0     H72999   1.231   4.303   8.672 -1.1328 -0.8058  2.3773
  541MOL0     H73000   1.081   4.126   8.733 -0.9553 -0.3417  1.0974
  541MOL0     H73001   0.981   3.934   8.789 -0.4093  1.0566 -0.4623
  541MOL0     H73002   0.919   3.927   8.621  1.6226  1.2906 -0.0117
  541MOL0     H73003   0.970   3.700   8.815  1.2859  2.2987  0.4393
  541MOL0     H73004   0.812   3.719   8.744  0.0685 -3.5822 -0.1478
  541MOL0     H73005   1.054   3.598   8.633  0.2960  0.9225 -0.5084
  541MOL0     H73006   0.930   3.662   8.524 -1.0993 -1.2801 -1.4526
  541MOL0     H73007   0.760   3.515   8.620  0.6056  0.3188 -0.1638
  541MOL0     H73008   0.900   3.430   8.552  1.2900  1.8036 -0.3738
  541MOL0     H73009   0.836   3.336   8.778  1.5425 -0.6109  2.1578
  541MOL0     H73010   0.891   3.485   8.847  1.3179  0.0576 -0.6830
  541MOL0     H73011   1.050   3.285   8.675  1.5343  0.4942  0.2242
  541MOL0     H73012   1.117   3.435   8.748 -4.1160  3.8210  0.1141
  541MOL0     H73013   1.142   3.204   8.857 -0.0623  0.3827 -1.0253
  541MOL0     H73014   0.967   3.197   8.893  0.4149 -0.0325  1.8669
  541MOL0     H73015   1.005   3.388   9.040 -0.1267 -0.1045  1.9448
  541MOL0     H73016   1.180   3.374   9.015 -0.0550 -0.4607 -0.9966
  541MOL0     H73017   1.325   3.855   8.492 -1.8372  0.0904  0.0048
  541MOL0     H73018   1.452   4.043   8.416  1.0854  2.1892  0.6454
  541MOL0     H73019   1.599   4.479   8.539 -2.5003 -0.7124  0.0138
  541MOL0     H73020   1.720   4.663   8.488  1.2400 -0.3667 -0.6137
  541MOL0     H73021   3.663   4.724   8.016 -0.1893 -1.7220  1.5088
  541MOL0     H73022   3.905   4.790   8.094  0.9988 -0.3767  2.3549
  541MOL0     H73023   4.301   5.075   8.031  5.0302  1.7143 -0.3733
  541MOL0     H73024   4.507   5.117   8.132 -0.7441 -0.1149 -1.2367
  541MOL0     H73025   4.546   5.224   8.583  1.5648  1.5465 -0.7886
  541MOL0     H73026   4.542   5.052   8.536  0.5765 -0.8779 -2.3527
  541MOL0     H73027   4.749   5.153   8.660 -1.5958 -0.1929  0.3081
  541MOL0     H73028   4.784   5.237   8.506  4.0853 -0.1865  1.7012
  541MOL0     H73029   4.804   5.020   8.394 -1.2861  1.3663 -0.4859
  541MOL0     H73030   4.745   4.929   8.530  0.7975 -1.1385  1.3421
  541MOL0     H73031   5.012   5.088   8.511 -1.4197  1.1717  0.4616
  541MOL0     H73032   5.000   4.916   8.483 -0.6793 -0.4026  0.8735
  541MOL0     H73033   5.011   4.930   8.906  1.4166 -0.1638 -0.8769
  541MOL0     H73034   4.321   5.116   8.520  0.6621 -0.5328 -0.1368
  541MOL0     H73035   4.130   5.049   8.431  0.3116  0.8124 -0.0447
  542MOL0     O73036   8.851   8.541   5.458 -0.1058 -0.5344  0.0998
  542MOL0     C73037   8.878   8.569   5.346 -0.1343 -0.3676 -0.9190
  542MOL0     O73038   8.790   8.606   5.249  0.2999 -0.6247 -0.1123
  542MOL0     C73039   8.658   8.596   5.241  0.5472 -1.2128  0.2513
  542MOL0     C73040   8.598   8.627   5.115  0.5987  0.9055 -0.3457
  542MOL0     C73041   8.462   8.609   5.089  0.7238 -0.0925 -0.5691
  542MOL0     C73042   8.378   8.592   5.189  1.1479 -0.2062 -0.5074
  542MOL0     O73043   8.243   8.567   5.166 -0.4174 -0.0981  0.5336
  542MOL0     C73044   8.200   8.435   5.129  0.0050  0.0187  0.0442
  542MOL0     C73045   8.093   8.389   5.235  1.1571 -0.0089  0.4853
  542MOL0     C73046   7.974   8.483   5.244  0.4574 -0.1653 -0.8537
  542MOL0     C73047   7.908   8.509   5.108  1.1101  0.2023  0.6253
  542MOL0     C73048   7.762   8.557   5.116 -0.2218  0.5494 -0.6387
  542MOL0     C73049   7.757   8.704   5.169  0.3640 -0.8671 -0.4865
  542MOL0     C73050   7.609   8.759   5.173  0.3380  0.8791 -0.3193
  542MOL0     C73051   7.608   8.896   5.253 -0.3841 -0.6781  0.4483
  542MOL0     N73052   7.468   8.935   5.275 -0.0663  0.2168 -0.0543
  542MOL0     C73053   7.394   9.019   5.197 -0.1868 -0.5609  0.7707
  542MOL0     C73054   7.290   9.059   5.278 -0.4087  0.9917  0.2926
  542MOL0     C73055   7.179   9.136   5.236  0.2197  0.2340  0.0238
  542MOL0     C73056   7.035   9.091   5.266  0.2867  0.0627  0.4367
  542MOL0     C73057   6.988   8.987   5.165 -0.7894  0.9168  0.7752
  542MOL0     C73058   6.851   8.920   5.217  0.1084 -0.1661  0.5215
  542MOL0     O73059   6.755   9.022   5.232 -1.0007  0.0215 -0.9450
  542MOL0     C73060   6.624   8.995   5.272 -0.0721  1.2980  0.3423
  542MOL0     C73061   6.535   9.100   5.254  0.6855  0.5854 -0.4208
  542MOL0     C73062   6.395   9.085   5.259 -0.0773 -0.2530 -0.8102
  542MOL0     C73063   6.319   9.212   5.210  0.4969  0.8252  0.5964
  542MOL0     C73064   6.351   8.962   5.298 -0.4044 -0.9672 -0.2676
  542MOL0     C73065   6.206   8.930   5.308 -0.6794 -0.7358  0.3350
  542MOL0     O73066   6.158   8.827   5.375  0.4650 -0.8075 -0.3775
  542MOL0     C73067   6.029   8.798   5.352  0.8678 -0.7270  0.3014
  542MOL0     C73068   5.990   8.704   5.254 -0.2613  0.9955 -0.5508
  542MOL0     C73069   5.853   8.662   5.237  0.4627 -0.1740 -0.9993
  542MOL0     C73070   5.752   8.722   5.324  0.3043 -0.7323  0.4028
  542MOL0     O73071   5.620   8.695   5.312 -0.4303  0.7761 -0.1242
  542MOL0     C73072   5.569   8.601   5.407  0.1120  0.2192 -0.5023
  542MOL0     C73073   5.412   8.627   5.409 -0.3180 -0.6597  0.1663
  542MOL0     C73074   5.373   8.768   5.444 -1.1908 -0.3484 -0.2465
  542MOL0     C73075   5.242   8.820   5.386 -0.0600  0.3746 -0.4927
  542MOL0     C73076   5.227   8.817   5.236  1.1805 -0.0905 -0.1308
  542MOL0     C73077   5.116   8.920   5.187  0.2724 -0.7701 -0.2930
  542MOL0     C73078   4.988   8.887   5.264 -0.7300 -0.6487 -0.1588
  542MOL0     C73079   4.860   8.913   5.191 -0.0757  0.7609 -0.5253
  542MOL0    Cl73080   4.833   9.081   5.169 -0.2941  0.1008 -0.1662
  542MOL0     C73081   5.795   8.810   5.420  0.2177 -0.9901 -0.4377
  542MOL0     C73082   5.934   8.846   5.437  0.8343  0.3028  0.2576
  542MOL0     O73083   6.148   8.987   5.214  0.3783 -1.2604  0.4112
  542MOL0     C73084   6.436   8.860   5.324 -1.6618 -0.0123  0.4188
  542MOL0     C73085   6.574   8.869   5.314  0.1145 -0.3079 -0.7615
  542MOL0     N73086   7.313   9.004   5.399 -0.0132 -0.7782 -0.2712
  542MOL0     N73087   7.411   8.934   5.402 -0.2352  1.2630 -0.8822
  542MOL0     C73088   8.424   8.573   5.316 -0.1337  0.3235 -0.3078
  542MOL0     C73089   8.564   8.561   5.340  0.8028 -0.1305 -0.5098
  542MOL0     C73090   9.018   8.562   5.312  0.3824 -0.8776  0.5317
  542MOL0     C73091   9.117   8.547   5.407  0.3733  0.5636 -0.1281
  542MOL0     C73092   9.247   8.537   5.372  0.0400  0.1132 -0.3232
  542MOL0     C73093   9.284   8.536   5.233 -0.5388  0.1062 -0.5392
  542MOL0     O73094   9.418   8.535   5.193 -0.3902  0.5951  0.1177
  542MOL0     C73095   9.512   8.496   5.288 -0.6427  0.1835  0.1640
  542MOL0     C73096   9.613   8.417   5.207 -1.0993  0.2884 -0.2622
  542MOL0     C73097   9.579   8.273   5.193  0.7165 -0.5384 -1.0393
  542MOL0     C73098   9.611   8.224   5.055  0.4219  0.3812  0.2540
  542MOL0     C73099   9.558   8.092   5.038 -0.1822  0.0564 -0.0337
  542MOL0     C73100   9.526   7.984   5.006  0.2390  0.7064 -0.1164
  542MOL0     C73101   9.185   8.535   5.132  0.2508 -0.1952  0.4977
  542MOL0     C73102   9.052   8.545   5.177  0.1898 -0.6137  0.3943
  542MOL0     H73103   8.662   8.674   5.041  0.9668 -0.4923 -0.9481
  542MOL0     H73104   8.419   8.624   4.990  0.2317 -2.5725 -0.7985
  542MOL0     H73105   8.146   8.449   5.035  0.8424  0.8015 -0.3377
  542MOL0     H73106   8.285   8.368   5.119  0.0274 -0.4349  2.4670
  542MOL0     H73107   8.064   8.288   5.205 -1.2613  0.9602 -0.5956
  542MOL0     H73108   8.148   8.387   5.330 -1.0111  1.8905  1.8669
  542MOL0     H73109   7.898   8.435   5.307  3.8724 -2.9777  1.5564
  542MOL0     H73110   7.996   8.567   5.310  0.2170  0.7391 -1.8928
  542MOL0     H73111   7.967   8.573   5.042 -2.2539  2.3723 -0.5357
  542MOL0     H73112   7.908   8.409   5.063 -0.5463  1.1045 -1.5816
  542MOL0     H73113   7.716   8.547   5.017 -1.6148 -1.1987  0.1379
  542MOL0     H73114   7.707   8.497   5.189 -3.0306  2.7385 -0.7846
  542MOL0     H73115   7.790   8.691   5.272 -0.8959 -1.1294 -0.0949
  542MOL0     H73116   7.818   8.770   5.107  0.8809  3.4965  4.0581
  542MOL0     H73117   7.561   8.774   5.075 -1.2010 -1.4627  0.0046
  542MOL0     H73118   7.548   8.683   5.222  2.1939 -2.3924 -2.6772
  542MOL0     H73119   7.660   8.969   5.190 -2.3152  0.3123 -0.0639
  542MOL0     H73120   7.661   8.875   5.347  0.6759 -2.3955 -0.4719
  542MOL0     H73121   7.411   9.044   5.093  1.0161 -1.2388  0.7900
  542MOL0     H73122   7.189   9.236   5.281  1.8323 -0.3277  1.0026
  542MOL0     H73123   7.187   9.143   5.127 -2.2401 -1.6955 -0.3462
  542MOL0     H73124   6.964   9.174   5.262 -1.0424 -1.0582 -0.5547
  542MOL0     H73125   7.031   9.040   5.362  0.7552  1.6356  1.3214
  542MOL0     H73126   7.056   8.908   5.133 -2.4977  0.4078 -1.9692
  542MOL0     H73127   6.976   9.042   5.071  2.0123 -2.0922 -1.5746
  542MOL0     H73128   6.879   8.866   5.308  2.7501 -0.2612 -0.2495
  542MOL0     H73129   6.812   8.858   5.136 -0.5634  1.5381 -0.5241
  542MOL0     H73130   6.572   9.192   5.210  2.7622  0.2648  0.5370
  542MOL0     H73131   6.376   9.301   5.238  2.1759 -0.4133  1.3269
  542MOL0     H73132   6.305   9.215   5.102 -1.3078 -0.0320  0.7818
  542MOL0     H73133   6.219   9.225   5.252 -2.3013 -2.6709 -3.9572
  542MOL0     H73134   6.071   8.666   5.194  0.7166  2.2898 -0.0971
  542MOL0     H73135   5.811   8.595   5.163  1.0473 -0.6511 -0.9040
  542MOL0     H73136   5.596   8.496   5.391  2.0217  0.6039 -0.0153
  542MOL0     H73137   5.598   8.625   5.510 -0.7522 -0.5998 -0.0490
  542MOL0     H73138   5.384   8.608   5.305 -2.4388 -0.9610  0.7543
  542MOL0     H73139   5.347   8.561   5.465 -3.0665  0.8871 -1.0136
  542MOL0     H73140   5.448   8.838   5.405  0.0006 -0.3920  1.8227
  542MOL0     H73141   5.371   8.782   5.553 -3.4881  0.8084 -0.3762
  542MOL0     H73142   5.175   8.749   5.435  1.8702  0.5430  2.7020
  542MOL0     H73143   5.227   8.915   5.438  0.2897  0.0979  0.1269
  542MOL0     H73144   5.192   8.717   5.210  0.4950 -0.1708  1.0145
  542MOL0     H73145   5.331   8.830   5.205  1.4618 -1.4040  0.2272
  542MOL0     H73146   5.133   9.028   5.195 -1.9977 -0.3811 -0.1020
  542MOL0     H73147   5.094   8.898   5.082 -4.6087 -0.0761  0.3774
  542MOL0     H73148   4.987   8.955   5.350 -2.7393  1.8138 -1.9615
  542MOL0     H73149   4.990   8.780   5.287 -0.1581 -0.6731 -0.3053
  542MOL0     H73150   4.773   8.877   5.248 -2.0426  0.1701 -3.6594
  542MOL0     H73151   4.873   8.870   5.092  1.5742  3.0442 -1.3930
  542MOL0     H73152   5.711   8.847   5.477 -1.0660  0.5154 -3.0806
  542MOL0     H73153   5.951   8.899   5.531  0.9244 -0.9743  0.9888
  542MOL0     H73154   6.403   8.765   5.364 -0.1753 -0.8250 -0.2339
  542MOL0     H73155   6.644   8.788   5.334  1.7566  1.3853  0.8221
  542MOL0     H73156   8.358   8.565   5.402  2.3389  0.5219  1.7298
  542MOL0     H73157   8.599   8.539   5.440 -2.8073 -2.7546  0.3753
  542MOL0     H73158   9.090   8.551   5.512 -2.0693 -0.7184 -0.6412
  542MOL0     H73159   9.329   8.520   5.441  3.1328  1.7444 -3.2768
  542MOL0     H73160   9.556   8.584   5.335  0.0823 -0.6243  1.0502
  542MOL0     H73161   9.477   8.418   5.357 -0.8330  1.0771  1.1044
  542MOL0     H73162   9.701   8.417   5.271 -2.2924  1.8124  1.4810
  542MOL0     H73163   9.636   8.470   5.114 -3.4276  0.0019 -1.0793
  542MOL0     H73164   9.470   8.272   5.206  0.7391 -1.7988 -0.8460
  542MOL0     H73165   9.624   8.216   5.274 -0.3256 -0.9459 -0.7314
  542MOL0     H73166   9.716   8.226   5.022 -0.4784 -0.2652 -3.0744
  542MOL0     H73167   9.564   8.294   4.986  1.6970  1.4945  0.4837
  542MOL0     H73168   9.502   7.882   4.985  0.1814  0.6349  0.2915
  542MOL0     H73169   9.229   8.533   5.033 -1.7657  0.0117 -0.4529
  542MOL0     H73170   8.984   8.564   5.094  0.7845  0.0214  0.0486
  543MOL0     O73171   7.062   7.040   8.941  0.5338  0.0004 -0.0530
  543MOL0     C73172   7.089   7.110   8.849  0.5293  0.0264  0.3879
  543MOL0     O73173   7.014   7.216   8.800  0.1960  0.1703  0.4442
  543MOL0     C73174   6.898   7.275   8.856  0.0369  0.6319  0.7063
  543MOL0     C73175   6.830   7.239   8.973  0.1155 -0.0003 -0.6415
  543MOL0     C73176   6.720   7.313   9.017 -0.6751  0.0474 -0.0241
  543MOL0     C73177   6.680   7.423   8.942 -0.6458 -0.4276  0.0117
  543MOL0     O73178   6.577   7.483   8.999 -0.1318  0.0292  0.3456
  543MOL0     C73179   6.530   7.595   8.936  0.1973 -0.1622 -0.6119
  543MOL0     C73180   6.393   7.639   8.987 -1.2480 -0.1770  0.0457
  543MOL0     C73181   6.382   7.624   9.136  0.2181  0.1348 -0.0997
  543MOL0     C73182   6.245   7.682   9.169 -0.4114 -0.3987 -1.0411
  543MOL0     C73183   6.202   7.685   9.323 -0.6416  0.3781  0.1338
  543MOL0     C73184   6.053   7.689   9.361  0.5001  0.1817  0.5033
  543MOL0     C73185   6.032   7.720   9.505 -0.3350  1.1566  0.0004
  543MOL0     C73186   5.877   7.740   9.530 -0.6566 -0.6900  0.1902
  543MOL0     N73187   5.785   7.625   9.496 -0.3615 -0.0603  0.7984
  543MOL0     C73188   5.771   7.512   9.574 -0.0663 -0.1010  0.5543
  543MOL0     C73189   5.714   7.419   9.504 -0.7222 -0.9052  1.1244
  543MOL0     C73190   5.673   7.294   9.558 -0.4545  0.3807 -0.4449
  543MOL0     C73191   5.606   7.202   9.458 -0.2179 -0.0653 -0.3230
  543MOL0     C73192   5.701   7.162   9.338 -0.7339  0.0114  0.2225
  543MOL0     C73193   5.656   7.035   9.262 -0.1834  0.0869 -0.3419
  543MOL0     O73194   5.677   6.912   9.341 -0.1843  0.2353  1.1295
  543MOL0     C73195   5.628   6.796   9.279 -0.3868 -0.4439  0.1697
  543MOL0     C73196   5.497   6.782   9.254 -0.7700  0.8803  0.0974
  543MOL0     C73197   5.447   6.672   9.191  0.2284  0.0351 -0.6674
  543MOL0     C73198   5.303   6.673   9.153 -0.6389 -1.0332 -0.4017
  543MOL0     C73199   5.532   6.561   9.157  0.7595 -0.2447  0.8627
  543MOL0     C73200   5.481   6.446   9.084  0.3110 -0.4500  0.5670
  543MOL0     O73201   5.493   6.338   9.157 -0.7602 -0.1209  0.0899
  543MOL0     C73202   5.449   6.214   9.106 -0.6202  0.0532  0.2994
  543MOL0     C73203   5.531   6.107   9.147  0.1408  0.3343 -0.6526
  543MOL0     C73204   5.500   5.979   9.109  0.1103  0.0528  0.2608
  543MOL0     C73205   5.380   5.953   9.047  0.4404  0.7575  0.0445
  543MOL0     O73206   5.350   5.819   9.017  0.4071  0.1926 -0.4939
  543MOL0     C73207   5.265   5.783   8.901  0.0050  0.3469 -0.7791
  543MOL0     C73208   5.355   5.767   8.778  0.5037 -0.4494 -0.1362
  543MOL0     C73209   5.481   5.683   8.792 -0.4158  0.0282 -0.0900
  543MOL0     C73210   5.560   5.664   8.655  0.6487 -0.3918  0.4551
  543MOL0     C73211   5.673   5.561   8.672  0.7991  0.6575  0.4237
  543MOL0     C73212   5.777   5.580   8.787  0.2462  0.2439 -0.4901
  543MOL0     C73213   5.885   5.481   8.769  0.3099  0.2999 -0.5843
  543MOL0     C73214   5.856   5.338   8.810  0.8564  0.1715  1.1827
  543MOL0    Cl73215   5.727   5.238   8.719  0.1071  0.5237  0.0924
  543MOL0     C73216   5.301   6.060   9.010 -0.5333 -0.1128  0.1725
  543MOL0     C73217   5.336   6.182   9.042  1.2672 -0.2579  0.3392
  543MOL0     O73218   5.415   6.455   8.979 -0.4696  0.7837  0.8158
  543MOL0     C73219   5.663   6.560   9.212  0.1795  0.1991  0.8473
  543MOL0     C73220   5.706   6.679   9.268  0.2038  0.1245  0.0485
  543MOL0     N73221   5.679   7.480   9.385  0.1489 -0.3445  0.4406
  543MOL0     N73222   5.723   7.601   9.380 -0.1659 -0.1239 -0.0277
  543MOL0     C73223   6.751   7.460   8.826  0.4068  0.3866  0.2198
  543MOL0     C73224   6.865   7.392   8.790  0.3973  0.3635  0.3977
  543MOL0     C73225   7.223   7.079   8.785  1.3489 -0.6518  0.3512
  543MOL0     C73226   7.309   6.986   8.835 -0.4414  0.6440  0.1512
  543MOL0     C73227   7.435   6.968   8.776  0.6936 -0.4352  0.5029
  543MOL0     C73228   7.474   7.027   8.655 -0.5615  0.2060  0.0149
  543MOL0     O73229   7.589   7.006   8.583 -0.1812  0.8371  0.3049
  543MOL0     C73230   7.686   6.931   8.655  0.5840 -0.0912  0.2001
  543MOL0     C73231   7.812   6.904   8.568  0.6746 -0.6400  0.9780
  543MOL0     C73232   7.794   6.814   8.448  0.2870  0.6713  0.0329
  543MOL0     C73233   7.913   6.818   8.353 -0.3368  0.0266 -0.5223
  543MOL0     C73234   8.041   6.779   8.407 -0.3971 -1.1211 -0.1301
  543MOL0     C73235   8.149   6.744   8.445  0.2916  0.2076  0.1354
  543MOL0     C73236   7.387   7.110   8.598  1.2289 -0.2397  0.4457
  543MOL0     C73237   7.260   7.140   8.664 -0.1067 -0.8072 -0.0356
  543MOL0     H73238   6.860   7.156   9.036  1.7163  1.9933  1.3845
  543MOL0     H73239   6.666   7.287   9.108 -2.5138  1.9546 -0.4845
  543MOL0     H73240   6.589   7.683   8.962 -1.3762  0.4838  0.9506
  543MOL0     H73241   6.523   7.580   8.827  0.7270 -1.0152 -0.5428
  543MOL0     H73242   6.353   7.735   8.951 -1.3601 -0.1018  0.3654
  543MOL0     H73243   6.328   7.562   8.944 -2.5457  2.1613 -2.5276
  543MOL0     H73244   6.392   7.520   9.169  1.3601  0.5230  0.8229
  543MOL0     H73245   6.468   7.671   9.185  2.7492 -0.8503 -3.2461
  543MOL0     H73246   6.238   7.787   9.142 -3.6786 -0.3310 -0.3099
  543MOL0     H73247   6.169   7.627   9.111 -0.2246 -0.2589 -1.4186
  543MOL0     H73248   6.249   7.598   9.369  1.2832  0.0063 -2.3161
  543MOL0     H73249   6.258   7.772   9.358  0.9005  0.6425 -2.6992
  543MOL0     H73250   6.004   7.768   9.303 -0.1085  0.2385  1.0782
  543MOL0     H73251   6.006   7.595   9.330 -2.9307  2.3319 -1.4609
  543MOL0     H73252   6.077   7.639   9.563  1.7314  0.6076 -2.1914
  543MOL0     H73253   6.093   7.806   9.532 -0.2807  0.8946  0.7166
  543MOL0     H73254   5.839   7.814   9.458 -0.1780 -2.2760 -1.7715
  543MOL0     H73255   5.868   7.785   9.629  1.5722  4.0845 -1.4304
  543MOL0     H73256   5.803   7.495   9.677 -1.8216  1.0601  1.3408
  543MOL0     H73257   5.757   7.242   9.605 -3.4074 -4.3582  0.1819
  543MOL0     H73258   5.608   7.310   9.644 -1.9846 -0.9892 -1.2973
  543MOL0     H73259   5.518   7.256   9.421  0.9687  2.5094  0.3581
  543MOL0     H73260   5.568   7.120   9.519  0.6077  1.0530  1.7905
  543MOL0     H73261   5.801   7.141   9.377  0.3817 -0.0364 -2.4316
  543MOL0     H73262   5.710   7.244   9.266  1.3882  0.6901  1.2165
  543MOL0     H73263   5.718   7.037   9.172 -1.1503  0.3851 -1.0242
  543MOL0     H73264   5.549   7.054   9.251 -0.3442 -0.2065  0.6486
  543MOL0     H73265   5.432   6.866   9.276 -0.1363  2.3104 -3.0408
  543MOL0     H73266   5.258   6.581   9.191  1.2451 -2.5323 -1.6381
  543MOL0     H73267   5.246   6.751   9.203  0.6610 -0.1123 -0.3000
  543MOL0     H73268   5.288   6.692   9.046 -0.0371  1.9086 -0.0528
  543MOL0     H73269   5.620   6.121   9.207 -1.6053 -0.6668  2.3954
  543MOL0     H73270   5.576   5.908   9.139  0.8463  0.0517 -1.4975
  543MOL0     H73271   5.204   5.695   8.924  0.4981  0.2342  0.1225
  543MOL0     H73272   5.195   5.864   8.880 -0.6696  0.2189  0.8208
  543MOL0     H73273   5.301   5.719   8.696  1.1465  1.0211 -1.4907
  543MOL0     H73274   5.376   5.867   8.737 -0.9554 -0.3461 -0.6811
  543MOL0     H73275   5.455   5.585   8.834  1.0716 -1.7655 -3.0165
  543MOL0     H73276   5.552   5.730   8.861  1.0566  0.5873 -1.8981
  543MOL0     H73277   5.487   5.637   8.578 -0.8156  0.6045  1.4208
  543MOL0     H73278   5.601   5.764   8.636  1.6033 -0.6150  1.2475
  543MOL0     H73279   5.727   5.542   8.579 -1.3843  1.0959 -0.9908
  543MOL0     H73280   5.623   5.466   8.691 -0.4523  1.2291  0.1126
  543MOL0     H73281   5.818   5.681   8.776  0.7085  0.1052 -0.0971
  543MOL0     H73282   5.732   5.584   8.887 -1.2434  2.5416 -1.1768
  543MOL0     H73283   5.957   5.512   8.845 -0.9652 -1.1766  1.3115
  543MOL0     H73284   5.923   5.481   8.666  0.1073 -1.1733 -0.6796
  543MOL0     H73285   5.824   5.333   8.915 -1.0158 -2.8958  0.6177
  543MOL0     H73286   5.951   5.286   8.802  0.8201  0.4375 -2.2184
  543MOL0     H73287   5.198   6.043   8.981 -0.6558 -3.3203  2.0489
  543MOL0     H73288   5.264   6.258   9.014 -0.4048 -1.6289  0.7635
  543MOL0     H73289   5.725   6.472   9.198 -3.2120 -2.4547  1.3611
  543MOL0     H73290   5.810   6.694   9.293  0.7090  0.5587 -2.1436
  543MOL0     H73291   6.743   7.546   8.761 -0.0321 -0.9498 -1.5570
  543MOL0     H73292   6.921   7.428   8.704  0.6526  0.8273  0.7558
  543MOL0     H73293   7.288   6.925   8.922 -1.6635 -2.4856 -2.1757
  543MOL0     H73294   7.507   6.899   8.819 -0.5906 -2.4230 -0.3792
  543MOL0     H73295   7.734   6.979   8.741  1.5630 -2.2327  0.9189
  543MOL0     H73296   7.656   6.830   8.682 -2.8496  0.6512 -0.3794
  543MOL0     H73297   7.889   6.854   8.627  1.1864 -2.5268 -1.1569
  543MOL0     H73298   7.841   7.002   8.529 -0.3887 -1.0903 -1.0608
  543MOL0     H73299   7.706   6.850   8.393  0.5510  2.3620  0.6552
  543MOL0     H73300   7.780   6.712   8.487 -2.2792  0.5866 -0.9234
  543MOL0     H73301   7.921   6.910   8.296  0.8258 -0.8666 -1.8733
  543MOL0     H73302   7.894   6.740   8.279  1.3457  1.0538 -2.1253
  543MOL0     H73303   8.248   6.720   8.479 -0.5113 -5.4933 -0.6547
  543MOL0     H73304   7.408   7.156   8.502 -0.3376 -2.1187 -0.8709
  543MOL0     H73305   7.188   7.201   8.611  0.4990  1.8915  2.0387
  544MOL0     O73306   9.096   5.936   7.866  0.6346 -0.3099 -0.6932
  544MOL0     C73307   9.036   5.835   7.829 -0.2592  0.0791 -0.5561
  544MOL0     O73308   9.092   5.744   7.742  0.3849 -0.4492 -0.5946
  544MOL0     C73309   9.226   5.725   7.711  0.0007  0.2586 -0.1298
  544MOL0     C73310   9.253   5.592   7.680  0.1954  0.2877 -0.5894
  544MOL0     C73311   9.372   5.556   7.629  0.1483 -1.3502 -0.8209
  544MOL0     C73312   9.476   5.651   7.618 -0.2275  1.0953  0.9648
  544MOL0     O73313   9.593   5.602   7.567  0.2445  0.1871  0.1479
  544MOL0     C73314   9.692   5.695   7.524 -0.3375  0.1274  1.1901
  544MOL0     C73315   9.792   5.610   7.446  0.4191 -0.0928  1.1206
  544MOL0     C73316   9.873   5.522   7.544  0.6544  0.5608  0.4141
  544MOL0     C73317   9.890   5.384   7.470  0.8496  0.2436  1.0167
  544MOL0     C73318  10.001   5.309   7.546  0.4608 -0.9518  0.5040
  544MOL0     C73319  10.032   5.179   7.468  0.4189 -0.5920  0.2499
  544MOL0     C73320  10.161   5.114   7.518 -0.0359  0.6285  0.1371
  544MOL0     C73321  10.145   5.041   7.655  0.2942  0.1380  0.4259
  544MOL0     N73322  10.051   4.930   7.658  0.0832 -0.9260 -0.0059
  544MOL0     C73323  10.014   4.859   7.772 -0.2546 -0.1204  1.4106
  544MOL0     C73324   9.946   4.753   7.716 -0.4428 -0.4844 -0.1359
  544MOL0     C73325   9.878   4.651   7.792  0.1549 -0.1261  0.8439
  544MOL0     C73326   9.805   4.536   7.710  0.1406  0.3048  0.8581
  544MOL0     C73327   9.747   4.423   7.802 -0.4890  0.1198 -0.8836
  544MOL0     C73328   9.628   4.463   7.895  0.2007 -0.5046 -0.3423
  544MOL0     O73329   9.510   4.482   7.810  0.6923  0.4087 -0.2405
  544MOL0     C73330   9.388   4.514   7.857 -0.7589  0.0465  0.0426
  544MOL0     C73331   9.351   4.534   7.996 -1.0770 -0.1186 -0.0228
  544MOL0     C73332   9.221   4.562   8.037  0.7649  0.2999  0.0233
  544MOL0     C73333   9.197   4.601   8.186 -0.1038 -0.3071  0.1316
  544MOL0     C73334   9.120   4.583   7.942  0.2788 -0.9871  0.1673
  544MOL0     C73335   8.981   4.631   7.972  0.3201  0.2464  0.2738
  544MOL0     O73336   8.899   4.621   7.858 -0.0102 -0.0892  0.2085
  544MOL0     C73337   8.764   4.630   7.876 -0.4022 -0.6876  0.4519
  544MOL0     C73338   8.686   4.530   7.900  0.2144 -0.0773 -0.2538
  544MOL0     C73339   8.548   4.542   7.936  0.6920  0.3365 -0.1456
  544MOL0     C73340   8.486   4.666   7.911 -0.5716 -0.2168  0.4195
  544MOL0     O73341   8.355   4.688   7.942 -0.1811  0.4678  0.1676
  544MOL0     C73342   8.259   4.593   7.891  0.7449 -0.4704 -0.8208
  544MOL0     C73343   8.121   4.618   7.952  0.0972  0.7180 -0.6049
  544MOL0     C73344   8.008   4.587   7.859  0.0353  0.1629 -0.3107
  544MOL0     C73345   7.869   4.601   7.932  0.0358 -0.2976 -0.4843
  544MOL0     C73346   7.763   4.550   7.833  0.3723  0.0713 -0.9152
  544MOL0     C73347   7.634   4.537   7.912  0.3295 -0.4458  0.4172
  544MOL0     C73348   7.510   4.538   7.825  0.1012 -0.4870  0.0160
  544MOL0     C73349   7.488   4.651   7.734  0.5681 -0.2839 -0.0229
  544MOL0    Cl73350   7.317   4.667   7.684  0.3988 -0.1351  0.1659
  544MOL0     C73351   8.571   4.772   7.876 -0.1735 -0.4933  0.2018
  544MOL0     C73352   8.704   4.754   7.857 -0.7387 -0.7416 -0.2760
  544MOL0     O73353   8.938   4.667   8.085 -0.0228 -0.2431 -0.2033
  544MOL0     C73354   9.159   4.572   7.810 -0.0705 -0.4266 -0.2586
  544MOL0     C73355   9.282   4.539   7.768 -0.2918  0.5065  0.0968
  544MOL0     N73356   9.955   4.762   7.582 -0.1657 -0.3237 -0.3843
  544MOL0     N73357  10.004   4.869   7.544  0.0594 -0.1321 -0.1442
  544MOL0     C73358   9.456   5.783   7.660 -0.3168  0.0137  0.1178
  544MOL0     C73359   9.330   5.824   7.702  0.0071  0.7249  0.5496
  544MOL0     C73360   8.897   5.801   7.875  0.0637  0.0537 -1.0305
  544MOL0     C73361   8.843   5.867   7.983 -0.2523 -1.4417  0.1421
  544MOL0     C73362   8.724   5.824   8.047 -0.9077 -0.3779  0.2070
  544MOL0     C73363   8.644   5.717   7.995 -0.0220 -0.4182  0.3293
  544MOL0     O73364   8.540   5.660   8.058 -0.1507  0.3455 -0.0091
  544MOL0     C73365   8.440   5.750   8.099 -0.5121 -0.3206  0.3349
  544MOL0     C73366   8.321   5.674   8.167  0.5386 -0.6725  0.1029
  544MOL0     C73367   8.261   5.557   8.079 -0.4826 -0.0132  0.2013
  544MOL0     C73368   8.167   5.474   8.167 -0.4799  0.2316 -0.1678
  544MOL0     C73369   8.036   5.541   8.201 -1.2533 -0.8103  0.3578
  544MOL0     C73370   7.922   5.584   8.210 -0.1071 -0.2337  0.6778
  544MOL0     C73371   8.695   5.648   7.883  0.6667 -0.4892  0.1184
  544MOL0     C73372   8.815   5.691   7.822  0.5986 -0.0560 -0.1275
  544MOL0     H73373   9.185   5.508   7.690 -0.0117 -0.1124 -3.9659
  544MOL0     H73374   9.385   5.449   7.615  2.8481 -1.2564  0.3535
  544MOL0     H73375   9.642   5.767   7.458  0.6714  1.1508  1.4954
  544MOL0     H73376   9.754   5.754   7.593  0.3446 -0.0815  0.7691
  544MOL0     H73377   9.740   5.549   7.372 -1.6509  1.2797  1.3579
  544MOL0     H73378   9.867   5.669   7.392 -1.7396  0.2265 -1.7191
  544MOL0     H73379   9.969   5.562   7.576  2.3258 -2.9420  0.1960
  544MOL0     H73380   9.815   5.504   7.635 -1.5387 -1.0374 -1.1981
  544MOL0     H73381   9.790   5.340   7.469  0.6530  0.6989  0.8664
  544MOL0     H73382   9.920   5.395   7.366  1.2206  1.8044  1.2691
  544MOL0     H73383  10.086   5.373   7.570  0.6834  0.0712 -2.5218
  544MOL0     H73384   9.958   5.279   7.642 -2.4180  2.3838  0.4652
  544MOL0     H73385   9.941   5.119   7.467 -0.3717  0.5656 -0.9618
  544MOL0     H73386  10.046   5.209   7.364 -1.9009 -0.5953 -0.1212
  544MOL0     H73387  10.217   5.056   7.443  0.9380  0.8251  0.6928
  544MOL0     H73388  10.234   5.192   7.544  2.7398 -1.2568 -1.4035
  544MOL0     H73389  10.136   5.105   7.743  1.0503 -0.5824  1.0424
  544MOL0     H73390  10.246   5.004   7.674  0.0542  0.1242  1.8087
  544MOL0     H73391  10.029   4.881   7.877 -0.0351  2.0727  0.9741
  544MOL0     H73392   9.955   4.593   7.843  0.8709 -1.4166 -1.5123
  544MOL0     H73393   9.821   4.708   7.866  1.6450  1.4877  0.8264
  544MOL0     H73394   9.880   4.489   7.647  0.7254  1.5319  0.6116
  544MOL0     H73395   9.733   4.587   7.645 -0.0910  1.1125  1.7172
  544MOL0     H73396   9.822   4.382   7.871  0.6511  3.9198  0.3673
  544MOL0     H73397   9.720   4.338   7.739 -1.0962 -1.1379  0.9819
  544MOL0     H73398   9.651   4.553   7.953 -0.6508 -1.9175  2.3611
  544MOL0     H73399   9.600   4.395   7.976 -0.4855  2.3948  2.0397
  544MOL0     H73400   9.433   4.522   8.066 -0.7746 -1.5649 -0.6062
  544MOL0     H73401   9.115   4.541   8.228  0.1509 -1.4747 -0.9843
  544MOL0     H73402   9.284   4.582   8.250 -1.9845 -1.2085  2.5977
  544MOL0     H73403   9.173   4.707   8.200  2.8645  0.8220 -2.0958
  544MOL0     H73404   8.733   4.432   7.892  2.5054  0.9703 -0.3365
  544MOL0     H73405   8.499   4.447   7.954  2.3853 -0.0947  3.1191
  544MOL0     H73406   8.258   4.609   7.783  3.1674 -0.4288 -0.8751
  544MOL0     H73407   8.286   4.487   7.890  2.6448 -0.0265 -0.1373
  544MOL0     H73408   8.113   4.560   8.045  3.4080  1.5747  0.3329
  544MOL0     H73409   8.114   4.724   7.979  1.1074  0.6701 -0.1253
  544MOL0     H73410   8.011   4.481   7.831 -1.4988 -0.7589  2.6061
  544MOL0     H73411   8.015   4.648   7.769  1.1625  0.5059 -0.0069
  544MOL0     H73412   7.860   4.540   8.022  2.6486 -1.2769 -0.8136
  544MOL0     H73413   7.850   4.705   7.962 -0.9446 -0.3680 -0.8324
  544MOL0     H73414   7.783   4.447   7.803 -2.5851 -1.7489  2.6745
  544MOL0     H73415   7.763   4.616   7.745 -1.5152  1.6448  0.1845
  544MOL0     H73416   7.641   4.443   7.966  3.8281 -0.4577  0.1391
  544MOL0     H73417   7.616   4.619   7.982 -1.9619  2.2407 -2.9632
  544MOL0     H73418   7.427   4.529   7.896 -1.1872 -0.0577 -1.3824
  544MOL0     H73419   7.503   4.452   7.758 -0.3641  2.7120 -4.5068
  544MOL0     H73420   7.544   4.641   7.641  0.4184  1.4200 -0.3389
  544MOL0     H73421   7.521   4.746   7.779 -1.0356  0.9662 -1.3737
  544MOL0     H73422   8.525   4.868   7.856  0.2717  0.2485  2.3902
  544MOL0     H73423   8.757   4.843   7.827 -1.1498  1.2147  4.0781
  544MOL0     H73424   9.093   4.578   7.724 -2.1728  0.2398  1.3159
  544MOL0     H73425   9.313   4.528   7.664  1.4127 -2.6133  0.8241
  544MOL0     H73426   9.542   5.850   7.663  0.6825 -1.1280 -1.3627
  544MOL0     H73427   9.313   5.930   7.719  1.5529  0.8333  1.6065
  544MOL0     H73428   8.885   5.950   8.037 -0.2734 -2.3947  1.7029
  544MOL0     H73429   8.696   5.882   8.135 -1.2508 -0.4652  0.1591
  544MOL0     H73430   8.486   5.816   8.174  1.1539 -1.4811  0.4005
  544MOL0     H73431   8.403   5.814   8.019 -0.0260 -0.8980 -0.3648
  544MOL0     H73432   8.246   5.749   8.196 -1.5299 -0.9793 -3.7579
  544MOL0     H73433   8.360   5.629   8.259  0.9473 -0.3173  0.1064
  544MOL0     H73434   8.341   5.491   8.044 -1.8643 -0.7075 -1.8634
  544MOL0     H73435   8.203   5.599   7.996  0.8015 -0.3938 -0.9253
  544MOL0     H73436   8.219   5.435   8.255  0.2765  0.9510 -0.2774
  544MOL0     H73437   8.141   5.383   8.111  1.9572 -3.2527  3.6999
  544MOL0     H73438   7.818   5.612   8.208 -0.8965 -2.8573 -1.4997
  544MOL0     H73439   8.643   5.560   7.846  1.6991 -0.8104 -0.6103
  544MOL0     H73440   8.844   5.638   7.732  0.1464  3.7310 -2.7443
  545MOL0     O73441   9.486   3.060   1.082 -0.3696 -0.2256 -0.9552
  545MOL0     C73442   9.385   3.012   1.125 -1.6262 -0.5507  0.2040
  545MOL0     O73443   9.314   2.915   1.062 -0.0888  0.1564 -0.1703
  545MOL0     C73444   9.375   2.832   0.963 -0.3961 -0.3357 -0.2658
  545MOL0     C73445   9.397   2.894   0.839 -0.2702 -0.3787 -0.6602
  545MOL0     C73446   9.479   2.833   0.747  0.3825 -0.0308 -0.0582
  545MOL0     C73447   9.528   2.708   0.761  0.5112  0.9790 -0.6237
  545MOL0     O73448   9.603   2.644   0.664  1.4401 -0.5083  0.3173
  545MOL0     C73449   9.536   2.518   0.616  0.1443 -0.7328 -0.7851
  545MOL0     C73450   9.532   2.503   0.464 -0.6582  0.1723 -1.0384
  545MOL0     C73451   9.462   2.625   0.399  0.0431 -0.3842 -0.4920
  545MOL0     C73452   9.431   2.578   0.251 -0.6160  0.0281 -1.4022
  545MOL0     C73453   9.358   2.693   0.174 -0.1541  0.0068  0.3926
  545MOL0     C73454   9.214   2.705   0.217 -0.1412  0.7015 -0.1348
  545MOL0     C73455   9.139   2.818   0.149 -1.2870 -0.0061 -0.3341
  545MOL0     C73456   9.113   2.801  -0.004 -0.1343 -0.3296 -0.5798
  545MOL0     N73457   9.015   2.900  -0.053  0.3608  0.0644 -0.9353
  545MOL0     C73458   8.884   2.926  -0.026  0.1307 -0.2860 -0.4124
  545MOL0     C73459   8.858   3.047  -0.088  0.6485 -0.5733 -1.5911
  545MOL0     C73460   8.721   3.118  -0.071 -0.2476  0.2234 -0.2060
  545MOL0     C73461   8.626   3.039  -0.158  0.2326 -1.0353 -0.1708
  545MOL0     C73462   8.473   3.081  -0.129  0.1172  0.0728  0.3620
  545MOL0     C73463   8.377   3.015  -0.228 -0.4163  0.1494 -0.2011
  545MOL0     O73464   8.392   3.058  -0.364  0.2473  0.9095 -0.1678
  545MOL0     C73465   8.320   3.010  -0.468  0.0567  0.7680 -0.0057
  545MOL0     C73466   8.235   2.900  -0.481 -0.0031  0.3072  0.0500
  545MOL0     C73467   8.162   2.878  -0.604 -0.0044 -0.5439 -0.0905
  545MOL0     C73468   8.085   2.741  -0.614  0.5447 -0.9827  0.4482
  545MOL0     C73469   8.158   2.975  -0.711 -0.0224 -0.2076 -0.4707
  545MOL0     C73470   8.067   2.969  -0.827  0.2900  0.5139  0.3937
  545MOL0     O73471   7.946   2.905  -0.816  0.1412  0.3328  0.7369
  545MOL0     C73472   7.855   2.911  -0.922 -0.3956  0.3373  1.0345
  545MOL0     C73473   7.762   3.014  -0.934 -0.6193 -0.0583 -0.1803
  545MOL0     C73474   7.684   3.036  -1.044 -0.3384 -0.7170 -0.1586
  545MOL0     C73475   7.696   2.960  -1.155 -0.4125 -0.2542  0.1143
  545MOL0     O73476   7.629   2.962  -1.276  0.5610  0.1244 -0.0593
  545MOL0     C73477   7.546   3.069  -1.311  0.0035 -0.0194 -0.0789
  545MOL0     C73478   7.532   3.082  -1.467  0.6538  0.5941 -0.1127
  545MOL0     C73479   7.618   2.973  -1.554  0.0389  0.4206 -0.1643
  545MOL0     C73480   7.651   3.024  -1.690  0.4791  0.2191  0.4101
  545MOL0     C73481   7.714   2.918  -1.786 -0.3551 -0.1553 -0.0762
  545MOL0     C73482   7.655   2.785  -1.803 -0.1615  0.6163  0.5399
  545MOL0     C73483   7.506   2.782  -1.838  0.4240 -0.5494  0.0206
  545MOL0     C73484   7.462   2.639  -1.867  0.5741  0.4296 -0.0092
  545MOL0    Cl73485   7.293   2.623  -1.907 -0.2611 -0.1534  0.0912
  545MOL0     C73486   7.793   2.851  -1.152 -0.4610 -0.3810  0.1717
  545MOL0     C73487   7.865   2.832  -1.038 -0.9430  0.0224  0.0116
  545MOL0     O73488   8.102   3.019  -0.937  0.4720 -0.8124 -0.2301
  545MOL0     C73489   8.238   3.088  -0.692  0.2218  0.1863 -0.9523
  545MOL0     C73490   8.321   3.093  -0.582 -0.6326 -0.3459 -0.4643
  545MOL0     N73491   8.973   3.090  -0.159  0.0975 -0.3594 -0.4667
  545MOL0     N73492   9.068   3.006  -0.127  0.7293 -0.3463 -0.1061
  545MOL0     C73493   9.486   2.643   0.887 -0.8221  0.2102  0.6343
  545MOL0     C73494   9.415   2.703   0.985  0.2008  0.8445  0.4019
  545MOL0     C73495   9.317   3.077   1.231 -0.2738  0.2039 -0.0769
  545MOL0     C73496   9.187   3.032   1.271  0.6500 -0.3528  0.1491
  545MOL0     C73497   9.125   3.072   1.387  0.1608 -0.4124  0.4824
  545MOL0     C73498   9.206   3.153   1.480  0.7190 -0.3752  1.0922
  545MOL0     O73499   9.161   3.195   1.605 -0.2099  0.5960 -0.4313
  545MOL0     C73500   9.042   3.133   1.668 -0.2455 -0.4006 -0.3800
  545MOL0     C73501   9.044   3.167   1.814 -0.2388 -0.4636 -0.2618
  545MOL0     C73502   9.151   3.086   1.890  0.2618  0.2811  1.2336
  545MOL0     C73503   9.142   3.097   2.046  0.2858 -0.0463 -0.1671
  545MOL0     C73504   9.132   3.235   2.101 -0.2696 -0.2280 -0.2346
  545MOL0     C73505   9.136   3.349   2.118 -0.0741 -0.2249 -0.5106
  545MOL0     C73506   9.328   3.212   1.441  0.2145  0.1714 -0.6733
  545MOL0     C73507   9.373   3.179   1.312  0.2316 -0.8505  0.4607
  545MOL0     H73508   9.364   2.994   0.812 -1.7377 -0.5554  0.3399
  545MOL0     H73509   9.495   2.877   0.649 -0.2913 -1.4779 -0.8520
  545MOL0     H73510   9.592   2.433   0.657  0.9155  0.3802  0.5614
  545MOL0     H73511   9.439   2.496   0.661  0.8365 -4.0270 -0.6633
  545MOL0     H73512   9.637   2.510   0.434 -1.0165 -1.4552 -2.8658
  545MOL0     H73513   9.480   2.411   0.433 -1.0311 -0.1424  0.4693
  545MOL0     H73514   9.376   2.662   0.455  1.5160  2.7143 -0.0825
  545MOL0     H73515   9.537   2.705   0.398 -0.8895  0.5122 -1.1878
  545MOL0     H73516   9.522   2.549   0.197  0.4890 -0.5792  0.6917
  545MOL0     H73517   9.364   2.493   0.240 -2.8345  1.6138 -0.9059
  545MOL0     H73518   9.402   2.794   0.171 -2.2274  0.9542 -0.3592
  545MOL0     H73519   9.361   2.658   0.071 -1.0790 -0.6910  0.5927
  545MOL0     H73520   9.169   2.606   0.205 -0.3828  0.5340  1.9108
  545MOL0     H73521   9.204   2.728   0.323 -1.6391 -1.2835  0.2134
  545MOL0     H73522   9.040   2.840   0.190 -0.9832  0.7494  0.0058
  545MOL0     H73523   9.200   2.905   0.175  1.6142 -2.2478  0.8653
  545MOL0     H73524   9.071   2.701  -0.012 -2.3120  0.5139 -0.3527
  545MOL0     H73525   9.200   2.814  -0.070 -0.3950 -0.3604 -0.9318
  545MOL0     H73526   8.815   2.874   0.039 -0.4426 -0.6518 -1.2964
  545MOL0     H73527   8.700   3.103   0.035 -0.0942  2.2950  0.1452
  545MOL0     H73528   8.729   3.224  -0.095  0.3426  0.0805 -0.6772
  545MOL0     H73529   8.636   2.931  -0.141  2.2206 -0.6867  1.3013
  545MOL0     H73530   8.646   3.059  -0.264  1.2396 -0.3059  0.1355
  545MOL0     H73531   8.476   3.190  -0.129  4.0078  0.1372 -1.7077
  545MOL0     H73532   8.446   3.048  -0.028  0.0969 -0.8546  0.0590
  545MOL0     H73533   8.273   3.024  -0.195 -0.3142 -0.3475  0.2549
  545MOL0     H73534   8.400   2.909  -0.233 -0.1781  0.0815  1.6584
  545MOL0     H73535   8.229   2.827  -0.400  0.8354  0.6863  0.4712
  545MOL0     H73536   8.111   2.677  -0.529  2.3149 -1.2732 -0.2737
  545MOL0     H73537   7.976   2.749  -0.609  0.4628 -1.2436 -0.7639
  545MOL0     H73538   8.118   2.692  -0.706  1.8884 -1.9805  1.4221
  545MOL0     H73539   7.740   3.068  -0.842  2.2042  1.5018 -0.3062
  545MOL0     H73540   7.617   3.120  -1.042  0.0008 -0.4205 -0.7763
  545MOL0     H73541   7.446   3.071  -1.267 -0.1681  4.3069 -0.2855
  545MOL0     H73542   7.588   3.163  -1.276 -1.5614  0.0861  1.6705
  545MOL0     H73543   7.426   3.078  -1.494  0.5021  0.1203  0.5273
  545MOL0     H73544   7.582   3.176  -1.494  1.0780  1.3982  3.0823
  545MOL0     H73545   7.551   2.887  -1.559  1.0514 -0.3193 -1.7808
  545MOL0     H73546   7.708   2.951  -1.495 -1.1501 -0.1081  1.5076
  545MOL0     H73547   7.559   3.061  -1.736 -0.0780 -2.0206 -0.4224
  545MOL0     H73548   7.719   3.109  -1.686  2.3611 -1.1751 -0.3507
  545MOL0     H73549   7.817   2.910  -1.752 -0.9792  0.5799  2.2184
  545MOL0     H73550   7.715   2.952  -1.890 -0.8350 -2.2133 -0.8133
  545MOL0     H73551   7.699   2.740  -1.892 -0.3959 -1.8785  1.5922
  545MOL0     H73552   7.680   2.719  -1.719  0.3145  0.5399  0.3354
  545MOL0     H73553   7.489   2.846  -1.925 -3.4152 -1.8961 -0.4236
  545MOL0     H73554   7.458   2.827  -1.750  1.7007  1.2391 -0.1398
  545MOL0     H73555   7.491   2.580  -1.780 -3.7817  1.0832  2.1613
  545MOL0     H73556   7.511   2.597  -1.955 -2.4177  0.6733 -1.9150
  545MOL0     H73557   7.809   2.783  -1.235  0.6396 -2.3478  1.9064
  545MOL0     H73558   7.935   2.750  -1.025 -2.1875 -0.7679  2.4500
  545MOL0     H73559   8.246   3.162  -0.771 -0.8287  1.2091 -0.1412
  545MOL0     H73560   8.381   3.183  -0.573 -0.8514 -0.0250 -1.8990
  545MOL0     H73561   9.528   2.544   0.906  2.9435  1.4296 -0.3426
  545MOL0     H73562   9.412   2.650   1.079  1.5097  0.6405  0.3523
  545MOL0     H73563   9.122   2.976   1.205  0.5398  1.9970 -1.8739
  545MOL0     H73564   9.025   3.039   1.411  0.0097  1.0386  2.0326
  545MOL0     H73565   8.954   3.180   1.623 -2.2350 -1.9982  1.6121
  545MOL0     H73566   9.029   3.026   1.647 -1.7168 -0.1777 -0.7384
  545MOL0     H73567   8.949   3.126   1.851 -0.7099  2.1384  1.7811
  545MOL0     H73568   9.048   3.275   1.830 -5.0050  0.0171 -0.6911
  545MOL0     H73569   9.244   3.128   1.852 -1.2287  1.8669 -0.9615
  545MOL0     H73570   9.154   2.986   1.846  3.0107  0.9262 -0.2392
  545MOL0     H73571   9.233   3.047   2.081 -0.3949 -2.6484 -1.7558
  545MOL0     H73572   9.053   3.040   2.075 -0.3869  1.2487  0.3737
  545MOL0     H73573   9.139   3.455   2.136  1.5325 -0.1808 -0.9205
  545MOL0     H73574   9.384   3.278   1.507  3.7556  0.3167 -3.5063
  545MOL0     H73575   9.468   3.222   1.282  0.3246 -0.5371  1.1935
  546MOL0     O73576   3.997   7.860   7.281  0.1470 -0.1104 -0.1993
  546MOL0     C73577   4.043   7.970   7.273 -0.3087 -0.5380 -0.6345
  546MOL0     O73578   3.978   8.089   7.290 -0.2304  0.2442  0.6783
  546MOL0     C73579   3.844   8.110   7.272 -0.1401  0.4246 -0.8592
  546MOL0     C73580   3.808   8.238   7.308  0.4607 -1.2208  0.0675
  546MOL0     C73581   3.675   8.286   7.300 -0.1904  0.1878  0.4977
  546MOL0     C73582   3.575   8.200   7.242  0.2937  0.2667 -0.2762
  546MOL0     O73583   3.444   8.253   7.228 -1.1019 -0.0192 -0.7929
  546MOL0     C73584   3.345   8.159   7.227  0.1870  0.5951 -0.5999
  546MOL0     C73585   3.256   8.200   7.099 -0.4946  0.5753  0.2386
  546MOL0     C73586   3.137   8.116   7.083  0.8438 -0.0049 -0.5243
  546MOL0     C73587   3.019   8.187   7.152  0.2721  0.8375  0.9259
  546MOL0     C73588   2.880   8.121   7.154 -0.2560  0.3672  0.0905
  546MOL0     C73589   2.881   7.988   7.236 -0.1794 -0.2579 -0.3765
  546MOL0     C73590   2.743   7.952   7.286  0.2675 -0.1916  0.1367
  546MOL0     C73591   2.717   8.034   7.419  0.4870  0.2542  0.6102
  546MOL0     N73592   2.581   8.014   7.463  0.2295  0.8135  0.2600
  546MOL0     C73593   2.479   8.100   7.423 -0.8638 -0.3998 -0.2244
  546MOL0     C73594   2.368   8.055   7.481 -0.0061  0.1960 -0.6721
  546MOL0     C73595   2.222   8.101   7.491 -1.4827 -0.4019  0.6545
  546MOL0     C73596   2.123   7.999   7.437 -0.0879 -0.7856 -0.5553
  546MOL0     C73597   2.151   7.959   7.289 -0.0867  0.3440 -0.1719
  546MOL0     C73598   2.034   7.878   7.230 -0.2399 -0.4645 -0.7391
  546MOL0     O73599   1.914   7.960   7.226  0.4588  0.5359  0.0976
  546MOL0     C73600   1.807   7.903   7.157 -0.5853  0.1833  0.6383
  546MOL0     C73601   1.808   7.779   7.098 -0.5161  1.1858 -0.0490
  546MOL0     C73602   1.690   7.730   7.032 -1.2205  0.2558 -0.1230
  546MOL0     C73603   1.697   7.586   6.978  0.3472 -0.4029  0.1222
  546MOL0     C73604   1.573   7.802   7.020 -0.0605 -0.2797 -0.2559
  546MOL0     C73605   1.451   7.754   6.953 -0.1624 -0.1522 -0.4482
  546MOL0     O73606   1.333   7.826   6.998  0.0775 -0.2320 -0.4295
  546MOL0     C73607   1.216   7.800   6.936  1.0427  0.1242 -0.2918
  546MOL0     C73608   1.163   7.672   6.924  0.4023  0.1344 -0.2776
  546MOL0     C73609   1.046   7.650   6.865 -0.3292 -0.2510  0.2117
  546MOL0     C73610   0.970   7.752   6.818  0.2548  0.2419 -0.7327
  546MOL0     O73611   0.848   7.748   6.753  0.5229 -0.3424 -0.7027
  546MOL0     C73612   0.801   7.615   6.735 -1.1573  0.2333 -0.5268
  546MOL0     C73613   0.715   7.600   6.600 -0.4442  0.2543  0.4658
  546MOL0     C73614   0.617   7.713   6.592 -0.4417  0.1506 -0.1769
  546MOL0     C73615   0.484   7.680   6.663  0.2639  0.4732  0.0120
  546MOL0     C73616   0.389   7.794   6.638 -0.1051 -0.0809  0.2568
  546MOL0     C73617   0.257   7.739   6.701 -0.8147 -0.7954 -0.2521
  546MOL0     C73618   0.164   7.855   6.716 -0.7318 -0.6511  0.6040
  546MOL0     C73619   0.033   7.806   6.768 -0.1555 -0.0079  0.4863
  546MOL0    Cl73620  -0.056   7.682   6.645 -0.1372 -0.4760 -0.4787
  546MOL0     C73621   1.009   7.887   6.846 -0.5963  0.0369  0.0958
  546MOL0     C73622   1.135   7.902   6.903  0.7626  0.2069 -0.6614
  546MOL0     O73623   1.451   7.674   6.862  0.1224 -0.4313  0.3291
  546MOL0     C73624   1.584   7.926   7.090  0.0634 -0.0804 -0.9342
  546MOL0     C73625   1.692   7.977   7.159  0.5934 -0.1347 -0.4656
  546MOL0     N73626   2.409   7.942   7.555 -0.4486  0.5824 -0.0158
  546MOL0     N73627   2.532   7.922   7.548  0.3597  0.4281 -0.6413
  546MOL0     C73628   3.621   8.082   7.182  0.0190 -0.4948  0.3988
  546MOL0     C73629   3.752   8.027   7.204 -0.3008 -0.3929  0.1996
  546MOL0     C73630   4.188   7.989   7.286 -0.2975  0.5009  0.6771
  546MOL0     C73631   4.256   8.109   7.235  1.0236  0.7912 -0.7048
  546MOL0     C73632   4.394   8.111   7.256 -0.5628  0.3066  0.0193
  546MOL0     C73633   4.469   8.003   7.305 -0.0260 -0.1734  0.2913
  546MOL0     O73634   4.598   8.012   7.347 -0.9022 -0.4380  1.6615
  546MOL0     C73635   4.701   8.030   7.250  0.2408 -0.2759 -0.1463
  546MOL0     C73636   4.670   7.966   7.110  0.1144 -1.3580 -0.3644
  546MOL0     C73637   4.803   7.981   7.031 -0.3361 -0.1781  0.1187
  546MOL0     C73638   4.786   8.068   6.908 -0.2216  0.7352  0.9739
  546MOL0     C73639   4.768   8.215   6.941 -0.8412  0.7856 -0.5736
  546MOL0     C73640   4.751   8.337   6.949 -0.2648 -0.2268  0.2392
  546MOL0     C73641   4.402   7.886   7.333 -0.2141  0.9751  0.3521
  546MOL0     C73642   4.264   7.878   7.324 -0.3176 -0.0588 -0.1553
  546MOL0     H73643   3.878   8.318   7.330 -0.5267  0.0809 -1.2859
  546MOL0     H73644   3.644   8.383   7.335 -3.8640 -0.7750  0.2933
  546MOL0     H73645   3.382   8.056   7.227  0.1517  0.5083  2.3128
  546MOL0     H73646   3.286   8.164   7.319  0.9984  0.2576 -0.0486
  546MOL0     H73647   3.226   8.304   7.112 -2.1205  0.1743 -0.0400
  546MOL0     H73648   3.330   8.184   7.020  2.7595  0.1576  3.1390
  546MOL0     H73649   3.108   8.096   6.980  0.9118 -3.5678  0.0315
  546MOL0     H73650   3.140   8.016   7.126 -0.3917 -0.3446 -1.1929
  546MOL0     H73651   3.049   8.200   7.257  0.9617 -0.1199  0.8694
  546MOL0     H73652   3.012   8.283   7.102 -0.7631  1.7005  2.6478
  546MOL0     H73653   2.809   8.189   7.203  2.3107  1.8848  2.0075
  546MOL0     H73654   2.854   8.096   7.051 -0.7671  2.2734 -0.2730
  546MOL0     H73655   2.909   7.913   7.161 -1.5823 -0.8167 -0.3546
  546MOL0     H73656   2.960   7.992   7.312  1.6725  1.3732 -2.2433
  546MOL0     H73657   2.662   7.979   7.216  2.7736 -0.1445 -2.9678
  546MOL0     H73658   2.738   7.844   7.295 -0.1965  0.0074  3.2421
  546MOL0     H73659   2.739   8.139   7.395  2.7694 -0.6097 -1.4847
  546MOL0     H73660   2.790   7.990   7.487  0.4503 -0.3189  0.2773
  546MOL0     H73661   2.502   8.188   7.364 -0.9075  1.1472  1.9508
  546MOL0     H73662   2.198   8.121   7.596 -1.6153 -0.8734  0.7187
  546MOL0     H73663   2.206   8.188   7.426 -0.5718  1.7185  3.1090
  546MOL0     H73664   2.019   8.032   7.447 -0.5796 -1.9122 -1.7039
  546MOL0     H73665   2.125   7.912   7.502  0.0134  1.0528  2.0858
  546MOL0     H73666   2.238   7.893   7.283 -0.2389 -0.1122  1.9585
  546MOL0     H73667   2.174   8.047   7.227  1.8187  1.8294  2.4441
  546MOL0     H73668   2.017   7.792   7.296  0.2158  1.4385  2.0736
  546MOL0     H73669   2.061   7.846   7.129 -1.4355  0.8725 -1.5253
  546MOL0     H73670   1.894   7.717   7.075 -1.8632 -1.7467  2.1234
  546MOL0     H73671   1.763   7.531   7.046  2.3863  1.4529 -0.2261
  546MOL0     H73672   1.600   7.537   6.983 -0.4691  1.1337 -0.0986
  546MOL0     H73673   1.726   7.584   6.872  1.8865  1.5656  0.4246
  546MOL0     H73674   1.222   7.590   6.963  3.3304  1.7672 -0.9987
  546MOL0     H73675   1.038   7.541   6.861  3.5736 -0.6510  0.0978
  546MOL0     H73676   0.875   7.536   6.716 -1.3662 -0.1585  0.2683
  546MOL0     H73677   0.738   7.589   6.820  0.5169  2.2882  1.4566
  546MOL0     H73678   0.778   7.612   6.511 -0.5050 -0.0170  0.3847
  546MOL0     H73679   0.661   7.505   6.601 -2.6177  1.4479  1.2783
  546MOL0     H73680   0.605   7.734   6.485 -1.2880 -1.3958 -0.4150
  546MOL0     H73681   0.659   7.809   6.622  0.3828 -1.1019  3.0171
  546MOL0     H73682   0.433   7.593   6.622  0.8881  0.0768  0.0612
  546MOL0     H73683   0.505   7.655   6.767 -0.8359  0.8656  0.3480
  546MOL0     H73684   0.366   7.822   6.535 -2.8811 -3.4342 -0.2182
  546MOL0     H73685   0.425   7.882   6.693  1.0402 -0.1119 -0.4243
  546MOL0     H73686   0.202   7.660   6.649  0.6833 -2.1810  0.1644
  546MOL0     H73687   0.281   7.708   6.803  2.9008  1.4338 -0.2472
  546MOL0     H73688   0.144   7.900   6.619 -1.2786 -2.7149 -0.2903
  546MOL0     H73689   0.204   7.932   6.783 -0.1232  1.0601 -1.6097
  546MOL0     H73690  -0.030   7.892   6.796 -1.2942 -0.6958  0.0980
  546MOL0     H73691   0.046   7.748   6.860 -1.2406 -2.3095 -0.7374
  546MOL0     H73692   0.952   7.973   6.814  0.3502 -0.0603 -1.9588
  546MOL0     H73693   1.172   8.004   6.916 -2.0215  1.2367 -0.0811
  546MOL0     H73694   1.497   7.989   7.107  0.9987  0.1275  5.3943
  546MOL0     H73695   1.702   8.063   7.224  1.9926 -0.7373  0.1552
  546MOL0     H73696   3.547   8.021   7.130 -2.9498  0.6272  2.9469
  546MOL0     H73697   3.779   7.925   7.177  0.6165  0.5055 -2.4861
  546MOL0     H73698   4.196   8.199   7.223 -1.0967 -0.6512 -1.3596
  546MOL0     H73699   4.436   8.211   7.259 -1.2227  0.6568 -1.4937
  546MOL0     H73700   4.722   8.137   7.238 -0.3016 -0.3757 -2.3164
  546MOL0     H73701   4.793   7.985   7.290  1.6089 -2.8374 -5.3326
  546MOL0     H73702   4.589   8.025   7.067  2.0089 -0.5955 -3.1841
  546MOL0     H73703   4.643   7.865   7.140  2.8306 -1.9609  0.3807
  546MOL0     H73704   4.833   7.878   7.010 -0.3562 -0.5265  1.7343
  546MOL0     H73705   4.886   8.028   7.085 -0.1127  0.1353 -0.4820
  546MOL0     H73706   4.703   8.030   6.849  0.5709 -1.9270  1.4347
  546MOL0     H73707   4.875   8.071   6.844 -0.1173  4.1498  1.0815
  546MOL0     H73708   4.735   8.443   6.955 -1.8613 -0.5000  1.4213
  546MOL0     H73709   4.455   7.807   7.385 -1.4501 -0.2442 -0.1932
  546MOL0     H73710   4.213   7.783   7.335 -1.1457  0.0169 -2.6618
  547MOL0     O73711   3.886   1.383   2.029  0.2530 -0.0673 -0.0703
  547MOL0     C73712   3.974   1.333   2.092 -0.1512 -0.3639 -0.1899
  547MOL0     O73713   3.981   1.194   2.125  0.0200  1.2396  0.2235
  547MOL0     C73714   3.895   1.096   2.067 -0.3189 -1.1619 -0.6603
  547MOL0     C73715   3.756   1.124   2.038 -0.0460 -0.2310 -0.3937
  547MOL0     C73716   3.681   1.039   1.954 -1.2331 -0.6088  0.0822
  547MOL0     C73717   3.753   0.923   1.909  1.2115  0.4300  0.5378
  547MOL0     O73718   3.689   0.835   1.834 -0.4495 -0.4139  0.4042
  547MOL0     C73719   3.728   0.837   1.700 -0.0887  0.4287 -0.5393
  547MOL0     C73720   3.662   0.712   1.637 -1.1309 -0.2371  0.8988
  547MOL0     C73721   3.520   0.733   1.587  0.0196  0.0245 -0.4804
  547MOL0     C73722   3.444   0.599   1.554  0.5609  0.0991  0.0473
  547MOL0     C73723   3.308   0.613   1.489 -0.7384  0.2773 -0.2262
  547MOL0     C73724   3.214   0.671   1.597 -1.2386  0.2031  0.1824
  547MOL0     C73725   3.194   0.822   1.572  0.2071 -0.8019  0.1060
  547MOL0     C73726   3.105   0.887   1.689 -0.5461  0.1471 -0.2027
  547MOL0     N73727   3.120   1.031   1.682 -0.3851 -0.3426  0.3720
  547MOL0     C73728   3.218   1.112   1.737  0.4283  0.3563 -0.5686
  547MOL0     C73729   3.201   1.241   1.704 -0.5747  0.3361 -0.1362
  547MOL0     C73730   3.287   1.357   1.748  0.2903 -0.1461 -0.4091
  547MOL0     C73731   3.389   1.405   1.646 -0.3106 -0.2945  0.5813
  547MOL0     C73732   3.515   1.312   1.643  1.5734 -0.2777 -0.0645
  547MOL0     C73733   3.620   1.383   1.557 -0.0851  0.7430 -0.5121
  547MOL0     O73734   3.730   1.285   1.531  0.3212 -0.5385  0.1600
  547MOL0     C73735   3.851   1.312   1.597 -0.0710  0.2074 -0.2813
  547MOL0     C73736   3.905   1.221   1.683 -0.6022 -0.0017  0.2150
  547MOL0     C73737   4.043   1.224   1.718  0.5109 -0.1842 -0.5044
  547MOL0     C73738   4.106   1.103   1.782  0.3238  0.0406  0.4640
  547MOL0     C73739   4.115   1.347   1.691  0.8609  0.7957  0.2469
  547MOL0     C73740   4.247   1.370   1.757  0.5065 -0.2189  0.4592
  547MOL0     O73741   4.290   1.305   1.860  0.2428  0.5635 -0.2702
  547MOL0     C73742   4.419   1.310   1.906 -0.3503  0.0236 -0.2397
  547MOL0     C73743   4.455   1.199   1.983 -0.5112  1.0608  0.2111
  547MOL0     C73744   4.577   1.194   2.055 -0.4383 -0.3841  0.2407
  547MOL0     C73745   4.665   1.303   2.055 -0.2358 -1.2499 -0.1825
  547MOL0     O73746   4.785   1.311   2.119  0.5917  1.0586 -0.1228
  547MOL0     C73747   4.822   1.204   2.203 -1.0090  0.0482 -0.7734
  547MOL0     C73748   4.935   1.259   2.294  0.2437  0.2045  0.1870
  547MOL0     C73749   4.970   1.165   2.406  0.3086  0.2662  0.2705
  547MOL0     C73750   5.114   1.181   2.452  0.1174 -0.3695 -0.0884
  547MOL0     C73751   5.152   1.320   2.507  0.1561  0.2052 -0.8600
  547MOL0     C73752   5.303   1.307   2.548  0.7470  0.8953 -0.0873
  547MOL0     C73753   5.370   1.450   2.557 -0.3284  0.8998 -0.1684
  547MOL0     C73754   5.305   1.522   2.675  0.5732 -0.5569  0.2767
  547MOL0    Cl73755   5.356   1.695   2.703 -0.1501 -0.4193  0.1865
  547MOL0     C73756   4.624   1.420   1.988  0.3098 -0.0835 -0.0882
  547MOL0     C73757   4.500   1.423   1.915 -0.2554  0.2485  0.4561
  547MOL0     O73758   4.310   1.456   1.696 -0.7686 -0.0688  0.5746
  547MOL0     C73759   4.052   1.442   1.616 -0.6095 -0.3359 -0.0866
  547MOL0     C73760   3.928   1.426   1.558  0.9474  0.4081 -0.2308
  547MOL0     N73761   3.090   1.240   1.630  0.7816  0.4843 -0.3659
  547MOL0     N73762   3.048   1.120   1.608 -0.1491  0.3139  0.6033
  547MOL0     C73763   3.878   0.892   1.970  1.1691  0.3551 -0.2621
  547MOL0     C73764   3.950   0.975   2.049 -0.1573  0.2848  0.5486
  547MOL0     C73765   4.081   1.420   2.132 -1.0427 -0.2095 -0.3919
  547MOL0     C73766   4.078   1.566   2.122 -0.2755  0.4545 -0.1257
  547MOL0     C73767   4.168   1.648   2.177 -0.3756 -0.4981  0.0905
  547MOL0     C73768   4.278   1.592   2.251  0.2620 -1.0667  0.8226
  547MOL0     O73769   4.365   1.676   2.319  0.3903  0.2686 -0.0980
  547MOL0     C73770   4.472   1.615   2.405  0.1942  0.3536  1.3269
  547MOL0     C73771   4.563   1.729   2.457 -0.7870 -0.0306  0.2801
  547MOL0     C73772   4.489   1.818   2.551  0.0199 -0.5444 -0.4704
  547MOL0     C73773   4.564   1.949   2.582  0.0218  0.8179 -0.2967
  547MOL0     C73774   4.676   1.940   2.682  0.0260 -0.3125  0.0399
  547MOL0     C73775   4.777   1.923   2.743  0.5141 -0.1908  0.1653
  547MOL0     C73776   4.289   1.449   2.248 -0.2795 -1.3024 -0.1185
  547MOL0     C73777   4.196   1.366   2.191 -0.5707 -0.4830 -0.4205
  547MOL0     H73778   3.716   1.223   2.055  1.3375  0.0561  1.5064
  547MOL0     H73779   3.582   1.061   1.915 -1.3503 -0.0512  0.6715
  547MOL0     H73780   3.692   0.927   1.649  0.0486  0.0955 -1.2293
  547MOL0     H73781   3.837   0.846   1.706 -0.2615  1.8284  2.5647
  547MOL0     H73782   3.716   0.677   1.548  3.0244  0.7581  2.8142
  547MOL0     H73783   3.679   0.630   1.707 -0.5876  0.9846  2.2467
  547MOL0     H73784   3.463   0.769   1.674  0.8034  1.0933 -0.3907
  547MOL0     H73785   3.513   0.798   1.500  2.2060 -2.0915 -2.3992
  547MOL0     H73786   3.495   0.551   1.471 -3.3942 -1.0548 -1.9945
  547MOL0     H73787   3.430   0.534   1.640  0.5410 -0.6930 -0.5493
  547MOL0     H73788   3.310   0.680   1.402  0.2536 -2.4227 -2.4477
  547MOL0     H73789   3.276   0.513   1.459  0.9176 -1.7241  3.8659
  547MOL0     H73790   3.117   0.619   1.593 -0.5256 -1.0924 -0.7806
  547MOL0     H73791   3.253   0.655   1.697 -3.1799  0.3956  1.0260
  547MOL0     H73792   3.296   0.862   1.564 -0.3032  0.1223 -3.8236
  547MOL0     H73793   3.137   0.864   1.488  0.4674  4.5656  2.1607
  547MOL0     H73794   3.143   0.852   1.785  1.4354 -0.9199 -1.3219
  547MOL0     H73795   2.998   0.864   1.688 -1.0118  1.8390  1.8926
  547MOL0     H73796   3.289   1.070   1.807  0.2983  0.6699 -0.2449
  547MOL0     H73797   3.217   1.440   1.769  1.7107  1.2745 -1.0804
  547MOL0     H73798   3.341   1.329   1.839 -0.6028 -0.7205 -0.0328
  547MOL0     H73799   3.412   1.507   1.677  0.3077  0.1520 -1.2023
  547MOL0     H73800   3.331   1.405   1.553 -0.7380  0.3772  0.8389
  547MOL0     H73801   3.487   1.209   1.619 -1.4350 -1.1568  5.5740
  547MOL0     H73802   3.563   1.299   1.740 -0.3477 -3.7356  0.5765
  547MOL0     H73803   3.657   1.474   1.604 -0.0702 -0.8859  2.9586
  547MOL0     H73804   3.572   1.428   1.470 -2.1341 -0.1856  0.0933
  547MOL0     H73805   3.842   1.134   1.701  0.9895 -1.2771 -0.0786
  547MOL0     H73806   4.032   1.027   1.758 -2.4846  3.1675 -1.6508
  547MOL0     H73807   4.202   1.067   1.743 -0.1325  0.5586 -1.2132
  547MOL0     H73808   4.110   1.124   1.889  0.1388  0.0132  0.4758
  547MOL0     H73809   4.397   1.108   1.999 -0.0764  0.8386  0.5543
  547MOL0     H73810   4.602   1.103   2.111  2.8986 -1.7935 -3.0931
  547MOL0     H73811   4.738   1.164   2.261 -1.7207  0.3857 -1.5463
  547MOL0     H73812   4.852   1.114   2.150 -1.4610 -0.2658 -0.5102
  547MOL0     H73813   5.022   1.271   2.230 -1.6442  1.4884 -2.3066
  547MOL0     H73814   4.915   1.357   2.339 -0.3935 -1.2435  3.3986
  547MOL0     H73815   4.948   1.066   2.364 -0.2528  1.7387 -3.1954
  547MOL0     H73816   4.910   1.192   2.493 -1.6082  1.6246 -1.3885
  547MOL0     H73817   5.150   1.097   2.512  0.3524 -0.6136 -0.5657
  547MOL0     H73818   5.178   1.166   2.366  2.4587 -0.3646  1.5665
  547MOL0     H73819   5.083   1.354   2.585  0.6047  1.7722 -1.1042
  547MOL0     H73820   5.154   1.396   2.428 -0.0375  0.9248 -0.1839
  547MOL0     H73821   5.301   1.265   2.649  0.7790  1.3377  0.1024
  547MOL0     H73822   5.346   1.243   2.471 -0.7789  0.7197 -0.8165
  547MOL0     H73823   5.368   1.501   2.460 -0.4095 -0.9065 -1.1630
  547MOL0     H73824   5.473   1.435   2.590  0.1654  2.4176 -0.9345
  547MOL0     H73825   5.330   1.478   2.772  1.2720  1.6901  1.1778
  547MOL0     H73826   5.196   1.517   2.674  0.5621 -0.4714  1.0565
  547MOL0     H73827   4.685   1.509   1.974 -1.0215  0.7622 -0.7569
  547MOL0     H73828   4.466   1.516   1.871 -3.1814 -2.0695 -2.7480
  547MOL0     H73829   4.111   1.532   1.604 -0.1195 -0.2510  2.4315
  547MOL0     H73830   3.880   1.497   1.492  0.8153 -2.5836 -3.6433
  547MOL0     H73831   3.929   0.803   1.933  0.7709 -0.8095  1.8066
  547MOL0     H73832   4.051   0.952   2.081 -0.5711 -0.7749  1.1382
  547MOL0     H73833   3.993   1.612   2.074  0.6898  1.0244 -1.3518
  547MOL0     H73834   4.165   1.755   2.161  0.4407 -0.4627  0.1281
  547MOL0     H73835   4.415   1.561   2.481  0.9532 -0.9849  0.9673
  547MOL0     H73836   4.527   1.531   2.361 -3.3615 -0.7371 -1.4827
  547MOL0     H73837   4.601   1.780   2.368  0.9351  0.5564  1.3177
  547MOL0     H73838   4.650   1.678   2.500 -2.4601 -2.9066  0.5631
  547MOL0     H73839   4.478   1.772   2.650 -0.5702  2.2909  0.8846
  547MOL0     H73840   4.391   1.847   2.514 -1.0541 -0.4752  2.1644
  547MOL0     H73841   4.505   2.029   2.629 -1.7344 -0.8336  0.4418
  547MOL0     H73842   4.595   1.987   2.484 -0.2071 -3.0626 -2.0619
  547MOL0     H73843   4.852   1.895   2.814  0.7649 -0.9248 -0.3783
  547MOL0     H73844   4.368   1.394   2.297  0.7778 -0.3432 -0.6972
  547MOL0     H73845   4.205   1.258   2.205 -0.5274 -0.1031  3.6698
  548MOL0     O73846   9.553  11.159   8.977 -0.6629 -0.4492  1.2682
  548MOL0     C73847   9.588  11.151   8.862  0.2281 -0.4319  0.9027
  548MOL0     O73848   9.514  11.166   8.751  0.5716  1.0709 -0.3533
  548MOL0     C73849   9.383  11.120   8.753  0.0267 -0.2370 -0.1229
  548MOL0     C73850   9.291  11.188   8.681 -0.2778  0.0115 -0.5359
  548MOL0     C73851   9.162  11.146   8.678  0.5356  0.2430  0.5295
  548MOL0     C73852   9.122  11.035   8.746 -0.1186  0.5065 -0.6345
  548MOL0     O73853   8.985  11.009   8.746  0.4075 -0.7809 -0.0453
  548MOL0     C73854   8.928  10.880   8.763  0.4435 -0.3914  0.0958
  548MOL0     C73855   8.779  10.876   8.727  0.1876  0.5409  0.5852
  548MOL0     C73856   8.688  10.928   8.843  0.9077 -0.0834  0.3129
  548MOL0     C73857   8.665  10.810   8.945  0.8309 -0.5134 -0.0677
  548MOL0     C73858   8.584  10.862   9.063  0.4115 -0.1995 -0.5547
  548MOL0     C73859   8.522  10.744   9.142  0.5015  0.5846  0.5337
  548MOL0     C73860   8.388  10.703   9.081  1.1740 -0.5111  0.1732
  548MOL0     C73861   8.324  10.584   9.164 -0.3303  1.1463  0.0070
  548MOL0     N73862   8.184  10.592   9.142 -0.0852  0.3786 -0.1727
  548MOL0     C73863   8.116  10.535   9.032 -0.4354 -0.2435  0.8710
  548MOL0     C73864   7.989  10.593   9.051  0.2624  0.8351  0.4771
  548MOL0     C73865   7.879  10.587   8.945 -0.8724 -0.7522  0.1404
  548MOL0     C73866   7.776  10.694   8.938  0.5540 -1.8340  0.5296
  548MOL0     C73867   7.839  10.842   8.950  0.0242  0.3035 -0.5251
  548MOL0     C73868   7.739  10.949   8.917 -0.1340  0.4333  0.2117
  548MOL0     O73869   7.776  11.071   8.985 -0.1739 -0.0306  0.5083
  548MOL0     C73870   7.723  11.088   9.115  0.7192 -0.3285  0.4445
  548MOL0     C73871   7.677  10.990   9.214  0.8533  0.9070  0.4743
  548MOL0     C73872   7.650  11.021   9.341 -0.0725 -0.0398 -0.1222
  548MOL0     C73873   7.601  10.905   9.420  0.2396 -0.4654 -0.3158
  548MOL0     C73874   7.638  11.158   9.370 -0.1357  0.4193 -0.1342
  548MOL0     C73875   7.577  11.196   9.499 -0.8618 -0.2592  0.5179
  548MOL0     O73876   7.650  11.293   9.575  0.1509  0.2863 -0.6998
  548MOL0     C73877   7.624  11.321   9.705  1.4287 -0.2249 -0.1093
  548MOL0     C73878   7.683  11.436   9.733 -0.6671  0.0517 -0.9468
  548MOL0     C73879   7.650  11.504   9.848  0.4189  0.4149 -0.3425
  548MOL0     C73880   7.557  11.452   9.947 -0.3611  0.7120  0.5483
  548MOL0     O73881   7.499  11.517  10.058  0.4664 -0.0661  0.0253
  548MOL0     C73882   7.542  11.650  10.081 -0.4298 -0.3545  0.4153
  548MOL0     C73883   7.472  11.695  10.219  0.5011 -0.0323 -0.2351
  548MOL0     C73884   7.332  11.765  10.187 -0.4271  0.5232 -0.8392
  548MOL0     C73885   7.237  11.679  10.120 -0.1731 -0.0691 -0.0665
  548MOL0     C73886   7.104  11.746  10.118  0.1320  0.2145 -0.4448
  548MOL0     C73887   7.016  11.723  10.237  0.2564 -0.3811 -0.8929
  548MOL0     C73888   6.905  11.827  10.250 -0.1074 -0.3842  0.2488
  548MOL0     C73889   6.803  11.812  10.365 -1.1282 -0.8656 -0.9089
  548MOL0    Cl73890   6.878  11.905  10.505  0.0765 -0.0232  0.1271
  548MOL0     C73891   7.525  11.320   9.920 -0.2314 -0.9601 -0.9003
  548MOL0     C73892   7.540  11.260   9.794 -0.0911 -0.6083 -0.7363
  548MOL0     O73893   7.462  11.154   9.525  0.1301  0.5606 -0.1688
  548MOL0     C73894   7.680  11.256   9.289  0.5206 -0.3701  0.1169
  548MOL0     C73895   7.728  11.228   9.158  0.9513  0.0676 -0.1091
  548MOL0     N73896   7.982  10.651   9.174  0.5510 -0.1855  0.3436
  548MOL0     N73897   8.105  10.658   9.223  0.6188 -0.0808  0.1476
  548MOL0     C73898   9.222  10.955   8.810 -0.1495  0.1212 -0.5189
  548MOL0     C73899   9.355  11.000   8.816  0.3256  0.1164  0.5476
  548MOL0     C73900   9.735  11.152   8.838  0.7490 -1.1026  0.5700
  548MOL0     C73901   9.789  11.187   8.707 -0.1836 -0.4694  0.1748
  548MOL0     C73902   9.926  11.184   8.669 -0.4716 -1.2615 -0.1743
  548MOL0     C73903  10.020  11.162   8.768  0.4937  0.5324  0.0353
  548MOL0     O73904  10.151  11.152   8.733 -0.7935 -0.8887  0.6066
  548MOL0     C73905  10.247  11.162   8.835 -0.7282 -0.1891 -0.1935
  548MOL0     C73906  10.380  11.146   8.765  1.2351 -1.5617 -0.0434
  548MOL0     C73907  10.400  11.263   8.661  1.0311 -0.2579  0.0334
  548MOL0     C73908  10.526  11.240   8.582 -0.8270  0.1890  0.4332
  548MOL0     C73909  10.654  11.286   8.650 -0.2198  0.0174 -0.3067
  548MOL0     C73910  10.763  11.310   8.700  0.0472  0.2249  0.1281
  548MOL0     C73911   9.971  11.122   8.895  0.8850 -0.4299 -0.8078
  548MOL0     C73912   9.834  11.118   8.926  0.9537 -0.9940 -0.6318
  548MOL0     H73913   9.321  11.279   8.630  0.0310  0.9755  1.2641
  548MOL0     H73914   9.092  11.203   8.618  1.4388 -0.4402 -1.2324
  548MOL0     H73915   8.968  10.804   8.696 -1.2325 -0.5622 -0.7659
  548MOL0     H73916   8.948  10.846   8.865  1.6296 -1.3108 -0.4146
  548MOL0     H73917   8.766  10.941   8.640  1.4789 -0.6013 -0.5152
  548MOL0     H73918   8.750  10.772   8.708  1.3635  0.4246 -0.7536
  548MOL0     H73919   8.733  11.007   8.904  1.1555 -0.5679  0.7748
  548MOL0     H73920   8.590  10.958   8.807  0.8205  2.2110  2.2195
  548MOL0     H73921   8.611  10.731   8.891  1.5266 -0.6174 -0.6162
  548MOL0     H73922   8.759  10.771   8.985  1.5403  0.2144 -1.0181
  548MOL0     H73923   8.653  10.915   9.129  0.3886 -0.5781 -0.2265
  548MOL0     H73924   8.515  10.940   9.029  0.7453  0.7208  0.7910
  548MOL0     H73925   8.590  10.658   9.140  2.2266  1.8781  0.8734
  548MOL0     H73926   8.510  10.753   9.251 -1.0035 -0.6789  0.4946
  548MOL0     H73927   8.320  10.789   9.076  1.6374 -0.1628 -0.2120
  548MOL0     H73928   8.403  10.671   8.978 -2.3392 -0.0432 -0.6209
  548MOL0     H73929   8.350  10.588   9.270  0.8912  0.0202 -0.2170
  548MOL0     H73930   8.355  10.489   9.119  0.2114  0.7624  1.1394
  548MOL0     H73931   8.166  10.483   8.952  0.6291  2.7269 -0.5404
  548MOL0     H73932   7.924  10.597   8.846 -2.7869 -1.9165 -0.8985
  548MOL0     H73933   7.843  10.484   8.952  1.3879 -1.5430  1.3731
  548MOL0     H73934   7.713  10.685   9.027 -2.6352 -0.5723 -1.4097
  548MOL0     H73935   7.708  10.685   8.853  1.6033  1.7348 -0.8930
  548MOL0     H73936   7.927  10.847   8.885  1.3360 -5.4216  0.2358
  548MOL0     H73937   7.873  10.853   9.054 -1.3208 -0.7479  0.0539
  548MOL0     H73938   7.643  10.912   8.953 -1.2113  1.4657 -1.5019
  548MOL0     H73939   7.729  10.968   8.810 -1.1645  0.6507  0.3378
  548MOL0     H73940   7.655  10.888   9.184 -0.2326  1.0076  0.8894
  548MOL0     H73941   7.675  10.825   9.414 -0.3207 -0.9066 -1.8979
  548MOL0     H73942   7.580  10.916   9.526 -0.4430  0.0533 -0.4944
  548MOL0     H73943   7.513  10.863   9.370 -1.3081  1.7045  0.4060
  548MOL0     H73944   7.745  11.482   9.657  0.1805 -0.3694 -0.5294
  548MOL0     H73945   7.687  11.602   9.877 -3.9015  1.7375  1.5610
  548MOL0     H73946   7.651  11.657  10.085 -0.2956 -1.5315 -0.6582
  548MOL0     H73947   7.512  11.722  10.005 -0.1210 -0.3293  0.3157
  548MOL0     H73948   7.462  11.603  10.276 -2.2180  1.3832  1.7997
  548MOL0     H73949   7.534  11.765  10.275 -0.4377  1.0432 -0.4941
  548MOL0     H73950   7.368  11.858  10.142  0.4178  1.7473  2.1431
  548MOL0     H73951   7.283  11.804  10.277 -1.7177  1.6495 -1.9703
  548MOL0     H73952   7.265  11.656  10.017 -1.4168 -1.1506 -0.2003
  548MOL0     H73953   7.231  11.583  10.173  1.5914 -0.7035 -0.9538
  548MOL0     H73954   7.049  11.731  10.025  0.8728  0.2660 -0.9027
  548MOL0     H73955   7.116  11.853  10.095 -0.0113  0.0902 -1.1424
  548MOL0     H73956   6.974  11.622  10.226  0.3692 -0.4780 -0.4532
  548MOL0     H73957   7.070  11.728  10.332 -1.1231 -3.7092  0.2359
  548MOL0     H73958   6.857  11.834  10.151  0.8202  3.1558 -0.1122
  548MOL0     H73959   6.958  11.921  10.270 -3.4420  1.2865  2.0921
  548MOL0     H73960   6.789  11.708  10.396  0.9020 -0.7586  0.5284
  548MOL0     H73961   6.708  11.857  10.332 -0.5229  0.3166 -1.0913
  548MOL0     H73962   7.462  11.256   9.981 -1.0234 -1.4700 -2.2119
  548MOL0     H73963   7.492  11.164   9.777 -0.2953 -1.0319  1.8118
  548MOL0     H73964   7.683  11.360   9.321 -0.7378 -0.9074  2.1205
  548MOL0     H73965   7.766  11.305   9.092 -0.9705 -0.0494 -1.4223
  548MOL0     H73966   9.190  10.875   8.876  2.6184 -0.7894 -0.1288
  548MOL0     H73967   9.424  10.958   8.889  1.3232  2.1442  0.8427
  548MOL0     H73968   9.719  11.223   8.632 -0.3011 -0.9674  0.0460
  548MOL0     H73969   9.955  11.211   8.568 -0.3535 -0.3152  0.1084
  548MOL0     H73970  10.227  11.252   8.895 -1.3764 -0.3524 -0.1596
  548MOL0     H73971  10.239  11.073   8.898  2.1979 -0.5434 -0.1918
  548MOL0     H73972  10.389  11.046   8.722  0.5009 -2.0260  0.8549
  548MOL0     H73973  10.452  11.161   8.846 -0.1659  0.6287  0.8944
  548MOL0     H73974  10.402  11.360   8.712  1.2117 -0.2841  0.0748
  548MOL0     H73975  10.313  11.258   8.594 -2.7287  2.7576  4.0606
  548MOL0     H73976  10.513  11.274   8.479 -4.5100 -1.3717  0.2212
  548MOL0     H73977  10.547  11.133   8.571  2.5347  0.4503  2.8789
  548MOL0     H73978  10.863  11.333   8.730  1.5345 -3.3099 -1.4924
  548MOL0     H73979  10.033  11.104   8.982 -2.0314 -0.9231  1.3406
  548MOL0     H73980   9.804  11.081   9.024  0.7003  1.2365  0.1801
  549MOL0     O73981   6.227   3.507   9.024  0.1156  0.0722  0.4096
  549MOL0     C73982   6.230   3.498   8.902  1.2577 -0.0491 -0.4566
  549MOL0     O73983   6.115   3.491   8.829  0.1146  0.2959  0.4870
  549MOL0     C73984   5.998   3.513   8.893 -0.0421 -0.0045 -0.0666
  549MOL0     C73985   5.922   3.404   8.939 -0.9520 -0.7354  0.6285
  549MOL0     C73986   5.808   3.425   9.016  0.0875 -0.5223  0.3788
  549MOL0     C73987   5.758   3.550   9.039  0.2797  0.0899  0.0109
  549MOL0     O73988   5.640   3.561   9.109 -0.5619  0.2442 -0.1184
  549MOL0     C73989   5.567   3.689   9.093 -0.2842  0.3337 -0.4502
  549MOL0     C73990   5.435   3.674   9.170 -0.2231 -0.3869 -0.5800
  549MOL0     C73991   5.329   3.591   9.105  0.4645  0.2653 -0.1621
  549MOL0     C73992   5.229   3.529   9.201  0.4374 -0.4862  0.2034
  549MOL0     C73993   5.127   3.631   9.251  0.4713  0.2769  0.2468
  549MOL0     C73994   5.014   3.573   9.336 -0.2928 -0.6204  0.1604
  549MOL0     C73995   4.940   3.697   9.389  0.4483 -0.3901  0.6270
  549MOL0     C73996   4.805   3.656   9.445  0.1448  0.0446 -0.3329
  549MOL0     N73997   4.728   3.608   9.332 -0.0825 -0.2819 -0.1457
  549MOL0     C73998   4.679   3.682   9.231  0.3852 -0.4642  0.6767
  549MOL0     C73999   4.609   3.597   9.156 -0.0211 -0.2108  0.2015
  549MOL0     C74000   4.542   3.627   9.030  0.3258  0.5964  0.7042
  549MOL0     C74001   4.395   3.601   9.038  0.3042 -0.1241  0.9103
  549MOL0     C74002   4.321   3.577   8.903 -0.8483  0.6616  0.8683
  549MOL0     C74003   4.169   3.604   8.917 -0.6676  0.0035  0.0022
  549MOL0     O74004   4.107   3.580   8.786 -0.0350 -0.4838 -0.1289
  549MOL0     C74005   3.969   3.590   8.782 -0.7912 -0.1809 -0.5571
  549MOL0     C74006   3.878   3.630   8.883  0.6247 -1.0159  0.8076
  549MOL0     C74007   3.735   3.628   8.863 -0.8673  0.3319  0.1996
  549MOL0     C74008   3.641   3.667   8.970  0.5563  0.2746 -0.4847
  549MOL0     C74009   3.690   3.591   8.731 -0.0132  0.2400 -0.3045
  549MOL0     C74010   3.549   3.593   8.691  1.1383  0.7411 -1.0440
  549MOL0     O74011   3.531   3.604   8.551  0.5170 -0.6063  0.5494
  549MOL0     C74012   3.400   3.624   8.518  0.0393  0.1652 -0.6850
  549MOL0     C74013   3.351   3.755   8.494 -0.4839  0.1905 -0.2003
  549MOL0     C74014   3.219   3.778   8.462  0.3272 -0.2479  0.9844
  549MOL0     C74015   3.135   3.664   8.466  0.0194  0.0013 -0.4907
  549MOL0     O74016   2.999   3.682   8.454  0.1012  0.4975  0.3423
  549MOL0     C74017   2.943   3.794   8.524  0.5553 -0.4589  0.3734
  549MOL0     C74018   2.787   3.778   8.536 -0.5244 -0.1102  0.1863
  549MOL0     C74019   2.744   3.884   8.640  0.1860 -0.1904 -0.2325
  549MOL0     C74020   2.590   3.888   8.660  0.2256 -0.0086 -0.3043
  549MOL0     C74021   2.549   4.006   8.743  0.3240 -0.2785 -0.1552
  549MOL0     C74022   2.393   4.002   8.748  0.4382  0.8038 -0.3806
  549MOL0     C74023   2.342   4.131   8.812  0.2590 -1.3034  0.0823
  549MOL0     C74024   2.193   4.120   8.791 -0.0610 -0.1635  0.3009
  549MOL0    Cl74025   2.126   4.000   8.899 -0.2019 -0.0467 -0.1599
  549MOL0     C74026   3.182   3.532   8.472  0.2810  0.1493  0.1037
  549MOL0     C74027   3.310   3.514   8.506 -0.1349  0.5961 -0.4567
  549MOL0     O74028   3.457   3.586   8.772  0.2907 -0.6482 -0.6950
  549MOL0     C74029   3.787   3.570   8.632 -0.3630 -0.1326 -1.1736
  549MOL0     C74030   3.923   3.554   8.652  0.2192 -0.3834 -0.8677
  549MOL0     N74031   4.627   3.469   9.205  0.1612 -0.1078 -0.1300
  549MOL0     N74032   4.694   3.482   9.310 -0.0330  0.1606  0.4320
  549MOL0     C74033   5.833   3.655   9.005  1.2394 -0.1846 -0.1284
  549MOL0     C74034   5.947   3.640   8.928  0.0947  0.4008 -0.8829
  549MOL0     C74035   6.363   3.485   8.840  0.2966 -0.4847  0.2464
  549MOL0     C74036   6.476   3.545   8.908 -0.1106 -0.0128  0.6168
  549MOL0     C74037   6.602   3.539   8.847 -0.1006 -0.5649 -0.5780
  549MOL0     C74038   6.613   3.479   8.720 -0.4101 -0.0692  0.0579
  549MOL0     O74039   6.727   3.477   8.650 -1.0647 -0.6841  0.4170
  549MOL0     C74040   6.837   3.545   8.700  0.5193  0.0264 -0.3371
  549MOL0     C74041   6.954   3.505   8.624 -1.4452 -0.0223  0.4216
  549MOL0     C74042   6.949   3.500   8.471 -0.3729  0.0709 -0.4338
  549MOL0     C74043   6.953   3.635   8.397  0.4764  0.8632 -0.1515
  549MOL0     C74044   7.068   3.722   8.438  0.8112 -0.1115 -0.0689
  549MOL0     C74045   7.171   3.779   8.474  0.3287 -0.5406  0.1137
  549MOL0     C74046   6.501   3.426   8.653 -0.5387 -0.0797 -0.1046
  549MOL0     C74047   6.378   3.423   8.718 -0.6968  0.4601  0.4314
  549MOL0     H74048   5.954   3.303   8.913  0.0282 -0.1944 -0.3816
  549MOL0     H74049   5.753   3.341   9.057  0.6838 -1.1756 -0.1329
  549MOL0     H74050   5.615   3.776   9.138  1.6961 -0.4390 -0.9413
  549MOL0     H74051   5.563   3.710   8.985 -0.0331 -1.7081 -0.8948
  549MOL0     H74052   5.468   3.635   9.267 -0.3495  2.5413  0.7474
  549MOL0     H74053   5.398   3.776   9.186  3.8990  1.0737  0.8860
  549MOL0     H74054   5.274   3.655   9.036  2.1840 -0.3355 -2.1960
  549MOL0     H74055   5.379   3.519   9.040 -0.0134  0.0945 -0.3397
  549MOL0     H74056   5.177   3.446   9.154 -1.1045  0.4584  0.1784
  549MOL0     H74057   5.290   3.504   9.289 -0.1144 -0.7380  0.5204
  549MOL0     H74058   5.171   3.711   9.311  0.3472  0.1819  0.4647
  549MOL0     H74059   5.092   3.670   9.155  3.8865 -2.5200 -2.3905
  549MOL0     H74060   4.954   3.509   9.270  0.3596 -0.7953 -0.2774
  549MOL0     H74061   5.061   3.519   9.419 -0.8115 -1.7301 -0.2552
  549MOL0     H74062   5.008   3.752   9.454  0.9043  0.5945 -0.6427
  549MOL0     H74063   4.929   3.771   9.309  0.4187 -0.4551  0.5715
  549MOL0     H74064   4.758   3.744   9.490  3.6265  0.8216  2.1705
  549MOL0     H74065   4.817   3.581   9.524  3.1021  0.4357 -0.2997
  549MOL0     H74066   4.683   3.790   9.226 -0.3202 -0.2210  3.4004
  549MOL0     H74067   4.556   3.730   8.998  2.1167 -0.3658 -1.8856
  549MOL0     H74068   4.575   3.556   8.954  1.6525  2.5135 -0.5895
  549MOL0     H74069   4.358   3.688   9.092  2.3789  0.9688  0.6990
  549MOL0     H74070   4.387   3.508   9.095 -1.9934 -0.5630 -0.0470
  549MOL0     H74071   4.342   3.479   8.860  0.1213  0.8714  0.8395
  549MOL0     H74072   4.361   3.651   8.834  0.6781 -1.1930 -0.3327
  549MOL0     H74073   4.159   3.708   8.950  0.7244 -0.1441  0.9977
  549MOL0     H74074   4.139   3.539   9.000  1.2186  0.0128  0.7510
  549MOL0     H74075   3.908   3.643   8.987 -1.4384  2.2252  1.1493
  549MOL0     H74076   3.693   3.703   9.059  0.4683 -2.0633  0.5712
  549MOL0     H74077   3.563   3.735   8.937 -2.0813 -1.0665  2.5441
  549MOL0     H74078   3.595   3.573   9.001  0.9963  0.0482 -0.5051
  549MOL0     H74079   3.430   3.829   8.486 -1.6317  1.9892  3.3077
  549MOL0     H74080   3.188   3.874   8.422 -0.1737 -1.0703 -0.7001
  549MOL0     H74081   2.986   3.783   8.623  1.0280 -1.7959  0.0362
  549MOL0     H74082   2.965   3.889   8.473 -2.6684  0.3136  0.2319
  549MOL0     H74083   2.740   3.795   8.439 -0.6630 -2.3106 -0.1878
  549MOL0     H74084   2.754   3.677   8.562 -1.6485 -0.3616 -1.9808
  549MOL0     H74085   2.770   3.981   8.597  2.5861 -0.3245  0.7542
  549MOL0     H74086   2.806   3.870   8.728  0.3011  0.0180 -0.2801
  549MOL0     H74087   2.547   3.896   8.560 -1.6786  0.6073  0.5057
  549MOL0     H74088   2.550   3.799   8.710  1.5502 -0.1642  0.5167
  549MOL0     H74089   2.574   4.086   8.673 -1.0277  0.7386  0.4739
  549MOL0     H74090   2.598   4.021   8.839 -0.0840 -1.5248  0.2663
  549MOL0     H74091   2.364   3.983   8.645 -3.8606 -2.7750  1.1480
  549MOL0     H74092   2.371   3.917   8.813  0.6546 -0.1380 -1.5107
  549MOL0     H74093   2.372   4.215   8.751 -1.7353  0.3164  1.1809
  549MOL0     H74094   2.372   4.136   8.917  2.7883 -3.1396 -0.4753
  549MOL0     H74095   2.163   4.088   8.690 -2.2479  1.0850  0.4990
  549MOL0     H74096   2.154   4.218   8.818  2.2703 -0.0106  3.7416
  549MOL0     H74097   3.104   3.456   8.474 -0.7577  1.1217  3.1462
  549MOL0     H74098   3.341   3.413   8.529  0.4115  1.0411  0.8536
  549MOL0     H74099   3.758   3.549   8.529 -2.3584 -2.0792 -0.3054
  549MOL0     H74100   3.997   3.527   8.577  0.1539 -0.6719 -0.8285
  549MOL0     H74101   5.813   3.761   9.014 -0.9710 -0.5820  0.1090
  549MOL0     H74102   6.014   3.724   8.912 -1.1821  1.8855  1.1697
  549MOL0     H74103   6.460   3.592   9.005 -1.6550  2.1505 -0.6055
  549MOL0     H74104   6.690   3.573   8.900  0.0676 -1.8728  0.0154
  549MOL0     H74105   6.826   3.654   8.688 -2.9310 -0.1804 -0.0815
  549MOL0     H74106   6.859   3.514   8.803  1.7276 -0.1806 -0.6508
  549MOL0     H74107   6.980   3.407   8.666  0.3641 -0.2640 -1.1401
  549MOL0     H74108   7.037   3.572   8.646 -0.9274 -0.2771 -0.7222
  549MOL0     H74109   6.869   3.435   8.436  1.2360 -0.6081 -3.1549
  549MOL0     H74110   7.042   3.448   8.446 -0.8016 -1.9485  1.7947
  549MOL0     H74111   6.853   3.677   8.410  0.4208  0.5513  0.4373
  549MOL0     H74112   6.956   3.613   8.290 -4.1154  0.7758 -0.4621
  549MOL0     H74113   7.258   3.832   8.507 -0.7117  1.0180  0.4943
  549MOL0     H74114   6.524   3.386   8.555  1.7323 -1.5543  0.9370
  549MOL0     H74115   6.294   3.376   8.668  0.4730 -0.0120 -1.1810
  550MOL0     O74116   5.686   2.502   9.183 -0.6078  0.2002 -0.0073
  550MOL0     C74117   5.636   2.392   9.153  0.1408 -0.5245 -0.5951
  550MOL0     O74118   5.506   2.351   9.165  0.0202  0.7835  0.3891
  550MOL0     C74119   5.407   2.430   9.218 -0.4467 -0.4170  0.4576
  550MOL0     C74120   5.291   2.374   9.268  0.6524 -0.6996  0.2305
  550MOL0     C74121   5.171   2.442   9.303 -0.0401 -0.5598 -1.3422
  550MOL0     C74122   5.172   2.579   9.310 -0.3358 -0.4926 -0.4924
  550MOL0     O74123   5.054   2.645   9.345  0.4556  0.2038  0.5423
  550MOL0     C74124   5.059   2.785   9.332 -0.4136 -0.4724  0.3009
  550MOL0     C74125   4.930   2.865   9.376 -0.4768  0.5289 -0.1167
  550MOL0     C74126   4.899   2.992   9.292  0.2234 -0.6283  0.1415
  550MOL0     C74127   4.803   3.091   9.363  0.2612  0.1326  0.1487
  550MOL0     C74128   4.713   3.171   9.262 -0.9447 -1.1433  0.2282
  550MOL0     C74129   4.625   3.092   9.168 -0.1214  0.0073 -0.3570
  550MOL0     C74130   4.527   3.166   9.088 -0.0668 -0.2030  0.2856
  550MOL0     C74131   4.403   3.224   9.159  0.3992  0.1617 -0.0634
  550MOL0     N74132   4.362   3.142   9.277 -0.3760  0.7182  0.6553
  550MOL0     C74133   4.308   3.018   9.269  0.2571 -0.7162 -0.9109
  550MOL0     C74134   4.243   3.005   9.383 -0.1419  0.8694  0.0717
  550MOL0     C74135   4.153   2.882   9.420 -0.3399  0.1488 -0.5641
  550MOL0     C74136   4.011   2.910   9.382  0.3710 -0.4316 -0.3046
  550MOL0     C74137   3.929   2.783   9.392  0.4383  0.3669  0.2851
  550MOL0     C74138   3.798   2.785   9.303  0.4111  0.5407 -0.1013
  550MOL0     O74139   3.708   2.899   9.334  0.3174  0.5987 -0.0887
  550MOL0     C74140   3.588   2.916   9.262 -0.6576  0.5791  0.2877
  550MOL0     C74141   3.533   2.805   9.188  0.1224  0.1110  0.9036
  550MOL0     C74142   3.399   2.811   9.131  0.9722 -0.3360 -1.1633
  550MOL0     C74143   3.353   2.681   9.062 -0.5187  0.0780  0.3550
  550MOL0     C74144   3.337   2.944   9.121 -0.0957  0.6498 -0.3369
  550MOL0     C74145   3.215   2.972   9.034 -0.8960  0.0540 -0.6728
  550MOL0     O74146   3.165   3.102   9.029  0.4649 -0.3620 -0.2689
  550MOL0     C74147   3.052   3.132   8.952  0.8904  0.1869 -0.1390
  550MOL0     C74148   2.938   3.057   8.969  1.3290 -0.7311  0.2648
  550MOL0     C74149   2.825   3.097   8.899 -0.5594  0.1198 -0.2354
  550MOL0     C74150   2.828   3.202   8.815  0.8206  0.9930  0.8235
  550MOL0     O74151   2.716   3.213   8.736 -0.5156 -0.6268 -0.3308
  550MOL0     C74152   2.718   3.314   8.637 -0.6497  0.4623 -0.1170
  550MOL0     C74153   2.603   3.303   8.552  0.0522  0.9178 -0.0910
  550MOL0     C74154   2.577   3.435   8.476 -0.6154  1.0980  0.7176
  550MOL0     C74155   2.443   3.508   8.515 -0.1433  0.6009  0.2678
  550MOL0     C74156   2.415   3.620   8.421  0.4560 -1.2799 -0.7520
  550MOL0     C74157   2.263   3.663   8.413  0.2066  0.9070  0.6794
  550MOL0     C74158   2.219   3.757   8.533 -0.0575  0.4826  0.0834
  550MOL0     C74159   2.081   3.751   8.579  0.4505 -0.6087  0.2680
  550MOL0    Cl74160   1.981   3.778   8.436 -0.0804 -0.3512 -0.1581
  550MOL0     C74161   2.946   3.283   8.805  0.5555 -0.5902 -0.2352
  550MOL0     C74162   3.053   3.250   8.877 -0.0989  0.1591  0.5243
  550MOL0     O74163   3.161   2.874   8.985  0.1593 -0.3229 -0.2270
  550MOL0     C74164   3.391   3.047   9.199 -0.3084  0.6956  1.1387
  550MOL0     C74165   3.513   3.031   9.268  1.0212 -0.1699  0.3412
  550MOL0     N74166   4.259   3.112   9.471  0.2011  0.4032 -0.2714
  550MOL0     N74167   4.327   3.194   9.396 -0.0880 -1.2025  0.0569
  550MOL0     C74168   5.293   2.642   9.273 -0.5462 -0.0925  0.1740
  550MOL0     C74169   5.407   2.576   9.227 -0.3030 -0.1153  0.5058
  550MOL0     C74170   5.734   2.288   9.104 -0.3379 -0.4994 -0.5758
  550MOL0     C74171   5.694   2.158   9.121 -0.3807  0.7042  1.0202
  550MOL0     C74172   5.760   2.046   9.069 -0.8789 -0.1344 -0.0365
  550MOL0     C74173   5.885   2.069   9.008  0.8747  0.0413  0.1604
  550MOL0     O74174   5.943   1.954   8.968  0.9205 -0.2025  0.3980
  550MOL0     C74175   6.085   1.942   8.960 -0.6866 -0.4875  0.1632
  550MOL0     C74176   6.138   1.983   8.816 -0.4509  0.5141  0.5028
  550MOL0     C74177   6.243   2.097   8.808  0.4228  0.6442 -0.3662
  550MOL0     C74178   6.306   2.101   8.672  0.1637  0.4472  1.5913
  550MOL0     C74179   6.417   2.003   8.658 -0.4221 -0.4621 -0.0388
  550MOL0     C74180   6.509   1.922   8.645 -0.2399 -0.3188  0.7206
  550MOL0     C74181   5.927   2.206   8.998 -0.5409 -1.5028  0.6203
  550MOL0     C74182   5.858   2.314   9.048  0.5950  1.0515  0.5352
  550MOL0     H74183   5.300   2.268   9.288  0.6119 -1.0651 -1.5727
  550MOL0     H74184   5.082   2.387   9.332 -2.0832  1.3607 -3.5227
  550MOL0     H74185   5.137   2.838   9.387 -1.9069  1.5099  0.6595
  550MOL0     H74186   5.070   2.807   9.225  2.0860  0.8476  0.7697
  550MOL0     H74187   4.840   2.803   9.380 -0.6965  0.9301  2.2163
  550MOL0     H74188   4.939   2.892   9.481 -1.8220  0.9825 -0.1006
  550MOL0     H74189   4.986   3.042   9.248  1.7437 -2.8430  0.4613
  550MOL0     H74190   4.849   2.953   9.203  0.3027 -1.0793  0.2886
  550MOL0     H74191   4.732   3.048   9.434  0.7074 -1.6377 -0.4233
  550MOL0     H74192   4.870   3.157   9.419  0.5071 -0.2405  0.2901
  550MOL0     H74193   4.642   3.229   9.322 -2.1126 -0.2119 -1.9081
  550MOL0     H74194   4.772   3.237   9.197 -2.5394 -3.3910 -3.8762
  550MOL0     H74195   4.689   3.038   9.098 -0.8000  0.4858 -1.3695
  550MOL0     H74196   4.576   3.008   9.219 -0.3837  0.2067 -0.2761
  550MOL0     H74197   4.587   3.238   9.030 -0.6887  0.0078 -0.1147
  550MOL0     H74198   4.480   3.103   9.012  3.0937  0.7867 -2.7486
  550MOL0     H74199   4.323   3.237   9.085 -1.2764 -1.6578  1.3095
  550MOL0     H74200   4.422   3.321   9.207  3.9698 -1.0060  1.1846
  550MOL0     H74201   4.308   2.954   9.182 -2.4209 -0.4172 -1.2141
  550MOL0     H74202   4.192   2.793   9.368  0.1684 -0.3736  0.6757
  550MOL0     H74203   4.166   2.860   9.526  3.5109  1.2013 -0.6904
  550MOL0     H74204   4.006   2.946   9.279 -0.7076 -1.5396 -0.6596
  550MOL0     H74205   3.960   2.977   9.452  0.1949 -2.6000  1.7897
  550MOL0     H74206   3.900   2.766   9.496  2.8223  0.9376  1.1250
  550MOL0     H74207   3.990   2.697   9.362  1.8251  1.1592  0.7263
  550MOL0     H74208   3.747   2.691   9.327  1.2082 -0.6206 -2.6141
  550MOL0     H74209   3.816   2.775   9.196 -0.4650  0.9312 -0.2970
  550MOL0     H74210   3.582   2.709   9.200  2.3294  0.8616 -1.3215
  550MOL0     H74211   3.248   2.656   9.080 -0.7337 -0.7583 -1.7192
  550MOL0     H74212   3.357   2.692   8.953 -1.4454 -0.4266  0.2625
  550MOL0     H74213   3.427   2.602   9.078  0.0636  0.3854 -0.6919
  550MOL0     H74214   2.931   2.976   9.041 -0.6933 -0.2797  0.6494
  550MOL0     H74215   2.736   3.036   8.913 -1.5853  1.2217 -1.5994
  550MOL0     H74216   2.718   3.410   8.690 -3.0328 -0.7926  2.3770
  550MOL0     H74217   2.804   3.324   8.571 -0.2720  2.3715  0.6016
  550MOL0     H74218   2.612   3.220   8.482 -1.1661 -2.4875  3.4465
  550MOL0     H74219   2.533   3.270   8.629  1.9249  0.1691  1.3697
  550MOL0     H74220   2.571   3.403   8.372 -2.3594 -0.9651  1.3746
  550MOL0     H74221   2.656   3.509   8.488  1.4669 -0.9465  0.3021
  550MOL0     H74222   2.361   3.436   8.514  2.0965 -2.1582 -1.7536
  550MOL0     H74223   2.458   3.533   8.620  0.0145 -0.3322  0.4799
  550MOL0     H74224   2.447   3.601   8.318  0.3214  2.8743 -1.7308
  550MOL0     H74225   2.465   3.712   8.453  1.0665 -2.4028  1.7594
  550MOL0     H74226   2.238   3.710   8.317 -4.6713  0.6002  1.5261
  550MOL0     H74227   2.217   3.566   8.391  1.4205  0.6241 -0.7686
  550MOL0     H74228   2.243   3.858   8.499  3.7148 -0.8299 -1.6597
  550MOL0     H74229   2.276   3.741   8.625 -1.4243  3.2329  1.5272
  550MOL0     H74230   2.075   3.832   8.651  0.2245 -0.5845  0.2222
  550MOL0     H74231   2.062   3.654   8.625  1.0919 -0.8028  0.1380
  550MOL0     H74232   2.950   3.375   8.748  2.3113  0.1629  1.0326
  550MOL0     H74233   3.145   3.308   8.879  1.8223 -2.6558  2.7270
  550MOL0     H74234   3.349   3.147   9.212 -1.0379  1.0648 -2.8187
  550MOL0     H74235   3.552   3.127   9.299  0.5211  0.3230 -0.5203
  550MOL0     H74236   5.284   2.749   9.255 -0.4327 -0.0886  0.1388
  550MOL0     H74237   5.484   2.633   9.176 -1.5572 -0.1972 -1.5907
  550MOL0     H74238   5.603   2.148   9.180  0.6062  0.3718  2.5404
  550MOL0     H74239   5.726   1.943   9.078  1.0751 -0.8629 -0.3792
  550MOL0     H74240   6.135   2.000   9.038  2.4357  0.8827 -2.6095
  550MOL0     H74241   6.123   1.841   8.969 -0.0628 -0.3630 -0.9221
  550MOL0     H74242   6.058   1.996   8.742  1.0731  0.2462 -1.2666
  550MOL0     H74243   6.188   1.892   8.784 -0.7197  0.2345  0.8717
  550MOL0     H74244   6.315   2.081   8.889 -2.5746  0.5139  2.4777
  550MOL0     H74245   6.193   2.192   8.831  0.2805 -0.0732  2.7285
  550MOL0     H74246   6.358   2.196   8.656 -2.3741  1.7234  0.2873
  550MOL0     H74247   6.230   2.098   8.594 -0.1736 -1.5713  1.9366
  550MOL0     H74248   6.600   1.870   8.622  1.9139  3.2841  0.2282
  550MOL0     H74249   6.017   2.224   8.939 -0.8014  0.5414  0.7659
  550MOL0     H74250   5.891   2.415   9.030  0.4906  1.0879  0.5449
  551MOL0     O74251   3.894   3.290   2.806 -0.0718 -0.8837 -0.1772
  551MOL0     C74252   3.933   3.186   2.863  0.7174 -0.3876 -0.0870
  551MOL0     O74253   3.855   3.070   2.895 -0.1611  0.2321  0.0714
  551MOL0     C74254   3.720   3.071   2.880 -0.4122 -0.0840  0.6490
  551MOL0     C74255   3.665   2.956   2.830 -0.0637  1.4671 -0.4338
  551MOL0     C74256   3.522   2.946   2.821  0.0713  0.7712  0.5429
  551MOL0     C74257   3.436   3.038   2.874 -0.0058  0.2396 -0.9385
  551MOL0     O74258   3.304   3.035   2.887 -0.0120  0.2219  0.7365
  551MOL0     C74259   3.256   2.915   2.818 -0.4052 -1.1725 -1.0267
  551MOL0     C74260   3.103   2.923   2.835  0.5870 -0.9320 -0.2007
  551MOL0     C74261   3.048   2.791   2.785 -0.8011 -0.1172  0.5049
  551MOL0     C74262   2.896   2.786   2.800  0.1444 -0.6968  0.9884
  551MOL0     C74263   2.843   2.647   2.789  0.2524  1.0073  0.7051
  551MOL0     C74264   2.691   2.638   2.796  0.2572  0.0544  0.3546
  551MOL0     C74265   2.663   2.506   2.858  0.6664 -0.2980 -0.6419
  551MOL0     C74266   2.513   2.487   2.880  0.5646 -0.2308  0.4183
  551MOL0     N74267   2.445   2.497   2.744  0.1488  0.2470 -0.3983
  551MOL0     C74268   2.339   2.589   2.722  0.3106 -0.2530  0.6182
  551MOL0     C74269   2.293   2.544   2.600 -0.2228 -0.1338 -0.4943
  551MOL0     C74270   2.181   2.610   2.522  0.8747 -0.8750 -0.0953
  551MOL0     C74271   2.052   2.519   2.506 -0.5411  0.6612 -0.0217
  551MOL0     C74272   2.070   2.415   2.389  0.3547  0.4185  0.3375
  551MOL0     C74273   1.941   2.345   2.334 -0.8373 -0.0374 -0.2076
  551MOL0     O74274   1.905   2.228   2.407  0.3696  0.0282  0.4816
  551MOL0     C74275   1.777   2.222   2.461 -0.1684 -0.1869 -0.3588
  551MOL0     C74276   1.711   2.090   2.471 -0.6341  0.5816 -0.2072
  551MOL0     C74277   1.601   2.063   2.543 -0.7897 -0.0466 -0.6420
  551MOL0     C74278   1.552   1.920   2.574 -0.3576 -0.0716 -0.3085
  551MOL0     C74279   1.528   2.174   2.584 -0.3161 -0.1454 -0.8850
  551MOL0     C74280   1.399   2.165   2.657 -0.0543  0.0641 -0.3301
  551MOL0     O74281   1.313   2.254   2.617 -0.1797  0.0252 -0.1893
  551MOL0     C74282   1.183   2.225   2.626 -0.1717  0.2264 -0.0538
  551MOL0     C74283   1.117   2.249   2.746 -0.8461 -0.0403  0.3912
  551MOL0     C74284   0.983   2.229   2.775 -0.1959 -0.0492  0.3260
  551MOL0     C74285   0.905   2.181   2.663  0.5846 -0.6508  0.7612
  551MOL0     O74286   0.773   2.149   2.671 -0.5164 -0.2945  0.4155
  551MOL0     C74287   0.730   2.105   2.794  0.2299  0.2453 -0.0542
  551MOL0     C74288   0.591   2.040   2.774  0.4645  0.0887  0.4452
  551MOL0     C74289   0.481   2.147   2.742  0.4810 -0.4608  0.3123
  551MOL0     C74290   0.341   2.074   2.733  0.2123  0.0571  0.7115
  551MOL0     C74291   0.238   2.180   2.749 -0.1233 -0.8397 -0.2300
  551MOL0     C74292   0.098   2.112   2.731 -0.1865 -0.0228 -0.7293
  551MOL0     C74293  -0.011   2.221   2.737  0.8458 -0.1644 -0.3155
  551MOL0     C74294  -0.011   2.333   2.635  0.4523  0.8106 -0.4719
  551MOL0    Cl74295  -0.140   2.455   2.651  0.2156 -0.0834 -0.0285
  551MOL0     C74296   0.973   2.163   2.531  0.0682  0.1976 -0.0272
  551MOL0     C74297   1.112   2.189   2.509  0.5042 -0.0663 -0.7369
  551MOL0     O74298   1.394   2.100   2.758 -0.0496 -0.4414 -0.5323
  551MOL0     C74299   1.580   2.310   2.566  1.1228 -0.7244 -0.5262
  551MOL0     C74300   1.702   2.334   2.503  0.2000  0.1153 -0.3826
  551MOL0     N74301   2.368   2.432   2.561  0.3799  0.2050  0.0438
  551MOL0     N74302   2.458   2.406   2.646  0.0488 -0.0384 -0.6386
  551MOL0     C74303   3.494   3.157   2.906  0.1767 -0.4851  0.4635
  551MOL0     C74304   3.636   3.171   2.912 -0.0062  0.5364 -0.3201
  551MOL0     C74305   4.073   3.162   2.905  0.3352  0.5208 -0.9847
  551MOL0     C74306   4.177   3.185   2.814 -0.1903  0.4511 -0.0545
  551MOL0     C74307   4.305   3.146   2.839 -0.0900  0.0036  0.1656
  551MOL0     C74308   4.344   3.095   2.959  0.2504 -0.7800  0.1768
  551MOL0     O74309   4.468   3.045   2.988  1.0617  0.4920 -0.0191
  551MOL0     C74310   4.562   3.132   3.044 -0.1765  0.1968 -0.5470
  551MOL0     C74311   4.693   3.065   3.045  0.4362  0.5481 -1.1021
  551MOL0     C74312   4.786   3.154   3.133  0.4519 -0.8173  0.2880
  551MOL0     C74313   4.934   3.119   3.125 -0.2585  0.3897  0.0448
  551MOL0     C74314   4.999   3.246   3.105  0.8720 -0.2506  0.2412
  551MOL0     C74315   5.064   3.349   3.101  0.2673 -0.0666 -0.5245
  551MOL0     C74316   4.239   3.075   3.053 -0.2088 -0.2303  1.1278
  551MOL0     C74317   4.104   3.110   3.026 -0.3166  0.7481 -0.3439
  551MOL0     H74318   3.738   2.885   2.791  0.8706  1.9832  0.3418
  551MOL0     H74319   3.503   2.851   2.771 -1.1974  0.3216  1.8014
  551MOL0     H74320   3.284   2.912   2.712  0.6309 -0.2979 -0.7989
  551MOL0     H74321   3.300   2.824   2.859 -0.8893 -2.5284 -3.3202
  551MOL0     H74322   3.084   2.943   2.941 -2.0226  0.5481 -0.8495
  551MOL0     H74323   3.064   3.010   2.782  2.5372  0.2443  0.2067
  551MOL0     H74324   3.075   2.782   2.680 -0.1957  1.0071  0.5500
  551MOL0     H74325   3.075   2.698   2.837  2.1360  0.7774  0.7663
  551MOL0     H74326   2.869   2.826   2.898 -1.0236 -0.5839  0.6314
  551MOL0     H74327   2.855   2.848   2.720 -1.1366 -2.6454  0.0546
  551MOL0     H74328   2.866   2.593   2.697  0.2490  0.3220  1.0921
  551MOL0     H74329   2.886   2.581   2.866  0.7160 -0.9550 -1.1402
  551MOL0     H74330   2.643   2.710   2.863 -0.3287 -0.0781  0.0771
  551MOL0     H74331   2.658   2.648   2.692  0.9838 -1.5478 -0.0627
  551MOL0     H74332   2.699   2.429   2.789 -1.0569 -0.5951 -1.2538
  551MOL0     H74333   2.715   2.500   2.954  0.6626 -1.9620 -0.7153
  551MOL0     H74334   2.467   2.564   2.944 -0.8635  0.3705 -1.2228
  551MOL0     H74335   2.488   2.390   2.923 -3.0147 -0.3894 -1.6054
  551MOL0     H74336   2.295   2.677   2.769  0.5522  0.5761 -0.6613
  551MOL0     H74337   2.146   2.699   2.576  3.8551  0.3368  0.0483
  551MOL0     H74338   2.220   2.648   2.427  0.9809 -0.4985  0.0955
  551MOL0     H74339   1.972   2.590   2.481 -0.2464  0.6974 -0.8770
  551MOL0     H74340   2.028   2.462   2.596 -0.1589 -0.8123 -0.8384
  551MOL0     H74341   2.135   2.332   2.418 -0.1997 -0.0396  0.2771
  551MOL0     H74342   2.116   2.474   2.310  1.7175  1.9732  2.2054
  551MOL0     H74343   1.951   2.298   2.235 -2.8684  1.8350 -1.4061
  551MOL0     H74344   1.863   2.420   2.315 -1.2365 -0.7152 -1.3743
  551MOL0     H74345   1.770   2.009   2.429 -1.4221 -0.3554  0.4682
  551MOL0     H74346   1.444   1.903   2.561 -0.1235 -2.0216 -0.0621
  551MOL0     H74347   1.600   1.865   2.492 -0.1556 -0.4422  0.0559
  551MOL0     H74348   1.576   1.867   2.666 -0.3107 -0.2086 -0.3994
  551MOL0     H74349   1.187   2.271   2.825  0.4184 -1.2374 -0.3672
  551MOL0     H74350   0.934   2.266   2.865 -0.9982  2.3773 -1.0241
  551MOL0     H74351   0.790   2.023   2.834  1.0889  1.5207  1.3589
  551MOL0     H74352   0.710   2.190   2.860 -2.4751  2.2225 -3.1295
  551MOL0     H74353   0.603   1.969   2.692  1.2914 -0.6809  1.2114
  551MOL0     H74354   0.561   1.984   2.863  0.7743 -1.4001 -0.3525
  551MOL0     H74355   0.487   2.191   2.642  0.7971 -2.2802 -0.5285
  551MOL0     H74356   0.479   2.220   2.823  0.3390  1.7028 -1.5602
  551MOL0     H74357   0.325   2.029   2.635 -0.5671 -2.3411  1.8784
  551MOL0     H74358   0.324   1.988   2.798 -2.6317 -0.8748 -1.1242
  551MOL0     H74359   0.251   2.271   2.690  3.4011 -1.4522 -0.6255
  551MOL0     H74360   0.246   2.216   2.852 -0.3763 -0.8035 -0.2210
  551MOL0     H74361   0.097   2.060   2.634  0.9528  0.5134 -1.0487
  551MOL0     H74362   0.073   2.032   2.801  1.2343 -0.1899 -0.3778
  551MOL0     H74363  -0.026   2.275   2.830  0.1323  0.2096 -0.6446
  551MOL0     H74364  -0.101   2.161   2.720  2.4046 -1.8709 -3.5357
  551MOL0     H74365  -0.018   2.272   2.545  1.1607  0.7417 -0.4901
  551MOL0     H74366   0.082   2.387   2.616 -0.9366  2.6872 -2.3197
  551MOL0     H74367   0.910   2.134   2.448 -0.5330 -0.6118  0.6910
  551MOL0     H74368   1.154   2.175   2.410 -1.1170 -2.1179 -1.1963
  551MOL0     H74369   1.519   2.396   2.594  0.9793  0.6321 -4.3026
  551MOL0     H74370   1.742   2.435   2.504  0.5411  0.0245  2.1118
  551MOL0     H74371   3.426   3.239   2.930 -0.3468 -0.0542 -2.1415
  551MOL0     H74372   3.671   3.268   2.946  1.4751  0.3720 -1.2583
  551MOL0     H74373   4.143   3.215   2.716  1.4696  2.4207 -0.0851
  551MOL0     H74374   4.369   3.153   2.751 -2.9670 -1.3012 -2.2252
  551MOL0     H74375   4.562   3.222   2.982  0.5076  0.1947 -0.5594
  551MOL0     H74376   4.532   3.146   3.149  2.2957 -3.1955  0.8068
  551MOL0     H74377   4.743   3.053   2.949  2.7282 -0.5039  0.1208
  551MOL0     H74378   4.672   2.967   3.090 -2.5786  1.5916  0.0510
  551MOL0     H74379   4.755   3.142   3.237  0.2605  0.3507  0.3818
  551MOL0     H74380   4.760   3.255   3.102 -1.8839 -1.5728 -0.4097
  551MOL0     H74381   4.957   3.051   3.042  0.9543  1.0908 -0.2125
  551MOL0     H74382   4.965   3.075   3.220 -4.4878 -0.5424  1.2151
  551MOL0     H74383   5.128   3.435   3.099 -1.2127  1.1485  1.3605
  551MOL0     H74384   4.244   3.029   3.151 -1.3641  0.0870  1.3500
  551MOL0     H74385   4.020   3.087   3.091 -0.6177  2.7394  0.0377
  552MOL0     O74386   9.037   2.623   3.591  0.1455 -0.5486  0.9333
  552MOL0     C74387   9.092   2.577   3.688 -0.2941 -0.0828 -0.6423
  552MOL0     O74388   9.055   2.602   3.819  0.1835  0.5404 -0.0775
  552MOL0     C74389   8.946   2.678   3.847  0.5407 -0.0527 -0.4381
  552MOL0     C74390   8.958   2.758   3.963  0.8346  0.2441  0.1198
  552MOL0     C74391   8.860   2.838   4.003  0.1943 -0.4639  0.5746
  552MOL0     C74392   8.745   2.859   3.930 -0.2991 -0.2593  0.5257
  552MOL0     O74393   8.641   2.945   3.965 -0.0996 -0.4524  0.2018
  552MOL0     C74394   8.663   3.052   4.057  0.2938 -0.3008  0.5199
  552MOL0     C74395   8.538   3.144   4.069  0.1495  0.0653 -0.5543
  552MOL0     C74396   8.414   3.058   4.107  0.1141 -0.0323 -0.3202
  552MOL0     C74397   8.310   3.139   4.189 -0.4138  0.4281  0.4200
  552MOL0     C74398   8.181   3.054   4.178  0.2787 -1.1571  0.0473
  552MOL0     C74399   8.062   3.108   4.262 -0.1718 -0.2209 -0.8386
  552MOL0     C74400   8.084   3.083   4.416  0.3221 -0.0314  0.0638
  552MOL0     C74401   7.957   3.103   4.491 -1.2723 -0.0626 -0.4326
  552MOL0     N74402   7.988   3.127   4.634  1.0575  0.2681  1.1394
  552MOL0     C74403   8.003   3.032   4.733 -0.6578 -0.9524  0.2820
  552MOL0     C74404   8.031   3.102   4.847  1.0370 -0.9195 -0.3928
  552MOL0     C74405   8.049   3.040   4.980  0.1562  0.2995 -0.2329
  552MOL0     C74406   8.205   3.045   5.031  0.0619 -1.4383  0.0686
  552MOL0     C74407   8.302   2.984   4.946  0.2348  0.8846  0.0926
  552MOL0     C74408   8.431   2.945   5.019 -0.1304  0.3612  0.0371
  552MOL0     O74409   8.426   2.894   5.148  0.5908 -0.1247 -1.2983
  552MOL0     C74410   8.534   2.911   5.227  1.4267  0.4004 -0.6217
  552MOL0     C74411   8.671   2.936   5.185  0.6482  0.2649  0.3607
  552MOL0     C74412   8.775   2.955   5.283 -0.1248 -0.0079  1.1442
  552MOL0     C74413   8.915   2.991   5.227 -0.0805  0.6857  0.3362
  552MOL0     C74414   8.748   2.949   5.423 -0.4260 -0.4813  0.7668
  552MOL0     C74415   8.856   2.978   5.531  0.3992 -0.0095 -0.4643
  552MOL0     O74416   8.983   2.945   5.515 -0.2179  0.7043  0.5836
  552MOL0     C74417   9.067   2.944   5.626 -0.1851  0.0769  0.1007
  552MOL0     C74418   9.119   2.828   5.681 -0.4222  0.3850 -0.1244
  552MOL0     C74419   9.202   2.835   5.802 -0.3691 -0.1593  0.1854
  552MOL0     C74420   9.246   2.964   5.842  0.0667  0.0301  0.4445
  552MOL0     O74421   9.332   2.988   5.956 -0.0086  0.5236  0.6261
  552MOL0     C74422   9.434   2.896   5.996  0.4464  0.1654  0.4332
  552MOL0     C74423   9.496   2.959   6.119  0.1199  1.0348  0.8346
  552MOL0     C74424   9.605   2.861   6.158  0.5295  0.6227  0.1613
  552MOL0     C74425   9.664   2.904   6.296 -0.5001 -0.4454  1.3747
  552MOL0     C74426   9.790   2.832   6.345 -0.3857 -0.9961 -0.2605
  552MOL0     C74427   9.822   2.865   6.489  0.8898 -0.0201 -0.0505
  552MOL0     C74428   9.971   2.846   6.509  0.1814 -0.9144 -0.2110
  552MOL0     C74429  10.061   2.968   6.501 -0.1814  0.1185  0.7595
  552MOL0    Cl74430  10.222   2.920   6.550 -0.2419  0.3402  0.2204
  552MOL0     C74431   9.207   3.079   5.775  0.7385 -0.0821 -0.6584
  552MOL0     C74432   9.110   3.067   5.678  0.6513 -0.1730  2.1484
  552MOL0     O74433   8.808   3.018   5.640  0.2150 -0.7998  0.4046
  552MOL0     C74434   8.618   2.920   5.460  0.1131  0.3114 -0.3583
  552MOL0     C74435   8.512   2.912   5.366 -0.1347  0.6361  0.1290
  552MOL0     N74436   8.009   3.240   4.814  0.2973  0.4975 -0.2355
  552MOL0     N74437   7.983   3.248   4.687  0.6257  0.3715 -0.4769
  552MOL0     C74438   8.736   2.788   3.806  1.1318 -0.2173 -0.7045
  552MOL0     C74439   8.839   2.699   3.765  0.9085  0.6186  0.4250
  552MOL0     C74440   9.210   2.489   3.666 -0.0123 -0.0314 -0.4973
  552MOL0     C74441   9.284   2.447   3.775  0.2645 -0.1623 -0.0277
  552MOL0     C74442   9.398   2.374   3.748  0.1801  0.6933 -1.2191
  552MOL0     C74443   9.448   2.342   3.619  1.1197 -0.0309 -0.0649
  552MOL0     O74444   9.577   2.299   3.600  0.1078  0.6134 -0.3204
  552MOL0     C74445   9.616   2.268   3.470  0.5795 -0.3110  0.0627
  552MOL0     C74446   9.766   2.246   3.478 -0.9253 -0.0924 -0.4077
  552MOL0     C74447   9.817   2.185   3.346  0.7334 -0.5021 -0.8876
  552MOL0     C74448   9.971   2.174   3.342  0.0066  1.0745  0.3809
  552MOL0     C74449  10.035   2.304   3.336  0.0588 -0.2240  0.4020
  552MOL0     C74450  10.083   2.414   3.358 -0.2454  0.3597 -0.3021
  552MOL0     C74451   9.359   2.371   3.518  0.7935 -0.5971  1.3202
  552MOL0     C74452   9.238   2.441   3.534  0.2827  1.1974 -0.0529
  552MOL0     H74453   9.041   2.726   4.024 -0.8959 -4.6817  0.3702
  552MOL0     H74454   8.870   2.878   4.103  2.4529 -0.6613  0.4710
  552MOL0     H74455   8.698   3.011   4.152  0.2781 -0.0697  0.6263
  552MOL0     H74456   8.743   3.121   4.028 -1.4290  1.1342 -1.0562
  552MOL0     H74457   8.554   3.227   4.138 -0.1913  0.1159 -0.5358
  552MOL0     H74458   8.520   3.206   3.981 -0.2144  2.8574  1.3462
  552MOL0     H74459   8.375   3.023   4.011  1.0906 -2.0786 -0.0261
  552MOL0     H74460   8.450   2.967   4.156  1.1309  1.6033  2.1896
  552MOL0     H74461   8.345   3.140   4.293 -0.1028 -1.1282  0.3595
  552MOL0     H74462   8.307   3.244   4.159  3.2914  0.0983 -1.7062
  552MOL0     H74463   8.153   3.059   4.072 -0.4276  0.4216  0.2923
  552MOL0     H74464   8.213   2.951   4.198  1.7809 -0.1700  3.4546
  552MOL0     H74465   8.053   3.215   4.243  0.1240  0.5825  2.7975
  552MOL0     H74466   7.975   3.050   4.229  0.9952 -1.9751 -0.9634
  552MOL0     H74467   8.126   2.986   4.442 -3.1533 -1.9909 -0.8649
  552MOL0     H74468   8.170   3.146   4.441  0.6438  0.2689 -1.6293
  552MOL0     H74469   7.905   3.007   4.482 -1.0091 -0.1292 -1.3259
  552MOL0     H74470   7.894   3.182   4.450  0.1986  1.8719  0.8585
  552MOL0     H74471   7.987   2.925   4.731  0.5946 -1.1572  0.2419
  552MOL0     H74472   7.984   3.101   5.042 -3.1066 -2.4106 -0.6823
  552MOL0     H74473   8.012   2.937   4.982 -0.6055  0.5610 -0.7545
  552MOL0     H74474   8.208   2.998   5.130  0.3841 -3.0288 -0.6513
  552MOL0     H74475   8.247   3.145   5.041  0.3344 -1.5987  0.6103
  552MOL0     H74476   8.315   3.051   4.861 -1.1398 -0.7180 -1.4799
  552MOL0     H74477   8.267   2.890   4.901  1.6559  0.3619  0.0407
  552MOL0     H74478   8.474   3.045   5.028 -2.8368  1.4413  2.6480
  552MOL0     H74479   8.491   2.876   4.959  1.8922  1.8997  0.1867
  552MOL0     H74480   8.705   2.935   5.083 -1.0832 -1.4546 -0.2611
  552MOL0     H74481   8.918   3.022   5.122 -2.3136  4.2484  1.1530
  552MOL0     H74482   8.952   3.067   5.296 -1.6575  2.6208 -0.8628
  552MOL0     H74483   8.989   2.911   5.233  2.9835  3.3390  0.4526
  552MOL0     H74484   9.084   2.737   5.633 -0.8690 -0.3485  1.4951
  552MOL0     H74485   9.227   2.743   5.855  0.5254  0.1084  0.2452
  552MOL0     H74486   9.397   2.795   6.015  0.1632 -0.1957 -1.8047
  552MOL0     H74487   9.508   2.900   5.915  0.4565 -1.4866  0.3282
  552MOL0     H74488   9.535   3.061   6.117 -0.9511  1.4634  1.1967
  552MOL0     H74489   9.415   2.960   6.193  0.0110  2.8481  0.7386
  552MOL0     H74490   9.678   2.865   6.076 -0.0040 -0.5058 -0.3821
  552MOL0     H74491   9.574   2.757   6.159  2.1563  0.1050  0.2141
  552MOL0     H74492   9.702   3.005   6.276  0.5289 -0.1861  4.2316
  552MOL0     H74493   9.584   2.901   6.371 -0.5908  0.4620  1.3263
  552MOL0     H74494   9.879   2.864   6.289 -0.3249  0.6270  0.7105
  552MOL0     H74495   9.783   2.723   6.342 -0.5359 -1.0801  1.6513
  552MOL0     H74496   9.795   2.966   6.519  0.8022  0.1688 -0.7464
  552MOL0     H74497   9.763   2.802   6.556 -2.7548  4.4330  1.4768
  552MOL0     H74498  10.004   2.782   6.427  2.6526 -0.2184  0.1633
  552MOL0     H74499   9.989   2.811   6.611  1.7621  0.9086  0.1891
  552MOL0     H74500  10.035   3.052   6.565 -0.2168 -0.4333  1.4833
  552MOL0     H74501  10.069   2.992   6.395  0.4948 -3.7950 -0.2499
  552MOL0     H74502   9.235   3.178   5.808 -1.6010  1.0938 -1.9351
  552MOL0     H74503   9.062   3.148   5.624 -3.9655 -4.1552 -0.5674
  552MOL0     H74504   8.602   2.907   5.566 -0.4650 -0.0727 -0.4876
  552MOL0     H74505   8.408   2.909   5.396 -0.5268  0.3991 -1.2090
  552MOL0     H74506   8.653   2.809   3.739  0.1582  2.4997  1.1635
  552MOL0     H74507   8.815   2.651   3.670 -4.7817  4.5925 -0.7130
  552MOL0     H74508   9.266   2.487   3.874  3.3091  0.0990  0.4941
  552MOL0     H74509   9.464   2.356   3.832 -1.1958  1.1207 -0.0119
  552MOL0     H74510   9.566   2.176   3.439 -0.7752  0.6683 -0.7759
  552MOL0     H74511   9.598   2.353   3.404  1.5522 -0.6899 -0.7110
  552MOL0     H74512   9.802   2.177   3.555  0.9977  1.4262  0.1316
  552MOL0     H74513   9.819   2.339   3.499 -0.6359  0.0664 -1.7352
  552MOL0     H74514   9.785   2.246   3.261  2.3119 -0.2180 -1.3065
  552MOL0     H74515   9.775   2.084   3.341  0.6652 -0.6115  1.0690
  552MOL0     H74516   9.989   2.123   3.247  0.6263 -0.1245  1.1179
  552MOL0     H74517  10.005   2.115   3.427 -1.4389  0.0991  0.3104
  552MOL0     H74518  10.119   2.510   3.391 -0.5478  0.8608 -1.3761
  552MOL0     H74519   9.380   2.356   3.412  1.7667  1.4791  1.1796
  552MOL0     H74520   9.195   2.480   3.442 -1.4496  3.6428  1.6469
  553MOL0     O74521   1.326   3.277   5.170 -0.8932  0.0673 -0.3232
  553MOL0     C74522   1.292   3.387   5.216  0.8596 -0.2086  0.0245
  553MOL0     O74523   1.361   3.507   5.213  0.0596  0.3571 -0.1943
  553MOL0     C74524   1.476   3.520   5.155 -1.4235  0.5032  0.3023
  553MOL0     C74525   1.529   3.650   5.148  0.5925 -0.4795  0.1287
  553MOL0     C74526   1.649   3.671   5.087 -0.0519  0.0915 -0.8880
  553MOL0     C74527   1.729   3.576   5.028 -0.4824 -0.5241 -0.3577
  553MOL0     O74528   1.839   3.629   4.965 -0.0615  0.5052  0.2639
  553MOL0     C74529   1.945   3.539   4.931  0.4342 -0.5731 -0.0607
  553MOL0     C74530   2.070   3.620   4.893 -0.0448  0.5417  0.8042
  553MOL0     C74531   2.191   3.532   4.910 -1.1818 -0.8536 -0.4643
  553MOL0     C74532   2.319   3.617   4.905  1.0059  0.5153  0.3559
  553MOL0     C74533   2.446   3.533   4.926  0.1211  0.9000  0.1655
  553MOL0     C74534   2.586   3.593   4.899  0.1393 -0.2464  0.3170
  553MOL0     C74535   2.623   3.698   5.003 -0.1521 -0.4183 -0.0749
  553MOL0     C74536   2.789   3.710   4.999 -0.0177 -0.4546  0.3940
  553MOL0     N74537   2.830   3.839   5.062  0.3699  0.4803  0.1167
  553MOL0     C74538   2.815   3.896   5.188 -0.2286 -0.2468 -0.8236
  553MOL0     C74539   2.878   4.009   5.178 -1.1155 -1.1339 -0.9983
  553MOL0     C74540   2.891   4.099   5.298 -0.4841 -0.0812  0.0052
  553MOL0     C74541   2.889   4.255   5.259 -0.0852 -0.3092  0.8315
  553MOL0     C74542   2.932   4.341   5.373 -0.6523 -0.4121 -0.4988
  553MOL0     C74543   2.970   4.488   5.329 -0.4789  0.1074 -0.3731
  553MOL0     O74544   2.855   4.549   5.267  0.4076  0.2284  0.8631
  553MOL0     C74545   2.769   4.640   5.328 -0.1941 -0.6024  0.0751
  553MOL0     C74546   2.775   4.710   5.449 -0.0221  0.1431 -0.1217
  553MOL0     C74547   2.667   4.790   5.491 -0.2837  0.2120 -0.3423
  553MOL0     C74548   2.678   4.860   5.625  0.0529 -0.4314 -0.0695
  553MOL0     C74549   2.554   4.805   5.409 -0.2874  1.0442  0.3660
  553MOL0     C74550   2.434   4.885   5.460  0.9408 -0.0907 -0.1957
  553MOL0     O74551   2.443   4.985   5.558  0.6167 -0.9801  0.6782
  553MOL0     C74552   2.331   5.030   5.607  0.3496  0.0839  0.1520
  553MOL0     C74553   2.346   5.158   5.658  0.1769  0.2012  0.0481
  553MOL0     C74554   2.234   5.219   5.724  0.4176 -0.0445 -0.3121
  553MOL0     C74555   2.114   5.158   5.746 -0.3317  0.0463  0.1074
  553MOL0     O74556   2.004   5.225   5.787 -0.0449  0.0650  0.4087
  553MOL0     C74557   2.002   5.363   5.763  0.1438  0.4557  0.8304
  553MOL0     C74558   1.855   5.402   5.739 -0.1994  0.7802  0.7019
  553MOL0     C74559   1.762   5.360   5.852  0.3007 -0.1519  0.0036
  553MOL0     C74560   1.623   5.440   5.849  0.2422 -0.6400 -0.8799
  553MOL0     C74561   1.623   5.575   5.933 -1.0802  0.7166 -0.0750
  553MOL0     C74562   1.484   5.650   5.906 -0.4633  0.3895 -0.1880
  553MOL0     C74563   1.450   5.669   5.751  0.2558 -0.8175  1.0326
  553MOL0     C74564   1.337   5.769   5.743  0.6031 -0.1353 -0.5008
  553MOL0    Cl74565   1.193   5.707   5.822 -0.0820  0.5173  0.2964
  553MOL0     C74566   2.099   5.025   5.707 -0.5414 -0.0687  0.7877
  553MOL0     C74567   2.204   4.965   5.632  0.5894 -0.0950 -0.2212
  553MOL0     O74568   2.327   4.852   5.398  0.3092 -1.1896  0.6743
  553MOL0     C74569   2.551   4.741   5.283 -0.0152 -1.3834  0.3369
  553MOL0     C74570   2.657   4.653   5.253  0.2136 -0.1410  0.1537
  553MOL0     N74571   2.933   4.022   5.046  0.0691  0.0255 -0.7335
  553MOL0     N74572   2.882   3.925   4.977 -0.2943  0.2820 -0.1198
  553MOL0     C74573   1.683   3.448   5.040 -0.0365 -0.5371  0.1003
  553MOL0     C74574   1.564   3.421   5.108 -0.4944 -0.6371  0.1297
  553MOL0     C74575   1.163   3.387   5.304 -0.7396  0.7335  0.3909
  553MOL0     C74576   1.086   3.273   5.316  0.2769  0.4841  0.3997
  553MOL0     C74577   0.964   3.281   5.387 -0.0757 -0.0848 -0.2138
  553MOL0     C74578   0.908   3.402   5.441 -0.5208  0.4412 -0.5412
  553MOL0     O74579   0.795   3.397   5.519  0.1508 -0.4957 -0.5616
  553MOL0     C74580   0.750   3.521   5.564 -0.0141 -0.3717 -0.1045
  553MOL0     C74581   0.617   3.522   5.627  0.5015  0.8840 -0.5142
  553MOL0     C74582   0.500   3.470   5.527 -0.2448  0.2642 -0.7874
  553MOL0     C74583   0.366   3.456   5.610 -0.1652 -0.2814  0.9242
  553MOL0     C74584   0.320   3.593   5.646  0.8160  0.2458 -0.3079
  553MOL0     C74585   0.273   3.694   5.692 -0.5933  0.8712  0.9781
  553MOL0     C74586   0.992   3.510   5.423  0.9001 -0.0996  0.2969
  553MOL0     C74587   1.119   3.510   5.356 -0.6668  0.0422 -0.3117
  553MOL0     H74588   1.472   3.733   5.189  3.8338  1.3132  1.3693
  553MOL0     H74589   1.695   3.769   5.090  0.1403  0.0026 -0.9355
  553MOL0     H74590   1.958   3.470   5.015  1.7108  1.2244  1.3130
  553MOL0     H74591   1.912   3.478   4.846 -0.3728  0.6064 -0.6223
  553MOL0     H74592   2.063   3.645   4.787  2.3649 -2.5517 -0.2510
  553MOL0     H74593   2.083   3.714   4.949  0.4971  0.8213  0.2211
  553MOL0     H74594   2.178   3.469   4.998 -2.8947 -0.5689 -0.4714
  553MOL0     H74595   2.194   3.463   4.825 -0.0690 -0.9257 -0.3731
  553MOL0     H74596   2.322   3.667   4.808  0.1955 -1.0276 -0.4917
  553MOL0     H74597   2.312   3.682   4.993 -0.7228 -0.8811  1.3152
  553MOL0     H74598   2.447   3.505   5.032  0.1444  3.8350  1.0270
  553MOL0     H74599   2.441   3.445   4.861 -0.3917 -0.5922  2.1074
  553MOL0     H74600   2.661   3.513   4.896 -0.8685 -1.2234  0.4654
  553MOL0     H74601   2.582   3.626   4.795 -1.5549 -0.6181  0.2393
  553MOL0     H74602   2.578   3.794   4.975  0.2332  0.1015  1.0266
  553MOL0     H74603   2.596   3.665   5.104  2.6721  0.1058  0.9501
  553MOL0     H74604   2.809   3.707   4.892  0.8734 -1.5718  0.5757
  553MOL0     H74605   2.843   3.624   5.040  0.6899 -0.2379 -0.0725
  553MOL0     H74606   2.778   3.857   5.283  0.9463  1.2815  0.3020
  553MOL0     H74607   2.821   4.079   5.380  1.0506  2.6803  2.1659
  553MOL0     H74608   2.995   4.091   5.332  0.1272 -1.0910 -1.9573
  553MOL0     H74609   2.796   4.294   5.217  1.9182  1.2798 -2.4960
  553MOL0     H74610   2.962   4.278   5.182 -0.6666  2.3664  0.9954
  553MOL0     H74611   3.018   4.296   5.424  0.6156  2.0449 -0.3208
  553MOL0     H74612   2.859   4.337   5.454 -0.8104 -1.0755 -0.6721
  553MOL0     H74613   3.049   4.468   5.256  1.1401 -0.3806  1.4239
  553MOL0     H74614   3.005   4.546   5.415  2.2369  0.1009 -1.4080
  553MOL0     H74615   2.864   4.695   5.510 -0.6100 -1.1134  0.4521
  553MOL0     H74616   2.713   4.962   5.603 -1.2923  0.9841  3.6240
  553MOL0     H74617   2.595   4.840   5.693  0.2024 -2.4941 -0.4436
  553MOL0     H74618   2.755   4.815   5.688  2.5685  1.4019 -1.6114
  553MOL0     H74619   2.431   5.225   5.648 -0.2352  0.6524 -0.4684
  553MOL0     H74620   2.247   5.321   5.758 -0.9876 -0.2727  0.9905
  553MOL0     H74621   2.046   5.417   5.848 -0.4141  0.5644  1.0558
  553MOL0     H74622   2.064   5.390   5.677  0.5478 -1.8772  0.3165
  553MOL0     H74623   1.859   5.509   5.715 -0.9914 -0.0197 -4.0179
  553MOL0     H74624   1.816   5.355   5.649  3.0944 -0.8127 -0.0279
  553MOL0     H74625   1.817   5.364   5.947  0.3116 -0.7900  0.0234
  553MOL0     H74626   1.741   5.253   5.843 -0.6437  0.1881 -2.6004
  553MOL0     H74627   1.594   5.455   5.744 -2.5938 -0.5816 -0.1857
  553MOL0     H74628   1.555   5.374   5.904  0.7750  0.5772  1.3574
  553MOL0     H74629   1.712   5.631   5.902  1.0640 -1.6258  1.3999
  553MOL0     H74630   1.645   5.563   6.039  1.9687  2.6671 -0.3405
  553MOL0     H74631   1.411   5.586   5.956  1.3730 -1.4304  0.3034
  553MOL0     H74632   1.484   5.742   5.965  0.7359  0.1657  0.1919
  553MOL0     H74633   1.419   5.575   5.705  2.3288 -0.4529 -1.3581
  553MOL0     H74634   1.539   5.702   5.696  0.4264  0.0620  1.8129
  553MOL0     H74635   1.309   5.788   5.639 -1.8496  0.8549  0.2710
  553MOL0     H74636   1.376   5.859   5.794  0.8384 -0.1354 -0.6800
  553MOL0     H74637   2.015   4.961   5.732  0.5654 -1.2487  1.7216
  553MOL0     H74638   2.169   4.869   5.597  1.5331 -0.8184  0.7850
  553MOL0     H74639   2.465   4.755   5.218  1.2862 -1.3805 -1.4686
  553MOL0     H74640   2.645   4.606   5.156 -2.2107 -0.2476  0.4395
  553MOL0     H74641   1.743   3.368   4.996  3.0032  1.6760 -0.1157
  553MOL0     H74642   1.547   3.314   5.117 -0.5353 -0.8579 -1.9123
  553MOL0     H74643   1.119   3.175   5.283  2.0912  1.1194  0.2403
  553MOL0     H74644   0.925   3.181   5.404  2.3304 -0.9411  0.8357
  553MOL0     H74645   0.822   3.560   5.637 -0.1157 -1.9380  0.8729
  553MOL0     H74646   0.751   3.595   5.484  4.9300  1.3283  1.1563
  553MOL0     H74647   0.602   3.624   5.663  0.9879  1.0509 -0.7725
  553MOL0     H74648   0.608   3.458   5.715  0.8316 -2.1034 -2.4920
  553MOL0     H74649   0.523   3.371   5.485  0.8734  0.9201 -1.7880
  553MOL0     H74650   0.479   3.534   5.441 -0.4441 -0.9027 -1.6277
  553MOL0     H74651   0.370   3.389   5.696 -3.4582 -1.0859  0.5779
  553MOL0     H74652   0.293   3.395   5.556  2.6280 -2.3151 -0.8017
  553MOL0     H74653   0.247   3.796   5.711 -0.0959  1.2313 -0.1731
  553MOL0     H74654   0.958   3.612   5.436  2.6721  0.2128  3.2725
  553MOL0     H74655   1.178   3.598   5.332  0.6880  0.0032  2.4730
  554MOL0     O74656   5.135   0.072   2.620  0.1867 -0.0003 -0.4297
  554MOL0     C74657   5.087   0.144   2.533  0.4226  0.5315 -0.1029
  554MOL0     O74658   5.163   0.218   2.449  0.3617  0.2768 -0.4554
  554MOL0     C74659   5.300   0.207   2.464 -0.2090 -0.2547 -0.1113
  554MOL0     C74660   5.372   0.094   2.418 -0.1991  0.8188 -0.0177
  554MOL0     C74661   5.510   0.088   2.439 -0.6589  0.0275 -0.6729
  554MOL0     C74662   5.584   0.201   2.495  0.5886 -0.0079  0.1351
  554MOL0     O74663   5.721   0.209   2.518 -0.5966  0.6460 -0.3279
  554MOL0     C74664   5.805   0.096   2.491  1.4054 -0.3263  0.0098
  554MOL0     C74665   5.944   0.139   2.507 -0.0884 -0.4403 -0.0860
  554MOL0     C74666   6.035   0.033   2.451  1.0095  0.7878  0.3762
  554MOL0     C74667   6.180   0.065   2.446 -0.0208  0.3041  1.0382
  554MOL0     C74668   6.257  -0.050   2.383  0.6354  0.0067  1.4494
  554MOL0     C74669   6.403  -0.042   2.406 -0.3804 -0.1728  0.2681
  554MOL0     C74670   6.481  -0.153   2.335 -0.1487 -0.3952  0.2661
  554MOL0     C74671   6.495  -0.125   2.182 -0.1675  0.6308  0.3364
  554MOL0     N74672   6.613  -0.213   2.136 -0.5044 -0.1128  0.3947
  554MOL0     C74673   6.603  -0.351   2.138  0.3893 -0.8874  0.0509
  554MOL0     C74674   6.720  -0.392   2.072  0.0353  0.5453 -0.3329
  554MOL0     C74675   6.750  -0.528   2.040 -0.7187 -0.0292  1.1264
  554MOL0     C74676   6.728  -0.547   1.886  0.2747  0.4033 -0.7863
  554MOL0     C74677   6.824  -0.453   1.802  0.0773 -1.0224  0.1012
  554MOL0     C74678   6.889  -0.532   1.685  0.0765 -0.3934 -0.6268
  554MOL0     O74679   6.969  -0.440   1.611 -0.4578  0.7355 -0.1606
  554MOL0     C74680   7.040  -0.499   1.512  0.1622 -0.5940 -0.2041
  554MOL0     C74681   7.040  -0.630   1.469 -0.7702  0.8235 -0.4222
  554MOL0     C74682   7.127  -0.688   1.372 -0.6906  0.5490 -0.2959
  554MOL0     C74683   7.107  -0.829   1.323 -0.7189 -0.0965  0.5009
  554MOL0     C74684   7.233  -0.605   1.325  0.4991  1.2508 -0.1855
  554MOL0     C74685   7.347  -0.654   1.246  0.5577 -0.3979 -0.3363
  554MOL0     O74686   7.356  -0.793   1.222  0.1425 -0.2077  0.1644
  554MOL0     C74687   7.470  -0.843   1.178  0.0417 -0.2407  0.3188
  554MOL0     C74688   7.567  -0.902   1.257  0.3049  0.9141 -0.6232
  554MOL0     C74689   7.696  -0.929   1.200  0.0473  0.3734  0.1516
  554MOL0     C74690   7.721  -0.908   1.061  0.0804 -0.3244 -0.2398
  554MOL0     O74691   7.835  -0.938   0.998  0.1741  0.1868 -0.3125
  554MOL0     C74692   7.933  -1.028   1.069  0.5505  0.1820  0.5323
  554MOL0     C74693   8.024  -1.083   0.955  1.3133  0.3867 -0.6395
  554MOL0     C74694   7.953  -1.147   0.838  0.1756  0.1804  0.0927
  554MOL0     C74695   8.058  -1.225   0.753  0.8383 -0.4994 -0.1032
  554MOL0     C74696   7.998  -1.307   0.638 -0.4238  0.2972  0.1640
  554MOL0     C74697   7.946  -1.220   0.530 -0.2641 -0.3440  0.6615
  554MOL0     C74698   8.017  -1.244   0.392 -0.0076 -0.2503 -0.4642
  554MOL0     C74699   8.006  -1.387   0.327 -0.1535 -0.1470 -0.4294
  554MOL0    Cl74700   7.845  -1.413   0.266  0.0987 -0.1771  0.4921
  554MOL0     C74701   7.621  -0.851   0.985 -0.2681 -0.0884  0.5208
  554MOL0     C74702   7.498  -0.812   1.045 -0.3871  0.2094  0.0012
  554MOL0     O74703   7.434  -0.572   1.213  0.2556  1.0951  0.6877
  554MOL0     C74704   7.231  -0.472   1.357  0.4714 -0.2058  0.3002
  554MOL0     C74705   7.136  -0.420   1.449 -1.0514  0.3650  0.6103
  554MOL0     N74706   6.793  -0.280   2.035 -0.4040 -0.2056 -0.1405
  554MOL0     N74707   6.729  -0.175   2.074  1.1038 -0.2846 -0.7698
  554MOL0     C74708   5.513   0.316   2.525  0.6883  1.6332 -0.5081
  554MOL0     C74709   5.367   0.318   2.511  0.3307 -0.2346 -0.4581
  554MOL0     C74710   4.938   0.142   2.522 -0.9267 -0.0622 -0.0563
  554MOL0     C74711   4.860   0.047   2.582 -0.4128 -0.4698 -0.5701
  554MOL0     C74712   4.724   0.037   2.555  0.3315 -1.4260 -0.2119
  554MOL0     C74713   4.667   0.129   2.460  0.1412 -0.0373 -0.4596
  554MOL0     O74714   4.530   0.142   2.428  0.4293 -0.4327 -0.0887
  554MOL0     C74715   4.438   0.079   2.511 -0.6931 -0.0814  0.6392
  554MOL0     C74716   4.391   0.155   2.642  0.6648  0.3349 -1.0145
  554MOL0     C74717   4.313   0.283   2.611 -0.4505 -0.7656  0.3190
  554MOL0     C74718   4.399   0.396   2.548 -0.9965 -0.4516  0.7029
  554MOL0     C74719   4.535   0.409   2.618 -0.8162 -0.9806  0.3979
  554MOL0     C74720   4.643   0.431   2.670 -0.2975  0.5256 -0.0589
  554MOL0     C74721   4.742   0.224   2.405  0.1222 -0.3341  1.0301
  554MOL0     C74722   4.881   0.228   2.425  0.1608  0.3778 -0.8104
  554MOL0     H74723   5.309   0.014   2.381 -1.8632  1.0273  2.1859
  554MOL0     H74724   5.561  -0.007   2.431 -0.2130  0.1966  0.1058
  554MOL0     H74725   5.775   0.009   2.550  1.0908 -0.9902 -1.0931
  554MOL0     H74726   5.788   0.069   2.386  0.7214 -0.9709  0.2787
  554MOL0     H74727   5.962   0.239   2.466 -0.9322  0.3224  1.2997
  554MOL0     H74728   5.975   0.147   2.612 -0.5006 -1.1294  0.0927
  554MOL0     H74729   6.013  -0.063   2.498  0.0845  0.4102 -0.7751
  554MOL0     H74730   6.005   0.017   2.347 -1.8838  0.5428  1.1847
  554MOL0     H74731   6.212   0.150   2.384  0.0246 -1.1802 -1.0959
  554MOL0     H74732   6.206   0.074   2.552 -0.0448  3.2954  0.8898
  554MOL0     H74733   6.214  -0.137   2.434 -1.0064 -0.0389  0.0801
  554MOL0     H74734   6.252  -0.055   2.274 -0.3373  0.7091  1.4496
  554MOL0     H74735   6.442   0.054   2.369 -2.0865  1.2758  2.0167
  554MOL0     H74736   6.416  -0.042   2.515  0.8023 -1.5771  0.1590
  554MOL0     H74737   6.581  -0.156   2.380 -0.0576  0.2331  0.1277
  554MOL0     H74738   6.431  -0.248   2.350 -0.8281  0.0038  0.5525
  554MOL0     H74739   6.521  -0.022   2.156  1.8342 -0.4212 -2.2947
  554MOL0     H74740   6.401  -0.155   2.135 -1.1712  0.2410  2.4467
  554MOL0     H74741   6.528  -0.419   2.177  0.7274 -0.7754  0.9267
  554MOL0     H74742   6.848  -0.560   2.077 -1.6699 -2.2158  1.9254
  554MOL0     H74743   6.680  -0.600   2.083 -0.4796 -0.8246  0.2026
  554MOL0     H74744   6.626  -0.512   1.870  0.9054  2.6783 -0.1953
  554MOL0     H74745   6.740  -0.653   1.862 -0.9166  0.1012 -0.0873
  554MOL0     H74746   6.907  -0.405   1.855 -0.8747  3.5012 -2.0444
  554MOL0     H74747   6.757  -0.376   1.762  2.4609 -0.3333 -3.0133
  554MOL0     H74748   6.815  -0.574   1.616 -0.4461 -0.0456 -0.2881
  554MOL0     H74749   6.958  -0.605   1.729 -1.8088 -1.9894 -0.2046
  554MOL0     H74750   6.982  -0.704   1.523 -0.6954 -0.2047 -1.6815
  554MOL0     H74751   7.018  -0.877   1.364 -1.4708  1.3521  0.6635
  554MOL0     H74752   7.089  -0.839   1.215  1.1734 -2.8168  0.3496
  554MOL0     H74753   7.191  -0.892   1.350 -1.5431 -0.4775  2.3257
  554MOL0     H74754   7.544  -0.903   1.363 -0.8966  1.6745 -0.8540
  554MOL0     H74755   7.766  -0.983   1.263  1.8131  1.8846 -0.4227
  554MOL0     H74756   8.000  -0.981   1.143  1.6061 -1.5209  0.7214
  554MOL0     H74757   7.873  -1.107   1.113 -1.7616  1.7626  0.3791
  554MOL0     H74758   8.086  -1.004   0.913 -1.2292  2.7864 -0.1753
  554MOL0     H74759   8.091  -1.154   1.004 -0.9575 -1.2288  0.3376
  554MOL0     H74760   7.908  -1.065   0.781 -0.4005 -0.2405 -0.0629
  554MOL0     H74761   7.881  -1.223   0.871  0.6057  0.4304  1.6689
  554MOL0     H74762   8.122  -1.148   0.709  2.0994 -1.1225  0.6070
  554MOL0     H74763   8.118  -1.284   0.823  1.2905  2.7457  2.5560
  554MOL0     H74764   7.933  -1.378   0.690 -1.2813  0.5432 -0.5475
  554MOL0     H74765   8.080  -1.362   0.590 -2.2584 -0.3761 -2.4282
  554MOL0     H74766   7.842  -1.250   0.518  0.1755 -1.4317 -0.7150
  554MOL0     H74767   7.952  -1.114   0.553 -2.6667  0.7419 -2.8493
  554MOL0     H74768   8.124  -1.250   0.415 -0.4555  0.2658  2.1509
  554MOL0     H74769   7.988  -1.172   0.315 -1.3803 -0.2562  0.0160
  554MOL0     H74770   8.019  -1.463   0.405  3.1395  0.4039 -0.3255
  554MOL0     H74771   8.083  -1.409   0.253 -0.2987  0.8573 -0.8933
  554MOL0     H74772   7.637  -0.819   0.883  1.5353 -0.0430  0.7959
  554MOL0     H74773   7.417  -0.770   0.986  0.6453  2.2714 -0.0285
  554MOL0     H74774   7.308  -0.410   1.313 -0.5014  0.1337 -0.9662
  554MOL0     H74775   7.135  -0.315   1.478  0.8260  0.2567  1.2445
  554MOL0     H74776   5.561   0.400   2.573 -2.0403  2.2331  1.4040
  554MOL0     H74777   5.314   0.412   2.521 -2.4164 -1.7360 -0.1990
  554MOL0     H74778   4.909  -0.020   2.652 -0.4854  0.1302  0.0585
  554MOL0     H74779   4.663  -0.041   2.600 -0.8191 -0.5369 -0.2033
  554MOL0     H74780   4.356   0.063   2.440  1.6365 -2.1956 -1.8035
  554MOL0     H74781   4.467  -0.023   2.539 -1.2302 -0.0494  1.3433
  554MOL0     H74782   4.476   0.182   2.706  0.2058  0.1922 -0.3376
  554MOL0     H74783   4.322   0.096   2.704 -1.2316  2.2336 -1.2205
  554MOL0     H74784   4.273   0.320   2.706  0.0585  1.0816 -0.1426
  554MOL0     H74785   4.231   0.260   2.543 -2.2882 -0.5014  2.3586
  554MOL0     H74786   4.348   0.492   2.546  1.0421  0.9493  4.9474
  554MOL0     H74787   4.413   0.380   2.440 -1.3655  3.7048 -0.1442
  554MOL0     H74788   4.740   0.437   2.716 -0.7509 -0.5389  1.0906
  554MOL0     H74789   4.699   0.308   2.350 -1.6217 -1.4434  0.6205
  554MOL0     H74790   4.938   0.303   2.370 -1.8538  2.1102 -0.6670
  555MOL0     O74791   9.862   7.115  11.096 -0.4429 -0.3283  0.1033
  555MOL0     C74792   9.857   7.227  11.142  0.3807 -0.1700  0.4099
  555MOL0     O74793   9.786   7.328  11.093 -0.7111  0.4834  0.2666
  555MOL0     C74794   9.691   7.303  10.997  0.6914 -0.2519  0.1658
  555MOL0     C74795   9.612   7.182  10.974  0.0492  0.5777  0.8777
  555MOL0     C74796   9.506   7.178  10.883  0.4053 -0.5581 -0.4086
  555MOL0     C74797   9.460   7.295  10.830  1.1866 -0.6833  0.1763
  555MOL0     O74798   9.367   7.309  10.734  0.4029  0.4237 -0.2214
  555MOL0     C74799   9.235   7.256  10.758 -0.4227  0.4779  0.4648
  555MOL0     C74800   9.166   7.217  10.626  0.5572 -0.1609 -0.4883
  555MOL0     C74801   9.026   7.155  10.634 -0.8875  0.3897  0.3316
  555MOL0     C74802   9.010   7.031  10.722  0.4541 -0.6427 -0.1385
  555MOL0     C74803   8.870   6.967  10.710 -0.0298 -0.2585 -0.1578
  555MOL0     C74804   8.752   7.060  10.738 -0.3442  0.7186  0.3561
  555MOL0     C74805   8.617   6.992  10.748  0.0347  0.2812 -0.5699
  555MOL0     C74806   8.581   6.916  10.616 -0.5383 -0.8695  0.3068
  555MOL0     N74807   8.472   6.822  10.642  0.2770  0.3612  0.1400
  555MOL0     C74808   8.461   6.722  10.747  0.1071 -0.3105  0.5652
  555MOL0     C74809   8.341   6.664  10.725 -0.4757  0.1842 -0.3143
  555MOL0     C74810   8.286   6.549  10.807  1.0904 -0.1263  0.4887
  555MOL0     C74811   8.366   6.427  10.747  0.4936 -0.3438 -0.1481
  555MOL0     C74812   8.307   6.386  10.612  0.1864 -0.0685  1.0318
  555MOL0     C74813   8.162   6.339  10.611 -0.2335  0.7929 -0.5888
  555MOL0     O74814   8.131   6.281  10.745 -1.1866 -0.4422  0.8377
  555MOL0     C74815   8.031   6.195  10.742  0.3354  1.6142 -0.2427
  555MOL0     C74816   8.049   6.062  10.715 -0.8206 -0.9435 -0.1034
  555MOL0     C74817   7.943   5.978  10.702 -0.4040  0.4113 -0.5438
  555MOL0     C74818   7.981   5.831  10.686 -0.2902  0.1016 -0.2394
  555MOL0     C74819   7.809   6.030  10.720 -0.5807  0.0685 -0.0016
  555MOL0     C74820   7.695   5.940  10.727  0.3405  0.6230 -0.0226
  555MOL0     O74821   7.576   5.990  10.671 -0.5999 -0.5082  0.1361
  555MOL0     C74822   7.459   5.951  10.716  0.4861  0.4251  0.4983
  555MOL0     C74823   7.379   6.038  10.789 -0.9442  0.5090  0.8602
  555MOL0     C74824   7.248   6.006  10.811  0.6476  0.4353  0.6581
  555MOL0     C74825   7.193   5.885  10.761 -0.3694 -0.1550 -0.8207
  555MOL0     O74826   7.061   5.845  10.787  0.2473  0.4925 -0.1539
  555MOL0     C74827   6.974   5.931  10.868 -0.0845 -0.3092 -0.8341
  555MOL0     C74828   6.840   5.873  10.856  0.9910 -0.1219 -0.1495
  555MOL0     C74829   6.802   5.751  10.957  0.1602 -0.5695 -0.6056
  555MOL0     C74830   6.662   5.704  10.961 -0.0354  0.1270  0.0566
  555MOL0     C74831   6.640   5.575  11.032  0.0385 -0.0209 -0.8121
  555MOL0     C74832   6.661   5.574  11.180  0.7271 -1.0023 -0.6535
  555MOL0     C74833   6.651   5.444  11.253 -0.0212  0.8300  0.0425
  555MOL0     C74834   6.501   5.406  11.271 -0.7031  0.1818 -0.7241
  555MOL0    Cl74835   6.398   5.534  11.351 -0.3143  0.2576  0.1502
  555MOL0     C74836   7.276   5.800  10.685  0.1781 -0.6372  0.4903
  555MOL0     C74837   7.416   5.838  10.663 -0.4803  0.8028  0.5379
  555MOL0     O74838   7.707   5.833  10.789  0.1359  0.1242  0.0095
  555MOL0     C74839   7.790   6.170  10.731 -0.0331 -0.1101 -0.2068
  555MOL0     C74840   7.900   6.250  10.751 -0.3118  0.0457  0.1948
  555MOL0     N74841   8.282   6.730  10.619  1.1612 -0.2297  0.7587
  555MOL0     N74842   8.357   6.821  10.578 -0.1435 -0.0281 -0.4338
  555MOL0     C74843   9.527   7.413  10.848  0.9182 -0.4371 -0.6358
  555MOL0     C74844   9.644   7.411  10.930 -0.2966  0.6669  0.4773
  555MOL0     C74845   9.959   7.265  11.250  1.0626  0.0507  0.7313
  555MOL0     C74846   9.998   7.393  11.271 -0.0099  0.1977 -0.8667
  555MOL0     C74847  10.107   7.425  11.362  0.6139 -0.5144 -0.3331
  555MOL0     C74848  10.170   7.328  11.431 -0.0283  0.1212 -1.1070
  555MOL0     O74849  10.272   7.366  11.517 -0.4025  0.5078  0.6396
  555MOL0     C74850  10.288   7.292  11.635  0.2502 -0.5144  0.4808
  555MOL0     C74851  10.374   7.371  11.739 -0.0077  0.4352  0.1260
  555MOL0     C74852  10.518   7.398  11.684 -0.9620  0.1853 -1.0702
  555MOL0     C74853  10.600   7.496  11.778 -0.6768  0.3956 -0.5081
  555MOL0     C74854  10.737   7.507  11.751  0.6880  0.1469  0.2678
  555MOL0     C74855  10.853   7.520  11.713 -0.5551  0.5029  0.4409
  555MOL0     C74856  10.129   7.196  11.415 -0.0008 -0.9433  0.4218
  555MOL0     C74857  10.025   7.166  11.321 -0.5653  0.2139 -0.1030
  555MOL0     H74858   9.641   7.095  11.033  3.0001  1.0284  0.2715
  555MOL0     H74859   9.440   7.093  10.867  1.1904 -1.1730 -0.4299
  555MOL0     H74860   9.240   7.163  10.815  0.7968  0.4534  0.3520
  555MOL0     H74861   9.183   7.321  10.828  1.6462  0.1715  2.4069
  555MOL0     H74862   9.149   7.314  10.579  0.6835  0.6558  1.0732
  555MOL0     H74863   9.238   7.159  10.569 -0.6602 -2.8655  0.5623
  555MOL0     H74864   8.954   7.234  10.654 -0.1252  1.3243 -0.4997
  555MOL0     H74865   8.998   7.130  10.531 -0.6443 -0.5515  0.4840
  555MOL0     H74866   9.091   6.962  10.699  0.5327 -0.3488 -0.7440
  555MOL0     H74867   9.013   7.055  10.829 -3.7425  1.5149 -0.2872
  555MOL0     H74868   8.865   6.918  10.613 -0.1330  0.8432 -0.7216
  555MOL0     H74869   8.878   6.892  10.790  1.6510  0.8013  0.7486
  555MOL0     H74870   8.759   7.091  10.843 -0.2626 -2.5204  1.3979
  555MOL0     H74871   8.738   7.152  10.680 -1.1806 -0.5865 -1.5803
  555MOL0     H74872   8.604   6.922  10.830 -1.5245  0.2173 -0.8387
  555MOL0     H74873   8.550   7.078  10.754  2.3118  2.1186 -0.0133
  555MOL0     H74874   8.655   6.846  10.574 -3.2891 -1.9837 -3.2049
  555MOL0     H74875   8.562   6.988  10.536  1.2768 -1.6484 -0.8801
  555MOL0     H74876   8.539   6.683  10.811  2.7209  0.8207 -1.7289
  555MOL0     H74877   8.307   6.566  10.913  0.4353  0.7559  0.4844
  555MOL0     H74878   8.177   6.540  10.800  1.0504 -0.4219  1.4587
  555MOL0     H74879   8.347   6.355  10.827 -2.8633 -1.5880 -1.8427
  555MOL0     H74880   8.474   6.442  10.738  0.2608  2.2943  0.5470
  555MOL0     H74881   8.375   6.306  10.581  2.1771  1.5350  0.9626
  555MOL0     H74882   8.324   6.454  10.527  0.8447 -1.8380 -0.3214
  555MOL0     H74883   8.144   6.269  10.529 -3.5791  1.0256 -0.1941
  555MOL0     H74884   8.108   6.433  10.595  0.6404  1.5966  0.9661
  555MOL0     H74885   8.152   6.028  10.714 -1.1624 -2.2852  2.4012
  555MOL0     H74886   7.943   5.789  10.592  2.2317 -1.0866 -0.8026
  555MOL0     H74887   8.088   5.812  10.678 -0.6304 -3.0557  1.1972
  555MOL0     H74888   7.935   5.772  10.765 -0.9399 -1.6824 -1.8710
  555MOL0     H74889   7.414   6.131  10.832 -1.5522 -0.1826  2.9921
  555MOL0     H74890   7.190   6.075  10.871 -1.8357 -1.8833  1.1125
  555MOL0     H74891   7.008   5.937  10.971 -0.7753  0.0562 -0.6213
  555MOL0     H74892   6.969   6.035  10.833 -1.0443  0.2095  0.7895
  555MOL0     H74893   6.775   5.951  10.895 -1.0099 -0.9161 -1.7428
  555MOL0     H74894   6.816   5.850  10.752 -0.2899 -1.0658  0.3247
  555MOL0     H74895   6.822   5.783  11.060 -2.3145  1.6958 -0.7354
  555MOL0     H74896   6.869   5.671  10.924 -1.0004 -0.1512 -4.3781
  555MOL0     H74897   6.606   5.792  10.992 -0.1888  1.0447 -2.5326
  555MOL0     H74898   6.639   5.675  10.858 -3.3820 -0.8340  0.9673
  555MOL0     H74899   6.710   5.510  10.978  0.1900 -0.2171 -0.3797
  555MOL0     H74900   6.542   5.532  11.010  0.4002  0.7133 -4.4195
  555MOL0     H74901   6.765   5.602  11.202 -0.3008  0.7039  2.7157
  555MOL0     H74902   6.608   5.655  11.231  0.3456 -1.7427  0.1460
  555MOL0     H74903   6.697   5.467  11.349  1.9783  1.4233 -1.0019
  555MOL0     H74904   6.709   5.369  11.199 -0.1039  0.3613  0.6000
  555MOL0     H74905   6.486   5.321  11.338  2.5966  0.3686  0.4591
  555MOL0     H74906   6.460   5.385  11.172  0.4875  2.1786 -1.7107
  555MOL0     H74907   7.234   5.709  10.642 -1.7727  0.5158 -0.1586
  555MOL0     H74908   7.471   5.781  10.588 -1.2903 -1.4519  1.5816
  555MOL0     H74909   7.693   6.218  10.732  0.9480  1.9921  0.8096
  555MOL0     H74910   7.895   6.358  10.758 -2.8683  0.0011 -0.2863
  555MOL0     H74911   9.484   7.497  10.795  0.2937 -0.2532  0.1451
  555MOL0     H74912   9.707   7.498  10.946 -0.4689  0.9859 -0.5501
  555MOL0     H74913   9.945   7.476  11.227 -0.0156  0.3710 -0.5376
  555MOL0     H74914  10.115   7.533  11.367 -1.8043 -0.0837 -2.9980
  555MOL0     H74915  10.191   7.266  11.678  0.2877 -1.9206 -0.2072
  555MOL0     H74916  10.335   7.194  11.616 -1.2505 -1.2444  0.4102
  555MOL0     H74917  10.372   7.315  11.834  1.3525 -3.1748 -1.7553
  555MOL0     H74918  10.332   7.470  11.759 -1.2996  0.5163 -2.6130
  555MOL0     H74919  10.519   7.442  11.584  1.6591  0.8545 -0.8332
  555MOL0     H74920  10.578   7.307  11.679  2.2802  2.1059 -0.2808
  555MOL0     H74921  10.602   7.448  11.876  0.5924 -0.1567 -0.7831
  555MOL0     H74922  10.558   7.597  11.776 -2.1570 -0.1983 -1.7696
  555MOL0     H74923  10.954   7.543  11.684  0.7487 -2.5270  2.0694
  555MOL0     H74924  10.167   7.105  11.460 -2.7446 -2.4720 -0.1303
  555MOL0     H74925   9.998   7.061  11.312 -1.1129  0.1732  1.6596
  556MOL0     O74926   2.588   1.487   6.751 -0.3592 -0.3781 -0.4800
  556MOL0     C74927   2.625   1.568   6.828 -0.7360  0.6529 -0.2120
  556MOL0     O74928   2.658   1.699   6.798 -0.0300 -0.2562 -0.5029
  556MOL0     C74929   2.599   1.753   6.686  0.2955  0.2324 -0.2135
  556MOL0     C74930   2.684   1.757   6.578  0.6784  0.5421  0.6426
  556MOL0     C74931   2.625   1.795   6.454  0.2439 -0.7698  0.0332
  556MOL0     C74932   2.487   1.846   6.445 -0.0667  0.0520  0.1023
  556MOL0     O74933   2.447   1.912   6.331  0.4323  0.8375  0.4198
  556MOL0     C74934   2.359   2.028   6.350  0.2967  0.1092  0.0798
  556MOL0     C74935   2.332   2.086   6.210 -0.2626  0.8876  0.5379
  556MOL0     C74936   2.226   2.192   6.198  0.8182 -0.0030 -0.5066
  556MOL0     C74937   2.184   2.220   6.048 -0.2370  0.5626  0.4919
  556MOL0     C74938   2.082   2.332   6.053 -0.1874 -0.0487  0.6795
  556MOL0     C74939   2.032   2.382   5.913 -0.5473  0.2297 -0.1355
  556MOL0     C74940   1.946   2.503   5.931 -0.2919 -0.4259 -0.5011
  556MOL0     C74941   2.031   2.632   5.987  0.3063  0.4313  0.1473
  556MOL0     N74942   2.136   2.667   5.887  0.4403  0.4239  0.2227
  556MOL0     C74943   2.118   2.726   5.761 -1.1149  0.7151  0.5765
  556MOL0     C74944   2.245   2.749   5.719  0.1154  0.0319  0.0401
  556MOL0     C74945   2.264   2.783   5.574  0.1106 -0.0132  0.0348
  556MOL0     C74946   2.385   2.881   5.559  0.0625 -0.4236  0.2346
  556MOL0     C74947   2.412   2.914   5.411 -0.4417  0.0552 -0.1529
  556MOL0     C74948   2.511   3.026   5.388  0.7519  0.2616  0.5059
  556MOL0     O74949   2.442   3.150   5.432  0.3924  0.8689  0.1272
  556MOL0     C74950   2.516   3.270   5.441  0.0717  0.5132  0.2277
  556MOL0     C74951   2.445   3.384   5.469 -0.2590 -0.2483 -0.3585
  556MOL0     C74952   2.511   3.505   5.496  0.1511 -0.6625 -0.7563
  556MOL0     C74953   2.422   3.626   5.551  0.5477  1.0307 -0.1772
  556MOL0     C74954   2.646   3.518   5.463 -0.4566  0.2290 -0.1674
  556MOL0     C74955   2.729   3.644   5.473  0.3437 -0.2510 -0.0895
  556MOL0     O74956   2.870   3.645   5.475 -0.4313 -0.0791 -0.4165
  556MOL0     C74957   2.958   3.755   5.491  0.2384 -0.3792 -0.0573
  556MOL0     C74958   2.945   3.825   5.612 -0.3451 -0.3935 -0.2876
  556MOL0     C74959   3.039   3.926   5.645  0.3523 -0.0694 -0.2406
  556MOL0     C74960   3.148   3.948   5.559 -0.4841  0.4060 -0.1485
  556MOL0     O74961   3.243   4.049   5.574  0.4383  0.5067 -0.7369
  556MOL0     C74962   3.351   4.029   5.664  0.3128 -0.7552 -0.5540
  556MOL0     C74963   3.431   3.898   5.635  0.9659 -0.4677 -0.0657
  556MOL0     C74964   3.521   3.878   5.753 -0.0725 -0.4534 -0.0836
  556MOL0     C74965   3.640   3.971   5.742  0.7610 -0.0062  0.6430
  556MOL0     C74966   3.722   3.981   5.869 -0.3434  0.6763  0.0930
  556MOL0     C74967   3.652   4.049   5.993 -0.2401  0.2207  0.0370
  556MOL0     C74968   3.750   4.060   6.109 -0.2025  0.2953  0.4331
  556MOL0     C74969   3.689   4.105   6.240 -0.5808  0.6090  0.7029
  556MOL0    Cl74970   3.553   4.002   6.294 -0.0459 -0.4527  0.1320
  556MOL0     C74971   3.150   3.880   5.428 -0.3063 -0.9606 -0.4044
  556MOL0     C74972   3.061   3.784   5.404  0.2862 -0.1454 -0.2551
  556MOL0     O74973   2.664   3.749   5.469 -0.3162  0.9345  0.6262
  556MOL0     C74974   2.714   3.404   5.437 -0.4710 -0.6851 -0.1057
  556MOL0     C74975   2.654   3.275   5.427  0.4404 -0.1795 -1.5419
  556MOL0     N74976   2.330   2.693   5.810  0.7329  0.5093  0.0624
  556MOL0     N74977   2.263   2.648   5.914 -0.0850  0.0005 -0.3467
  556MOL0     C74978   2.409   1.841   6.560 -0.1479  0.2017  0.2222
  556MOL0     C74979   2.464   1.783   6.675 -0.3542 -0.4409 -0.0927
  556MOL0     C74980   2.674   1.511   6.959  0.2383 -0.1425  0.8872
  556MOL0     C74981   2.634   1.378   7.008  0.5705  0.0183  0.0401
  556MOL0     C74982   2.670   1.339   7.135 -0.7527  0.1245  0.9180
  556MOL0     C74983   2.757   1.418   7.218  0.4059  0.1037  0.3678
  556MOL0     O74984   2.805   1.374   7.339  0.0386 -0.1455 -0.1531
  556MOL0     C74985   2.700   1.371   7.430  0.3034 -0.1911  0.0095
  556MOL0     C74986   2.752   1.413   7.567 -0.1058  0.4293  0.3996
  556MOL0     C74987   2.639   1.441   7.678  0.1461  0.1186  0.5986
  556MOL0     C74988   2.551   1.312   7.686 -0.6238 -0.3371 -0.1201
  556MOL0     C74989   2.447   1.314   7.795  0.0562 -0.9091 -0.9711
  556MOL0     C74990   2.356   1.310   7.879 -0.3487 -0.1483  0.4404
  556MOL0     C74991   2.811   1.528   7.153  0.2461 -0.4314 -0.0504
  556MOL0     C74992   2.769   1.583   7.031  0.2466  1.4867  0.9719
  556MOL0     H74993   2.790   1.735   6.567  0.6979  0.9672 -0.1041
  556MOL0     H74994   2.678   1.805   6.360 -0.8231  2.3915 -0.3355
  556MOL0     H74995   2.264   1.987   6.384  1.0540 -0.6484  1.3571
  556MOL0     H74996   2.405   2.098   6.420  3.1976 -0.8485 -0.7067
  556MOL0     H74997   2.419   2.135   6.167 -2.3887  0.4276 -5.1156
  556MOL0     H74998   2.306   1.995   6.155  3.1740 -1.4347  2.3528
  556MOL0     H74999   2.136   2.141   6.233 -0.1911  1.0400 -1.4943
  556MOL0     H75000   2.249   2.290   6.242 -0.8644 -0.8817  2.6308
  556MOL0     H75001   2.273   2.250   5.992  2.4338 -6.3014  0.0332
  556MOL0     H75002   2.145   2.130   6.000 -2.0427  1.7046 -0.2883
  556MOL0     H75003   1.992   2.298   6.107 -0.5047 -0.9118 -0.3437
  556MOL0     H75004   2.130   2.416   6.104 -0.9986  2.0426 -1.8037
  556MOL0     H75005   2.123   2.411   5.861  0.4832  0.1744  1.5429
  556MOL0     H75006   1.979   2.303   5.859 -0.3145  1.0158 -1.5642
  556MOL0     H75007   1.896   2.518   5.834  0.2033 -2.3852 -1.1158
  556MOL0     H75008   1.866   2.472   5.999 -1.2590 -1.4811 -2.0339
  556MOL0     H75009   2.079   2.614   6.084 -1.8251 -1.7595  0.9244
  556MOL0     H75010   1.963   2.713   6.016 -1.1180 -0.6155 -0.1164
  556MOL0     H75011   2.034   2.755   5.698 -1.3734 -1.5907 -0.2359
  556MOL0     H75012   2.291   2.689   5.524  2.5262  1.1202 -0.9895
  556MOL0     H75013   2.172   2.814   5.525  0.7008  0.0023 -1.1186
  556MOL0     H75014   2.469   2.829   5.607  0.0741 -1.8655 -1.2472
  556MOL0     H75015   2.368   2.974   5.614 -2.8181 -0.3573 -0.5911
  556MOL0     H75016   2.322   2.948   5.359 -0.4441 -0.8047 -0.7401
  556MOL0     H75017   2.453   2.823   5.365  1.6280  0.1534  1.3412
  556MOL0     H75018   2.540   3.040   5.284  2.3085  0.4711  0.9533
  556MOL0     H75019   2.608   3.007   5.434  1.3511  1.0856 -0.3934
  556MOL0     H75020   2.339   3.388   5.491 -0.0464 -0.0479  0.6995
  556MOL0     H75021   2.477   3.663   5.638 -1.0906 -4.1959  3.6642
  556MOL0     H75022   2.396   3.703   5.478  1.7978  2.1558  0.5109
  556MOL0     H75023   2.329   3.593   5.599  0.8328 -1.1698 -1.0166
  556MOL0     H75024   2.867   3.800   5.684  0.7979 -2.0329  0.4554
  556MOL0     H75025   3.044   3.990   5.732 -0.0413  1.6219 -1.4036
  556MOL0     H75026   3.410   4.121   5.659 -1.5228  0.5487  0.6547
  556MOL0     H75027   3.314   4.024   5.767  2.1804 -0.2300  0.1741
  556MOL0     H75028   3.366   3.812   5.618 -1.5312  1.2372  0.2174
  556MOL0     H75029   3.492   3.923   5.548  2.0491  0.7527  0.9938
  556MOL0     H75030   3.563   3.777   5.762  2.3593  0.6183  1.8370
  556MOL0     H75031   3.461   3.898   5.842 -0.9770  1.1344 -1.0058
  556MOL0     H75032   3.691   3.931   5.654  1.0664 -1.7658  1.5634
  556MOL0     H75033   3.607   4.070   5.711  1.2336 -0.3516 -1.0885
  556MOL0     H75034   3.817   4.031   5.846  0.9544 -0.7982  1.8766
  556MOL0     H75035   3.760   3.882   5.898 -0.5891  0.3827 -0.5743
  556MOL0     H75036   3.624   4.150   5.962 -0.1006  0.1106 -0.4622
  556MOL0     H75037   3.558   4.000   6.018 -0.2522 -0.2811 -0.9235
  556MOL0     H75038   3.829   4.128   6.077 -1.4577  0.9365 -1.4668
  556MOL0     H75039   3.793   3.961   6.125  1.5742  1.1060  0.8214
  556MOL0     H75040   3.664   4.211   6.227 -0.2845  0.4717 -1.3957
  556MOL0     H75041   3.771   4.088   6.310 -1.7144 -1.3397  1.6562
  556MOL0     H75042   3.225   3.906   5.354  1.0050 -0.4110  1.0690
  556MOL0     H75043   3.070   3.732   5.309 -0.9611 -2.2105  0.7034
  556MOL0     H75044   2.823   3.400   5.434 -0.4668 -3.3781  0.3775
  556MOL0     H75045   2.716   3.190   5.402 -0.7716 -1.5829 -0.0322
  556MOL0     H75046   2.306   1.877   6.562  0.2744  1.4509  0.5917
  556MOL0     H75047   2.407   1.766   6.766  0.0391  1.8538  0.6543
  556MOL0     H75048   2.569   1.307   6.957 -0.9747 -0.6747  2.7577
  556MOL0     H75049   2.638   1.245   7.180  1.3479  0.0655  2.4532
  556MOL0     H75050   2.627   1.447   7.403  0.2578 -1.3443 -3.6049
  556MOL0     H75051   2.653   1.272   7.432  1.4199 -0.9254 -3.3056
  556MOL0     H75052   2.811   1.505   7.560  0.7907 -0.0931  0.9352
  556MOL0     H75053   2.821   1.335   7.601  2.2479  0.9673 -2.6432
  556MOL0     H75054   2.576   1.519   7.636  0.5041  0.1227  0.0651
  556MOL0     H75055   2.682   1.464   7.776  3.5739 -1.1006 -0.4641
  556MOL0     H75056   2.613   1.224   7.708  0.6885  0.0806 -1.8885
  556MOL0     H75057   2.496   1.290   7.594 -4.9302  0.7207  1.9502
  556MOL0     H75058   2.265   1.304   7.935 -1.8243  2.5120 -1.4332
  556MOL0     H75059   2.890   1.584   7.201  1.2948 -0.5877 -1.5345
  556MOL0     H75060   2.807   1.673   6.984  0.8633  1.1553  0.8240
  557MOL0     O75061   8.766   5.191   9.015 -0.6912  0.1767  0.4203
  557MOL0     C75062   8.650   5.227   9.037 -0.4470  0.1199 -0.7292
  557MOL0     O75063   8.596   5.347   9.001 -0.9698  0.0759 -0.1295
  557MOL0     C75064   8.681   5.454   8.969  0.4039 -0.4409 -0.5017
  557MOL0     C75065   8.632   5.547   8.875 -0.0159  0.5559 -0.0573
  557MOL0     C75066   8.714   5.660   8.841 -0.6449 -0.5006 -0.2143
  557MOL0     C75067   8.849   5.675   8.910 -0.2952 -0.4198  0.3229
  557MOL0     O75068   8.937   5.778   8.884  0.6803 -0.1049  0.2607
  557MOL0     C75069   8.932   5.837   8.751  1.2503  0.8343  0.0016
  557MOL0     C75070   9.052   5.928   8.727  0.2722 -0.5356 -0.1649
  557MOL0     C75071   9.048   6.060   8.804  0.5068 -0.2271 -0.8373
  557MOL0     C75072   9.172   6.148   8.760 -0.6528  0.2180  0.2853
  557MOL0     C75073   9.173   6.264   8.857 -0.0825 -0.3920  0.5371
  557MOL0     C75074   9.268   6.382   8.813 -0.2819 -0.1317  0.1532
  557MOL0     C75075   9.313   6.462   8.941 -0.8717 -0.5789  0.1787
  557MOL0     C75076   9.411   6.583   8.912 -0.5776 -0.1120 -0.9000
  557MOL0     N75077   9.343   6.710   8.873  0.9740 -0.3779  0.2555
  557MOL0     C75078   9.238   6.729   8.788 -0.3467 -0.3748  1.1102
  557MOL0     C75079   9.249   6.861   8.763 -0.8998 -0.2013 -0.0638
  557MOL0     C75080   9.160   6.953   8.681  0.5947  0.5628 -0.5337
  557MOL0     C75081   9.017   6.909   8.685 -1.3271  0.7134 -0.7877
  557MOL0     C75082   8.962   6.881   8.833  0.1857 -0.3860  0.9630
  557MOL0     C75083   8.810   6.860   8.843 -1.0697 -0.5966  0.0437
  557MOL0     O75084   8.750   6.756   8.773  0.1844  0.4158  0.8422
  557MOL0     C75085   8.615   6.734   8.811 -0.1366  0.8732  1.1306
  557MOL0     C75086   8.554   6.646   8.721  0.6530  0.2159 -0.0921
  557MOL0     C75087   8.413   6.622   8.729 -0.6672  0.5846  0.1939
  557MOL0     C75088   8.359   6.523   8.644 -0.0880 -0.2656  0.6263
  557MOL0     C75089   8.338   6.690   8.833 -0.6019  0.4189  0.6600
  557MOL0     C75090   8.193   6.667   8.866 -0.1440  1.1020 -0.3664
  557MOL0     O75091   8.120   6.563   8.811  0.7817 -0.5306 -0.0742
  557MOL0     C75092   7.986   6.558   8.840  0.9275  0.4193 -1.0908
  557MOL0     C75093   7.887   6.585   8.750 -0.3341  0.1061  0.4303
  557MOL0     C75094   7.747   6.595   8.788 -0.2408 -0.1655 -0.5611
  557MOL0     C75095   7.704   6.562   8.923 -0.5606  0.5540 -0.6494
  557MOL0     O75096   7.573   6.586   8.963  0.1608  0.0636 -0.2473
  557MOL0     C75097   7.528   6.548   9.095  0.7700  0.1933 -0.8355
  557MOL0     C75098   7.383   6.598   9.119 -1.1963 -0.1707 -0.7803
  557MOL0     C75099   7.293   6.508   9.037 -0.1204 -0.3357  0.8660
  557MOL0     C75100   7.152   6.532   9.089  0.3853  0.3789 -0.0487
  557MOL0     C75101   7.042   6.481   8.980 -1.2284  0.4270 -0.1369
  557MOL0     C75102   6.895   6.505   9.001  0.1087 -0.7883 -0.6115
  557MOL0     C75103   6.839   6.398   9.092  0.6278 -0.7298 -0.4664
  557MOL0     C75104   6.688   6.401   9.107  0.1188 -0.3359  0.3215
  557MOL0    Cl75105   6.607   6.391   8.949  0.5764 -0.0187  0.3455
  557MOL0     C75106   7.807   6.518   9.011 -0.3562  0.4769  0.4219
  557MOL0     C75107   7.941   6.515   8.974 -1.2480 -0.1438  1.3600
  557MOL0     O75108   8.144   6.760   8.939  0.6267  0.5888  0.3386
  557MOL0     C75109   8.410   6.771   8.916  0.1870 -0.3320 -0.6160
  557MOL0     C75110   8.541   6.805   8.898  0.3367 -0.4104 -0.3300
  557MOL0     N75111   9.343   6.914   8.842  0.1865 -0.6344 -0.1880
  557MOL0     N75112   9.395   6.825   8.913  0.3499  0.4480 -0.4985
  557MOL0     C75113   8.888   5.585   9.016 -0.4246 -0.4326 -0.0295
  557MOL0     C75114   8.802   5.475   9.043 -0.6567 -0.0730  0.5864
  557MOL0     C75115   8.552   5.136   9.106 -0.3679 -0.3323  0.0784
  557MOL0     C75116   8.603   5.019   9.175  0.5337  0.6447 -0.0808
  557MOL0     C75117   8.510   4.926   9.225 -0.6165  0.4185 -0.7357
  557MOL0     C75118   8.370   4.943   9.211 -0.2740 -0.0744  0.0724
  557MOL0     O75119   8.274   4.862   9.258  0.4935  0.2213  0.8760
  557MOL0     C75120   8.295   4.775   9.367 -0.0001 -0.4100 -0.4966
  557MOL0     C75121   8.178   4.675   9.384  0.4089 -0.1367  0.6768
  557MOL0     C75122   8.142   4.654   9.522 -0.8345 -0.5203 -0.2510
  557MOL0     C75123   8.026   4.562   9.548  0.8779 -0.4893 -0.3372
  557MOL0     C75124   7.976   4.568   9.686  0.2295  0.6690 -0.3266
  557MOL0     C75125   7.928   4.579   9.804  1.1017  1.0716  0.1354
  557MOL0     C75126   8.322   5.065   9.157  0.5581 -0.4313 -0.5631
  557MOL0     C75127   8.413   5.150   9.094  0.0536 -0.5625 -1.1169
  557MOL0     H75128   8.539   5.532   8.823  0.1266 -0.8759  0.0784
  557MOL0     H75129   8.680   5.730   8.765  2.3570  2.1392  0.6600
  557MOL0     H75130   8.942   5.751   8.685  1.9547 -0.9744  2.3088
  557MOL0     H75131   8.840   5.891   8.729  0.3276 -1.1581 -1.3378
  557MOL0     H75132   9.137   5.869   8.761  0.0191 -2.2598 -2.3095
  557MOL0     H75133   9.077   5.948   8.622  1.4691  0.6441  0.3332
  557MOL0     H75134   8.959   6.114   8.773  0.8367  0.1314 -1.1812
  557MOL0     H75135   9.044   6.044   8.912  0.4655  3.7147 -0.1076
  557MOL0     H75136   9.265   6.091   8.771 -0.7282 -0.0158 -0.2731
  557MOL0     H75137   9.176   6.179   8.655  2.5205  1.7359  0.7320
  557MOL0     H75138   9.071   6.305   8.858  1.1804  3.4941 -2.6633
  557MOL0     H75139   9.205   6.238   8.958 -0.2965  0.3940  0.8150
  557MOL0     H75140   9.361   6.348   8.766 -2.0817 -1.6887 -2.4983
  557MOL0     H75141   9.214   6.445   8.743  1.0996  1.1021  0.1479
  557MOL0     H75142   9.223   6.491   8.996 -0.7706  0.5875 -0.2458
  557MOL0     H75143   9.376   6.394   9.000 -1.9161 -2.3306 -0.6606
  557MOL0     H75144   9.477   6.548   8.832 -1.2587 -1.6118 -0.8393
  557MOL0     H75145   9.465   6.605   9.005 -1.2291 -1.9523 -0.0313
  557MOL0     H75146   9.170   6.660   8.740  1.1897 -2.3257  1.5876
  557MOL0     H75147   9.165   7.058   8.713 -4.0370  0.9237 -0.3606
  557MOL0     H75148   9.195   6.947   8.578  1.8501  1.0260 -0.1609
  557MOL0     H75149   9.034   6.812   8.636  3.0593  2.3291 -3.0155
  557MOL0     H75150   8.956   6.982   8.631 -0.1844  1.9351 -0.4668
  557MOL0     H75151   8.975   6.977   8.884  0.0156  1.5265 -2.2846
  557MOL0     H75152   9.019   6.808   8.892 -1.2750 -0.3476  2.4918
  557MOL0     H75153   8.776   6.961   8.817 -0.7840  0.0513  2.0455
  557MOL0     H75154   8.808   6.852   8.952  2.8958  2.1284  0.5311
  557MOL0     H75155   8.611   6.596   8.644  2.8165  1.2956  0.7262
  557MOL0     H75156   8.411   6.517   8.548 -1.4970  1.8126 -0.3335
  557MOL0     H75157   8.364   6.427   8.696  1.8162 -0.2044  0.6011
  557MOL0     H75158   8.254   6.536   8.616 -0.1817 -1.0085  0.6022
  557MOL0     H75159   7.925   6.605   8.650  1.3924  0.8912  1.1935
  557MOL0     H75160   7.674   6.618   8.710 -0.3384  0.0680 -0.4029
  557MOL0     H75161   7.539   6.440   9.110 -0.6978 -0.2796 -2.7561
  557MOL0     H75162   7.591   6.595   9.171 -1.0863  1.6171 -0.0990
  557MOL0     H75163   7.350   6.586   9.223 -0.7586 -2.9456 -0.8930
  557MOL0     H75164   7.371   6.699   9.078 -0.2507  1.6214  2.9201
  557MOL0     H75165   7.316   6.401   9.046  0.7143 -0.3594 -1.1193
  557MOL0     H75166   7.289   6.532   8.931  1.4394  2.7271  1.3735
  557MOL0     H75167   7.123   6.496   9.188 -1.0119 -0.1139 -0.6103
  557MOL0     H75168   7.138   6.639   9.076  2.6236  0.5861 -1.2428
  557MOL0     H75169   7.058   6.375   8.961  0.1251  0.5453  0.2233
  557MOL0     H75170   7.062   6.529   8.883 -1.5271  0.2469 -0.2882
  557MOL0     H75171   6.883   6.605   9.045  0.1207 -1.3323  0.6658
  557MOL0     H75172   6.851   6.497   8.901  0.1578 -4.7528 -0.4624
  557MOL0     H75173   6.874   6.411   9.195  1.7752  0.3746 -0.9807
  557MOL0     H75174   6.887   6.301   9.079  0.7047 -0.8050  0.3254
  557MOL0     H75175   6.658   6.494   9.155 -0.4302  0.0980 -0.8204
  557MOL0     H75176   6.648   6.318   9.166 -0.4535 -0.4549 -0.2243
  557MOL0     H75177   7.800   6.480   9.112 -0.4571  2.2811  1.1340
  557MOL0     H75178   8.018   6.498   9.049  0.0185 -4.4569 -0.6257
  557MOL0     H75179   8.358   6.815   9.000  0.5994  0.0695 -0.5673
  557MOL0     H75180   8.576   6.883   8.965 -1.3164 -0.6338  0.8697
  557MOL0     H75181   8.982   5.601   9.068  0.2801 -0.8006 -1.1484
  557MOL0     H75182   8.830   5.407   9.123 -1.0260 -2.5771 -1.2934
  557MOL0     H75183   8.710   5.002   9.175  0.5144  0.3137 -1.7748
  557MOL0     H75184   8.538   4.831   9.267 -0.1290  0.5419 -0.7789
  557MOL0     H75185   8.391   4.724   9.356  1.0231  1.4140 -0.3578
  557MOL0     H75186   8.301   4.834   9.459  0.2779 -1.9104  0.4872
  557MOL0     H75187   8.195   4.586   9.323 -1.1285  0.2422 -0.3765
  557MOL0     H75188   8.095   4.737   9.347 -0.1049  0.2669  2.4241
  557MOL0     H75189   8.123   4.750   9.570 -1.0981 -1.7826  2.3425
  557MOL0     H75190   8.227   4.607   9.573  0.8489  1.7332 -0.8511
  557MOL0     H75191   8.049   4.456   9.536 -2.0063 -1.5202  1.9914
  557MOL0     H75192   7.935   4.575   9.489  0.2162 -2.9106  0.0628
  557MOL0     H75193   7.875   4.587   9.897  0.2642  1.8364 -0.3849
  557MOL0     H75194   8.218   5.095   9.152  0.3256 -1.4333 -2.9199
  557MOL0     H75195   8.379   5.241   9.045  1.4047  0.8173  0.4202
  558MOL0     O75196   9.512   2.114   9.329  0.8308  0.0966 -0.4399
  558MOL0     C75197   9.459   2.054   9.419 -0.4926 -0.4627 -0.1752
  558MOL0     O75198   9.512   2.029   9.540 -0.2351  0.1188  0.2342
  558MOL0     C75199   9.649   2.023   9.561 -0.2958 -0.7339 -0.1935
  558MOL0     C75200   9.746   2.008   9.463 -0.2326 -0.3331 -0.2727
  558MOL0     C75201   9.880   1.995   9.508 -0.7521 -0.7234  0.1046
  558MOL0     C75202   9.919   1.999   9.644  0.2602 -0.1044  0.2016
  558MOL0     O75203  10.056   2.012   9.665 -0.6589  0.4657 -0.5096
  558MOL0     C75204  10.098   2.041   9.801  0.8996  0.2708 -0.5105
  558MOL0     C75205  10.246   2.042   9.804 -0.3979  0.1262  0.0805
  558MOL0     C75206  10.297   2.093   9.936 -0.1412 -0.2806 -0.0160
  558MOL0     C75207  10.446   2.071   9.950 -0.3292  0.9271  0.4125
  558MOL0     C75208  10.492   2.122  10.085  1.0506 -0.2908 -0.1716
  558MOL0     C75209  10.642   2.074  10.096 -0.5709  0.3828  0.0802
  558MOL0     C75210  10.685   2.070  10.238  0.1524 -0.1089 -0.0976
  558MOL0     C75211  10.755   2.191  10.295  0.0057 -0.0669 -0.5273
  558MOL0     N75212  10.884   2.217  10.229 -0.5182 -0.0573  1.4454
  558MOL0     C75213  11.000   2.147  10.224  0.8348  0.5477 -0.5212
  558MOL0     C75214  11.097   2.232  10.185  0.2100 -0.4730 -0.3650
  558MOL0     C75215  11.239   2.215  10.143  0.1599  0.9418  0.2355
  558MOL0     C75216  11.310   2.132  10.252 -0.0883 -0.1363 -0.4397
  558MOL0     C75217  11.318   2.204  10.386 -0.2870  0.1705 -0.3580
  558MOL0     C75218  11.373   2.347  10.378  0.7370  0.1486  0.4215
  558MOL0     O75219  11.370   2.411  10.514  0.2203 -0.1621  0.0093
  558MOL0     C75220  11.257   2.441  10.585  0.0405 -1.1376 -0.3501
  558MOL0     C75221  11.133   2.436  10.533 -0.5360 -0.7309 -0.8050
  558MOL0     C75222  11.020   2.475  10.608  0.1106 -0.3890  0.4566
  558MOL0     C75223  10.900   2.501  10.510  0.2843  0.8529 -0.4031
  558MOL0     C75224  11.026   2.498  10.752  0.1149 -0.7924  0.3119
  558MOL0     C75225  10.904   2.530  10.831  0.1677 -0.7365 -0.9043
  558MOL0     O75226  10.782   2.518  10.768 -0.5461 -0.4654 -0.0880
  558MOL0     C75227  10.684   2.611  10.770 -0.7632 -0.4871  0.2313
  558MOL0     C75228  10.700   2.729  10.839 -0.6362  0.3077 -0.5722
  558MOL0     C75229  10.601   2.831  10.825 -0.6108  0.5106 -0.0884
  558MOL0     C75230  10.486   2.817  10.744  0.1489  0.0948  0.3527
  558MOL0     O75231  10.397   2.916  10.741  0.2440 -1.0259 -1.0752
  558MOL0     C75232  10.278   2.902  10.667  1.1363  0.1967  0.1365
  558MOL0     C75233  10.198   3.036  10.662 -0.3576 -0.1194 -0.5950
  558MOL0     C75234  10.086   3.033  10.562 -0.1005  0.5567  0.4165
  558MOL0     C75235  10.014   2.899  10.552 -0.4767  0.3100 -0.4103
  558MOL0     C75236   9.882   2.913  10.477 -0.0024  0.2410 -0.2092
  558MOL0     C75237   9.753   2.904  10.570 -0.5777 -0.1814  0.3523
  558MOL0     C75238   9.756   2.994  10.694  0.6661  0.5215  0.0731
  558MOL0     C75239   9.648   2.955  10.791  1.0088 -0.5596  0.4388
  558MOL0    Cl75240   9.483   2.986  10.733  0.3478 -0.1062 -0.1942
  558MOL0     C75241  10.480   2.697  10.668 -0.3769 -0.4814 -0.5386
  558MOL0     C75242  10.580   2.599  10.679  0.7167  0.7621  0.8022
  558MOL0     O75243  10.922   2.568  10.943  0.1323  0.0038 -0.2101
  558MOL0     C75244  11.153   2.492  10.805  0.3480 -0.9043 -0.0417
  558MOL0     C75245  11.268   2.472  10.716  0.2492  0.5643 -0.5969
  558MOL0     N75246  11.034   2.352  10.163 -0.3849  0.0493 -0.2585
  558MOL0     N75247  10.913   2.338  10.193  0.6834 -0.3115  0.3605
  558MOL0     C75248   9.813   2.006   9.737  0.4830 -0.7733  0.8364
  558MOL0     C75249   9.682   2.014   9.697  0.0854  0.4615  0.0679
  558MOL0     C75250   9.313   2.021   9.416 -0.0478  0.5864 -0.7358
  558MOL0     C75251   9.241   2.023   9.295  0.0373 -0.4842  0.2830
  558MOL0     C75252   9.103   1.992   9.294  0.0475  0.0415  0.3152
  558MOL0     C75253   9.034   1.959   9.409  0.7656 -0.0564 -0.0229
  558MOL0     O75254   8.898   1.933   9.410 -0.1443  0.3211 -0.5249
  558MOL0     C75255   8.812   2.032   9.472  0.2339  0.7225 -0.1003
  558MOL0     C75256   8.669   1.976   9.472 -0.5046  0.1433  0.7691
  558MOL0     C75257   8.578   2.097   9.517  0.2631  0.0485  1.0546
  558MOL0     C75258   8.437   2.043   9.531  0.4629 -0.7751 -0.1923
  558MOL0     C75259   8.348   2.157   9.580  0.1431  0.5671 -1.0559
  558MOL0     C75260   8.278   2.245   9.622  0.1592 -0.0033 -0.1341
  558MOL0     C75261   9.106   1.943   9.526  0.2546  0.0953 -0.3621
  558MOL0     C75262   9.241   1.982   9.527 -0.6241  0.5189 -0.0041
  558MOL0     H75263   9.735   2.011   9.355 -2.0772  2.1995 -0.1124
  558MOL0     H75264   9.962   1.993   9.437  1.7064  1.7500  2.5645
  558MOL0     H75265  10.062   2.140   9.831  0.5094 -0.4575  1.6616
  558MOL0     H75266  10.059   1.970   9.875  1.6752  2.4772  2.2211
  558MOL0     H75267  10.283   1.940   9.791 -1.2971 -0.1576 -0.3076
  558MOL0     H75268  10.293   2.110   9.732 -0.3706  0.5995  0.5379
  558MOL0     H75269  10.278   2.200   9.948  0.0361 -0.2450 -0.0562
  558MOL0     H75270  10.248   2.041  10.019  0.1341 -0.8108 -0.1831
  558MOL0     H75271  10.469   1.964   9.949 -0.1324  0.9045 -2.2940
  558MOL0     H75272  10.488   2.115   9.858 -1.3151  2.4630  0.6513
  558MOL0     H75273  10.482   2.230  10.091 -0.4181 -0.3264 -1.5471
  558MOL0     H75274  10.422   2.070  10.151 -0.9326  1.9943 -0.3440
  558MOL0     H75275  10.645   1.970  10.061 -2.7560 -0.3462  1.7661
  558MOL0     H75276  10.702   2.136  10.029  0.7985 -1.7852 -0.8184
  558MOL0     H75277  10.601   2.044  10.303  0.9374 -3.0773 -0.1212
  558MOL0     H75278  10.753   1.986  10.254  2.7228  2.0625  1.1702
  558MOL0     H75279  10.771   2.170  10.401 -0.5520 -2.7051 -0.8988
  558MOL0     H75280  10.685   2.275  10.292 -1.2834 -0.9089  2.3827
  558MOL0     H75281  11.016   2.046  10.259 -2.1368  0.2756  0.3590
  558MOL0     H75282  11.240   2.168  10.044 -3.6565 -0.3691  0.6746
  558MOL0     H75283  11.284   2.314  10.129  2.8195 -0.3291 -1.0424
  558MOL0     H75284  11.410   2.107  10.217 -0.0430  0.2192 -0.5626
  558MOL0     H75285  11.255   2.038  10.264 -3.2166  1.5381 -0.5820
  558MOL0     H75286  11.388   2.146  10.446 -1.5741 -2.0131 -0.8642
  558MOL0     H75287  11.219   2.195  10.433 -0.5529 -2.5270 -1.2837
  558MOL0     H75288  11.315   2.413  10.312  1.7159  0.6549  0.0383
  558MOL0     H75289  11.473   2.349  10.333  1.5359  1.9587  2.1431
  558MOL0     H75290  11.118   2.408  10.430 -3.3483  0.5974 -0.8264
  558MOL0     H75291  10.840   2.585  10.547  1.3617  0.2488  3.0340
  558MOL0     H75292  10.932   2.521  10.407 -1.1360  0.1067 -1.0046
  558MOL0     H75293  10.832   2.416  10.508 -2.7873  3.1731 -0.9740
  558MOL0     H75294  10.791   2.755  10.893 -1.9737  1.9021  1.0492
  558MOL0     H75295  10.624   2.923  10.876 -2.0529  0.9417 -0.1680
  558MOL0     H75296  10.314   2.878  10.567  4.5305 -0.5319  1.3965
  558MOL0     H75297  10.216   2.817  10.698  2.7949  0.2005  4.0997
  558MOL0     H75298  10.164   3.054  10.764  0.0734 -1.5376 -0.1878
  558MOL0     H75299  10.268   3.113  10.628  0.1055 -0.4220 -0.3408
  558MOL0     H75300  10.125   3.067  10.466 -0.6046  1.8078  0.6417
  558MOL0     H75301  10.009   3.107  10.585 -2.1273  0.5008 -4.7926
  558MOL0     H75302  10.076   2.824  10.503  0.0495 -1.4261  2.6326
  558MOL0     H75303  10.009   2.865  10.656  0.6186  1.1280 -0.0677
  558MOL0     H75304   9.880   2.839  10.397  1.4435 -2.1497  1.8159
  558MOL0     H75305   9.888   3.014  10.436 -0.1067  0.9599  1.4448
  558MOL0     H75306   9.669   2.932  10.505 -0.8099 -1.9150 -0.1451
  558MOL0     H75307   9.721   2.802  10.592 -0.3587 -1.6969 -4.9627
  558MOL0     H75308   9.736   3.098  10.666 -2.2960  1.0368  3.4082
  558MOL0     H75309   9.856   2.987  10.740  0.2180 -0.8051  0.8979
  558MOL0     H75310   9.651   2.996  10.892 -2.7225 -2.3675  1.4879
  558MOL0     H75311   9.650   2.847  10.808 -0.9196 -0.9501 -1.3788
  558MOL0     H75312  10.399   2.684  10.597 -1.4024  2.1310  0.0627
  558MOL0     H75313  10.564   2.510  10.620 -0.4824  1.4888 -0.0109
  558MOL0     H75314  11.170   2.521  10.909 -0.3514  1.1779 -0.4508
  558MOL0     H75315  11.366   2.472  10.764 -0.7578  1.7227  1.6479
  558MOL0     H75316   9.829   2.018   9.844 -1.2041  0.2418  1.0242
  558MOL0     H75317   9.612   2.025   9.778  1.9750  0.3906  1.7920
  558MOL0     H75318   9.283   2.057   9.201  0.6671 -0.6861  0.4926
  558MOL0     H75319   9.050   2.000   9.200  0.7302 -1.1401 -0.1825
  558MOL0     H75320   8.832   2.033   9.579 -0.1719  1.3296 -0.0230
  558MOL0     H75321   8.816   2.133   9.432 -2.5018  0.3282 -1.6293
  558MOL0     H75322   8.673   1.890   9.539 -0.8463  0.7504  1.5738
  558MOL0     H75323   8.638   1.944   9.372  1.7659  0.7022 -0.1720
  558MOL0     H75324   8.593   2.172   9.439  0.0032 -0.1479  0.8122
  558MOL0     H75325   8.612   2.135   9.614 -1.6955  2.3268  0.9419
  558MOL0     H75326   8.432   1.963   9.606 -0.5486 -0.1480  0.4263
  558MOL0     H75327   8.394   1.995   9.443 -0.1209  0.9952 -0.9073
  558MOL0     H75328   8.208   2.311   9.669  0.3736  0.5056 -0.5131
  558MOL0     H75329   9.042   1.904   9.605 -1.8117  2.1868 -0.9019
  558MOL0     H75330   9.291   1.971   9.623  1.3969  0.0027 -1.0464
  559MOL0     O75331   3.786   8.667   1.498 -0.2002  0.8447 -0.1766
  559MOL0     C75332   3.848   8.745   1.573  0.1339  0.2067  0.6630
  559MOL0     O75333   3.803   8.852   1.638  0.1183  0.1039  0.7146
  559MOL0     C75334   3.673   8.895   1.605  0.4080  0.3967 -0.1422
  559MOL0     C75335   3.644   9.020   1.554 -0.8241 -0.2979 -0.2968
  559MOL0     C75336   3.510   9.071   1.548 -0.3195  0.5783  0.0964
  559MOL0     C75337   3.400   8.982   1.575 -0.2143 -0.2423 -0.0907
  559MOL0     O75338   3.278   9.048   1.571  0.0049  0.1859  0.0773
  559MOL0     C75339   3.168   8.961   1.572 -0.1025 -0.4766  0.1854
  559MOL0     C75340   3.043   9.045   1.572 -0.2944  0.3434  0.1110
  559MOL0     C75341   3.034   9.119   1.704 -0.7466 -0.0513  0.8976
  559MOL0     C75342   2.904   9.196   1.725 -0.2947  1.0666 -0.5415
  559MOL0     C75343   2.899   9.269   1.857 -0.2380 -0.0389 -0.5080
  559MOL0     C75344   2.904   9.177   1.989  0.0750 -0.3235  0.6730
  559MOL0     C75345   2.795   9.064   2.003 -0.3696  0.7208  0.2928
  559MOL0     C75346   2.795   8.999   2.135 -0.1473  0.0408  1.1222
  559MOL0     N75347   2.666   8.928   2.157  0.8383 -0.0275 -0.0387
  559MOL0     C75348   2.532   8.961   2.156 -0.6774 -0.5302  0.1163
  559MOL0     C75349   2.454   8.854   2.187 -0.1430  1.0932 -0.0012
  559MOL0     C75350   2.303   8.862   2.207 -0.5718 -0.0483 -0.4734
  559MOL0     C75351   2.235   8.729   2.233  0.0993 -0.1027  1.7281
  559MOL0     C75352   2.112   8.732   2.318 -0.5037 -0.4186 -0.6019
  559MOL0     C75353   2.000   8.821   2.264 -0.5727  1.5876 -0.1785
  559MOL0     O75354   1.941   8.756   2.157 -0.1774 -0.1654  0.4285
  559MOL0     C75355   1.838   8.668   2.175  1.0122 -0.1327  0.1019
  559MOL0     C75356   1.739   8.662   2.274  0.3062 -0.2035 -0.1395
  559MOL0     C75357   1.635   8.566   2.278  0.1928  0.2477  0.3150
  559MOL0     C75358   1.537   8.580   2.385  0.2562  0.3436  0.3049
  559MOL0     C75359   1.623   8.472   2.171  0.7810  0.2654 -0.0087
  559MOL0     C75360   1.519   8.364   2.157  0.4080 -0.1629  0.1696
  559MOL0     O75361   1.522   8.287   2.044 -0.0548  0.4384  0.3075
  559MOL0     C75362   1.479   8.156   2.042  0.8104  0.8158 -0.8471
  559MOL0     C75363   1.403   8.122   1.926  0.0453  0.4353 -0.0526
  559MOL0     C75364   1.375   7.986   1.904 -0.7459  0.1352 -0.2948
  559MOL0     C75365   1.409   7.895   2.003 -0.1978  0.4724 -0.9106
  559MOL0     O75366   1.357   7.764   1.993 -0.2238 -0.9556  0.2562
  559MOL0     C75367   1.333   7.710   1.873  0.2058  0.1001  0.4373
  559MOL0     C75368   1.321   7.560   1.883 -1.0613  0.4555  0.1003
  559MOL0     C75369   1.242   7.517   2.004 -0.9998 -0.4290  0.0460
  559MOL0     C75370   1.239   7.357   2.015 -0.1372  0.1834  0.3746
  559MOL0     C75371   1.226   7.308   2.161 -0.5649  0.5484 -0.6948
  559MOL0     C75372   1.240   7.160   2.175  0.1660  1.0276  0.2848
  559MOL0     C75373   1.244   7.117   2.324  0.0915 -0.3129  0.3887
  559MOL0     C75374   1.245   6.971   2.315  0.2047  1.4469  0.1113
  559MOL0    Cl75375   1.081   6.892   2.298  0.0533 -0.0320 -0.2358
  559MOL0     C75376   1.471   7.927   2.123  0.1698 -0.2247  0.2375
  559MOL0     C75377   1.524   8.055   2.134 -0.5606  0.2916 -0.8283
  559MOL0     O75378   1.450   8.336   2.257  0.6108 -0.7862 -0.0728
  559MOL0     C75379   1.723   8.471   2.074 -0.5495 -0.5308 -0.3958
  559MOL0     C75380   1.823   8.572   2.071  0.0290 -1.1261 -0.5775
  559MOL0     N75381   2.544   8.752   2.212 -0.9249  0.2957 -0.6774
  559MOL0     N75382   2.665   8.794   2.185 -0.2923 -0.0516  0.3834
  559MOL0     C75383   3.420   8.860   1.625  0.1117  0.0836  0.2916
  559MOL0     C75384   3.558   8.818   1.644 -0.2905  0.1104 -0.2443
  559MOL0     C75385   3.995   8.702   1.579 -0.0180  0.4968 -0.3170
  559MOL0     C75386   4.084   8.765   1.671 -0.1814  0.3544 -0.6610
  559MOL0     C75387   4.218   8.721   1.681 -0.6535 -1.5579 -0.0311
  559MOL0     C75388   4.261   8.611   1.611  0.5494  1.3365  0.7781
  559MOL0     O75389   4.397   8.579   1.626  0.0391  0.1515 -0.1002
  559MOL0     C75390   4.450   8.446   1.589 -0.1671  0.4265  0.1519
  559MOL0     C75391   4.587   8.429   1.634 -0.1752 -0.6581  1.0612
  559MOL0     C75392   4.656   8.290   1.606  0.2145  0.2210 -0.1460
  559MOL0     C75393   4.768   8.267   1.709 -1.2748 -0.0521 -0.0997
  559MOL0     C75394   4.852   8.153   1.666 -0.6129 -1.1525  0.8894
  559MOL0     C75395   4.925   8.061   1.654 -0.1259 -0.5888  0.4552
  559MOL0     C75396   4.173   8.540   1.522  0.8943  0.0160  0.7621
  559MOL0     C75397   4.047   8.593   1.506  0.4997 -0.2160  0.4047
  559MOL0     H75398   3.732   9.076   1.525  1.3726 -3.3999 -0.1274
  559MOL0     H75399   3.501   9.172   1.508 -1.7456  0.2630 -0.4499
  559MOL0     H75400   3.171   8.899   1.482  1.1659 -1.6398  0.9778
  559MOL0     H75401   3.156   8.893   1.657 -0.8831 -0.4702  0.0924
  559MOL0     H75402   3.053   9.114   1.487  4.2351  1.9770  1.6186
  559MOL0     H75403   2.962   8.975   1.552  2.2228 -3.3136  1.7250
  559MOL0     H75404   3.048   9.051   1.789 -1.4620 -0.3029  0.8143
  559MOL0     H75405   3.107   9.201   1.702  0.4929 -1.1090  1.0017
  559MOL0     H75406   2.886   9.270   1.646 -1.0176  0.2431 -1.1566
  559MOL0     H75407   2.819   9.129   1.711 -0.3319  1.3549 -1.8316
  559MOL0     H75408   2.970   9.349   1.879 -1.4256  0.3310  2.5712
  559MOL0     H75409   2.799   9.313   1.856 -1.4054 -2.5196 -0.7541
  559MOL0     H75410   3.004   9.133   1.983  0.4662  0.5444 -5.1623
  559MOL0     H75411   2.896   9.245   2.074 -1.1990  2.0079 -1.1708
  559MOL0     H75412   2.698   9.109   1.982 -0.0242  1.5234  0.3800
  559MOL0     H75413   2.815   8.981   1.935  4.3676  0.2520  1.8677
  559MOL0     H75414   2.809   9.079   2.208 -0.8242  0.5118  0.7466
  559MOL0     H75415   2.870   8.919   2.145 -2.0263 -1.6801  2.2154
  559MOL0     H75416   2.515   9.066   2.135  0.1243 -0.4041  0.0487
  559MOL0     H75417   2.291   8.913   2.303  3.0880 -1.9707  1.2164
  559MOL0     H75418   2.258   8.925   2.130 -0.3149  2.0294  1.0044
  559MOL0     H75419   2.306   8.652   2.265  3.5515  1.4257 -1.4584
  559MOL0     H75420   2.212   8.676   2.140  2.9295 -2.2936  2.1579
  559MOL0     H75421   2.142   8.769   2.417 -2.2245 -2.2800  0.6913
  559MOL0     H75422   2.067   8.633   2.322 -0.8337 -0.2671 -0.4900
  559MOL0     H75423   2.051   8.911   2.230  2.6397  0.1927  0.5205
  559MOL0     H75424   1.926   8.840   2.343  1.0394  0.2649  1.7485
  559MOL0     H75425   1.743   8.741   2.348 -0.1129  2.7165 -2.9848
  559MOL0     H75426   1.437   8.563   2.345 -0.1530 -1.0191  1.7826
  559MOL0     H75427   1.543   8.493   2.452  4.0172 -1.2377 -1.7992
  559MOL0     H75428   1.541   8.673   2.443 -0.5910  0.7881 -0.3267
  559MOL0     H75429   1.396   8.202   1.853 -1.2452  0.8316  0.4748
  559MOL0     H75430   1.323   7.961   1.812  0.8744  3.0006 -2.1785
  559MOL0     H75431   1.242   7.745   1.824  0.9883  1.0563 -0.3758
  559MOL0     H75432   1.417   7.733   1.807  1.2068 -3.6719  0.1554
  559MOL0     H75433   1.278   7.527   1.788  1.8735 -3.0443 -0.2322
  559MOL0     H75434   1.422   7.519   1.888  0.0918  2.8270 -1.6165
  559MOL0     H75435   1.137   7.550   1.996 -0.2453  2.2930  0.4338
  559MOL0     H75436   1.292   7.550   2.095  2.1597 -1.7153 -1.0966
  559MOL0     H75437   1.164   7.323   1.944  1.3437 -0.2748 -1.0105
  559MOL0     H75438   1.333   7.330   1.966  0.4280  1.0092  0.9654
  559MOL0     H75439   1.125   7.334   2.195 -0.8984  2.0006 -2.6380
  559MOL0     H75440   1.307   7.354   2.217  1.0251 -1.3925 -1.2693
  559MOL0     H75441   1.147   7.123   2.130  1.1788  0.7890 -1.6937
  559MOL0     H75442   1.326   7.126   2.116 -1.8245  0.2995 -2.4198
  559MOL0     H75443   1.164   7.157   2.387 -1.8672 -2.3293 -0.7193
  559MOL0     H75444   1.333   7.163   2.368 -1.3808  3.4155 -0.1424
  559MOL0     H75445   1.286   6.930   2.409 -0.6273  1.0998  0.3305
  559MOL0     H75446   1.317   6.940   2.239 -1.0725 -0.0278 -0.5637
  559MOL0     H75447   1.498   7.841   2.184 -3.2112 -2.6313 -1.3734
  559MOL0     H75448   1.581   8.084   2.222  1.1829 -1.3837 -1.3444
  559MOL0     H75449   1.731   8.399   1.993  1.4159 -0.4447 -0.3322
  559MOL0     H75450   1.897   8.573   1.991 -0.5136  1.2724 -1.1411
  559MOL0     H75451   3.336   8.796   1.651  0.0689 -0.7182 -1.6172
  559MOL0     H75452   3.570   8.720   1.688 -1.4090  0.5214  1.0602
  559MOL0     H75453   4.047   8.845   1.735 -3.8620 -2.3001  0.8841
  559MOL0     H75454   4.287   8.775   1.745 -1.7960  4.5923 -3.1691
  559MOL0     H75455   4.389   8.361   1.619 -2.9431  1.5814 -1.7932
  559MOL0     H75456   4.453   8.451   1.480  2.8288 -2.6988 -0.0772
  559MOL0     H75457   4.584   8.446   1.742  2.4644  0.5577  1.0130
  559MOL0     H75458   4.637   8.517   1.592 -3.5000  0.6673 -0.4580
  559MOL0     H75459   4.697   8.276   1.506  1.7129  0.0890  0.4534
  559MOL0     H75460   4.575   8.221   1.632  1.9236 -1.3754  1.2539
  559MOL0     H75461   4.733   8.253   1.812  0.0703  0.8627  0.5143
  559MOL0     H75462   4.834   8.354   1.718 -0.5803 -0.7473  2.1343
  559MOL0     H75463   4.994   7.978   1.657  1.6171  0.8244  3.0022
  559MOL0     H75464   4.206   8.463   1.453  0.1015 -1.0090  1.4915
  559MOL0     H75465   3.986   8.557   1.423  0.1408  2.6971 -0.7115
  560MOL0     O75466   3.017   5.827   0.001 -0.0790 -0.9780 -0.0987
  560MOL0     C75467   2.973   5.777   0.103 -0.5035  0.2707 -0.8109
  560MOL0     O75468   2.918   5.647   0.113  0.5646 -0.1985  0.5948
  560MOL0     C75469   2.948   5.547   0.034 -0.2646 -0.3542 -0.3720
  560MOL0     C75470   2.850   5.447   0.011 -0.2901 -0.5604  0.3497
  560MOL0     C75471   2.882   5.338  -0.070  0.9241 -0.1670 -0.5560
  560MOL0     C75472   3.005   5.325  -0.134 -0.4359 -0.1297 -0.3738
  560MOL0     O75473   3.034   5.217  -0.220  0.6569  0.1715  0.2850
  560MOL0     C75474   3.099   5.230  -0.350  0.5872 -0.4445  0.5372
  560MOL0     C75475   3.046   5.123  -0.449 -0.5006 -0.6599  0.1132
  560MOL0     C75476   2.918   5.183  -0.511  0.1436 -0.2541 -0.7330
  560MOL0     C75477   2.849   5.075  -0.602  0.0532 -0.5261 -0.3865
  560MOL0     C75478   2.728   5.123  -0.688 -0.7732 -0.5571 -0.0002
  560MOL0     C75479   2.680   4.997  -0.764  0.5029  0.1048  0.0777
  560MOL0     C75480   2.590   4.917  -0.670  0.3120 -0.3411  0.3216
  560MOL0     C75481   2.483   4.829  -0.737  0.3756 -0.1672 -0.4555
  560MOL0     N75482   2.541   4.730  -0.823 -0.5444  0.2089  0.7541
  560MOL0     C75483   2.546   4.743  -0.963  0.5770 -0.1784 -0.5073
  560MOL0     C75484   2.624   4.639  -0.999  0.4471  0.0048  0.1703
  560MOL0     C75485   2.654   4.617  -1.139  0.8977  0.8136 -1.0995
  560MOL0     C75486   2.524   4.590  -1.213 -0.1647  0.3017 -0.4069
  560MOL0     C75487   2.479   4.716  -1.284  0.6378 -0.4424  0.4231
  560MOL0     C75488   2.344   4.705  -1.346 -0.7394  0.3513  0.5139
  560MOL0     O75489   2.237   4.735  -1.255  0.2059  0.1653 -0.4811
  560MOL0     C75490   2.136   4.817  -1.308  0.5428  0.1552  0.1340
  560MOL0     C75491   2.085   4.908  -1.220  0.2103  0.8515 -0.0367
  560MOL0     C75492   1.983   4.991  -1.259  0.4414  0.0367 -0.4109
  560MOL0     C75493   1.923   5.073  -1.153 -0.6534 -0.4127  0.3427
  560MOL0     C75494   1.944   5.000  -1.396 -0.1109 -0.0640 -0.2083
  560MOL0     C75495   1.846   5.091  -1.453 -0.1587  0.3102 -0.2542
  560MOL0     O75496   1.811   5.207  -1.388 -0.8542  0.2858  0.6945
  560MOL0     C75497   1.712   5.286  -1.429  0.1423  0.1650 -0.3305
  560MOL0     C75498   1.728   5.407  -1.483 -0.1497 -1.0736 -0.1689
  560MOL0     C75499   1.614   5.475  -1.535  0.4126 -0.4083  0.0856
  560MOL0     C75500   1.487   5.418  -1.525  0.3868  1.0334  0.5529
  560MOL0     O75501   1.373   5.476  -1.571 -0.5056  0.1746  0.1802
  560MOL0     C75502   1.242   5.413  -1.569  0.0309 -0.4897  0.1885
  560MOL0     C75503   1.138   5.518  -1.609 -0.0298  0.4715 -0.6519
  560MOL0     C75504   1.020   5.470  -1.695 -0.2658  0.3189 -0.1565
  560MOL0     C75505   0.931   5.363  -1.620  0.2901 -0.2578  0.0457
  560MOL0     C75506   0.853   5.278  -1.721  1.0310  0.0203 -0.7185
  560MOL0     C75507   0.760   5.363  -1.810  0.4065  0.4294  0.0551
  560MOL0     C75508   0.626   5.286  -1.840  0.2009 -1.3271  0.8219
  560MOL0     C75509   0.534   5.380  -1.923 -0.7904  0.4312  0.0400
  560MOL0    Cl75510   0.481   5.525  -1.840 -0.4481 -0.1528  0.2623
  560MOL0     C75511   1.473   5.292  -1.462  0.1340  0.7027 -0.0126
  560MOL0     C75512   1.583   5.231  -1.408  0.4156 -0.1854  0.3930
  560MOL0     O75513   1.783   5.051  -1.551 -0.2567 -0.0412  0.3875
  560MOL0     C75514   1.997   4.903  -1.481 -1.3782  0.4328 -0.0557
  560MOL0     C75515   2.094   4.816  -1.440 -0.7405  0.0729  0.0621
  560MOL0     N75516   2.652   4.564  -0.883 -0.3874 -0.1538  0.6746
  560MOL0     N75517   2.619   4.632  -0.774 -0.0337  0.3119 -0.0907
  560MOL0     C75518   3.095   5.429  -0.125 -0.1442  0.3776  0.0328
  560MOL0     C75519   3.071   5.533  -0.036 -0.1886  0.1282  0.2188
  560MOL0     C75520   2.974   5.869   0.218  0.8382 -1.1689  0.2769
  560MOL0     C75521   2.881   5.838   0.322 -0.3593 -0.2868 -0.4908
  560MOL0     C75522   2.875   5.912   0.444 -0.2383  0.1492  0.0336
  560MOL0     C75523   2.947   6.035   0.451  0.3985  0.6993  0.3290
  560MOL0     O75524   2.926   6.105   0.569 -0.0627  0.5340  0.0862
  560MOL0     C75525   3.006   6.220   0.588  0.0310 -0.1165 -0.0323
  560MOL0     C75526   2.968   6.306   0.720 -0.2831  0.4406  1.2678
  560MOL0     C75527   2.848   6.397   0.700  0.5011  0.2172  0.0393
  560MOL0     C75528   2.798   6.461   0.830 -0.6851  0.2570  0.6191
  560MOL0     C75529   2.867   6.588   0.866  1.5049  0.8607 -0.3343
  560MOL0     C75530   2.909   6.700   0.884 -0.3086  0.8689  0.7141
  560MOL0     C75531   3.035   6.069   0.350 -0.2310  1.0639  0.4627
  560MOL0     C75532   3.051   5.986   0.233 -0.8354  0.0555 -0.9444
  560MOL0     H75533   2.751   5.440   0.055  0.2578 -2.0380  1.4529
  560MOL0     H75534   2.822   5.248  -0.083  2.1278 -0.9692 -0.6779
  560MOL0     H75535   3.079   5.329  -0.392  0.8710 -0.2172  0.9243
  560MOL0     H75536   3.208   5.224  -0.335  0.7219  2.1174  1.1042
  560MOL0     H75537   3.119   5.101  -0.527 -2.0254 -1.4407 -1.1694
  560MOL0     H75538   3.026   5.024  -0.407  0.6740 -0.2972  1.6017
  560MOL0     H75539   2.851   5.203  -0.427 -0.5513 -2.3624 -0.7408
  560MOL0     H75540   2.939   5.281  -0.555 -1.6469  0.1165 -0.8089
  560MOL0     H75541   2.917   5.037  -0.678  3.2146  0.3920  1.7580
  560MOL0     H75542   2.816   4.998  -0.532 -2.0011  0.4178 -0.2273
  560MOL0     H75543   2.651   5.177  -0.633 -0.4965  0.1489 -0.3032
  560MOL0     H75544   2.776   5.191  -0.758 -0.7172  1.5650  1.9760
  560MOL0     H75545   2.642   5.017  -0.865  2.0349  2.5937 -0.0648
  560MOL0     H75546   2.774   4.943  -0.781  1.7544  2.4692 -0.9933
  560MOL0     H75547   2.657   4.844  -0.622  0.1274 -1.3399 -0.8849
  560MOL0     H75548   2.552   4.988  -0.596  1.1229  1.8822 -1.2794
  560MOL0     H75549   2.409   4.889  -0.792 -0.5250 -0.4736  0.4007
  560MOL0     H75550   2.426   4.781  -0.657  0.1553 -0.0293 -0.5267
  560MOL0     H75551   2.518   4.819  -1.035  3.2298  0.8431 -0.5815
  560MOL0     H75552   2.706   4.701  -1.184  0.7819  3.1387  2.6684
  560MOL0     H75553   2.727   4.535  -1.143 -2.2667 -2.6848  2.7922
  560MOL0     H75554   2.444   4.559  -1.146 -0.1840  1.4083  0.1125
  560MOL0     H75555   2.539   4.508  -1.283 -0.4768  0.8085 -1.0783
  560MOL0     H75556   2.544   4.744  -1.368  0.2300  0.2447  0.3316
  560MOL0     H75557   2.486   4.800  -1.214 -3.0871  0.7111 -0.3698
  560MOL0     H75558   2.321   4.607  -1.389  1.2209  0.6846 -1.4837
  560MOL0     H75559   2.338   4.773  -1.431 -4.1210 -1.1224 -0.5658
  560MOL0     H75560   2.118   4.913  -1.117  4.8198  0.7640 -1.3090
  560MOL0     H75561   1.977   5.055  -1.059  3.9786  3.7293 -1.0816
  560MOL0     H75562   1.936   5.179  -1.176 -2.0519 -0.1569  0.6240
  560MOL0     H75563   1.816   5.051  -1.142 -0.7514 -0.2182 -0.1991
  560MOL0     H75564   1.820   5.463  -1.492 -0.4640  0.0357  2.4903
  560MOL0     H75565   1.624   5.567  -1.591  0.6817  0.1838  1.0666
  560MOL0     H75566   1.235   5.327  -1.637  0.4912 -3.0893  3.1581
  560MOL0     H75567   1.215   5.368  -1.473  0.2496 -1.6812 -0.2899
  560MOL0     H75568   1.097   5.557  -1.516  1.0429  1.6900 -0.6660
  560MOL0     H75569   1.186   5.604  -1.656 -1.2873  1.8379  0.4628
  560MOL0     H75570   1.062   5.423  -1.784  2.2150  1.6979  0.1701
  560MOL0     H75571   0.958   5.558  -1.714  1.3225  1.2400 -1.3406
  560MOL0     H75572   0.995   5.299  -1.558 -1.2733 -1.2940  0.6705
  560MOL0     H75573   0.861   5.409  -1.549 -1.6604 -1.6041 -0.8920
  560MOL0     H75574   0.793   5.199  -1.674  0.0127  1.2170  0.0679
  560MOL0     H75575   0.920   5.221  -1.785  1.3257 -0.4716  0.0136
  560MOL0     H75576   0.745   5.454  -1.751  2.0013  1.8907 -1.6752
  560MOL0     H75577   0.816   5.390  -1.900  0.8528  1.5660  0.6608
  560MOL0     H75578   0.576   5.254  -1.748 -2.9561  0.8954  0.0414
  560MOL0     H75579   0.637   5.189  -1.889  2.6469 -0.1718 -1.1647
  560MOL0     H75580   0.457   5.313  -1.961  0.1481 -0.0789 -1.0593
  560MOL0     H75581   0.605   5.400  -2.004  2.2624 -0.8941  2.1799
  560MOL0     H75582   1.375   5.248  -1.450  1.0628 -1.5083 -0.0992
  560MOL0     H75583   1.570   5.139  -1.354 -0.3658  0.5473  1.4984
  560MOL0     H75584   1.974   4.894  -1.587 -0.4678 -1.2937 -0.1316
  560MOL0     H75585   2.142   4.745  -1.506  2.8528  1.9097  0.4355
  560MOL0     H75586   3.180   5.446  -0.190 -0.3503  3.0111  0.3291
  560MOL0     H75587   3.144   5.613  -0.026 -0.8205  0.7608 -0.1178
  560MOL0     H75588   2.833   5.741   0.318 -1.0207 -0.1016  1.5396
  560MOL0     H75589   2.822   5.883   0.534 -1.1777  2.3561  0.2393
  560MOL0     H75590   3.106   6.178   0.603 -0.6006 -2.4184 -1.7062
  560MOL0     H75591   2.997   6.287   0.502 -1.3744 -2.0526 -1.5061
  560MOL0     H75592   3.056   6.359   0.758 -0.1490 -0.0964  1.7268
  560MOL0     H75593   2.936   6.234   0.796  0.0718  0.1985  1.1889
  560MOL0     H75594   2.766   6.340   0.657 -1.2010  2.1243  0.6265
  560MOL0     H75595   2.870   6.483   0.636 -0.6975  0.6214  0.1545
  560MOL0     H75596   2.795   6.383   0.907 -1.0426 -0.8505 -0.4839
  560MOL0     H75597   2.698   6.505   0.817  0.5312  2.6026 -1.4245
  560MOL0     H75598   2.938   6.800   0.909  1.7225  0.4548  0.2086
  560MOL0     H75599   3.095   6.159   0.360  1.3534  0.0068  0.8596
  560MOL0     H75600   3.115   6.022   0.154  1.1380 -1.1886 -0.0016
  561MOL0     O75601   6.643  11.062   5.486  0.0978 -0.1225 -0.2199
  561MOL0     C75602   6.646  10.941   5.462  0.2834 -0.5887  1.0991
  561MOL0     O75603   6.539  10.865   5.418  0.1329  0.0727  0.5880
  561MOL0     C75604   6.421  10.917   5.404 -0.1855  0.4270 -0.5948
  561MOL0     C75605   6.339  10.874   5.300  0.0517 -0.3059  0.4398
  561MOL0     C75606   6.206  10.908   5.295  0.0063 -0.6042  0.0106
  561MOL0     C75607   6.157  10.999   5.393  0.5488  0.4541 -0.0322
  561MOL0     O75608   6.027  11.045   5.393  1.2195  0.1827  0.0048
  561MOL0     C75609   5.939  10.958   5.467 -0.1163  0.4413  0.6009
  561MOL0     C75610   5.796  11.001   5.432  0.6279 -0.4949 -0.1985
  561MOL0     C75611   5.752  11.125   5.512  0.3896  0.2718 -1.0394
  561MOL0     C75612   5.670  11.071   5.633  0.1803 -0.0515 -0.1759
  561MOL0     C75613   5.589  11.173   5.709  0.0678  0.4102  1.0594
  561MOL0     C75614   5.673  11.283   5.781 -0.8616  0.2717  0.4986
  561MOL0     C75615   5.599  11.398   5.842  0.2410  0.0435  1.2395
  561MOL0     C75616   5.504  11.356   5.952 -0.9658  0.0328 -0.1502
  561MOL0     N75617   5.422  11.466   6.006 -0.7108 -0.0686 -0.0285
  561MOL0     C75618   5.484  11.563   6.087  0.9577 -0.5306 -0.3348
  561MOL0     C75619   5.388  11.663   6.094 -0.2023 -0.2021  0.7556
  561MOL0     C75620   5.397  11.780   6.192  0.6025  0.2125  0.6738
  561MOL0     C75621   5.286  11.777   6.301  0.0570 -0.5509  0.4819
  561MOL0     C75622   5.320  11.880   6.416 -0.1787  0.6562  0.4274
  561MOL0     C75623   5.189  11.940   6.465  0.1171  0.2881 -0.1405
  561MOL0     O75624   5.123  11.837   6.542 -0.0617 -0.4541 -0.8434
  561MOL0     C75625   5.000  11.875   6.579  0.5966  0.9546  0.1549
  561MOL0     C75626   4.896  11.849   6.488 -0.4486 -0.1792  0.5765
  561MOL0     C75627   4.765  11.888   6.512  0.0722 -0.8346 -0.2984
  561MOL0     C75628   4.668  11.867   6.408 -0.5774  0.6105  0.1555
  561MOL0     C75629   4.735  11.959   6.634  0.1843 -0.3500  0.2939
  561MOL0     C75630   4.611  12.028   6.662  0.3158  0.6183 -0.3323
  561MOL0     O75631   4.582  12.049   6.798 -0.2838  0.4042 -0.1201
  561MOL0     C75632   4.462  12.093   6.855 -0.0230  1.1334 -0.5893
  561MOL0     C75633   4.462  12.143   6.985 -0.3088  0.1889 -0.1351
  561MOL0     C75634   4.345  12.191   7.044 -0.3206 -0.2883 -0.3103
  561MOL0     C75635   4.221  12.171   6.982  0.6011 -0.0733 -0.4605
  561MOL0     O75636   4.107  12.212   7.056 -0.6797 -0.0313  0.4523
  561MOL0     C75637   3.986  12.257   6.997  0.8184  0.3520 -0.2675
  561MOL0     C75638   3.908  12.323   7.118  0.2750  0.2662  0.1517
  561MOL0     C75639   3.860  12.231   7.221 -0.2079  0.6373  0.5150
  561MOL0     C75640   3.771  12.291   7.335  0.7521  0.0544 -0.5886
  561MOL0     C75641   3.683  12.185   7.398  0.4521 -0.4664  0.1111
  561MOL0     C75642   3.762  12.092   7.483  0.0013 -0.7126 -0.4479
  561MOL0     C75643   3.701  11.949   7.479 -0.6448 -0.6120 -0.6344
  561MOL0     C75644   3.574  11.927   7.563  0.7503 -1.0442 -0.0638
  561MOL0    Cl75645   3.614  11.865   7.729 -0.2345 -0.0016  0.1305
  561MOL0     C75646   4.212  12.108   6.857 -0.0162 -0.2989 -0.8204
  561MOL0     C75647   4.335  12.074   6.793 -0.3872 -0.4955  0.5190
  561MOL0     O75648   4.535  12.065   6.571 -0.0149  0.6902  0.0974
  561MOL0     C75649   4.841  11.976   6.725 -0.4677  0.2998 -0.0552
  561MOL0     C75650   4.973  11.947   6.692 -0.2739  0.2328 -1.1461
  561MOL0     N75651   5.287  11.618   6.007  0.5095  0.1198  0.0772
  561MOL0     N75652   5.299  11.502   5.965  0.0688  0.9429 -0.6384
  561MOL0     C75653   6.241  11.038   5.497 -0.4668 -0.2874 -0.2929
  561MOL0     C75654   6.367  10.995   5.511 -0.7296  0.4965 -0.6329
  561MOL0     C75655   6.777  10.869   5.480 -0.0701 -0.6273  0.6943
  561MOL0     C75656   6.898  10.947   5.502 -0.3053 -0.3540  0.3925
  561MOL0     C75657   7.021  10.881   5.530  0.2987 -0.2997  0.1548
  561MOL0     C75658   7.031  10.740   5.519 -0.0989 -0.7478  0.2483
  561MOL0     O75659   7.156  10.670   5.543  0.1189  0.0495  0.7356
  561MOL0     C75660   7.279  10.737   5.560  0.2442 -0.7883  0.0164
  561MOL0     C75661   7.399  10.642   5.560  0.6593  0.3120 -0.1473
  561MOL0     C75662   7.402  10.555   5.686  0.4390  0.7509  0.1367
  561MOL0     C75663   7.461  10.421   5.668  0.7566  0.8202 -0.4414
  561MOL0     C75664   7.376  10.338   5.576 -0.0541  0.7038 -0.1285
  561MOL0     C75665   7.306  10.283   5.498 -0.8944 -0.3648 -0.2472
  561MOL0     C75666   6.916  10.665   5.488  0.3894 -0.2971  0.6962
  561MOL0     C75667   6.789  10.724   5.470  0.4131 -0.1181  0.0370
  561MOL0     H75668   6.372  10.805   5.223 -1.9111  0.4627 -1.1731
  561MOL0     H75669   6.139  10.859   5.226 -0.3839 -0.2563  0.1361
  561MOL0     H75670   5.947  10.853   5.438  0.7324  0.7236 -0.2481
  561MOL0     H75671   5.959  10.971   5.573 -2.4944  3.9425  0.8107
  561MOL0     H75672   5.798  11.043   5.331  1.3975  0.1913  0.0897
  561MOL0     H75673   5.724  10.919   5.438  2.7263 -2.5646 -1.4326
  561MOL0     H75674   5.837  11.173   5.561 -1.8733  2.6597  0.8690
  561MOL0     H75675   5.693  11.190   5.446 -1.3412 -0.4596 -0.2790
  561MOL0     H75676   5.601  11.004   5.579  0.0969  0.2333 -0.4263
  561MOL0     H75677   5.736  11.018   5.702  2.3301  5.0060  2.1135
  561MOL0     H75678   5.530  11.225   5.633  2.7138  2.9170  0.5775
  561MOL0     H75679   5.524  11.116   5.777 -1.1699 -1.9066 -1.8776
  561MOL0     H75680   5.728  11.231   5.859  2.6448  0.3232 -1.7302
  561MOL0     H75681   5.742  11.331   5.711 -0.7775  0.4530  0.7063
  561MOL0     H75682   5.669  11.470   5.887  1.2605  0.7727 -1.3435
  561MOL0     H75683   5.544  11.458   5.770  2.2282  1.0613  0.4813
  561MOL0     H75684   5.561  11.301   6.028 -2.6595 -0.8720  0.5046
  561MOL0     H75685   5.433  11.288   5.905 -0.9077 -0.3350  0.2847
  561MOL0     H75686   5.583  11.575   6.128  0.6129  0.2906  0.2913
  561MOL0     H75687   5.493  11.783   6.243 -0.3698  1.4514  2.5486
  561MOL0     H75688   5.389  11.872   6.132  3.0376  0.2970  0.4034
  561MOL0     H75689   5.283  11.673   6.332  1.1098  0.1439  3.1630
  561MOL0     H75690   5.191  11.804   6.253  0.2222 -1.6738 -0.5073
  561MOL0     H75691   5.384  11.963   6.385  0.8675 -0.0208  0.7064
  561MOL0     H75692   5.385  11.832   6.489  2.3256  0.3413 -1.8709
  561MOL0     H75693   5.119  11.976   6.390 -2.1671 -0.5738  1.4591
  561MOL0     H75694   5.222  12.028   6.522 -0.5606  0.5970 -0.2196
  561MOL0     H75695   4.921  11.794   6.398  1.2529 -0.6867  1.3171
  561MOL0     H75696   4.658  11.960   6.351 -2.2550 -0.3949 -1.2586
  561MOL0     H75697   4.697  11.790   6.337  0.1821  0.2614  0.8387
  561MOL0     H75698   4.569  11.835   6.443 -0.9644  1.0556 -0.5148
  561MOL0     H75699   4.557  12.154   7.035 -0.0337 -1.7570 -0.1474
  561MOL0     H75700   4.367  12.234   7.141 -2.2029 -1.1506  0.5410
  561MOL0     H75701   3.988  12.323   6.910  0.3475  0.7905  0.0440
  561MOL0     H75702   3.930  12.172   6.956 -0.5955  1.9964 -1.9378
  561MOL0     H75703   3.983  12.384   7.168 -0.1167  0.0063  1.0749
  561MOL0     H75704   3.825  12.380   7.075 -0.8662 -0.0162  1.8923
  561MOL0     H75705   3.946  12.184   7.271  1.1753 -0.2628 -2.4800
  561MOL0     H75706   3.790  12.161   7.174 -1.8018  1.0406  2.1977
  561MOL0     H75707   3.826  12.345   7.413 -1.1885  0.1079  0.7936
  561MOL0     H75708   3.699  12.359   7.288 -0.3379 -1.2735 -0.8978
  561MOL0     H75709   3.622  12.138   7.321 -0.7826  1.0148  0.1313
  561MOL0     H75710   3.621  12.239   7.471  1.1569 -4.6900  4.3106
  561MOL0     H75711   3.863  12.087   7.440 -0.3038 -1.1574 -1.1384
  561MOL0     H75712   3.778  12.120   7.587  1.3153 -1.7220 -0.3469
  561MOL0     H75713   3.775  11.876   7.513  0.7745  1.7250  1.7055
  561MOL0     H75714   3.676  11.925   7.375 -2.5404  0.9871 -0.6091
  561MOL0     H75715   3.495  11.870   7.513 -0.5798 -0.0361  0.8023
  561MOL0     H75716   3.516  12.020   7.563 -2.1766 -2.7720 -0.4139
  561MOL0     H75717   4.114  12.084   6.817 -0.4749 -1.6780  1.0033
  561MOL0     H75718   4.341  12.032   6.693 -0.2499 -0.7775  0.6451
  561MOL0     H75719   4.823  12.026   6.820 -0.9801 -0.5696  0.3221
  561MOL0     H75720   5.059  11.955   6.759 -0.3983  3.2439 -1.2298
  561MOL0     H75721   6.205  11.107   5.572  2.6801  0.7564  0.3833
  561MOL0     H75722   6.423  11.041   5.591 -2.4129 -0.1861  0.9954
  561MOL0     H75723   6.904  11.056   5.504  5.5675 -0.3598  2.2355
  561MOL0     H75724   7.105  10.948   5.546  0.3763 -0.2300 -0.5022
  561MOL0     H75725   7.298  10.807   5.478  3.2947  1.2810  2.2439
  561MOL0     H75726   7.272  10.801   5.649  2.0887  0.7230 -0.8582
  561MOL0     H75727   7.489  10.705   5.566  1.5804 -1.0564  2.9385
  561MOL0     H75728   7.404  10.580   5.470 -0.1773 -0.0295  0.0380
  561MOL0     H75729   7.309  10.531   5.738  1.6767 -1.7890  1.3507
  561MOL0     H75730   7.463  10.614   5.755  0.8653  2.0951 -1.3391
  561MOL0     H75731   7.461  10.378   5.769  1.3559  2.3321  0.2277
  561MOL0     H75732   7.562  10.421   5.627 -0.8454 -0.6011 -4.9650
  561MOL0     H75733   7.235  10.227   5.441 -0.1695  0.3688 -1.9284
  561MOL0     H75734   6.926  10.557   5.483 -0.9431 -0.6061  3.2016
  561MOL0     H75735   6.705  10.657   5.454  1.8171 -2.3590  1.4808
  562MOL0     O75736   0.572   9.476   5.201  0.8577  0.5586  0.3228
  562MOL0     C75737   0.534   9.376   5.137 -1.1963 -0.6603 -0.3271
  562MOL0     O75738   0.544   9.250   5.197  0.3635 -1.0416  0.3294
  562MOL0     C75739   0.575   9.245   5.332  0.4198 -0.4525  0.1319
  562MOL0     C75740   0.480   9.189   5.412 -0.7546 -0.3247  0.0029
  562MOL0     C75741   0.494   9.187   5.550 -0.4317  0.7773 -0.1987
  562MOL0     C75742   0.616   9.206   5.603 -0.6331  0.2475 -0.0293
  562MOL0     O75743   0.624   9.198   5.738 -0.2038  0.6764  0.3183
  562MOL0     C75744   0.724   9.285   5.802 -0.6432  0.9938 -0.4281
  562MOL0     C75745   0.697   9.434   5.794  0.0332  1.2216  0.0024
  562MOL0     C75746   0.789   9.517   5.884  0.7374  0.6034  0.1142
  562MOL0     C75747   0.739   9.658   5.894 -0.0426 -0.5101  0.3551
  562MOL0     C75748   0.832   9.734   5.994 -0.6556 -0.8191  0.2341
  562MOL0     C75749   0.785   9.722   6.139 -0.3343 -0.8006 -0.1257
  562MOL0     C75750   0.872   9.810   6.227 -0.3396  0.0275  1.1686
  562MOL0     C75751   0.827   9.792   6.371 -0.2052 -0.3225  0.0761
  562MOL0     N75752   0.931   9.842   6.458  0.0723  0.9774  0.0578
  562MOL0     C75753   1.046   9.779   6.480 -0.2062 -0.5073  0.1186
  562MOL0     C75754   1.120   9.863   6.560 -0.1671 -0.3309 -0.4183
  562MOL0     C75755   1.258   9.854   6.619 -0.4499  0.3093 -0.8310
  562MOL0     C75756   1.373   9.895   6.535 -0.5684 -0.5400  0.3758
  562MOL0     C75757   1.363  10.043   6.507  0.2793 -0.4590 -0.1795
  562MOL0     C75758   1.369  10.127   6.631  0.0383  0.0561 -0.5427
  562MOL0     O75759   1.483  10.095   6.710  0.0803 -0.0016  0.3764
  562MOL0     C75760   1.534  10.197   6.788 -0.1656 -0.5834  0.2345
  562MOL0     C75761   1.676  10.215   6.782  1.1358 -0.6768  0.7077
  562MOL0     C75762   1.729  10.323   6.843 -0.6000 -0.1086  0.1186
  562MOL0     C75763   1.876  10.350   6.828 -1.0226  0.0008 -0.3471
  562MOL0     C75764   1.651  10.401   6.929  0.3157 -0.0664  1.6245
  562MOL0     C75765   1.715  10.507   7.005 -0.6809  0.8058  0.5757
  562MOL0     O75766   1.807  10.474   7.106 -0.0830  0.2657 -0.5530
  562MOL0     C75767   1.820  10.338   7.141  0.4777 -0.4524 -0.0645
  562MOL0     C75768   1.943  10.295   7.176 -0.8153 -0.4528  0.4078
  562MOL0     C75769   1.963  10.162   7.231  0.7227  0.1972 -0.3973
  562MOL0     C75770   1.855  10.086   7.273  0.2148 -0.2595 -0.0088
  562MOL0     O75771   1.888   9.962   7.312  0.2854  0.0632  0.3023
  562MOL0     C75772   1.797   9.879   7.375  0.0958 -0.5850 -0.0648
  562MOL0     C75773   1.863   9.746   7.403 -0.5410  0.5827 -0.2806
  562MOL0     C75774   1.980   9.758   7.498 -0.9751 -0.2354 -0.3863
  562MOL0     C75775   1.929   9.757   7.649 -0.0013 -0.2739 -0.2744
  562MOL0     C75776   2.033   9.726   7.761  0.0340 -0.5021  0.3481
  562MOL0     C75777   2.167   9.797   7.736  0.4317  0.7734  0.0705
  562MOL0     C75778   2.267   9.763   7.842 -0.2387  0.0340 -0.5328
  562MOL0     C75779   2.333   9.628   7.800 -0.0637 -0.1482 -0.2942
  562MOL0    Cl75780   2.477   9.621   7.897 -0.3161  0.0303 -0.1833
  562MOL0     C75781   1.730  10.133   7.248  0.5833  0.7573  0.1713
  562MOL0     C75782   1.711  10.255   7.181  0.5204  0.5847  0.4756
  562MOL0     O75783   1.682  10.621   6.974 -0.4037 -0.3490  0.7281
  562MOL0     C75784   1.510  10.395   6.921 -0.3720 -0.7689 -0.7820
  562MOL0     C75785   1.451  10.288   6.851  0.2477  0.2444 -1.6365
  562MOL0     N75786   1.053   9.981   6.562 -0.5716  0.4999  0.3770
  562MOL0     N75787   0.945   9.966   6.512  0.1575 -0.4833  0.6999
  562MOL0     C75788   0.724   9.235   5.516 -0.2939 -0.1832 -0.8807
  562MOL0     C75789   0.703   9.257   5.379 -0.0804  0.0888 -0.5274
  562MOL0     C75790   0.493   9.397   4.997  0.9039  0.6317 -1.1442
  562MOL0     C75791   0.441   9.280   4.929  0.8025 -0.2132  0.3088
  562MOL0     C75792   0.393   9.296   4.794 -0.2721  0.0323  0.0078
  562MOL0     C75793   0.393   9.422   4.730 -0.5490  1.0354 -0.8024
  562MOL0     O75794   0.363   9.432   4.599 -0.1035  0.2788 -0.0133
  562MOL0     C75795   0.277   9.340   4.536  0.8200 -0.0219  0.9477
  562MOL0     C75796   0.219   9.389   4.394 -0.2505 -0.3378  0.5026
  562MOL0     C75797   0.180   9.539   4.417  1.6298  0.1956 -0.2731
  562MOL0     C75798   0.070   9.583   4.316 -0.5188  0.0475  0.7257
  562MOL0     C75799   0.108   9.557   4.170  0.0384 -0.1714  0.3743
  562MOL0     C75800   0.139   9.517   4.061 -0.7573 -0.0214  0.3599
  562MOL0     C75801   0.448   9.535   4.805  0.5493  0.0283 -0.7839
  562MOL0     C75802   0.503   9.517   4.935 -0.0370 -0.3473  0.1766
  562MOL0     H75803   0.391   9.151   5.362  0.9969 -3.0892 -1.2888
  562MOL0     H75804   0.419   9.151   5.620  1.2367  0.6096  1.5607
  562MOL0     H75805   0.716   9.254   5.907 -2.4827  1.8864 -0.2647
  562MOL0     H75806   0.826   9.274   5.762 -0.5056  0.7416 -0.0126
  562MOL0     H75807   0.703   9.460   5.688  2.6970 -1.6882 -0.7115
  562MOL0     H75808   0.589   9.445   5.807 -0.5958 -3.1124 -0.1155
  562MOL0     H75809   0.802   9.479   5.986  2.5549 -1.9976 -0.9616
  562MOL0     H75810   0.886   9.515   5.834  0.2819  2.0387 -0.8960
  562MOL0     H75811   0.764   9.701   5.796  0.2683 -0.6826  0.3596
  562MOL0     H75812   0.631   9.655   5.915  0.1113 -2.1995  1.0118
  562MOL0     H75813   0.933   9.692   5.990  0.1074  0.9895 -2.0594
  562MOL0     H75814   0.848   9.839   5.966 -0.0172 -1.2325 -0.9923
  562MOL0     H75815   0.685   9.766   6.133  0.4787  1.3880  1.1309
  562MOL0     H75816   0.774   9.619   6.175 -0.0306 -1.0869 -0.8479
  562MOL0     H75817   0.978   9.784   6.217 -0.6818 -0.4882 -2.0049
  562MOL0     H75818   0.858   9.915   6.198 -0.7237 -0.3317 -0.0111
  562MOL0     H75819   0.808   9.685   6.376  0.8098 -0.5394 -0.4425
  562MOL0     H75820   0.728   9.836   6.387 -0.4428 -0.6236 -0.5665
  562MOL0     H75821   1.078   9.689   6.429 -0.7391 -1.2669  1.0837
  562MOL0     H75822   1.256   9.901   6.718  1.2004  0.6250 -0.9172
  562MOL0     H75823   1.283   9.750   6.641 -0.9772  0.5175  0.9161
  562MOL0     H75824   1.369   9.849   6.436  1.9171 -2.5780  1.1318
  562MOL0     H75825   1.471   9.862   6.572 -0.0597  0.4127 -0.0868
  562MOL0     H75826   1.266  10.059   6.459 -0.1737  3.3404  1.5733
  562MOL0     H75827   1.435  10.068   6.429  0.4595  2.3302  0.7774
  562MOL0     H75828   1.285  10.109   6.698 -1.5295 -0.6348 -2.5813
  562MOL0     H75829   1.371  10.232   6.599  3.1980 -0.0910 -1.1368
  562MOL0     H75830   1.736  10.165   6.707 -1.5181 -2.2271 -0.5462
  562MOL0     H75831   1.905  10.450   6.862 -0.8175 -0.0718 -0.3045
  562MOL0     H75832   1.938  10.282   6.888  0.1226  0.6514 -0.7644
  562MOL0     H75833   1.896  10.340   6.721  0.4606 -2.7379  0.0905
  562MOL0     H75834   2.033  10.351   7.151 -0.6589 -0.9523 -0.1413
  562MOL0     H75835   2.064  10.138   7.264  0.3044  0.4018  1.1439
  562MOL0     H75836   1.751   9.919   7.465 -3.0674  1.0056 -2.1877
  562MOL0     H75837   1.710   9.853   7.314 -0.8432 -0.5257  1.2235
  562MOL0     H75838   1.797   9.666   7.436  2.0048 -1.9873 -1.0549
  562MOL0     H75839   1.910   9.712   7.310  0.8667 -3.0129  1.5677
  562MOL0     H75840   2.032   9.851   7.476 -0.3284 -0.2602  0.9405
  562MOL0     H75841   2.051   9.678   7.476 -1.3092 -0.5468 -0.3499
  562MOL0     H75842   1.877   9.852   7.660 -0.7361  0.2271 -5.5594
  562MOL0     H75843   1.855   9.677   7.660  1.0672 -1.0155  2.1786
  562MOL0     H75844   2.063   9.621   7.753  2.9691  0.3968 -3.3597
  562MOL0     H75845   1.985   9.750   7.856  0.3302  3.4309 -0.3359
  562MOL0     H75846   2.216   9.769   7.643 -0.7354  0.6178 -0.5134
  562MOL0     H75847   2.144   9.904   7.728 -2.7290  0.2215  0.3632
  562MOL0     H75848   2.216   9.766   7.939  1.9878  2.1032  0.6621
  562MOL0     H75849   2.345   9.839   7.850  0.4330 -0.7787  1.2570
  562MOL0     H75850   2.365   9.623   7.696  1.4127 -0.1053  0.1361
  562MOL0     H75851   2.268   9.541   7.819 -1.2515  0.3776 -1.8289
  562MOL0     H75852   1.631  10.095   7.274  1.4156 -1.0505  0.8492
  562MOL0     H75853   1.609  10.283   7.156 -0.0637 -0.8017  1.2004
  562MOL0     H75854   1.450  10.460   6.983  0.7846 -1.8908  1.6588
  562MOL0     H75855   1.348  10.254   6.863  0.9844 -1.0989  2.6748
  562MOL0     H75856   0.828   9.235   5.549 -0.4862  0.9351 -0.2275
  562MOL0     H75857   0.784   9.298   5.320  1.0908 -2.7527 -1.0432
  562MOL0     H75858   0.433   9.182   4.975 -3.8589 -1.7469 -2.9334
  562MOL0     H75859   0.354   9.206   4.748 -2.5079  1.3290 -0.8040
  562MOL0     H75860   0.339   9.250   4.531 -0.5197 -0.9424  0.4664
  562MOL0     H75861   0.199   9.305   4.604 -0.1984  0.5915  0.1210
  562MOL0     H75862   0.134   9.326   4.365  0.8500 -2.1606  1.0596
  562MOL0     H75863   0.290   9.383   4.311 -1.0001 -1.1956 -0.0928
  562MOL0     H75864   0.263   9.606   4.395 -0.4561  2.8042 -0.7263
  562MOL0     H75865   0.138   9.550   4.518  1.4187 -1.5666 -0.1274
  562MOL0     H75866   0.032   9.686   4.322  0.7314  0.7355 -1.8356
  562MOL0     H75867  -0.025   9.531   4.332 -1.7233  1.8631 -0.1573
  562MOL0     H75868   0.180   9.514   3.962  2.7057 -2.5828  1.6871
  562MOL0     H75869   0.450   9.635   4.762 -2.2097  1.6829  2.4962
  562MOL0     H75870   0.556   9.593   4.991 -0.7490 -1.5074  2.5156
  563MOL0     O75871   5.798   9.417   4.648  0.5385  0.2131 -0.0533
  563MOL0     C75872   5.756   9.313   4.702 -0.2391 -0.7947  0.0674
  563MOL0     O75873   5.779   9.271   4.824 -0.4728 -1.0811  0.5136
  563MOL0     C75874   5.849   9.347   4.903  0.5130  0.3663 -0.4509
  563MOL0     C75875   5.792   9.463   4.968 -0.1237  0.6443  0.2821
  563MOL0     C75876   5.859   9.543   5.055 -0.1119  0.3858  0.8178
  563MOL0     C75877   5.984   9.506   5.092 -0.2338  0.3631 -0.2987
  563MOL0     O75878   6.029   9.587   5.186 -0.3238 -0.4377 -0.5086
  563MOL0     C75879   6.165   9.576   5.216  0.4063 -0.1189 -0.1765
  563MOL0     C75880   6.210   9.716   5.266  0.3435 -0.3039 -0.2574
  563MOL0     C75881   6.358   9.710   5.323  0.7577 -0.3177  0.3930
  563MOL0     C75882   6.388   9.848   5.383  0.0152 -0.5607 -0.6605
  563MOL0     C75883   6.325   9.889   5.514  0.7807 -0.4487 -0.1235
  563MOL0     C75884   6.381   9.838   5.654 -1.1278  0.0846 -0.8377
  563MOL0     C75885   6.371   9.689   5.663 -0.0033  0.1929  0.2475
  563MOL0     C75886   6.397   9.659   5.811 -0.4785 -0.4609  0.0839
  563MOL0     N75887   6.271   9.659   5.882 -0.0709 -0.2285  0.1940
  563MOL0     C75888   6.164   9.584   5.853  0.1396 -0.6264  0.7486
  563MOL0     C75889   6.072   9.628   5.938  0.0415  0.6484 -0.2112
  563MOL0     C75890   5.936   9.577   5.970 -0.8694 -0.1139  0.4628
  563MOL0     C75891   5.860   9.514   5.853 -0.2951 -0.1908  0.5383
  563MOL0     C75892   5.721   9.464   5.899 -0.0857  0.8662  0.2002
  563MOL0     C75893   5.713   9.345   5.991 -0.6856 -1.0268  0.9717
  563MOL0     O75894   5.582   9.322   6.028 -0.3185  0.4327 -0.3030
  563MOL0     C75895   5.561   9.234   6.131 -1.0136 -0.7792 -0.9131
  563MOL0     C75896   5.428   9.221   6.168  0.0729  0.8514 -0.0051
  563MOL0     C75897   5.379   9.139   6.267 -0.4360  1.1065  0.1733
  563MOL0     C75898   5.238   9.138   6.295 -0.4284  0.3676 -0.2461
  563MOL0     C75899   5.477   9.064   6.340 -0.0389  0.3488 -0.5401
  563MOL0     C75900   5.433   8.961   6.439  0.0783  0.6849  0.1695
  563MOL0     O75901   5.528   8.925   6.537 -0.2438 -0.2492  0.4720
  563MOL0     C75902   5.482   8.877   6.663 -0.3230 -0.5099  0.1847
  563MOL0     C75903   5.572   8.809   6.749 -0.2519 -0.8960 -0.1879
  563MOL0     C75904   5.526   8.764   6.875 -0.4962  0.7599 -0.1154
  563MOL0     C75905   5.391   8.779   6.913 -0.6168  0.3701  0.6158
  563MOL0     O75906   5.340   8.737   7.032  0.3001  0.0916  0.7833
  563MOL0     C75907   5.420   8.728   7.148 -0.3688 -0.3078  0.3000
  563MOL0     C75908   5.349   8.713   7.286 -0.2118  0.0711  0.2399
  563MOL0     C75909   5.284   8.847   7.337 -0.0093 -0.5298 -0.1004
  563MOL0     C75910   5.165   8.900   7.250  0.4514  0.3736  0.2084
  563MOL0     C75911   5.216   9.014   7.158  0.1080 -0.2962 -0.4083
  563MOL0     C75912   5.116   9.067   7.056  0.4773 -0.1177  0.4513
  563MOL0     C75913   5.176   9.186   6.973  0.8583 -0.1903 -0.0819
  563MOL0     C75914   5.320   9.174   6.918  0.4316 -0.0789  0.0362
  563MOL0    Cl75915   5.372   9.328   6.833 -0.2151 -0.0026 -0.1567
  563MOL0     C75916   5.305   8.843   6.816 -0.3752  1.2774  0.3397
  563MOL0     C75917   5.345   8.885   6.694 -0.6063 -0.4730 -0.1479
  563MOL0     O75918   5.340   8.882   6.411  0.0020 -0.1177 -0.1450
  563MOL0     C75919   5.616   9.080   6.313 -0.6887  0.0143  0.0205
  563MOL0     C75920   5.657   9.162   6.205  0.7019 -0.0945  0.4764
  563MOL0     N75921   6.128   9.727   6.014 -0.0420  0.4776 -0.5473
  563MOL0     N75922   6.248   9.740   5.980 -0.1299  0.1003  0.3920
  563MOL0     C75923   6.043   9.395   5.029 -0.4433  0.2967 -0.2195
  563MOL0     C75924   5.973   9.311   4.940 -0.5128  0.3402 -0.4055
  563MOL0     C75925   5.671   9.225   4.622  0.7602  0.2788  0.0399
  563MOL0     C75926   5.666   9.233   4.484  0.5994  0.6446  0.1447
  563MOL0     C75927   5.574   9.148   4.414  0.3122 -0.0831  0.2999
  563MOL0     C75928   5.491   9.058   4.485 -0.8402 -0.2230 -0.3445
  563MOL0     O75929   5.391   8.987   4.427  0.3816  0.7152 -0.2602
  563MOL0     C75930   5.388   8.977   4.280  0.3386  0.4741 -0.1283
  563MOL0     C75931   5.296   8.849   4.239 -0.1621 -0.1760  0.1110
  563MOL0     C75932   5.147   8.877   4.274  0.8359 -0.3043  0.1744
  563MOL0     C75933   5.050   8.770   4.226  0.3871  0.4151 -0.7802
  563MOL0     C75934   4.913   8.768   4.279 -0.7698 -0.2802  0.6070
  563MOL0     C75935   4.794   8.777   4.308 -0.8829 -0.4843  0.6849
  563MOL0     C75936   5.491   9.057   4.624  0.1208  0.1643 -0.3498
  563MOL0     C75937   5.572   9.145   4.696 -0.5087 -0.7626  0.2041
  563MOL0     H75938   5.690   9.487   4.942  0.0625  1.0062 -0.1223
  563MOL0     H75939   5.806   9.626   5.101 -1.5909  0.9042 -1.5847
  563MOL0     H75940   6.171   9.508   5.302 -0.8152  0.2685  0.2394
  563MOL0     H75941   6.222   9.553   5.126  0.3303  1.4872 -0.6716
  563MOL0     H75942   6.201   9.781   5.178  0.9876 -1.1391 -0.9645
  563MOL0     H75943   6.134   9.754   5.335 -3.0862  0.9977 -4.3162
  563MOL0     H75944   6.353   9.637   5.404 -1.6082 -0.8527 -0.1492
  563MOL0     H75945   6.426   9.676   5.244  1.9630  2.6653  0.0340
  563MOL0     H75946   6.494   9.875   5.381  0.2540 -1.4248 -0.2018
  563MOL0     H75947   6.346   9.926   5.318  1.7535  1.2259  0.2609
  563MOL0     H75948   6.325   9.998   5.522 -2.2124 -0.3363 -0.6024
  563MOL0     H75949   6.218   9.867   5.517  1.0390 -1.7805  0.2828
  563MOL0     H75950   6.487   9.860   5.670 -0.8631 -0.9837 -1.0592
  563MOL0     H75951   6.317   9.886   5.728 -1.4554  0.2084 -1.1955
  563MOL0     H75952   6.271   9.655   5.634  0.5776 -0.5918 -0.9007
  563MOL0     H75953   6.440   9.644   5.592  1.7357 -0.9119  2.4990
  563MOL0     H75954   6.474   9.725   5.851 -3.3997  2.3941  1.5437
  563MOL0     H75955   6.434   9.557   5.828  1.7396  0.1690 -0.7564
  563MOL0     H75956   6.163   9.517   5.767  1.3626  2.7555 -2.1291
  563MOL0     H75957   5.966   9.503   6.044  1.1397  2.3607  2.2821
  563MOL0     H75958   5.872   9.649   6.022  1.5642 -0.2518  3.9948
  563MOL0     H75959   5.926   9.441   5.807  2.3414  2.2299  0.2009
  563MOL0     H75960   5.851   9.589   5.774 -0.0428  0.2197  0.8972
  563MOL0     H75961   5.673   9.425   5.810  1.9269 -2.5556  0.4602
  563MOL0     H75962   5.669   9.553   5.936  3.2583  3.1020  0.0728
  563MOL0     H75963   5.777   9.367   6.077  2.0691 -0.0763 -1.1703
  563MOL0     H75964   5.743   9.257   5.933 -3.2714 -1.0121 -0.5832
  563MOL0     H75965   5.365   9.278   6.101  0.5976  1.3530 -0.0839
  563MOL0     H75966   5.228   9.128   6.403  2.3129 -2.3202 -0.1186
  563MOL0     H75967   5.175   9.221   6.261 -3.2246  0.4141  4.2800
  563MOL0     H75968   5.196   9.048   6.249 -0.7286  0.5208 -0.2723
  563MOL0     H75969   5.677   8.789   6.732  0.2963  0.6946  1.0759
  563MOL0     H75970   5.598   8.714   6.938  1.4784 -0.8940 -3.4297
  563MOL0     H75971   5.491   8.645   7.142 -0.0153 -0.2243  2.7339
  563MOL0     H75972   5.482   8.818   7.150 -0.3407 -0.2773 -0.8321
  563MOL0     H75973   5.280   8.629   7.279  2.8806 -2.7326  0.7560
  563MOL0     H75974   5.417   8.675   7.364 -1.4808 -1.0330  0.8542
  563MOL0     H75975   5.363   8.921   7.350  0.1912 -0.3609 -2.0145
  563MOL0     H75976   5.229   8.826   7.429 -1.5587 -1.1633 -1.1174
  563MOL0     H75977   5.108   8.814   7.215  1.7200 -1.0583  1.4970
  563MOL0     H75978   5.100   8.944   7.326  0.6748 -0.0525  0.6512
  563MOL0     H75979   5.306   8.980   7.104  0.0826  2.3294 -2.3536
  563MOL0     H75980   5.262   9.095   7.215  2.2157 -0.9070 -1.1205
  563MOL0     H75981   5.085   8.986   6.989 -1.8543  1.0401  0.0275
  563MOL0     H75982   5.026   9.108   7.102 -0.1652  0.0771 -0.9136
  563MOL0     H75983   5.174   9.271   7.042 -1.6745  0.0295 -0.3215
  563MOL0     H75984   5.116   9.209   6.885  0.3914 -0.2257  0.2217
  563MOL0     H75985   5.316   9.088   6.850  1.5993  0.3192 -0.5714
  563MOL0     H75986   5.397   9.155   6.993  1.8682  0.6666 -1.2000
  563MOL0     H75987   5.198   8.853   6.828 -0.3836  2.8486 -0.7577
  563MOL0     H75988   5.276   8.936   6.628 -1.7157  0.2010  1.4688
  563MOL0     H75989   5.694   9.037   6.374  2.4539  1.2066 -2.8486
  563MOL0     H75990   5.762   9.151   6.180  0.0722 -0.8366 -2.2611
  563MOL0     H75991   6.139   9.356   5.062 -0.6096 -0.5215 -0.6778
  563MOL0     H75992   6.023   9.220   4.907  1.4294  0.8683  0.8760
  563MOL0     H75993   5.729   9.301   4.428 -1.5348  1.5429 -1.2952
  563MOL0     H75994   5.571   9.147   4.305 -1.3186 -1.3717  0.3060
  563MOL0     H75995   5.346   9.063   4.228 -0.7923  0.3524  0.5554
  563MOL0     H75996   5.485   8.951   4.237  1.0415  1.0679  1.0910
  563MOL0     H75997   5.337   8.761   4.290  0.5388 -0.4885 -0.9769
  563MOL0     H75998   5.303   8.827   4.132 -0.1048  2.6055 -0.5291
  563MOL0     H75999   5.119   8.973   4.229 -0.4596 -1.2210 -1.0762
  563MOL0     H76000   5.145   8.882   4.383  1.2523  0.0622  0.1692
  563MOL0     H76001   5.096   8.676   4.257  1.8073  1.0167 -0.9787
  563MOL0     H76002   5.051   8.766   4.117  0.5020 -2.7058 -0.7566
  563MOL0     H76003   4.688   8.774   4.327 -0.8650  0.0537  0.8861
  563MOL0     H76004   5.415   8.993   4.668  1.1825 -0.3086  0.8544
  563MOL0     H76005   5.566   9.138   4.804 -3.5157 -0.3563  0.1546
  564MOL0     O76006   1.704   6.685   3.827 -0.7890 -1.0194 -0.1904
  564MOL0     C76007   1.618   6.669   3.741 -0.3045 -0.5726  0.1869
  564MOL0     O76008   1.638   6.597   3.629  0.5327  0.1229 -0.4388
  564MOL0     C76009   1.763   6.559   3.596 -0.1625 -0.0835  0.0034
  564MOL0     C76010   1.858   6.640   3.545  0.5121  0.2181  0.4545
  564MOL0     C76011   1.987   6.601   3.518 -0.3807 -0.4547 -0.3229
  564MOL0     C76012   2.037   6.477   3.551 -0.2200 -1.3066  0.2216
  564MOL0     O76013   2.174   6.473   3.538  0.7815  0.1420 -0.4171
  564MOL0     C76014   2.229   6.345   3.588 -1.3554  0.3108 -0.0911
  564MOL0     C76015   2.381   6.362   3.565  0.2018 -0.9216  0.1924
  564MOL0     C76016   2.446   6.248   3.644 -0.8666 -0.4946 -0.5003
  564MOL0     C76017   2.597   6.225   3.599 -0.3331  0.2153 -0.3219
  564MOL0     C76018   2.704   6.313   3.647  0.4480 -0.4876 -0.4103
  564MOL0     C76019   2.754   6.267   3.778  0.2124 -0.4615  0.6362
  564MOL0     C76020   2.853   6.370   3.834  0.3946  0.4793  0.2995
  564MOL0     C76021   2.938   6.286   3.934 -0.0984  0.5896  0.0288
  564MOL0     N76022   3.033   6.371   4.008  0.5421  0.6286 -0.0014
  564MOL0     C76023   3.000   6.491   4.075  0.8184  0.0342  1.2765
  564MOL0     C76024   3.108   6.507   4.146  0.2368 -0.3290  0.5069
  564MOL0     C76025   3.142   6.640   4.226 -0.0966  0.5843  0.2370
  564MOL0     C76026   3.219   6.746   4.133  0.0171  0.7793  0.0993
  564MOL0     C76027   3.142   6.800   4.011  0.2456 -0.3338 -1.1198
  564MOL0     C76028   3.037   6.914   4.048 -0.4250  0.4249 -0.5285
  564MOL0     O76029   3.096   7.027   4.101 -0.6608 -0.3117 -0.2015
  564MOL0     C76030   3.099   7.147   4.033  0.1262 -0.7205  0.0446
  564MOL0     C76031   3.097   7.148   3.890 -0.0111  0.3528 -0.3304
  564MOL0     C76032   3.081   7.267   3.819 -0.4388  0.8524  0.4804
  564MOL0     C76033   3.075   7.258   3.668  0.3525  0.7570 -1.0308
  564MOL0     C76034   3.083   7.393   3.885  0.3004  0.0639 -0.4234
  564MOL0     C76035   3.071   7.526   3.817  0.3798 -0.1207  0.2302
  564MOL0     O76036   3.136   7.636   3.870  0.0719  0.5574  0.2914
  564MOL0     C76037   3.270   7.632   3.900  0.1928 -0.4499  0.2569
  564MOL0     C76038   3.312   7.721   3.995  0.0918 -1.0324 -0.8220
  564MOL0     C76039   3.444   7.727   4.046  0.8634 -0.3230 -0.1213
  564MOL0     C76040   3.535   7.639   3.990 -0.6065  0.7418  0.6833
  564MOL0     O76041   3.660   7.628   4.046  0.5564 -0.1826  0.1755
  564MOL0     C76042   3.708   7.738   4.128 -0.2787 -0.1567  0.5019
  564MOL0     C76043   3.856   7.719   4.164 -0.2409  1.1964  1.1488
  564MOL0     C76044   3.943   7.717   4.043 -0.2135 -0.2356  0.2405
  564MOL0     C76045   4.091   7.683   4.075 -0.1714 -0.0439  0.2259
  564MOL0     C76046   4.188   7.697   3.954  0.0102 -0.9506  0.1719
  564MOL0     C76047   4.332   7.662   3.984  0.0989 -0.7392 -1.0794
  564MOL0     C76048   4.411   7.673   3.860 -0.1299  0.7726  0.4834
  564MOL0     C76049   4.566   7.677   3.877  0.7616  0.0989  0.1792
  564MOL0    Cl76050   4.619   7.828   3.944  0.3748  0.1915  0.0693
  564MOL0     C76051   3.494   7.537   3.902 -0.9192 -1.1031  0.0476
  564MOL0     C76052   3.366   7.539   3.852  0.2785 -0.3309 -0.3067
  564MOL0     O76053   3.001   7.539   3.717 -0.0778  0.0184 -0.6210
  564MOL0     C76054   3.108   7.392   4.024 -0.1251 -0.2582  0.1318
  564MOL0     C76055   3.106   7.275   4.091 -0.3011 -0.2103 -0.7061
  564MOL0     N76056   3.203   6.409   4.115  0.1352 -0.4937 -0.4443
  564MOL0     N76057   3.159   6.336   4.020  0.2704 -0.1860  0.2666
  564MOL0     C76058   1.948   6.390   3.610  0.6354  0.6374  0.4281
  564MOL0     C76059   1.812   6.439   3.644 -1.1018 -0.8942  0.6799
  564MOL0     C76060   1.494   6.745   3.766 -0.6538 -0.1514 -0.1917
  564MOL0     C76061   1.395   6.739   3.661  1.2700  0.2515  0.0720
  564MOL0     C76062   1.265   6.799   3.676 -0.1813  0.4064  0.1560
  564MOL0     C76063   1.236   6.857   3.800 -0.3760  0.3218 -0.2627
  564MOL0     O76064   1.105   6.902   3.821 -0.3694 -0.2026  0.1981
  564MOL0     C76065   1.074   6.955   3.948 -0.2421  0.8691  0.4622
  564MOL0     C76066   1.058   6.858   4.060  0.5000  0.3741  0.9942
  564MOL0     C76067   0.994   6.935   4.178 -0.3130 -0.1583 -0.4873
  564MOL0     C76068   0.942   6.852   4.285 -0.7038  0.4588  0.0379
  564MOL0     C76069   1.023   6.731   4.310 -0.3075 -0.5221  0.2135
  564MOL0     C76070   1.090   6.629   4.317  0.4351  0.1839 -0.4347
  564MOL0     C76071   1.339   6.874   3.897 -0.6841  0.4157 -0.2836
  564MOL0     C76072   1.464   6.813   3.881  0.2256 -0.3202  0.0541
  564MOL0     H76073   1.830   6.745   3.540 -0.9454 -0.1831 -0.6559
  564MOL0     H76074   2.050   6.676   3.470 -0.3666  0.1561  0.6370
  564MOL0     H76075   2.202   6.314   3.689  4.0337 -2.2863  0.8770
  564MOL0     H76076   2.196   6.260   3.527  3.1253 -0.9060 -1.1964
  564MOL0     H76077   2.391   6.340   3.459 -0.7308  2.1286 -0.6463
  564MOL0     H76078   2.419   6.461   3.592 -0.7022 -0.7206  0.7853
  564MOL0     H76079   2.451   6.275   3.749 -1.0454 -0.4999 -0.4903
  564MOL0     H76080   2.394   6.153   3.628 -1.1441 -0.8657  2.2755
  564MOL0     H76081   2.617   6.120   3.623 -2.8878 -0.5682 -1.2938
  564MOL0     H76082   2.598   6.226   3.490 -1.5024  2.2286 -0.3639
  564MOL0     H76083   2.788   6.314   3.577 -0.9210 -0.5270 -2.1273
  564MOL0     H76084   2.657   6.411   3.664 -1.0886 -1.4308  1.1058
  564MOL0     H76085   2.671   6.247   3.846  0.7686  0.2942  1.5614
  564MOL0     H76086   2.804   6.173   3.752 -0.7865 -0.1822 -2.7350
  564MOL0     H76087   2.917   6.417   3.759  0.8202 -0.5344  0.0119
  564MOL0     H76088   2.801   6.451   3.886  0.3613  1.2330 -0.8721
  564MOL0     H76089   2.996   6.217   3.872  0.0303  2.4815 -2.0736
  564MOL0     H76090   2.882   6.218   3.998 -2.2023 -1.3393 -3.5284
  564MOL0     H76091   2.907   6.547   4.080 -0.0940 -1.1887 -0.6496
  564MOL0     H76092   3.049   6.682   4.267 -0.1490 -1.1371  2.0715
  564MOL0     H76093   3.202   6.611   4.313 -0.6486  1.5126  0.9393
  564MOL0     H76094   3.317   6.709   4.101  0.3366 -0.1457  2.0554
  564MOL0     H76095   3.236   6.835   4.194  0.7236  0.4271  0.4289
  564MOL0     H76096   3.082   6.725   3.960 -0.7808  0.2786 -0.8462
  564MOL0     H76097   3.209   6.838   3.933  0.9489  0.8079 -0.0216
  564MOL0     H76098   2.965   6.874   4.121  0.8889 -0.4555  0.3171
  564MOL0     H76099   2.967   6.934   3.966 -0.4290  0.5162 -0.5036
  564MOL0     H76100   3.100   7.056   3.831  4.2644  1.0082 -1.5062
  564MOL0     H76101   3.147   7.330   3.629  0.7649  0.5894 -0.5911
  564MOL0     H76102   3.116   7.164   3.629 -2.1098 -0.0926 -1.7781
  564MOL0     H76103   2.970   7.273   3.643  0.7222  1.1210 -2.4259
  564MOL0     H76104   3.229   7.777   4.036  2.6188  1.2139  1.6652
  564MOL0     H76105   3.466   7.797   4.127  0.9271  0.3421 -0.7087
  564MOL0     H76106   3.688   7.830   4.073  0.8632 -0.5739 -0.6632
  564MOL0     H76107   3.649   7.731   4.220 -2.1248  1.2196 -0.4921
  564MOL0     H76108   3.889   7.801   4.229 -1.8540  3.8350 -1.1488
  564MOL0     H76109   3.874   7.621   4.210 -1.2430  0.2812 -0.3174
  564MOL0     H76110   3.928   7.819   4.008 -0.4239  0.5633  2.5015
  564MOL0     H76111   3.909   7.667   3.952  0.6262  3.7791 -2.5513
  564MOL0     H76112   4.129   7.736   4.163  0.1484 -1.7587  1.1661
  564MOL0     H76113   4.099   7.580   4.110  3.2889 -0.2975 -0.9219
  564MOL0     H76114   4.174   7.796   3.910  0.6492 -0.7132  0.5051
  564MOL0     H76115   4.146   7.632   3.877  1.9084 -0.3181 -1.4554
  564MOL0     H76116   4.366   7.743   4.049  1.5535 -1.3708 -0.9927
  564MOL0     H76117   4.343   7.562   4.028 -0.1885  0.3622  1.7091
  564MOL0     H76118   4.379   7.753   3.792  0.2734 -1.3215 -2.3671
  564MOL0     H76119   4.394   7.582   3.801 -3.0058  2.5382 -1.6788
  564MOL0     H76120   4.612   7.657   3.781 -0.4825 -2.7821  0.0964
  564MOL0     H76121   4.592   7.597   3.946  1.0829 -1.6031 -1.8396
  564MOL0     H76122   3.559   7.451   3.888  0.5030  0.1621 -1.4745
  564MOL0     H76123   3.328   7.469   3.778  1.3992 -0.9270 -0.3390
  564MOL0     H76124   3.124   7.485   4.078 -0.2519  1.4530 -2.6203
  564MOL0     H76125   3.133   7.273   4.197 -0.7524 -0.9462 -0.6029
  564MOL0     H76126   1.982   6.299   3.657  0.0037  0.0947 -0.1379
  564MOL0     H76127   1.747   6.391   3.717 -2.1651 -0.7700 -0.1564
  564MOL0     H76128   1.409   6.688   3.566 -1.8226 -0.1748 -0.2531
  564MOL0     H76129   1.187   6.793   3.601  0.8619 -1.1743 -0.8777
  564MOL0     H76130   1.147   7.031   3.978 -0.8584  0.6858  2.5429
  564MOL0     H76131   0.983   7.012   3.928 -0.8918 -0.0132  0.8334
  564MOL0     H76132   1.154   6.813   4.085  0.5913  0.6538  1.1523
  564MOL0     H76133   0.991   6.782   4.019 -1.5405  3.2937 -1.5767
  564MOL0     H76134   0.907   6.990   4.141  0.5820  0.7164 -1.3271
  564MOL0     H76135   1.059   7.014   4.216 -1.8340  1.5357 -1.2767
  564MOL0     H76136   0.839   6.821   4.265 -1.0696  0.8543  1.2463
  564MOL0     H76137   0.935   6.908   4.378 -0.2515  2.1416 -0.9146
  564MOL0     H76138   1.146   6.539   4.327 -0.8106 -0.7428 -1.4908
  564MOL0     H76139   1.325   6.939   3.983 -0.7043  1.3720 -1.0030
  564MOL0     H76140   1.524   6.834   3.969  3.0156  0.9166 -1.9939
  565MOL0     O76141   1.796   1.847   6.213  0.3070 -0.0608  0.5958
  565MOL0     C76142   1.909   1.810   6.201 -0.5280  0.2023 -0.0622
  565MOL0     O76143   1.976   1.820   6.083 -0.9151  0.0841 -0.3140
  565MOL0     C76144   1.919   1.880   5.975 -0.0969  0.0529  1.0632
  565MOL0     C76145   1.859   2.016   5.982 -0.5774 -0.5740 -0.0689
  565MOL0     C76146   1.799   2.074   5.870 -1.0373 -0.1753 -0.3933
  565MOL0     C76147   1.818   2.011   5.747 -0.9610 -0.8099  0.2123
  565MOL0     O76148   1.756   2.077   5.642  0.5762  0.2118  0.1493
  565MOL0     C76149   1.760   2.020   5.508 -0.2653  0.2359  0.2845
  565MOL0     C76150   1.698   2.113   5.406 -0.0888  0.4383 -0.5117
  565MOL0     C76151   1.650   2.044   5.277 -0.3975 -0.1167  0.3527
  565MOL0     C76152   1.525   1.952   5.294 -0.3498 -0.2126 -0.7286
  565MOL0     C76153   1.495   1.915   5.151 -0.1806  0.6459  0.3056
  565MOL0     C76154   1.357   1.981   5.109  1.0974 -0.3205  0.1648
  565MOL0     C76155   1.322   1.947   4.967 -0.0968 -0.8487 -0.1775
  565MOL0     C76156   1.205   2.029   4.912 -0.6672  0.4460  0.4616
  565MOL0     N76157   1.183   2.038   4.763 -0.3563 -0.4586  0.0732
  565MOL0     C76158   1.127   1.936   4.686  0.5381 -0.1410 -0.2450
  565MOL0     C76159   1.151   1.966   4.556 -0.1399 -0.5956 -0.1176
  565MOL0     C76160   1.145   1.878   4.431  1.0956  0.1445  0.3185
  565MOL0     C76161   1.271   1.847   4.341  0.3432  0.9394 -0.8801
  565MOL0     C76162   1.327   1.974   4.267  0.6264  0.6372  0.0370
  565MOL0     C76163   1.419   1.918   4.159  0.7900  0.3248 -0.1366
  565MOL0     O76164   1.487   2.029   4.095  0.4507 -0.1521 -1.2493
  565MOL0     C76165   1.606   2.021   4.039  0.4518  0.5425 -0.2170
  565MOL0     C76166   1.675   1.902   4.012 -0.4751 -0.2057  0.2593
  565MOL0     C76167   1.809   1.900   3.947 -0.2217  0.3441  0.3793
  565MOL0     C76168   1.886   1.771   3.946  0.1949 -0.0707 -1.0256
  565MOL0     C76169   1.868   2.021   3.901  0.0247 -0.5450 -0.1213
  565MOL0     C76170   2.001   2.043   3.840  0.5640 -0.0340 -0.0984
  565MOL0     O76171   2.020   2.144   3.739  0.5829 -0.1336  0.9559
  565MOL0     C76172   2.137   2.164   3.678 -0.0698  0.4980 -0.1014
  565MOL0     C76173   2.134   2.183   3.545 -0.7963  0.3336 -0.0803
  565MOL0     C76174   2.255   2.199   3.472 -0.6928  0.8732 -0.9491
  565MOL0     C76175   2.377   2.190   3.540 -0.9891  0.5642 -0.0740
  565MOL0     O76176   2.491   2.208   3.461  0.7341 -0.4414  0.1702
  565MOL0     C76177   2.578   2.304   3.510 -0.2683 -0.1772 -0.7211
  565MOL0     C76178   2.661   2.388   3.415  0.2575  0.2088  0.0467
  565MOL0     C76179   2.571   2.496   3.352 -0.8222  0.2164 -0.5564
  565MOL0     C76180   2.643   2.624   3.319 -0.7398  0.3401  0.6449
  565MOL0     C76181   2.543   2.731   3.265  0.0483 -0.1796 -0.0306
  565MOL0     C76182   2.603   2.871   3.253 -0.1029  0.0724  0.8998
  565MOL0     C76183   2.687   2.898   3.131 -0.3765  0.4131 -0.3505
  565MOL0     C76184   2.695   3.049   3.109  0.5337 -0.3049  0.0058
  565MOL0    Cl76185   2.777   3.089   2.961 -0.4195  0.1960 -0.3336
  565MOL0     C76186   2.383   2.183   3.675 -1.1481 -0.3582 -0.1585
  565MOL0     C76187   2.262   2.168   3.747 -0.2226 -1.0980  0.1850
  565MOL0     O76188   2.088   1.976   3.885 -0.0436 -0.3116  0.2199
  565MOL0     C76189   1.779   2.135   3.912 -0.4419  0.7511  0.3687
  565MOL0     C76190   1.662   2.136   3.983  1.0308  0.1427 -0.0670
  565MOL0     N76191   1.213   2.095   4.556  0.2678  0.7859  0.8652
  565MOL0     N76192   1.237   2.128   4.680 -0.1328 -0.4582  0.6864
  565MOL0     C76193   1.884   1.891   5.733 -0.4730 -0.4669  0.1923
  565MOL0     C76194   1.930   1.824   5.852  0.7665  1.0192  0.2264
  565MOL0     C76195   1.970   1.741   6.314 -0.7671  0.0651  1.6077
  565MOL0     C76196   1.930   1.768   6.440 -0.0814 -0.4097 -0.2413
  565MOL0     C76197   1.986   1.708   6.551  0.6416  0.2541 -1.1648
  565MOL0     C76198   2.075   1.608   6.532  0.2712 -0.1803  0.2264
  565MOL0     O76199   2.114   1.544   6.644  0.4039 -0.4636 -0.8819
  565MOL0     C76200   2.203   1.436   6.639  0.9579 -0.1279  0.5274
  565MOL0     C76201   2.211   1.362   6.773 -0.6988 -0.5791  0.9228
  565MOL0     C76202   2.222   1.440   6.906  0.1664  1.1081 -0.4703
  565MOL0     C76203   2.105   1.411   7.003  0.2423 -1.4597  0.5252
  565MOL0     C76204   2.119   1.276   7.056  0.1133 -0.3382  0.4066
  565MOL0     C76205   2.123   1.160   7.097  0.3111 -0.0666 -0.2615
  565MOL0     C76206   2.107   1.574   6.395 -0.0091  0.3979  1.0159
  565MOL0     C76207   2.066   1.643   6.288  0.0123 -0.3388  0.1863
  565MOL0     H76208   1.855   2.060   6.081  0.5545 -2.3660  0.8275
  565MOL0     H76209   1.744   2.167   5.870 -0.3605  0.2305 -0.1507
  565MOL0     H76210   1.864   2.020   5.473 -0.9344 -0.3284 -1.9082
  565MOL0     H76211   1.729   1.915   5.507  2.6510 -0.7135 -0.3144
  565MOL0     H76212   1.621   2.172   5.458  0.9502 -0.2398  1.9588
  565MOL0     H76213   1.769   2.192   5.380 -2.6048  2.7921 -0.7417
  565MOL0     H76214   1.633   2.121   5.202  0.4170 -1.4648 -1.2768
  565MOL0     H76215   1.731   1.984   5.236 -0.7423 -0.1730 -0.2478
  565MOL0     H76216   1.531   1.868   5.364 -1.0075  0.1375 -0.2431
  565MOL0     H76217   1.441   2.009   5.333 -1.6015 -2.1882 -0.3828
  565MOL0     H76218   1.574   1.941   5.080  0.8136  0.9252  1.4899
  565MOL0     H76219   1.473   1.808   5.145 -0.8647  0.7343  1.1158
  565MOL0     H76220   1.282   1.946   5.181 -2.0962  1.4385 -2.0685
  565MOL0     H76221   1.352   2.089   5.122 -4.1329  0.0148 -2.2384
  565MOL0     H76222   1.407   1.949   4.899 -1.5463  0.0589 -2.0961
  565MOL0     H76223   1.278   1.847   4.966 -0.8040 -0.6141 -3.0397
  565MOL0     H76224   1.232   2.132   4.938  0.0767 -0.1596  2.2890
  565MOL0     H76225   1.111   2.004   4.960 -0.0239 -1.2783  0.8989
  565MOL0     H76226   1.100   1.843   4.735  1.9243  0.1088  1.0594
  565MOL0     H76227   1.093   1.784   4.452  2.5154 -2.2524 -5.2119
  565MOL0     H76228   1.079   1.936   4.366 -1.3452 -0.3570  2.1921
  565MOL0     H76229   1.225   1.773   4.276 -2.1163 -0.2502  1.9589
  565MOL0     H76230   1.339   1.807   4.417 -0.0462  1.2946 -0.3343
  565MOL0     H76231   1.374   2.048   4.332  1.0619  0.8283 -0.4862
  565MOL0     H76232   1.246   2.035   4.227  1.3207  3.0740  2.1286
  565MOL0     H76233   1.351   1.880   4.083 -1.1958  1.3042  1.0776
  565MOL0     H76234   1.479   1.842   4.210 -0.8522 -0.9937 -0.0876
  565MOL0     H76235   1.653   1.804   4.054 -1.0184 -1.4049 -2.5703
  565MOL0     H76236   1.811   1.692   3.948 -0.0237  0.1434 -0.8194
  565MOL0     H76237   1.945   1.774   3.854 -0.2560 -0.2511 -1.3242
  565MOL0     H76238   1.951   1.768   4.034 -0.2654  1.1910 -0.6181
  565MOL0     H76239   2.047   2.166   3.483 -0.3370  1.0104 -0.9307
  565MOL0     H76240   2.252   2.212   3.364 -0.0719 -1.5076 -1.3208
  565MOL0     H76241   2.526   2.384   3.564  1.8584  2.3431 -2.1914
  565MOL0     H76242   2.655   2.273   3.582  0.9600  3.7262 -0.0857
  565MOL0     H76243   2.740   2.438   3.472  1.3496 -0.4973 -0.8127
  565MOL0     H76244   2.714   2.327   3.342  0.5238  1.9758 -1.2991
  565MOL0     H76245   2.492   2.518   3.424  1.6404  3.2234  1.4794
  565MOL0     H76246   2.522   2.458   3.262  1.4375 -1.3600 -1.2116
  565MOL0     H76247   2.713   2.657   3.396 -1.3246 -0.6031  1.6210
  565MOL0     H76248   2.710   2.600   3.236 -3.9711 -1.8299 -1.5736
  565MOL0     H76249   2.471   2.740   3.347 -0.6259  0.9178 -0.7154
  565MOL0     H76250   2.485   2.706   3.176  0.8306  0.8359 -0.8355
  565MOL0     H76251   2.521   2.944   3.260  1.5062  1.9638  0.7026
  565MOL0     H76252   2.671   2.896   3.335 -2.5747  1.3738  2.7206
  565MOL0     H76253   2.656   2.848   3.039  0.3916 -1.3324  0.3002
  565MOL0     H76254   2.789   2.864   3.147 -0.8094 -1.6813 -1.6486
  565MOL0     H76255   2.760   3.089   3.187  0.8286  0.4070 -0.5947
  565MOL0     H76256   2.594   3.091   3.098  0.6233 -0.0295  0.2227
  565MOL0     H76257   2.476   2.183   3.730 -1.1612 -1.8439 -0.0730
  565MOL0     H76258   2.261   2.168   3.856  0.8377  4.0036  0.4346
  565MOL0     H76259   1.811   2.228   3.867 -1.1506  0.8133 -0.0203
  565MOL0     H76260   1.588   2.215   3.977 -0.0039 -0.8827 -1.9388
  565MOL0     H76261   1.892   1.840   5.638 -0.8017  0.1811 -0.1898
  565MOL0     H76262   1.983   1.730   5.837 -0.4443  0.3677 -0.1174
  565MOL0     H76263   1.866   1.856   6.443  0.6335  0.1931 -1.4439
  565MOL0     H76264   1.969   1.741   6.653  1.0037  0.3986 -1.1526
  565MOL0     H76265   2.156   1.359   6.577 -0.3887  0.2021  1.0975
  565MOL0     H76266   2.304   1.464   6.606  0.6901 -1.1219 -1.2789
  565MOL0     H76267   2.297   1.295   6.766  0.3050  0.5625  1.9531
  565MOL0     H76268   2.118   1.303   6.780 -2.6472  0.6750 -6.1941
  565MOL0     H76269   2.235   1.547   6.888 -1.7301  1.6353  1.0080
  565MOL0     H76270   2.306   1.398   6.962 -2.1591 -1.4439  1.3899
  565MOL0     H76271   2.008   1.425   6.954 -0.4316 -2.6047  1.4628
  565MOL0     H76272   2.108   1.478   7.090 -0.2479  0.2284 -0.7266
  565MOL0     H76273   2.102   1.058   7.124 -3.8931  0.8394  0.7106
  565MOL0     H76274   2.174   1.495   6.364 -2.1312 -0.6277 -1.3327
  565MOL0     H76275   2.111   1.616   6.193 -0.4489 -0.0843 -0.1090
  566MOL0     O76276  11.038   1.149  10.704 -0.2776 -0.2592 -0.4741
  566MOL0     C76277  10.993   1.163  10.821  0.4286  0.3762  0.1480
  566MOL0     O76278  10.862   1.151  10.858 -0.0403 -0.4783  0.0229
  566MOL0     C76279  10.758   1.128  10.778 -0.2678 -0.3389 -0.0615
  566MOL0     C76280  10.766   1.088  10.642 -0.2449 -0.4939  0.1032
  566MOL0     C76281  10.651   1.093  10.565  0.8032 -0.0979 -0.3191
  566MOL0     C76282  10.529   1.119  10.618  0.7630 -0.2127 -1.0088
  566MOL0     O76283  10.420   1.101  10.540 -0.0890 -0.7178  0.5373
  566MOL0     C76284  10.315   1.194  10.551 -0.1339 -0.9254 -0.2926
  566MOL0     C76285  10.186   1.118  10.520 -0.0818 -0.1931  0.0122
  566MOL0     C76286  10.074   1.218  10.490  0.1969 -0.7480 -0.1727
  566MOL0     C76287   9.947   1.144  10.445  0.0808  0.8715 -0.4617
  566MOL0     C76288   9.833   1.252  10.431 -0.0099  0.1002  0.3343
  566MOL0     C76289   9.703   1.197  10.356  0.1581 -0.8417 -0.4195
  566MOL0     C76290   9.596   1.295  10.397 -0.0245  0.4158 -0.2079
  566MOL0     C76291   9.474   1.285  10.312 -0.0578  0.4246  0.3507
  566MOL0     N76292   9.387   1.175  10.349  0.4560 -0.2095 -0.5731
  566MOL0     C76293   9.270   1.176  10.419 -0.4026 -0.4563 -0.0662
  566MOL0     C76294   9.211   1.058  10.378  0.2699  0.4848 -0.2628
  566MOL0     C76295   9.083   0.992  10.400  0.6428  0.0817 -0.0412
  566MOL0     C76296   8.972   1.104  10.401 -0.7897  0.5061  0.0707
  566MOL0     C76297   8.837   1.032  10.367  0.3684 -1.4523 -0.7475
  566MOL0     C76298   8.727   1.127  10.391  0.6446 -0.6940 -0.4353
  566MOL0     O76299   8.603   1.049  10.396 -0.8472  0.3277  0.4587
  566MOL0     C76300   8.483   1.118  10.419 -0.0108  0.5195  0.1235
  566MOL0     C76301   8.474   1.251  10.465  0.4975 -0.6397  0.1847
  566MOL0     C76302   8.350   1.314  10.489 -0.2896  0.2464  0.1572
  566MOL0     C76303   8.359   1.463  10.520 -0.3157 -0.3116  0.9325
  566MOL0     C76304   8.231   1.238  10.488 -0.9681 -0.0912 -0.2807
  566MOL0     C76305   8.098   1.295  10.503  0.1222 -0.1721 -0.5140
  566MOL0     O76306   7.999   1.202  10.486 -0.2012 -0.4183 -0.9709
  566MOL0     C76307   7.867   1.230  10.492  0.7249  0.2535  0.4152
  566MOL0     C76308   7.782   1.124  10.531 -0.0045  0.0661 -0.2320
  566MOL0     C76309   7.648   1.128  10.540  0.7358 -0.5700  0.3572
  566MOL0     C76310   7.584   1.248  10.500  1.0363 -0.5289  0.0295
  566MOL0     O76311   7.448   1.265  10.504 -0.1703  0.0873  0.2650
  566MOL0     C76312   7.358   1.145  10.514  0.3774 -0.4623  0.1212
  566MOL0     C76313   7.290   1.137  10.647  0.3061 -0.3811 -1.1613
  566MOL0     C76314   7.183   1.254  10.667 -0.0937 -0.1413 -1.3768
  566MOL0     C76315   7.078   1.268  10.558  0.2121  0.2178  0.3337
  566MOL0     C76316   6.961   1.352  10.619 -0.6633  1.0398 -0.8382
  566MOL0     C76317   6.850   1.359  10.521  0.5184  0.2823  0.5162
  566MOL0     C76318   6.738   1.463  10.551 -0.7176 -0.3134  0.7937
  566MOL0     C76319   6.658   1.460  10.428  0.3771 -0.7548 -0.0109
  566MOL0    Cl76320   6.533   1.344  10.462  0.1323  0.2278  0.2074
  566MOL0     C76321   7.657   1.354  10.457  0.2016 -0.1300 -0.6995
  566MOL0     C76322   7.803   1.350  10.460 -1.1378  0.4483 -0.1740
  566MOL0     O76323   8.079   1.414  10.518  0.5841  0.1515 -0.5550
  566MOL0     C76324   8.242   1.107  10.441 -0.4377 -0.4130  0.2855
  566MOL0     C76325   8.364   1.046  10.414 -0.6118  0.4246 -0.7280
  566MOL0     N76326   9.302   0.982  10.307  0.3323  0.3217 -0.7274
  566MOL0     N76327   9.396   1.060  10.278  0.1320 -0.1728  0.5347
  566MOL0     C76328  10.524   1.164  10.754 -0.0702  0.1851  0.4356
  566MOL0     C76329  10.638   1.165  10.833 -0.2824  0.1021  0.1992
  566MOL0     C76330  11.104   1.203  10.924  0.2967  0.2396 -0.7727
  566MOL0     C76331  11.232   1.155  10.907 -0.3037 -0.3495  0.4742
  566MOL0     C76332  11.334   1.189  10.989 -0.8933 -0.2063  0.1521
  566MOL0     C76333  11.315   1.274  11.100 -0.8969 -0.0894  0.3030
  566MOL0     O76334  11.427   1.318  11.182 -1.0316  0.2523  0.3863
  566MOL0     C76335  11.459   1.217  11.284  0.1347 -0.2370 -0.5561
  566MOL0     C76336  11.599   1.249  11.342 -0.2006  0.3047 -0.4126
  566MOL0     C76337  11.599   1.393  11.391 -0.1079 -0.5671 -0.5369
  566MOL0     C76338  11.699   1.409  11.515  0.5035 -0.4171  0.2200
  566MOL0     C76339  11.701   1.553  11.543  0.4439  0.2483 -0.1490
  566MOL0     C76340  11.713   1.672  11.561  0.0824 -0.1356 -0.5707
  566MOL0     C76341  11.179   1.313  11.120  0.2441  0.0932 -0.8477
  566MOL0     C76342  11.078   1.285  11.038 -0.7009  0.2823 -0.0212
  566MOL0     H76343  10.863   1.053  10.606  0.1016 -0.2003  0.7286
  566MOL0     H76344  10.651   1.082  10.457 -1.0797 -0.9835 -0.2656
  566MOL0     H76345  10.316   1.275  10.625 -0.1753  0.2287 -1.5155
  566MOL0     H76346  10.335   1.249  10.458  2.5616 -1.6128 -0.1993
  566MOL0     H76347  10.204   1.044  10.441 -1.3079 -2.1721  1.5017
  566MOL0     H76348  10.167   1.068  10.615 -2.6468  1.8659  0.6823
  566MOL0     H76349  10.045   1.288  10.569 -1.6386 -2.6713  0.9874
  566MOL0     H76350  10.105   1.284  10.408  0.3671  1.7896  1.8116
  566MOL0     H76351   9.970   1.108  10.344 -0.4410  0.7049 -0.5223
  566MOL0     H76352   9.916   1.065  10.514 -1.4845  3.4704  2.0541
  566MOL0     H76353   9.821   1.282  10.536  3.9551 -0.6023  1.1650
  566MOL0     H76354   9.872   1.339  10.378  0.4298 -0.2644  0.0513
  566MOL0     H76355   9.694   1.202  10.247 -1.2695 -1.0189 -0.3312
  566MOL0     H76356   9.678   1.094  10.382 -3.9662  0.7940  3.3098
  566MOL0     H76357   9.584   1.287  10.506  3.6532  1.2093  0.3951
  566MOL0     H76358   9.637   1.396  10.391  1.4355  0.1104  2.7616
  566MOL0     H76359   9.505   1.284  10.207 -0.7287  1.7469  0.1144
  566MOL0     H76360   9.410   1.374  10.315 -4.3851 -2.3958  0.2661
  566MOL0     H76361   9.236   1.256  10.483  1.4272  0.3730 -0.0732
  566MOL0     H76362   9.058   0.921  10.321 -3.0138 -0.9414  1.7990
  566MOL0     H76363   9.085   0.944  10.498 -0.3974  0.5539  0.2263
  566MOL0     H76364   9.001   1.186  10.334  2.3579  1.4572  2.3740
  566MOL0     H76365   8.974   1.145  10.502 -0.9199  0.9162 -0.0888
  566MOL0     H76366   8.828   0.943  10.429  1.3890 -1.6135 -0.8050
  566MOL0     H76367   8.821   0.993  10.266 -0.7753  1.4181 -1.7990
  566MOL0     H76368   8.732   1.203  10.312  2.1190 -1.1650 -0.8370
  566MOL0     H76369   8.720   1.176  10.488 -3.6519 -0.8719 -0.4867
  566MOL0     H76370   8.567   1.308  10.462  0.2519 -0.2755 -0.8875
  566MOL0     H76371   8.353   1.474  10.629  1.2050 -2.7244  1.3364
  566MOL0     H76372   8.452   1.503  10.479 -0.5574  0.2817  0.9529
  566MOL0     H76373   8.280   1.526  10.479 -1.5808 -2.5109 -0.1785
  566MOL0     H76374   7.840   1.035  10.552 -2.3721 -1.6368 -0.5529
  566MOL0     H76375   7.598   1.038  10.574  1.4188 -0.8727  0.5861
  566MOL0     H76376   7.280   1.150  10.438  0.8092 -0.7036 -0.3395
  566MOL0     H76377   7.417   1.062  10.473 -0.3242 -0.4846 -0.8803
  566MOL0     H76378   7.244   1.038  10.653  4.0221 -2.2248  0.0374
  566MOL0     H76379   7.367   1.141  10.725  0.7034 -2.6704 -1.3487
  566MOL0     H76380   7.236   1.350  10.678 -2.5574  1.4881 -2.8424
  566MOL0     H76381   7.139   1.232  10.765  1.0521  0.3822 -0.7205
  566MOL0     H76382   7.132   1.316  10.476  0.7603  0.7784  0.9973
  566MOL0     H76383   7.037   1.174  10.521  1.2655  1.1003 -3.4654
  566MOL0     H76384   6.994   1.451  10.652 -1.6742  0.4377  2.2697
  566MOL0     H76385   6.923   1.302  10.708 -3.1249 -1.2803 -2.9957
  566MOL0     H76386   6.890   1.397  10.427  0.2361  1.7874  0.9703
  566MOL0     H76387   6.803   1.261  10.508  2.8477 -0.9748  1.1165
  566MOL0     H76388   6.785   1.560  10.567 -3.8055  1.5885 -0.5256
  566MOL0     H76389   6.678   1.455  10.642 -2.1432  3.7643  0.4108
  566MOL0     H76390   6.716   1.424  10.342 -1.7553  0.3692 -2.0424
  566MOL0     H76391   6.606   1.554  10.409 -0.2001 -1.2459 -0.9282
  566MOL0     H76392   7.614   1.447  10.420 -0.4917  0.8154  2.2033
  566MOL0     H76393   7.867   1.430  10.424  1.7546 -1.9313 -0.7823
  566MOL0     H76394   8.157   1.040  10.433 -2.8909  2.1202  2.5993
  566MOL0     H76395   8.363   0.942  10.383 -1.5613  0.4217 -0.7281
  566MOL0     H76396  10.429   1.182  10.803 -1.4717 -2.1660 -1.1862
  566MOL0     H76397  10.627   1.193  10.937 -2.2217 -2.5277  0.8271
  566MOL0     H76398  11.239   1.094  10.818 -1.7133  0.6895 -0.3925
  566MOL0     H76399  11.435   1.161  10.962 -2.7451 -5.6870 -2.6600
  566MOL0     H76400  11.385   1.229  11.363  1.3752 -0.7011  0.7282
  566MOL0     H76401  11.466   1.112  11.254  2.1417 -1.0171  2.2232
  566MOL0     H76402  11.688   1.231  11.281  1.0719 -0.2039  1.5079
  566MOL0     H76403  11.612   1.186  11.430 -1.4235 -0.5828 -0.8392
  566MOL0     H76404  11.499   1.421  11.427  0.9797  0.6979  1.6607
  566MOL0     H76405  11.631   1.470  11.319  0.2838 -0.3334 -0.1162
  566MOL0     H76406  11.803   1.379  11.498  0.4063  0.0906 -1.4145
  566MOL0     H76407  11.671   1.352  11.604  2.6775 -2.0483 -0.0446
  566MOL0     H76408  11.729   1.775  11.586  0.0001 -0.0205 -0.9931
  566MOL0     H76409  11.156   1.377  11.204  0.4352  1.9628 -2.1420
  566MOL0     H76410  10.974   1.311  11.059  0.4676  3.4194  2.8091
  567MOL0     O76411   4.098   1.588   0.089  0.1484 -0.0077 -0.4931
  567MOL0     C76412   3.986   1.567   0.045 -0.1795  0.7181  0.3197
  567MOL0     O76413   3.958   1.465  -0.034 -0.0912 -0.3121 -0.2750
  567MOL0     C76414   4.064   1.390  -0.079  0.0522 -0.2905  0.0910
  567MOL0     C76415   4.189   1.438  -0.120 -0.4088 -0.3773  0.4128
  567MOL0     C76416   4.287   1.357  -0.169 -0.0894  0.3370 -0.1413
  567MOL0     C76417   4.256   1.221  -0.189  0.5763 -0.8771  0.6631
  567MOL0     O76418   4.350   1.139  -0.257 -0.3711  0.1418 -0.0819
  567MOL0     C76419   4.468   1.114  -0.183 -0.0368 -0.0665 -0.6765
  567MOL0     C76420   4.438   1.019  -0.058 -0.1886 -0.3050  0.2200
  567MOL0     C76421   4.562   0.941  -0.008  0.6852  0.6405  0.5125
  567MOL0     C76422   4.539   0.869   0.123 -0.7154  0.2662  0.1909
  567MOL0     C76423   4.659   0.765   0.155  0.2767 -0.6057 -0.2088
  567MOL0     C76424   4.786   0.843   0.162  0.0917 -0.2118  0.6706
  567MOL0     C76425   4.904   0.770   0.227 -0.4250  1.0845 -0.5763
  567MOL0     C76426   5.028   0.856   0.246 -0.7296 -0.0449  0.6960
  567MOL0     N76427   5.111   0.846   0.127  0.1497  0.7016 -0.1945
  567MOL0     C76428   5.100   0.904   0.010  0.2688  0.1522  0.0375
  567MOL0     C76429   5.215   0.874  -0.065  0.9619 -0.7664  0.1691
  567MOL0     C76430   5.247   0.930  -0.209 -0.2040  0.2850 -0.4429
  567MOL0     C76431   5.285   0.808  -0.296 -0.4002 -0.2922  0.9100
  567MOL0     C76432   5.164   0.739  -0.359  0.6901  0.0322 -0.4307
  567MOL0     C76433   5.073   0.664  -0.268 -0.2415  0.3601 -0.4283
  567MOL0     O76434   4.975   0.610  -0.356 -0.0939  0.6821 -0.0448
  567MOL0     C76435   4.861   0.571  -0.291 -0.0171  0.0354 -0.4260
  567MOL0     C76436   4.747   0.614  -0.350 -0.1508 -0.2769 -0.4603
  567MOL0     C76437   4.623   0.608  -0.291  0.5983  0.3244 -0.4490
  567MOL0     C76438   4.508   0.655  -0.372 -0.2289 -1.0066 -0.6143
  567MOL0     C76439   4.614   0.537  -0.174  0.0196 -0.3103 -0.6849
  567MOL0     C76440   4.484   0.499  -0.108 -0.5488  0.3927  0.2852
  567MOL0     O76441   4.486   0.502   0.031  0.3889  0.0093  0.2167
  567MOL0     C76442   4.378   0.457   0.102  0.5584  0.2397  0.2261
  567MOL0     C76443   4.325   0.326   0.084  0.4054  0.0101  0.1340
  567MOL0     C76444   4.209   0.290   0.139 -0.4774 -0.8536 -0.1443
  567MOL0     C76445   4.141   0.369   0.225 -0.1858  0.0382 -0.9797
  567MOL0     O76446   4.025   0.329   0.298  0.1175  0.6897  0.6889
  567MOL0     C76447   4.026   0.199   0.353  0.4267  0.7051  0.2553
  567MOL0     C76448   3.884   0.157   0.354  0.5934  1.2080  0.3466
  567MOL0     C76449   3.829   0.139   0.213 -0.2363 -0.1867  0.0212
  567MOL0     C76450   3.686   0.077   0.216  0.8365 -0.1711 -0.3125
  567MOL0     C76451   3.619   0.085   0.082 -0.3091  0.0881  0.3418
  567MOL0     C76452   3.483   0.009   0.094 -0.3052 -0.4803  1.3085
  567MOL0     C76453   3.432  -0.017  -0.053  0.4891 -1.1280  0.3659
  567MOL0     C76454   3.520  -0.098  -0.149  0.7522 -0.7372 -0.9420
  567MOL0    Cl76455   3.437  -0.123  -0.308 -0.2206 -0.6590  0.1164
  567MOL0     C76456   4.205   0.502   0.247 -0.5367  0.0880 -0.1106
  567MOL0     C76457   4.318   0.543   0.182  0.3110  0.0209  0.3721
  567MOL0     O76458   4.386   0.474  -0.182 -0.2303  0.2115 -0.1741
  567MOL0     C76459   4.736   0.501  -0.107 -0.0652 -0.3975 -0.4750
  567MOL0     C76460   4.858   0.519  -0.161 -0.2374  0.1711  0.1639
  567MOL0     N76461   5.294   0.802   0.018 -0.4707 -0.2199 -0.1505
  567MOL0     N76462   5.232   0.794   0.132 -0.2100  0.4708 -0.7777
  567MOL0     C76463   4.125   1.173  -0.159  0.0056  0.3674 -0.8879
  567MOL0     C76464   4.035   1.259  -0.108 -0.0122  0.0932  0.2647
  567MOL0     C76465   3.876   1.655   0.086 -0.2481  0.5269  0.0534
  567MOL0     C76466   3.897   1.770   0.163 -0.6286 -0.2302  0.7872
  567MOL0     C76467   3.792   1.859   0.201  0.1478  0.3300 -0.6858
  567MOL0     C76468   3.664   1.839   0.150 -0.4103  1.3216 -0.3254
  567MOL0     O76469   3.557   1.924   0.174  0.3254 -0.3626  0.7188
  567MOL0     C76470   3.583   2.062   0.185  0.3176 -0.3707  0.5637
  567MOL0     C76471   3.595   2.120   0.045 -0.6010  0.1611 -0.8643
  567MOL0     C76472   3.467   2.105  -0.045  0.0868 -0.0911 -0.3961
  567MOL0     C76473   3.476   2.170  -0.185 -0.4050  0.4020  0.8762
  567MOL0     C76474   3.477   2.309  -0.188 -0.5771 -1.1456 -0.0884
  567MOL0     C76475   3.479   2.433  -0.157 -0.0957  0.2733  0.4633
  567MOL0     C76476   3.638   1.726   0.070  0.7408 -0.6002  0.0353
  567MOL0     C76477   3.743   1.635   0.035 -0.1301  0.4721 -1.0777
  567MOL0     H76478   4.224   1.541  -0.118  0.8441 -0.6210 -2.9193
  567MOL0     H76479   4.391   1.380  -0.193  0.6252 -3.2496 -1.0562
  567MOL0     H76480   4.528   1.059  -0.257  0.6608  0.3702 -0.4522
  567MOL0     H76481   4.518   1.206  -0.151 -0.9474  0.5080 -0.8667
  567MOL0     H76482   4.403   1.088   0.019 -0.1880 -0.5044  0.4023
  567MOL0     H76483   4.348   0.957  -0.072  0.5665 -1.7231  1.3258
  567MOL0     H76484   4.598   0.869  -0.083  0.1478 -2.6218  3.1729
  567MOL0     H76485   4.636   1.019   0.007 -0.7292  1.9214  1.1156
  567MOL0     H76486   4.530   0.939   0.206 -1.5458 -0.5876  0.8451
  567MOL0     H76487   4.448   0.809   0.122  0.6022 -1.8394  0.3086
  567MOL0     H76488   4.636   0.728   0.255 -0.0832  2.7873  1.0775
  567MOL0     H76489   4.663   0.683   0.083  1.1403 -0.9453  0.2067
  567MOL0     H76490   4.816   0.860   0.058  0.0022 -1.8870  0.3323
  567MOL0     H76491   4.771   0.936   0.217 -1.9988 -0.2898  0.3279
  567MOL0     H76492   4.867   0.746   0.328 -0.2642 -2.5335 -1.2523
  567MOL0     H76493   4.927   0.679   0.171 -3.9750  0.6312 -1.5586
  567MOL0     H76494   5.080   0.831   0.339  0.6724 -0.1619 -0.1020
  567MOL0     H76495   4.995   0.960   0.251 -0.6082  0.2618 -2.7266
  567MOL0     H76496   5.017   0.965  -0.023 -0.9796 -0.0458  2.6177
  567MOL0     H76497   5.157   0.982  -0.245  0.5737  2.4032  0.5235
  567MOL0     H76498   5.325   1.007  -0.208  0.7386 -0.6650  0.4209
  567MOL0     H76499   5.351   0.743  -0.238  1.2740  2.7235  2.6232
  567MOL0     H76500   5.349   0.846  -0.376 -1.5198  1.3367  0.7294
  567MOL0     H76501   5.197   0.672  -0.440  0.8617 -0.6105  0.1623
  567MOL0     H76502   5.101   0.820  -0.398 -3.2542 -0.9082  3.1797
  567MOL0     H76503   5.015   0.742  -0.218 -1.9480 -0.5729 -0.8581
  567MOL0     H76504   5.126   0.595  -0.201  0.6417  0.2066 -1.2563
  567MOL0     H76505   4.750   0.661  -0.448  0.6430  0.0876 -0.2676
  567MOL0     H76506   4.469   0.578  -0.439 -1.1706 -0.7075 -0.4216
  567MOL0     H76507   4.430   0.697  -0.308  0.8491 -0.1828  0.1863
  567MOL0     H76508   4.544   0.739  -0.434  2.1192 -0.6223  1.1540
  567MOL0     H76509   4.389   0.255   0.033  2.1026  1.0445  0.7481
  567MOL0     H76510   4.186   0.188   0.108  1.0865 -0.4884 -2.8009
  567MOL0     H76511   4.094   0.129   0.303 -0.6673 -1.2236  1.3389
  567MOL0     H76512   4.058   0.195   0.458  0.7284 -0.7268  0.1216
  567MOL0     H76513   3.863   0.078   0.426 -3.0921  1.6272 -0.0880
  567MOL0     H76514   3.827   0.239   0.399 -1.2928  1.1410 -1.7346
  567MOL0     H76515   3.892   0.079   0.146  0.3068 -0.0805  0.4286
  567MOL0     H76516   3.820   0.234   0.160 -2.1397 -0.2336  0.2082
  567MOL0     H76517   3.695  -0.030   0.237 -0.5971 -0.3025 -0.2163
  567MOL0     H76518   3.614   0.121   0.286  2.2403  0.2932  0.8917
  567MOL0     H76519   3.683   0.032   0.012 -1.2746 -0.5719 -0.0637
  567MOL0     H76520   3.594   0.186   0.049  0.5172  0.0963 -0.2899
  567MOL0     H76521   3.494  -0.082   0.152  0.1992  0.6318  3.0317
  567MOL0     H76522   3.407   0.062   0.152 -4.4025 -3.8912 -0.4340
  567MOL0     H76523   3.414   0.078  -0.103  3.5021  1.0331  2.9613
  567MOL0     H76524   3.338  -0.071  -0.036 -0.3137  0.3797  0.8932
  567MOL0     H76525   3.538  -0.197  -0.106 -1.0503 -1.2675 -1.3261
  567MOL0     H76526   3.625  -0.069  -0.159  0.3178  1.4623  0.3628
  567MOL0     H76527   4.161   0.567   0.322 -2.6123  0.3538 -1.4736
  567MOL0     H76528   4.358   0.640   0.209 -0.4005 -0.2251  2.5859
  567MOL0     H76529   4.742   0.442  -0.016  0.0635  1.6049  0.8688
  567MOL0     H76530   4.949   0.473  -0.123 -0.7764 -2.6015 -1.5835
  567MOL0     H76531   4.099   1.070  -0.181 -2.0010  0.9897 -1.6313
  567MOL0     H76532   3.935   1.226  -0.083  0.9534 -1.2543  2.6528
  567MOL0     H76533   3.997   1.786   0.199  0.4299 -1.4561 -1.3858
  567MOL0     H76534   3.822   1.943   0.263  1.3438 -1.1766  0.8959
  567MOL0     H76535   3.497   2.109   0.236 -0.4694 -3.3380  2.1852
  567MOL0     H76536   3.677   2.089   0.234  0.2891 -3.1208  2.3050
  567MOL0     H76537   3.680   2.072  -0.004 -0.4223 -2.4252  1.6883
  567MOL0     H76538   3.617   2.226   0.056 -0.8499  0.3695 -2.2320
  567MOL0     H76539   3.376   2.141   0.004  0.0726 -0.9161  0.1968
  567MOL0     H76540   3.445   1.998  -0.044 -0.6425  0.0518  0.6941
  567MOL0     H76541   3.394   2.129  -0.245  0.9638 -0.6470 -0.3405
  567MOL0     H76542   3.572   2.145  -0.230 -1.1389 -1.5025  0.2799
  567MOL0     H76543   3.484   2.535  -0.125 -0.9680  0.4813 -0.0438
  567MOL0     H76544   3.538   1.705   0.033  1.0234 -0.8397 -0.6159
  567MOL0     H76545   3.723   1.554  -0.034 -0.4582  2.6906 -3.7996
  568MOL0     O76546  10.975   0.217   2.442  0.5264 -0.0974  0.5023
  568MOL0     C76547  10.975   0.286   2.343 -0.1837 -0.3706  0.0747
  568MOL0     O76548  11.076   0.368   2.303  0.5899 -0.0201  0.8071
  568MOL0     C76549  11.198   0.344   2.360 -0.1486  0.2059 -0.6172
  568MOL0     C76550  11.297   0.291   2.288  0.0221 -0.1288  0.0159
  568MOL0     C76551  11.419   0.273   2.351 -0.7484  0.7556 -0.1624
  568MOL0     C76552  11.457   0.310   2.477 -0.4801 -0.1444 -0.1851
  568MOL0     O76553  11.592   0.285   2.509  0.9919  0.3045 -0.2439
  568MOL0     C76554  11.612   0.249   2.647  0.0054  0.3403  0.0868
  568MOL0     C76555  11.735   0.171   2.672  1.1029  0.0264 -0.2882
  568MOL0     C76556  11.734   0.031   2.617  0.0571 -0.2375 -0.1101
  568MOL0     C76557  11.832  -0.053   2.695  0.0695 -0.0882  1.1492
  568MOL0     C76558  11.860  -0.184   2.607 -0.7728 -0.1630 -0.2753
  568MOL0     C76559  11.747  -0.287   2.636  0.2979  0.3774 -0.2351
  568MOL0     C76560  11.793  -0.439   2.595 -0.1846 -0.4968  1.2929
  568MOL0     C76561  11.685  -0.542   2.567  0.3510  0.8857 -0.9192
  568MOL0     N76562  11.594  -0.486   2.468 -0.2886  0.5248  0.6824
  568MOL0     C76563  11.463  -0.464   2.499 -0.6328 -0.0652  0.3708
  568MOL0     C76564  11.412  -0.427   2.382  0.3680 -0.5349  0.2349
  568MOL0     C76565  11.283  -0.373   2.345 -0.3184  0.0286 -0.4806
  568MOL0     C76566  11.166  -0.454   2.396 -0.4674  0.7131  0.0994
  568MOL0     C76567  11.169  -0.602   2.330 -0.3823 -0.3386  0.0534
  568MOL0     C76568  11.060  -0.689   2.389  0.2119 -0.1066  0.4353
  568MOL0     O76569  10.932  -0.645   2.335 -0.1621 -0.7289  0.1921
  568MOL0     C76570  10.812  -0.704   2.373 -0.3031  0.6237 -0.1557
  568MOL0     C76571  10.812  -0.795   2.483 -1.3301 -0.5640  1.1068
  568MOL0     C76572  10.696  -0.833   2.540  0.9240  0.2672  0.7692
  568MOL0     C76573  10.713  -0.924   2.664  0.4186 -0.3111 -0.0524
  568MOL0     C76574  10.565  -0.786   2.497 -0.5994  0.1330 -0.7984
  568MOL0     C76575  10.433  -0.834   2.546  0.1291 -0.2626  0.6197
  568MOL0     O76576  10.328  -0.800   2.470 -0.8740  0.1246 -0.1312
  568MOL0     C76577  10.203  -0.839   2.509  0.1451  0.0040  1.1833
  568MOL0     C76578  10.175  -0.971   2.511  0.6305 -0.2897 -0.5693
  568MOL0     C76579  10.049  -1.019   2.553  0.1994  0.5326 -0.1074
  568MOL0     C76580   9.945  -0.922   2.590  0.9154  0.2257  0.5215
  568MOL0     O76581   9.816  -0.942   2.627 -0.5937  0.1782  0.1859
  568MOL0     C76582   9.794  -1.070   2.694  0.5620  0.2131 -0.2240
  568MOL0     C76583   9.656  -1.077   2.746 -0.1087  0.6140  0.1590
  568MOL0     C76584   9.651  -1.222   2.804  0.3064 -0.4454 -0.4831
  568MOL0     C76585   9.523  -1.242   2.876 -0.1097 -0.3138 -0.5794
  568MOL0     C76586   9.504  -1.371   2.959 -0.3263  0.4842  0.0599
  568MOL0     C76587   9.413  -1.473   2.878 -0.0718 -0.1904 -0.7968
  568MOL0     C76588   9.262  -1.445   2.906  0.8018  0.7083  0.8786
  568MOL0     C76589   9.175  -1.539   2.832  0.1856  0.9089  1.2808
  568MOL0    Cl76590   9.148  -1.486   2.663  0.3517 -0.1178  0.1604
  568MOL0     C76591   9.983  -0.789   2.581  0.9080  0.5529  1.1057
  568MOL0     C76592  10.105  -0.750   2.540 -0.0007  0.1052  0.1362
  568MOL0     O76593  10.425  -0.902   2.650 -0.7460  0.0720 -0.7193
  568MOL0     C76594  10.570  -0.709   2.382 -0.5243 -0.0747 -0.4103
  568MOL0     C76595  10.687  -0.672   2.321  1.0276 -0.5008  0.6724
  568MOL0     N76596  11.506  -0.443   2.288 -0.4785  0.2470  1.2291
  568MOL0     N76597  11.612  -0.487   2.335 -0.4838  0.0055 -0.5381
  568MOL0     C76598  11.359   0.373   2.548  0.3429 -0.0374 -1.0460
  568MOL0     C76599  11.226   0.377   2.496  0.4867 -0.2651 -0.5013
  568MOL0     C76600  10.863   0.266   2.247  0.4493 -0.2963  1.6347
  568MOL0     C76601  10.755   0.189   2.273  0.4147  0.5427 -1.1065
  568MOL0     C76602  10.650   0.164   2.178 -0.7073  0.6565 -0.6216
  568MOL0     C76603  10.664   0.198   2.047  0.1171  0.1909 -0.1234
  568MOL0     O76604  10.563   0.160   1.959 -0.0498  0.1637 -0.3727
  568MOL0     C76605  10.604   0.140   1.825 -0.2790 -0.4755  1.4510
  568MOL0     C76606  10.490   0.138   1.714  0.2214  0.5490 -0.4130
  568MOL0     C76607  10.360   0.094   1.766  0.2748  0.9502  0.4708
  568MOL0     C76608  10.258   0.212   1.769  0.7532  0.5052  0.6017
  568MOL0     C76609  10.122   0.159   1.800 -0.6322  0.1675 -0.8217
  568MOL0     C76610  10.006   0.137   1.803 -0.3953 -0.1099  0.5671
  568MOL0     C76611  10.773   0.285   2.011 -0.0209 -0.3003  0.6909
  568MOL0     C76612  10.863   0.319   2.111 -0.2887 -0.2401 -0.0030
  568MOL0     H76613  11.299   0.279   2.180  2.6657  0.6092 -0.0944
  568MOL0     H76614  11.508   0.233   2.304 -1.5382  0.0973 -1.1529
  568MOL0     H76615  11.618   0.339   2.708 -3.1060  1.3037 -0.8289
  568MOL0     H76616  11.534   0.181   2.685  0.5851  0.4821  1.6226
  568MOL0     H76617  11.815   0.231   2.627  0.4927  0.4587 -0.7975
  568MOL0     H76618  11.757   0.164   2.779  1.0216 -0.1152 -0.2806
  568MOL0     H76619  11.634  -0.007   2.641 -0.5901  1.3000 -0.2320
  568MOL0     H76620  11.756   0.028   2.510 -2.3040  1.1890 -0.7243
  568MOL0     H76621  11.922   0.007   2.705 -1.1682  1.9804  0.5148
  568MOL0     H76622  11.793  -0.077   2.794  0.1365 -3.6759  0.4506
  568MOL0     H76623  11.863  -0.174   2.498 -3.0623  0.7118 -0.3242
  568MOL0     H76624  11.957  -0.230   2.627 -0.9294 -1.0869 -1.5216
  568MOL0     H76625  11.719  -0.288   2.741 -1.7236  2.4450 -0.6888
  568MOL0     H76626  11.660  -0.255   2.578  1.2453 -0.3192 -2.1303
  568MOL0     H76627  11.857  -0.438   2.506 -0.5877 -3.0595  0.9184
  568MOL0     H76628  11.858  -0.480   2.673  0.7353 -2.7149 -0.5296
  568MOL0     H76629  11.621  -0.570   2.651 -1.8472 -1.0272 -3.0631
  568MOL0     H76630  11.736  -0.632   2.532  1.7541  2.0205 -1.8874
  568MOL0     H76631  11.416  -0.465   2.597 -1.2584 -0.2168  0.0700
  568MOL0     H76632  11.286  -0.275   2.396 -1.3385 -0.3517  0.3598
  568MOL0     H76633  11.282  -0.358   2.237 -0.3210  2.6755 -0.1911
  568MOL0     H76634  11.075  -0.409   2.355  0.4988 -0.8642 -4.2947
  568MOL0     H76635  11.163  -0.473   2.504  2.1467 -2.8910 -0.2793
  568MOL0     H76636  11.266  -0.650   2.344 -0.3762 -0.7490 -1.3281
  568MOL0     H76637  11.144  -0.602   2.224 -0.3187 -0.4204  0.0393
  568MOL0     H76638  11.071  -0.687   2.498 -3.2087 -0.3466  0.8671
  568MOL0     H76639  11.075  -0.788   2.345 -0.0411 -0.3475  0.8871
  568MOL0     H76640  10.906  -0.837   2.516 -0.0104 -0.8126 -2.4643
  568MOL0     H76641  10.668  -1.022   2.649  0.4985 -0.9854  3.3533
  568MOL0     H76642  10.821  -0.938   2.679  1.1339  1.6151 -2.6420
  568MOL0     H76643  10.662  -0.874   2.746 -3.2357 -2.8050 -0.5908
  568MOL0     H76644  10.261  -1.036   2.499 -0.5373 -2.1645  0.5973
  568MOL0     H76645  10.026  -1.125   2.559  1.3057  0.3541  1.6061
  568MOL0     H76646   9.797  -1.154   2.623 -0.4689  1.6038 -2.0108
  568MOL0     H76647   9.869  -1.093   2.770  1.0819  1.4176 -0.3537
  568MOL0     H76648   9.629  -1.000   2.819 -1.6339  0.6527 -0.4081
  568MOL0     H76649   9.581  -1.079   2.666 -0.2065  0.0470  0.2581
  568MOL0     H76650   9.737  -1.249   2.866  1.1598  1.9678 -0.5073
  568MOL0     H76651   9.639  -1.290   2.719  2.6212  1.9831 -2.9287
  568MOL0     H76652   9.519  -1.156   2.943  0.1715  1.3862 -2.6544
  568MOL0     H76653   9.439  -1.230   2.806 -0.2703 -0.9110 -0.5008
  568MOL0     H76654   9.472  -1.348   3.061  2.2157 -1.6076  1.4639
  568MOL0     H76655   9.603  -1.407   2.988  0.9171  3.6102  0.1086
  568MOL0     H76656   9.428  -1.461   2.771 -0.3130 -0.3398 -0.8468
  568MOL0     H76657   9.441  -1.575   2.905 -0.9439 -0.4106 -0.6884
  568MOL0     H76658   9.251  -1.353   2.849  1.3014  1.6350  2.2316
  568MOL0     H76659   9.236  -1.432   3.012 -0.1305  0.7279  0.6517
  568MOL0     H76660   9.089  -1.550   2.898  1.6236 -0.9442  2.9834
  568MOL0     H76661   9.220  -1.638   2.833  1.0743  1.2631  3.6416
  568MOL0     H76662   9.911  -0.708   2.587  1.1691  1.0993 -1.7817
  568MOL0     H76663  10.135  -0.646   2.531 -0.9121  0.2682 -1.1994
  568MOL0     H76664  10.475  -0.685   2.336 -0.2759  0.9894 -0.3907
  568MOL0     H76665  10.682  -0.617   2.228 -0.5253 -1.0854  0.3930
  568MOL0     H76666  11.388   0.418   2.643 -0.2218 -0.4163 -0.6851
  568MOL0     H76667  11.150   0.429   2.552 -0.1296 -2.0427  0.3720
  568MOL0     H76668  10.766   0.151   2.374  3.9275  1.6074 -0.9436
  568MOL0     H76669  10.562   0.102   2.191 -1.5921  1.2627 -3.1487
  568MOL0     H76670  10.678   0.213   1.792 -0.6567  0.5213  2.7225
  568MOL0     H76671  10.656   0.044   1.821  0.9017  0.1911 -0.1835
  568MOL0     H76672  10.516   0.071   1.632 -0.8753  1.1228 -1.2517
  568MOL0     H76673  10.476   0.232   1.661 -0.4066  0.7517  0.0960
  568MOL0     H76674  10.356   0.032   1.856 -1.2078 -0.9481 -0.8077
  568MOL0     H76675  10.325   0.017   1.698  2.7374 -0.4414  0.6754
  568MOL0     H76676  10.251   0.258   1.670  0.2105  2.6023  1.5483
  568MOL0     H76677  10.291   0.298   1.829 -1.3419  3.1815 -1.8096
  568MOL0     H76678   9.900   0.128   1.794 -0.8311  3.2432  0.9573
  568MOL0     H76679  10.794   0.332   1.916  3.5444 -2.6361  0.1080
  568MOL0     H76680  10.941   0.388   2.083 -1.6683  0.5362 -2.2200
  569MOL0     O76681   3.561   1.559   6.031  0.9517  0.8414 -0.9940
  569MOL0     C76682   3.438   1.585   6.039 -0.1039  0.4098 -0.4413
  569MOL0     O76683   3.338   1.483   6.058 -0.2390 -0.4448 -0.0449
  569MOL0     C76684   3.378   1.348   6.054 -0.7290 -0.4803  0.0743
  569MOL0     C76685   3.321   1.277   5.953 -0.7215 -0.2119 -0.4759
  569MOL0     C76686   3.343   1.144   5.936  0.2121  0.3884  0.3967
  569MOL0     C76687   3.436   1.085   6.018 -1.5244  0.4975 -1.3831
  569MOL0     O76688   3.471   0.947   5.991 -0.0750 -0.4902 -0.2943
  569MOL0     C76689   3.581   0.889   6.059 -0.3801 -0.1632  0.6962
  569MOL0     C76690   3.628   0.761   5.990  0.3821 -0.3409  0.5263
  569MOL0     C76691   3.716   0.791   5.864  0.3802 -0.1675 -0.6508
  569MOL0     C76692   3.744   0.665   5.791 -0.2466 -0.3193  1.0032
  569MOL0     C76693   3.842   0.674   5.672  0.3778  0.6084 -0.0685
  569MOL0     C76694   3.801   0.765   5.560 -0.0695  0.1957  0.2920
  569MOL0     C76695   3.655   0.744   5.515  0.5578  0.2790 -0.0235
  569MOL0     C76696   3.625   0.824   5.386 -0.4654  0.9061  0.6446
  569MOL0     N76697   3.691   0.762   5.259  0.8735  0.2916 -0.6875
  569MOL0     C76698   3.627   0.754   5.139  0.0452  0.2199 -0.3682
  569MOL0     C76699   3.721   0.728   5.046 -1.0865  0.8369 -0.6113
  569MOL0     C76700   3.681   0.718   4.902 -0.8888  0.0191 -0.1539
  569MOL0     C76701   3.767   0.618   4.824 -0.2050 -0.4564 -0.8491
  569MOL0     C76702   3.690   0.539   4.732 -0.4460  1.1193  0.7868
  569MOL0     C76703   3.789   0.434   4.659 -0.1211  0.1508 -0.1913
  569MOL0     O76704   3.714   0.363   4.557  0.6260 -0.3787 -0.4585
  569MOL0     C76705   3.753   0.375   4.429  0.4410 -0.3840  0.6948
  569MOL0     C76706   3.793   0.501   4.369  0.5745  0.2420  0.9500
  569MOL0     C76707   3.867   0.512   4.244  0.5756  1.0996  0.2827
  569MOL0     C76708   3.902   0.655   4.203  0.4090 -0.1635  0.1077
  569MOL0     C76709   3.895   0.385   4.178  0.9810  0.4748 -0.7659
  569MOL0     C76710   3.974   0.367   4.060 -0.7826 -0.5833 -0.0642
  569MOL0     O76711   4.069   0.466   4.042  0.0160  0.2838 -0.2817
  569MOL0     C76712   4.123   0.495   3.924 -0.1126 -0.3116  0.4209
  569MOL0     C76713   4.152   0.635   3.893 -0.8169  0.3364  0.7351
  569MOL0     C76714   4.213   0.675   3.772  0.0660 -0.2688  0.3886
  569MOL0     C76715   4.244   0.582   3.678  1.2086 -0.4544  0.0404
  569MOL0     O76716   4.300   0.637   3.565 -0.1180 -0.2006  0.2465
  569MOL0     C76717   4.437   0.619   3.537 -0.4912  0.9531  0.1225
  569MOL0     C76718   4.458   0.718   3.422 -0.0757 -0.4752 -0.2476
  569MOL0     C76719   4.376   0.704   3.291 -0.0867  0.2985  0.1493
  569MOL0     C76720   4.449   0.583   3.212  0.4430 -0.8980  0.3593
  569MOL0     C76721   4.445   0.607   3.063 -0.3143  0.2381 -0.4313
  569MOL0     C76722   4.300   0.620   3.006 -0.3979  0.9977  0.1095
  569MOL0     C76723   4.311   0.636   2.850  0.3857  0.1517  0.0965
  569MOL0     C76724   4.384   0.756   2.799 -0.5198 -0.3983  0.1287
  569MOL0    Cl76725   4.384   0.768   2.621  0.1889  0.3713  0.0500
  569MOL0     C76726   4.232   0.445   3.708  0.1915 -0.0035  0.1873
  569MOL0     C76727   4.183   0.406   3.837  0.3690  0.0149  0.2344
  569MOL0     O76728   3.944   0.286   3.978  0.6465 -0.3014 -0.2376
  569MOL0     C76729   3.843   0.270   4.235  0.1445 -0.5733 -0.1330
  569MOL0     C76730   3.773   0.266   4.355  0.0502  1.1751 -0.5434
  569MOL0     N76731   3.843   0.696   5.115  0.6787 -0.3044  0.4485
  569MOL0     N76732   3.820   0.736   5.234  0.3427 -0.3528 -0.4532
  569MOL0     C76733   3.500   1.157   6.121  0.6767  0.4275 -0.3711
  569MOL0     C76734   3.469   1.285   6.138  1.0337  0.3758 -0.6685
  569MOL0     C76735   3.386   1.723   6.018 -0.3143  0.2226  0.2643
  569MOL0     C76736   3.247   1.745   6.031 -0.4208  0.1203 -0.4146
  569MOL0     C76737   3.204   1.880   6.023 -0.5874  0.6603  0.1580
  569MOL0     C76738   3.279   1.994   5.997  0.0932  0.0063  0.1106
  569MOL0     O76739   3.221   2.111   5.990 -0.1613 -0.0347 -0.3850
  569MOL0     C76740   3.292   2.220   5.928  0.0592 -0.0099  0.0097
  569MOL0     C76741   3.200   2.331   5.883  0.3902  0.2117 -1.0509
  569MOL0     C76742   3.279   2.460   5.872  0.6619  1.2775 -0.5143
  569MOL0     C76743   3.161   2.558   5.858 -0.3575 -0.2646 -0.1584
  569MOL0     C76744   3.206   2.698   5.858  0.1980  0.1795  0.2319
  569MOL0     C76745   3.218   2.822   5.854 -0.6596  0.1811 -0.3690
  569MOL0     C76746   3.419   1.962   5.987  0.4821  0.2115  0.5488
  569MOL0     C76747   3.475   1.836   6.011 -0.3136  0.7918  0.5113
  569MOL0     H76748   3.266   1.335   5.879  1.8761  0.6533 -1.8711
  569MOL0     H76749   3.298   1.085   5.857 -1.2036 -0.2466  1.6180
  569MOL0     H76750   3.672   0.943   6.085  0.5084  0.2962 -2.8411
  569MOL0     H76751   3.528   0.863   6.151 -1.1674  1.0935  0.6224
  569MOL0     H76752   3.682   0.710   6.070  1.8205  1.0386  0.4950
  569MOL0     H76753   3.530   0.722   5.963 -2.1540  5.1885  0.2359
  569MOL0     H76754   3.661   0.857   5.797  0.7122  1.1814  0.3635
  569MOL0     H76755   3.817   0.822   5.891 -0.3032  0.4004  1.5036
  569MOL0     H76756   3.788   0.595   5.862 -0.2659  0.1214  1.4574
  569MOL0     H76757   3.647   0.621   5.767 -0.1520 -1.3950  2.4770
  569MOL0     H76758   3.939   0.701   5.715  1.0741 -0.5724 -0.8377
  569MOL0     H76759   3.840   0.571   5.634 -0.7475  0.6068 -0.0258
  569MOL0     H76760   3.803   0.869   5.592 -0.7469  1.0525 -2.2303
  569MOL0     H76761   3.870   0.755   5.476 -1.2559 -0.3990 -0.6454
  569MOL0     H76762   3.650   0.637   5.494 -2.2669  0.2991  0.1802
  569MOL0     H76763   3.580   0.762   5.593  1.4595 -0.7735  1.1166
  569MOL0     H76764   3.680   0.918   5.388  2.5126 -0.7072  0.2315
  569MOL0     H76765   3.516   0.825   5.373 -0.3580  0.7207 -0.3562
  569MOL0     H76766   3.519   0.762   5.130  0.0972  0.4109 -0.8714
  569MOL0     H76767   3.577   0.684   4.904 -0.2028 -2.3182  2.6331
  569MOL0     H76768   3.685   0.813   4.848  2.5540 -0.4363 -0.9561
  569MOL0     H76769   3.822   0.556   4.895 -0.9513  2.3080  2.3841
  569MOL0     H76770   3.837   0.678   4.764  1.4985 -1.7636 -0.2304
  569MOL0     H76771   3.649   0.601   4.652  0.5957 -0.3376 -0.9603
  569MOL0     H76772   3.619   0.483   4.792 -1.5916 -0.9748 -2.2841
  569MOL0     H76773   3.828   0.361   4.730  0.8552 -3.0027 -3.6342
  569MOL0     H76774   3.882   0.475   4.617  0.7091  0.8241  2.1694
  569MOL0     H76775   3.780   0.595   4.423  0.3586  1.1920 -0.6712
  569MOL0     H76776   3.844   0.728   4.261 -1.2909 -0.6336 -0.9194
  569MOL0     H76777   4.006   0.683   4.221  0.4327 -1.0006  1.4009
  569MOL0     H76778   3.878   0.656   4.096 -0.8843  0.4641  0.3766
  569MOL0     H76779   4.086   0.707   3.943 -3.5357 -0.6868 -1.1356
  569MOL0     H76780   4.230   0.780   3.747  0.7651 -0.8077 -1.5543
  569MOL0     H76781   4.499   0.640   3.625  0.6195  1.1923 -0.6954
  569MOL0     H76782   4.450   0.514   3.508  0.3977  1.3081 -0.8182
  569MOL0     H76783   4.434   0.816   3.464 -2.4347 -1.4059  0.7508
  569MOL0     H76784   4.564   0.713   3.394 -0.0781 -0.2408 -0.2964
  569MOL0     H76785   4.381   0.800   3.239 -0.4341  1.0627  1.4716
  569MOL0     H76786   4.274   0.673   3.315 -0.9237  1.8025 -1.2567
  569MOL0     H76787   4.556   0.569   3.232  0.8475 -1.1884 -1.7639
  569MOL0     H76788   4.401   0.491   3.249  0.5427 -0.6045  1.2454
  569MOL0     H76789   4.495   0.522   3.015 -2.0227 -1.8049  1.1981
  569MOL0     H76790   4.502   0.697   3.039  1.6143 -0.8557 -0.1979
  569MOL0     H76791   4.248   0.530   3.042 -2.5703  1.8849 -0.6401
  569MOL0     H76792   4.250   0.705   3.053 -3.4646 -0.1620 -0.8463
  569MOL0     H76793   4.207   0.638   2.817  0.4536  0.3631 -0.1097
  569MOL0     H76794   4.350   0.546   2.802  0.8967  0.3179  0.1962
  569MOL0     H76795   4.490   0.751   2.827 -0.0285  2.9121 -0.7233
  569MOL0     H76796   4.337   0.842   2.848 -3.3281 -1.7418  0.0031
  569MOL0     H76797   4.272   0.360   3.653 -0.8672 -1.1794  1.1825
  569MOL0     H76798   4.175   0.300   3.861  0.6872  0.2638  1.4950
  569MOL0     H76799   3.849   0.173   4.188  1.9614 -0.3583 -0.4221
  569MOL0     H76800   3.749   0.165   4.387  2.9555 -0.8055 -3.8795
  569MOL0     H76801   3.569   1.104   6.186  0.6667 -2.5497 -2.5592
  569MOL0     H76802   3.526   1.337   6.214 -0.0354 -0.6612  0.9013
  569MOL0     H76803   3.181   1.660   6.044 -1.8679  0.8209 -2.6985
  569MOL0     H76804   3.103   1.905   6.054  0.2397  0.9431  2.9445
  569MOL0     H76805   3.372   2.258   5.993  0.3870 -0.3563 -0.1836
  569MOL0     H76806   3.341   2.178   5.840  0.9717 -0.8659  0.9001
  569MOL0     H76807   3.130   2.351   5.966 -0.2532 -2.1835 -0.9430
  569MOL0     H76808   3.147   2.314   5.789  2.1582 -1.2016 -1.8348
  569MOL0     H76809   3.344   2.473   5.785  3.2576  2.2206  1.4116
  569MOL0     H76810   3.337   2.483   5.962  1.9670  3.5277 -1.8366
  569MOL0     H76811   3.101   2.557   5.949 -1.5936 -0.9681 -0.9575
  569MOL0     H76812   3.100   2.530   5.772  0.7555 -2.1606 -0.3785
  569MOL0     H76813   3.226   2.929   5.858 -0.3286  0.1775 -0.8563
  569MOL0     H76814   3.495   2.034   5.959 -1.1783  2.0868  0.6628
  569MOL0     H76815   3.583   1.832   6.018 -0.1469  3.4443  0.2379
  570MOL0     O76816  10.496   9.776   4.904 -0.2474  0.1160 -0.4410
  570MOL0     C76817  10.466   9.831   4.804  0.1496  0.2473  1.0279
  570MOL0     O76818  10.370   9.933   4.796 -0.4622 -0.2924  0.0469
  570MOL0     C76819  10.279   9.959   4.899 -0.4578  0.4303 -0.0015
  570MOL0     C76820  10.295   9.921   5.036  0.6195 -0.8974  0.4909
  570MOL0     C76821  10.183   9.931   5.128 -0.1292  0.2691  0.3322
  570MOL0     C76822  10.063   9.984   5.088  0.6590 -0.1685  0.9046
  570MOL0     O76823   9.956   9.990   5.177 -0.1215 -0.0715 -0.0683
  570MOL0     C76824   9.915   9.863   5.242  0.0730 -0.4205  0.5796
  570MOL0     C76825   9.778   9.839   5.171  0.5273  0.3919 -0.1522
  570MOL0     C76826   9.700   9.724   5.240  0.2034 -0.6908 -0.5467
  570MOL0     C76827   9.565   9.713   5.191 -0.2103 -0.2885 -0.0321
  570MOL0     C76828   9.487   9.594   5.248  0.4380 -0.3619 -0.8104
  570MOL0     C76829   9.420   9.603   5.388 -0.6301 -0.5119  0.1865
  570MOL0     C76830   9.494   9.691   5.494  0.8799 -0.7492 -0.0312
  570MOL0     C76831   9.432   9.695   5.631 -0.0485  0.0230  0.2173
  570MOL0     N76832   9.304   9.630   5.638 -0.1547  0.0202 -0.0939
  570MOL0     C76833   9.278   9.522   5.719  0.3078 -0.3617  0.3983
  570MOL0     C76834   9.146   9.499   5.710  0.0542 -0.2495  0.5208
  570MOL0     C76835   9.062   9.395   5.775 -0.0839  0.3406 -0.1766
  570MOL0     C76836   9.006   9.444   5.907  0.7280 -0.7039 -0.5655
  570MOL0     C76837   8.987   9.345   6.024 -0.8650  0.4190 -0.1741
  570MOL0     C76838   8.871   9.252   6.015  0.6568  0.1549  0.1568
  570MOL0     O76839   8.754   9.321   5.976  0.3621 -0.0351  0.1291
  570MOL0     C76840   8.635   9.259   5.942  0.3453 -0.4864 -0.1212
  570MOL0     C76841   8.599   9.144   6.005 -0.0272  0.0162 -0.1129
  570MOL0     C76842   8.476   9.079   5.977  0.1417  0.0547  0.1094
  570MOL0     C76843   8.429   8.972   6.077 -0.9123 -0.5796  0.5861
  570MOL0     C76844   8.395   9.129   5.872 -0.7373 -0.3620  0.0029
  570MOL0     C76845   8.256   9.080   5.850 -0.6481  0.0434 -1.3715
  570MOL0     O76846   8.178   9.166   5.778  0.3278  0.5960 -0.6236
  570MOL0     C76847   8.052   9.126   5.767 -0.3515 -0.7987  0.5828
  570MOL0     C76848   7.948   9.150   5.863  0.7701  0.9803  0.1081
  570MOL0     C76849   7.825   9.092   5.839  1.0938 -0.0738  1.2464
  570MOL0     C76850   7.797   9.035   5.712  0.4796 -0.2427 -0.1311
  570MOL0     O76851   7.677   8.975   5.682  0.0329  0.7803 -0.6415
  570MOL0     C76852   7.619   8.891   5.786  0.7989  0.3481 -0.2780
  570MOL0     C76853   7.484   8.946   5.827  0.0983 -0.3281 -0.3824
  570MOL0     C76854   7.407   8.842   5.917 -0.6724 -0.9036 -0.5153
  570MOL0     C76855   7.270   8.883   5.967  0.6271  0.0063  0.9206
  570MOL0     C76856   7.214   8.793   6.073 -0.4711  0.8546 -0.3430
  570MOL0     C76857   7.076   8.841   6.126 -0.0193 -0.0051  0.5739
  570MOL0     C76858   6.977   8.880   6.014  0.4131  0.0482 -0.9535
  570MOL0     C76859   6.849   8.929   6.085  0.3421  0.1637  0.4559
  570MOL0    Cl76860   6.857   9.070   6.193 -0.8462 -0.4445  0.0478
  570MOL0     C76861   7.896   9.014   5.617 -0.8729 -0.0744 -0.2366
  570MOL0     C76862   8.028   9.060   5.650 -0.3598  0.5201 -0.3133
  570MOL0     O76863   8.216   8.974   5.906 -1.1819 -0.2194 -0.4971
  570MOL0     C76864   8.445   9.241   5.803 -0.1099  0.6063 -0.2465
  570MOL0     C76865   8.557   9.309   5.836  0.8870  0.1136 -0.0412
  570MOL0     N76866   9.094   9.608   5.639  0.2439 -0.6141  0.1082
  570MOL0     N76867   9.191   9.679   5.597  0.1275 -0.3184 -0.4523
  570MOL0     C76868  10.052  10.039   4.956 -0.9802 -0.2938 -0.5205
  570MOL0     C76869  10.166  10.034   4.874  0.0514  0.8866  0.1400
  570MOL0     C76870  10.535   9.805   4.672  1.5595  0.0621 -0.7306
  570MOL0     C76871  10.495   9.888   4.565 -0.5711  0.5452  1.0000
  570MOL0     C76872  10.560   9.875   4.446  0.4777 -0.2086  0.4940
  570MOL0     C76873  10.644   9.774   4.417  0.2198  0.3043 -0.2457
  570MOL0     O76874  10.697   9.788   4.293 -0.0094  0.5199  0.0025
  570MOL0     C76875  10.827   9.730   4.265 -0.3765  0.1326 -0.2011
  570MOL0     C76876  10.939   9.814   4.338  0.3462  0.3664  0.6103
  570MOL0     C76877  11.092   9.767   4.328  0.5721  0.0802 -0.3295
  570MOL0     C76878  11.140   9.747   4.189  0.4295  0.4562  0.1225
  570MOL0     C76879  11.102   9.857   4.103  0.2014 -0.0043  0.8911
  570MOL0     C76880  11.056   9.943   4.031  0.5627 -0.6961  0.2466
  570MOL0     C76881  10.682   9.687   4.523 -0.3340 -0.5794  0.7699
  570MOL0     C76882  10.631   9.698   4.649  0.2059  0.0729 -0.1280
  570MOL0     H76883  10.395   9.904   5.075  0.5840  1.1100  1.6163
  570MOL0     H76884  10.183   9.909   5.234 -1.6301 -0.6309  0.1761
  570MOL0     H76885   9.991   9.786   5.225  2.1684  1.3612  1.4393
  570MOL0     H76886   9.907   9.868   5.351  1.1423  1.5887  0.6083
  570MOL0     H76887   9.718   9.931   5.174  2.2331  1.5568 -0.6631
  570MOL0     H76888   9.789   9.810   5.066  0.4270 -0.0223 -0.0503
  570MOL0     H76889   9.760   9.639   5.206  1.0984  0.6596 -2.5797
  570MOL0     H76890   9.699   9.741   5.348 -3.7641 -1.1518 -0.3562
  570MOL0     H76891   9.497   9.794   5.220 -1.2551 -1.5774  1.2750
  570MOL0     H76892   9.565   9.702   5.082  1.9465 -1.8298  0.0487
  570MOL0     H76893   9.400   9.561   5.190 -1.4096 -2.6322  2.8819
  570MOL0     H76894   9.570   9.523   5.255  1.6528  0.8015 -2.4386
  570MOL0     H76895   9.318   9.638   5.373 -0.5791 -0.1600  0.6499
  570MOL0     H76896   9.413   9.505   5.435  0.4033 -0.7843 -0.1939
  570MOL0     H76897   9.597   9.661   5.511  0.8368  0.1467  2.1064
  570MOL0     H76898   9.516   9.790   5.452 -2.4699  0.0390 -0.2060
  570MOL0     H76899   9.418   9.801   5.655 -0.5236  0.0160 -0.0149
  570MOL0     H76900   9.505   9.647   5.697 -0.0064 -2.6357 -1.6023
  570MOL0     H76901   9.347   9.462   5.777 -0.7627 -0.7365  1.3229
  570MOL0     H76902   8.983   9.366   5.704  0.4832  0.7430 -0.9899
  570MOL0     H76903   9.125   9.306   5.774 -1.5327 -0.7210 -1.6181
  570MOL0     H76904   8.914   9.499   5.887  2.3596  2.1436 -0.7981
  570MOL0     H76905   9.066   9.524   5.952  0.1112 -0.9201  0.7116
  570MOL0     H76906   8.969   9.407   6.113 -4.3050  0.4121 -0.7080
  570MOL0     H76907   9.077   9.289   6.053  0.5815  2.6917 -0.0364
  570MOL0     H76908   8.857   9.209   6.115 -1.5137  1.2119  0.3554
  570MOL0     H76909   8.880   9.163   5.952 -2.3781 -0.4798  0.4929
  570MOL0     H76910   8.666   9.103   6.080  1.8361 -1.6021 -2.5527
  570MOL0     H76911   8.508   8.957   6.151 -0.0556  2.5272  0.4138
  570MOL0     H76912   8.338   8.998   6.131 -0.2974 -0.2215  1.4710
  570MOL0     H76913   8.403   8.877   6.028 -1.4741  1.1360 -2.7175
  570MOL0     H76914   7.976   9.190   5.960  3.4089 -3.0555  1.2706
  570MOL0     H76915   7.745   9.089   5.912  0.4364  2.2589  0.7056
  570MOL0     H76916   7.604   8.786   5.759 -2.2975  0.6258 -0.0210
  570MOL0     H76917   7.678   8.880   5.878  1.2037  1.2270 -0.4259
  570MOL0     H76918   7.485   9.048   5.866 -0.0437 -0.5900  0.3277
  570MOL0     H76919   7.418   8.947   5.740  1.8268 -2.9072 -1.8398
  570MOL0     H76920   7.471   8.827   6.004 -1.4742  3.1377  1.0112
  570MOL0     H76921   7.405   8.740   5.877 -0.2746 -2.3794  2.9302
  570MOL0     H76922   7.268   8.989   5.996 -0.6455  0.8002 -1.7818
  570MOL0     H76923   7.205   8.885   5.879  2.7146 -1.8189 -0.7520
  570MOL0     H76924   7.273   8.800   6.164  1.5728  0.1105 -1.5281
  570MOL0     H76925   7.219   8.691   6.034  1.6013  0.3594  1.0788
  570MOL0     H76926   7.045   8.758   6.190 -0.4151 -0.6132 -0.3721
  570MOL0     H76927   7.091   8.932   6.184 -1.5499  1.9200 -1.8596
  570MOL0     H76928   6.947   8.806   5.940  3.4311 -0.1837 -2.0836
  570MOL0     H76929   7.009   8.962   5.948  0.1993 -0.7568 -2.0724
  570MOL0     H76930   6.809   8.848   6.147 -0.7844  0.1599 -0.2526
  570MOL0     H76931   6.776   8.946   6.006  0.4172  2.0795  0.7626
  570MOL0     H76932   7.862   8.956   5.531 -3.7945  1.3783 -0.1953
  570MOL0     H76933   8.111   9.043   5.582 -1.5429 -2.0179 -1.2450
  570MOL0     H76934   8.394   9.295   5.724  2.5011  0.7905 -1.9258
  570MOL0     H76935   8.574   9.403   5.785  0.8382  1.4034  2.1982
  570MOL0     H76936   9.964  10.099   4.937 -0.9211  0.2373  0.7244
  570MOL0     H76937  10.172  10.082   4.776 -1.2965  0.1265 -0.3535
  570MOL0     H76938  10.422   9.968   4.563  1.1746  2.2110 -1.1900
  570MOL0     H76939  10.543   9.939   4.360  3.9246 -0.0816 -0.2302
  570MOL0     H76940  10.833   9.628   4.303 -0.0757  0.9749  2.1959
  570MOL0     H76941  10.836   9.733   4.156  0.2886 -1.0382 -0.1950
  570MOL0     H76942  10.921   9.792   4.444 -1.2064 -1.8198 -0.0341
  570MOL0     H76943  10.933   9.918   4.305 -1.3521  0.0340 -0.2119
  570MOL0     H76944  11.103   9.671   4.380  0.3409 -0.6259 -1.5412
  570MOL0     H76945  11.158   9.833   4.385  1.1100  0.5444 -1.4654
  570MOL0     H76946  11.093   9.655   4.152  3.7419 -1.8056  1.1202
  570MOL0     H76947  11.247   9.726   4.179  0.5367  0.5125  1.0387
  570MOL0     H76948  11.022  10.023   3.968  1.9783  0.3149  0.7456
  570MOL0     H76949  10.752   9.608   4.498 -0.9422 -1.4007  1.6006
  570MOL0     H76950  10.671   9.632   4.725 -1.4638 -0.6385  0.1951
  571MOL0     O76951   5.472   0.360   4.362  0.4410 -0.1009 -0.3115
  571MOL0     C76952   5.384   0.356   4.272  0.7865  0.6685  0.1596
  571MOL0     O76953   5.250   0.319   4.282 -0.6547 -0.7776  0.1574
  571MOL0     C76954   5.214   0.240   4.383  0.3071 -0.3882  0.4349
  571MOL0     C76955   5.097   0.278   4.443 -0.3199 -0.6263  0.1902
  571MOL0     C76956   5.046   0.207   4.552 -0.8845  1.1199 -0.0201
  571MOL0     C76957   5.104   0.093   4.597  0.7722 -0.1129 -0.1890
  571MOL0     O76958   5.047  -0.004   4.679 -0.5437  0.1441 -0.1734
  571MOL0     C76959   4.901  -0.015   4.686 -0.2424 -0.6476  0.5586
  571MOL0     C76960   4.857  -0.164   4.703  0.1880 -0.8262 -0.1889
  571MOL0     C76961   4.789  -0.180   4.840 -0.9807  0.1508  0.3277
  571MOL0     C76962   4.721  -0.306   4.872 -0.9459  0.2349  0.4388
  571MOL0     C76963   4.645  -0.286   5.004  1.1116  0.3287 -0.4175
  571MOL0     C76964   4.596  -0.406   5.067  0.0835  0.1844  0.1584
  571MOL0     C76965   4.560  -0.402   5.214  0.1747 -0.7662  0.2789
  571MOL0     C76966   4.468  -0.521   5.250  0.8715  0.1710 -0.4661
  571MOL0     N76967   4.450  -0.533   5.401 -0.2328  0.4712  0.0753
  571MOL0     C76968   4.410  -0.434   5.491 -0.4874 -0.1972 -0.0136
  571MOL0     C76969   4.440  -0.488   5.606 -0.2812 -0.1900 -0.5095
  571MOL0     C76970   4.458  -0.403   5.736 -0.9499  0.1731  0.3283
  571MOL0     C76971   4.334  -0.350   5.797 -1.1121  0.3928 -0.2018
  571MOL0     C76972   4.228  -0.326   5.693  0.2774  0.9128  0.3168
  571MOL0     C76973   4.111  -0.271   5.768  0.4930  0.1095 -0.1733
  571MOL0     O76974   3.995  -0.317   5.697  0.1751 -0.0401  0.3744
  571MOL0     C76975   3.870  -0.269   5.745  0.5682  0.6996 -0.7105
  571MOL0     C76976   3.761  -0.358   5.713  0.6536 -0.5926 -0.3294
  571MOL0     C76977   3.633  -0.307   5.722 -0.0404 -0.2646 -0.1688
  571MOL0     C76978   3.533  -0.391   5.650 -0.3793 -0.0132  0.3923
  571MOL0     C76979   3.605  -0.190   5.787 -0.5640  0.3217  0.1359
  571MOL0     C76980   3.468  -0.145   5.828  0.2787 -0.0305 -0.3733
  571MOL0     O76981   3.447  -0.014   5.873 -0.4292  0.5005 -0.0242
  571MOL0     C76982   3.322   0.039   5.861  0.4115  0.1808 -0.6227
  571MOL0     C76983   3.244   0.060   5.970  0.7774 -0.1454  0.7626
  571MOL0     C76984   3.121   0.139   5.951 -0.2477 -0.4223 -0.1281
  571MOL0     C76985   3.085   0.182   5.820 -0.2305 -0.3669  0.4927
  571MOL0     O76986   2.969   0.249   5.819  0.7930  0.0284 -0.0806
  571MOL0     C76987   2.904   0.270   5.690 -0.4361 -0.5846  0.7443
  571MOL0     C76988   2.763   0.335   5.710 -0.6405  0.9026 -0.1948
  571MOL0     C76989   2.684   0.274   5.826 -0.4077  1.2995 -0.5550
  571MOL0     C76990   2.629   0.140   5.784 -0.5248 -0.1270  0.7063
  571MOL0     C76991   2.543   0.077   5.892  0.7465  0.7069  0.0616
  571MOL0     C76992   2.405   0.135   5.908 -0.2130 -0.0876  0.1432
  571MOL0     C76993   2.333   0.044   6.003 -0.1514  0.5995 -0.6045
  571MOL0     C76994   2.186   0.071   6.021  0.1574 -0.6667  0.2208
  571MOL0    Cl76995   2.096   0.070   5.857  0.3482  0.0753 -0.1569
  571MOL0     C76996   3.156   0.137   5.705  0.7187  0.6204  0.2890
  571MOL0     C76997   3.278   0.078   5.727  0.0408  0.9160 -0.1558
  571MOL0     O76998   3.383  -0.229   5.842 -0.4204  0.0415 -0.3585
  571MOL0     C76999   3.716  -0.111   5.837  0.2527 -0.7753  0.0105
  571MOL0     C77000   3.845  -0.152   5.808  0.3456 -0.2701  0.2924
  571MOL0     N77001   4.456  -0.626   5.600 -0.4842  0.5694  0.0138
  571MOL0     N77002   4.466  -0.649   5.471  0.1838  0.3643  0.5231
  571MOL0     C77003   5.237   0.072   4.558 -0.2155 -0.9680  0.0160
  571MOL0     C77004   5.298   0.157   4.458  0.1204  0.8141 -0.1234
  571MOL0     C77005   5.437   0.391   4.144 -0.1537 -0.0616 -0.5088
  571MOL0     C77006   5.578   0.391   4.121  0.2293 -0.0979  0.2031
  571MOL0     C77007   5.633   0.424   3.999 -0.0396 -0.0795 -0.4241
  571MOL0     C77008   5.554   0.465   3.890 -0.0075 -0.1664 -0.6359
  571MOL0     O77009   5.618   0.478   3.768  0.1308  0.7170  0.5242
  571MOL0     C77010   5.540   0.528   3.662 -0.5033 -0.9739 -0.0662
  571MOL0     C77011   5.618   0.517   3.531 -0.3911 -0.0475  0.2193
  571MOL0     C77012   5.755   0.586   3.539 -0.3363 -0.4015  0.1741
  571MOL0     C77013   5.840   0.567   3.412 -0.9761  0.1085 -0.4324
  571MOL0     C77014   5.783   0.606   3.280 -0.5493  0.7694 -0.3674
  571MOL0     C77015   5.731   0.642   3.181 -0.3745 -0.8698 -0.3109
  571MOL0     C77016   5.409   0.470   3.907 -0.0562  1.1600 -0.5621
  571MOL0     C77017   5.356   0.426   4.035  0.7552  0.1712 -0.6719
  571MOL0     H77018   5.051   0.368   4.404  0.4408  0.5653  1.9037
  571MOL0     H77019   4.956   0.237   4.606  0.6476  0.8383  2.9045
  571MOL0     H77020   4.858   0.034   4.774 -0.3062 -1.2397  0.8647
  571MOL0     H77021   4.848   0.029   4.601  1.2905 -0.2274 -0.2048
  571MOL0     H77022   4.786  -0.189   4.624  0.4513  1.8434 -1.3746
  571MOL0     H77023   4.942  -0.233   4.699 -1.5253 -3.0352 -0.7683
  571MOL0     H77024   4.866  -0.171   4.917 -0.9733  0.6602  0.2673
  571MOL0     H77025   4.714  -0.101   4.853 -3.3250 -1.8640 -0.2886
  571MOL0     H77026   4.669  -0.358   4.791  2.4074 -3.6591  0.4493
  571MOL0     H77027   4.803  -0.378   4.886 -0.3521  0.8448  0.1422
  571MOL0     H77028   4.697  -0.221   5.076 -1.1848  0.2514  1.4326
  571MOL0     H77029   4.561  -0.221   4.975  2.5961  3.2681  1.3184
  571MOL0     H77030   4.503  -0.441   5.022  0.0197 -1.1213  1.2282
  571MOL0     H77031   4.667  -0.488   5.053  0.1894  0.1290  0.9380
  571MOL0     H77032   4.649  -0.404   5.277  0.1095  0.5056  0.4461
  571MOL0     H77033   4.507  -0.308   5.232  0.0740 -1.0280  1.3992
  571MOL0     H77034   4.495  -0.615   5.202 -0.6282 -2.1267  2.8048
  571MOL0     H77035   4.370  -0.498   5.207  1.0188  3.8504  0.7746
  571MOL0     H77036   4.393  -0.329   5.470  1.2845 -0.1611 -1.5854
  571MOL0     H77037   4.519  -0.465   5.802 -1.9042  0.8349  1.8801
  571MOL0     H77038   4.510  -0.317   5.692  2.7015 -3.1209 -2.5733
  571MOL0     H77039   4.359  -0.254   5.843 -0.2627 -0.3681  0.9882
  571MOL0     H77040   4.309  -0.411   5.884 -0.9514  0.8844  0.1934
  571MOL0     H77041   4.203  -0.414   5.632 -0.0613  0.3139  1.2990
  571MOL0     H77042   4.262  -0.253   5.619 -3.1801  1.1719 -1.2426
  571MOL0     H77043   4.121  -0.162   5.769  2.0852 -0.0168  0.7228
  571MOL0     H77044   4.116  -0.294   5.875  1.3268  1.3526  0.0751
  571MOL0     H77045   3.779  -0.457   5.672 -1.2174 -0.0830 -2.5458
  571MOL0     H77046   3.439  -0.339   5.627 -0.5079 -0.0105  0.9112
  571MOL0     H77047   3.574  -0.414   5.551  0.2518  3.4941 -0.2945
  571MOL0     H77048   3.498  -0.476   5.709  3.0634 -1.2298  0.9258
  571MOL0     H77049   3.280   0.038   6.070 -1.6225  0.3024  1.7866
  571MOL0     H77050   3.056   0.168   6.033 -5.2719  0.0114 -3.7691
  571MOL0     H77051   2.970   0.337   5.634  4.4712 -5.2880  0.0566
  571MOL0     H77052   2.905   0.177   5.633  2.7193  0.8772 -1.9086
  571MOL0     H77053   2.776   0.442   5.728  1.3070  0.7520 -0.5394
  571MOL0     H77054   2.709   0.307   5.619  0.7995 -1.4471 -0.4052
  571MOL0     H77055   2.596   0.339   5.835 -2.0186 -0.9677  1.1830
  571MOL0     H77056   2.730   0.275   5.925 -0.6570  0.9301 -0.4332
  571MOL0     H77057   2.573   0.151   5.690  1.3339  0.7233 -0.3456
  571MOL0     H77058   2.710   0.073   5.754  0.0356  0.9381 -0.2441
  571MOL0     H77059   2.594   0.072   5.989 -1.1919  0.7037  1.1368
  571MOL0     H77060   2.531  -0.028   5.864 -2.3576  0.2895  2.3902
  571MOL0     H77061   2.407   0.237   5.948 -3.2393  0.8370 -1.7521
  571MOL0     H77062   2.371   0.151   5.805  6.4839 -0.3475 -2.6189
  571MOL0     H77063   2.387   0.051   6.098 -0.7213 -1.4892 -0.0742
  571MOL0     H77064   2.345  -0.062   5.977 -0.4830  0.9216 -2.1548
  571MOL0     H77065   2.174   0.175   6.053 -1.2064 -0.7405  0.0270
  571MOL0     H77066   2.150   0.002   6.099  0.0730 -0.5928  0.2467
  571MOL0     H77067   3.124   0.188   5.615  1.4417  1.1069  0.3056
  571MOL0     H77068   3.345   0.062   5.644 -0.3755 -1.2266 -0.1516
  571MOL0     H77069   3.691  -0.027   5.902 -0.3152 -1.4367  0.6682
  571MOL0     H77070   3.917  -0.075   5.836 -0.6548  0.3081  1.3705
  571MOL0     H77071   5.284  -0.018   4.595 -3.1908 -1.9065  1.7976
  571MOL0     H77072   5.397   0.132   4.423 -0.9274 -1.0745 -1.9622
  571MOL0     H77073   5.650   0.368   4.199 -1.0288 -0.1525  1.3933
  571MOL0     H77074   5.739   0.408   3.983 -0.1037 -0.1478 -0.7805
  571MOL0     H77075   5.454   0.465   3.637 -0.9038 -0.8929  1.0615
  571MOL0     H77076   5.511   0.631   3.688  2.0159  0.1465 -1.3696
  571MOL0     H77077   5.553   0.549   3.449 -0.7423 -1.5032 -0.1163
  571MOL0     H77078   5.636   0.410   3.514  1.2830  0.4726 -1.6880
  571MOL0     H77079   5.823   0.541   3.612  2.0763  0.3774 -1.4801
  571MOL0     H77080   5.747   0.692   3.564 -0.3708 -0.6528  1.3140
  571MOL0     H77081   5.847   0.458   3.410 -0.7949  0.0977  0.4301
  571MOL0     H77082   5.945   0.597   3.416 -0.7606 -0.2766 -2.3696
  571MOL0     H77083   5.698   0.672   3.084 -1.4426  0.7555  0.5173
  571MOL0     H77084   5.342   0.501   3.828 -2.5835 -0.4153  0.8410
  571MOL0     H77085   5.252   0.437   4.062  1.1865  2.2561  0.3840
  572MOL0     O77086   5.032   4.628   3.279 -0.3667  0.3237  0.2806
  572MOL0     C77087   5.091   4.517   3.277  0.1315  0.3419  0.0669
  572MOL0     O77088   5.037   4.399   3.319  0.0822  0.9067  0.3302
  572MOL0     C77089   4.904   4.404   3.356  0.0612  0.3184  0.1488
  572MOL0     C77090   4.814   4.334   3.280 -0.7116 -0.0757  0.0880
  572MOL0     C77091   4.681   4.329   3.320  0.4728  0.0927  0.1386
  572MOL0     C77092   4.640   4.386   3.447  1.0909  0.1378  0.5142
  572MOL0     O77093   4.504   4.358   3.473 -0.4799 -0.3095  0.5641
  572MOL0     C77094   4.474   4.372   3.611  0.1524  0.2144 -0.0595
  572MOL0     C77095   4.322   4.353   3.630 -0.0449  0.4884  0.2279
  572MOL0     C77096   4.269   4.215   3.633  0.6698  0.5813 -0.3143
  572MOL0     C77097   4.115   4.238   3.661 -0.6874  0.6716  0.3178
  572MOL0     C77098   4.033   4.109   3.678 -0.2780 -0.8060 -0.5536
  572MOL0     C77099   3.999   4.055   3.536  0.6121 -0.1972  0.1709
  572MOL0     C77100   3.896   3.937   3.532 -0.2103  0.1086  0.2888
  572MOL0     C77101   3.762   3.971   3.600 -0.5392  0.8751  0.4514
  572MOL0     N77102   3.686   3.847   3.624  1.0725  0.1993 -0.1362
  572MOL0     C77103   3.635   3.772   3.523 -0.0711 -0.1109  0.1049
  572MOL0     C77104   3.548   3.679   3.576  0.5836  0.0895 -0.0708
  572MOL0     C77105   3.452   3.591   3.496 -0.0749 -0.1444  0.7776
  572MOL0     C77106   3.517   3.460   3.437  1.3572 -0.0112  0.0332
  572MOL0     C77107   3.627   3.488   3.336  0.2378  0.3516  0.6915
  572MOL0     C77108   3.664   3.358   3.260  0.8938  1.1200 -0.6420
  572MOL0     O77109   3.783   3.377   3.180  0.5505 -0.3989  0.5143
  572MOL0     C77110   3.900   3.370   3.241 -0.7907  0.1967 -0.9677
  572MOL0     C77111   3.932   3.319   3.372 -0.1386  0.8547  0.1512
  572MOL0     C77112   4.061   3.301   3.418 -0.6308  0.4511 -0.2023
  572MOL0     C77113   4.092   3.269   3.573 -0.7761  0.1594  0.4499
  572MOL0     C77114   4.161   3.333   3.321 -0.3943 -0.5960  0.6650
  572MOL0     C77115   4.311   3.338   3.353 -0.4215  0.2080 -0.3359
  572MOL0     O77116   4.399   3.386   3.267 -0.0017 -0.6369  0.1171
  572MOL0     C77117   4.535   3.398   3.288 -0.4461  0.3050 -0.4827
  572MOL0     C77118   4.617   3.336   3.386  0.0033  1.0942 -0.4754
  572MOL0     C77119   4.750   3.369   3.407 -1.0647  0.0449  0.6863
  572MOL0     C77120   4.809   3.468   3.326 -0.1992 -0.6104 -0.4747
  572MOL0     O77121   4.932   3.522   3.341  0.5740  0.2860  0.6358
  572MOL0     C77122   5.004   3.506   3.458  0.7919  0.0111 -0.8313
  572MOL0     C77123   5.134   3.582   3.445  1.1117 -0.1300  0.6534
  572MOL0     C77124   5.220   3.546   3.561  1.2684 -0.1378  0.4389
  572MOL0     C77125   5.355   3.618   3.565  0.0751 -0.6592 -0.2858
  572MOL0     C77126   5.424   3.586   3.707 -0.4716 -1.8041  0.7690
  572MOL0     C77127   5.552   3.667   3.731  0.4585 -0.0302 -0.4596
  572MOL0     C77128   5.663   3.623   3.628 -0.2805  0.6038 -0.1632
  572MOL0     C77129   5.776   3.718   3.616  0.4779 -0.3496 -0.1968
  572MOL0    Cl77130   5.906   3.713   3.736  0.2359 -0.1380 -0.1709
  572MOL0     C77131   4.733   3.522   3.222 -0.4339 -0.3597 -0.1770
  572MOL0     C77132   4.601   3.478   3.201  0.6443 -0.0887 -0.3356
  572MOL0     O77133   4.343   3.312   3.472 -0.2752  0.0261 -0.3681
  572MOL0     C77134   4.134   3.380   3.191 -0.1894  1.0968 -0.4504
  572MOL0     C77135   4.006   3.389   3.150  1.1769 -0.1235 -0.1491
  572MOL0     N77136   3.538   3.710   3.707 -0.1517 -0.3611 -0.4200
  572MOL0     N77137   3.616   3.809   3.737 -0.0237 -0.9679 -0.1331
  572MOL0     C77138   4.733   4.448   3.524 -0.6836  0.5517  0.4269
  572MOL0     C77139   4.870   4.453   3.480 -0.1799 -0.1943 -0.1558
  572MOL0     C77140   5.231   4.534   3.231 -0.1653 -0.3291 -0.5678
  572MOL0     C77141   5.292   4.662   3.207  1.0546  0.1765  0.1290
  572MOL0     C77142   5.426   4.668   3.162  0.8333 -0.2784 -0.1655
  572MOL0     C77143   5.506   4.552   3.144  0.7515  0.0297 -0.2467
  572MOL0     O77144   5.634   4.579   3.096  0.3447 -0.3829 -0.5037
  572MOL0     C77145   5.704   4.468   3.050 -0.0892 -0.6090  0.4692
  572MOL0     C77146   5.853   4.501   3.014 -0.4886  0.2220 -0.2986
  572MOL0     C77147   5.928   4.375   2.952  0.3827 -0.9391  0.4083
  572MOL0     C77148   6.076   4.394   2.935  0.4346  0.4792 -0.9736
  572MOL0     C77149   6.113   4.493   2.842 -0.5931 -0.3767  0.9638
  572MOL0     C77150   6.137   4.589   2.771 -0.7200 -0.2533 -0.3725
  572MOL0     C77151   5.436   4.425   3.149 -0.8574 -0.3785 -0.2809
  572MOL0     C77152   5.306   4.416   3.199  1.0519  0.1748  0.1421
  572MOL0     H77153   4.847   4.297   3.183  3.2155 -2.8308  2.2040
  572MOL0     H77154   4.614   4.275   3.254  3.0800 -3.1997 -0.0973
  572MOL0     H77155   4.527   4.304   3.677  1.2201  1.5539  0.5084
  572MOL0     H77156   4.498   4.474   3.644  0.9431 -0.2030  0.6836
  572MOL0     H77157   4.289   4.410   3.717 -0.9844 -1.0460  0.9064
  572MOL0     H77158   4.273   4.408   3.549 -1.4318 -0.9448  0.0573
  572MOL0     H77159   4.297   4.162   3.541 -0.5282 -0.9417  0.1386
  572MOL0     H77160   4.311   4.163   3.720 -2.5762 -0.6932  0.6648
  572MOL0     H77161   4.104   4.297   3.752 -2.1772  1.5805 -0.4062
  572MOL0     H77162   4.079   4.297   3.576  1.2185 -1.9324 -2.4734
  572MOL0     H77163   4.097   4.045   3.739  1.3238  0.6465 -0.6243
  572MOL0     H77164   3.946   4.121   3.743  0.3546 -1.5667  0.4608
  572MOL0     H77165   3.955   4.141   3.484 -0.7449  0.1327  1.7706
  572MOL0     H77166   4.100   4.040   3.496 -0.2485 -1.3229 -1.7262
  572MOL0     H77167   3.861   3.902   3.435  0.1742 -2.5905  1.0588
  572MOL0     H77168   3.943   3.847   3.571  2.8010  1.0090 -1.0010
  572MOL0     H77169   3.710   4.036   3.529 -0.1431  1.5634  0.7793
  572MOL0     H77170   3.769   4.026   3.695  1.3047  1.3554  0.0756
  572MOL0     H77171   3.653   3.802   3.420  3.4231 -0.0638  0.6177
  572MOL0     H77172   3.361   3.565   3.551 -1.4738  2.7350  0.0125
  572MOL0     H77173   3.407   3.642   3.411 -1.1308 -0.9018  0.8575
  572MOL0     H77174   3.441   3.386   3.409  2.6396 -1.3996  0.0691
  572MOL0     H77175   3.562   3.401   3.518 -0.2493 -0.0205  0.9701
  572MOL0     H77176   3.710   3.510   3.404  1.4814 -1.8355 -0.0163
  572MOL0     H77177   3.603   3.569   3.266 -0.3013  1.5613  2.2123
  572MOL0     H77178   3.584   3.316   3.198  1.0575 -1.2107  0.6351
  572MOL0     H77179   3.683   3.277   3.330 -2.1611  0.4406 -0.4457
  572MOL0     H77180   3.855   3.303   3.447 -0.4770 -1.0118 -0.5548
  572MOL0     H77181   3.997   3.270   3.626 -1.6748  0.4195 -1.0926
  572MOL0     H77182   4.133   3.169   3.560  0.1708  0.6512 -0.5325
  572MOL0     H77183   4.175   3.323   3.619  0.3193 -0.6295 -0.5461
  572MOL0     H77184   4.584   3.251   3.444  1.8547  0.4721 -0.2866
  572MOL0     H77185   4.806   3.304   3.474 -0.3454  1.0970  1.1413
  572MOL0     H77186   4.944   3.539   3.544  0.1234  0.3014 -1.3984
  572MOL0     H77187   5.024   3.399   3.468  0.7373  0.0627 -0.0537
  572MOL0     H77188   5.188   3.542   3.359 -1.1749 -3.2478  0.5024
  572MOL0     H77189   5.113   3.687   3.427 -3.1241 -1.0094 -0.7754
  572MOL0     H77190   5.246   3.439   3.564 -2.2628 -1.1308 -0.3431
  572MOL0     H77191   5.160   3.570   3.648 -0.0744 -1.1857 -0.1641
  572MOL0     H77192   5.413   3.579   3.481 -2.8764 -1.9160 -1.9134
  572MOL0     H77193   5.343   3.726   3.557 -0.3866 -0.4764  2.0417
  572MOL0     H77194   5.466   3.484   3.710  1.3478 -1.0984  3.5324
  572MOL0     H77195   5.347   3.615   3.779 -3.3679  1.0911 -3.1045
  572MOL0     H77196   5.528   3.771   3.706 -4.5175 -1.2243 -1.8356
  572MOL0     H77197   5.596   3.646   3.829 -1.7091 -2.9611  0.0357
  572MOL0     H77198   5.619   3.604   3.529 -1.6722  0.4642  0.4583
  572MOL0     H77199   5.708   3.530   3.664  1.5629  1.4236 -0.2595
  572MOL0     H77200   5.736   3.819   3.608 -0.6352 -0.9123 -2.9866
  572MOL0     H77201   5.819   3.711   3.515  0.6466 -0.4718 -0.1182
  572MOL0     H77202   4.787   3.603   3.173 -0.3539  1.1995  2.3475
  572MOL0     H77203   4.553   3.535   3.122 -0.2612  1.3921  1.2079
  572MOL0     H77204   4.208   3.408   3.117  1.8712  1.5348  1.6684
  572MOL0     H77205   3.986   3.419   3.048  0.6231  0.1744  0.0416
  572MOL0     H77206   4.709   4.492   3.620  1.9502  0.4088  1.2315
  572MOL0     H77207   4.946   4.500   3.542 -0.3304 -1.3115  0.9211
  572MOL0     H77208   5.232   4.751   3.215 -2.7723 -1.8832 -2.4397
  572MOL0     H77209   5.471   4.767   3.153 -1.7361  1.1156  1.2788
  572MOL0     H77210   5.709   4.395   3.132 -1.2677  0.5259  1.6019
  572MOL0     H77211   5.659   4.427   2.960  3.0805  2.5869 -2.9326
  572MOL0     H77212   5.910   4.544   3.097 -0.9568  1.2532 -0.4924
  572MOL0     H77213   5.869   4.568   2.929  2.7332 -1.8663 -1.5077
  572MOL0     H77214   5.885   4.335   2.859  0.6998 -0.4101  0.0262
  572MOL0     H77215   5.916   4.293   3.023  2.1129  0.0815  1.9577
  572MOL0     H77216   6.106   4.295   2.901 -0.8579 -1.2340  2.4665
  572MOL0     H77217   6.113   4.419   3.035  1.6033 -0.4171 -1.1618
  572MOL0     H77218   6.179   4.671   2.718 -2.1059  0.4386 -0.4381
  572MOL0     H77219   5.481   4.333   3.114 -1.6229 -1.2209  0.8533
  572MOL0     H77220   5.259   4.320   3.218 -2.4112  1.6430 -0.2020
  573MOL0     O77221   4.659   3.875   6.894 -1.2519  0.6176  0.9157
  573MOL0     C77222   4.597   3.969   6.944 -0.3535 -0.1983  0.0998
  573MOL0     O77223   4.639   4.100   6.972  0.1625 -0.1762  0.1312
  573MOL0     C77224   4.767   4.141   6.960 -0.6273 -0.0616  0.3724
  573MOL0     C77225   4.879   4.064   6.951 -0.1575  0.4703 -0.7427
  573MOL0     C77226   5.004   4.120   6.945  0.0507 -0.6724 -0.7728
  573MOL0     C77227   5.023   4.261   6.953 -0.7948 -0.7698 -0.4613
  573MOL0     O77228   5.132   4.338   6.926 -0.9112 -0.4016 -0.0238
  573MOL0     C77229   5.245   4.279   6.862 -0.9278  0.0114  0.5857
  573MOL0     C77230   5.370   4.267   6.962 -0.1837 -0.1108 -0.5418
  573MOL0     C77231   5.367   4.135   7.046  0.5223 -0.7567 -0.8442
  573MOL0     C77232   5.486   4.143   7.154 -0.3535  0.2205  0.5074
  573MOL0     C77233   5.486   4.241   7.266  0.7786  0.3076  0.8885
  573MOL0     C77234   5.569   4.199   7.396 -0.7083 -0.0434  0.4059
  573MOL0     C77235   5.552   4.313   7.517  0.3134 -0.1233  0.2663
  573MOL0     C77236   5.612   4.249   7.644 -0.9082  0.0798 -0.3081
  573MOL0     N77237   5.758   4.218   7.627  0.5162  0.1513 -0.4995
  573MOL0     C77238   5.807   4.093   7.594  0.1609  0.7996  0.0981
  573MOL0     C77239   5.935   4.102   7.611 -0.5341  0.5528  0.7833
  573MOL0     C77240   6.036   3.996   7.583 -0.6070  0.4320  0.3139
  573MOL0     C77241   6.034   3.956   7.434  0.8004 -0.3133  0.2815
  573MOL0     C77242   6.147   3.858   7.406  0.4431 -0.6572  0.2685
  573MOL0     C77243   6.239   3.914   7.297 -0.8327  0.1341  0.9123
  573MOL0     O77244   6.322   3.809   7.266  0.0779  0.0288  0.0394
  573MOL0     C77245   6.440   3.833   7.185  0.6548 -0.3287  0.2749
  573MOL0     C77246   6.530   3.731   7.171 -1.0979 -0.6659  0.1276
  573MOL0     C77247   6.649   3.749   7.098 -0.4550  0.0748  0.5085
  573MOL0     C77248   6.739   3.633   7.063  0.0877 -0.1098  0.3420
  573MOL0     C77249   6.672   3.876   7.032 -0.2086 -0.5335  0.2235
  573MOL0     C77250   6.790   3.898   6.951  0.0106  0.0700 -0.0868
  573MOL0     O77251   6.914   3.869   6.990 -0.5668  0.5545  0.0901
  573MOL0     C77252   7.017   3.879   6.907 -0.0546 -0.8347 -0.1993
  573MOL0     C77253   7.093   3.992   6.902  0.5559 -0.6787 -0.7371
  573MOL0     C77254   7.207   4.007   6.822 -0.0425 -0.6791  0.0314
  573MOL0     C77255   7.235   3.911   6.728 -0.5631 -0.3727  0.6697
  573MOL0     O77256   7.337   3.932   6.638 -0.0185 -0.0180  0.1282
  573MOL0     C77257   7.400   3.831   6.560 -0.4355  0.0684  0.3009
  573MOL0     C77258   7.529   3.883   6.507  0.6044  0.2725  0.2113
  573MOL0     C77259   7.627   3.766   6.481  0.2761  0.8852 -0.2752
  573MOL0     C77260   7.594   3.693   6.349 -0.4632  0.2972  0.7532
  573MOL0     C77261   7.693   3.583   6.312 -0.8893  0.1993  0.2054
  573MOL0     C77262   7.819   3.630   6.243  0.7219 -0.5000  0.0867
  573MOL0     C77263   7.804   3.680   6.093  0.0300  1.3006 -0.3388
  573MOL0     C77264   7.799   3.556   6.006  0.9223  0.7700  0.6153
  573MOL0    Cl77265   7.756   3.595   5.834 -0.7214  0.0376 -0.0674
  573MOL0     C77266   7.149   3.802   6.716 -0.5195  0.4557 -0.3111
  573MOL0     C77267   7.047   3.783   6.814 -0.6394  0.0966  0.1969
  573MOL0     O77268   6.770   3.954   6.844  0.1848 -0.2399 -0.1998
  573MOL0     C77269   6.577   3.972   7.043 -0.3640 -0.1219 -0.2426
  573MOL0     C77270   6.464   3.952   7.125  0.3704  0.5032  0.2209
  573MOL0     N77271   5.968   4.230   7.652  0.4778 -0.2568  0.2295
  573MOL0     N77272   5.866   4.302   7.657 -0.3904 -0.1147 -0.2961
  573MOL0     C77273   4.908   4.336   6.959 -0.4496  0.0172  0.0986
  573MOL0     C77274   4.781   4.274   6.972  0.4407  0.0454 -1.1651
  573MOL0     C77275   4.465   3.942   6.986  0.5406  1.0194  0.2443
  573MOL0     C77276   4.371   3.841   6.932 -0.3311 -0.0675  0.8155
  573MOL0     C77277   4.239   3.827   6.995  0.1527  0.6431  0.5614
  573MOL0     C77278   4.188   3.915   7.096 -0.0414  0.4499 -0.3337
  573MOL0     O77279   4.072   3.891   7.172 -0.4286 -0.2693 -0.4168
  573MOL0     C77280   3.968   3.806   7.117 -0.7527  0.2321 -0.0522
  573MOL0     C77281   3.948   3.677   7.204 -0.4400 -0.2069  0.3849
  573MOL0     C77282   3.926   3.705   7.357 -0.1376  0.3676  0.2634
  573MOL0     C77283   3.786   3.764   7.377 -0.0153  0.3249  0.1911
  573MOL0     C77284   3.673   3.688   7.328  0.1710  0.2559 -0.5553
  573MOL0     C77285   3.564   3.635   7.292  0.4367  0.4346  0.6716
  573MOL0     C77286   4.279   4.008   7.131  0.5660  0.6001 -0.7468
  573MOL0     C77287   4.406   4.021   7.082 -0.3321 -0.2415 -0.3950
  573MOL0     H77288   4.872   3.956   6.952 -2.4594  0.5722  0.0304
  573MOL0     H77289   5.085   4.050   6.931  0.7137 -0.0367 -0.1911
  573MOL0     H77290   5.221   4.181   6.820 -2.7025  1.2416 -1.4868
  573MOL0     H77291   5.274   4.337   6.774 -1.9887 -2.3950 -1.4780
  573MOL0     H77292   5.459   4.275   6.899  0.7726 -0.2319  0.7457
  573MOL0     H77293   5.372   4.353   7.029 -1.2291 -0.2232 -0.3568
  573MOL0     H77294   5.266   4.135   7.090 -0.2800  3.3946 -2.2414
  573MOL0     H77295   5.384   4.047   6.984 -0.7038 -0.0420 -2.2509
  573MOL0     H77296   5.498   4.046   7.202 -0.9600 -1.4833 -2.5361
  573MOL0     H77297   5.567   4.174   7.087 -2.8597  5.4151 -0.6175
  573MOL0     H77298   5.526   4.332   7.221  0.5974 -0.7168 -1.4743
  573MOL0     H77299   5.384   4.260   7.300  1.3462  0.3310  2.6789
  573MOL0     H77300   5.540   4.098   7.428  0.7474 -1.0666 -1.2888
  573MOL0     H77301   5.672   4.185   7.364 -0.6910 -0.7952  0.7641
  573MOL0     H77302   5.602   4.403   7.478 -0.3352  1.2594  2.4648
  573MOL0     H77303   5.444   4.330   7.523  0.5556  2.4849 -0.9914
  573MOL0     H77304   5.555   4.161   7.675  1.1688 -0.5263  2.0909
  573MOL0     H77305   5.589   4.316   7.728  1.9813  1.7228 -0.7024
  573MOL0     H77306   5.766   3.995   7.571 -1.3123  0.6603  2.9693
  573MOL0     H77307   6.139   4.011   7.613 -1.2310  1.1727  2.2304
  573MOL0     H77308   6.002   3.917   7.652 -0.0820 -1.0745 -1.0863
  573MOL0     H77309   6.043   4.043   7.369 -3.0197  1.1846  1.4926
  573MOL0     H77310   5.934   3.917   7.413  1.1954 -1.3997  0.3378
  573MOL0     H77311   6.096   3.761   7.396  2.1111 -1.7273  1.6722
  573MOL0     H77312   6.210   3.852   7.495  1.5219 -1.7288 -0.5405
  573MOL0     H77313   6.306   3.993   7.332  1.5878 -1.1930 -0.4256
  573MOL0     H77314   6.182   3.936   7.207 -0.1489 -1.4936  0.0409
  573MOL0     H77315   6.506   3.635   7.216 -0.1231 -0.5327  0.9535
  573MOL0     H77316   6.701   3.537   7.100  2.2837 -0.8656  0.8024
  573MOL0     H77317   6.747   3.627   6.954  0.1808 -1.5171  0.4018
  573MOL0     H77318   6.847   3.646   7.079  0.1100 -0.2508  0.3097
  573MOL0     H77319   7.061   4.064   6.977  3.5751  0.0790 -0.0421
  573MOL0     H77320   7.268   4.097   6.818  0.0555 -0.7979 -2.1850
  573MOL0     H77321   7.423   3.747   6.627 -1.7013  2.3128  3.8125
  573MOL0     H77322   7.339   3.791   6.479 -0.1733 -2.3468  1.1941
  573MOL0     H77323   7.507   3.942   6.417  0.0057 -1.5471 -0.8817
  573MOL0     H77324   7.582   3.945   6.580  2.2378  0.8889 -1.4286
  573MOL0     H77325   7.628   3.687   6.556  3.0985  1.4664  0.4442
  573MOL0     H77326   7.732   3.793   6.463  0.7183 -0.4430  0.1979
  573MOL0     H77327   7.495   3.647   6.360  0.5812 -2.1634  0.4547
  573MOL0     H77328   7.581   3.763   6.266  0.5941  1.0528  1.2033
  573MOL0     H77329   7.641   3.506   6.256 -0.3724 -0.8726  1.1590
  573MOL0     H77330   7.738   3.531   6.397  1.9542  1.1376 -0.6002
  573MOL0     H77331   7.881   3.696   6.306  0.2520  0.6830 -0.6496
  573MOL0     H77332   7.876   3.537   6.243 -1.7666 -2.1633 -1.9480
  573MOL0     H77333   7.886   3.746   6.061  0.1091  0.1560 -2.6646
  573MOL0     H77334   7.707   3.730   6.086 -0.4629  0.9901  2.7056
  573MOL0     H77335   7.727   3.485   6.051  3.3242 -1.5876  0.9829
  573MOL0     H77336   7.894   3.504   5.992  0.5530  0.4324 -0.7372
  573MOL0     H77337   7.166   3.733   6.634 -0.0940 -0.8058  0.8019
  573MOL0     H77338   6.989   3.691   6.820  2.0034 -1.6730  0.4389
  573MOL0     H77339   6.580   4.070   6.995  1.5983  0.2655  0.5800
  573MOL0     H77340   6.386   4.027   7.122  0.8477  0.9979 -2.0299
  573MOL0     H77341   4.924   4.443   6.950  1.0172 -0.0990  0.9926
  573MOL0     H77342   4.692   4.335   6.983  0.7489  0.0434  2.5330
  573MOL0     H77343   4.412   3.776   6.855 -0.0600  0.1346  0.7862
  573MOL0     H77344   4.176   3.743   6.967 -0.1118  0.8412  0.5562
  573MOL0     H77345   3.878   3.868   7.123 -1.6090 -1.0774  1.6163
  573MOL0     H77346   3.991   3.783   7.012  5.5896 -3.6726  1.6499
  573MOL0     H77347   4.037   3.619   7.177 -0.7740 -0.5857  0.0935
  573MOL0     H77348   3.860   3.632   7.157 -0.0147  0.9353 -1.5978
  573MOL0     H77349   4.002   3.766   7.407  0.0158 -0.3928  0.9722
  573MOL0     H77350   3.926   3.611   7.413  1.3540  0.7670  0.9958
  573MOL0     H77351   3.783   3.868   7.343  0.4804  0.1792 -0.3095
  573MOL0     H77352   3.770   3.768   7.485  0.0581  0.2803  0.2040
  573MOL0     H77353   3.477   3.587   7.251  1.0849 -0.6716  0.5353
  573MOL0     H77354   4.251   4.063   7.221  1.2742 -0.4791  0.1600
  573MOL0     H77355   4.460   4.104   7.127 -2.8977  2.2116 -1.5106
  574MOL0     O77356   9.748   6.832   3.552  0.1151  0.0621  0.3292
  574MOL0     C77357   9.858   6.891   3.559 -0.8040  0.4937 -0.0994
  574MOL0     O77358   9.890   6.990   3.652 -0.3015 -0.4298 -0.4318
  574MOL0     C77359   9.805   7.050   3.737 -0.1252  0.0211  0.2799
  574MOL0     C77360   9.682   7.000   3.770  0.5581 -0.3460 -0.4629
  574MOL0     C77361   9.601   7.055   3.866 -0.8682 -0.4772 -0.0926
  574MOL0     C77362   9.627   7.181   3.924 -0.3071  0.9552 -0.0275
  574MOL0     O77363   9.541   7.241   4.014 -0.0142  1.2480 -0.4021
  574MOL0     C77364   9.449   7.165   4.098  0.2007 -0.5437  0.6225
  574MOL0     C77365   9.522   7.114   4.219 -0.0381 -1.2605 -0.7160
  574MOL0     C77366   9.434   7.044   4.326  0.2448  0.8379  0.7985
  574MOL0     C77367   9.354   7.151   4.398  0.4350  0.0998 -1.3265
  574MOL0     C77368   9.257   7.081   4.500  0.7534  0.4189  0.0188
  574MOL0     C77369   9.141   7.178   4.541 -0.2487  0.6078  0.0002
  574MOL0     C77370   9.182   7.318   4.591 -0.5536 -0.4087 -0.2446
  574MOL0     C77371   9.079   7.374   4.696 -1.1824 -0.0131  0.2498
  574MOL0     N77372   8.954   7.376   4.637  0.0157 -0.2922 -0.6113
  574MOL0     C77373   8.850   7.296   4.672  0.3945  0.2765  0.1741
  574MOL0     C77374   8.740   7.363   4.632  0.6763  0.7240  0.6402
  574MOL0     C77375   8.593   7.335   4.654 -0.3606 -0.0088 -0.1966
  574MOL0     C77376   8.503   7.458   4.685  0.2332  0.4339 -0.0848
  574MOL0     C77377   8.359   7.421   4.698 -0.0605 -1.0823 -0.6804
  574MOL0     C77378   8.276   7.542   4.736  0.9204 -0.0008 -0.3550
  574MOL0     O77379   8.136   7.523   4.713 -0.0272 -0.2795  0.2922
  574MOL0     C77380   8.050   7.605   4.767  0.2805  0.4033 -0.6810
  574MOL0     C77381   7.918   7.569   4.760  0.4625 -0.2040  0.2109
  574MOL0     C77382   7.814   7.659   4.796  0.1464  0.5389 -0.1081
  574MOL0     C77383   7.672   7.623   4.764 -0.7737  0.2299  0.1125
  574MOL0     C77384   7.844   7.781   4.850  0.6178 -0.0424  0.2941
  574MOL0     C77385   7.742   7.890   4.895  0.3839 -0.4621  0.3268
  574MOL0     O77386   7.767   7.939   5.020  0.4389 -0.1387  0.2557
  574MOL0     C77387   7.696   8.038   5.080  0.1941  0.7880  0.4178
  574MOL0     C77388   7.619   8.142   5.027  0.5386  0.7424 -0.2266
  574MOL0     C77389   7.541   8.234   5.113 -0.9991 -0.5112  0.8346
  574MOL0     C77390   7.561   8.224   5.248  0.1306 -1.5408 -0.1275
  574MOL0     O77391   7.518   8.318   5.345  0.3551  0.4776  0.6553
  574MOL0     C77392   7.437   8.425   5.296 -0.7318 -0.7402  0.4570
  574MOL0     C77393   7.366   8.485   5.416  0.7626  0.5035  0.0603
  574MOL0     C77394   7.280   8.616   5.378 -0.0285  0.8083 -0.9360
  574MOL0     C77395   7.186   8.677   5.484 -0.1572 -0.6216 -0.2443
  574MOL0     C77396   7.097   8.579   5.564  0.4353 -0.0520 -0.3960
  574MOL0     C77397   6.998   8.509   5.480  0.3360 -0.4313  0.0921
  574MOL0     C77398   6.907   8.419   5.569 -0.4849  0.0476  1.0425
  574MOL0     C77399   6.974   8.303   5.632  0.1910  0.4326 -0.3839
  574MOL0    Cl77400   6.858   8.191   5.717  0.3917  0.0957  0.4673
  574MOL0     C77401   7.637   8.129   5.301 -0.8473  0.1572 -0.0596
  574MOL0     C77402   7.701   8.039   5.223  0.0295  0.3579 -0.2576
  574MOL0     O77403   7.650   7.931   4.822  0.0780 -0.1682  0.2611
  574MOL0     C77404   7.977   7.810   4.865  0.2626 -0.0411 -0.6706
  574MOL0     C77405   8.082   7.729   4.825 -0.1703  0.6663 -0.9463
  574MOL0     N77406   8.784   7.481   4.584 -0.4624 -0.1027  0.1828
  574MOL0     N77407   8.910   7.495   4.589 -0.2701  0.0663 -0.5604
  574MOL0     C77408   9.749   7.242   3.885  0.1488 -0.3042 -0.6445
  574MOL0     C77409   9.835   7.182   3.792  1.4561 -0.7090  0.3399
  574MOL0     C77410   9.966   6.864   3.460  0.7320 -0.1148  0.4508
  574MOL0     C77411  10.078   6.948   3.433  0.7703 -0.1349 -0.5181
  574MOL0     C77412  10.172   6.911   3.336 -0.4877  0.9431  0.5857
  574MOL0     C77413  10.153   6.789   3.266 -0.3628  0.1990  0.0784
  574MOL0     O77414  10.223   6.738   3.156 -0.4882  0.5176  0.3949
  574MOL0     C77415  10.366   6.752   3.158  0.3032  0.5268  0.7833
  574MOL0     C77416  10.436   6.710   3.025  0.7754 -0.0789 -0.9092
  574MOL0     C77417  10.448   6.826   2.928 -0.1617  0.4084 -0.4729
  574MOL0     C77418  10.497   6.776   2.788 -0.6031 -0.2391 -0.5305
  574MOL0     C77419  10.632   6.719   2.802  0.4694  0.2265 -1.2233
  574MOL0     C77420  10.740   6.675   2.792  0.5467 -0.8947 -0.4586
  574MOL0     C77421  10.047   6.717   3.293  0.3433 -0.2619 -0.4839
  574MOL0     C77422   9.955   6.750   3.384  0.4300  0.4576 -0.4681
  574MOL0     H77423   9.649   6.902   3.738 -2.6493  0.4481  0.0708
  574MOL0     H77424   9.508   7.002   3.887 -0.9515  0.6073  2.7238
  574MOL0     H77425   9.378   7.241   4.132  2.3964  2.3348 -0.8235
  574MOL0     H77426   9.393   7.085   4.049 -4.0987  1.2026  2.1392
  574MOL0     H77427   9.609   7.050   4.198  0.3029 -1.0310 -0.0172
  574MOL0     H77428   9.578   7.197   4.264 -1.9584  0.2283 -0.9709
  574MOL0     H77429   9.372   6.968   4.277  2.3411 -1.0789  0.9743
  574MOL0     H77430   9.492   6.985   4.398  2.2965 -1.1937 -2.2946
  574MOL0     H77431   9.425   7.214   4.452  1.4303 -2.5845  0.7098
  574MOL0     H77432   9.292   7.215   4.334 -0.0874 -1.0060 -1.9518
  574MOL0     H77433   9.208   6.991   4.460  0.4335  0.3153  0.6372
  574MOL0     H77434   9.318   7.049   4.584  0.2697 -2.5078 -0.6374
  574MOL0     H77435   9.076   7.191   4.454 -0.5875  0.6682  0.2579
  574MOL0     H77436   9.087   7.135   4.626 -1.7780  1.9093 -0.2601
  574MOL0     H77437   9.280   7.308   4.639 -1.2285  1.4524  1.6809
  574MOL0     H77438   9.190   7.391   4.510  1.7384  0.5930  0.7812
  574MOL0     H77439   9.117   7.471   4.728  1.1618 -1.2466  1.5779
  574MOL0     H77440   9.070   7.311   4.785 -0.9988 -2.3203 -1.2703
  574MOL0     H77441   8.846   7.201   4.725  3.2984 -1.7375 -2.8181
  574MOL0     H77442   8.562   7.286   4.561  2.2508  0.4892 -1.4266
  574MOL0     H77443   8.596   7.266   4.738  2.1309  2.3217  1.8109
  574MOL0     H77444   8.500   7.527   4.600 -1.3860 -0.4425 -0.7760
  574MOL0     H77445   8.530   7.506   4.780 -1.1226  1.4036 -0.1690
  574MOL0     H77446   8.331   7.339   4.766 -2.5494  0.5437  0.4162
  574MOL0     H77447   8.336   7.383   4.598  2.6819 -3.7078 -0.4757
  574MOL0     H77448   8.306   7.625   4.671 -1.8078  2.5690  1.3758
  574MOL0     H77449   8.296   7.567   4.841 -0.6201  1.0105 -0.2746
  574MOL0     H77450   7.891   7.481   4.703 -1.3396  1.2508 -1.3153
  574MOL0     H77451   7.664   7.553   4.681 -1.3305  3.4514 -2.8070
  574MOL0     H77452   7.619   7.578   4.848 -0.1466 -2.4115 -0.8120
  574MOL0     H77453   7.619   7.712   4.729 -0.5759  1.1889  2.1101
  574MOL0     H77454   7.604   8.146   4.920 -1.1686 -2.1473 -0.2030
  574MOL0     H77455   7.481   8.318   5.078 -2.5619 -1.6381  0.7422
  574MOL0     H77456   7.502   8.499   5.250  1.5981 -1.9665  1.5990
  574MOL0     H77457   7.361   8.388   5.227  0.1894 -1.5913 -0.1403
  574MOL0     H77458   7.304   8.403   5.453 -0.9462  0.2487 -3.0181
  574MOL0     H77459   7.444   8.519   5.485  1.7657  0.7834 -1.1680
  574MOL0     H77460   7.201   8.586   5.308 -3.2876  1.2894  2.2356
  574MOL0     H77461   7.343   8.691   5.330  1.0891 -0.5461 -1.6545
  574MOL0     H77462   7.243   8.735   5.557 -0.9362  0.8016 -0.7231
  574MOL0     H77463   7.118   8.748   5.437  1.0881  0.5042 -0.4142
  574MOL0     H77464   7.046   8.647   5.633  0.3028 -2.1009  1.6461
  574MOL0     H77465   7.150   8.505   5.626 -0.7420 -1.6339 -1.2033
  574MOL0     H77466   6.940   8.584   5.426  1.0725  1.2455  1.5306
  574MOL0     H77467   7.068   8.462   5.410  0.0227  1.0018 -1.2480
  574MOL0     H77468   6.827   8.383   5.503  1.8149 -0.4259 -1.6440
  574MOL0     H77469   6.863   8.477   5.651  1.0736  1.0555  1.1942
  574MOL0     H77470   7.044   8.333   5.710  0.5077 -2.3364  0.4973
  574MOL0     H77471   7.030   8.234   5.568  1.2624  0.9596 -0.0346
  574MOL0     H77472   7.646   8.120   5.409  0.8489 -1.9957 -0.2986
  574MOL0     H77473   7.750   7.963   5.283 -1.6207  0.4513  1.3006
  574MOL0     H77474   7.993   7.912   4.901 -0.6842  0.8400 -2.5983
  574MOL0     H77475   8.183   7.764   4.841 -0.5797  0.1338  5.2680
  574MOL0     H77476   9.764   7.337   3.934 -0.9703 -0.7767  0.6725
  574MOL0     H77477   9.933   7.222   3.770  1.2930 -0.5539 -0.1194
  574MOL0     H77478  10.099   7.036   3.494 -0.5191  0.6464 -1.1455
  574MOL0     H77479  10.259   6.970   3.308  0.5248  0.6719  2.9913
  574MOL0     H77480  10.389   6.857   3.181  2.1351  0.7476 -1.6115
  574MOL0     H77481  10.403   6.685   3.236  1.5946  1.4924  1.0442
  574MOL0     H77482  10.379   6.633   2.971 -1.2882  1.4961 -1.1214
  574MOL0     H77483  10.533   6.676   3.063 -0.6946 -3.1169  0.5210
  574MOL0     H77484  10.509   6.906   2.972  0.8016  0.2451 -1.4765
  574MOL0     H77485  10.344   6.858   2.912 -0.5087 -0.3435  0.2092
  574MOL0     H77486  10.514   6.863   2.724  2.8405  0.3470  0.9568
  574MOL0     H77487  10.436   6.701   2.738 -1.0209 -0.2057 -0.0777
  574MOL0     H77488  10.843   6.651   2.776  0.5295 -0.5522 -1.1474
  574MOL0     H77489  10.025   6.630   3.232 -0.1925 -0.3138 -0.2243
  574MOL0     H77490   9.870   6.683   3.389  0.0389  0.9171 -0.8246
  575MOL0     O77491   7.456   5.697   8.473 -0.8176 -0.3104  1.0690
  575MOL0     C77492   7.379   5.791   8.468  0.3088  0.4080  0.9646
  575MOL0     O77493   7.400   5.892   8.391  0.1187 -0.0325 -0.1668
  575MOL0     C77494   7.504   5.899   8.301  0.5497 -0.7082  0.1450
  575MOL0     C77495   7.505   5.840   8.180  0.8181  0.6850 -0.9791
  575MOL0     C77496   7.612   5.836   8.095 -1.1255  0.5124  0.2797
  575MOL0     C77497   7.724   5.912   8.135  0.0042  0.0176  0.8958
  575MOL0     O77498   7.831   5.913   8.041  0.1452  0.3163 -1.0613
  575MOL0     C77499   7.956   5.965   8.090 -0.5470 -0.7427 -0.0199
  575MOL0     C77500   8.065   5.946   7.980  0.1730  0.7851  1.5345
  575MOL0     C77501   8.028   6.009   7.843 -0.5253  0.6675 -0.5027
  575MOL0     C77502   8.142   6.048   7.746  0.6890 -0.6526  0.0788
  575MOL0     C77503   8.242   5.936   7.728  0.0433  0.6129 -0.3842
  575MOL0     C77504   8.369   5.992   7.664  0.0586  0.2306 -0.2440
  575MOL0     C77505   8.489   5.900   7.644  0.2566  0.4502 -0.5956
  575MOL0     C77506   8.605   5.960   7.568  0.2078  1.0043  0.1696
  575MOL0     N77507   8.565   5.977   7.428  0.1263  0.0811  0.9490
  575MOL0     C77508   8.601   5.894   7.331  0.1994  1.1921  0.3810
  575MOL0     C77509   8.560   5.945   7.218  0.1366  0.6347  0.5443
  575MOL0     C77510   8.567   5.878   7.088 -0.0427 -0.3835 -0.9134
  575MOL0     C77511   8.472   5.750   7.076 -0.6667 -0.3350  0.0417
  575MOL0     C77512   8.505   5.682   6.938  0.3223 -0.5638  0.1146
  575MOL0     C77513   8.421   5.730   6.816  0.9522  0.0650 -0.1727
  575MOL0     O77514   8.284   5.679   6.808  0.0363  0.5312  0.4583
  575MOL0     C77515   8.199   5.762   6.734 -0.0775  1.1889  0.5391
  575MOL0     C77516   8.232   5.861   6.641  0.1141 -0.0098  0.5540
  575MOL0     C77517   8.133   5.934   6.570  0.1110 -0.0533  0.5206
  575MOL0     C77518   8.186   6.040   6.476  0.3898  0.4398  0.0045
  575MOL0     C77519   7.993   5.908   6.596  0.0895  0.2880 -0.3044
  575MOL0     C77520   7.880   5.950   6.510  1.0024 -0.2979 -0.8481
  575MOL0     O77521   7.751   5.929   6.560 -0.4050  0.1777 -0.4444
  575MOL0     C77522   7.636   5.998   6.518 -0.9353 -0.7450  0.5621
  575MOL0     C77523   7.510   5.946   6.544 -1.2625  1.0144 -0.6985
  575MOL0     C77524   7.392   6.011   6.511 -0.4311 -0.2681  0.2081
  575MOL0     C77525   7.399   6.147   6.460 -0.1235  0.6168  0.4220
  575MOL0     O77526   7.287   6.192   6.418  0.0416 -0.6448 -0.5641
  575MOL0     C77527   7.272   6.307   6.340  0.0985 -0.1053  0.0727
  575MOL0     C77528   7.129   6.322   6.293  0.9182 -0.1734 -0.1009
  575MOL0     C77529   7.024   6.336   6.403 -0.7833 -0.3270  0.7448
  575MOL0     C77530   6.876   6.344   6.343 -0.4378 -0.6468  0.3431
  575MOL0     C77531   6.774   6.370   6.454  0.1742  0.7073 -0.3219
  575MOL0     C77532   6.645   6.379   6.388 -0.2776  0.7064  1.1381
  575MOL0     C77533   6.535   6.406   6.491 -1.0875 -0.2676 -0.3769
  575MOL0     C77534   6.412   6.485   6.434 -0.9924  0.3298 -0.0274
  575MOL0    Cl77535   6.337   6.392   6.303  0.0185  0.0633 -0.3120
  575MOL0     C77536   7.528   6.210   6.438  0.4688 -0.1828  0.3546
  575MOL0     C77537   7.638   6.133   6.460 -0.4911  0.0982  0.2108
  575MOL0     O77538   7.906   5.991   6.401 -0.7534 -0.1389 -0.4280
  575MOL0     C77539   7.961   5.810   6.703  0.4127 -0.0374 -0.7244
  575MOL0     C77540   8.071   5.740   6.762  0.1075 -0.0300 -0.7736
  575MOL0     N77541   8.493   6.061   7.251  0.2398 -0.0812  0.2376
  575MOL0     N77542   8.504   6.083   7.379  0.1551 -0.7639  0.7963
  575MOL0     C77543   7.720   5.988   8.254 -0.4582  0.6554 -0.7781
  575MOL0     C77544   7.612   5.977   8.344  1.0054 -0.0470  0.6286
  575MOL0     C77545   7.257   5.786   8.551  0.5661  0.3042  1.0638
  575MOL0     C77546   7.249   5.687   8.646  0.3018  0.3341 -0.7425
  575MOL0     C77547   7.139   5.678   8.729 -0.7675 -0.6728 -0.5644
  575MOL0     C77548   7.032   5.765   8.726 -0.3240 -0.6214 -0.1515
  575MOL0     O77549   6.920   5.755   8.803 -0.2935  0.0321  0.3906
  575MOL0     C77550   6.904   5.651   8.904 -0.6977  0.4054  0.3584
  575MOL0     C77551   6.768   5.662   8.969  0.5120 -0.7677  0.6030
  575MOL0     C77552   6.741   5.562   9.082 -0.2963  0.0432 -0.0152
  575MOL0     C77553   6.600   5.572   9.128  0.0916  0.7655  0.5600
  575MOL0     C77554   6.512   5.518   9.015 -0.0445 -0.4145 -0.5606
  575MOL0     C77555   6.424   5.463   8.950  0.5933  0.3554  1.0257
  575MOL0     C77556   7.038   5.855   8.624  0.3874 -0.5232 -0.4454
  575MOL0     C77557   7.148   5.873   8.541  0.3457  0.5143 -0.8200
  575MOL0     H77558   7.423   5.778   8.146  1.0750 -0.1673 -0.1021
  575MOL0     H77559   7.612   5.780   8.002  1.4126 -2.6893  1.9778
  575MOL0     H77560   7.951   6.067   8.131 -0.3210 -0.7499  0.0245
  575MOL0     H77561   7.984   5.899   8.173 -1.8418  0.2223  1.2529
  575MOL0     H77562   8.152   5.999   8.018  0.4668 -0.1836  2.2502
  575MOL0     H77563   8.098   5.842   7.975  0.3187  0.8852 -1.4219
  575MOL0     H77564   7.967   5.934   7.791 -0.0240 -0.2618  0.2103
  575MOL0     H77565   7.966   6.096   7.865 -1.3018  0.1681 -0.6904
  575MOL0     H77566   8.120   6.101   7.652 -2.1662 -2.3265 -0.3292
  575MOL0     H77567   8.184   6.138   7.792  0.4586  0.1058 -1.1203
  575MOL0     H77568   8.260   5.883   7.822  1.7190  2.4712  0.4127
  575MOL0     H77569   8.186   5.867   7.665 -0.5613  1.5631 -0.9109
  575MOL0     H77570   8.329   6.027   7.568 -1.0920  0.6905  0.3844
  575MOL0     H77571   8.401   6.068   7.736  1.8642 -1.5713  0.9868
  575MOL0     H77572   8.516   5.868   7.745  1.0401 -1.1423 -1.2821
  575MOL0     H77573   8.453   5.807   7.599 -2.1372  0.6095  0.8477
  575MOL0     H77574   8.692   5.895   7.580 -1.0199 -1.5233 -3.0694
  575MOL0     H77575   8.635   6.055   7.614  1.2167  0.1442  1.3540
  575MOL0     H77576   8.647   5.798   7.349  2.5031  1.9171 -1.1899
  575MOL0     H77577   8.543   5.954   7.013  2.0980 -0.5432 -1.8165
  575MOL0     H77578   8.671   5.854   7.068 -0.5846 -3.0291 -0.9295
  575MOL0     H77579   8.364   5.760   7.085 -1.0005 -1.3131 -2.2385
  575MOL0     H77580   8.515   5.686   7.154  0.3892  1.3603  0.9304
  575MOL0     H77581   8.496   5.573   6.941  0.6392 -0.6111 -0.5509
  575MOL0     H77582   8.610   5.707   6.923  0.2509 -0.4714 -0.2393
  575MOL0     H77583   8.479   5.702   6.727  1.1279 -1.7271  0.4489
  575MOL0     H77584   8.417   5.839   6.824  0.2038  0.1730 -1.7459
  575MOL0     H77585   8.336   5.884   6.622  0.8778 -0.6402  3.4965
  575MOL0     H77586   8.235   5.995   6.390 -0.1720 -0.0709 -0.0470
  575MOL0     H77587   8.104   6.106   6.446  0.6916  0.3529 -1.0302
  575MOL0     H77588   8.249   6.113   6.529 -1.8281  1.9910  0.6553
  575MOL0     H77589   7.502   5.849   6.593  0.5377  2.4065  2.6915
  575MOL0     H77590   7.292   5.972   6.527  0.3002 -1.1804  3.1241
  575MOL0     H77591   7.305   6.389   6.405 -0.6347 -1.2387  1.9702
  575MOL0     H77592   7.335   6.296   6.252 -0.9376 -3.8920 -0.3611
  575MOL0     H77593   7.121   6.410   6.229  0.4925 -0.7543 -0.8667
  575MOL0     H77594   7.097   6.240   6.227 -1.3457 -0.6237  1.4578
  575MOL0     H77595   7.041   6.429   6.458 -1.2434  1.2808 -1.6768
  575MOL0     H77596   7.018   6.248   6.468  0.1144 -1.5939 -0.8105
  575MOL0     H77597   6.879   6.424   6.270 -0.9890  1.3796  2.4209
  575MOL0     H77598   6.847   6.244   6.308 -1.0060 -1.1440  2.1168
  575MOL0     H77599   6.805   6.455   6.516  0.9346 -1.6233  2.7764
  575MOL0     H77600   6.772   6.284   6.521  2.4695  0.0951 -0.9517
  575MOL0     H77601   6.637   6.464   6.319 -1.2433  1.0630  1.6608
  575MOL0     H77602   6.626   6.286   6.334 -1.5586 -0.1292  2.9255
  575MOL0     H77603   6.578   6.464   6.573 -0.9217 -0.9404  0.0193
  575MOL0     H77604   6.509   6.311   6.538  0.0542 -0.4053  0.0052
  575MOL0     H77605   6.458   6.574   6.391  4.3369 -0.9987  2.1583
  575MOL0     H77606   6.350   6.514   6.520 -1.5500 -1.1447  0.0965
  575MOL0     H77607   7.537   6.306   6.387  0.9460 -0.3301  0.1552
  575MOL0     H77608   7.733   6.172   6.425 -0.7511 -1.2246 -2.1920
  575MOL0     H77609   7.859   5.786   6.729  0.5023 -1.3211 -1.4672
  575MOL0     H77610   8.046   5.664   6.836 -2.7216  0.3946 -1.1884
  575MOL0     H77611   7.805   6.045   8.291 -0.1837 -0.6941  0.7740
  575MOL0     H77612   7.614   6.036   8.435 -1.6369 -0.4856  1.0500
  575MOL0     H77613   7.329   5.614   8.660  1.6634  1.8529 -0.3063
  575MOL0     H77614   7.148   5.597   8.800  3.7440  0.3883  0.3949
  575MOL0     H77615   6.932   5.552   8.868  3.3884  1.3576  0.4366
  575MOL0     H77616   6.979   5.672   8.981  0.4504  0.5643 -0.7601
  575MOL0     H77617   6.688   5.648   8.897  0.6703  1.3044 -0.0372
  575MOL0     H77618   6.765   5.768   8.997 -3.5093 -0.7244  0.4859
  575MOL0     H77619   6.807   5.587   9.166  0.8676 -0.3809 -0.7760
  575MOL0     H77620   6.770   5.461   9.052 -3.0730  0.0636 -3.2985
  575MOL0     H77621   6.578   5.679   9.137 -1.4825  0.5537 -0.3809
  575MOL0     H77622   6.592   5.516   9.221  2.7798  1.2937  1.1763
  575MOL0     H77623   6.368   5.399   8.884  2.0321  1.5294 -1.5195
  575MOL0     H77624   6.960   5.926   8.600 -1.3345 -1.9939  0.5056
  575MOL0     H77625   7.140   5.954   8.469 -0.3285 -0.1722 -1.5432
  576MOL0     O77626   1.139   5.213   3.321  0.0387 -0.0264 -0.3746
  576MOL0     C77627   1.126   5.090   3.334  0.5545  0.5855  1.5691
  576MOL0     O77628   1.015   5.015   3.373  0.6234 -0.2430  0.8891
  576MOL0     C77629   0.900   5.076   3.426 -0.3397  0.4165  0.7602
  576MOL0     C77630   0.876   5.208   3.451  0.5982 -0.0496 -0.7391
  576MOL0     C77631   0.762   5.246   3.520  0.3556  0.0529 -0.8861
  576MOL0     C77632   0.660   5.161   3.575  0.1163  0.0279 -0.4504
  576MOL0     O77633   0.558   5.202   3.654  0.4185  0.1502  0.3653
  576MOL0     C77634   0.528   5.341   3.644  0.4905 -0.1662 -1.0001
  576MOL0     C77635   0.591   5.394   3.769  0.0927  0.2708  0.9713
  576MOL0     C77636   0.540   5.535   3.795 -0.2709 -0.8083  0.4787
  576MOL0     C77637   0.576   5.580   3.933 -0.0186 -0.1898  0.1099
  576MOL0     C77638   0.518   5.720   3.954  0.4734 -0.7934  0.3256
  576MOL0     C77639   0.574   5.798   4.079  0.5372 -0.2441 -0.7678
  576MOL0     C77640   0.528   5.946   4.091 -0.0869  0.1118 -0.2455
  576MOL0     C77641   0.590   6.030   4.207 -0.4687 -0.3266 -0.0037
  576MOL0     N77642   0.490   6.040   4.320 -0.2750  1.2958  0.1062
  576MOL0     C77643   0.392   6.135   4.343  0.7716 -0.5916 -0.1192
  576MOL0     C77644   0.316   6.077   4.443 -0.9595 -0.3966  0.1395
  576MOL0     C77645   0.198   6.135   4.519 -0.1318 -0.6331  0.2317
  576MOL0     C77646   0.239   6.221   4.636 -0.3087  0.2104 -0.7275
  576MOL0     C77647   0.192   6.370   4.620  0.5032 -0.4165  0.1802
  576MOL0     C77648   0.267   6.448   4.508  0.2454 -0.3455 -0.1017
  576MOL0     O77649   0.187   6.460   4.396  0.7139 -0.3102 -0.4338
  576MOL0     C77650   0.246   6.436   4.276  0.1113  0.1517  0.5342
  576MOL0     C77651   0.360   6.493   4.229  0.9337 -0.1113  0.4965
  576MOL0     C77652   0.420   6.465   4.110 -0.0107  0.2807  0.5114
  576MOL0     C77653   0.543   6.544   4.052 -0.3859 -0.2742 -0.4097
  576MOL0     C77654   0.359   6.368   4.027  0.9612 -0.7108  0.1970
  576MOL0     C77655   0.408   6.338   3.887 -0.4914 -0.1358 -0.1957
  576MOL0     O77656   0.550   6.336   3.866 -0.6327  0.7202  0.3993
  576MOL0     C77657   0.606   6.340   3.747 -0.2548  0.4772  0.3923
  576MOL0     C77658   0.730   6.278   3.730  0.0395 -0.0518 -0.0497
  576MOL0     C77659   0.792   6.283   3.607 -0.3180 -0.5582 -0.0446
  576MOL0     C77660   0.727   6.343   3.496 -0.3106 -0.0487 -0.1283
  576MOL0     O77661   0.796   6.350   3.378 -0.9323 -0.1354 -0.1378
  576MOL0     C77662   0.731   6.348   3.250 -0.6449 -0.9091 -0.5613
  576MOL0     C77663   0.822   6.281   3.151 -0.0915  0.9874  0.1262
  576MOL0     C77664   0.755   6.254   3.017  0.0724 -0.1374  0.1830
  576MOL0     C77665   0.733   6.379   2.926 -0.4329  0.7106 -0.2387
  576MOL0     C77666   0.654   6.346   2.791 -0.9145  0.8157 -0.9342
  576MOL0     C77667   0.708   6.219   2.714 -0.5641 -0.2190  0.4065
  576MOL0     C77668   0.626   6.184   2.589 -0.4442  0.3811  0.3255
  576MOL0     C77669   0.694   6.059   2.513  0.1002  0.7865  0.6070
  576MOL0    Cl77670   0.831   6.099   2.396  0.0128 -0.1475 -0.4468
  576MOL0     C77671   0.606   6.411   3.514  0.2010  0.2452  0.4503
  576MOL0     C77672   0.550   6.413   3.644  0.2528  0.5528 -0.3204
  576MOL0     O77673   0.324   6.308   3.807  0.1543  0.1453 -0.0567
  576MOL0     C77674   0.237   6.313   4.066 -0.4981  0.1565  0.9374
  576MOL0     C77675   0.182   6.350   4.187 -0.4329  0.4251  0.3539
  576MOL0     N77676   0.363   5.950   4.471 -0.2473 -0.0266  0.5945
  576MOL0     N77677   0.470   5.924   4.397  0.3713 -0.2037  0.0683
  576MOL0     C77678   0.689   5.023   3.546  0.7774 -0.5714 -0.0289
  576MOL0     C77679   0.806   4.987   3.482  0.0749  0.2185  0.4915
  576MOL0     C77680   1.252   5.008   3.307  0.3283 -0.8393  0.0467
  576MOL0     C77681   1.255   4.867   3.321  0.5662  0.2627  0.1331
  576MOL0     C77682   1.373   4.797   3.298 -1.2009  0.4844  0.2300
  576MOL0     C77683   1.491   4.860   3.248 -0.3298  0.6453 -0.0482
  576MOL0     O77684   1.594   4.781   3.217 -0.1880  0.0204  0.6999
  576MOL0     C77685   1.631   4.674   3.310 -0.0703 -0.5402 -0.0047
  576MOL0     C77686   1.768   4.619   3.294 -0.4253 -0.3320  0.4426
  576MOL0     C77687   1.777   4.540   3.167 -0.8598 -0.3323  1.1003
  576MOL0     C77688   1.907   4.475   3.135 -0.5560 -0.3885  0.3043
  576MOL0     C77689   1.944   4.404   3.255 -0.1756  0.7523 -0.2373
  576MOL0     C77690   1.984   4.344   3.352  0.4055  0.9705  0.0877
  576MOL0     C77691   1.490   4.996   3.234  0.9461 -0.6537  0.4625
  576MOL0     C77692   1.369   5.068   3.262  0.2225 -0.5236  0.3159
  576MOL0     H77693   0.943   5.284   3.413 -0.0479  0.9181 -0.0018
  576MOL0     H77694   0.757   5.353   3.539 -1.6254 -0.3468  1.3352
  576MOL0     H77695   0.562   5.397   3.557  0.0921  1.2546 -0.2601
  576MOL0     H77696   0.421   5.359   3.657 -0.4695 -4.5438 -1.2848
  576MOL0     H77697   0.550   5.332   3.850 -3.4121 -0.0657 -0.8703
  576MOL0     H77698   0.699   5.385   3.755 -0.3620 -2.0304 -2.5146
  576MOL0     H77699   0.584   5.600   3.719 -0.0991 -2.0128 -0.4820
  576MOL0     H77700   0.431   5.535   3.794 -0.3007  0.9923  1.0197
  576MOL0     H77701   0.524   5.515   4.004 -1.1328 -0.8812 -1.2846
  576MOL0     H77702   0.684   5.587   3.944  0.0362  4.6723 -1.2971
  576MOL0     H77703   0.538   5.776   3.862 -1.3451 -0.7651 -0.0999
  576MOL0     H77704   0.409   5.718   3.968  0.2536  0.1981 -1.0700
  576MOL0     H77705   0.551   5.742   4.170 -2.3541  1.7785 -0.1096
  576MOL0     H77706   0.683   5.811   4.069  0.6480 -0.1996  0.3537
  576MOL0     H77707   0.559   5.992   3.997  3.0046 -2.7686 -0.7914
  576MOL0     H77708   0.421   5.960   4.106 -0.4803 -0.7296 -2.0884
  576MOL0     H77709   0.621   6.128   4.169  3.1240  0.3695  3.9563
  576MOL0     H77710   0.673   5.969   4.243 -0.7669  0.5811  2.3449
  576MOL0     H77711   0.370   6.217   4.276  2.9694 -0.7934 -1.1800
  576MOL0     H77712   0.132   6.188   4.449 -0.6165 -0.2397  0.9785
  576MOL0     H77713   0.146   6.052   4.567 -0.8037 -2.3073 -3.0801
  576MOL0     H77714   0.347   6.217   4.653 -0.7983  0.7808  3.5055
  576MOL0     H77715   0.199   6.194   4.734 -1.0073  3.1525 -0.1061
  576MOL0     H77716   0.199   6.435   4.708 -1.8474 -0.7352  0.6546
  576MOL0     H77717   0.085   6.370   4.597 -0.3571  0.1095  3.6962
  576MOL0     H77718   0.368   6.412   4.484  0.7779  1.5283 -0.8663
  576MOL0     H77719   0.291   6.548   4.546  0.9785  0.0245 -1.4581
  576MOL0     H77720   0.407   6.560   4.301  0.1224 -1.8099  2.7460
  576MOL0     H77721   0.525   6.579   3.950 -1.3384  2.1311  0.5130
  576MOL0     H77722   0.564   6.630   4.116 -2.5259 -1.8581  2.7026
  576MOL0     H77723   0.623   6.470   4.052 -1.6572 -1.9507  3.8003
  576MOL0     H77724   0.760   6.227   3.821  0.7790  1.0818  0.3602
  576MOL0     H77725   0.891   6.240   3.598 -0.6069 -1.2530  0.0803
  576MOL0     H77726   0.640   6.287   3.259 -0.1820 -1.3026  2.7956
  576MOL0     H77727   0.703   6.443   3.205  1.8464 -0.2097 -0.7870
  576MOL0     H77728   0.918   6.327   3.124 -0.3181  0.9530 -0.7836
  576MOL0     H77729   0.830   6.186   3.205  1.4647  1.4657  0.7786
  576MOL0     H77730   0.662   6.204   3.045 -0.0164  1.1413  2.4469
  576MOL0     H77731   0.820   6.184   2.963  0.4159 -1.0286  1.6804
  576MOL0     H77732   0.690   6.471   2.968  2.9275  2.7817 -0.9482
  576MOL0     H77733   0.830   6.422   2.901  1.0801 -0.0008  3.7188
  576MOL0     H77734   0.667   6.434   2.726  1.3049  0.4295 -1.0946
  576MOL0     H77735   0.547   6.334   2.809 -0.2543 -0.1922  3.1717
  576MOL0     H77736   0.813   6.235   2.691 -0.6575  0.1842  0.2575
  576MOL0     H77737   0.710   6.129   2.776 -1.9548 -0.1420  0.6108
  576MOL0     H77738   0.615   6.273   2.526  1.0537  0.2444 -0.1631
  576MOL0     H77739   0.525   6.161   2.624  0.2592 -1.2026  1.4145
  576MOL0     H77740   0.617   5.997   2.468 -0.9877  2.6446 -0.1987
  576MOL0     H77741   0.748   6.005   2.592 -0.2699  0.1066  0.3959
  576MOL0     H77742   0.568   6.474   3.435 -0.4219 -0.7604 -0.0750
  576MOL0     H77743   0.473   6.486   3.664 -0.0331 -0.5137  3.0084
  576MOL0     H77744   0.183   6.241   4.006 -1.6180  3.3463 -2.2646
  576MOL0     H77745   0.093   6.296   4.218  0.0394  0.4135  1.7408
  576MOL0     H77746   0.612   4.953   3.576 -0.4188  1.5855  2.2784
  576MOL0     H77747   0.830   4.882   3.469  0.8014  0.3894  0.4065
  576MOL0     H77748   1.164   4.815   3.348 -0.1072 -0.7669 -3.6168
  576MOL0     H77749   1.372   4.691   3.320  1.4256  0.4335  0.4834
  576MOL0     H77750   1.610   4.721   3.407 -4.1662  0.4661 -1.1814
  576MOL0     H77751   1.558   4.594   3.296 -3.6183  2.3501  0.5462
  576MOL0     H77752   1.782   4.553   3.380  1.6135 -1.4678 -0.6814
  576MOL0     H77753   1.837   4.704   3.293 -0.6931 -0.0828 -1.7619
  576MOL0     H77754   1.749   4.610   3.088 -1.8092 -1.0028  0.8248
  576MOL0     H77755   1.697   4.466   3.180  0.1735 -1.2310  2.6795
  576MOL0     H77756   1.976   4.553   3.103 -1.5054  0.0547 -0.7473
  576MOL0     H77757   1.905   4.402   3.054 -0.4957  0.0723 -0.1183
  576MOL0     H77758   2.033   4.283   3.424 -0.5368 -0.1253 -0.1617
  576MOL0     H77759   1.574   5.053   3.196  2.0047 -1.8643  0.9027
  576MOL0     H77760   1.367   5.174   3.237  0.4734 -1.0668 -2.3239
  577MOL0     O77761   6.802   5.575   5.428 -0.2530 -0.7058  0.2467
  577MOL0     C77762   6.838   5.564   5.549 -0.0216 -0.5511 -0.8882
  577MOL0     O77763   6.753   5.564   5.664 -0.4818 -0.9507  0.3110
  577MOL0     C77764   6.615   5.569   5.636 -0.7208 -0.5324 -0.6876
  577MOL0     C77765   6.536   5.477   5.700 -0.6288 -0.5109  0.5775
  577MOL0     C77766   6.401   5.493   5.713 -0.0684 -0.0715  0.0008
  577MOL0     C77767   6.335   5.587   5.631 -0.5348 -0.1609 -0.9523
  577MOL0     O77768   6.200   5.600   5.643  0.2570 -0.5273  0.4148
  577MOL0     C77769   6.129   5.678   5.547  0.3275 -0.6232  0.2345
  577MOL0     C77770   5.973   5.641   5.554  0.7379  0.8971 -0.2967
  577MOL0     C77771   5.876   5.759   5.504  1.1021  0.6907 -0.1677
  577MOL0     C77772   5.729   5.732   5.541 -0.6775  0.3256 -0.1196
  577MOL0     C77773   5.628   5.802   5.453 -0.6839 -0.7105 -0.8770
  577MOL0     C77774   5.638   5.771   5.307  0.9529  0.8931  1.0170
  577MOL0     C77775   5.498   5.742   5.253  0.3430 -0.8558 -0.0900
  577MOL0     C77776   5.416   5.881   5.244 -0.5543  0.7714 -0.9062
  577MOL0     N77777   5.275   5.857   5.202 -0.9431  0.0669 -0.4413
  577MOL0     C77778   5.177   5.806   5.280  0.6333 -0.5593 -0.1015
  577MOL0     C77779   5.071   5.809   5.197 -0.2393 -0.3226  0.6413
  577MOL0     C77780   4.923   5.800   5.238 -0.4120  0.0504 -0.3247
  577MOL0     C77781   4.852   5.678   5.196  0.3342  0.1633  0.2990
  577MOL0     C77782   4.709   5.719   5.148  0.8184 -0.3302  0.8644
  577MOL0     C77783   4.613   5.604   5.147  0.3689 -0.8986  0.4029
  577MOL0     O77784   4.548   5.593   5.278 -0.3763 -0.6136 -0.6362
  577MOL0     C77785   4.510   5.464   5.298 -0.6705  0.7570 -0.5461
  577MOL0     C77786   4.591   5.359   5.340  0.7310  0.3044 -0.3266
  577MOL0     C77787   4.544   5.221   5.346 -0.1184 -0.3810  0.0299
  577MOL0     C77788   4.650   5.124   5.378  0.2044 -0.4120 -0.1248
  577MOL0     C77789   4.410   5.198   5.326  0.2293  0.9530 -0.5319
  577MOL0     C77790   4.344   5.061   5.327 -0.1150 -0.1358 -0.7868
  577MOL0     O77791   4.217   5.058   5.370  1.1202  0.3732 -0.0666
  577MOL0     C77792   4.152   4.939   5.354  1.3363  1.4586  1.3133
  577MOL0     C77793   4.178   4.827   5.433  1.0594 -0.0782  0.4667
  577MOL0     C77794   4.137   4.699   5.410  0.3114 -0.2012  0.2473
  577MOL0     C77795   4.063   4.664   5.292 -1.0685  0.4549  0.6380
  577MOL0     O77796   4.043   4.533   5.271 -0.4017  0.5441  0.0304
  577MOL0     C77797   3.906   4.486   5.277  0.0999 -0.5285 -0.0217
  577MOL0     C77798   3.843   4.479   5.421  0.0789  1.4396  1.4462
  577MOL0     C77799   3.880   4.350   5.495 -0.5658 -0.2150  0.1555
  577MOL0     C77800   3.817   4.350   5.635  0.6963 -0.2728  1.0475
  577MOL0     C77801   3.895   4.433   5.737 -0.7976 -1.0175  0.3428
  577MOL0     C77802   3.836   4.452   5.873  0.0091 -0.7340  0.2395
  577MOL0     C77803   3.923   4.538   5.960 -0.1784 -0.0471 -0.0992
  577MOL0     C77804   3.891   4.524   6.104 -0.4216  0.0849  0.5479
  577MOL0    Cl77805   3.713   4.512   6.125  0.6980  0.1869 -0.2264
  577MOL0     C77806   4.037   4.775   5.207 -0.1844  0.2044 -0.4075
  577MOL0     C77807   4.077   4.909   5.241 -0.0960 -0.6191 -0.9814
  577MOL0     O77808   4.404   4.970   5.279  0.2980  0.4963  0.4901
  577MOL0     C77809   4.331   5.301   5.295  0.5056  0.2130 -0.5370
  577MOL0     C77810   4.381   5.431   5.277 -0.4156 -0.0098 -0.3366
  577MOL0     N77811   5.110   5.867   5.084 -0.4360 -0.2472  0.3530
  577MOL0     N77812   5.233   5.897   5.083  0.4288 -0.2907 -0.6112
  577MOL0     C77813   6.416   5.666   5.548  0.1429  0.5644 -0.1288
  577MOL0     C77814   6.554   5.665   5.555  0.2654 -0.6282 -0.1436
  577MOL0     C77815   6.988   5.542   5.578  0.4786 -0.8060  0.2374
  577MOL0     C77816   7.086   5.504   5.480  0.0277  0.3536 -0.9132
  577MOL0     C77817   7.225   5.505   5.513 -0.6456 -0.2744  0.0647
  577MOL0     C77818   7.255   5.531   5.649  0.3303  0.1040  1.2085
  577MOL0     O77819   7.376   5.513   5.698  0.2761 -0.4750 -0.3109
  577MOL0     C77820   7.464   5.424   5.627  0.3778 -0.7509 -0.8125
  577MOL0     C77821   7.580   5.375   5.707  0.2207  0.1961 -0.8587
  577MOL0     C77822   7.706   5.456   5.683  0.1420  0.5437 -0.8821
  577MOL0     C77823   7.823   5.367   5.705 -0.2009 -0.3307  0.8947
  577MOL0     C77824   7.948   5.430   5.661 -0.6316 -0.7472 -0.9390
  577MOL0     C77825   8.042   5.499   5.614  0.8595  0.6609  0.4983
  577MOL0     C77826   7.164   5.566   5.740 -0.0307  0.5333 -0.1050
  577MOL0     C77827   7.025   5.568   5.711 -0.2446  1.0725 -0.2088
  577MOL0     H77828   6.571   5.395   5.763  0.9015 -1.7794 -1.7444
  577MOL0     H77829   6.335   5.436   5.778 -0.0666 -1.6412 -1.3053
  577MOL0     H77830   6.134   5.783   5.575  1.5222 -0.2154 -1.3776
  577MOL0     H77831   6.172   5.676   5.447 -4.5154 -2.0495 -2.1508
  577MOL0     H77832   5.955   5.548   5.498 -0.4626  1.7114 -1.3282
  577MOL0     H77833   5.954   5.618   5.659  0.5141 -0.7263 -0.6587
  577MOL0     H77834   5.909   5.857   5.539 -1.7429  2.4315 -1.9624
  577MOL0     H77835   5.884   5.757   5.395  2.4337 -1.5694 -0.0842
  577MOL0     H77836   5.710   5.625   5.536 -0.9410  0.3945 -0.5739
  577MOL0     H77837   5.708   5.757   5.646  1.0805 -1.0731  0.6166
  577MOL0     H77838   5.527   5.791   5.493 -0.5879 -1.7130 -0.9088
  577MOL0     H77839   5.629   5.911   5.467  0.2941 -0.6405 -1.3862
  577MOL0     H77840   5.682   5.856   5.254 -2.6940  0.6448 -3.0254
  577MOL0     H77841   5.699   5.681   5.297 -0.6861 -0.1687 -0.0657
  577MOL0     H77842   5.501   5.686   5.158 -2.7601  0.7815 -1.2838
  577MOL0     H77843   5.451   5.676   5.326  0.5057 -0.5595  0.2853
  577MOL0     H77844   5.468   5.942   5.170 -0.7734 -1.6701 -3.2546
  577MOL0     H77845   5.412   5.934   5.340 -2.2732  0.6532 -0.8797
  577MOL0     H77846   5.179   5.769   5.383 -1.2555 -0.2435  0.0906
  577MOL0     H77847   4.911   5.798   5.346  0.4638  0.6224 -0.1968
  577MOL0     H77848   4.870   5.889   5.203 -1.8361 -0.2070  1.1035
  577MOL0     H77849   4.850   5.600   5.272 -1.3325 -1.4521 -1.2875
  577MOL0     H77850   4.900   5.626   5.112  1.9572 -0.4558  1.5532
  577MOL0     H77851   4.711   5.750   5.043 -2.5574  0.4211  0.8890
  577MOL0     H77852   4.671   5.809   5.198  2.5329  0.1500  1.3639
  577MOL0     H77853   4.672   5.514   5.131  1.2886 -0.2393 -0.0089
  577MOL0     H77854   4.533   5.621   5.075  0.8002  1.2018  0.3438
  577MOL0     H77855   4.694   5.386   5.358  0.6514 -0.1823  0.9399
  577MOL0     H77856   4.675   5.066   5.289  2.7897  1.4756 -0.7537
  577MOL0     H77857   4.742   5.180   5.399  0.0663  0.7663 -2.3151
  577MOL0     H77858   4.620   5.065   5.465  1.1849 -0.7267  0.0171
  577MOL0     H77859   4.245   4.839   5.518  0.7675 -1.0368  0.8527
  577MOL0     H77860   4.169   4.623   5.482 -0.7032  1.1839  2.2601
  577MOL0     H77861   3.844   4.560   5.225  0.8037  0.3780  0.3901
  577MOL0     H77862   3.894   4.387   5.233 -3.8016  0.8619 -2.5615
  577MOL0     H77863   3.875   4.560   5.487  0.9137  4.5241 -2.3498
  577MOL0     H77864   3.734   4.486   5.409  0.2539 -0.0918 -3.4508
  577MOL0     H77865   3.988   4.336   5.498 -0.9088 -3.2447  2.5202
  577MOL0     H77866   3.834   4.266   5.442  0.7948 -1.3980  0.7937
  577MOL0     H77867   3.711   4.378   5.627  0.4828 -1.5484 -1.8976
  577MOL0     H77868   3.801   4.246   5.666  0.7347 -1.1027 -1.4372
  577MOL0     H77869   3.918   4.533   5.699  0.4481 -1.7115 -0.7768
  577MOL0     H77870   3.992   4.388   5.759  1.3828  3.7629  1.8511
  577MOL0     H77871   3.733   4.488   5.863  0.6855  1.2588  0.0207
  577MOL0     H77872   3.835   4.359   5.930 -0.0690 -0.4031  0.7884
  577MOL0     H77873   3.923   4.644   5.933 -0.1895  0.7243  2.6721
  577MOL0     H77874   4.024   4.498   5.951  0.6131  2.2477 -3.6070
  577MOL0     H77875   3.933   4.613   6.153  1.0136 -0.5382  0.4768
  577MOL0     H77876   3.936   4.432   6.141  0.1072  0.5605  1.1037
  577MOL0     H77877   3.973   4.763   5.119 -1.3080 -0.1300  0.4294
  577MOL0     H77878   4.039   4.992   5.183 -1.5831 -2.4840 -2.8244
  577MOL0     H77879   4.225   5.300   5.272 -0.1252  1.0853  2.0453
  577MOL0     H77880   4.309   5.504   5.242 -1.5406 -0.8644  0.0808
  577MOL0     H77881   6.364   5.748   5.500  0.6588  0.3151 -1.1591
  577MOL0     H77882   6.611   5.739   5.500  1.2553  0.3813  2.1333
  577MOL0     H77883   7.047   5.505   5.379 -0.2661  1.6202 -0.8076
  577MOL0     H77884   7.299   5.480   5.438  1.6544 -0.6370  2.2906
  577MOL0     H77885   7.397   5.340   5.606 -2.4347  1.0937  0.3186
  577MOL0     H77886   7.510   5.477   5.543  2.5260  1.3586  1.5151
  577MOL0     H77887   7.600   5.271   5.682 -1.6905  0.2037 -2.6309
  577MOL0     H77888   7.557   5.379   5.814  2.7038 -1.2637 -0.1877
  577MOL0     H77889   7.704   5.540   5.753  1.2522 -1.5488  1.8073
  577MOL0     H77890   7.713   5.509   5.587 -0.9558  1.1388 -0.6576
  577MOL0     H77891   7.812   5.271   5.653 -3.0797 -1.1004  2.6628
  577MOL0     H77892   7.826   5.339   5.811 -1.4147  0.9620  1.2940
  577MOL0     H77893   8.123   5.554   5.570  0.0903  1.7976  0.4440
  577MOL0     H77894   7.179   5.607   5.839 -0.8064 -1.1053  0.7324
  577MOL0     H77895   6.956   5.605   5.787 -1.6928  1.9414 -1.8693
  578MOL0     O77896   0.484  10.879   9.110 -0.3224 -0.0022 -1.0208
  578MOL0     C77897   0.578  10.877   9.031  0.7815  0.2351  0.6032
  578MOL0     O77898   0.649  10.770   8.999 -0.1516 -0.2307  0.7140
  578MOL0     C77899   0.611  10.657   9.058 -0.0363 -0.0900  0.1467
  578MOL0     C77900   0.709  10.596   9.139 -0.2987  0.5527  0.6381
  578MOL0     C77901   0.684  10.468   9.199  0.2416  0.4029  0.0911
  578MOL0     C77902   0.565  10.404   9.167 -1.1367  0.8275  0.0945
  578MOL0     O77903   0.548  10.284   9.229  0.1230 -0.5023 -0.1998
  578MOL0     C77904   0.410  10.250   9.260  1.1226  0.7501 -0.3032
  578MOL0     C77905   0.395  10.137   9.366  0.4655  0.3045 -0.7479
  578MOL0     C77906   0.452  10.002   9.310 -0.5576  0.1016 -0.2500
  578MOL0     C77907   0.356   9.938   9.201 -1.0298  0.6387  0.0536
  578MOL0     C77908   0.399   9.788   9.180  0.7829 -0.1683  0.6848
  578MOL0     C77909   0.305   9.707   9.092 -0.7331  0.0567  0.1834
  578MOL0     C77910   0.350   9.560   9.070 -0.4663 -0.4578 -0.4338
  578MOL0     C77911   0.262   9.495   8.963 -0.0602 -0.1757 -0.3984
  578MOL0     N77912   0.290   9.533   8.821  0.0544 -0.5482  0.4208
  578MOL0     C77913   0.299   9.661   8.765  0.3431  0.4673  0.1155
  578MOL0     C77914   0.348   9.643   8.637 -0.5771  0.5432  0.4570
  578MOL0     C77915   0.365   9.739   8.527 -0.4472 -0.3114  0.1362
  578MOL0     C77916   0.237   9.828   8.500 -0.4108  0.1137 -0.2177
  578MOL0     C77917   0.264   9.947   8.407  0.0423 -0.0709  0.3068
  578MOL0     C77918   0.152  10.047   8.406  0.3853 -0.9150  0.7531
  578MOL0     O77919   0.024   9.996   8.359  0.1719 -0.0905  0.1339
  578MOL0     C77920  -0.093  10.067   8.374 -0.3632  0.1808  0.3612
  578MOL0     C77921  -0.221  10.002   8.358 -0.4655 -0.0515 -0.3608
  578MOL0     C77922  -0.342  10.074   8.377  0.0860 -0.0337  0.3910
  578MOL0     C77923  -0.471   9.996   8.347 -0.1257 -0.4595 -0.3932
  578MOL0     C77924  -0.341  10.212   8.405  0.0704  0.0184  0.8074
  578MOL0     C77925  -0.461  10.292   8.431 -0.6306  0.0454  0.2807
  578MOL0     O77926  -0.445  10.428   8.405 -0.1840 -0.3571 -0.0420
  578MOL0     C77927  -0.548  10.511   8.442 -0.1969 -0.1966  0.3269
  578MOL0     C77928  -0.565  10.546   8.576 -0.8001 -0.3077 -0.6715
  578MOL0     C77929  -0.671  10.631   8.617 -0.1785 -0.6546 -0.3705
  578MOL0     C77930  -0.765  10.676   8.518  0.7187  0.6142  0.2136
  578MOL0     O77931  -0.873  10.761   8.551  0.3380  0.3633  0.2780
  578MOL0     C77932  -0.900  10.868   8.461  0.2997  0.1636 -0.8786
  578MOL0     C77933  -1.015  10.846   8.367 -0.3615  0.1351 -0.6715
  578MOL0     C77934  -0.978  10.911   8.229 -0.4998 -0.2161  0.2953
  578MOL0     C77935  -1.001  11.067   8.215  1.9325 -0.0411 -0.2767
  578MOL0     C77936  -1.149  11.098   8.226 -0.0956  1.3092 -0.7961
  578MOL0     C77937  -1.196  11.237   8.201  0.4019  0.0913 -0.7752
  578MOL0     C77938  -1.354  11.255   8.194  0.1103 -0.0721 -0.4457
  578MOL0     C77939  -1.402  11.392   8.166  0.0888 -0.4150 -0.6021
  578MOL0    Cl77940  -1.470  11.482   8.305 -0.4377  0.2319  0.4982
  578MOL0     C77941  -0.738  10.637   8.386  0.1494  0.3653  0.7764
  578MOL0     C77942  -0.634  10.556   8.349 -0.5752 -1.2662 -0.5253
  578MOL0     O77943  -0.557  10.235   8.469 -0.6096  0.0894 -0.0568
  578MOL0     C77944  -0.214  10.274   8.419  0.3933 -0.3578  0.4142
  578MOL0     C77945  -0.090  10.201   8.412 -0.5478  0.2486  0.7820
  578MOL0     N77946   0.378   9.511   8.623 -0.6041 -0.4970 -0.1518
  578MOL0     N77947   0.347   9.443   8.727  0.1725  0.0009 -1.2971
  578MOL0     C77948   0.471  10.463   9.084 -0.0111  0.1681 -0.6547
  578MOL0     C77949   0.493  10.589   9.024 -0.0302  0.4074 -0.9441
  578MOL0     C77950   0.608  11.005   8.967 -0.5188 -0.0768 -0.1330
  578MOL0     C77951   0.683  11.006   8.849  0.4055  0.6213  0.5298
  578MOL0     C77952   0.708  11.128   8.788 -0.3987  0.6038  0.9483
  578MOL0     C77953   0.650  11.247   8.830 -0.4861 -0.2097 -1.1598
  578MOL0     O77954   0.655  11.358   8.748 -0.8010  0.2923  0.2645
  578MOL0     C77955   0.686  11.490   8.798 -0.2693  0.4109 -0.5655
  578MOL0     C77956   0.829  11.526   8.757  0.4050 -0.6200 -0.3161
  578MOL0     C77957   0.942  11.421   8.777 -0.3402  0.0815 -0.1006
  578MOL0     C77958   1.078  11.474   8.731 -0.0312 -0.7168 -0.3039
  578MOL0     C77959   1.112  11.434   8.593 -0.6152  0.1910  0.4311
  578MOL0     C77960   1.145  11.429   8.477 -1.1170 -0.4421 -0.0418
  578MOL0     C77961   0.582  11.238   8.951 -0.1470 -0.3555  0.1275
  578MOL0     C77962   0.565  11.123   9.020  1.1547  1.2389  0.5552
  578MOL0     H77963   0.810  10.632   9.156  0.0024 -1.2584  3.2729
  578MOL0     H77964   0.760  10.436   9.270 -0.9818 -0.8974  0.8778
  578MOL0     H77965   0.358  10.329   9.315 -1.6433 -1.8940  1.2340
  578MOL0     H77966   0.355  10.216   9.172 -0.8505 -0.3676  1.2780
  578MOL0     H77967   0.443  10.169   9.460 -0.2589 -1.8772  0.4441
  578MOL0     H77968   0.288  10.128   9.388  0.2090  0.6038 -1.8278
  578MOL0     H77969   0.551  10.015   9.264  0.0511  0.3720  1.1016
  578MOL0     H77970   0.474   9.938   9.395  1.8668 -0.7706 -1.4306
  578MOL0     H77971   0.252   9.945   9.232 -1.2407  0.0711 -0.5088
  578MOL0     H77972   0.372  10.010   9.120 -0.3945 -0.9682 -1.3005
  578MOL0     H77973   0.491   9.791   9.121  0.0008  0.5830 -0.5534
  578MOL0     H77974   0.422   9.744   9.277  0.9064 -0.1919  0.6451
  578MOL0     H77975   0.207   9.711   9.139 -0.0571  0.4696  1.6304
  578MOL0     H77976   0.301   9.763   8.999  1.5714 -1.2827 -0.8131
  578MOL0     H77977   0.453   9.554   9.034 -0.4498 -3.6926 -0.1439
  578MOL0     H77978   0.339   9.494   9.156 -0.1987 -0.9439 -0.7680
  578MOL0     H77979   0.160   9.530   8.976 -0.2300 -0.2915 -1.3129
  578MOL0     H77980   0.263   9.386   8.976 -0.0197 -0.1560 -0.2325
  578MOL0     H77981   0.259   9.753   8.807 -1.3946 -0.7337  1.2437
  578MOL0     H77982   0.454   9.798   8.554  1.1406 -2.5389  0.0381
  578MOL0     H77983   0.390   9.680   8.439  0.8507  1.7528 -0.9607
  578MOL0     H77984   0.204   9.874   8.593  2.4429 -2.4689  2.3035
  578MOL0     H77985   0.159   9.764   8.457 -0.1149  2.2606 -4.5751
  578MOL0     H77986   0.276   9.907   8.306  1.9246  0.4289  0.3110
  578MOL0     H77987   0.357  10.001   8.427  1.2119 -2.3249  1.2503
  578MOL0     H77988   0.181  10.128   8.338 -0.5793 -1.2472 -0.0767
  578MOL0     H77989   0.149  10.086   8.508 -0.9975 -1.2832  0.8652
  578MOL0     H77990  -0.227   9.900   8.320  4.9661 -0.7370 -0.1441
  578MOL0     H77991  -0.535   9.989   8.436 -2.0512  0.5922 -1.6295
  578MOL0     H77992  -0.526  10.047   8.268 -2.0083  0.6042  1.4757
  578MOL0     H77993  -0.435   9.896   8.320 -0.4788 -1.0036  1.0177
  578MOL0     H77994  -0.499  10.515   8.657 -0.9414  0.9749 -0.0291
  578MOL0     H77995  -0.694  10.652   8.721  1.8305  0.2917 -0.0696
  578MOL0     H77996  -0.940  10.951   8.520 -0.9157 -1.5676  0.8636
  578MOL0     H77997  -0.817  10.916   8.409 -1.0247  2.4542 -1.0342
  578MOL0     H77998  -1.022  10.737   8.359 -0.5378  0.2869 -3.1821
  578MOL0     H77999  -1.111  10.892   8.393  1.1364  3.0790  0.1264
  578MOL0     H78000  -1.035  10.848   8.160 -0.1265  0.0855 -0.2963
  578MOL0     H78001  -0.876  10.881   8.204 -2.1612 -5.1649 -1.8334
  578MOL0     H78002  -0.950  11.114   8.300 -0.2773 -1.7832  2.1599
  578MOL0     H78003  -0.959  11.095   8.118 -0.5098  2.0838 -0.8320
  578MOL0     H78004  -1.178  11.075   8.329  1.2354 -0.6397 -0.8132
  578MOL0     H78005  -1.203  11.029   8.160  0.1044 -3.5304  3.5003
  578MOL0     H78006  -1.160  11.296   8.285  3.0950 -3.3965  0.7813
  578MOL0     H78007  -1.149  11.276   8.110  1.9918 -1.4223 -0.6593
  578MOL0     H78008  -1.410  11.231   8.285  1.4309  0.0869  0.4208
  578MOL0     H78009  -1.385  11.197   8.106 -1.9712  1.2934 -0.6888
  578MOL0     H78010  -1.478  11.375   8.089 -1.6656  0.5610  0.8291
  578MOL0     H78011  -1.320  11.444   8.115  0.9246 -1.3222 -0.2150
  578MOL0     H78012  -0.801  10.671   8.305  2.3920 -2.0084 -2.1937
  578MOL0     H78013  -0.636  10.521   8.246 -0.1230 -0.0231 -0.9684
  578MOL0     H78014  -0.213  10.379   8.447  1.6070 -0.5795  1.2327
  578MOL0     H78015   0.008  10.249   8.422 -0.9755  1.4347 -0.4140
  578MOL0     H78016   0.385  10.399   9.064 -0.5476  0.0056  1.7996
  578MOL0     H78017   0.411  10.635   8.969  0.8497  0.2793 -2.3820
  578MOL0     H78018   0.710  10.910   8.807 -1.4765  0.8351 -1.2922
  578MOL0     H78019   0.763  11.133   8.694 -4.2560  1.9380 -1.5364
  578MOL0     H78020   0.618  11.562   8.753 -1.1125 -0.0133  0.0139
  578MOL0     H78021   0.671  11.500   8.905  1.3736  0.2891 -0.2914
  578MOL0     H78022   0.851  11.609   8.824 -0.6410 -2.1939  2.1203
  578MOL0     H78023   0.826  11.555   8.651  0.4294  1.2696  0.1703
  578MOL0     H78024   0.924  11.324   8.730 -0.4353 -1.3246  2.6564
  578MOL0     H78025   0.942  11.412   8.886 -3.1102 -1.9697 -0.1868
  578MOL0     H78026   1.165  11.440   8.789  1.6079  0.8884 -1.6996
  578MOL0     H78027   1.085  11.580   8.757 -0.9742 -1.1266  1.8952
  578MOL0     H78028   1.202  11.441   8.388  1.3426 -3.1617  1.0040
  578MOL0     H78029   0.538  11.330   8.988 -0.6120 -1.4145  2.3968
  578MOL0     H78030   0.510  11.109   9.113  1.4555  0.6387  0.6459
  579MOL0     O78031   2.974   9.933   5.602  0.2648 -0.2468 -0.1975
  579MOL0     C78032   3.056   9.841   5.617 -1.2262  0.0490 -0.8354
  579MOL0     O78033   3.036   9.703   5.595  0.3397 -0.0081 -0.5558
  579MOL0     C78034   2.914   9.651   5.555 -0.1245  0.0859  0.7533
  579MOL0     C78035   2.790   9.711   5.545 -0.6941 -0.2024 -0.4350
  579MOL0     C78036   2.683   9.658   5.477 -0.0864  0.7667 -0.0403
  579MOL0     C78037   2.687   9.526   5.421 -0.1762  0.0510  0.8073
  579MOL0     O78038   2.580   9.475   5.350  0.6124 -0.3388 -0.4245
  579MOL0     C78039   2.570   9.339   5.315  0.4155  0.3745  0.8584
  579MOL0     C78040   2.548   9.235   5.432 -0.6334 -0.4330  0.6750
  579MOL0     C78041   2.417   9.279   5.499  0.0931  0.1152  0.1756
  579MOL0     C78042   2.327   9.171   5.554 -0.8846  0.2310 -1.4205
  579MOL0     C78043   2.398   9.085   5.665  0.0249  0.1795  0.0353
  579MOL0     C78044   2.298   8.979   5.733 -0.3675 -0.0569 -0.0642
  579MOL0     C78045   2.372   8.870   5.812  0.3671 -0.4829 -0.0864
  579MOL0     C78046   2.291   8.745   5.822  0.0281  0.6051  0.6795
  579MOL0     N78047   2.164   8.744   5.897  0.4624  0.0619 -0.3802
  579MOL0     C78048   2.046   8.815   5.878 -0.6845  0.2655  1.4766
  579MOL0     C78049   1.955   8.785   5.972  0.5485  0.5913 -0.4524
  579MOL0     C78050   1.822   8.860   6.005 -1.2885 -0.3225 -0.0958
  579MOL0     C78051   1.850   9.013   6.039  0.0991 -0.3125  0.2710
  579MOL0     C78052   1.819   9.108   5.915  0.0237  0.0919  0.1820
  579MOL0     C78053   1.676   9.142   5.882 -0.1049  0.9916  0.0019
  579MOL0     O78054   1.621   9.222   5.992 -0.1709  0.2294  0.0973
  579MOL0     C78055   1.523   9.315   5.953 -0.6447  0.3503 -0.2195
  579MOL0     C78056   1.489   9.428   6.022  0.0844  0.1303  0.3329
  579MOL0     C78057   1.387   9.511   6.002 -0.5041  0.2624  0.3504
  579MOL0     C78058   1.362   9.614   6.115  0.5158  0.1011 -0.4540
  579MOL0     C78059   1.307   9.490   5.887 -0.3586  0.5288 -0.5929
  579MOL0     C78060   1.204   9.578   5.843  0.5644 -0.3273 -0.5080
  579MOL0     O78061   1.174   9.569   5.709 -0.1243  0.8164  0.2651
  579MOL0     C78062   1.080   9.644   5.641  0.6161  0.1828  0.5057
  579MOL0     C78063   0.991   9.592   5.550 -0.1567  0.7201 -0.5908
  579MOL0     C78064   0.912   9.675   5.465 -1.1133 -0.1356  0.0007
  579MOL0     C78065   0.918   9.815   5.472 -0.3075 -0.7076  0.1885
  579MOL0     O78066   0.854   9.891   5.385 -0.6722 -0.5290  0.3539
  579MOL0     C78067   0.714   9.868   5.393  0.0050  0.6524  0.4958
  579MOL0     C78068   0.647  10.007   5.372 -0.1380  0.3010 -0.8087
  579MOL0     C78069   0.498   9.982   5.359 -0.5890 -0.3931 -0.3861
  579MOL0     C78070   0.455   9.915   5.222 -0.6483  0.1296  0.0881
  579MOL0     C78071   0.306   9.941   5.188  0.1593 -0.0061  0.1118
  579MOL0     C78072   0.265   9.878   5.054  0.1283 -0.5254 -0.3522
  579MOL0     C78073   0.121   9.919   5.015  0.1571  0.7183 -0.2759
  579MOL0     C78074   0.023   9.858   5.118  0.6241  0.1265  0.0738
  579MOL0    Cl78075  -0.139   9.879   5.053  0.4981  0.3365 -0.2148
  579MOL0     C78076   1.006   9.862   5.569 -0.2460 -0.4684 -0.4266
  579MOL0     C78077   1.074   9.780   5.657  0.2211  0.7937  0.5195
  579MOL0     O78078   1.144   9.644   5.927  0.6416 -0.3190 -0.4547
  579MOL0     C78079   1.338   9.372   5.812  0.8256 -1.3667 -0.3416
  579MOL0     C78080   1.442   9.289   5.844  0.1590 -0.5772  0.2442
  579MOL0     N78081   2.018   8.678   6.039 -0.3493  0.1774 -0.9699
  579MOL0     N78082   2.141   8.674   6.009  0.3987 -0.0548 -0.8522
  579MOL0     C78083   2.817   9.457   5.443  0.0789  0.1924  0.5651
  579MOL0     C78084   2.921   9.519   5.510  0.6959 -0.0072 -0.0031
  579MOL0     C78085   3.194   9.900   5.655  0.1480  0.0991 -0.5923
  579MOL0     C78086   3.210  10.039   5.676  0.5352 -0.6903 -0.2433
  579MOL0     C78087   3.332  10.089   5.724  0.8994 -0.1145 -0.2222
  579MOL0     C78088   3.443  10.004   5.741 -0.1457  0.1502 -0.4049
  579MOL0     O78089   3.561  10.047   5.784 -0.3219 -0.4241  0.2478
  579MOL0     C78090   3.587  10.183   5.734 -0.3830  1.0896  0.2957
  579MOL0     C78091   3.738  10.197   5.759  0.0822  0.5549  0.1253
  579MOL0     C78092   3.813  10.104   5.659  0.3950  0.7475  0.4083
  579MOL0     C78093   3.944  10.034   5.709  0.2472 -0.3984 -0.1520
  579MOL0     C78094   4.003   9.931   5.619  0.2070 -0.1376 -0.3255
  579MOL0     C78095   4.039   9.841   5.541 -0.2680  0.1804 -0.8167
  579MOL0     C78096   3.423   9.864   5.725  0.2976 -0.4367  0.4959
  579MOL0     C78097   3.300   9.816   5.676  0.0821  0.1310 -0.0288
  579MOL0     H78098   2.779   9.808   5.591 -0.8491 -0.1760 -0.5256
  579MOL0     H78099   2.588   9.710   5.482  0.4231  1.7269 -0.1213
  579MOL0     H78100   2.490   9.340   5.241  2.4778  1.2751 -1.4801
  579MOL0     H78101   2.652   9.315   5.246 -0.7792  1.4116 -0.9940
  579MOL0     H78102   2.548   9.134   5.391  3.2971  0.3067 -1.5908
  579MOL0     H78103   2.638   9.247   5.494  1.1899 -1.6623 -1.5933
  579MOL0     H78104   2.439   9.349   5.581 -0.2550 -0.2743  0.6063
  579MOL0     H78105   2.353   9.341   5.435  1.1851  2.4137  1.1759
  579MOL0     H78106   2.250   9.228   5.608  3.8337  4.2568  2.0548
  579MOL0     H78107   2.291   9.113   5.469  1.4843 -0.9468 -1.7049
  579MOL0     H78108   2.481   9.037   5.612 -0.9057  2.4301 -3.8190
  579MOL0     H78109   2.445   9.152   5.739  0.9096 -2.1271  1.6705
  579MOL0     H78110   2.234   9.028   5.807  0.7005 -0.5064  1.1852
  579MOL0     H78111   2.230   8.940   5.657 -3.0732  2.9170  0.5977
  579MOL0     H78112   2.464   8.839   5.762 -0.1090  0.0968 -1.3518
  579MOL0     H78113   2.405   8.908   5.910 -0.6709 -0.2176  0.1684
  579MOL0     H78114   2.354   8.666   5.862  2.7780  0.8392 -2.7806
  579MOL0     H78115   2.273   8.718   5.718 -2.6639  1.4179  0.8364
  579MOL0     H78116   2.035   8.889   5.800  1.7390  0.6837  1.4420
  579MOL0     H78117   1.753   8.861   5.921  0.8029  1.5632 -1.9360
  579MOL0     H78118   1.779   8.806   6.089  0.9630  0.5283  1.7369
  579MOL0     H78119   1.955   9.025   6.067 -0.6792  0.4687  3.1613
  579MOL0     H78120   1.778   9.044   6.115 -0.4054 -0.3852 -0.1644
  579MOL0     H78121   1.871   9.067   5.828  3.5907 -0.3882  2.3638
  579MOL0     H78122   1.870   9.199   5.946 -1.2803  1.5112 -1.5932
  579MOL0     H78123   1.615   9.052   5.872 -0.3256  1.1301  0.0667
  579MOL0     H78124   1.669   9.192   5.785 -1.0648 -2.8484 -2.1006
  579MOL0     H78125   1.557   9.445   6.105 -0.5041 -2.7293  1.5407
  579MOL0     H78126   1.391   9.579   6.215  1.8792  0.0983 -0.8250
  579MOL0     H78127   1.417   9.705   6.088 -0.6212  0.2786 -2.3202
  579MOL0     H78128   1.255   9.631   6.124  0.6350  2.2638 -2.2145
  579MOL0     H78129   0.978   9.485   5.550 -0.8229  0.7878 -1.7590
  579MOL0     H78130   0.852   9.635   5.384 -2.0940  3.9993 -1.6029
  579MOL0     H78131   0.685   9.786   5.328  1.8698  0.4272 -0.1073
  579MOL0     H78132   0.686   9.842   5.496 -1.8900 -0.4405 -0.2528
  579MOL0     H78133   0.663  10.064   5.464 -0.1038 -1.0890  0.0924
  579MOL0     H78134   0.692  10.048   5.282  1.2270 -1.6346 -1.0813
  579MOL0     H78135   0.445  10.077   5.362 -0.9761 -0.6002  2.8163
  579MOL0     H78136   0.450   9.924   5.439  1.7476 -0.5196  1.0309
  579MOL0     H78137   0.518   9.959   5.145 -1.4305  1.1791  0.0214
  579MOL0     H78138   0.467   9.807   5.224 -1.4002  0.0455  1.0870
  579MOL0     H78139   0.281  10.047   5.188 -2.1288 -0.3963  3.1944
  579MOL0     H78140   0.253   9.902   5.276 -1.9425  1.4525 -0.4421
  579MOL0     H78141   0.326   9.923   4.974 -2.8927 -1.5129 -3.4407
  579MOL0     H78142   0.278   9.770   5.060  0.4109 -0.4035  2.8120
  579MOL0     H78143   0.101   9.884   4.913  0.2203  1.1563 -0.4428
  579MOL0     H78144   0.113  10.029   5.016  1.1630  0.8006  0.4217
  579MOL0     H78145   0.042   9.907   5.214  0.1828 -0.6435  0.5620
  579MOL0     H78146   0.050   9.753   5.132  3.6505  1.0206  2.0569
  579MOL0     H78147   1.025   9.969   5.560 -0.1672 -0.5718 -1.6339
  579MOL0     H78148   1.127   9.832   5.736 -0.6301  0.4080  1.3617
  579MOL0     H78149   1.277   9.362   5.724 -0.9071  5.8962 -0.5742
  579MOL0     H78150   1.455   9.201   5.783 -0.4784  1.0043 -2.3490
  579MOL0     H78151   2.834   9.364   5.390 -0.4459  1.8474 -2.7379
  579MOL0     H78152   3.016   9.466   5.518  1.3250  1.3686  2.9687
  579MOL0     H78153   3.128  10.105   5.651  0.7448 -0.8402 -1.3724
  579MOL0     H78154   3.335  10.196   5.744  1.8092 -0.6529  3.0731
  579MOL0     H78155   3.566  10.205   5.629 -1.5482 -0.4633  0.1635
  579MOL0     H78156   3.537  10.256   5.800 -0.0025 -0.5902  2.5502
  579MOL0     H78157   3.769  10.173   5.861  1.8664  0.7596 -0.3453
  579MOL0     H78158   3.768  10.301   5.743  4.5653 -0.4988  0.5191
  579MOL0     H78159   3.828  10.162   5.567 -1.2213  0.2065 -0.2283
  579MOL0     H78160   3.737  10.031   5.629 -1.4252  3.2123 -1.4301
  579MOL0     H78161   3.925   9.981   5.803 -0.8100 -1.4186 -0.9083
  579MOL0     H78162   4.016  10.110   5.742 -0.8548  1.3210 -1.5218
  579MOL0     H78163   4.057   9.752   5.483 -0.2787 -2.5132  2.9447
  579MOL0     H78164   3.511   9.801   5.733 -0.6721 -2.6800 -3.5883
  579MOL0     H78165   3.290   9.711   5.652  0.4486  0.6650 -2.9637
  580MOL0     O78166   5.041   0.865   1.715 -0.2814 -0.2806  0.4203
  580MOL0     C78167   5.010   0.987   1.708  0.1535 -0.4869  0.1800
  580MOL0     O78168   4.880   1.040   1.703  0.1018  0.3512  0.2310
  580MOL0     C78169   4.776   0.953   1.693  0.9137 -0.1116  0.4696
  580MOL0     C78170   4.659   0.978   1.776  0.1400  0.3143 -0.7202
  580MOL0     C78171   4.550   0.893   1.763 -0.6787 -0.1727  0.3145
  580MOL0     C78172   4.557   0.788   1.666  0.9503  0.1584 -0.3673
  580MOL0     O78173   4.446   0.716   1.648  0.5088  0.8262  0.6906
  580MOL0     C78174   4.388   0.700   1.516 -0.1025 -0.1341  0.0646
  580MOL0     C78175   4.233   0.700   1.533  1.0591  0.2625  0.1205
  580MOL0     C78176   4.186   0.571   1.603  0.5350  0.5073 -0.4637
  580MOL0     C78177   4.029   0.560   1.605  0.1047 -0.3950  0.5014
  580MOL0     C78178   3.974   0.440   1.674  0.4188  0.1185 -0.0855
  580MOL0     C78179   3.992   0.438   1.829 -0.0166 -0.0124 -0.6203
  580MOL0     C78180   3.923   0.312   1.887 -0.1633 -0.4692  0.2761
  580MOL0     C78181   3.804   0.247   1.810  0.8031 -0.1062  0.5336
  580MOL0     N78182   3.749   0.135   1.895 -0.0541  0.1090 -0.3050
  580MOL0     C78183   3.645   0.152   1.987 -0.7409 -0.1771  0.0011
  580MOL0     C78184   3.634   0.034   2.050 -0.4113  0.4860 -0.2884
  580MOL0     C78185   3.550  -0.001   2.170 -0.3227 -0.6741 -0.0047
  580MOL0     C78186   3.461  -0.118   2.136 -1.2216  0.3982  0.5351
  580MOL0     C78187   3.379  -0.168   2.246 -0.0969  0.3098  0.0797
  580MOL0     C78188   3.288  -0.280   2.199 -0.4301 -0.1663 -0.2257
  580MOL0     O78189   3.174  -0.234   2.117 -0.0795 -0.0690  0.0669
  580MOL0     C78190   3.047  -0.227   2.168  0.0902  0.2765 -0.4749
  580MOL0     C78191   3.022  -0.246   2.306  0.0221 -0.1644  0.0771
  580MOL0     C78192   2.894  -0.231   2.364 -0.6980  0.0279  0.5564
  580MOL0     C78193   2.885  -0.247   2.508 -0.4629  0.5109  0.1921
  580MOL0     C78194   2.789  -0.184   2.274  0.1610 -0.3419 -1.3314
  580MOL0     C78195   2.651  -0.152   2.331 -0.1521 -0.5997  0.1332
  580MOL0     O78196   2.593  -0.041   2.278 -0.6264 -0.7645 -0.6775
  580MOL0     C78197   2.460  -0.020   2.305  0.6390  0.2345 -0.3419
  580MOL0     C78198   2.416   0.098   2.367 -0.1278 -0.3805 -0.5644
  580MOL0     C78199   2.279   0.123   2.394 -0.2267  0.3754  1.1548
  580MOL0     C78200   2.181   0.030   2.348 -0.2905  0.1865 -0.1184
  580MOL0     O78201   2.052   0.060   2.389  0.2143  0.7409 -0.0676
  580MOL0     C78202   1.946   0.029   2.297  0.9827  0.2277  0.4120
  580MOL0     C78203   1.816   0.038   2.382  0.1574 -0.8278  0.0393
  580MOL0     C78204   1.769   0.177   2.402 -0.2074 -0.8433 -0.4930
  580MOL0     C78205   1.631   0.189   2.470  0.0753 -0.7780 -0.1714
  580MOL0     C78206   1.576   0.330   2.481 -0.0276 -0.1192 -0.0033
  580MOL0     C78207   1.463   0.336   2.583 -0.4680  1.0801  0.3586
  580MOL0     C78208   1.335   0.268   2.526  0.6016 -0.0447  0.2578
  580MOL0     C78209   1.275   0.177   2.630  0.1859 -0.3006 -0.4565
  580MOL0    Cl78210   1.396   0.046   2.657  0.3136 -0.3330 -0.8551
  580MOL0     C78211   2.226  -0.091   2.284  0.2462 -0.4469  1.1986
  580MOL0     C78212   2.360  -0.113   2.259 -0.7982 -0.5132 -1.2369
  580MOL0     O78213   2.606  -0.218   2.417  0.2183  0.1576  0.4171
  580MOL0     C78214   2.815  -0.158   2.132  1.0433 -0.4281 -0.7945
  580MOL0     C78215   2.942  -0.182   2.080 -0.8348 -0.1713 -0.1184
  580MOL0     N78216   3.717  -0.054   1.989 -0.4494  0.1015 -0.7265
  580MOL0     N78217   3.784   0.007   1.896  0.5702  1.0954  0.8287
  580MOL0     C78218   4.668   0.768   1.588  1.2368 -0.1709  1.3410
  580MOL0     C78219   4.778   0.846   1.597 -0.3261 -0.7100 -1.2295
  580MOL0     C78220   5.116   1.086   1.695 -0.0526  0.0563 -0.0881
  580MOL0     C78221   5.097   1.212   1.633 -0.2459  0.2568  0.2923
  580MOL0     C78222   5.197   1.308   1.629  0.8128  1.0029 -0.2448
  580MOL0     C78223   5.316   1.277   1.700  0.5986 -0.5028 -0.2960
  580MOL0     O78224   5.420   1.369   1.703 -0.0381 -0.0082  0.0467
  580MOL0     C78225   5.413   1.483   1.615  0.6754 -0.0372 -0.6733
  580MOL0     C78226   5.526   1.579   1.636  0.2959  0.3892  0.0392
  580MOL0     C78227   5.563   1.624   1.777 -0.7367 -0.1536 -0.8185
  580MOL0     C78228   5.677   1.739   1.781  0.3136  0.1047  0.4099
  580MOL0     C78229   5.811   1.676   1.774  0.1747 -1.5951 -0.4474
  580MOL0     C78230   5.920   1.632   1.776 -0.4176  0.4171  0.0405
  580MOL0     C78231   5.337   1.155   1.763  0.5350  0.2519  0.5229
  580MOL0     C78232   5.239   1.054   1.749 -0.4130 -0.4117 -1.2871
  580MOL0     H78233   4.661   1.068   1.837 -1.0817 -0.6840  0.8477
  580MOL0     H78234   4.466   0.907   1.831  0.1023 -0.3158  1.3227
  580MOL0     H78235   4.420   0.778   1.447  0.9382 -0.4988  0.1173
  580MOL0     H78236   4.422   0.607   1.469 -1.8723  0.4893 -2.6507
  580MOL0     H78237   4.209   0.791   1.588  0.6523  1.6257 -2.2163
  580MOL0     H78238   4.190   0.693   1.433  0.5356 -1.3641  0.4261
  580MOL0     H78239   4.229   0.485   1.551 -0.7895 -1.4255  1.4742
  580MOL0     H78240   4.220   0.571   1.707  0.3691 -1.6948 -0.3568
  580MOL0     H78241   3.991   0.656   1.641 -1.3409  0.0576 -1.9876
  580MOL0     H78242   3.980   0.556   1.507 -0.4993  0.5740  0.7506
  580MOL0     H78243   3.865   0.450   1.671  0.2283 -1.6492 -0.0961
  580MOL0     H78244   4.005   0.342   1.639  0.2169  0.1336 -0.3035
  580MOL0     H78245   4.101   0.433   1.839  0.0600 -2.0243 -1.9868
  580MOL0     H78246   3.958   0.534   1.869 -0.0256 -0.2328 -0.0867
  580MOL0     H78247   4.000   0.235   1.883 -0.3842 -0.6919 -3.4166
  580MOL0     H78248   3.885   0.328   1.988  0.5931  0.4178  0.4338
  580MOL0     H78249   3.845   0.213   1.715  1.6208  0.5841  0.6286
  580MOL0     H78250   3.727   0.324   1.799  2.0040  1.2447  1.1850
  580MOL0     H78251   3.596   0.248   1.993  1.6088  0.9842  2.7351
  580MOL0     H78252   3.614  -0.032   2.254 -2.3925 -0.6098  1.6817
  580MOL0     H78253   3.494   0.084   2.211  0.0451 -0.4138 -0.0342
  580MOL0     H78254   3.510  -0.198   2.079 -0.5349  0.9473  0.3413
  580MOL0     H78255   3.380  -0.080   2.072 -1.6906  1.1133  1.5271
  580MOL0     H78256   3.316  -0.084   2.277  1.5327  1.4140  0.4677
  580MOL0     H78257   3.447  -0.197   2.327  2.5652  0.9427 -1.7974
  580MOL0     H78258   3.251  -0.327   2.290 -1.6269  0.7019 -0.2442
  580MOL0     H78259   3.360  -0.345   2.148  0.3389  1.6648 -1.5772
  580MOL0     H78260   3.092  -0.275   2.383  0.2548  0.5551  0.1395
  580MOL0     H78261   2.795  -0.299   2.541 -1.0161  2.2715  1.5971
  580MOL0     H78262   2.969  -0.295   2.560 -0.0740  1.4671  0.4620
  580MOL0     H78263   2.872  -0.152   2.559 -2.2633 -0.3779  1.4688
  580MOL0     H78264   2.486   0.178   2.391  1.6783 -0.6758 -4.1865
  580MOL0     H78265   2.258   0.215   2.446  1.9612  1.7941 -0.2766
  580MOL0     H78266   1.949   0.098   2.212  2.5263  0.2041  0.4210
  580MOL0     H78267   1.960  -0.073   2.260  2.2079  0.7951 -0.7477
  580MOL0     H78268   1.742  -0.022   2.329  1.7735 -1.8735 -1.1133
  580MOL0     H78269   1.815   0.002   2.485 -2.0607 -0.4560  0.2011
  580MOL0     H78270   1.763   0.215   2.299  1.8070 -0.0984 -0.3869
  580MOL0     H78271   1.850   0.234   2.450 -1.0110  1.7708 -2.0146
  580MOL0     H78272   1.554   0.122   2.431  1.9717 -3.4150  0.3247
  580MOL0     H78273   1.639   0.153   2.573 -2.1348  1.0879  0.7280
  580MOL0     H78274   1.529   0.359   2.386  4.8773 -0.6120 -2.8847
  580MOL0     H78275   1.650   0.400   2.520 -1.5563  2.0082 -0.7078
  580MOL0     H78276   1.495   0.292   2.678 -1.4709  0.2156  0.3124
  580MOL0     H78277   1.444   0.443   2.600  0.0033  1.7783 -2.9194
  580MOL0     H78278   1.351   0.207   2.437  1.1257 -1.2998  1.1847
  580MOL0     H78279   1.266   0.350   2.502  1.1468  0.7891  1.3973
  580MOL0     H78280   1.189   0.124   2.587 -1.7854  1.2910  1.3318
  580MOL0     H78281   1.242   0.232   2.718 -1.1215 -0.0283 -1.0888
  580MOL0     H78282   2.165  -0.176   2.255  1.1924 -0.6550 -0.3339
  580MOL0     H78283   2.390  -0.202   2.205 -2.8053 -0.4575 -2.5437
  580MOL0     H78284   2.739  -0.101   2.080 -1.5554 -3.5428 -0.7533
  580MOL0     H78285   2.965  -0.153   1.978 -0.3961 -1.4895 -0.4147
  580MOL0     H78286   4.662   0.693   1.510 -1.8131  1.3831 -0.0644
  580MOL0     H78287   4.863   0.823   1.535  1.5909  0.7524  0.7020
  580MOL0     H78288   5.006   1.227   1.576  0.0276  1.2198  0.0818
  580MOL0     H78289   5.180   1.391   1.561 -2.8682 -0.3750 -1.2378
  580MOL0     H78290   5.399   1.459   1.509  1.5167 -0.4717 -0.7014
  580MOL0     H78291   5.329   1.542   1.652  2.6773 -0.1458  5.0884
  580MOL0     H78292   5.509   1.674   1.584  1.3837  1.5877  1.7456
  580MOL0     H78293   5.615   1.537   1.590  2.4677  3.7842  0.7444
  580MOL0     H78294   5.593   1.534   1.831  0.9257  0.8167 -0.0610
  580MOL0     H78295   5.477   1.663   1.832  1.0245 -0.6158  2.5409
  580MOL0     H78296   5.655   1.791   1.875 -0.3551  1.0974 -0.2697
  580MOL0     H78297   5.677   1.814   1.701  4.4127  1.5011  1.5163
  580MOL0     H78298   6.016   1.590   1.798 -1.3554 -1.0696  1.6105
  580MOL0     H78299   5.434   1.139   1.809 -1.4765  0.3038  5.3097
  580MOL0     H78300   5.267   0.962   1.801  0.7812 -0.1672 -1.4738
  581MOL0     O78301   0.008   5.943   9.239 -0.1973  1.0528 -0.3061
  581MOL0     C78302   0.094   5.884   9.307 -0.3878  0.3541  0.2063
  581MOL0     O78303   0.153   5.931   9.420 -0.5381 -0.3042 -0.3884
  581MOL0     C78304   0.109   6.046   9.474 -0.8012  0.5958  0.0054
  581MOL0     C78305   0.207   6.134   9.504 -0.1569  0.1453 -0.5115
  581MOL0     C78306   0.172   6.250   9.568  1.2781 -0.8158 -0.3570
  581MOL0     C78307   0.040   6.280   9.606  0.4806 -1.6474 -0.3490
  581MOL0     O78308  -0.011   6.401   9.644 -0.6057 -0.0066 -0.6403
  581MOL0     C78309   0.082   6.490   9.695  0.1935 -0.3507  0.8740
  581MOL0     C78310   0.016   6.605   9.766 -0.2819  0.0034 -0.3403
  581MOL0     C78311  -0.038   6.691   9.654  0.2340 -0.6205 -0.0866
  581MOL0     C78312  -0.087   6.825   9.711  0.0565 -0.1065 -0.6778
  581MOL0     C78313  -0.169   6.897   9.605  0.3514  0.0608 -0.2863
  581MOL0     C78314  -0.227   7.028   9.665  0.1758 -0.4636  0.1456
  581MOL0     C78315  -0.355   7.088   9.614 -1.0907 -0.6679  1.2618
  581MOL0     C78316  -0.365   7.121   9.461 -0.9342 -0.0572  0.6339
  581MOL0     N78317  -0.390   6.999   9.380 -0.1342 -0.2201  0.3180
  581MOL0     C78318  -0.499   6.912   9.397 -0.7475  0.2845  0.1317
  581MOL0     C78319  -0.463   6.810   9.308 -0.3185  1.0019  0.2792
  581MOL0     C78320  -0.551   6.693   9.261  0.1842 -0.0276 -0.3496
  581MOL0     C78321  -0.697   6.718   9.191 -0.4726 -0.0645 -0.7965
  581MOL0     C78322  -0.685   6.694   9.042 -0.9882  0.1097 -0.6334
  581MOL0     C78323  -0.814   6.717   8.978  0.1399 -1.2649  0.3437
  581MOL0     O78324  -0.790   6.709   8.842  0.5059 -0.3432  0.5068
  581MOL0     C78325  -0.894   6.661   8.774 -0.0731 -0.7629  0.5796
  581MOL0     C78326  -0.992   6.737   8.721  0.6509 -1.2616 -0.9617
  581MOL0     C78327  -1.109   6.682   8.657 -0.3222 -0.1439 -0.5229
  581MOL0     C78328  -1.211   6.778   8.601  0.3251 -0.0694 -0.2533
  581MOL0     C78329  -1.132   6.543   8.671  0.3447  0.8465 -0.4145
  581MOL0     C78330  -1.242   6.467   8.610  0.1793 -0.0457  0.1606
  581MOL0     O78331  -1.209   6.329   8.598  0.7303 -0.1287  0.0950
  581MOL0     C78332  -1.297   6.241   8.560 -0.2834  0.5246 -0.0547
  581MOL0     C78333  -1.262   6.152   8.457 -0.0741 -1.0361 -0.8692
  581MOL0     C78334  -1.348   6.055   8.416  0.1895  0.2610 -0.3287
  581MOL0     C78335  -1.486   6.053   8.478 -0.0165  0.6733  1.1888
  581MOL0     O78336  -1.583   5.964   8.438  0.2928 -0.0631  0.5002
  581MOL0     C78337  -1.684   5.921   8.524 -0.3538 -0.2543 -0.4505
  581MOL0     C78338  -1.765   5.818   8.447  0.5528  0.6720  0.3113
  581MOL0     C78339  -1.859   5.755   8.543 -0.2065 -0.3701 -0.0890
  581MOL0     C78340  -1.959   5.657   8.476 -0.6250 -0.1261 -0.3440
  581MOL0     C78341  -2.087   5.630   8.564 -0.5268 -0.6117 -0.2819
  581MOL0     C78342  -2.061   5.544   8.691 -0.1037 -0.2706  0.6023
  581MOL0     C78343  -2.195   5.509   8.757  0.5058 -0.1534 -0.5527
  581MOL0     C78344  -2.188   5.379   8.839  0.2895 -0.8724 -0.1278
  581MOL0    Cl78345  -2.330   5.360   8.949  0.5143  0.1433 -0.1373
  581MOL0     C78346  -1.519   6.146   8.580 -0.3969  0.1979 -0.4628
  581MOL0     C78347  -1.424   6.240   8.623 -0.5353  0.6242 -0.2360
  581MOL0     O78348  -1.340   6.525   8.574  0.2563 -0.2794 -0.7950
  581MOL0     C78349  -1.031   6.470   8.735 -0.0892  0.0293 -1.1367
  581MOL0     C78350  -0.916   6.522   8.789 -0.1616 -0.4653  0.6168
  581MOL0     N78351  -0.350   6.850   9.236 -0.3578  0.1314 -0.3700
  581MOL0     N78352  -0.302   6.956   9.286  0.0664  0.1962 -0.0938
  581MOL0     C78353  -0.056   6.182   9.580  0.2227 -0.3588 -0.1433
  581MOL0     C78354  -0.021   6.060   9.524  0.4580 -1.0780 -0.8451
  581MOL0     C78355   0.163   5.763   9.250 -0.0217 -0.3130  0.1398
  581MOL0     C78356   0.100   5.693   9.146 -0.3741  1.5010 -0.0538
  581MOL0     C78357   0.160   5.570   9.106  0.4964 -0.1088  0.6674
  581MOL0     C78358   0.265   5.516   9.175  1.1164 -0.3050  0.7420
  581MOL0     O78359   0.316   5.395   9.165  0.0116 -0.3476 -0.2547
  581MOL0     C78360   0.253   5.318   9.066 -0.1343  0.0850 -1.1599
  581MOL0     C78361   0.347   5.200   9.026 -0.2809  0.1658  0.4841
  581MOL0     C78362   0.326   5.070   9.106  0.0189  0.0170 -0.1742
  581MOL0     C78363   0.432   5.072   9.222  0.5556 -0.0544  0.8236
  581MOL0     C78364   0.434   4.942   9.304 -0.4964 -0.3320 -0.0795
  581MOL0     C78365   0.416   4.839   9.370 -0.5744  0.0742  0.3018
  581MOL0     C78366   0.334   5.600   9.270  0.0388 -0.2740  0.2728
  581MOL0     C78367   0.285   5.719   9.300  0.3016 -0.2820 -0.4085
  581MOL0     H78368   0.309   6.111   9.472  0.2707  1.5594 -0.2650
  581MOL0     H78369   0.248   6.327   9.574  1.2782 -0.8968  0.9290
  581MOL0     H78370   0.153   6.439   9.761  4.5982  3.8735  0.0334
  581MOL0     H78371   0.147   6.527   9.615 -1.3033  1.2066  0.3137
  581MOL0     H78372  -0.062   6.564   9.831 -1.6370  2.2835 -0.4374
  581MOL0     H78373   0.089   6.657   9.828 -1.1198  3.3154 -1.8720
  581MOL0     H78374   0.042   6.707   9.581  1.1525 -2.2005  0.5196
  581MOL0     H78375  -0.120   6.636   9.606 -4.8022  1.6773  4.7645
  581MOL0     H78376  -0.153   6.811   9.797 -0.7529  1.0509 -1.0966
  581MOL0     H78377  -0.003   6.888   9.742 -0.8967  0.7575  0.2158
  581MOL0     H78378  -0.119   6.921   9.510 -0.1691  0.1519 -0.5407
  581MOL0     H78379  -0.252   6.829   9.586  1.3145 -1.1281 -0.3828
  581MOL0     H78380  -0.243   7.014   9.772 -0.8601  0.6216  0.1606
  581MOL0     H78381  -0.158   7.110   9.647  3.6233 -3.3654 -0.9324
  581MOL0     H78382  -0.429   7.010   9.638 -0.5825 -1.2033  1.1145
  581MOL0     H78383  -0.367   7.183   9.665 -2.4648 -0.2257  0.1760
  581MOL0     H78384  -0.274   7.169   9.425  0.9968 -1.1548  3.6113
  581MOL0     H78385  -0.452   7.187   9.456 -0.7325  0.2155  0.7633
  581MOL0     H78386  -0.581   6.911   9.468  0.7772 -2.5171  2.0587
  581MOL0     H78387  -0.497   6.623   9.196  0.0188  1.1292 -1.7801
  581MOL0     H78388  -0.582   6.641   9.352 -1.6081 -1.9359 -1.9084
  581MOL0     H78389  -0.729   6.820   9.213  3.7963  0.8924  2.1741
  581MOL0     H78390  -0.764   6.642   9.232  1.2651 -1.5281 -0.5168
  581MOL0     H78391  -0.660   6.591   9.014 -1.5098 -0.0821 -0.4020
  581MOL0     H78392  -0.622   6.768   8.992 -0.9392 -0.2909 -1.1817
  581MOL0     H78393  -0.844   6.818   9.008  1.6089 -0.1717 -1.6486
  581MOL0     H78394  -0.898   6.654   9.010 -1.6152 -0.1630 -1.8759
  581MOL0     H78395  -0.990   6.846   8.726 -0.7710 -1.1957 -1.4976
  581MOL0     H78396  -1.301   6.781   8.663 -0.8786 -0.2353 -1.9160
  581MOL0     H78397  -1.168   6.876   8.580 -1.6852  0.4192 -2.5344
  581MOL0     H78398  -1.245   6.733   8.507 -1.0480 -0.8016  0.5545
  581MOL0     H78399  -1.159   6.158   8.424 -0.2723  0.5763 -1.3118
  581MOL0     H78400  -1.311   5.983   8.344 -1.4880  0.2435 -1.2132
  581MOL0     H78401  -1.645   5.879   8.618 -1.4716  0.2666  0.2702
  581MOL0     H78402  -1.746   6.010   8.540  0.5788 -0.0270  2.5031
  581MOL0     H78403  -1.813   5.861   8.359 -3.3860 -1.2709  1.3001
  581MOL0     H78404  -1.706   5.731   8.417  0.9499  1.7887 -2.4379
  581MOL0     H78405  -1.908   5.828   8.609  1.2227  1.2328 -0.7257
  581MOL0     H78406  -1.804   5.706   8.624 -0.2426  1.2663  0.9592
  581MOL0     H78407  -1.980   5.696   8.376  0.6515 -2.0323 -1.4068
  581MOL0     H78408  -1.910   5.561   8.463  0.1133 -0.0297  1.4573
  581MOL0     H78409  -2.159   5.587   8.494  2.0375 -4.1429 -1.0250
  581MOL0     H78410  -2.120   5.725   8.608  1.2139  1.7988 -3.6764
  581MOL0     H78411  -2.001   5.459   8.659 -0.6385 -0.3686 -0.1527
  581MOL0     H78412  -2.003   5.596   8.768 -0.0129 -0.2949  0.5497
  581MOL0     H78413  -2.274   5.486   8.685  0.5198 -2.4646  0.0723
  581MOL0     H78414  -2.226   5.585   8.829  1.1372 -2.2081  2.0393
  581MOL0     H78415  -2.085   5.368   8.876  0.8247 -0.1706 -1.3630
  581MOL0     H78416  -2.184   5.295   8.769  0.3414 -0.9902  0.0143
  581MOL0     H78417  -1.614   6.152   8.633  1.7220  1.9309  3.5874
  581MOL0     H78418  -1.428   6.310   8.706  2.1347  2.5782 -1.5858
  581MOL0     H78419  -1.044   6.364   8.752  0.4041  0.0290 -0.7530
  581MOL0     H78420  -0.846   6.456   8.839  1.4497 -0.7517 -1.8486
  581MOL0     H78421  -0.155   6.202   9.619  0.6460  0.6162  0.4881
  581MOL0     H78422  -0.101   5.988   9.509 -0.0952 -1.2889  2.4807
  581MOL0     H78423   0.004   5.720   9.103 -0.6329  2.4055  1.0572
  581MOL0     H78424   0.115   5.516   9.024  2.2738  0.4663 -0.7486
  581MOL0     H78425   0.158   5.277   9.102  0.7400  0.0295  1.3033
  581MOL0     H78426   0.246   5.377   8.974  3.6316  0.2563 -1.5039
  581MOL0     H78427   0.450   5.236   9.036 -0.5395  0.6296  1.6468
  581MOL0     H78428   0.336   5.165   8.923 -1.3311  0.2248  0.5689
  581MOL0     H78429   0.353   4.983   9.045 -1.4467 -1.0489  0.6290
  581MOL0     H78430   0.229   5.061   9.155  0.0301  0.5295 -0.0570
  581MOL0     H78431   0.409   5.157   9.287  0.8574  3.4513 -3.2458
  581MOL0     H78432   0.531   5.096   9.182 -0.4758  0.1305 -1.7331
  581MOL0     H78433   0.394   4.756   9.434  2.0022 -2.1124 -1.4222
  581MOL0     H78434   0.428   5.573   9.318  0.0877 -1.3382 -0.3791
  581MOL0     H78435   0.333   5.784   9.372 -1.2225  0.9256 -0.4310
  582MOL0     O78436   1.455   8.025   9.139  0.4279 -0.2389  0.1250
  582MOL0     C78437   1.500   7.988   9.024  0.1759  0.8340 -1.1803
  582MOL0     O78438   1.444   7.900   8.939  0.1973 -0.7472 -0.4755
  582MOL0     C78439   1.328   7.832   8.972 -0.1368  0.0014 -0.0601
  582MOL0     C78440   1.220   7.831   8.874 -1.0088  0.1265 -0.5478
  582MOL0     C78441   1.096   7.768   8.911  0.1202 -0.7536  0.2264
  582MOL0     C78442   1.088   7.693   9.031  1.0481 -0.2252  0.2817
  582MOL0     O78443   0.976   7.629   9.082  1.3827 -1.0259  0.6236
  582MOL0     C78444   0.847   7.634   9.010 -0.4161 -0.3817 -0.1110
  582MOL0     C78445   0.729   7.606   9.098  0.0806  0.7232 -0.3115
  582MOL0     C78446   0.601   7.591   9.032  0.6517  0.2175  0.0715
  582MOL0     C78447   0.480   7.584   9.129 -0.9731 -0.6572 -0.0166
  582MOL0     C78448   0.361   7.660   9.072  0.1770 -0.0664  0.0116
  582MOL0     C78449   0.361   7.812   9.089  0.1241  0.3997 -0.5100
  582MOL0     C78450   0.217   7.865   9.068  0.9350  0.3238  0.0835
  582MOL0     C78451   0.218   8.007   9.009  0.3501 -0.0974 -0.4793
  582MOL0     N78452   0.096   8.088   9.046 -0.2563  0.3276  0.5234
  582MOL0     C78453   0.084   8.146   9.169 -0.7302 -0.6705  0.1544
  582MOL0     C78454  -0.026   8.226   9.151  0.0585 -0.1293  0.6040
  582MOL0     C78455  -0.100   8.303   9.266  0.1508  0.5157  0.0547
  582MOL0     C78456  -0.120   8.453   9.216  0.2630 -0.1906 -0.3423
  582MOL0     C78457   0.001   8.528   9.182  0.8289  0.0351  0.8870
  582MOL0     C78458  -0.041   8.673   9.199 -0.1869  0.2224 -0.5270
  582MOL0     O78459   0.045   8.741   9.113  0.3268 -0.2271 -0.9308
  582MOL0     C78460   0.024   8.877   9.102  0.2387 -0.5941 -0.0147
  582MOL0     C78461   0.063   8.936   8.983  0.5402  0.3948 -0.8013
  582MOL0     C78462   0.033   9.069   8.942 -0.3168  0.5466 -0.5822
  582MOL0     C78463   0.060   9.104   8.793 -1.9994  1.0858 -0.9571
  582MOL0     C78464  -0.047   9.142   9.031 -0.8164  1.1356 -0.2640
  582MOL0     C78465  -0.102   9.271   8.996  0.2646 -0.1885 -0.2603
  582MOL0     O78466  -0.223   9.307   9.046 -0.4063 -0.2826  0.1791
  582MOL0     C78467  -0.262   9.440   9.062 -0.0626  0.2536  0.2797
  582MOL0     C78468  -0.178   9.542   9.112 -0.3634  0.0373  0.0746
  582MOL0     C78469  -0.214   9.676   9.134  0.1517  0.0465 -1.2543
  582MOL0     C78470  -0.350   9.711   9.093 -0.5854 -0.1700 -0.2707
  582MOL0     O78471  -0.407   9.834   9.114  0.8079  0.2103 -0.5015
  582MOL0     C78472  -0.343   9.923   9.207  0.2734 -0.6756  0.3415
  582MOL0     C78473  -0.412  10.059   9.223  0.7127  0.3138  0.6073
  582MOL0     C78474  -0.340  10.172   9.300 -0.5899 -0.1647  0.7013
  582MOL0     C78475  -0.427  10.293   9.330 -0.3933  0.2678  0.1948
  582MOL0     C78476  -0.548  10.271   9.416  0.6149  0.1865 -0.2468
  582MOL0     C78477  -0.611  10.414   9.458 -0.9295  0.1536  0.4267
  582MOL0     C78478  -0.742  10.419   9.533  0.1102 -0.6367  0.1952
  582MOL0     C78479  -0.738  10.335   9.663  0.4738 -0.4150  0.4521
  582MOL0    Cl78480  -0.892  10.344   9.752 -0.0689  0.1550  0.1232
  582MOL0     C78481  -0.427   9.616   9.036 -0.2342  0.7807 -0.1613
  582MOL0     C78482  -0.391   9.479   9.022 -0.2719  0.6993  0.5054
  582MOL0     O78483  -0.025   9.351   8.942  0.0255  0.6238 -0.0117
  582MOL0     C78484  -0.081   9.087   9.155  0.2442  0.3471 -0.2037
  582MOL0     C78485  -0.045   8.960   9.195 -0.5614 -0.0807  0.6261
  582MOL0     N78486  -0.069   8.215   9.022  0.2988 -0.1092  0.1575
  582MOL0     N78487   0.005   8.134   8.958  0.2318  0.0985 -0.5469
  582MOL0     C78488   1.202   7.679   9.114 -0.1883 -0.3532 -0.2273
  582MOL0     C78489   1.314   7.743   9.080  0.3155 -0.7475 -0.3734
  582MOL0     C78490   1.602   8.071   8.957 -0.3762 -0.7643  0.2517
  582MOL0     C78491   1.648   8.032   8.838  0.0291 -0.0051  0.2602
  582MOL0     C78492   1.738   8.116   8.770  0.1524  0.2995 -0.7923
  582MOL0     C78493   1.770   8.244   8.822  0.1077  0.0467  0.3666
  582MOL0     O78494   1.850   8.325   8.750  0.3724  0.7740  0.2669
  582MOL0     C78495   1.932   8.412   8.828 -0.1072 -0.5523  0.3169
  582MOL0     C78496   2.038   8.479   8.742  0.2984  0.4782  0.1093
  582MOL0     C78497   2.143   8.555   8.819  1.2293  0.1473  0.6079
  582MOL0     C78498   2.221   8.657   8.734  0.9446 -0.2544 -0.3806
  582MOL0     C78499   2.307   8.737   8.819 -0.4751 -0.0222 -0.1841
  582MOL0     C78500   2.379   8.797   8.897  0.2108  0.4462 -0.9068
  582MOL0     C78501   1.718   8.282   8.944  0.1895 -1.2160 -0.4255
  582MOL0     C78502   1.633   8.199   9.015 -0.0268 -0.0465  0.2095
  582MOL0     H78503   1.227   7.879   8.777  1.8193  1.1263  0.0371
  582MOL0     H78504   1.017   7.757   8.838  0.4745 -0.3984 -0.2175
  582MOL0     H78505   0.833   7.728   8.955  0.2292 -0.4160 -0.3369
  582MOL0     H78506   0.848   7.549   8.941  0.4899 -1.1367  0.8114
  582MOL0     H78507   0.742   7.506   9.141 -0.7537  1.2338  1.2151
  582MOL0     H78508   0.734   7.676   9.182  0.7373  1.3988 -0.9033
  582MOL0     H78509   0.605   7.681   8.971  0.1706  1.6376  2.0432
  582MOL0     H78510   0.600   7.504   8.965  1.0430 -0.5190  0.9982
  582MOL0     H78511   0.455   7.477   9.129 -0.4655 -0.7828  0.6659
  582MOL0     H78512   0.511   7.604   9.232  0.7926 -2.0727 -0.2160
  582MOL0     H78513   0.352   7.621   8.971 -0.8038 -1.8800  0.7402
  582MOL0     H78514   0.274   7.617   9.125  0.1498  1.3421  1.1568
  582MOL0     H78515   0.396   7.847   9.186  1.7390 -1.3686 -0.3806
  582MOL0     H78516   0.438   7.841   9.016 -0.0824  0.9492 -0.5105
  582MOL0     H78517   0.154   7.805   9.002 -1.7749 -0.7964  3.4084
  582MOL0     H78518   0.163   7.860   9.163  0.7315 -0.7343 -0.0722
  582MOL0     H78519   0.244   8.004   8.903 -1.1002 -1.8678 -0.8322
  582MOL0     H78520   0.310   8.051   9.048 -0.5711  2.9699 -1.4863
  582MOL0     H78521   0.134   8.112   9.259  0.7371 -1.7432 -1.0137
  582MOL0     H78522  -0.199   8.263   9.291  0.1666  0.9357  0.8206
  582MOL0     H78523  -0.049   8.298   9.363  1.1311  0.2011 -0.4579
  582MOL0     H78524  -0.176   8.503   9.296  0.6387  2.3802 -1.5859
  582MOL0     H78525  -0.177   8.441   9.124  1.3094  0.5637 -1.1099
  582MOL0     H78526   0.020   8.501   9.078  0.8206 -1.5133  1.2606
  582MOL0     H78527   0.090   8.510   9.243  1.1022  0.6078  0.6584
  582MOL0     H78528  -0.037   8.697   9.306 -1.5831  1.0661 -0.6374
  582MOL0     H78529  -0.146   8.686   9.173  0.0236  1.4811 -0.8435
  582MOL0     H78530   0.124   8.871   8.922  1.3839  1.5025 -1.1722
  582MOL0     H78531   0.121   9.195   8.786 -2.2515  1.5178  1.5745
  582MOL0     H78532   0.117   9.025   8.744  0.6588  0.6835  2.4554
  582MOL0     H78533  -0.035   9.132   8.746 -0.8826  4.1754 -1.6233
  582MOL0     H78534  -0.083   9.508   9.152  0.1314  1.1064 -0.1571
  582MOL0     H78535  -0.148   9.746   9.185  0.2974  0.8608 -2.5079
  582MOL0     H78536  -0.336   9.873   9.305 -0.4653  3.7185  2.8800
  582MOL0     H78537  -0.248   9.954   9.163 -0.5838 -2.2407 -2.8800
  582MOL0     H78538  -0.419  10.088   9.118  2.3605 -0.0940  0.3644
  582MOL0     H78539  -0.515  10.052   9.259  1.2557  1.6515  2.6076
  582MOL0     H78540  -0.268  10.207   9.226 -0.2979 -1.1215  0.5184
  582MOL0     H78541  -0.291  10.146   9.394  0.8820  0.4140  0.1119
  582MOL0     H78542  -0.362  10.369   9.375  0.8755 -0.4645 -0.3212
  582MOL0     H78543  -0.466  10.334   9.236 -2.7861 -2.0641  0.0696
  582MOL0     H78544  -0.529  10.201   9.498 -2.0641 -1.2780 -0.7577
  582MOL0     H78545  -0.627  10.214   9.366  2.3681 -2.2411 -0.4051
  582MOL0     H78546  -0.532  10.466   9.513 -1.9238  2.5585 -0.2931
  582MOL0     H78547  -0.612  10.471   9.364  2.3873 -1.1178 -0.5424
  582MOL0     H78548  -0.830  10.398   9.471 -0.0543  2.6524 -0.8760
  582MOL0     H78549  -0.754  10.525   9.558  1.0775  0.0376 -2.0311
  582MOL0     H78550  -0.648  10.359   9.721  0.6589 -2.1714  0.9441
  582MOL0     H78551  -0.741  10.228   9.645  2.1743 -0.3605 -0.3654
  582MOL0     H78552  -0.529   9.634   9.004 -1.0959 -4.3609 -1.3386
  582MOL0     H78553  -0.442   9.391   8.984  1.9185 -0.9934  1.3305
  582MOL0     H78554  -0.138   9.150   9.224 -1.1378 -4.7562  3.9532
  582MOL0     H78555  -0.084   8.916   9.287 -0.0475 -0.4929  0.6456
  582MOL0     H78556   1.190   7.616   9.202 -2.2629  0.8124  0.4010
  582MOL0     H78557   1.402   7.742   9.145  1.1008  0.5602 -1.3625
  582MOL0     H78558   1.629   7.940   8.784  2.3044 -1.8380  2.4105
  582MOL0     H78559   1.784   8.074   8.680 -1.4488 -1.3331 -0.9212
  582MOL0     H78560   1.869   8.495   8.861  1.0063  0.4356  0.0045
  582MOL0     H78561   1.966   8.353   8.914  0.2518  1.1707  1.3960
  582MOL0     H78562   1.989   8.553   8.679 -1.6405  0.9015  1.9997
  582MOL0     H78563   2.085   8.412   8.669  4.7648  2.9130  0.4124
  582MOL0     H78564   2.217   8.488   8.863  3.8613  1.4832 -1.4620
  582MOL0     H78565   2.095   8.613   8.898  2.1086 -0.0370  1.2913
  582MOL0     H78566   2.137   8.708   8.686  2.1554  0.1116 -2.2001
  582MOL0     H78567   2.272   8.601   8.656  0.3936  0.1572 -1.0457
  582MOL0     H78568   2.434   8.845   8.976  0.2052 -1.3190  0.2377
  582MOL0     H78569   1.734   8.381   8.986  1.3582 -1.8105  0.5921
  582MOL0     H78570   1.574   8.240   9.096  0.4208 -0.2679  0.6541
  583MOL0     O78571   7.357   1.743   2.804  1.0546  0.0772 -0.1177
  583MOL0     C78572   7.305   1.775   2.693  0.4018  0.4153  0.4155
  583MOL0     O78573   7.187   1.739   2.643 -0.0820  0.4444  0.7225
  583MOL0     C78574   7.095   1.685   2.728 -0.2351  0.1808 -0.2705
  583MOL0     C78575   6.971   1.750   2.740 -0.7792 -0.6510 -1.3310
  583MOL0     C78576   6.874   1.696   2.821  0.0852  0.0210  1.0044
  583MOL0     C78577   6.892   1.574   2.888  0.2054 -0.2260  0.2361
  583MOL0     O78578   6.796   1.515   2.964 -0.5358  0.1412  0.1462
  583MOL0     C78579   6.837   1.491   3.100 -0.0444 -1.0385 -0.2279
  583MOL0     C78580   6.733   1.408   3.174  0.0292  0.9513 -0.2688
  583MOL0     C78581   6.768   1.438   3.320  0.3439 -0.1365  0.3533
  583MOL0     C78582   6.706   1.348   3.416  0.9583 -0.0081  0.2430
  583MOL0     C78583   6.744   1.381   3.562  0.3248  0.2317 -0.5460
  583MOL0     C78584   6.706   1.251   3.644  0.9285 -0.2148  0.2052
  583MOL0     C78585   6.778   1.258   3.781  0.0216 -0.5345 -0.4414
  583MOL0     C78586   6.693   1.329   3.887  0.6383  0.0499  0.7866
  583MOL0     N78587   6.771   1.358   3.999 -0.5537 -0.0360  0.1298
  583MOL0     C78588   6.863   1.453   3.999  0.1647 -0.7158 -0.6565
  583MOL0     C78589   6.927   1.440   4.117  0.4683 -0.7604 -0.3069
  583MOL0     C78590   7.024   1.540   4.181 -0.2673  0.3868 -0.4351
  583MOL0     C78591   6.997   1.675   4.137 -0.8612  0.2152  0.1064
  583MOL0     C78592   7.098   1.775   4.199  0.4391 -0.0553 -0.2069
  583MOL0     C78593   7.092   1.899   4.126 -0.5204  0.6525 -0.3481
  583MOL0     O78594   7.154   1.879   3.998 -0.6783  0.2459  0.8133
  583MOL0     C78595   7.286   1.928   3.984 -0.6274  0.0946 -0.2189
  583MOL0     C78596   7.388   1.934   4.085  0.6744  0.2825 -0.1158
  583MOL0     C78597   7.511   1.989   4.055 -0.4618 -1.2164 -0.0643
  583MOL0     C78598   7.596   2.015   4.182 -0.0578  0.2689  0.3479
  583MOL0     C78599   7.545   2.048   3.924 -0.5177 -0.4550  0.8587
  583MOL0     C78600   7.677   2.105   3.885  0.7429 -0.0082 -0.2890
  583MOL0     O78601   7.760   2.139   3.986 -0.1000  0.3105  0.2530
  583MOL0     C78602   7.878   2.204   3.965 -0.4808 -0.4741 -0.2489
  583MOL0     C78603   7.883   2.322   3.889  0.1008  0.2566 -0.5088
  583MOL0     C78604   8.011   2.371   3.864  0.2709 -0.1126  0.4873
  583MOL0     C78605   8.132   2.309   3.902 -1.0549 -0.0135 -0.0409
  583MOL0     O78606   8.251   2.363   3.854 -0.5748 -0.0908 -0.1929
  583MOL0     C78607   8.360   2.271   3.826 -0.8180 -0.2732  0.1171
  583MOL0     C78608   8.470   2.336   3.736 -0.1376  0.1850 -0.3513
  583MOL0     C78609   8.426   2.348   3.589  0.7216 -0.3894  0.9124
  583MOL0     C78610   8.511   2.459   3.524 -0.5384 -0.4796 -0.0803
  583MOL0     C78611   8.469   2.466   3.376 -0.3355  0.1825  0.2852
  583MOL0     C78612   8.520   2.355   3.292 -1.3551  0.0288  0.3226
  583MOL0     C78613   8.498   2.375   3.142 -0.4399  0.3455  0.4203
  583MOL0     C78614   8.349   2.392   3.087  0.7223 -0.4801 -0.5143
  583MOL0    Cl78615   8.353   2.418   2.911  0.4166  0.2430  0.0489
  583MOL0     C78616   8.124   2.200   3.986 -0.0409 -0.1482 -0.4127
  583MOL0     C78617   7.997   2.157   4.034 -0.2501  0.4917 -0.1757
  583MOL0     O78618   7.690   2.138   3.771  0.0215 -0.3373 -0.0654
  583MOL0     C78619   7.444   2.042   3.834  0.9027  0.8310 -0.1370
  583MOL0     C78620   7.323   1.983   3.862  0.3051 -0.2235  0.2740
  583MOL0     N78621   6.866   1.338   4.188  0.0030  0.1112 -1.0558
  583MOL0     N78622   6.769   1.291   4.116 -0.1265 -0.1972 -0.6671
  583MOL0     C78623   7.019   1.511   2.879  0.1653 -0.3475 -0.7073
  583MOL0     C78624   7.123   1.569   2.797  0.3173  0.3763  0.0029
  583MOL0     C78625   7.399   1.842   2.603 -0.5452  0.9898 -0.3060
  583MOL0     C78626   7.504   1.917   2.651  0.2650 -0.9141  0.0973
  583MOL0     C78627   7.591   1.988   2.560  0.2239 -0.4815 -0.4837
  583MOL0     C78628   7.569   1.978   2.427 -0.4507 -0.3144  0.6236
  583MOL0     O78629   7.664   2.034   2.342 -0.1801  0.2044  0.1303
  583MOL0     C78630   7.632   2.067   2.202  0.2817 -0.1936  0.5888
  583MOL0     C78631   7.755   2.110   2.129  0.2420 -0.1949 -0.7003
  583MOL0     C78632   7.737   2.157   1.985 -0.1263 -0.1841  0.8539
  583MOL0     C78633   7.635   2.265   1.963  0.4309 -1.5764 -0.2182
  583MOL0     C78634   7.644   2.283   1.815 -0.8277  0.4433 -0.1158
  583MOL0     C78635   7.646   2.291   1.693  0.4159 -1.3053 -1.2935
  583MOL0     C78636   7.459   1.901   2.381 -1.0058 -0.5951 -0.7814
  583MOL0     C78637   7.377   1.835   2.470 -0.4314 -0.0217  0.6786
  583MOL0     H78638   6.947   1.841   2.687 -0.1154 -1.8805 -3.9121
  583MOL0     H78639   6.784   1.754   2.830  0.3440  0.8634 -1.2178
  583MOL0     H78640   6.933   1.439   3.108  1.4691  1.3727 -1.3457
  583MOL0     H78641   6.841   1.587   3.152 -0.7704 -2.4944  2.6822
  583MOL0     H78642   6.631   1.437   3.147  0.5554  0.4745 -3.1485
  583MOL0     H78643   6.752   1.305   3.142 -1.5420  0.6897 -0.4117
  583MOL0     H78644   6.875   1.419   3.327  0.6580  0.2606 -2.4276
  583MOL0     H78645   6.740   1.541   3.345  0.4710 -0.7218  3.3259
  583MOL0     H78646   6.597   1.356   3.410  0.9783 -0.5374 -1.2748
  583MOL0     H78647   6.723   1.245   3.385 -0.6937 -0.0949 -0.5213
  583MOL0     H78648   6.851   1.405   3.560  0.4872 -0.3603  0.5646
  583MOL0     H78649   6.682   1.461   3.604 -0.9157 -1.3038  0.6662
  583MOL0     H78650   6.599   1.233   3.656  0.5579 -1.5369 -3.7560
  583MOL0     H78651   6.739   1.159   3.595  1.2503 -0.7045  1.3041
  583MOL0     H78652   6.805   1.159   3.818 -0.8688 -0.2535  1.0337
  583MOL0     H78653   6.877   1.305   3.768  0.1520 -1.1287 -1.6990
  583MOL0     H78654   6.618   1.257   3.923  1.9104 -1.6685  0.1086
  583MOL0     H78655   6.650   1.422   3.848  2.9469 -0.0021 -2.1797
  583MOL0     H78656   6.893   1.515   3.915  1.9591 -1.8583 -0.9194
  583MOL0     H78657   7.013   1.539   4.289  2.2433  0.3248 -0.1216
  583MOL0     H78658   7.125   1.503   4.163 -0.6886 -1.2370  0.3363
  583MOL0     H78659   6.900   1.699   4.181 -0.7257  1.0859 -0.0506
  583MOL0     H78660   6.996   1.680   4.027  0.1057  0.8420  0.1049
  583MOL0     H78661   7.201   1.739   4.212  0.2448 -0.1027  1.4687
  583MOL0     H78662   7.054   1.805   4.294  0.0262 -2.3049  0.3722
  583MOL0     H78663   7.150   1.970   4.185 -0.2409 -1.9460  2.8271
  583MOL0     H78664   6.993   1.944   4.124 -0.7776  0.1194  0.0211
  583MOL0     H78665   7.363   1.890   4.180  0.4926  0.1361 -0.2306
  583MOL0     H78666   7.554   1.971   4.273 -0.5685 -1.4397 -0.6589
  583MOL0     H78667   7.691   1.969   4.151  0.1326  1.1759 -0.4681
  583MOL0     H78668   7.609   2.123   4.194  0.2770  0.1190  1.3826
  583MOL0     H78669   7.793   2.353   3.835 -2.3424 -0.4439  2.8441
  583MOL0     H78670   8.009   2.462   3.804  1.3408  0.0051  0.6028
  583MOL0     H78671   8.406   2.239   3.920  1.0533  0.3470 -0.5259
  583MOL0     H78672   8.319   2.179   3.784  0.9676 -1.4582  0.8379
  583MOL0     H78673   8.490   2.433   3.784  1.9304 -0.3469 -0.0170
  583MOL0     H78674   8.571   2.294   3.744 -0.5920 -0.7740  0.7159
  583MOL0     H78675   8.318   2.368   3.586  1.3826  3.8230 -1.0984
  583MOL0     H78676   8.433   2.256   3.530 -1.6095  0.2567 -0.4842
  583MOL0     H78677   8.483   2.550   3.577  1.2184 -0.4728  0.8711
  583MOL0     H78678   8.619   2.463   3.536 -0.5621  2.1210 -0.2095
  583MOL0     H78679   8.489   2.565   3.334 -4.4315  1.3032  0.5887
  583MOL0     H78680   8.360   2.463   3.378 -0.3759  0.1739 -0.8691
  583MOL0     H78681   8.625   2.346   3.319 -1.1775 -0.8588 -0.6251
  583MOL0     H78682   8.467   2.267   3.330  0.6338 -0.4031  2.3264
  583MOL0     H78683   8.539   2.290   3.088 -0.8439  2.4813 -3.6783
  583MOL0     H78684   8.560   2.460   3.112 -1.7101  0.7247 -1.3189
  583MOL0     H78685   8.303   2.484   3.124 -0.0591 -0.8775 -0.4580
  583MOL0     H78686   8.292   2.302   3.115  1.3184 -0.5118  0.6433
  583MOL0     H78687   8.214   2.155   4.028 -0.2812 -0.4263 -0.1844
  583MOL0     H78688   7.993   2.068   4.096 -0.9908 -0.6528 -1.7708
  583MOL0     H78689   7.436   2.094   3.739 -0.0809 -0.5049 -0.8207
  583MOL0     H78690   7.246   1.995   3.786  1.5382 -1.3508 -1.2168
  583MOL0     H78691   7.032   1.413   2.924 -1.7818 -0.5699 -0.5775
  583MOL0     H78692   7.214   1.511   2.793 -1.1287 -2.1179  1.2922
  583MOL0     H78693   7.521   1.924   2.758 -0.0292 -1.3291  0.1688
  583MOL0     H78694   7.670   2.051   2.600  0.9117  0.7292 -3.4519
  583MOL0     H78695   7.587   1.986   2.144  0.5365  0.8909 -1.1925
  583MOL0     H78696   7.562   2.151   2.199  0.8085  0.2075 -1.5369
  583MOL0     H78697   7.831   2.032   2.128  1.4648  0.6894  3.6716
  583MOL0     H78698   7.794   2.198   2.181 -0.2842  1.5685 -3.1337
  583MOL0     H78699   7.697   2.074   1.926  2.7563 -0.0741 -1.4300
  583MOL0     H78700   7.839   2.173   1.951 -0.9152  2.3785 -0.5858
  583MOL0     H78701   7.661   2.357   2.015  0.2377 -0.3612 -2.1787
  583MOL0     H78702   7.532   2.234   1.981  0.4248 -1.6985 -0.4598
  583MOL0     H78703   7.643   2.297   1.586 -1.3817  2.2582 -1.2026
  583MOL0     H78704   7.434   1.902   2.275  0.4900  1.8795 -1.1910
  583MOL0     H78705   7.296   1.782   2.420  0.6572 -2.0902  0.9914
  584MOL0     O78706  11.361   1.663   6.449 -0.8755  0.5740  0.3846
  584MOL0     C78707  11.256   1.691   6.504  0.6300  0.3822 -0.7261
  584MOL0     O78708  11.130   1.643   6.471 -0.5003  0.6871  0.3337
  584MOL0     C78709  11.129   1.567   6.358  0.7693  0.0233 -0.2247
  584MOL0     C78710  11.149   1.425   6.363  0.1506  0.1118  0.2923
  584MOL0     C78711  11.145   1.352   6.243 -0.2085  0.2063 -0.7640
  584MOL0     C78712  11.114   1.415   6.126 -0.7274  0.5026  0.7445
  584MOL0     O78713  11.108   1.323   6.028  0.1703  0.4999 -0.1893
  584MOL0     C78714  10.963   1.307   5.994 -0.1442  0.2149  0.8825
  584MOL0     C78715  10.943   1.306   5.846 -0.3415  0.3689 -0.3102
  584MOL0     C78716  10.789   1.327   5.810 -0.0699  0.3913  0.9507
  584MOL0     C78717  10.741   1.469   5.822  0.2451  0.1991  0.0073
  584MOL0     C78718  10.591   1.476   5.802 -0.1833  0.0388 -0.3366
  584MOL0     C78719  10.530   1.621   5.788  0.5243 -0.6281 -0.3438
  584MOL0     C78720  10.600   1.705   5.681 -0.4018 -0.1960  1.1178
  584MOL0     C78721  10.531   1.848   5.652 -0.2394  0.4578  0.5394
  584MOL0     N78722  10.576   1.901   5.521 -0.3603 -0.0368 -0.9305
  584MOL0     C78723  10.709   1.941   5.502  0.2270 -0.3128  0.2587
  584MOL0     C78724  10.714   1.999   5.377 -0.7183 -0.6855  0.7766
  584MOL0     C78725  10.825   2.069   5.301  0.0096  0.2554  0.1846
  584MOL0     C78726  10.936   2.119   5.402  0.6029 -0.1710 -0.0120
  584MOL0     C78727  11.053   2.176   5.331 -0.5418  1.1048  1.3556
  584MOL0     C78728  11.150   2.079   5.271  0.2081  0.0367  0.7843
  584MOL0     O78729  11.231   2.023   5.371  0.0034 -0.1340 -0.1955
  584MOL0     C78730  11.354   2.071   5.398  0.2040 -0.4901  0.7081
  584MOL0     C78731  11.409   2.185   5.336  0.2382 -0.0062  1.0032
  584MOL0     C78732  11.541   2.224   5.352  0.5471 -0.2844 -1.4908
  584MOL0     C78733  11.582   2.346   5.282  0.8042 -1.0685 -0.5165
  584MOL0     C78734  11.615   2.155   5.452 -1.1985 -0.3782 -0.2300
  584MOL0     C78735  11.755   2.196   5.493 -0.1620  0.0624 -0.9447
  584MOL0     O78736  11.801   2.314   5.440  0.0793 -0.1114 -0.2631
  584MOL0     C78737  11.905   2.369   5.503 -0.3552 -0.3258 -0.0417
  584MOL0     C78738  11.871   2.469   5.598 -0.4722 -0.3255  0.8415
  584MOL0     C78739  11.974   2.528   5.678 -0.6772 -0.0186  0.0053
  584MOL0     C78740  12.115   2.508   5.649 -0.4283  0.7088  0.8941
  584MOL0     O78741  12.218   2.560   5.722 -0.0360 -0.2795  0.0584
  584MOL0     C78742  12.224   2.524   5.857 -0.3833  0.6258 -0.7797
  584MOL0     C78743  12.341   2.578   5.940  0.4553  0.3702  0.5202
  584MOL0     C78744  12.476   2.558   5.876 -0.2222  0.7384  0.2579
  584MOL0     C78745  12.601   2.637   5.933 -0.8859  0.0616  0.3528
  584MOL0     C78746  12.601   2.783   5.893  0.1837 -0.3328 -1.5481
  584MOL0     C78747  12.729   2.863   5.943  1.2009  0.5514  0.0254
  584MOL0     C78748  12.852   2.817   5.879 -0.7635  0.8691  0.4274
  584MOL0     C78749  12.962   2.896   5.954  0.2290  1.7154  0.3269
  584MOL0    Cl78750  13.131   2.813   5.942  0.2650 -0.0552 -0.1583
  584MOL0     C78751  12.140   2.416   5.544  0.0582 -0.3658  0.4192
  584MOL0     C78752  12.043   2.340   5.478  0.2713  0.8687 -0.4046
  584MOL0     O78753  11.809   2.124   5.571  0.0162  0.1578 -0.2448
  584MOL0     C78754  11.562   2.038   5.516  0.7258  0.0226 -0.0890
  584MOL0     C78755  11.431   1.998   5.485 -1.0132  0.2790  0.1143
  584MOL0     N78756  10.580   2.006   5.333  0.3195  0.2041 -0.3979
  584MOL0     N78757  10.499   1.941   5.417  0.3469 -0.3559  0.1537
  584MOL0     C78758  11.070   1.547   6.117 -0.3622  0.5082 -0.4989
  584MOL0     C78759  11.079   1.624   6.236 -0.6250  0.0033 -0.1480
  584MOL0     C78760  11.266   1.764   6.632 -0.5095 -0.2460  0.4216
  584MOL0     C78761  11.372   1.750   6.723  0.9088  0.5454  0.7537
  584MOL0     C78762  11.369   1.812   6.852 -0.1061 -1.2568  0.1725
  584MOL0     C78763  11.263   1.886   6.889 -0.2891  0.4379  0.5261
  584MOL0     O78764  11.262   1.944   7.023  0.0492  0.7664 -0.2379
  584MOL0     C78765  11.136   1.959   7.087 -0.0057  0.1370  0.1092
  584MOL0     C78766  11.141   1.956   7.241  0.6851 -0.0872  0.6859
  584MOL0     C78767  11.203   2.092   7.295  0.0885  0.3267  0.0469
  584MOL0     C78768  11.190   2.120   7.446  0.0032 -0.0294 -0.4028
  584MOL0     C78769  11.147   2.251   7.479  0.8390  1.0888  0.7275
  584MOL0     C78770  11.126   2.364   7.508  0.6930  0.3491 -0.0133
  584MOL0     C78771  11.168   1.909   6.794  0.2127  0.4234 -0.4001
  584MOL0     C78772  11.165   1.852   6.665  0.2521  0.0173  0.3240
  584MOL0     H78773  11.185   1.373   6.452 -2.3565 -0.8573  0.8085
  584MOL0     H78774  11.160   1.245   6.247 -5.0159 -0.6514  1.0014
  584MOL0     H78775  10.940   1.207   6.034  1.1975 -1.2887 -1.8137
  584MOL0     H78776  10.896   1.388   6.023 -0.9628 -0.8678  2.1697
  584MOL0     H78777  11.003   1.385   5.801 -1.1115 -0.4457 -2.9665
  584MOL0     H78778  10.976   1.209   5.808  0.5895  0.7848 -0.5711
  584MOL0     H78779  10.758   1.292   5.711 -0.3751  1.3894  0.6778
  584MOL0     H78780  10.737   1.258   5.877  2.5520 -2.7410  0.0106
  584MOL0     H78781  10.752   1.513   5.922 -4.7050 -3.6883  2.6976
  584MOL0     H78782  10.793   1.530   5.747 -0.3308 -0.8767 -1.3115
  584MOL0     H78783  10.560   1.415   5.717 -2.9056 -1.6355  1.7287
  584MOL0     H78784  10.550   1.432   5.893 -0.3796 -0.8279 -0.8343
  584MOL0     H78785  10.427   1.597   5.761  0.4288  1.9204 -2.6458
  584MOL0     H78786  10.526   1.676   5.882 -1.5748 -0.3563 -0.5520
  584MOL0     H78787  10.706   1.717   5.703  0.1549  1.6422 -1.8688
  584MOL0     H78788  10.603   1.649   5.587  0.0196 -1.3239  1.7830
  584MOL0     H78789  10.554   1.915   5.735 -1.6775  0.6352  0.8091
  584MOL0     H78790  10.422   1.844   5.646 -0.2626  1.8909 -0.7503
  584MOL0     H78791  10.794   1.934   5.569 -0.3027  3.3416  1.5358
  584MOL0     H78792  10.879   1.990   5.249 -1.3111 -2.6039  2.8387
  584MOL0     H78793  10.786   2.153   5.243  2.7297  0.7038 -1.1589
  584MOL0     H78794  10.979   2.031   5.449 -0.1373 -1.3695 -1.4973
  584MOL0     H78795  10.893   2.197   5.465  0.4664 -0.8518  0.7458
  584MOL0     H78796  11.111   2.245   5.393  0.8736  0.9870  0.2219
  584MOL0     H78797  11.017   2.229   5.242 -0.9568 -1.4494 -0.0694
  584MOL0     H78798  11.213   2.122   5.192 -1.7972  1.7106  0.0187
  584MOL0     H78799  11.101   2.007   5.205  0.9923  0.9579 -0.8784
  584MOL0     H78800  11.349   2.247   5.270 -2.4469 -1.3509  2.0162
  584MOL0     H78801  11.685   2.338   5.246  1.4971 -0.7947  1.2976
  584MOL0     H78802  11.529   2.367   5.189  1.1756 -1.1053 -0.7410
  584MOL0     H78803  11.565   2.440   5.336 -0.1199 -0.5630 -1.6303
  584MOL0     H78804  11.765   2.478   5.620 -0.9988 -2.5219 -0.4559
  584MOL0     H78805  11.944   2.596   5.757 -0.4582 -1.4904  1.4254
  584MOL0     H78806  12.128   2.559   5.898 -0.3551  2.9025 -2.5015
  584MOL0     H78807  12.235   2.415   5.857 -0.0856  0.5469  2.3611
  584MOL0     H78808  12.319   2.682   5.967 -2.0594 -0.3783  1.6116
  584MOL0     H78809  12.352   2.521   6.033 -0.3066  0.6855  0.8098
  584MOL0     H78810  12.468   2.579   5.769 -4.2093 -0.7999  0.0921
  584MOL0     H78811  12.498   2.451   5.878  0.5381  0.8560 -0.7828
  584MOL0     H78812  12.608   2.614   6.040  1.5373 -1.3606 -0.0288
  584MOL0     H78813  12.693   2.592   5.894  0.6362  1.0974  2.4836
  584MOL0     H78814  12.512   2.813   5.949  0.0579 -2.9385 -0.1841
  584MOL0     H78815  12.584   2.792   5.785 -1.0093  0.3494 -1.3162
  584MOL0     H78816  12.718   2.969   5.921  0.8191  0.5127  0.0328
  584MOL0     H78817  12.735   2.862   6.053 -1.3455  2.9549  0.2967
  584MOL0     H78818  12.866   2.825   5.770  2.8575 -1.1443  0.5852
  584MOL0     H78819  12.865   2.712   5.906 -0.7979 -0.1244 -2.9698
  584MOL0     H78820  12.938   2.899   6.061 -1.3265  2.8604 -0.0121
  584MOL0     H78821  12.969   3.000   5.922  0.0650  1.1638 -1.6883
  584MOL0     H78822  12.242   2.383   5.526 -0.4125 -1.3926 -0.4871
  584MOL0     H78823  12.076   2.257   5.417  0.8515  0.0784  0.9434
  584MOL0     H78824  11.624   1.975   5.579 -0.2930  0.5471  1.4802
  584MOL0     H78825  11.391   1.904   5.523 -2.6452  0.8941  0.0229
  584MOL0     H78826  11.036   1.593   6.025 -0.9625  3.2132  0.9546
  584MOL0     H78827  11.053   1.730   6.234  0.5149  0.2921 -1.3101
  584MOL0     H78828  11.454   1.688   6.688  0.8636  0.4195  0.8673
  584MOL0     H78829  11.447   1.801   6.926 -0.3656 -1.0594  0.4763
  584MOL0     H78830  11.077   2.046   7.057 -0.0447 -0.8292 -2.9861
  584MOL0     H78831  11.070   1.876   7.059  2.2143 -2.1317  1.1881
  584MOL0     H78832  11.204   1.876   7.279  2.5251  1.2317  0.5480
  584MOL0     H78833  11.042   1.950   7.288  0.1022 -0.6726 -0.5790
  584MOL0     H78834  11.168   2.183   7.246 -1.8680 -1.1917 -1.6068
  584MOL0     H78835  11.311   2.087   7.280  0.8710 -0.3595  4.4738
  584MOL0     H78836  11.286   2.120   7.498 -0.2436 -0.0645  0.0560
  584MOL0     H78837  11.118   2.054   7.495  0.3578 -0.9354 -1.0788
  584MOL0     H78838  11.114   2.466   7.538  2.0204  0.1509  1.3400
  584MOL0     H78839  11.084   1.967   6.830  1.9142  1.2476  2.5637
  584MOL0     H78840  11.083   1.869   6.596 -0.7940 -0.7663  1.3328
  585MOL0     O78841   9.496   9.240   7.158  0.0753  0.1391 -0.0145
  585MOL0     C78842   9.608   9.232   7.204 -0.8647 -0.1953  0.5261
  585MOL0     O78843   9.647   9.278   7.323  0.0252  0.7951 -0.0020
  585MOL0     C78844   9.548   9.305   7.406 -0.7300  0.3524 -0.0776
  585MOL0     C78845   9.459   9.206   7.457  0.7026 -0.3721 -0.0575
  585MOL0     C78846   9.354   9.243   7.547 -0.3681  0.2387  0.0945
  585MOL0     C78847   9.330   9.373   7.592 -0.0747  0.0518 -0.5676
  585MOL0     O78848   9.222   9.412   7.664 -0.4080 -0.1173  0.6941
  585MOL0     C78849   9.154   9.328   7.748 -0.1580  0.5278 -0.6498
  585MOL0     C78850   9.043   9.400   7.818 -0.9373 -0.2949  0.1192
  585MOL0     C78851   8.945   9.297   7.883  0.6396 -0.5082  0.5578
  585MOL0     C78852   8.840   9.254   7.782  0.0906 -0.9630  0.8808
  585MOL0     C78853   8.726   9.357   7.751  0.9034 -0.2339  0.2895
  585MOL0     C78854   8.618   9.287   7.673  0.3810 -0.8093 -0.6298
  585MOL0     C78855   8.490   9.383   7.661 -0.2006 -0.5796 -0.3296
  585MOL0     C78856   8.423   9.330   7.537  0.1002 -0.2814  0.2264
  585MOL0     N78857   8.288   9.393   7.515  0.6825  0.4404 -0.8172
  585MOL0     C78858   8.250   9.524   7.510 -0.8375  0.0145 -1.0775
  585MOL0     C78859   8.119   9.515   7.478  0.5306 -0.5627 -0.0548
  585MOL0     C78860   8.033   9.632   7.451  0.3529 -0.2159  0.0503
  585MOL0     C78861   7.915   9.645   7.538 -0.4653 -0.5032 -0.0616
  585MOL0     C78862   7.968   9.691   7.677 -0.0524 -0.4121  0.1461
  585MOL0     C78863   7.998   9.844   7.686  0.2703  0.6736  0.2757
  585MOL0     O78864   8.132   9.892   7.647  0.1673  0.0961 -0.5125
  585MOL0     C78865   8.238   9.840   7.723  0.3635  0.1420  0.2665
  585MOL0     C78866   8.221   9.799   7.854  0.8045  0.1209 -0.2750
  585MOL0     C78867   8.334   9.765   7.939 -0.6785  0.0766 -0.4339
  585MOL0     C78868   8.303   9.712   8.074 -1.0335  0.4792 -0.3810
  585MOL0     C78869   8.470   9.770   7.897 -0.0324  0.2047  0.5877
  585MOL0     C78870   8.586   9.720   7.972 -0.4333 -0.6390  0.4050
  585MOL0     O78871   8.587   9.741   8.107 -0.1689 -0.2203  0.2653
  585MOL0     C78872   8.693   9.688   8.180 -0.6086  0.0951  0.0273
  585MOL0     C78873   8.832   9.715   8.148 -0.2250  0.2536 -0.4089
  585MOL0     C78874   8.930   9.662   8.230 -0.5009  0.6593  0.3615
  585MOL0     C78875   8.898   9.589   8.345 -1.2358  0.4146 -1.1216
  585MOL0     O78876   9.008   9.547   8.426 -0.9426  0.3178 -0.4080
  585MOL0     C78877   8.981   9.526   8.567  0.4229  0.7748 -0.0539
  585MOL0     C78878   9.096   9.475   8.660 -1.1738  0.3956  0.8453
  585MOL0     C78879   9.040   9.450   8.801 -0.4404  1.0069 -0.3494
  585MOL0     C78880   9.155   9.373   8.874 -0.1409  0.2507 -0.4138
  585MOL0     C78881   9.118   9.379   9.029  0.7351  0.0772  0.7286
  585MOL0     C78882   9.192   9.274   9.108 -0.0769 -0.6278 -0.2751
  585MOL0     C78883   9.352   9.306   9.122  0.1705 -0.6624  0.6063
  585MOL0     C78884   9.428   9.203   9.210  0.6050 -0.6640 -0.1084
  585MOL0    Cl78885   9.379   9.233   9.371 -0.0833 -0.1212 -0.1429
  585MOL0     C78886   8.765   9.568   8.367  0.1508  0.4387  0.4214
  585MOL0     C78887   8.657   9.620   8.288  0.5227  1.1616 -0.4799
  585MOL0     O78888   8.674   9.661   7.909  0.0819  0.5293  0.8559
  585MOL0     C78889   8.483   9.822   7.760 -0.0426 -0.7272 -0.3165
  585MOL0     C78890   8.371   9.847   7.677  0.4892  0.1791  0.2374
  585MOL0     N78891   8.072   9.387   7.460  0.2017  0.3791 -0.7515
  585MOL0     N78892   8.181   9.309   7.479 -0.4915 -0.0140 -0.4895
  585MOL0     C78893   9.416   9.463   7.538 -0.7168 -0.6056  0.2303
  585MOL0     C78894   9.526   9.430   7.453  0.8058  0.0078  1.1694
  585MOL0     C78895   9.704   9.184   7.102 -0.3482  0.4830  0.9112
  585MOL0     C78896   9.658   9.125   6.983  0.1860  0.0991  0.0421
  585MOL0     C78897   9.748   9.066   6.887 -0.1374  1.6745 -1.1850
  585MOL0     C78898   9.886   9.077   6.921 -0.3421 -0.4977  0.2538
  585MOL0     O78899   9.993   9.045   6.842 -0.0532 -0.6091 -0.2775
  585MOL0     C78900   9.981   8.974   6.716  0.1906  0.6688 -0.2789
  585MOL0     C78901  10.113   8.903   6.702  0.7571 -0.6558  0.8175
  585MOL0     C78902  10.118   8.842   6.560 -0.2298 -0.1850  0.4850
  585MOL0     C78903  10.273   8.803   6.537 -0.4834  0.2343  0.4517
  585MOL0     C78904  10.313   8.677   6.611  0.3942 -0.1503 -0.4697
  585MOL0     C78905  10.328   8.571   6.674  0.1670 -0.3972  0.1973
  585MOL0     C78906   9.925   9.125   7.044 -0.9027  0.3160 -0.7253
  585MOL0     C78907   9.839   9.190   7.130  0.1084 -0.0225 -0.4561
  585MOL0     H78908   9.475   9.101   7.433 -1.1213 -0.3104 -1.8236
  585MOL0     H78909   9.288   9.164   7.582 -0.6619  0.9147  1.1291
  585MOL0     H78910   9.107   9.243   7.698  0.1542 -1.2588  1.9158
  585MOL0     H78911   9.233   9.294   7.816  1.1852  2.0832 -1.3678
  585MOL0     H78912   9.080   9.462   7.900  0.7113  1.0388 -1.5380
  585MOL0     H78913   8.989   9.464   7.747 -2.1443 -0.0959  1.1874
  585MOL0     H78914   9.006   9.210   7.909  0.1266 -1.5451 -1.4482
  585MOL0     H78915   8.889   9.344   7.964  0.3767  1.3062 -0.6208
  585MOL0     H78916   8.886   9.233   7.685  0.8735  0.5111  0.8914
  585MOL0     H78917   8.795   9.161   7.818 -1.1610  0.0352  1.9851
  585MOL0     H78918   8.686   9.399   7.843 -1.9306  0.8382 -1.3226
  585MOL0     H78919   8.756   9.447   7.696  1.6446 -1.6176 -1.7204
  585MOL0     H78920   8.648   9.258   7.571 -2.8570 -1.2596 -1.5894
  585MOL0     H78921   8.595   9.198   7.733 -0.0030  0.5256  1.2631
  585MOL0     H78922   8.436   9.384   7.756 -0.0785 -1.3410 -0.2458
  585MOL0     H78923   8.530   9.482   7.637 -0.7929  0.0373  1.0959
  585MOL0     H78924   8.419   9.221   7.536  0.1589 -0.2814  0.0210
  585MOL0     H78925   8.485   9.360   7.452 -1.9778  1.1834 -0.8616
  585MOL0     H78926   8.314   9.609   7.531 -3.1310  1.4059  0.7256
  585MOL0     H78927   8.094   9.723   7.453  0.6000 -0.3317  3.1207
  585MOL0     H78928   7.983   9.623   7.354  1.8205  0.2013 -0.7736
  585MOL0     H78929   7.865   9.548   7.543 -0.7854 -0.3240  0.3128
  585MOL0     H78930   7.845   9.720   7.500  0.9952  1.1980  0.4558
  585MOL0     H78931   8.042   9.624   7.719 -2.2047 -0.4308  4.4284
  585MOL0     H78932   7.883   9.680   7.745 -1.7518  0.8824 -1.6455
  585MOL0     H78933   7.964   9.883   7.782  1.4773  2.8638 -0.1375
  585MOL0     H78934   7.928   9.884   7.612 -1.9271 -2.9980  0.1144
  585MOL0     H78935   8.129   9.817   7.909  1.8832  1.8925  1.0419
  585MOL0     H78936   8.199   9.698   8.105 -0.6187  1.4993  1.6330
  585MOL0     H78937   8.336   9.609   8.084  0.2156  1.0109  1.2901
  585MOL0     H78938   8.350   9.780   8.146 -2.2937  0.0180  0.9241
  585MOL0     H78939   8.846   9.768   8.054  2.0699  1.8915  0.7895
  585MOL0     H78940   9.036   9.678   8.216 -0.0750 -0.0167  2.4620
  585MOL0     H78941   8.934   9.617   8.606 -2.5437 -1.0663  0.8850
  585MOL0     H78942   8.903   9.451   8.575 -0.2840  0.9490 -3.5644
  585MOL0     H78943   9.129   9.379   8.619 -1.5257  0.8713 -0.6149
  585MOL0     H78944   9.171   9.554   8.649  2.5031 -2.7725  0.9213
  585MOL0     H78945   8.945   9.395   8.805  0.1945 -0.1280 -0.2387
  585MOL0     H78946   9.020   9.545   8.851 -0.9772  1.0970 -0.7359
  585MOL0     H78947   9.163   9.273   8.832  1.4411  1.0338 -2.0945
  585MOL0     H78948   9.254   9.420   8.866  0.0935  0.6356  3.0680
  585MOL0     H78949   9.011   9.356   9.026  0.7387  0.0128 -2.1848
  585MOL0     H78950   9.125   9.483   9.060  0.6982 -0.2469  1.8554
  585MOL0     H78951   9.151   9.276   9.209  0.4560  3.9878  0.0927
  585MOL0     H78952   9.175   9.174   9.069  0.1700 -2.0335  2.9501
  585MOL0     H78953   9.372   9.410   9.151 -2.6855  0.0745  0.1729
  585MOL0     H78954   9.396   9.297   9.022  1.9768  0.5989  1.2379
  585MOL0     H78955   9.537   9.213   9.207  0.6366 -0.1438  1.4956
  585MOL0     H78956   9.404   9.098   9.192 -1.1064 -0.2534 -0.3513
  585MOL0     H78957   8.752   9.515   8.461  0.9411 -0.1173  0.2298
  585MOL0     H78958   8.550   9.609   8.303  0.5131 -0.9383 -1.6479
  585MOL0     H78959   8.586   9.827   7.726  0.1790 -2.8283 -0.0986
  585MOL0     H78960   8.399   9.898   7.585 -0.1475 -1.8081 -1.1259
  585MOL0     H78961   9.393   9.567   7.559 -0.2869 -0.4539 -0.0506
  585MOL0     H78962   9.601   9.499   7.414  1.0165 -0.9660 -0.2591
  585MOL0     H78963   9.558   9.130   6.942 -0.0604 -0.5795  0.5458
  585MOL0     H78964   9.713   9.020   6.795  3.9410 -1.2165 -1.5915
  585MOL0     H78965   9.909   8.891   6.708 -0.7785  1.4704 -0.1468
  585MOL0     H78966   9.972   9.047   6.635  0.9409  0.8995 -0.1596
  585MOL0     H78967  10.133   8.827   6.778  0.2891  0.3531  1.9774
  585MOL0     H78968  10.204   8.964   6.710  0.1457  0.3643  0.2079
  585MOL0     H78969  10.091   8.912   6.480 -0.1519 -0.9448 -0.2274
  585MOL0     H78970  10.047   8.759   6.551 -0.7448 -0.3487  4.5665
  585MOL0     H78971  10.337   8.885   6.570 -2.7094  1.4464  2.0696
  585MOL0     H78972  10.289   8.792   6.429 -3.7103 -0.2986 -0.0971
  585MOL0     H78973  10.335   8.479   6.728 -0.2784  0.9090  2.6515
  585MOL0     H78974  10.031   9.130   7.069 -1.1677 -1.5572  1.0819
  585MOL0     H78975   9.867   9.223   7.230 -0.5168 -0.7606 -0.0303
  586MOL0     O78976   1.114   9.223   6.982  0.0292 -0.4359 -0.6199
  586MOL0     C78977   1.115   9.194   7.103 -0.1486 -0.0027 -0.1944
  586MOL0     O78978   1.002   9.168   7.178  0.2772  0.3180 -0.0766
  586MOL0     C78979   0.881   9.196   7.125 -0.0100  0.4368  1.1430
  586MOL0     C78980   0.823   9.124   7.016 -0.2840 -0.4507  0.8629
  586MOL0     C78981   0.718   9.169   6.936  0.4616 -0.2311 -0.1147
  586MOL0     C78982   0.659   9.294   6.975 -0.3150  0.1052 -0.1751
  586MOL0     O78983   0.554   9.339   6.898  0.2666 -0.5378 -0.1805
  586MOL0     C78984   0.547   9.482   6.869 -0.5923 -0.1661 -0.1239
  586MOL0     C78985   0.590   9.493   6.719 -0.3554 -0.0191  0.9587
  586MOL0     C78986   0.597   9.629   6.662  0.3291  0.3420 -0.2948
  586MOL0     C78987   0.480   9.724   6.706  0.4632  0.4554  0.2840
  586MOL0     C78988   0.468   9.855   6.622  0.3664 -0.6449  0.1034
  586MOL0     C78989   0.584   9.948   6.654  0.6840 -0.6562 -0.2477
  586MOL0     C78990   0.549  10.096   6.654  0.3446 -0.5402 -0.3314
  586MOL0     C78991   0.684  10.179   6.642  0.2014  0.1716  0.1250
  586MOL0     N78992   0.661  10.313   6.674  0.7562 -0.5444 -0.3303
  586MOL0     C78993   0.677  10.418   6.579  0.3429 -0.4936 -0.1428
  586MOL0     C78994   0.649  10.532   6.647 -0.5116  0.4616  0.8950
  586MOL0     C78995   0.660  10.670   6.582  0.5780  1.0180  0.1181
  586MOL0     C78996   0.800  10.711   6.532 -0.1668  0.4625 -0.5030
  586MOL0     C78997   0.835  10.643   6.400 -0.0254 -0.2846 -0.2513
  586MOL0     C78998   0.881  10.759   6.308  0.3820  0.6183  0.0620
  586MOL0     O78999   0.892  10.706   6.176 -0.2873 -0.0763  0.7286
  586MOL0     C79000   0.789  10.713   6.082 -0.0560 -0.1842 -1.0841
  586MOL0     C79001   0.660  10.673   6.113  0.2548  0.4043  0.6033
  586MOL0     C79002   0.560  10.664   6.017 -1.0029  0.4530  0.5043
  586MOL0     C79003   0.429  10.612   6.074  0.8180  0.0131 -0.4706
  586MOL0     C79004   0.587  10.693   5.885 -0.6006 -0.0947 -0.2883
  586MOL0     C79005   0.480  10.672   5.780  0.7593  0.3479 -0.1967
  586MOL0     O79006   0.485  10.747   5.659  0.8648 -0.4130 -0.6825
  586MOL0     C79007   0.424  10.695   5.551  0.2175  0.0568 -0.5699
  586MOL0     C79008   0.304  10.756   5.505  0.1429 -0.3980  0.4092
  586MOL0     C79009   0.230  10.696   5.400 -0.5504  0.1898  0.9945
  586MOL0     C79010   0.284  10.572   5.345  0.6751 -0.3006 -0.7460
  586MOL0     O79011   0.220  10.507   5.238  0.3621  0.2318 -0.6197
  586MOL0     C79012   0.077  10.511   5.225 -0.2990  0.4223 -0.1422
  586MOL0     C79013   0.051  10.441   5.088 -0.0297 -0.4816  0.4569
  586MOL0     C79014  -0.080  10.364   5.090  0.0121 -0.0568  0.0379
  586MOL0     C79015  -0.143  10.333   4.959  0.6181  0.6457  1.0471
  586MOL0     C79016  -0.253  10.226   4.973  0.5114 -0.5404 -0.1087
  586MOL0     C79017  -0.263  10.133   4.855  0.1972  0.6867  0.7893
  586MOL0     C79018  -0.313  10.201   4.726 -0.0343 -0.6234  0.1015
  586MOL0     C79019  -0.401  10.117   4.637 -0.8630  0.0952 -0.7578
  586MOL0    Cl79020  -0.421  10.224   4.509 -0.4302 -0.3717  0.0323
  586MOL0     C79021   0.402  10.517   5.390 -0.3618 -0.1016 -0.2200
  586MOL0     C79022   0.473  10.576   5.489  0.3747 -0.7148 -0.6784
  586MOL0     O79023   0.401  10.581   5.794  0.4381 -0.4729  0.3095
  586MOL0     C79024   0.715  10.738   5.854  0.3784 -0.4696 -0.1252
  586MOL0     C79025   0.818  10.758   5.954 -0.0738  1.2398  0.2178
  586MOL0     N79026   0.604  10.500   6.780  0.1574 -0.1795 -0.4527
  586MOL0     N79027   0.620  10.370   6.793 -0.0463 -0.0156  0.7982
  586MOL0     C79028   0.700   9.357   7.096 -0.0727  0.0243  0.3861
  586MOL0     C79029   0.812   9.313   7.168 -0.5128 -0.6431  0.3306
  586MOL0     C79030   1.237   9.182   7.183 -0.4597  0.3290 -0.1240
  586MOL0     C79031   1.245   9.141   7.317 -0.3975 -0.0185 -0.4471
  586MOL0     C79032   1.361   9.145   7.398 -1.2201  1.0027  0.0626
  586MOL0     C79033   1.483   9.199   7.342  0.1372  0.4688 -0.4508
  586MOL0     O79034   1.595   9.215   7.422 -0.3629  0.0428 -0.4360
  586MOL0     C79035   1.691   9.308   7.390 -0.7631 -0.3772  0.5454
  586MOL0     C79036   1.822   9.241   7.364 -0.7212 -0.1828  0.6349
  586MOL0     C79037   1.829   9.129   7.254 -0.8158  0.2102 -0.2511
  586MOL0     C79038   1.774   8.995   7.316  0.2055  0.1666  0.1251
  586MOL0     C79039   1.858   8.882   7.274  0.4394  0.3423  0.6637
  586MOL0     C79040   1.925   8.787   7.243  0.4359 -0.0410  0.6852
  586MOL0     C79041   1.480   9.232   7.206 -0.9039 -0.0350 -0.0412
  586MOL0     C79042   1.363   9.222   7.127  0.7253 -0.8909 -0.1118
  586MOL0     H79043   0.875   9.041   6.971  0.1901 -0.1428  0.8421
  586MOL0     H79044   0.694   9.118   6.844  2.1030 -1.0566 -0.1245
  586MOL0     H79045   0.444   9.519   6.880 -0.5262 -0.2720  0.9231
  586MOL0     H79046   0.611   9.538   6.938 -0.4230  0.8624 -1.0767
  586MOL0     H79047   0.684   9.438   6.710 -0.6672 -0.5562  0.9417
  586MOL0     H79048   0.521   9.428   6.664  0.7682 -0.2680 -0.1901
  586MOL0     H79049   0.693   9.672   6.696  0.5598 -0.8309  0.5914
  586MOL0     H79050   0.600   9.612   6.554  0.4876 -1.1271 -0.0699
  586MOL0     H79051   0.382   9.675   6.705 -0.1845  1.7074 -0.3637
  586MOL0     H79052   0.501   9.750   6.810  2.8556 -1.8729  0.4811
  586MOL0     H79053   0.460   9.829   6.516 -2.1758 -1.2804  0.3887
  586MOL0     H79054   0.374   9.905   6.647  0.6511  2.0656 -3.5341
  586MOL0     H79055   0.616   9.927   6.756  1.2103  2.8800  0.4442
  586MOL0     H79056   0.676   9.918   6.602  0.8448  2.7970 -2.2969
  586MOL0     H79057   0.472  10.114   6.579 -1.9100  1.7796  2.3177
  586MOL0     H79058   0.508  10.120   6.753 -1.5416 -2.7417 -0.4903
  586MOL0     H79059   0.730  10.169   6.543  1.5145  0.9121  0.6424
  586MOL0     H79060   0.762  10.143   6.710  0.5278  0.6271 -0.0014
  586MOL0     H79061   0.711  10.402   6.477  0.7902  2.1196 -0.4811
  586MOL0     H79062   0.594  10.688   6.496 -1.0865  0.0825  1.1517
  586MOL0     H79063   0.630  10.739   6.661  1.0605  2.0740 -0.5986
  586MOL0     H79064   0.869  10.694   6.615  0.2857 -1.3292 -1.2019
  586MOL0     H79065   0.801  10.819   6.517  0.7051  0.5703  0.2293
  586MOL0     H79066   0.751  10.586   6.361 -0.3872 -0.5089  0.8100
  586MOL0     H79067   0.917  10.572   6.418  0.3449  0.6089  1.9192
  586MOL0     H79068   0.979  10.795   6.337  0.4775  0.7287 -0.3900
  586MOL0     H79069   0.811  10.843   6.311  0.9795  1.1125  0.3128
  586MOL0     H79070   0.636  10.642   6.214  1.5868 -2.1886  0.1954
  586MOL0     H79071   0.392  10.522   6.024  2.2252 -0.6908 -0.2769
  586MOL0     H79072   0.432  10.594   6.182 -1.0682 -2.2298 -0.7175
  586MOL0     H79073   0.356  10.694   6.069  1.9615  1.1006  0.2208
  586MOL0     H79074   0.269  10.837   5.568 -1.5014  0.1113 -1.0821
  586MOL0     H79075   0.135  10.742   5.378  1.2532  4.3312  1.0288
  586MOL0     H79076   0.043  10.461   5.317  2.1966  1.4782  1.4797
  586MOL0     H79077   0.030  10.610   5.213 -1.8139 -0.1740  0.6061
  586MOL0     H79078   0.030  10.512   5.007 -0.8008 -1.3426 -0.1300
  586MOL0     H79079   0.136  10.379   5.058  1.7104  1.4545  1.1938
  586MOL0     H79080  -0.153  10.426   5.144  1.4312  2.3521 -0.6618
  586MOL0     H79081  -0.067  10.271   5.146 -1.9174 -1.7013 -2.0305
  586MOL0     H79082  -0.174  10.427   4.913  1.0856 -0.3329 -1.4445
  586MOL0     H79083  -0.071  10.301   4.882  0.2022 -2.1855  1.7266
  586MOL0     H79084  -0.345  10.285   4.980  0.3615 -1.0260  3.9758
  586MOL0     H79085  -0.235  10.166   5.062  1.1611 -1.2415 -0.7063
  586MOL0     H79086  -0.172  10.076   4.837  0.1263  1.5008 -3.0969
  586MOL0     H79087  -0.335  10.052   4.874 -1.1525  1.4913 -0.6871
  586MOL0     H79088  -0.222  10.230   4.672 -0.4175 -1.0243 -0.7696
  586MOL0     H79089  -0.366  10.291   4.759 -0.6199 -0.3947 -1.4222
  586MOL0     H79090  -0.495  10.091   4.688 -0.1646 -3.3219 -0.9691
  586MOL0     H79091  -0.352  10.023   4.609 -2.0372 -1.8729  3.0447
  586MOL0     H79092   0.442  10.429   5.341  1.7139  0.1464  0.9142
  586MOL0     H79093   0.561  10.526   5.529  1.5007  1.3939 -0.3783
  586MOL0     H79094   0.728  10.761   5.749 -1.6521  1.5575 -0.0087
  586MOL0     H79095   0.906  10.806   5.914 -1.0994  1.0713 -2.4580
  586MOL0     H79096   0.656   9.448   7.135  2.4698  1.2214  0.7030
  586MOL0     H79097   0.852   9.371   7.250 -2.3026 -0.5495  1.1885
  586MOL0     H79098   1.152   9.111   7.364  0.6706 -1.9963  0.5336
  586MOL0     H79099   1.366   9.126   7.505  3.4011  5.2480  0.9652
  586MOL0     H79100   1.666   9.380   7.311 -0.3438  0.7494  1.4132
  586MOL0     H79101   1.702   9.369   7.480  0.8802 -0.1540  0.2241
  586MOL0     H79102   1.847   9.192   7.459 -1.2186 -3.4235 -0.7622
  586MOL0     H79103   1.894   9.320   7.340 -2.5556  1.1981 -0.5675
  586MOL0     H79104   1.933   9.123   7.221 -0.3025 -0.1886  1.3407
  586MOL0     H79105   1.775   9.154   7.162 -1.1593 -1.7975 -0.6288
  586MOL0     H79106   1.666   8.991   7.298  0.2802  2.7513 -1.4385
  586MOL0     H79107   1.794   8.984   7.423 -1.3241 -0.2898  0.3923
  586MOL0     H79108   1.976   8.697   7.214  1.9866  1.5780 -1.9068
  586MOL0     H79109   1.563   9.265   7.144 -2.6844  0.8045 -2.1108
  586MOL0     H79110   1.370   9.266   7.028 -3.0843  2.9845  1.0027
  587MOL0     O79111   2.420   2.855   9.398  0.2116 -0.5076 -0.4493
  587MOL0     C79112   2.341   2.816   9.483  0.2642 -0.5234  0.2485
  587MOL0     O79113   2.379   2.743   9.592  0.4408 -1.0997 -0.7516
  587MOL0     C79114   2.508   2.698   9.614 -0.3393  1.2233 -0.0580
  587MOL0     C79115   2.617   2.785   9.603 -0.4101  0.0861  0.5970
  587MOL0     C79116   2.740   2.743   9.660 -0.3002  0.5708 -0.7171
  587MOL0     C79117   2.759   2.612   9.709  0.7063 -0.8328  0.3317
  587MOL0     O79118   2.876   2.555   9.749  0.1319  0.2749 -0.0019
  587MOL0     C79119   2.974   2.642   9.805  0.2153  0.3351 -0.0634
  587MOL0     C79120   3.099   2.579   9.860 -1.3744  0.2974  0.3121
  587MOL0     C79121   3.209   2.680   9.905 -1.1076 -0.1099 -0.2350
  587MOL0     C79122   3.271   2.636  10.045 -0.3668 -0.4677 -0.8882
  587MOL0     C79123   3.418   2.687  10.064  0.2855  0.1731  0.4142
  587MOL0     C79124   3.491   2.621  10.179 -0.5177 -0.3018 -0.3332
  587MOL0     C79125   3.637   2.676  10.195 -0.1056  0.3685  0.2497
  587MOL0     C79126   3.692   2.600  10.315 -0.3688  0.1982 -0.5001
  587MOL0     N79127   3.699   2.695  10.428 -0.0336  1.1968  0.4652
  587MOL0     C79128   3.587   2.756  10.478  1.7977  0.9135  0.2895
  587MOL0     C79129   3.633   2.873  10.532 -0.2734 -0.3022 -0.2897
  587MOL0     C79130   3.552   2.988  10.575 -0.6392  0.2358 -0.7581
  587MOL0     C79131   3.404   2.959  10.543  0.5005 -0.5906 -0.0477
  587MOL0     C79132   3.381   2.978  10.398  0.1548 -0.4685  0.5455
  587MOL0     C79133   3.251   2.919  10.348 -0.8313 -0.1581 -0.1485
  587MOL0     O79134   3.225   2.918  10.210 -0.4574 -0.1998 -0.3401
  587MOL0     C79135   3.096   2.924  10.171 -0.1384 -0.0799  0.5405
  587MOL0     C79136   3.084   2.984  10.052  1.5115 -0.2336  0.9503
  587MOL0     C79137   2.949   2.987   9.993 -0.5721  0.0046 -0.3531
  587MOL0     C79138   2.953   3.048   9.859  0.2715 -0.6850 -0.6490
  587MOL0     C79139   2.840   2.933  10.058  0.2404  0.2330  0.0871
  587MOL0     C79140   2.702   2.933  10.004  0.2752  0.1095 -0.0784
  587MOL0     O79141   2.603   2.872  10.078 -0.1305 -0.4879  0.5471
  587MOL0     C79142   2.476   2.914  10.040  0.0083 -0.9539  0.4001
  587MOL0     C79143   2.435   3.044  10.083  0.7995 -0.7000  0.2892
  587MOL0     C79144   2.319   3.103  10.043 -0.0534  0.0686 -0.0995
  587MOL0     C79145   2.230   3.025   9.969 -0.3522 -0.6180  0.3046
  587MOL0     O79146   2.107   3.080   9.962 -0.1413  0.2159 -0.0577
  587MOL0     C79147   2.016   3.015   9.860 -0.1381  0.2811  0.6679
  587MOL0     C79148   1.896   3.105   9.837  0.5729 -0.5180 -0.2965
  587MOL0     C79149   1.801   3.113   9.959 -1.0639 -0.1829 -0.6260
  587MOL0     C79150   1.685   3.205   9.935 -0.1830 -0.2103  0.7402
  587MOL0     C79151   1.577   3.168  10.037  0.7957  0.4975  0.4976
  587MOL0     C79152   1.612   3.223  10.176  0.0769 -0.5682 -0.6363
  587MOL0     C79153   1.542   3.172  10.304 -0.8706  1.1083 -0.3015
  587MOL0     C79154   1.486   3.026  10.306  1.1566 -0.3046  0.2612
  587MOL0    Cl79155   1.360   2.993  10.182 -0.4852 -0.2857  0.2654
  587MOL0     C79156   2.265   2.899   9.911 -0.0896  0.2232  0.2323
  587MOL0     C79157   2.390   2.841   9.956  0.6304 -0.4265 -0.0861
  587MOL0     O79158   2.682   2.986   9.895 -0.8897 -0.1277 -0.2753
  587MOL0     C79159   2.866   2.882  10.187  0.3356  0.1258 -0.0648
  587MOL0     C79160   2.988   2.876  10.248  0.6700 -0.5456 -0.3381
  587MOL0     N79161   3.773   2.867  10.529 -0.0767 -0.7413 -0.3386
  587MOL0     N79162   3.803   2.763  10.461  0.0804  0.0448  0.5456
  587MOL0     C79163   2.651   2.520   9.705 -0.4837 -0.2095 -1.1222
  587MOL0     C79164   2.522   2.563   9.669  0.0064 -0.4609  0.1360
  587MOL0     C79165   2.202   2.849   9.457 -0.1387 -1.0743  0.4366
  587MOL0     C79166   2.105   2.779   9.531 -0.5394  0.2984 -0.1402
  587MOL0     C79167   1.964   2.805   9.501 -0.9775 -0.2723 -1.3146
  587MOL0     C79168   1.932   2.893   9.397 -0.3522 -0.2901 -0.2115
  587MOL0     O79169   1.806   2.906   9.343  0.2977  0.6299 -0.3786
  587MOL0     C79170   1.709   2.804   9.358 -0.2904  0.3976 -1.0208
  587MOL0     C79171   1.578   2.879   9.394  0.0731  0.5347 -0.4750
  587MOL0     C79172   1.570   2.921   9.544 -0.0409  0.6331 -0.1077
  587MOL0     C79173   1.435   2.975   9.605 -0.1857 -1.2074 -0.2393
  587MOL0     C79174   1.321   2.907   9.561 -0.7557 -0.4223 -0.0689
  587MOL0     C79175   1.221   2.861   9.523  0.2474  0.3460  0.2380
  587MOL0     C79176   2.036   2.968   9.339  0.2060 -0.9345 -0.1976
  587MOL0     C79177   2.168   2.950   9.368  0.1479 -0.0956 -0.5515
  587MOL0     H79178   2.606   2.883   9.559  1.8666 -0.1469 -0.6621
  587MOL0     H79179   2.821   2.813   9.647  0.0789 -0.1382 -2.3835
  587MOL0     H79180   3.005   2.710   9.725  1.8051 -0.4929 -0.1769
  587MOL0     H79181   2.927   2.702   9.884 -0.6910  1.1574 -1.1806
  587MOL0     H79182   3.081   2.507   9.940  1.9156  0.9656  1.8380
  587MOL0     H79183   3.153   2.520   9.786  0.6301  0.9560  1.1752
  587MOL0     H79184   3.293   2.687   9.835 -0.6868 -2.7687 -0.1156
  587MOL0     H79185   3.167   2.780   9.893  3.0129  1.7943 -0.5304
  587MOL0     H79186   3.212   2.663  10.133  3.1218 -1.6552  2.0916
  587MOL0     H79187   3.283   2.528  10.033 -2.8403 -0.6749 -2.1354
  587MOL0     H79188   3.469   2.663   9.970  1.8593  0.6535  1.1070
  587MOL0     H79189   3.417   2.796  10.068  0.4488  0.2821 -1.5956
  587MOL0     H79190   3.434   2.622  10.272  3.6764  0.8026  2.5111
  587MOL0     H79191   3.496   2.514  10.153 -0.9063 -0.1981 -0.8598
  587MOL0     H79192   3.687   2.661  10.099 -0.3500 -0.8195  0.2849
  587MOL0     H79193   3.639   2.783  10.214 -2.5990  0.8746 -1.7872
  587MOL0     H79194   3.795   2.569  10.291 -0.6467 -0.3333 -1.0323
  587MOL0     H79195   3.627   2.519  10.349 -2.1606  0.5665 -2.7915
  587MOL0     H79196   3.487   2.717  10.463  3.2825 -2.2453 -2.6501
  587MOL0     H79197   3.565   2.998  10.683 -1.5946 -2.8515 -0.2502
  587MOL0     H79198   3.580   3.084  10.529 -0.3453  0.2017 -0.6502
  587MOL0     H79199   3.343   3.034  10.595  3.0881  2.4547 -1.0404
  587MOL0     H79200   3.366   2.869  10.592 -1.4931  0.9912  1.5229
  587MOL0     H79201   3.472   2.945  10.347 -1.0588 -1.9444 -0.7385
  587MOL0     H79202   3.369   3.086  10.379  1.8544 -0.4554 -0.7803
  587MOL0     H79203   3.173   2.975  10.400 -0.2056  0.1452  0.4889
  587MOL0     H79204   3.233   2.820  10.390  0.2940 -0.8966 -1.3410
  587MOL0     H79205   3.169   3.018   9.994 -0.7396  0.3990 -2.2737
  587MOL0     H79206   2.931   2.982   9.774 -0.4659  2.2940 -2.9570
  587MOL0     H79207   2.879   3.128   9.855  0.3121 -0.6343 -0.3791
  587MOL0     H79208   3.048   3.100   9.850 -1.5570  2.9028 -0.8401
  587MOL0     H79209   2.505   3.095  10.148  1.9497  0.5342 -1.8032
  587MOL0     H79210   2.292   3.201  10.082  2.4676  1.3337 -1.2620
  587MOL0     H79211   2.071   3.014   9.765  2.9644 -1.1808  2.3315
  587MOL0     H79212   1.988   2.910   9.871  2.6298 -0.5856  0.2292
  587MOL0     H79213   1.934   3.207   9.821  1.1992 -0.7150 -0.1127
  587MOL0     H79214   1.839   3.080   9.747 -2.3317  1.4076  0.8564
  587MOL0     H79215   1.874   3.142  10.035 -0.0825  0.4528 -1.7784
  587MOL0     H79216   1.766   3.012   9.983 -0.5742 -0.3942 -0.7997
  587MOL0     H79217   1.712   3.311   9.933  0.2658 -0.3106  1.2158
  587MOL0     H79218   1.646   3.193   9.834 -0.8373  3.0814  0.4917
  587MOL0     H79219   1.560   3.061  10.028 -1.7250  1.0255 -2.7485
  587MOL0     H79220   1.479   3.211  10.012  0.9749  0.6647  0.0708
  587MOL0     H79221   1.720   3.211  10.193  0.2042  0.0460 -0.9843
  587MOL0     H79222   1.590   3.330  10.171 -0.3277 -0.7092 -2.3692
  587MOL0     H79223   1.455   3.237  10.313 -2.4942 -1.0404  0.2614
  587MOL0     H79224   1.599   3.192  10.395 -0.2184 -1.0413 -0.1817
  587MOL0     H79225   1.433   3.003  10.399  1.8059 -1.9933  0.2371
  587MOL0     H79226   1.574   2.966  10.282 -0.3383 -2.7521  0.6312
  587MOL0     H79227   2.212   2.831   9.845  0.4421  1.4717 -1.5529
  587MOL0     H79228   2.408   2.738   9.928 -1.3767 -1.3782  1.7657
  587MOL0     H79229   2.784   2.830  10.237 -1.1307 -0.6673 -3.0264
  587MOL0     H79230   2.993   2.831  10.347  1.6032 -0.9021 -0.5408
  587MOL0     H79231   2.679   2.418   9.730  3.6117  1.2621  1.3146
  587MOL0     H79232   2.439   2.493   9.665 -0.9371  0.6363  0.0342
  587MOL0     H79233   2.146   2.712   9.606  2.8802 -0.1189 -2.1790
  587MOL0     H79234   1.890   2.739   9.545 -0.7680 -0.8360 -1.8020
  587MOL0     H79235   1.696   2.752   9.263  1.4232  1.1598 -1.7064
  587MOL0     H79236   1.724   2.725   9.432 -2.0526  2.4721  1.7800
  587MOL0     H79237   1.491   2.816   9.375 -0.9707  0.9037  2.4393
  587MOL0     H79238   1.574   2.969   9.332  0.3284  1.2105  0.4577
  587MOL0     H79239   1.637   3.006   9.559  2.4983 -1.2926  0.0795
  587MOL0     H79240   1.621   2.846   9.605  1.7091  1.7852 -0.0577
  587MOL0     H79241   1.416   3.076   9.569 -1.7086 -1.6729 -0.8561
  587MOL0     H79242   1.437   2.982   9.714 -0.7551  0.1433 -0.2921
  587MOL0     H79243   1.143   2.806   9.474  1.6897 -2.3218  0.7411
  587MOL0     H79244   2.006   3.053   9.279 -0.3319  1.0690  2.7227
  587MOL0     H79245   2.241   3.015   9.321 -1.5206  2.9100  0.7387
  588MOL0     O79246  10.052   3.701   7.584 -0.6110 -0.0727 -0.3750
  588MOL0     C79247  10.085   3.817   7.628 -0.5335  0.4240 -0.3983
  588MOL0     O79248  10.057   3.858   7.760  0.6240  0.2937 -0.1507
  588MOL0     C79249   9.976   3.770   7.838 -0.7285  0.4396 -0.6676
  588MOL0     C79250   9.859   3.706   7.798  0.1348  0.5967  0.6918
  588MOL0     C79251   9.790   3.621   7.883  0.4185 -0.1618  0.6378
  588MOL0     C79252   9.849   3.582   8.009 -0.5217  0.0235 -0.6849
  588MOL0     O79253   9.806   3.475   8.084 -0.0769  0.2786 -0.1342
  588MOL0     C79254   9.689   3.497   8.167 -0.2784  0.1657 -0.5637
  588MOL0     C79255   9.557   3.484   8.098  0.2718  0.4361  0.9836
  588MOL0     C79256   9.549   3.352   8.004  0.1227  0.1080 -0.6905
  588MOL0     C79257   9.405   3.340   7.945  0.8075 -0.1713  0.6804
  588MOL0     C79258   9.374   3.205   7.873 -0.5162 -0.1724 -0.4613
  588MOL0     C79259   9.234   3.200   7.821 -0.7093 -0.8967 -0.1101
  588MOL0     C79260   9.216   3.083   7.729 -0.2266 -1.2524  0.6116
  588MOL0     C79261   9.091   3.104   7.639 -0.5613  0.6883 -0.3732
  588MOL0     N79262   8.968   3.118   7.711  0.2549 -0.2047  0.8379
  588MOL0     C79263   8.862   3.181   7.652  0.7071 -0.4915  0.8014
  588MOL0     C79264   8.756   3.133   7.718  0.5563 -0.1940  0.9342
  588MOL0     C79265   8.608   3.128   7.687  1.0777  0.2623  0.1281
  588MOL0     C79266   8.548   3.261   7.624  0.2256  0.3294  0.5163
  588MOL0     C79267   8.396   3.255   7.600 -0.3668 -0.4395  0.5126
  588MOL0     C79268   8.308   3.247   7.725  0.3219 -0.6509  0.0992
  588MOL0     O79269   8.175   3.288   7.691 -0.1678  0.0007  0.2213
  588MOL0     C79270   8.079   3.261   7.776 -0.1370  0.3422 -0.2479
  588MOL0     C79271   8.092   3.236   7.913  0.6289  0.3562  0.1985
  588MOL0     C79272   7.979   3.230   7.993 -0.0651 -0.3850 -0.0113
  588MOL0     C79273   8.019   3.222   8.139 -0.9328  0.3011  0.7249
  588MOL0     C79274   7.846   3.231   7.950 -0.3537 -0.0894  0.1068
  588MOL0     C79275   7.726   3.191   8.035  0.0931 -0.3894  0.4193
  588MOL0     O79276   7.609   3.208   7.975 -0.4534 -0.7455  0.3060
  588MOL0     C79277   7.504   3.148   8.031 -0.1763 -0.2232 -0.1600
  588MOL0     C79278   7.517   3.011   8.068 -0.1166  0.0665 -0.5976
  588MOL0     C79279   7.410   2.951   8.137 -0.9563  0.4277 -0.2614
  588MOL0     C79280   7.289   3.022   8.163  0.7615 -0.3083  0.4380
  588MOL0     O79281   7.180   2.962   8.225 -0.0127  0.0705  0.0019
  588MOL0     C79282   7.075   3.039   8.287  0.7272 -0.4143  0.5845
  588MOL0     C79283   7.025   2.983   8.416  0.0979 -0.3833  0.2504
  588MOL0     C79284   6.924   3.074   8.493  0.4295 -0.8497 -0.1878
  588MOL0     C79285   6.824   2.990   8.573  0.3868  1.3020  0.0319
  588MOL0     C79286   6.721   3.083   8.660  0.1352 -0.7712  0.3317
  588MOL0     C79287   6.641   2.995   8.750  0.6643 -0.2349 -0.9617
  588MOL0     C79288   6.546   3.095   8.829  0.0094  0.0363 -0.0246
  588MOL0     C79289   6.448   3.033   8.933 -0.0634  0.6972 -0.8842
  588MOL0    Cl79290   6.360   2.909   8.850 -0.2362 -0.0694  0.1801
  588MOL0     C79291   7.277   3.156   8.108  0.7232  0.0524  0.6547
  588MOL0     C79292   7.390   3.221   8.047 -0.0566 -0.0997  0.1374
  588MOL0     O79293   7.736   3.167   8.156 -0.7707  0.0495 -0.6213
  588MOL0     C79294   7.840   3.252   7.807  0.3198 -0.0637  0.1130
  588MOL0     C79295   7.949   3.275   7.723 -1.0655 -0.7185 -0.1030
  588MOL0     N79296   8.795   3.043   7.809  0.6807  0.4544 -0.3233
  588MOL0     N79297   8.920   3.029   7.805 -0.2561 -0.1466  0.5925
  588MOL0     C79298   9.965   3.646   8.049  0.7051  0.1703 -0.0434
  588MOL0     C79299  10.031   3.740   7.963  0.4285  0.4603  0.1728
  588MOL0     C79300  10.163   3.913   7.543 -0.5384 -0.0705 -0.1393
  588MOL0     C79301  10.189   3.896   7.408 -0.0685  0.3707 -0.2136
  588MOL0     C79302  10.284   3.972   7.333  0.6540  1.0642 -0.2972
  588MOL0     C79303  10.356   4.080   7.393  0.2625  0.0932 -0.6507
  588MOL0     O79304  10.462   4.134   7.327  0.6510  0.1701 -0.5340
  588MOL0     C79305  10.593   4.119   7.391  0.2231 -0.3613  0.5981
  588MOL0     C79306  10.695   4.211   7.345 -0.6203 -0.5269 -0.2896
  588MOL0     C79307  10.840   4.191   7.422  0.5298  0.7384  0.3130
  588MOL0     C79308  10.847   4.241   7.568  0.7567 -1.2154 -0.7176
  588MOL0     C79309  10.761   4.361   7.597 -0.5603 -0.2379 -0.6240
  588MOL0     C79310  10.707   4.466   7.639 -0.2498  0.8131  0.1316
  588MOL0     C79311  10.328   4.089   7.534 -1.3522 -0.9416  0.5106
  588MOL0     C79312  10.240   4.011   7.607 -0.4003 -0.2243  0.2925
  588MOL0     H79313   9.816   3.720   7.700 -1.3298  0.8151  1.3259
  588MOL0     H79314   9.699   3.577   7.842 -0.5799  1.8719  0.5386
  588MOL0     H79315   9.687   3.420   8.245 -0.2438 -0.1173 -0.8410
  588MOL0     H79316   9.687   3.589   8.226 -2.1376  0.3256 -0.8224
  588MOL0     H79317   9.470   3.489   8.164  0.0159  0.0928  0.6796
  588MOL0     H79318   9.543   3.573   8.035  5.0322  1.9423  1.6539
  588MOL0     H79319   9.621   3.364   7.923  1.4518  0.4782  0.4952
  588MOL0     H79320   9.573   3.264   8.065 -3.7097  0.7204  2.1154
  588MOL0     H79321   9.326   3.356   8.019 -1.2441 -0.6088 -1.2888
  588MOL0     H79322   9.396   3.422   7.872  2.8049  1.5177  2.1914
  588MOL0     H79323   9.441   3.185   7.788 -0.8526 -3.4672 -0.0713
  588MOL0     H79324   9.400   3.124   7.942 -2.0540 -0.5491 -0.2992
  588MOL0     H79325   9.160   3.218   7.898 -0.6737  0.2681 -0.3388
  588MOL0     H79326   9.225   3.285   7.753 -1.8872 -1.4248 -0.6528
  588MOL0     H79327   9.304   3.072   7.665  1.0119 -1.3269  2.2493
  588MOL0     H79328   9.186   2.991   7.782 -0.2478 -1.1407  0.7928
  588MOL0     H79329   9.081   3.018   7.573  1.7223  0.1515 -0.0843
  588MOL0     H79330   9.117   3.194   7.581  1.0667  0.1002 -0.6036
  588MOL0     H79331   8.868   3.263   7.581 -0.7267 -0.1757  1.0130
  588MOL0     H79332   8.578   3.046   7.621  3.2804  0.8699 -1.7732
  588MOL0     H79333   8.557   3.100   7.779 -0.8399  2.4268 -0.1870
  588MOL0     H79334   8.608   3.276   7.534  0.7539 -2.3587  0.3257
  588MOL0     H79335   8.576   3.343   7.691  1.3526  0.0089  0.4598
  588MOL0     H79336   8.371   3.173   7.531  1.1205 -1.8550  1.5794
  588MOL0     H79337   8.379   3.351   7.552 -0.5592  1.2097  3.6142
  588MOL0     H79338   8.345   3.297   7.815  4.2263 -2.2382 -0.4228
  588MOL0     H79339   8.302   3.139   7.746  2.2709 -0.3834  2.4886
  588MOL0     H79340   8.192   3.222   7.953  1.1101 -3.4487 -1.7735
  588MOL0     H79341   8.125   3.224   8.165 -0.7415 -0.6771  0.0836
  588MOL0     H79342   7.974   3.302   8.199 -0.3897  0.3409  1.0902
  588MOL0     H79343   7.973   3.127   8.168 -1.4486 -0.0037 -0.9626
  588MOL0     H79344   7.608   2.952   8.060  1.3497  1.7107  2.4227
  588MOL0     H79345   7.431   2.852   8.177  0.9559 -0.1600 -2.5517
  588MOL0     H79346   7.114   3.139   8.310 -0.8207  0.6791 -1.2872
  588MOL0     H79347   6.997   3.061   8.215  1.6840 -4.1130 -1.8360
  588MOL0     H79348   6.981   2.889   8.380  5.2950 -3.0631  0.0153
  588MOL0     H79349   7.106   2.955   8.483 -0.5480  0.8743  1.6355
  588MOL0     H79350   6.860   3.138   8.431  1.4000  1.2892  0.9484
  588MOL0     H79351   6.979   3.140   8.560  3.6461 -3.4823  0.0205
  588MOL0     H79352   6.759   2.931   8.508  1.5107  1.3437 -1.1573
  588MOL0     H79353   6.873   2.921   8.642  1.7368  4.1180  2.1007
  588MOL0     H79354   6.656   3.140   8.594  4.3843  0.2838 -3.4158
  588MOL0     H79355   6.772   3.156   8.723 -1.1765  0.7652 -0.3107
  588MOL0     H79356   6.579   2.917   8.705 -0.2311 -0.9748  1.3878
  588MOL0     H79357   6.713   2.942   8.813  0.3770 -1.4752 -1.6457
  588MOL0     H79358   6.482   3.151   8.760  0.9683  0.2119 -0.7817
  588MOL0     H79359   6.604   3.174   8.879  0.1069  0.9131 -1.4850
  588MOL0     H79360   6.383   3.114   8.967 -2.4065 -1.7761  0.9674
  588MOL0     H79361   6.494   2.990   9.023 -3.5297  1.8373  1.6648
  588MOL0     H79362   7.186   3.214   8.117  1.1369  0.8789 -0.2745
  588MOL0     H79363   7.389   3.325   8.018 -2.0716 -0.7020 -2.3587
  588MOL0     H79364   7.742   3.238   7.762 -0.2728  2.3705  0.4630
  588MOL0     H79365   7.947   3.291   7.616  0.4568  0.8458  0.0527
  588MOL0     H79366  10.013   3.627   8.145  0.4166 -0.5084 -0.0333
  588MOL0     H79367  10.115   3.796   8.002  1.4821 -0.2830 -0.9403
  588MOL0     H79368  10.135   3.817   7.356  0.2140  0.6578 -0.9556
  588MOL0     H79369  10.308   3.949   7.229  1.9692  0.3327  0.1498
  588MOL0     H79370  10.585   4.127   7.499 -1.1399 -3.7508  0.8501
  588MOL0     H79371  10.630   4.017   7.379 -0.4741 -0.9405  2.8708
  588MOL0     H79372  10.656   4.313   7.346  0.1721 -0.2141 -0.8912
  588MOL0     H79373  10.714   4.185   7.241  2.0321  1.1752 -0.3274
  588MOL0     H79374  10.921   4.246   7.372  0.5371  0.1228 -0.3557
  588MOL0     H79375  10.865   4.085   7.410 -0.0895  0.6794 -0.5121
  588MOL0     H79376  10.954   4.247   7.593  0.2424 -1.8142  1.9344
  588MOL0     H79377  10.817   4.153   7.625 -1.0310  0.8781  1.8159
  588MOL0     H79378  10.658   4.558   7.662 -1.2962 -0.0744  1.6838
  588MOL0     H79379  10.387   4.159   7.592 -1.3111  1.8079 -2.5385
  588MOL0     H79380  10.243   4.024   7.715 -0.7314 -1.2820  0.4363
  589MOL0     O79381   3.332   8.906   3.319  0.0866  0.0561  0.7836
  589MOL0     C79382   3.325   8.885   3.442  0.4291 -0.5196  0.2058
  589MOL0     O79383   3.206   8.888   3.511 -0.0421 -0.0917 -0.0483
  589MOL0     C79384   3.097   8.906   3.431  0.2798 -0.1806 -0.1750
  589MOL0     C79385   3.066   8.827   3.321 -0.0013 -0.5388 -0.6207
  589MOL0     C79386   2.946   8.840   3.250 -0.9343  0.7952 -0.4192
  589MOL0     C79387   2.851   8.934   3.298  0.4443  0.2603  0.1444
  589MOL0     O79388   2.734   8.959   3.219 -0.0005 -0.8729 -0.4306
  589MOL0     C79389   2.705   8.881   3.101 -0.8113  0.3469  0.3817
  589MOL0     C79390   2.561   8.896   3.070  0.2647 -0.0241 -0.6026
  589MOL0     C79391   2.481   8.810   3.167  0.2639  0.3248  0.5308
  589MOL0     C79392   2.330   8.826   3.161 -0.8965  0.3452 -0.0725
  589MOL0     C79393   2.273   8.716   3.245  0.1774  1.5610 -0.1132
  589MOL0     C79394   2.238   8.754   3.388 -0.2962 -0.3288 -0.5287
  589MOL0     C79395   2.167   8.649   3.470 -0.1970 -0.2085  0.1075
  589MOL0     C79396   2.021   8.611   3.428 -0.3361 -1.2273  0.4810
  589MOL0     N79397   1.943   8.539   3.524  0.4222  0.1834  0.8148
  589MOL0     C79398   1.969   8.407   3.561 -0.1108  0.7490 -0.8258
  589MOL0     C79399   1.876   8.377   3.649 -0.7328  0.3876 -0.0265
  589MOL0     C79400   1.870   8.249   3.724  0.0106  0.1905  0.5658
  589MOL0     C79401   1.896   8.279   3.876 -0.6778  0.2561 -0.1337
  589MOL0     C79402   1.909   8.150   3.954 -0.1636 -0.2321  0.2059
  589MOL0     C79403   1.768   8.072   3.965 -0.4042  0.0476 -0.1858
  589MOL0     O79404   1.706   8.098   4.093  0.2936  0.4917  0.2492
  589MOL0     C79405   1.570   8.060   4.078 -0.0042  0.5009 -0.5392
  589MOL0     C79406   1.469   8.151   4.069  0.4171  0.3120  0.0404
  589MOL0     C79407   1.330   8.118   4.095 -1.2765  0.7405  0.6145
  589MOL0     C79408   1.225   8.224   4.089 -0.3834 -0.6183 -0.5210
  589MOL0     C79409   1.296   7.982   4.132 -1.4449  0.4389 -0.3111
  589MOL0     C79410   1.155   7.923   4.147  0.6125  0.0153 -0.7495
  589MOL0     O79411   1.146   7.787   4.154 -0.0278  0.3574 -1.2640
  589MOL0     C79412   1.028   7.727   4.119  0.3536 -0.2546 -0.4161
  589MOL0     C79413   1.014   7.695   3.981  0.1372 -0.7989 -0.9483
  589MOL0     C79414   0.896   7.643   3.947  1.4034 -0.3772  0.2776
  589MOL0     C79415   0.791   7.610   4.034  0.1601 -0.3771  0.4095
  589MOL0     O79416   0.675   7.572   3.994  0.2615 -0.2816 -0.2734
  589MOL0     C79417   0.570   7.522   4.078  1.0100  1.3271 -0.0260
  589MOL0     C79418   0.448   7.511   3.987  0.3912 -0.1830 -0.5269
  589MOL0     C79419   0.343   7.437   4.064 -0.3958  0.0498  0.2433
  589MOL0     C79420   0.213   7.439   3.990  0.4301  0.8131  0.6998
  589MOL0     C79421   0.138   7.300   4.014  0.7212 -0.5184 -0.5958
  589MOL0     C79422  -0.014   7.312   3.980 -0.3892 -0.0354 -0.0288
  589MOL0     C79423  -0.086   7.184   3.952 -0.0051  0.0423  0.8653
  589MOL0     C79424  -0.228   7.209   3.909  1.6152  0.4731  1.4452
  589MOL0    Cl79425  -0.243   7.342   3.787 -0.2275 -0.3257  0.6476
  589MOL0     C79426   0.807   7.647   4.167  0.6352 -0.1944 -0.5938
  589MOL0     C79427   0.929   7.701   4.216 -0.1138 -0.0430 -0.1180
  589MOL0     O79428   1.063   8.004   4.145  0.3068  0.2379 -0.2332
  589MOL0     C79429   1.407   7.889   4.138 -0.3534  0.6229  0.6226
  589MOL0     C79430   1.536   7.930   4.118 -0.3716 -0.4010 -0.3084
  589MOL0     N79431   1.797   8.489   3.660 -0.2156 -0.8037  0.6049
  589MOL0     N79432   1.831   8.575   3.578  0.2386 -0.2441 -0.2442
  589MOL0     C79433   2.877   9.010   3.414  0.6076  0.0275  1.4581
  589MOL0     C79434   2.996   8.994   3.477  0.2552  0.1717 -0.7275
  589MOL0     C79435   3.451   8.875   3.521  0.3255 -0.2008  0.1173
  589MOL0     C79436   3.582   8.893   3.468  0.4132 -0.2059 -0.4583
  589MOL0     C79437   3.690   8.916   3.546  0.0135 -0.4882 -0.1407
  589MOL0     C79438   3.682   8.903   3.682  0.2759 -0.0817  0.0257
  589MOL0     O79439   3.799   8.953   3.736 -0.1699  0.9785 -0.7302
  589MOL0     C79440   3.799   9.000   3.872  0.3594 -0.0643 -0.0376
  589MOL0     C79441   3.714   9.122   3.897  0.0094 -0.1578 -0.2592
  589MOL0     C79442   3.761   9.243   3.815 -0.2388 -0.5148  0.1105
  589MOL0     C79443   3.854   9.334   3.893  0.0306  0.0203 -0.6133
  589MOL0     C79444   3.784   9.376   4.012 -0.0897 -0.6320  0.2560
  589MOL0     C79445   3.740   9.408   4.119  0.1000 -0.2027  0.1473
  589MOL0     C79446   3.559   8.868   3.739 -0.7059  1.0776 -0.4089
  589MOL0     C79447   3.438   8.861   3.660  0.1921 -0.7351 -0.1418
  589MOL0     H79448   3.139   8.750   3.299 -0.2998 -0.7769 -0.7900
  589MOL0     H79449   2.933   8.781   3.160 -1.0542  0.6550 -0.3087
  589MOL0     H79450   2.767   8.916   3.018 -0.3074 -0.2586  0.4947
  589MOL0     H79451   2.726   8.775   3.120  0.1623  0.4065 -0.2868
  589MOL0     H79452   2.527   9.000   3.070  0.1162 -0.0716 -0.7138
  589MOL0     H79453   2.544   8.848   2.973  2.2670 -1.7708 -0.1557
  589MOL0     H79454   2.486   8.702   3.147 -0.7225  0.6671 -1.9950
  589MOL0     H79455   2.522   8.819   3.268  1.4110  0.8215  0.0288
  589MOL0     H79456   2.290   8.920   3.198 -3.2625 -0.1579 -1.1895
  589MOL0     H79457   2.295   8.815   3.058 -0.1545  0.6631 -0.3688
  589MOL0     H79458   2.186   8.666   3.201  0.8668 -0.6418  0.8807
  589MOL0     H79459   2.343   8.632   3.253  1.5240  2.5907 -0.6701
  589MOL0     H79460   2.331   8.779   3.440 -0.1128 -3.6075  0.9560
  589MOL0     H79461   2.172   8.840   3.376 -1.1374 -0.9447 -0.4343
  589MOL0     H79462   2.229   8.560   3.461 -0.3395 -0.6915  2.8793
  589MOL0     H79463   2.170   8.668   3.578  0.1818  1.0384 -0.1074
  589MOL0     H79464   2.019   8.569   3.327 -1.8098 -0.1198  0.0125
  589MOL0     H79465   1.971   8.707   3.416  2.6028  0.3102 -0.3970
  589MOL0     H79466   2.057   8.345   3.547 -0.3428  0.6011 -1.6739
  589MOL0     H79467   1.775   8.195   3.717  0.1835 -0.5308  2.8778
  589MOL0     H79468   1.953   8.189   3.687 -1.3597 -2.2427  1.2599
  589MOL0     H79469   1.817   8.343   3.917  0.7889  2.8674 -1.0808
  589MOL0     H79470   1.981   8.345   3.895 -1.4017  1.1465  0.1586
  589MOL0     H79471   1.941   8.165   4.057  0.4821 -0.1424 -0.0062
  589MOL0     H79472   1.986   8.086   3.909 -0.1854 -0.5335  0.5857
  589MOL0     H79473   1.792   7.966   3.959  0.5901  0.3305 -2.1436
  589MOL0     H79474   1.691   8.084   3.888 -1.0808 -0.5637  0.3844
  589MOL0     H79475   1.491   8.256   4.057  0.1880  0.0493 -4.0549
  589MOL0     H79476   1.163   8.218   4.000  0.1864  1.5735 -1.1402
  589MOL0     H79477   1.167   8.239   4.181  1.6159  0.1075  0.6922
  589MOL0     H79478   1.280   8.319   4.081 -1.3630  0.6222  4.2394
  589MOL0     H79479   1.090   7.715   3.906  1.2955 -0.5154  0.2624
  589MOL0     H79480   0.867   7.636   3.842 -1.8498  0.4989  1.0138
  589MOL0     H79481   0.597   7.423   4.117 -0.4676  0.7999 -0.2556
  589MOL0     H79482   0.547   7.585   4.164  1.4628 -1.3549  2.1880
  589MOL0     H79483   0.409   7.608   3.956 -0.5180 -0.2569  0.3171
  589MOL0     H79484   0.476   7.454   3.899  0.8578 -1.0329  0.1534
  589MOL0     H79485   0.321   7.493   4.156 -2.0632 -0.1714  0.0148
  589MOL0     H79486   0.385   7.339   4.089  1.1995  0.9345  1.2388
  589MOL0     H79487   0.149   7.521   4.023 -2.6028 -1.2897  0.4697
  589MOL0     H79488   0.225   7.449   3.882  2.6232  1.1227  0.9204
  589MOL0     H79489   0.142   7.255   4.114  1.8940  0.1885 -0.3048
  589MOL0     H79490   0.192   7.232   3.948  1.5961  1.5811 -2.1690
  589MOL0     H79491  -0.074   7.360   4.058 -1.8925  0.7207 -1.5965
  589MOL0     H79492  -0.009   7.376   3.892 -1.2143  1.5432  1.0260
  589MOL0     H79493  -0.088   7.119   4.041 -3.1449 -0.9397  0.1911
  589MOL0     H79494  -0.037   7.131   3.870  0.5147 -0.1319  1.2807
  589MOL0     H79495  -0.287   7.245   3.994 -2.8613  0.6764 -1.4276
  589MOL0     H79496  -0.265   7.116   3.865 -0.1426  2.8289 -2.6863
  589MOL0     H79497   0.730   7.642   4.243 -0.5329 -0.0423 -1.7368
  589MOL0     H79498   0.950   7.727   4.320 -0.5502  0.3770 -0.1361
  589MOL0     H79499   1.384   7.786   4.166  0.1031 -0.3031 -2.0974
  589MOL0     H79500   1.609   7.850   4.126 -0.2894 -0.4183 -1.1490
  589MOL0     H79501   2.804   9.087   3.438  0.0982  0.8090 -2.1215
  589MOL0     H79502   3.011   9.060   3.562  0.7359 -0.9456  0.0750
  589MOL0     H79503   3.596   8.899   3.361  1.7487 -2.0631 -0.4392
  589MOL0     H79504   3.776   8.943   3.486  1.7753 -1.0145  2.0086
  589MOL0     H79505   3.760   8.917   3.932 -1.3414  1.3277  0.8680
  589MOL0     H79506   3.899   9.025   3.909  0.2795 -1.2531  1.0785
  589MOL0     H79507   3.712   9.136   4.005  0.1700 -3.4073  0.2890
  589MOL0     H79508   3.610   9.088   3.886  1.0109 -3.9301  0.2954
  589MOL0     H79509   3.664   9.287   3.789 -0.8223 -1.7525  0.1256
  589MOL0     H79510   3.827   9.202   3.738  1.1353 -0.3234  1.1535
  589MOL0     H79511   3.882   9.430   3.848  2.2664 -0.3196 -0.0663
  589MOL0     H79512   3.942   9.272   3.912 -1.8083 -2.4259  0.3580
  589MOL0     H79513   3.695   9.427   4.215  2.1759  0.2958  1.0944
  589MOL0     H79514   3.548   8.853   3.846 -0.8502 -3.0478 -0.8249
  589MOL0     H79515   3.342   8.849   3.709  1.0649 -1.5937  1.4299
  590MOL0     O79516   9.802   8.374   9.550 -0.0988 -0.5788  0.4936
  590MOL0     C79517   9.863   8.484   9.515  0.5232 -0.0904 -0.0833
  590MOL0     O79518   9.811   8.612   9.516  0.1012  0.1417 -0.3209
  590MOL0     C79519   9.675   8.628   9.504  1.2676 -0.0175 -0.3344
  590MOL0     C79520   9.593   8.581   9.603  0.7733  0.1234 -0.4816
  590MOL0     C79521   9.452   8.624   9.605 -0.3561  0.1213  0.3191
  590MOL0     C79522   9.399   8.709   9.504 -0.3807 -0.3206 -0.0193
  590MOL0     O79523   9.266   8.755   9.489  0.4018  0.0954 -0.2047
  590MOL0     C79524   9.198   8.798   9.609 -1.0295 -0.2591  0.6755
  590MOL0     C79525   9.053   8.830   9.573  0.7121 -0.3583  0.1390
  590MOL0     C79526   9.040   8.978   9.525  0.7920  0.1078 -0.1072
  590MOL0     C79527   8.894   9.006   9.519  0.6143 -0.5775 -0.0418
  590MOL0     C79528   8.866   9.160   9.511  0.2745  0.7934  1.0235
  590MOL0     C79529   8.922   9.222   9.374 -1.3006 -0.6099  0.0013
  590MOL0     C79530   8.859   9.166   9.249 -0.4486  0.4014  0.7086
  590MOL0     C79531   8.711   9.182   9.233  0.7115 -0.1614  0.7286
  590MOL0     N79532   8.661   9.313   9.181  0.0762  0.1885 -0.8120
  590MOL0     C79533   8.689   9.354   9.054 -0.0621 -0.5614 -0.5484
  590MOL0     C79534   8.682   9.489   9.067 -0.0964 -0.1206  0.2233
  590MOL0     C79535   8.726   9.591   8.972  0.3483 -0.0054  0.4793
  590MOL0     C79536   8.614   9.681   8.920  1.3178 -0.3994  0.0115
  590MOL0     C79537   8.502   9.597   8.852  0.2750  0.0489  1.0355
  590MOL0     C79538   8.384   9.685   8.813  0.7178 -0.8357 -0.3903
  590MOL0     O79539   8.282   9.602   8.761  0.0282  0.1008  0.2062
  590MOL0     C79540   8.184   9.667   8.682  0.2460 -0.2962  0.0400
  590MOL0     C79541   8.050   9.632   8.697 -0.4842 -0.7432 -0.3813
  590MOL0     C79542   7.943   9.696   8.633 -0.4698 -0.8201  0.7023
  590MOL0     C79543   7.806   9.638   8.669 -0.1407 -0.2240  0.3824
  590MOL0     C79544   7.978   9.810   8.557 -0.2798  0.2825  0.1561
  590MOL0     C79545   7.882   9.899   8.506  0.0711  0.2322  0.5054
  590MOL0     O79546   7.901   9.949   8.379  0.0545  0.4608 -0.3273
  590MOL0     C79547   7.815  10.051   8.347 -0.2643  0.0715  1.1290
  590MOL0     C79548   7.687  10.017   8.301 -0.6937  1.1190  0.8071
  590MOL0     C79549   7.600  10.123   8.267  0.3824  0.4511  0.2421
  590MOL0     C79550   7.642  10.250   8.280 -0.0343  0.4608 -0.2281
  590MOL0     O79551   7.563  10.357   8.241  0.2930  0.5890  0.4877
  590MOL0     C79552   7.621  10.457   8.160  0.0670 -0.2682  0.5031
  590MOL0     C79553   7.609  10.580   8.242  0.4282  0.5561  0.1338
  590MOL0     C79554   7.697  10.695   8.194 -0.6671 -0.6552  0.3050
  590MOL0     C79555   7.715  10.823   8.279  0.3536  0.3397 -0.3318
  590MOL0     C79556   7.843  10.900   8.269 -0.0966 -0.0244 -0.2620
  590MOL0     C79557   7.842  10.988   8.145 -0.5481 -0.1928 -0.8665
  590MOL0     C79558   7.804  11.124   8.203 -0.1299  0.1804  0.6849
  590MOL0     C79559   7.769  11.203   8.080  0.2831  0.0138 -0.2042
  590MOL0    Cl79560   7.734  11.372   8.124 -0.0733  0.4488  0.1655
  590MOL0     C79561   7.767  10.280   8.320  0.1855  0.4366  0.0725
  590MOL0     C79562   7.850  10.177   8.356  0.4831 -0.7482  0.4935
  590MOL0     O79563   7.795   9.934   8.592  0.3629  0.4637  0.3532
  590MOL0     C79564   8.117   9.837   8.524  0.0000 -0.2027 -0.3361
  590MOL0     C79565   8.219   9.775   8.598  0.1344 -0.2375  0.5110
  590MOL0     N79566   8.623   9.522   9.187  0.7443  0.2576 -0.3700
  590MOL0     N79567   8.618   9.418   9.256  0.2599 -0.4629  1.1814
  590MOL0     C79568   9.486   8.746   9.393  0.4700  0.3648 -0.0024
  590MOL0     C79569   9.621   8.702   9.400  0.1379 -0.7314  0.6089
  590MOL0     C79570  10.012   8.471   9.493 -0.3327 -0.1719  0.1951
  590MOL0     C79571  10.081   8.350   9.468  0.6738  0.6881 -0.9662
  590MOL0     C79572  10.222   8.336   9.466  0.2930  0.2901 -0.4312
  590MOL0     C79573  10.298   8.444   9.489  0.6589 -0.7362  0.6841
  590MOL0     O79574  10.436   8.421   9.484  0.6249 -0.1198 -0.1858
  590MOL0     C79575  10.531   8.519   9.498 -0.3518 -0.4753 -0.1557
  590MOL0     C79576  10.672   8.461   9.477 -0.2390  0.0905 -0.0464
  590MOL0     C79577  10.679   8.395   9.336  0.1985 -0.9985 -0.1991
  590MOL0     C79578  10.824   8.371   9.312 -2.0814 -0.4298  0.3122
  590MOL0     C79579  10.856   8.313   9.182 -0.4528 -1.0953  0.1418
  590MOL0     C79580  10.899   8.283   9.073 -0.1562 -0.0429  0.7203
  590MOL0     C79581  10.238   8.571   9.519 -1.1185 -0.5191 -0.0985
  590MOL0     C79582  10.095   8.593   9.501 -0.6730  1.0162  0.9219
  590MOL0     H79583   9.633   8.511   9.677 -1.9952 -3.0248 -1.6945
  590MOL0     H79584   9.388   8.589   9.686 -1.1628 -0.6127 -0.6135
  590MOL0     H79585   9.203   8.715   9.680 -0.6437 -1.7873 -1.0612
  590MOL0     H79586   9.236   8.893   9.647 -1.1540  1.1834 -2.4945
  590MOL0     H79587   9.010   8.752   9.510  0.0332 -0.7628  1.0716
  590MOL0     H79588   9.000   8.822   9.668  1.0371  2.6176  0.6916
  590MOL0     H79589   9.092   9.045   9.594 -0.2302 -0.7652  1.5846
  590MOL0     H79590   9.087   9.001   9.429  1.8373  1.4696  0.6972
  590MOL0     H79591   8.843   8.956   9.436 -1.0534  1.4186 -0.3187
  590MOL0     H79592   8.842   8.959   9.603  0.2563 -2.9476 -1.5075
  590MOL0     H79593   8.760   9.188   9.517  0.4456  1.2121  2.1993
  590MOL0     H79594   8.892   9.210   9.604 -3.8099 -0.9037  3.3579
  590MOL0     H79595   8.901   9.329   9.383 -2.3171 -0.9316  2.3841
  590MOL0     H79596   9.031   9.220   9.376 -0.7518  6.0952  0.1074
  590MOL0     H79597   8.908   9.235   9.179 -0.7123  2.0124  2.0431
  590MOL0     H79598   8.899   9.065   9.241  0.9075  0.9179  0.6521
  590MOL0     H79599   8.658   9.155   9.324  1.0328  1.2346  1.3450
  590MOL0     H79600   8.672   9.099   9.172  0.1845 -0.1258  1.0163
  590MOL0     H79601   8.721   9.304   8.964 -2.4690 -1.0729 -1.1619
  590MOL0     H79602   8.794   9.660   9.024  1.5301 -1.5201  1.0171
  590MOL0     H79603   8.786   9.549   8.891 -2.1855 -3.3818  0.1472
  590MOL0     H79604   8.647   9.759   8.852 -2.4827  1.7238  0.3349
  590MOL0     H79605   8.567   9.721   9.010  0.9866  1.9848 -1.1437
  590MOL0     H79606   8.460   9.516   8.911  1.2672 -1.6897 -0.5469
  590MOL0     H79607   8.535   9.548   8.760 -1.8440  1.6487 -0.7095
  590MOL0     H79608   8.423   9.753   8.737  0.3658 -1.9531 -1.6109
  590MOL0     H79609   8.353   9.743   8.901  0.1471  0.8446 -1.6428
  590MOL0     H79610   8.022   9.549   8.761 -1.3377 -0.0997  0.0960
  590MOL0     H79611   7.730   9.674   8.600 -1.3767 -1.6480  0.9535
  590MOL0     H79612   7.797   9.529   8.662 -6.2207 -0.2784  3.0656
  590MOL0     H79613   7.784   9.659   8.774  0.5834  0.5385  0.3915
  590MOL0     H79614   7.679   9.911   8.284 -0.1272  1.4188 -1.7381
  590MOL0     H79615   7.499  10.112   8.230 -0.9628 -1.5621  3.9481
  590MOL0     H79616   7.727  10.436   8.149  0.0963 -0.1344  0.5294
  590MOL0     H79617   7.571  10.468   8.063 -0.0853  3.8161  0.8985
  590MOL0     H79618   7.504  10.609   8.235 -0.1719 -1.3127  0.8924
  590MOL0     H79619   7.627  10.558   8.348  0.0327 -0.0636  0.0772
  590MOL0     H79620   7.671  10.727   8.093  0.0244  0.5391  0.4873
  590MOL0     H79621   7.792  10.646   8.169 -0.5537  0.3191 -1.2863
  590MOL0     H79622   7.632  10.889   8.251  0.0908 -0.1826 -0.8126
  590MOL0     H79623   7.706  10.802   8.386  2.1493 -0.8147 -0.3669
  590MOL0     H79624   7.923  10.826   8.273 -0.6697 -0.6591 -0.3090
  590MOL0     H79625   7.854  10.959   8.361 -0.2023 -2.3606  1.3207
  590MOL0     H79626   7.943  10.988   8.104  0.8815 -0.6418  2.3723
  590MOL0     H79627   7.771  10.942   8.075 -0.1817 -1.0521 -0.6790
  590MOL0     H79628   7.868  11.166   8.281  0.4565 -2.3895  1.7096
  590MOL0     H79629   7.711  11.116   8.260  0.6038  1.3013  2.1199
  590MOL0     H79630   7.684  11.161   8.025  1.4305 -0.8547 -1.3954
  590MOL0     H79631   7.853  11.217   8.010  3.1141  1.2118  3.1634
  590MOL0     H79632   7.807  10.381   8.330  0.9159  0.2983 -1.2788
  590MOL0     H79633   7.946  10.208   8.397  0.1935  0.6281  0.1719
  590MOL0     H79634   8.140   9.913   8.450 -0.0923 -0.5814 -0.7551
  590MOL0     H79635   8.319   9.777   8.555 -0.9475  1.1540 -2.2577
  590MOL0     H79636   9.443   8.811   9.318 -0.6074  1.7023  1.7149
  590MOL0     H79637   9.677   8.722   9.308 -3.8435  2.9823 -1.4003
  590MOL0     H79638  10.012   8.267   9.452 -2.3756  2.5921  1.1330
  590MOL0     H79639  10.267   8.239   9.450  2.1451  0.5311  2.4663
  590MOL0     H79640  10.518   8.597   9.422 -2.3955 -1.0113 -0.4030
  590MOL0     H79641  10.515   8.552   9.601  1.8512  1.6174 -0.3804
  590MOL0     H79642  10.687   8.380   9.549 -0.2707 -0.9602 -1.1846
  590MOL0     H79643  10.755   8.530   9.491  0.3359 -0.0235 -2.4247
  590MOL0     H79644  10.646   8.466   9.259 -0.8192  0.1939  1.2767
  590MOL0     H79645  10.632   8.297   9.340  0.2778 -0.9752  2.0630
  590MOL0     H79646  10.863   8.303   9.389  1.5831 -0.8528 -1.6873
  590MOL0     H79647  10.883   8.463   9.321  0.6534 -2.2627  3.3676
  590MOL0     H79648  10.925   8.262   8.971  1.1220  3.4011  0.1846
  590MOL0     H79649  10.312   8.650   9.518 -0.3178 -1.1028  3.0381
  590MOL0     H79650  10.043   8.687   9.506  1.8745  2.4712  2.4712
  591MOL0     O79651   6.336   6.103   7.123 -0.1446 -0.2998  0.1469
  591MOL0     C79652   6.403   6.006   7.107  0.0357 -0.2294  0.6362
  591MOL0     O79653   6.360   5.888   7.055 -0.7864 -0.2082  0.1920
  591MOL0     C79654   6.233   5.877   7.009  0.2900 -0.6447  0.1628
  591MOL0     C79655   6.134   5.796   7.063  0.4183  0.1913 -0.1646
  591MOL0     C79656   6.008   5.789   6.985 -0.8634  0.1233 -0.8639
  591MOL0     C79657   5.984   5.858   6.872 -1.2398 -0.9402 -0.5157
  591MOL0     O79658   5.876   5.850   6.798  0.5127 -0.0447 -0.0209
  591MOL0     C79659   5.753   5.833   6.860  0.4649  0.3024  0.7802
  591MOL0     C79660   5.640   5.821   6.750 -0.4730 -0.4608 -0.0657
  591MOL0     C79661   5.510   5.834   6.817  0.6343  0.0819 -1.1460
  591MOL0     C79662   5.465   5.721   6.911  0.2461  0.1767  0.0340
  591MOL0     C79663   5.389   5.612   6.840  0.0938 -0.0160 -0.1015
  591MOL0     C79664   5.260   5.668   6.773 -0.2749  0.8482  0.3403
  591MOL0     C79665   5.170   5.547   6.734  0.4092 -0.7355 -0.6011
  591MOL0     C79666   5.054   5.603   6.671 -0.0896  0.7840 -0.1152
  591MOL0     N79667   4.971   5.491   6.617 -0.4132 -0.3223  0.6355
  591MOL0     C79668   5.006   5.417   6.510  0.1686  0.9855 -0.1602
  591MOL0     C79669   4.902   5.325   6.500 -0.1819  0.2374  1.4543
  591MOL0     C79670   4.883   5.208   6.407 -0.7062 -0.6262 -0.2331
  591MOL0     C79671   4.830   5.085   6.476 -0.6799  0.3117 -0.0756
  591MOL0     C79672   4.802   4.974   6.376  0.4621  0.0615 -0.5939
  591MOL0     C79673   4.716   4.858   6.432  1.1248 -0.0547 -0.9858
  591MOL0     O79674   4.587   4.910   6.468 -0.3636 -0.7562 -0.2294
  591MOL0     C79675   4.476   4.833   6.449 -0.7429 -0.6277  1.2453
  591MOL0     C79676   4.446   4.764   6.326  0.6212 -0.4202 -0.3822
  591MOL0     C79677   4.321   4.701   6.299  0.1072 -0.3803  0.1799
  591MOL0     C79678   4.313   4.641   6.151  0.2276 -0.0567  0.6435
  591MOL0     C79679   4.224   4.705   6.396  0.2142  0.6340 -0.9869
  591MOL0     C79680   4.105   4.628   6.400  0.7303  0.0440  0.9066
  591MOL0     O79681   4.003   4.664   6.491  0.1963 -0.3695 -0.0187
  591MOL0     C79682   3.875   4.612   6.496 -0.4873  0.9887  0.2633
  591MOL0     C79683   3.776   4.700   6.544  0.2834 -0.3031  0.4066
  591MOL0     C79684   3.638   4.660   6.543  0.4360  0.4514  0.2288
  591MOL0     C79685   3.607   4.526   6.516  0.4430 -0.8071  0.0142
  591MOL0     O79686   3.475   4.501   6.521  0.8969 -0.1149 -0.0626
  591MOL0     C79687   3.428   4.365   6.504  0.0193 -0.4139  0.6228
  591MOL0     C79688   3.401   4.340   6.359 -0.4824 -0.2764  0.4378
  591MOL0     C79689   3.333   4.458   6.293 -0.9776 -0.3261  0.1899
  591MOL0     C79690   3.254   4.421   6.160 -0.4868  0.2463  0.0402
  591MOL0     C79691   3.343   4.367   6.044  0.3497  0.0191 -0.3550
  591MOL0     C79692   3.279   4.325   5.910  0.3168 -0.2060 -1.3605
  591MOL0     C79693   3.161   4.413   5.865  0.1601 -0.5756  0.4081
  591MOL0     C79694   3.108   4.364   5.727  0.0353 -0.0739 -0.6141
  591MOL0    Cl79695   3.230   4.399   5.597 -0.3813 -0.0696 -0.2386
  591MOL0     C79696   3.708   4.437   6.479 -0.8694  0.0007  0.2394
  591MOL0     C79697   3.844   4.472   6.472 -0.1081  0.1291 -0.8821
  591MOL0     O79698   4.096   4.535   6.319  0.4849 -0.5969  0.4003
  591MOL0     C79699   4.243   4.796   6.504 -0.0531  0.7916 -0.1525
  591MOL0     C79700   4.373   4.852   6.542  0.1535 -0.1063  0.0808
  591MOL0     N79701   4.802   5.365   6.590  0.4118 -0.3171  0.1766
  591MOL0     N79702   4.843   5.462   6.671  0.1077 -0.4866 -0.7117
  591MOL0     C79703   6.088   5.935   6.821  0.7387  0.8250 -0.3934
  591MOL0     C79704   6.209   5.938   6.889 -0.5347  0.7228  0.6560
  591MOL0     C79705   6.546   6.009   7.155  0.5238 -0.8713 -1.1911
  591MOL0     C79706   6.647   5.937   7.093 -0.7449  0.2299 -0.0617
  591MOL0     C79707   6.783   5.941   7.133  0.0741 -0.5508  0.8987
  591MOL0     C79708   6.819   6.026   7.240 -0.4193 -0.0009 -0.3734
  591MOL0     O79709   6.954   6.049   7.267  0.1703 -0.1686 -0.8167
  591MOL0     C79710   7.063   5.981   7.201 -0.2235  0.3925  0.0675
  591MOL0     C79711   7.191   6.019   7.266  0.4903 -0.8065  0.6727
  591MOL0     C79712   7.216   5.967   7.408 -0.0531  0.3354 -0.1524
  591MOL0     C79713   7.331   6.041   7.476  0.7794  0.5713  0.1382
  591MOL0     C79714   7.450   6.054   7.385 -0.0542  0.0519 -0.3619
  591MOL0     C79715   7.556   6.041   7.322  0.3527  1.4721 -0.0630
  591MOL0     C79716   6.724   6.112   7.299 -0.7852  0.1253  0.5635
  591MOL0     C79717   6.590   6.104   7.258  0.1783 -0.5400 -0.2743
  591MOL0     H79718   6.153   5.732   7.149 -1.6435 -0.8319 -0.4141
  591MOL0     H79719   5.929   5.730   7.032  0.9315 -3.8264 -2.3648
  591MOL0     H79720   5.745   5.745   6.923  1.4146 -1.5270 -1.5227
  591MOL0     H79721   5.736   5.920   6.924  0.1995 -1.1956  2.8382
  591MOL0     H79722   5.643   5.904   6.678  1.6127  1.4304  2.0530
  591MOL0     H79723   5.646   5.732   6.686 -1.8285  0.1726 -1.1360
  591MOL0     H79724   5.507   5.928   6.873 -2.9201  0.0708 -1.0923
  591MOL0     H79725   5.434   5.855   6.742  0.7679  2.7669 -0.6281
  591MOL0     H79726   5.551   5.678   6.962 -0.5405 -1.8605 -0.2436
  591MOL0     H79727   5.398   5.761   6.989 -1.1234 -0.2607 -0.8729
  591MOL0     H79728   5.445   5.561   6.762 -1.1921 -3.1030  0.8422
  591MOL0     H79729   5.353   5.539   6.914 -0.8411 -0.5904 -1.0995
  591MOL0     H79730   5.201   5.733   6.838 -0.9057  0.7526 -0.1292
  591MOL0     H79731   5.281   5.734   6.687 -1.5814  0.3066 -0.4189
  591MOL0     H79732   5.232   5.486   6.668  2.0571 -0.7204  0.8479
  591MOL0     H79733   5.149   5.484   6.821 -1.3683  0.1344 -0.3686
  591MOL0     H79734   5.092   5.671   6.593  0.4635  0.8545  0.2138
  591MOL0     H79735   4.998   5.662   6.744  1.2872  0.8036  0.9637
  591MOL0     H79736   5.101   5.421   6.458 -0.6449 -0.2976 -1.8523
  591MOL0     H79737   4.798   5.242   6.348 -0.4098  0.2787 -0.1455
  591MOL0     H79738   4.972   5.190   6.347 -0.8887 -2.0829 -0.1181
  591MOL0     H79739   4.735   5.096   6.531 -1.1462 -1.8677 -0.3526
  591MOL0     H79740   4.912   5.047   6.537 -1.8114 -1.8442  0.2145
  591MOL0     H79741   4.894   4.928   6.339  2.2372  0.1735  3.1822
  591MOL0     H79742   4.743   5.018   6.294 -0.2399  0.6014  0.1794
  591MOL0     H79743   4.774   4.816   6.515 -2.0801 -0.3056  1.3104
  591MOL0     H79744   4.705   4.773   6.364 -0.2756  0.6725 -1.7062
  591MOL0     H79745   4.517   4.763   6.245 -1.8989 -0.0962 -2.7329
  591MOL0     H79746   4.407   4.648   6.095 -0.3269  4.4090 -0.0997
  591MOL0     H79747   4.285   4.536   6.164  2.2133 -0.6810  0.2288
  591MOL0     H79748   4.228   4.683   6.098 -0.9899 -0.1860  2.4065
  591MOL0     H79749   3.796   4.802   6.574  2.2968 -1.0956  2.0343
  591MOL0     H79750   3.567   4.737   6.571 -1.4720 -1.7061  1.7376
  591MOL0     H79751   3.497   4.291   6.547  0.0001  0.5569  2.4664
  591MOL0     H79752   3.334   4.358   6.558 -1.1123  3.0047 -0.6552
  591MOL0     H79753   3.496   4.322   6.308 -0.0887 -0.1359  1.1145
  591MOL0     H79754   3.335   4.253   6.353  0.9355 -1.3356 -1.0615
  591MOL0     H79755   3.423   4.515   6.266 -1.3796 -0.1513 -0.8057
  591MOL0     H79756   3.268   4.513   6.361 -0.3309 -0.5698  1.0304
  591MOL0     H79757   3.175   4.351   6.188 -2.6865  0.8553 -3.9176
  591MOL0     H79758   3.209   4.507   6.110 -0.5382 -0.5532 -1.3515
  591MOL0     H79759   3.402   4.283   6.080  0.1256 -0.8288 -1.8748
  591MOL0     H79760   3.415   4.443   6.011  0.1880 -0.3816 -1.7239
  591MOL0     H79761   3.364   4.318   5.840  2.7488 -1.5355  1.5107
  591MOL0     H79762   3.239   4.223   5.913  0.6339 -0.3724 -2.2199
  591MOL0     H79763   3.197   4.513   5.841  1.2705 -0.5584  1.9816
  591MOL0     H79764   3.076   4.422   5.933  0.5243  0.6672  0.7225
  591MOL0     H79765   3.014   4.416   5.704  0.0194 -0.7094 -2.0897
  591MOL0     H79766   3.065   4.264   5.736 -1.9994  0.9310  1.9251
  591MOL0     H79767   3.682   4.332   6.463  0.5073 -0.3232 -0.0200
  591MOL0     H79768   3.914   4.405   6.424 -3.5329 -2.7652 -2.3068
  591MOL0     H79769   4.155   4.822   6.563 -0.2221 -0.0834 -0.0040
  591MOL0     H79770   4.400   4.911   6.628 -0.8805 -0.6882  0.8322
  591MOL0     H79771   6.085   5.976   6.720  0.6053  0.1667 -0.6604
  591MOL0     H79772   6.284   6.004   6.845 -0.2745  0.2905  0.4370
  591MOL0     H79773   6.625   5.879   7.004  0.7153  1.1085 -1.0333
  591MOL0     H79774   6.858   5.886   7.076 -1.2874 -1.9276  0.3843
  591MOL0     H79775   7.051   5.874   7.215  0.8663  0.1870 -0.4342
  591MOL0     H79776   7.062   6.012   7.096  0.5874 -0.0502 -0.0773
  591MOL0     H79777   7.215   6.126   7.266  1.9582 -1.0870 -1.4600
  591MOL0     H79778   7.271   5.989   7.198  0.7384 -0.8504  0.9808
  591MOL0     H79779   7.235   5.859   7.407 -1.8114 -0.0534  1.1586
  591MOL0     H79780   7.128   5.981   7.472 -0.1865 -0.6638 -0.1018
  591MOL0     H79781   7.358   6.001   7.574  1.3204 -1.8627 -0.9281
  591MOL0     H79782   7.300   6.144   7.497  1.3730  0.2846  2.6734
  591MOL0     H79783   7.650   6.032   7.270 -0.2954  2.5385 -1.4814
  591MOL0     H79784   6.765   6.184   7.369  4.6690 -1.0909 -0.8928
  591MOL0     H79785   6.515   6.173   7.296 -1.1287 -1.1464 -1.6374
  592MOL0     O79786   4.456   3.227   2.341 -0.5885  0.4845  0.0608
  592MOL0     C79787   4.554   3.166   2.303  0.2536 -0.8379  0.1601
  592MOL0     O79788   4.563   3.089   2.195  0.5332  0.3908  0.0601
  592MOL0     C79789   4.447   3.048   2.133 -0.2226 -1.2115  0.3664
  592MOL0     C79790   4.446   3.044   1.991  0.4688 -0.7754  0.3200
  592MOL0     C79791   4.341   3.003   1.919 -0.2026 -0.2386  0.2030
  592MOL0     C79792   4.216   2.966   1.990 -0.2426 -0.0097 -0.4117
  592MOL0     O79793   4.116   2.918   1.908  0.7525 -0.4079  0.0496
  592MOL0     C79794   3.996   2.881   1.969 -0.5442  0.5408 -0.1266
  592MOL0     C79795   3.883   2.881   1.861  0.4741 -0.6500 -1.4088
  592MOL0     C79796   3.752   2.884   1.937  0.5656  0.5857  0.1900
  592MOL0     C79797   3.633   2.918   1.852  0.5035 -0.0857  0.2828
  592MOL0     C79798   3.508   2.934   1.934  0.4364  1.1117  0.4042
  592MOL0     C79799   3.381   2.937   1.843  0.1943  0.5159  0.9556
  592MOL0     C79800   3.261   2.983   1.911  0.1534  0.0447 -0.0633
  592MOL0     C79801   3.199   2.879   2.007  0.5244  0.0177 -0.5453
  592MOL0     N79802   3.071   2.927   2.065  0.3202  0.1824  0.2740
  592MOL0     C79803   3.064   2.976   2.193  0.0518 -0.4158 -0.3998
  592MOL0     C79804   2.937   2.991   2.213  0.1577  0.4698  0.0788
  592MOL0     C79805   2.865   3.010   2.350  0.2073 -0.4988 -0.4530
  592MOL0     C79806   2.732   2.935   2.371 -0.1942 -0.1338  0.4024
  592MOL0     C79807   2.687   2.924   2.521  0.2804  1.6088  0.2598
  592MOL0     C79808   2.535   2.946   2.549 -0.6822  0.1565 -0.2091
  592MOL0     O79809   2.508   2.945   2.686 -0.6926  0.3442  0.3985
  592MOL0     C79810   2.375   2.955   2.728  0.2548 -0.3620  0.7998
  592MOL0     C79811   2.343   2.928   2.865 -0.5517  0.2571 -0.0841
  592MOL0     C79812   2.210   2.922   2.916  0.2078 -1.3645  0.0145
  592MOL0     C79813   2.194   2.898   3.060 -0.4006 -0.0403 -0.8562
  592MOL0     C79814   2.106   2.946   2.823 -0.0055 -0.0616  0.0539
  592MOL0     C79815   1.951   2.941   2.855 -0.2238  0.3074 -0.2120
  592MOL0     O79816   1.862   2.914   2.748  1.0170  0.2457  0.0446
  592MOL0     C79817   1.735   2.889   2.777  1.0263  0.0777  0.4730
  592MOL0     C79818   1.666   2.795   2.710 -0.1601  0.0674  0.5758
  592MOL0     C79819   1.527   2.776   2.714  0.8708 -0.5984  0.5782
  592MOL0     C79820   1.452   2.863   2.798 -0.5984  0.1673 -0.6429
  592MOL0     O79821   1.316   2.845   2.815 -0.6222 -0.7568 -0.3309
  592MOL0     C79822   1.259   2.720   2.773 -0.0187 -0.5043  0.1012
  592MOL0     C79823   1.104   2.727   2.813 -1.0440  0.7084  0.4970
  592MOL0     C79824   1.099   2.712   2.967  0.1504  0.0665  0.2556
  592MOL0     C79825   0.956   2.734   2.997 -0.7310 -1.1433 -0.1737
  592MOL0     C79826   0.859   2.627   2.947 -0.4419  0.8650  0.7036
  592MOL0     C79827   0.718   2.630   3.016 -0.1138  0.1048 -0.1710
  592MOL0     C79828   0.606   2.687   2.921 -0.0465  0.0938  0.2850
  592MOL0     C79829   0.538   2.589   2.829  0.1753 -0.6498 -0.4107
  592MOL0    Cl79830   0.462   2.461   2.929  0.4080  0.2738  0.1651
  592MOL0     C79831   1.520   2.956   2.878 -0.7402 -0.4969 -0.6365
  592MOL0     C79832   1.662   2.971   2.859  0.2439 -0.0968  0.6881
  592MOL0     O79833   1.929   2.952   2.976 -0.0876  1.0216 -0.2809
  592MOL0     C79834   2.137   2.982   2.689  0.4796 -0.3261 -0.6064
  592MOL0     C79835   2.270   2.998   2.646 -0.5896  0.3188 -0.1750
  592MOL0     N79836   2.872   2.986   2.090 -0.5097  0.1882  0.6611
  592MOL0     N79837   2.947   2.932   2.003  0.0241 -0.9971 -0.2289
  592MOL0     C79838   4.222   2.963   2.130  0.2948  0.3077  0.5829
  592MOL0     C79839   4.327   3.011   2.205 -0.7546  0.1878 -0.3211
  592MOL0     C79840   4.679   3.170   2.386  1.0249  0.6853 -0.5920
  592MOL0     C79841   4.685   3.234   2.508  0.1856  0.5774 -0.1656
  592MOL0     C79842   4.799   3.227   2.585  0.1244 -0.6383 -0.5090
  592MOL0     C79843   4.915   3.159   2.537  0.3414  0.2959 -0.5831
  592MOL0     O79844   5.038   3.147   2.601 -0.6137 -0.6702  0.4364
  592MOL0     C79845   5.068   3.242   2.709 -1.0036  0.2222 -0.1811
  592MOL0     C79846   5.200   3.197   2.762 -0.6174  0.3116 -0.0871
  592MOL0     C79847   5.305   3.200   2.648  0.0582  0.6660 -0.0144
  592MOL0     C79848   5.439   3.148   2.706 -0.4878  0.8153  0.4788
  592MOL0     C79849   5.517   3.092   2.596  0.0103  0.6517  0.5915
  592MOL0     C79850   5.584   3.047   2.506 -0.1876  1.0053 -0.4573
  592MOL0     C79851   4.912   3.103   2.408 -0.1719 -0.3633 -0.7112
  592MOL0     C79852   4.790   3.106   2.338 -1.1189  0.1167 -0.2767
  592MOL0     H79853   4.528   3.079   1.930  1.4294 -1.3612  1.2184
  592MOL0     H79854   4.347   3.012   1.811  3.2681 -0.3417  0.2827
  592MOL0     H79855   4.005   2.784   2.018 -1.8791 -0.4260 -1.7270
  592MOL0     H79856   3.978   2.949   2.053 -0.2517 -0.8678  1.1246
  592MOL0     H79857   3.888   2.975   1.804  2.0485  0.7871  0.9387
  592MOL0     H79858   3.892   2.791   1.800  0.3672 -1.3980 -0.3487
  592MOL0     H79859   3.743   2.784   1.980  0.5715 -1.3254 -3.8032
  592MOL0     H79860   3.761   2.953   2.021 -0.5021  0.5559  0.3336
  592MOL0     H79861   3.644   3.002   1.782  1.4750 -1.1661 -0.9096
  592MOL0     H79862   3.618   2.830   1.789 -0.9990 -0.9476  1.7571
  592MOL0     H79863   3.501   2.848   2.001  2.7421  1.1726  0.7878
  592MOL0     H79864   3.513   3.025   1.994 -1.6747 -0.0961  2.5671
  592MOL0     H79865   3.404   2.996   1.754  0.4861 -1.2875 -0.2002
  592MOL0     H79866   3.359   2.842   1.794  0.7843  1.8866 -2.1705
  592MOL0     H79867   3.277   3.080   1.960 -0.0362 -0.0629  0.2155
  592MOL0     H79868   3.182   3.000   1.836 -0.4166 -2.0876 -0.0122
  592MOL0     H79869   3.275   2.845   2.077  1.0926  1.4982 -0.4090
  592MOL0     H79870   3.181   2.791   1.944 -1.0285 -0.0219 -0.1018
  592MOL0     H79871   3.147   2.997   2.259 -0.8610  0.2229  0.5748
  592MOL0     H79872   2.928   2.983   2.435 -1.7302 -0.6338  1.0051
  592MOL0     H79873   2.854   3.119   2.355  1.2231 -0.4396  1.0841
  592MOL0     H79874   2.751   2.834   2.333 -1.7171 -0.6969  1.0798
  592MOL0     H79875   2.650   2.970   2.309  0.6606 -1.2208 -1.4263
  592MOL0     H79876   2.749   2.981   2.590  1.8370  1.2259 -0.7874
  592MOL0     H79877   2.702   2.817   2.542  2.7113  1.2612 -2.6287
  592MOL0     H79878   2.477   2.874   2.489 -0.2726 -0.0955 -0.3068
  592MOL0     H79879   2.514   3.047   2.512  1.7790  0.5214 -0.7981
  592MOL0     H79880   2.431   2.904   2.924  0.5756 -1.3118 -2.2443
  592MOL0     H79881   2.143   2.981   3.110  1.6058  2.3780 -2.5551
  592MOL0     H79882   2.137   2.805   3.067 -0.7725  0.2749  3.8713
  592MOL0     H79883   2.293   2.888   3.106 -0.5561 -3.4196 -1.0708
  592MOL0     H79884   1.732   2.736   2.646 -3.0711 -2.3045 -0.4440
  592MOL0     H79885   1.481   2.698   2.655 -0.1142 -1.1099  1.9677
  592MOL0     H79886   1.273   2.699   2.667 -0.4446 -2.2291  0.3568
  592MOL0     H79887   1.296   2.631   2.825 -1.8840 -1.8912 -0.8429
  592MOL0     H79888   1.056   2.810   2.760 -0.6497 -0.0371 -1.0977
  592MOL0     H79889   1.070   2.636   2.762  1.2530  0.7549 -1.3195
  592MOL0     H79890   1.149   2.797   3.014  2.3732 -0.9809 -0.0453
  592MOL0     H79891   1.142   2.615   2.996  1.5134  0.0456 -1.6277
  592MOL0     H79892   0.945   2.736   3.105 -3.5626  4.3461 -0.1811
  592MOL0     H79893   0.915   2.831   2.967 -0.7608 -1.1879 -0.2794
  592MOL0     H79894   0.900   2.528   2.969 -4.8077 -1.8640 -1.9413
  592MOL0     H79895   0.836   2.623   2.841 -1.4754 -0.5754  0.9450
  592MOL0     H79896   0.687   2.533   3.055 -0.3490  1.0114  2.0898
  592MOL0     H79897   0.725   2.690   3.107 -2.9966  1.7369 -0.8836
  592MOL0     H79898   0.654   2.766   2.862  1.4496  1.1241  2.7390
  592MOL0     H79899   0.522   2.728   2.977 -0.5356  0.3556 -0.6138
  592MOL0     H79900   0.602   2.544   2.752  0.8703  0.1166 -0.2923
  592MOL0     H79901   0.451   2.633   2.779 -2.1677 -2.9726  1.3364
  592MOL0     H79902   1.464   3.014   2.951 -2.8415 -0.2203 -2.3747
  592MOL0     H79903   1.717   3.047   2.914  1.4275 -1.6027  1.6602
  592MOL0     H79904   2.064   3.011   2.615  1.8281 -2.2813 -2.8858
  592MOL0     H79905   2.268   3.036   2.545  0.3949  1.6914  0.2934
  592MOL0     H79906   4.134   2.928   2.183 -1.1080  0.7669 -1.3277
  592MOL0     H79907   4.325   3.007   2.313 -0.0216  1.2045 -0.2551
  592MOL0     H79908   4.594   3.281   2.544 -0.5791 -0.4191 -0.7874
  592MOL0     H79909   4.801   3.282   2.678  0.6251 -1.1123 -0.2334
  592MOL0     H79910   5.071   3.335   2.652  1.1625 -0.5893 -1.5381
  592MOL0     H79911   4.990   3.259   2.783  0.5050  2.0294  1.0989
  592MOL0     H79912   5.187   3.102   2.814  0.9951  0.4101  0.5501
  592MOL0     H79913   5.245   3.267   2.834  3.2346  0.9160 -2.7285
  592MOL0     H79914   5.317   3.299   2.602  3.7410 -0.8842 -2.9335
  592MOL0     H79915   5.275   3.130   2.569 -1.7284  0.9485  0.3673
  592MOL0     H79916   5.425   3.062   2.772 -0.6113  0.7312  0.3434
  592MOL0     H79917   5.494   3.230   2.753 -0.9489  0.7985  1.0450
  592MOL0     H79918   5.653   3.004   2.436  0.5115 -1.3302  1.5502
  592MOL0     H79919   4.997   3.050   2.367  0.8362  0.2451  0.5284
  592MOL0     H79920   4.782   3.065   2.238 -3.2157  2.1860 -1.0582
  593MOL0     O79921  10.287   5.103   8.641 -0.9764  0.3390  0.4472
  593MOL0     C79922  10.341   5.159   8.734  0.5431 -0.7648 -0.0391
  593MOL0     O79923  10.312   5.139   8.860  0.5942 -0.2984 -0.5847
  593MOL0     C79924  10.192   5.074   8.902  0.2210  0.3712  0.0407
  593MOL0     C79925  10.063   5.073   8.835 -0.9750  0.7368  0.2415
  593MOL0     C79926   9.965   5.003   8.886  1.0102 -0.1758 -0.2905
  593MOL0     C79927   9.974   4.939   9.012  1.1114 -0.2939  0.2327
  593MOL0     O79928   9.853   4.892   9.066  0.0782  0.5025 -0.2416
  593MOL0     C79929   9.852   4.766   9.129 -0.2747  0.2634  0.3350
  593MOL0     C79930   9.722   4.747   9.206 -0.3126 -1.0853 -0.5406
  593MOL0     C79931   9.684   4.606   9.238 -1.0202 -0.1642 -0.1390
  593MOL0     C79932   9.544   4.601   9.300  0.8788 -0.2309  0.0176
  593MOL0     C79933   9.528   4.495   9.411  0.1574 -0.5366  0.8950
  593MOL0     C79934   9.377   4.471   9.451  0.1034  0.4937 -0.7301
  593MOL0     C79935   9.352   4.351   9.535 -0.9173  0.4339 -0.1252
  593MOL0     C79936   9.205   4.354   9.584 -0.4390 -0.0401 -0.3525
  593MOL0     N79937   9.109   4.328   9.482  1.0073 -0.2968  1.0564
  593MOL0     C79938   9.095   4.212   9.403  0.4975  0.0984 -0.1573
  593MOL0     C79939   8.989   4.224   9.325  1.0063 -0.1342 -0.6836
  593MOL0     C79940   8.943   4.129   9.218 -0.4977  0.5729  0.6761
  593MOL0     C79941   8.835   4.037   9.284 -0.1832 -0.0985 -0.4780
  593MOL0     C79942   8.762   3.966   9.176 -1.2860  0.4199 -0.1046
  593MOL0     C79943   8.704   3.849   9.254  0.2404 -0.1131 -0.1941
  593MOL0     O79944   8.591   3.878   9.341 -0.2371  0.2356  0.0132
  593MOL0     C79945   8.467   3.895   9.292 -0.0605  1.1808  1.0243
  593MOL0     C79946   8.428   3.892   9.154  0.1081  0.7476  0.4764
  593MOL0     C79947   8.290   3.895   9.117 -0.6933  0.0093  0.7156
  593MOL0     C79948   8.249   3.886   8.978  0.5459  0.1624  0.2020
  593MOL0     C79949   8.195   3.904   9.221  0.5859 -0.3334  0.0416
  593MOL0     C79950   8.056   3.909   9.203  0.2281  0.2956  0.6016
  593MOL0     O79951   8.000   3.814   9.119 -0.2159  0.1463 -0.1023
  593MOL0     C79952   7.867   3.803   9.137 -0.2473 -0.0789  0.2861
  593MOL0     C79953   7.818   3.717   9.227  0.0728 -0.2703  0.2111
  593MOL0     C79954   7.681   3.694   9.241  0.8422  0.6005 -1.0409
  593MOL0     C79955   7.587   3.747   9.157 -0.6513  0.1389  0.3549
  593MOL0     O79956   7.451   3.720   9.180 -1.6927  0.0280  0.0429
  593MOL0     C79957   7.356   3.742   9.093  0.4168 -0.2408 -0.5479
  593MOL0     C79958   7.337   3.616   9.001  0.5864 -0.0638  0.1019
  593MOL0     C79959   7.444   3.595   8.897  0.1003 -0.7917 -0.6294
  593MOL0     C79960   7.443   3.684   8.776 -0.5820 -0.7171  0.5039
  593MOL0     C79961   7.566   3.669   8.683  0.8920 -0.3111  0.1176
  593MOL0     C79962   7.696   3.724   8.744  0.2343  0.2043 -0.4605
  593MOL0     C79963   7.801   3.764   8.639 -0.4755  0.1868 -0.1877
  593MOL0     C79964   7.929   3.824   8.702  1.3872 -0.1576 -0.7700
  593MOL0    Cl79965   7.901   4.006   8.736  0.1761  0.2380 -0.1404
  593MOL0     C79966   7.634   3.858   9.075 -0.0487  0.6383 -1.2374
  593MOL0     C79967   7.774   3.870   9.055 -0.9652 -0.0819 -0.5326
  593MOL0     O79968   7.993   4.003   9.257 -0.3757  0.2450 -1.3091
  593MOL0     C79969   8.234   3.917   9.351 -0.2406 -0.1971  0.7987
  593MOL0     C79970   8.366   3.894   9.392 -0.5304  0.2812 -0.5385
  593MOL0     N79971   8.920   4.337   9.358 -0.1281  0.1291 -0.6586
  593MOL0     N79972   9.000   4.404   9.438 -0.2066  0.4089  0.4621
  593MOL0     C79973  10.095   4.932   9.070 -0.5155  0.7360  0.1925
  593MOL0     C79974  10.206   4.996   9.020 -0.6172  0.2829 -0.0344
  593MOL0     C79975  10.445   5.255   8.720 -0.1662  1.0215 -0.1482
  593MOL0     C79976  10.487   5.274   8.587  0.3559 -0.3861 -1.5790
  593MOL0     C79977  10.591   5.358   8.564 -0.0753  0.5432 -0.2691
  593MOL0     C79978  10.667   5.414   8.657  0.1327  0.3654 -0.3186
  593MOL0     O79979  10.776   5.497   8.632  0.4492 -0.7079  0.2818
  593MOL0     C79980  10.823   5.531   8.495  0.1720  0.4987  0.0056
  593MOL0     C79981  10.963   5.594   8.502 -0.1925  0.3541 -0.2479
  593MOL0     C79982  11.009   5.670   8.381 -0.8126  0.3124  0.2719
  593MOL0     C79983  11.149   5.641   8.354 -0.3704 -0.5408  0.4407
  593MOL0     C79984  11.193   5.725   8.247  0.9363  0.2204 -0.5338
  593MOL0     C79985  11.241   5.767   8.146  1.2213  0.2210 -0.0853
  593MOL0     C79986  10.630   5.395   8.791  0.1313 -0.1097  0.4557
  593MOL0     C79987  10.513   5.322   8.823 -0.2148  0.7288  0.0614
  593MOL0     H79988  10.040   5.120   8.740  0.0596 -0.9373 -0.8986
  593MOL0     H79989   9.873   4.991   8.829  1.1883 -1.1668 -0.3772
  593MOL0     H79990   9.835   4.695   9.047  0.6762  1.2865 -0.7993
  593MOL0     H79991   9.937   4.750   9.195  2.2216 -0.4229 -2.8141
  593MOL0     H79992   9.739   4.796   9.302 -0.4657 -0.3437 -0.8824
  593MOL0     H79993   9.631   4.791   9.163 -1.1558 -1.2130  1.0672
  593MOL0     H79994   9.685   4.544   9.147  0.4331 -1.1644  0.5254
  593MOL0     H79995   9.754   4.568   9.313 -1.4340  2.0244  1.4410
  593MOL0     H79996   9.520   4.700   9.341  2.0593  0.4140 -0.7921
  593MOL0     H79997   9.473   4.575   9.221  1.9681 -0.4564 -0.8969
  593MOL0     H79998   9.579   4.406   9.372  4.6387  1.3636  1.8067
  593MOL0     H79999   9.577   4.532   9.501 -0.0923  0.5306  0.6014
  593MOL0     H80000   9.337   4.557   9.505 -3.5996 -2.0452  1.0631
  593MOL0     H80001   9.320   4.452   9.360 -2.1348 -0.1429  0.7324
  593MOL0     H80002   9.374   4.260   9.479 -1.1112  0.6397 -0.5416
  593MOL0     H80003   9.420   4.349   9.621  0.7067  1.0418 -1.3530
  593MOL0     H80004   9.182   4.448   9.635 -0.4071 -1.2674  2.1069
  593MOL0     H80005   9.192   4.276   9.660  1.2517  0.0129  0.0341
  593MOL0     H80006   9.174   4.138   9.397 -0.4315 -0.9638  0.2081
  593MOL0     H80007   8.899   4.181   9.132  0.8596  0.9426  0.1717
  593MOL0     H80008   9.031   4.072   9.189 -0.3977  0.2000  1.6844
  593MOL0     H80009   8.760   4.091   9.342 -1.0715 -1.2913 -0.4906
  593MOL0     H80010   8.875   3.973   9.363 -1.6189  1.0355  1.2280
  593MOL0     H80011   8.814   3.934   9.085  0.0012  1.8917  0.0863
  593MOL0     H80012   8.688   4.033   9.131  0.9179  2.0996 -1.4555
  593MOL0     H80013   8.778   3.789   9.309  1.7507  1.6553 -0.2242
  593MOL0     H80014   8.666   3.781   9.177  0.3353  0.4883 -0.7777
  593MOL0     H80015   8.504   3.886   9.077 -0.4376 -1.1815  0.0297
  593MOL0     H80016   8.334   3.890   8.909  0.6231 -1.3869  0.1800
  593MOL0     H80017   8.204   3.788   8.959  1.0714  0.1143 -0.8605
  593MOL0     H80018   8.190   3.976   8.960  1.3929  0.6260 -0.3370
  593MOL0     H80019   7.892   3.668   9.290  0.2903  0.2246  0.3427
  593MOL0     H80020   7.647   3.626   9.318  0.9618  2.1623  0.4325
  593MOL0     H80021   7.265   3.768   9.148  1.9775  5.1533  0.1171
  593MOL0     H80022   7.377   3.827   9.028  2.6461 -0.3335 -0.0562
  593MOL0     H80023   7.328   3.528   9.065  1.3391  1.3969  2.3448
  593MOL0     H80024   7.245   3.630   8.944  1.1616 -0.0694 -0.8625
  593MOL0     H80025   7.427   3.491   8.864 -2.1531 -0.5266 -0.4642
  593MOL0     H80026   7.544   3.605   8.939  0.0622 -0.1461 -0.6825
  593MOL0     H80027   7.354   3.650   8.723  0.1921 -3.1246  0.6464
  593MOL0     H80028   7.438   3.789   8.808 -0.7388 -0.0801 -1.4610
  593MOL0     H80029   7.549   3.736   8.598  1.1822  0.6380  0.7979
  593MOL0     H80030   7.564   3.562   8.658 -0.0362 -1.0196  2.9307
  593MOL0     H80031   7.677   3.817   8.799  1.9046 -1.1551  2.6937
  593MOL0     H80032   7.731   3.642   8.807 -4.3408 -0.5203  1.6277
  593MOL0     H80033   7.749   3.823   8.563 -0.8620 -1.6591 -1.4218
  593MOL0     H80034   7.828   3.666   8.599  0.7880 -0.2303  1.5242
  593MOL0     H80035   8.011   3.804   8.632  0.0974 -1.2858 -2.0099
  593MOL0     H80036   7.947   3.776   8.799  0.8643  2.1198  0.5461
  593MOL0     H80037   7.567   3.926   9.023 -0.4282 -1.1910 -3.2779
  593MOL0     H80038   7.807   3.947   8.986  1.2528 -0.8229 -0.3725
  593MOL0     H80039   8.150   3.924   9.420 -2.0586 -1.5872 -1.1531
  593MOL0     H80040   8.401   3.894   9.495  0.0606  0.6540 -0.7387
  593MOL0     H80041  10.105   4.886   9.168  0.7537 -0.1826 -0.3301
  593MOL0     H80042  10.306   4.988   9.061 -0.6357 -0.7716 -0.1733
  593MOL0     H80043  10.436   5.224   8.506 -0.0655 -1.7391 -0.5125
  593MOL0     H80044  10.618   5.369   8.459 -0.7587  3.0191 -0.2492
  593MOL0     H80045  10.836   5.434   8.447  1.8900 -0.3623  2.0524
  593MOL0     H80046  10.749   5.585   8.436 -2.7267 -1.4123  1.6541
  593MOL0     H80047  11.012   5.497   8.510 -2.9059 -0.9001  3.9209
  593MOL0     H80048  10.980   5.654   8.592  0.7117 -1.0413  0.5343
  593MOL0     H80049  11.009   5.778   8.400  2.3376  0.7467 -1.4273
  593MOL0     H80050  10.948   5.652   8.291  1.9239 -0.3211 -1.5873
  593MOL0     H80051  11.165   5.535   8.331 -1.3025 -1.3815  3.2978
  593MOL0     H80052  11.213   5.653   8.442  1.1864 -0.5047 -0.6458
  593MOL0     H80053  11.281   5.791   8.049 -0.5644 -0.4808 -1.0423
  593MOL0     H80054  10.686   5.456   8.861 -0.4075  0.4549  0.4035
  593MOL0     H80055  10.479   5.300   8.924 -2.2231  1.1937 -0.4620
  594MOL0     O80056   6.121   2.564  10.936  0.4389  0.4934 -0.2387
  594MOL0     C80057   6.225   2.610  10.879 -0.4321  0.4101  0.3709
  594MOL0     O80058   6.317   2.528  10.811 -0.0784 -0.4704  0.0641
  594MOL0     C80059   6.292   2.391  10.798 -0.7725  0.5675 -0.4166
  594MOL0     C80060   6.368   2.309  10.879  0.1814  0.5142  0.2696
  594MOL0     C80061   6.361   2.171  10.867 -0.7359 -0.2626 -0.1152
  594MOL0     C80062   6.279   2.116  10.764  0.3634 -0.0178  0.1921
  594MOL0     O80063   6.277   1.987  10.743  0.1338 -0.1684  0.3575
  594MOL0     C80064   6.347   1.886  10.813  0.3642  0.9490 -0.0350
  594MOL0     C80065   6.264   1.759  10.770 -0.0002  0.2913  0.3436
  594MOL0     C80066   6.145   1.740  10.859 -0.0716  1.3048  0.2371
  594MOL0     C80067   6.055   1.627  10.803  0.7769  0.2674 -0.2192
  594MOL0     C80068   5.955   1.586  10.912  0.1039 -0.1256 -0.2038
  594MOL0     C80069   5.848   1.492  10.872  0.7501  0.1156  0.4228
  594MOL0     C80070   5.754   1.457  10.983  0.1658  1.1830 -0.3504
  594MOL0     C80071   5.647   1.362  10.923 -0.1435  0.3282  1.2158
  594MOL0     N80072   5.537   1.325  11.009 -0.1199 -0.1190  0.0635
  594MOL0     C80073   5.533   1.326  11.147 -0.5225  0.1543 -0.2265
  594MOL0     C80074   5.414   1.268  11.176  0.4150  0.0976 -1.2138
  594MOL0     C80075   5.368   1.255  11.327  0.1325 -0.5516  0.5341
  594MOL0     C80076   5.318   1.403  11.363 -0.6719  0.5418 -0.0038
  594MOL0     C80077   5.168   1.423  11.334 -1.4550 -0.5535  0.6877
  594MOL0     C80078   5.073   1.376  11.438 -0.6429 -0.4680 -0.2843
  594MOL0     O80079   4.949   1.388  11.378 -0.0062 -0.4159  0.6890
  594MOL0     C80080   4.840   1.409  11.456  0.3540  0.4797 -0.1641
  594MOL0     C80081   4.827   1.361  11.586  0.7496  0.5251 -0.3808
  594MOL0     C80082   4.718   1.383  11.674 -0.4647  0.1846 -0.3364
  594MOL0     C80083   4.713   1.322  11.811  0.5809  0.6476  0.6258
  594MOL0     C80084   4.617   1.463  11.618  0.7232  0.2540 -0.0632
  594MOL0     C80085   4.493   1.483  11.694 -0.1095  0.2880  0.1939
  594MOL0     O80086   4.416   1.375  11.723 -0.1814 -0.3759  0.6368
  594MOL0     C80087   4.295   1.396  11.789 -0.6851 -0.7954  0.9828
  594MOL0     C80088   4.170   1.392  11.724 -0.9535  0.6116  0.7260
  594MOL0     C80089   4.055   1.394  11.799 -0.5382 -0.2291 -0.7081
  594MOL0     C80090   4.066   1.415  11.936  0.2862 -0.8180  1.1262
  594MOL0     O80091   3.952   1.430  12.008  0.0450 -0.2689 -0.5509
  594MOL0     C80092   3.901   1.571  12.029 -1.1993  0.0990 -0.5185
  594MOL0     C80093   3.796   1.607  11.928 -0.8729 -0.2260 -0.0796
  594MOL0     C80094   3.662   1.527  11.949  0.7018  0.0982  1.2550
  594MOL0     C80095   3.536   1.595  11.900 -0.0601 -0.4812 -0.3067
  594MOL0     C80096   3.411   1.508  11.896 -0.3327 -0.7342 -0.1889
  594MOL0     C80097   3.293   1.598  11.862 -0.5363 -0.9776  0.9524
  594MOL0     C80098   3.256   1.628  11.712  0.7695 -0.5742  0.2314
  594MOL0     C80099   3.212   1.786  11.691  0.6057  1.0044 -0.0299
  594MOL0    Cl80100   3.062   1.827  11.783 -0.5746  0.4910 -0.4330
  594MOL0     C80101   4.190   1.423  12.006  0.3720 -0.9632  0.3803
  594MOL0     C80102   4.311   1.411  11.923 -0.1689  0.2193 -0.7210
  594MOL0     O80103   4.474   1.596  11.732  0.2830  0.3474  0.4203
  594MOL0     C80104   4.616   1.509  11.486 -0.4167 -0.6343  0.4668
  594MOL0     C80105   4.728   1.485  11.402  0.8219  1.0290  0.1421
  594MOL0     N80106   5.345   1.229  11.063 -1.5599  0.5028  0.2780
  594MOL0     N80107   5.423   1.267  10.963 -0.1788  0.5840  0.7326
  594MOL0     C80108   6.195   2.198  10.683 -0.2088 -0.8543  0.5153
  594MOL0     C80109   6.197   2.332  10.712 -1.1735 -0.4448 -0.0271
  594MOL0     C80110   6.250   2.753  10.878 -0.5156 -0.6432  0.1915
  594MOL0     C80111   6.150   2.843  10.897 -1.2217  0.0453  0.7015
  594MOL0     C80112   6.190   2.978  10.910  0.5380 -0.7985  0.1686
  594MOL0     C80113   6.316   3.029  10.882 -0.2938  0.4967  1.2043
  594MOL0     O80114   6.359   3.162  10.881 -0.7629  0.5230 -0.5966
  594MOL0     C80115   6.266   3.265  10.889 -0.1342 -0.6965  1.0094
  594MOL0     C80116   6.333   3.397  10.868  0.0218 -0.0287 -0.5691
  594MOL0     C80117   6.427   3.404  10.749  0.3634  0.1399 -0.0040
  594MOL0     C80118   6.497   3.540  10.728 -0.0470  0.7666 -0.1573
  594MOL0     C80119   6.397   3.649  10.738  1.0429  0.0127 -0.3485
  594MOL0     C80120   6.332   3.751  10.757 -1.1005  0.0538  0.0230
  594MOL0     C80121   6.413   2.934  10.862  0.1948  0.5605  0.4630
  594MOL0     C80122   6.385   2.793  10.863 -0.0636 -0.8436  0.0821
  594MOL0     H80123   6.437   2.338  10.957  0.7589  3.0605 -1.0865
  594MOL0     H80124   6.420   2.118  10.941  2.4268  3.4213  0.3177
  594MOL0     H80125   6.451   1.879  10.781 -0.4009  0.9427 -2.7677
  594MOL0     H80126   6.332   1.880  10.921  0.1962 -0.7881 -0.1227
  594MOL0     H80127   6.226   1.763  10.668 -2.9103  0.6103  1.3402
  594MOL0     H80128   6.330   1.672  10.782  0.9660  1.3364  3.8485
  594MOL0     H80129   6.187   1.711  10.956 -3.1541  1.3067  1.6930
  594MOL0     H80130   6.081   1.827  10.870  0.8438  1.8172  1.7828
  594MOL0     H80131   6.009   1.671  10.715 -0.1016  1.9605  1.0331
  594MOL0     H80132   6.115   1.539  10.777  1.0397  0.7815 -1.3930
  594MOL0     H80133   6.004   1.540  10.998 -2.8602 -0.2543  1.5568
  594MOL0     H80134   5.897   1.676  10.936  0.5623  0.7339 -2.0811
  594MOL0     H80135   5.792   1.515  10.781 -1.5883 -1.3462  1.4143
  594MOL0     H80136   5.901   1.400  10.845  0.7149 -0.1554  1.2383
  594MOL0     H80137   5.798   1.412  11.072  0.3446  0.4562 -0.7975
  594MOL0     H80138   5.703   1.548  11.017  0.1003  1.0399 -0.0562
  594MOL0     H80139   5.691   1.272  10.879  1.6737  0.2084  3.1642
  594MOL0     H80140   5.608   1.412  10.834 -0.0565  0.7594  1.4175
  594MOL0     H80141   5.613   1.361  11.212  0.1622  1.1367 -1.5356
  594MOL0     H80142   5.284   1.185  11.331 -0.4075  0.1625  2.4726
  594MOL0     H80143   5.448   1.225  11.395  2.1784 -0.4325 -1.6512
  594MOL0     H80144   5.381   1.475  11.309  1.9757 -0.3435  1.6971
  594MOL0     H80145   5.340   1.417  11.470  1.6564 -1.4936 -0.1315
  594MOL0     H80146   5.143   1.381  11.237  0.4526  1.0846 -0.6102
  594MOL0     H80147   5.150   1.531  11.329 -1.0931 -0.5363 -0.4666
  594MOL0     H80148   5.081   1.441  11.526  1.5651  1.0058 -1.4616
  594MOL0     H80149   5.102   1.275  11.468 -0.3200 -0.6860 -1.3022
  594MOL0     H80150   4.913   1.310  11.628  0.9145  1.7894  0.8963
  594MOL0     H80151   4.776   1.233  11.797 -1.2646 -0.4919 -0.9966
  594MOL0     H80152   4.759   1.393  11.881  3.7422  2.3367 -2.7756
  594MOL0     H80153   4.612   1.288  11.835 -0.0099 -0.5938 -2.9942
  594MOL0     H80154   4.163   1.370  11.618 -2.0718 -2.0452  1.2585
  594MOL0     H80155   3.953   1.386  11.763 -0.3694 -1.4028 -0.9457
  594MOL0     H80156   3.865   1.573  12.133 -0.1246 -2.6860  0.0036
  594MOL0     H80157   3.984   1.643  12.025 -0.7659 -0.4501 -2.7498
  594MOL0     H80158   3.771   1.711  11.950  0.0805  0.1110 -0.5298
  594MOL0     H80159   3.828   1.594  11.824 -1.0798 -1.0005 -0.0578
  594MOL0     H80160   3.645   1.505  12.054 -2.1099  0.7419  1.0163
  594MOL0     H80161   3.669   1.431  11.897 -0.4290  0.8756 -0.4219
  594MOL0     H80162   3.520   1.684  11.961  1.7670 -0.5925  0.4001
  594MOL0     H80163   3.559   1.633  11.800  0.5951 -0.6611 -0.2326
  594MOL0     H80164   3.376   1.459  11.987 -0.8801 -1.0480 -0.5646
  594MOL0     H80165   3.428   1.438  11.814 -1.2814 -0.2368 -0.8339
  594MOL0     H80166   3.204   1.550  11.903 -0.9789  0.8479  2.2444
  594MOL0     H80167   3.319   1.697  11.903  0.1365 -0.2981 -0.9879
  594MOL0     H80168   3.178   1.556  11.685 -0.5605  1.0027 -0.2954
  594MOL0     H80169   3.339   1.600  11.647  0.0376 -1.5943 -0.2925
  594MOL0     H80170   3.191   1.803  11.585  1.0611 -1.1325 -0.5190
  594MOL0     H80171   3.291   1.852  11.727  1.8149  0.0589 -0.8452
  594MOL0     H80172   4.206   1.442  12.112  2.4879  1.0837 -0.2155
  594MOL0     H80173   4.412   1.417  11.962  1.3060 -0.0344 -4.1935
  594MOL0     H80174   4.544   1.580  11.446  2.3912  3.0607  1.4400
  594MOL0     H80175   4.735   1.515  11.298  1.6236 -0.9078 -0.4001
  594MOL0     H80176   6.121   2.157  10.615 -2.2000  1.5254  1.0503
  594MOL0     H80177   6.117   2.381  10.658 -0.2744  3.0201  1.5126
  594MOL0     H80178   6.046   2.818  10.915 -1.4271  0.8428  0.6399
  594MOL0     H80179   6.111   3.050  10.926 -0.5896 -1.3645 -2.2958
  594MOL0     H80180   6.182   3.252  10.820  0.0199 -0.8629  0.8505
  594MOL0     H80181   6.218   3.264  10.988  1.5675  2.1683  1.9728
  594MOL0     H80182   6.394   3.417  10.957 -1.5206  0.8166  0.3322
  594MOL0     H80183   6.258   3.475  10.856 -0.9872 -0.9563 -0.3806
  594MOL0     H80184   6.367   3.374  10.663  0.6166 -1.4853  0.3490
  594MOL0     H80185   6.507   3.331  10.761  2.1071  2.1361  1.2568
  594MOL0     H80186   6.529   3.532  10.623 -2.0108 -0.2997 -0.7362
  594MOL0     H80187   6.574   3.547  10.805  0.0519  0.8224 -0.2609
  594MOL0     H80188   6.264   3.833  10.749 -0.3045  0.5886 -1.7824
  594MOL0     H80189   6.519   2.958  10.861  0.2540  0.2969 -1.2216
  594MOL0     H80190   6.466   2.722  10.851  1.0904  0.2127  1.3126
  595MOL0     O80191   9.990   2.635   6.089 -0.0415  0.2084  0.4887
  595MOL0     C80192   9.908   2.565   6.025 -0.0813 -0.6545 -0.5117
  595MOL0     O80193   9.900   2.428   6.021  0.0826 -0.4123 -0.1127
  595MOL0     C80194   9.941   2.353   6.129 -0.1685 -0.2828  0.1666
  595MOL0     C80195   9.975   2.392   6.260  0.0971  0.8605  0.0129
  595MOL0     C80196  10.031   2.299   6.351 -0.3754 -1.4071  0.4144
  595MOL0     C80197  10.050   2.169   6.313 -0.4826  0.1111 -0.2741
  595MOL0     O80198  10.116   2.078   6.386 -0.5665 -0.3695 -0.2832
  595MOL0     C80199  10.127   2.096   6.530  0.7227  0.1329  1.3831
  595MOL0     C80200  10.210   1.983   6.584  0.4153 -0.9396 -0.1315
  595MOL0     C80201  10.335   1.947   6.513 -0.0642 -0.3888  0.0512
  595MOL0     C80202  10.452   2.039   6.562  0.3265  0.2862  0.3025
  595MOL0     C80203  10.566   2.022   6.467 -0.2700 -0.4403  0.3350
  595MOL0     C80204  10.691   2.111   6.506 -0.8074  0.7129  0.2227
  595MOL0     C80205  10.821   2.058   6.440  0.3915  0.5430  0.3515
  595MOL0     C80206  10.942   2.153   6.456  1.0454 -0.4055 -0.5510
  595MOL0     N80207  10.904   2.294   6.414  0.4644  0.1521  0.5472
  595MOL0     C80208  10.889   2.333   6.279 -0.0196  0.7959  0.2164
  595MOL0     C80209  10.881   2.468   6.289 -0.9004 -0.3699  0.4085
  595MOL0     C80210  10.905   2.570   6.176  0.4821  0.5597  0.4284
  595MOL0     C80211  11.048   2.617   6.146 -0.2253 -0.5353 -0.2729
  595MOL0     C80212  11.135   2.504   6.095 -0.5942  0.4871 -0.0804
  595MOL0     C80213  11.278   2.515   6.155  0.2231 -0.2886 -0.8783
  595MOL0     O80214  11.288   2.501   6.301 -0.6226 -0.3547 -0.5075
  595MOL0     C80215  11.415   2.507   6.360  0.0620 -0.4206  0.0623
  595MOL0     C80216  11.441   2.612   6.443 -0.1512  0.0788 -0.5513
  595MOL0     C80217  11.554   2.621   6.521 -0.1709  0.2496 -0.1066
  595MOL0     C80218  11.572   2.736   6.616 -0.5697  0.3790 -0.0567
  595MOL0     C80219  11.662   2.527   6.497 -0.4588 -0.5818 -0.9715
  595MOL0     C80220  11.801   2.540   6.557 -0.4648  0.0344  0.1705
  595MOL0     O80221  11.853   2.671   6.584  0.0006  0.7046 -0.4937
  595MOL0     C80222  11.981   2.686   6.647 -0.9110  0.1527 -0.2965
  595MOL0     C80223  12.037   2.599   6.737  0.3111 -0.6165 -0.7046
  595MOL0     C80224  12.169   2.615   6.792  0.1480  0.4034 -0.4292
  595MOL0     C80225  12.249   2.712   6.746 -0.0200  0.4166  0.8498
  595MOL0     O80226  12.377   2.738   6.774 -1.0292  0.9702 -0.4276
  595MOL0     C80227  12.450   2.644   6.864  0.1626  0.5589 -0.9912
  595MOL0     C80228  12.578   2.602   6.794 -0.1741 -0.1793  0.1695
  595MOL0     C80229  12.646   2.497   6.888  0.1099  0.8250  0.0650
  595MOL0     C80230  12.783   2.470   6.836  0.1260  0.9330  0.2814
  595MOL0     C80231  12.843   2.339   6.893  0.0405 -0.2314  0.0781
  595MOL0     C80232  12.987   2.321   6.848 -0.3476 -0.2492 -0.2934
  595MOL0     C80233  13.076   2.406   6.937 -0.4117 -0.3896  0.5358
  595MOL0     C80234  13.086   2.333   7.070  0.4346 -0.3290 -0.0144
  595MOL0    Cl80235  13.201   2.427   7.162 -0.1278  0.1863 -0.0028
  595MOL0     C80236  12.198   2.803   6.655  0.5925 -0.4544 -0.1973
  595MOL0     C80237  12.066   2.790   6.608  0.0140 -0.2554 -0.5389
  595MOL0     O80238  11.852   2.436   6.595 -0.4070 -0.7244  0.3066
  595MOL0     C80239  11.642   2.415   6.414 -0.5073 -0.5883  0.0956
  595MOL0     C80240  11.516   2.410   6.345 -0.0137 -1.1281  0.3896
  595MOL0     N80241  10.891   2.507   6.429  0.1346 -0.4138  0.0167
  595MOL0     N80242  10.914   2.400   6.493  0.1770 -0.3725 -1.4264
  595MOL0     C80243  10.029   2.134   6.184  0.1376 -0.4511  0.6613
  595MOL0     C80244   9.971   2.226   6.091 -0.4052  0.9293 -0.3151
  595MOL0     C80245   9.815   2.636   5.933  0.4068 -0.2454 -1.0595
  595MOL0     C80246   9.848   2.764   5.887 -0.5259  0.4312 -0.2265
  595MOL0     C80247   9.759   2.823   5.785 -0.5749  0.6502  0.0256
  595MOL0     C80248   9.650   2.754   5.735 -0.0391 -0.0005  0.0771
  595MOL0     O80249   9.585   2.815   5.623  0.0325  0.7793 -0.2422
  595MOL0     C80250   9.483   2.745   5.563  0.0648 -0.7223  0.0436
  595MOL0     C80251   9.425   2.848   5.463 -0.2574 -1.0436 -0.0095
  595MOL0     C80252   9.520   2.875   5.348  0.1927  0.2789 -0.3693
  595MOL0     C80253   9.450   2.990   5.266  0.4625  0.1711 -0.1628
  595MOL0     C80254   9.328   2.940   5.201  0.0811  0.2172  0.1082
  595MOL0     C80255   9.229   2.912   5.131 -0.8449  0.6214  0.3628
  595MOL0     C80256   9.622   2.634   5.787 -0.2720  1.3040  0.2890
  595MOL0     C80257   9.697   2.578   5.893 -0.0109  0.3799  0.4241
  595MOL0     H80258   9.947   2.491   6.292 -0.1392  0.7982 -0.0001
  595MOL0     H80259  10.032   2.347   6.448 -4.1835  1.4358 -0.7299
  595MOL0     H80260  10.170   2.194   6.552 -0.8513  1.3308 -0.4853
  595MOL0     H80261  10.023   2.095   6.564 -0.0156 -2.1620 -0.6417
  595MOL0     H80262  10.239   2.010   6.686  0.8255  1.5743 -0.8539
  595MOL0     H80263  10.148   1.893   6.589  0.7819 -1.2677 -1.2540
  595MOL0     H80264  10.357   1.845   6.545 -2.4084 -1.7515 -2.2749
  595MOL0     H80265  10.313   1.962   6.407  1.5049  1.6706 -0.0645
  595MOL0     H80266  10.423   2.144   6.570 -1.8346 -0.3642  2.2958
  595MOL0     H80267  10.481   2.000   6.660 -0.9139 -1.7326 -0.0696
  595MOL0     H80268  10.592   1.917   6.452 -0.2154 -0.6982  2.0014
  595MOL0     H80269  10.527   2.067   6.375  0.2701 -0.7388 -0.0470
  595MOL0     H80270  10.674   2.212   6.469 -0.8502  0.6525  0.0767
  595MOL0     H80271  10.701   2.116   6.614  3.2457 -1.9871  0.1937
  595MOL0     H80272  10.839   1.959   6.483 -4.9781 -0.8087  0.1541
  595MOL0     H80273  10.799   2.054   6.333  1.1190  1.0059  0.1729
  595MOL0     H80274  11.025   2.115   6.396  0.3975  0.3234 -1.9442
  595MOL0     H80275  10.974   2.155   6.561  4.2292  0.5514 -1.4310
  595MOL0     H80276  10.890   2.270   6.191 -0.6347 -0.6761  1.2369
  595MOL0     H80277  10.868   2.528   6.083  0.3954  1.0476  0.2365
  595MOL0     H80278  10.828   2.648   6.188 -0.5150 -0.2297 -0.6517
  595MOL0     H80279  11.092   2.659   6.237 -0.4192  1.1952 -0.9381
  595MOL0     H80280  11.059   2.695   6.070  0.6673  1.1948  1.5451
  595MOL0     H80281  11.139   2.518   5.987  0.9984  3.7491  0.3080
  595MOL0     H80282  11.101   2.401   6.111  0.3999  0.4407  2.0053
  595MOL0     H80283  11.315   2.615   6.131  0.6993  0.1301  1.3870
  595MOL0     H80284  11.344   2.448   6.099  0.3710 -0.0476 -0.9901
  595MOL0     H80285  11.363   2.687   6.455 -1.1874 -1.2178  1.2521
  595MOL0     H80286  11.620   2.811   6.552 -3.9259  2.3650 -0.5149
  595MOL0     H80287  11.469   2.768   6.634 -0.1243  1.2097  1.1213
  595MOL0     H80288  11.623   2.719   6.711 -1.1147  2.2199  0.6027
  595MOL0     H80289  11.972   2.520   6.773 -1.3108 -0.8091 -3.7373
  595MOL0     H80290  12.193   2.548   6.875 -0.3928 -1.3270 -1.6100
  595MOL0     H80291  12.484   2.696   6.954 -0.6215  1.5496 -1.2497
  595MOL0     H80292  12.395   2.558   6.903  0.7168  1.7619  2.9185
  595MOL0     H80293  12.560   2.542   6.704 -0.3497 -3.1193  2.0232
  595MOL0     H80294  12.650   2.683   6.781 -0.2993  0.1093  1.1879
  595MOL0     H80295  12.584   2.408   6.900 -1.1148  1.8440  1.8112
  595MOL0     H80296  12.665   2.537   6.988 -0.3223 -2.0001  1.3682
  595MOL0     H80297  12.789   2.464   6.727  0.5299 -3.1385  0.3805
  595MOL0     H80298  12.841   2.553   6.878  2.4494 -0.7328  0.5553
  595MOL0     H80299  12.780   2.261   6.849 -0.8971 -1.3789  3.1628
  595MOL0     H80300  12.823   2.313   6.997 -0.3378 -3.9831 -0.7849
  595MOL0     H80301  13.006   2.215   6.866 -1.4062 -0.3222  0.5110
  595MOL0     H80302  13.002   2.357   6.746  1.5688  2.7751  0.9075
  595MOL0     H80303  13.054   2.512   6.948  0.8519  0.0786 -1.0681
  595MOL0     H80304  13.171   2.408   6.884 -1.9409 -0.9074 -2.4335
  595MOL0     H80305  13.122   2.230   7.059 -1.6362 -1.2793  1.3941
  595MOL0     H80306  12.991   2.337   7.125  0.6938  2.5262  0.3627
  595MOL0     H80307  12.263   2.875   6.605  0.1617  1.2098  1.5269
  595MOL0     H80308  12.039   2.862   6.531  2.2962  0.1005 -1.0768
  595MOL0     H80309  11.722   2.344   6.395 -0.0621 -0.3710  1.0942
  595MOL0     H80310  11.504   2.331   6.270  2.1625 -0.6245 -0.5594
  595MOL0     H80311  10.040   2.029   6.162 -0.9942 -0.5185  0.3530
  595MOL0     H80312   9.972   2.188   5.989  2.4271 -4.4112  1.3591
  595MOL0     H80313   9.933   2.822   5.924  0.3577 -1.6828  1.2325
  595MOL0     H80314   9.776   2.913   5.728 -0.5163  0.7124  0.1416
  595MOL0     H80315   9.516   2.651   5.518  0.3217 -0.0456 -1.2473
  595MOL0     H80316   9.405   2.729   5.637 -2.6145  2.9970 -1.6165
  595MOL0     H80317   9.407   2.943   5.513  0.3294 -1.5150  1.1405
  595MOL0     H80318   9.332   2.799   5.432 -0.3061 -2.6526  2.3406
  595MOL0     H80319   9.530   2.789   5.281  0.8087 -0.3608  0.5238
  595MOL0     H80320   9.612   2.907   5.396 -0.1140  2.6707 -1.2263
  595MOL0     H80321   9.518   3.027   5.189 -1.2458  1.0463 -1.3460
  595MOL0     H80322   9.417   3.072   5.330 -3.6862 -2.0439  0.9371
  595MOL0     H80323   9.148   2.864   5.079 -0.0672 -1.3586  0.8653
  595MOL0     H80324   9.536   2.576   5.757  1.7352 -1.4554 -0.5632
  595MOL0     H80325   9.657   2.488   5.938 -1.8246  0.7328 -0.3688
  596MOL0     O80326   3.948   0.465   8.379  0.2652  0.8856  0.1943
  596MOL0     C80327   3.933   0.586   8.366 -0.3778 -0.5838 -0.3604
  596MOL0     O80328   4.037   0.672   8.343 -0.2191  0.0030 -0.9990
  596MOL0     C80329   4.163   0.622   8.344  0.2966 -1.0206 -0.8506
  596MOL0     C80330   4.252   0.664   8.445 -0.4715 -0.1757  0.1166
  596MOL0     C80331   4.396   0.627   8.444  0.4118  0.2100 -0.1281
  596MOL0     C80332   4.446   0.538   8.344  0.5160 -0.1515 -0.1224
  596MOL0     O80333   4.583   0.511   8.328  0.4531 -0.5546  0.8730
  596MOL0     C80334   4.633   0.517   8.189  0.0739  0.2997 -0.1299
  596MOL0     C80335   4.785   0.491   8.179  0.1398 -0.1342 -0.6315
  596MOL0     C80336   4.874   0.566   8.281  0.4281 -0.5528 -0.5055
  596MOL0     C80337   5.021   0.537   8.268  0.0441  0.5121  0.5484
  596MOL0     C80338   5.108   0.638   8.339 -0.5439  0.1826  0.3487
  596MOL0     C80339   5.253   0.591   8.335 -0.1894 -0.1432 -0.2345
  596MOL0     C80340   5.343   0.675   8.441 -0.4442 -0.0103 -0.3260
  596MOL0     C80341   5.493   0.633   8.454  0.2026  0.7481  0.2723
  596MOL0     N80342   5.567   0.634   8.326 -0.2136  0.3783  0.2404
  596MOL0     C80343   5.653   0.740   8.297 -0.4887 -0.3974  0.4230
  596MOL0     C80344   5.703   0.699   8.176  0.4076  0.5268  0.3692
  596MOL0     C80345   5.794   0.763   8.084  0.2040 -0.0139 -0.4782
  596MOL0     C80346   5.841   0.894   8.141  0.4169  0.5735  0.4957
  596MOL0     C80347   5.954   0.955   8.058 -0.1312  0.2904  0.6264
  596MOL0     C80348   6.095   0.903   8.097 -0.5529  0.0659  0.3460
  596MOL0     O80349   6.199   0.978   8.033  0.2493 -0.1083  0.3786
  596MOL0     C80350   6.329   0.938   8.042  0.3747 -0.2027  0.1186
  596MOL0     C80351   6.361   0.813   8.082 -0.5976  0.3896  0.1856
  596MOL0     C80352   6.503   0.780   8.091  0.0019 -0.3488  0.1316
  596MOL0     C80353   6.538   0.648   8.158 -0.1447  0.3952  0.1221
  596MOL0     C80354   6.599   0.864   8.034  0.3856 -0.5670 -0.3721
  596MOL0     C80355   6.737   0.834   8.015  0.2554  1.1544  1.1250
  596MOL0     O80356   6.826   0.936   8.017  0.0927 -0.3535 -0.2107
  596MOL0     C80357   6.963   0.919   8.003  0.7680  0.4144  0.7042
  596MOL0     C80358   7.030   1.022   7.937  0.1664  1.1155 -0.3984
  596MOL0     C80359   7.161   1.016   7.936 -0.2732  0.4948  0.0512
  596MOL0     C80360   7.238   0.927   8.014 -0.0755  0.3259 -0.1484
  596MOL0     O80361   7.374   0.931   8.025 -0.8439 -0.4859 -0.2000
  596MOL0     C80362   7.444   1.001   7.928 -0.0276 -0.0458 -0.3136
  596MOL0     C80363   7.589   0.956   7.947  0.2351 -0.3523  0.4527
  596MOL0     C80364   7.663   1.016   8.076 -1.2341 -0.3435  0.5405
  596MOL0     C80365   7.822   0.982   8.060  0.2483 -0.1405  0.3195
  596MOL0     C80366   7.901   1.091   7.973  0.3566 -0.3517 -0.0795
  596MOL0     C80367   8.044   1.062   8.008  0.3102 -0.7324  0.1199
  596MOL0     C80368   8.135   1.146   7.913  1.0733 -0.3251 -0.6638
  596MOL0     C80369   8.287   1.145   7.949  1.1122 -0.5423 -0.2293
  596MOL0    Cl80370   8.370   1.307   7.919 -0.1663  0.0277  0.1945
  596MOL0     C80371   7.170   0.822   8.077 -0.8380 -0.2324  0.9719
  596MOL0     C80372   7.035   0.815   8.072  0.7461  0.3929  0.7311
  596MOL0     O80373   6.764   0.716   7.992 -0.2138 -0.4933  0.3595
  596MOL0     C80374   6.558   0.998   7.997  0.9371  0.6792  0.6000
  596MOL0     C80375   6.422   1.029   8.001 -0.2659 -0.7465 -0.2008
  596MOL0     N80376   5.667   0.564   8.153  0.1816  0.1451 -0.5960
  596MOL0     N80377   5.585   0.524   8.245 -0.4716 -0.2651  0.7116
  596MOL0     C80378   4.344   0.504   8.248 -0.1907  0.4101  0.2321
  596MOL0     C80379   4.213   0.531   8.256 -1.1659 -0.5598 -0.1728
  596MOL0     C80380   3.794   0.638   8.367  0.8252 -0.5734  0.0516
  596MOL0     C80381   3.758   0.773   8.393  0.2873 -0.0308 -0.2552
  596MOL0     C80382   3.625   0.812   8.397 -0.6435  0.0317 -0.0921
  596MOL0     C80383   3.517   0.718   8.366  0.1231  0.2337 -0.1116
  596MOL0     O80384   3.385   0.752   8.360  0.1037 -0.3099 -0.1955
  596MOL0     C80385   3.277   0.667   8.405 -0.3527 -1.0301  0.3381
  596MOL0     C80386   3.150   0.746   8.454 -0.1512  0.4212  0.1568
  596MOL0     C80387   3.178   0.841   8.571 -0.0730 -0.8032  0.5101
  596MOL0     C80388   3.057   0.886   8.652  0.7094 -0.1826 -1.2282
  596MOL0     C80389   2.987   0.779   8.720  0.8087 -0.5986 -0.2970
  596MOL0     C80390   2.918   0.701   8.786 -0.3066 -0.6861 -0.2448
  596MOL0     C80391   3.556   0.584   8.350  0.0179  0.1411 -0.3265
  596MOL0     C80392   3.687   0.545   8.359  0.1151  0.4468  0.9358
  596MOL0     H80393   4.221   0.735   8.522 -1.4393  1.2227 -1.4978
  596MOL0     H80394   4.476   0.681   8.493  1.1704 -1.6373  0.7677
  596MOL0     H80395   4.595   0.429   8.135  0.0229 -1.2180  2.2608
  596MOL0     H80396   4.596   0.607   8.138  2.9320 -0.3095 -3.7667
  596MOL0     H80397   4.800   0.383   8.178  3.6391  0.2134 -0.3122
  596MOL0     H80398   4.827   0.524   8.084 -1.3709  2.2822 -0.5371
  596MOL0     H80399   4.853   0.672   8.266  0.2579 -0.5518 -0.2751
  596MOL0     H80400   4.828   0.543   8.378  0.7469  2.3818  0.4374
  596MOL0     H80401   5.041   0.432   8.293  0.2344 -0.4283 -3.0305
  596MOL0     H80402   5.054   0.538   8.164 -0.6719 -1.6591  0.2559
  596MOL0     H80403   5.087   0.737   8.298 -1.3726  0.3777  1.1915
  596MOL0     H80404   5.082   0.626   8.445  1.8576  0.1016  0.9798
  596MOL0     H80405   5.271   0.490   8.371  0.3864 -1.0801 -2.9272
  596MOL0     H80406   5.294   0.609   8.235 -0.7722  1.3332 -0.2425
  596MOL0     H80407   5.352   0.779   8.409 -0.8164 -0.1451 -0.8689
  596MOL0     H80408   5.286   0.668   8.534 -0.2871 -0.0301 -0.2307
  596MOL0     H80409   5.504   0.530   8.487  1.3725  0.6583 -0.3437
  596MOL0     H80410   5.548   0.684   8.534  2.0486 -0.9849  0.1637
  596MOL0     H80411   5.658   0.843   8.330 -0.1546  0.0028 -0.8250
  596MOL0     H80412   5.878   0.695   8.068 -1.9677 -3.3131  1.0360
  596MOL0     H80413   5.741   0.775   7.989 -1.9968  0.2889  0.7241
  596MOL0     H80414   5.865   0.893   8.248  5.8783 -1.5390 -0.3952
  596MOL0     H80415   5.757   0.960   8.119 -1.1329 -1.3053  0.4618
  596MOL0     H80416   5.941   1.060   8.085 -0.9732  0.5627 -0.7137
  596MOL0     H80417   5.943   0.937   7.950  0.3294 -0.2311  0.6587
  596MOL0     H80418   6.099   0.794   8.084 -2.0051  0.2631 -2.5118
  596MOL0     H80419   6.095   0.930   8.203 -4.0916  1.9781  0.0043
  596MOL0     H80420   6.295   0.733   8.112 -2.5618  0.9958 -2.1849
  596MOL0     H80421   6.494   0.561   8.109  1.6696 -2.5759  3.2980
  596MOL0     H80422   6.644   0.625   8.175  0.4109  4.4901  4.5255
  596MOL0     H80423   6.504   0.653   8.262  1.7101  1.4175  0.7432
  596MOL0     H80424   6.987   1.108   7.887  0.2367 -0.3054 -3.0653
  596MOL0     H80425   7.215   1.087   7.874 -1.4259  0.8728 -0.5504
  596MOL0     H80426   7.407   0.969   7.830 -0.8350  2.4135 -0.8764
  596MOL0     H80427   7.440   1.109   7.946  1.1964 -0.2592  1.4249
  596MOL0     H80428   7.602   0.847   7.950 -3.8079 -1.0141 -0.4783
  596MOL0     H80429   7.641   0.986   7.855 -0.5060  0.1023  0.1757
  596MOL0     H80430   7.634   0.970   8.171 -0.7617 -0.7454  0.4953
  596MOL0     H80431   7.639   1.121   8.093 -2.2886 -0.5685  0.4828
  596MOL0     H80432   7.858   0.976   8.163 -2.3358 -2.0442  1.2129
  596MOL0     H80433   7.826   0.880   8.022 -1.7507  0.3267 -1.2969
  596MOL0     H80434   7.873   1.195   7.995  1.0073 -0.1922  0.0162
  596MOL0     H80435   7.875   1.074   7.868 -1.3600 -1.0934  0.4210
  596MOL0     H80436   8.071   1.093   8.110 -1.2359  2.0180 -0.1980
  596MOL0     H80437   8.075   0.960   7.983  0.7921 -0.1815 -1.6794
  596MOL0     H80438   8.095   1.247   7.904  2.6056  0.1717 -2.6647
  596MOL0     H80439   8.142   1.109   7.810  2.5933  0.0451 -0.7252
  596MOL0     H80440   8.324   1.061   7.890  1.1845 -0.2989 -0.5339
  596MOL0     H80441   8.291   1.126   8.057 -2.0326 -0.6531 -0.0325
  596MOL0     H80442   7.223   0.741   8.126 -0.4392 -1.0845 -0.7758
  596MOL0     H80443   6.978   0.736   8.119  1.1708 -0.1327  0.3698
  596MOL0     H80444   6.632   1.050   7.938 -0.3715  0.6699 -1.1250
  596MOL0     H80445   6.389   1.120   7.952  2.3037 -0.4031 -1.4707
  596MOL0     H80446   4.385   0.446   8.166 -2.3603 -1.0223  0.0764
  596MOL0     H80447   4.143   0.489   8.185 -3.1882 -0.0957  1.4720
  596MOL0     H80448   3.827   0.855   8.410  0.0518  0.6916 -2.4751
  596MOL0     H80449   3.597   0.915   8.415 -0.5146 -0.1511  1.2330
  596MOL0     H80450   3.241   0.626   8.310 -0.6495  0.6492 -0.2966
  596MOL0     H80451   3.312   0.607   8.489  0.5791  1.1388  1.5864
  596MOL0     H80452   3.074   0.670   8.471  0.2156  0.2030  0.8558
  596MOL0     H80453   3.115   0.803   8.367  0.2584 -1.0311 -0.9932
  596MOL0     H80454   3.227   0.925   8.522 -4.6047  1.0712 -1.3536
  596MOL0     H80455   3.266   0.797   8.618  0.8190  0.6649  0.2691
  596MOL0     H80456   2.993   0.930   8.575 -1.2123 -1.0072 -0.1761
  596MOL0     H80457   3.079   0.968   8.722 -0.8227  0.6573 -1.6828
  596MOL0     H80458   2.876   0.620   8.843  2.4238 -1.6811  0.4937
  596MOL0     H80459   3.479   0.511   8.328 -1.5325  1.9980 -1.2799
  596MOL0     H80460   3.712   0.440   8.347 -4.2709 -0.8609  1.4197
  597MOL0     O80461   8.543   3.814   5.794  1.2154  0.0911  0.4897
  597MOL0     C80462   8.460   3.905   5.781  0.9062  0.0598  0.4254
  597MOL0     O80463   8.342   3.926   5.845  0.0692 -0.3856 -0.1837
  597MOL0     C80464   8.293   3.815   5.906 -0.2274 -0.6615  0.1733
  597MOL0     C80465   8.228   3.827   6.025 -0.1626  0.6705 -0.6058
  597MOL0     C80466   8.176   3.718   6.094  0.0265 -0.4362 -1.2496
  597MOL0     C80467   8.188   3.586   6.046 -0.2135  0.5268 -0.8510
  597MOL0     O80468   8.129   3.484   6.124  0.4153  0.8640 -0.1460
  597MOL0     C80469   8.126   3.351   6.061  0.2557  0.1737  0.2626
  597MOL0     C80470   8.049   3.252   6.145  0.1444  0.4224 -0.0902
  597MOL0     C80471   8.077   3.253   6.304 -0.4721  0.3330  0.0945
  597MOL0     C80472   7.971   3.159   6.369  0.4223  0.4072  0.0966
  597MOL0     C80473   7.856   3.245   6.434  0.3742  0.8963 -0.1122
  597MOL0     C80474   7.763   3.164   6.530 -0.7991  0.7545 -0.2859
  597MOL0     C80475   7.631   3.231   6.557  0.3322 -0.1878  0.6445
  597MOL0     C80476   7.521   3.228   6.450  0.2206  0.9107  0.4262
  597MOL0     N80477   7.399   3.283   6.505  1.1984 -0.5123 -0.8733
  597MOL0     C80478   7.307   3.217   6.591 -0.0987 -0.1361 -0.3647
  597MOL0     C80479   7.215   3.313   6.618 -0.6883  0.8103  0.0209
  597MOL0     C80480   7.100   3.282   6.706 -0.6134 -0.1855  0.1722
  597MOL0     C80481   7.032   3.412   6.772 -0.4337 -0.1094  0.2684
  597MOL0     C80482   6.935   3.361   6.881  0.0584  0.5182 -0.0298
  597MOL0     C80483   6.988   3.283   7.004 -0.5075 -0.2265  0.1690
  597MOL0     O80484   6.893   3.296   7.119 -0.0370  0.3054  0.5888
  597MOL0     C80485   6.779   3.219   7.113 -0.3731 -0.3809  0.4480
  597MOL0     C80486   6.689   3.217   7.225  0.2670  0.5203  0.3607
  597MOL0     C80487   6.561   3.154   7.227 -0.7031  0.1785  0.0156
  597MOL0     C80488   6.472   3.183   7.342 -0.7328  0.6870 -1.1648
  597MOL0     C80489   6.531   3.069   7.119  0.0022 -0.2273  0.4089
  597MOL0     C80490   6.412   2.980   7.099 -0.9833  0.1957  1.1098
  597MOL0     O80491   6.319   2.967   7.197  0.9657 -0.9633  0.3849
  597MOL0     C80492   6.192   2.923   7.155 -0.7156 -0.0143 -0.4252
  597MOL0     C80493   6.088   3.009   7.122 -0.6409  0.8817 -0.0623
  597MOL0     C80494   5.960   2.967   7.092  0.6802 -0.7971  0.7982
  597MOL0     C80495   5.926   2.833   7.081  0.3934 -0.0189  0.1673
  597MOL0     O80496   5.805   2.783   7.051  0.1264 -0.8734 -0.1025
  597MOL0     C80497   5.702   2.875   7.002  0.3475  0.1008 -0.0251
  597MOL0     C80498   5.567   2.799   6.980 -0.8809  0.4203 -0.1409
  597MOL0     C80499   5.467   2.867   6.886 -0.3807  0.1564 -0.6363
  597MOL0     C80500   5.362   2.942   6.962  0.3427 -0.6834  0.1831
  597MOL0     C80501   5.278   3.029   6.868  0.5175 -0.4888 -0.2588
  597MOL0     C80502   5.188   3.117   6.940 -0.4846 -0.1282  0.1766
  597MOL0     C80503   5.081   3.188   6.851  0.8269 -0.5338  1.2544
  597MOL0     C80504   5.122   3.251   6.717  0.2812  1.1010  0.2382
  597MOL0    Cl80505   4.990   3.335   6.629 -0.3253  0.2324 -0.1687
  597MOL0     C80506   6.028   2.741   7.125  0.0702 -0.2162  0.2613
  597MOL0     C80507   6.163   2.782   7.160  0.1586  0.2014  0.2669
  597MOL0     O80508   6.416   2.904   7.002 -0.9928  0.3828  0.0922
  597MOL0     C80509   6.618   3.064   7.009 -0.6552 -0.6984  0.0721
  597MOL0     C80510   6.736   3.142   7.005 -0.5174  0.5181  0.1322
  597MOL0     N80511   7.246   3.434   6.557 -0.6802  0.2471 -0.4080
  597MOL0     N80512   7.360   3.410   6.495  0.2761  0.1900  0.2818
  597MOL0     C80513   8.253   3.572   5.925  0.5216 -0.4516  0.4786
  597MOL0     C80514   8.287   3.688   5.846 -0.3337  0.3634 -0.2793
  597MOL0     C80515   8.476   3.997   5.680 -0.5707 -0.6715 -0.3765
  597MOL0     C80516   8.586   3.986   5.590  0.1042 -0.7457  0.1088
  597MOL0     C80517   8.610   4.093   5.504 -0.6752 -1.2844  0.6060
  597MOL0     C80518   8.532   4.210   5.508 -0.3355 -0.1763 -0.0169
  597MOL0     O80519   8.577   4.309   5.427  0.0937  0.5051  0.1146
  597MOL0     C80520   8.564   4.292   5.286  0.2940  0.3975 -0.1968
  597MOL0     C80521   8.576   4.423   5.202  0.2120 -0.7013 -0.1019
  597MOL0     C80522   8.572   4.392   5.057 -0.6687  0.3779 -0.1403
  597MOL0     C80523   8.588   4.523   4.980 -0.8197  0.4836 -0.2227
  597MOL0     C80524   8.552   4.515   4.839  0.3928 -0.5017  0.5494
  597MOL0     C80525   8.504   4.501   4.724 -0.1642  0.1753  0.3050
  597MOL0     C80526   8.429   4.219   5.596 -0.9257  0.1322 -0.1686
  597MOL0     C80527   8.398   4.115   5.677  0.2258  0.5082 -0.2839
  597MOL0     H80528   8.231   3.917   6.085  1.0949 -1.8162  3.4888
  597MOL0     H80529   8.129   3.733   6.191  2.0478  0.2688 -0.3022
  597MOL0     H80530   8.083   3.346   5.961  0.2263  0.7047  0.2463
  597MOL0     H80531   8.231   3.331   6.037  0.1449  2.4654 -2.6513
  597MOL0     H80532   7.940   3.257   6.137  0.2310  0.6763 -1.1758
  597MOL0     H80533   8.073   3.154   6.104 -3.2057 -0.8184  0.5780
  597MOL0     H80534   8.179   3.222   6.327  0.0243  2.9231  1.7309
  597MOL0     H80535   8.060   3.357   6.333 -3.2098  0.1756 -0.6326
  597MOL0     H80536   7.915   3.088   6.307 -0.6666  1.0909  0.2812
  597MOL0     H80537   8.023   3.122   6.458 -0.8705  0.7051  1.0052
  597MOL0     H80538   7.898   3.329   6.490 -0.8561  2.1036 -0.9282
  597MOL0     H80539   7.809   3.296   6.349  4.8202  0.5116 -3.1526
  597MOL0     H80540   7.746   3.061   6.498 -1.9994  0.8428  0.0221
  597MOL0     H80541   7.822   3.158   6.622  1.6687 -0.9615 -1.8459
  597MOL0     H80542   7.587   3.175   6.640 -3.5217  2.5094  0.6750
  597MOL0     H80543   7.643   3.332   6.597 -2.1503 -0.1116  1.3657
  597MOL0     H80544   7.501   3.133   6.400 -1.8363  1.7998 -0.5771
  597MOL0     H80545   7.571   3.295   6.379 -1.5614 -0.6296 -2.4740
  597MOL0     H80546   7.319   3.114   6.624 -0.6215  0.1348  0.7208
  597MOL0     H80547   7.025   3.224   6.651 -1.4213  1.1406 -0.1703
  597MOL0     H80548   7.138   3.214   6.783  1.5508  3.4500  2.6508
  597MOL0     H80549   6.989   3.486   6.704  0.9359  2.0437  1.6244
  597MOL0     H80550   7.105   3.465   6.833  1.8691 -0.7328 -1.7889
  597MOL0     H80551   6.856   3.311   6.825 -0.6569  1.7396 -0.1457
  597MOL0     H80552   6.887   3.450   6.922  1.4170  0.6734  1.3463
  597MOL0     H80553   7.084   3.327   7.036 -0.1131 -0.5629 -0.5269
  597MOL0     H80554   7.012   3.178   6.988 -2.2944 -0.3150 -2.5339
  597MOL0     H80555   6.720   3.265   7.318 -1.1565 -2.6692  2.6616
  597MOL0     H80556   6.498   3.118   7.426 -1.2828  1.3220 -0.4867
  597MOL0     H80557   6.500   3.283   7.377  3.8205 -0.3899 -1.1684
  597MOL0     H80558   6.363   3.180   7.336 -0.7689 -3.3508 -1.2337
  597MOL0     H80559   6.081   3.116   7.142  0.6415  0.6153  2.1105
  597MOL0     H80560   5.892   3.047   7.063  1.7240 -0.2295 -0.2058
  597MOL0     H80561   5.693   2.961   7.069 -3.2558 -0.2993  0.2008
  597MOL0     H80562   5.752   2.917   6.914  1.9258  0.1133  0.8472
  597MOL0     H80563   5.608   2.712   6.928 -1.7363 -0.1423  0.1127
  597MOL0     H80564   5.529   2.771   7.079 -1.1135  1.8236  0.1917
  597MOL0     H80565   5.421   2.785   6.829  3.3820 -2.6146 -0.0926
  597MOL0     H80566   5.522   2.942   6.828 -1.9590  1.1723 -0.8601
  597MOL0     H80567   5.296   2.875   7.018  0.7986 -0.1956  1.3163
  597MOL0     H80568   5.392   3.011   7.041  1.7523 -0.8821 -0.1554
  597MOL0     H80569   5.227   2.961   6.799 -1.7496  1.2618 -0.4071
  597MOL0     H80570   5.347   3.090   6.809  0.0803 -0.8307 -1.1449
  597MOL0     H80571   5.134   3.060   7.016  0.9822  0.8376  2.0281
  597MOL0     H80572   5.244   3.199   6.987  1.0121  0.4418 -2.4059
  597MOL0     H80573   5.034   3.266   6.912  4.0992  1.6778  1.1848
  597MOL0     H80574   5.006   3.112   6.824 -0.9216  1.4584  0.1962
  597MOL0     H80575   5.178   3.180   6.655 -1.0887 -1.2085  1.4767
  597MOL0     H80576   5.194   3.329   6.744 -0.3150  2.2883 -1.4242
  597MOL0     H80577   6.004   2.636   7.120  0.3696 -0.8283  5.7558
  597MOL0     H80578   6.244   2.714   7.185 -0.6988 -0.9378  0.0022
  597MOL0     H80579   6.601   2.998   6.925 -1.8050 -1.5765  0.9489
  597MOL0     H80580   6.798   3.133   6.917 -2.8465 -0.5168 -1.5125
  597MOL0     H80581   8.272   3.474   5.883 -0.0665 -0.3936  0.0728
  597MOL0     H80582   8.321   3.680   5.744  0.3637  1.6044 -0.1786
  597MOL0     H80583   8.659   3.906   5.593  0.8566 -0.0987 -0.4537
  597MOL0     H80584   8.696   4.094   5.438 -0.6613  2.0070  0.5408
  597MOL0     H80585   8.647   4.228   5.257 -0.3405 -0.1838 -0.7864
  597MOL0     H80586   8.468   4.249   5.256  1.4154 -2.2174 -0.2880
  597MOL0     H80587   8.671   4.473   5.222 -0.5701  1.7521 -1.9684
  597MOL0     H80588   8.484   4.480   5.222 -0.6555 -2.2766  0.6595
  597MOL0     H80589   8.476   4.345   5.032 -1.5060 -0.5691  4.1205
  597MOL0     H80590   8.641   4.311   5.033 -1.3186 -0.1245 -0.3579
  597MOL0     H80591   8.695   4.542   4.992 -0.8262 -0.5906  2.2115
  597MOL0     H80592   8.532   4.603   5.029 -1.1918 -0.3972  0.8169
  597MOL0     H80593   8.468   4.492   4.624 -1.8657  0.5484  0.8442
  597MOL0     H80594   8.372   4.312   5.599 -1.3854 -0.0888 -1.5454
  597MOL0     H80595   8.317   4.131   5.748  0.2519  3.7487 -0.8483
  598MOL0     O80596   4.271   7.912   8.527 -0.2848  1.3129 -0.2085
  598MOL0     C80597   4.362   7.884   8.597 -0.3957  0.2862  0.2786
  598MOL0     O80598   4.411   7.758   8.626  0.3642 -0.3971  0.7952
  598MOL0     C80599   4.354   7.652   8.556 -0.3198 -0.6625 -0.1676
  598MOL0     C80600   4.251   7.588   8.621 -0.5964  0.3731  0.1870
  598MOL0     C80601   4.183   7.495   8.540 -0.1432 -0.0555  0.1624
  598MOL0     C80602   4.221   7.461   8.409 -0.5118 -0.1572 -0.8799
  598MOL0     O80603   4.152   7.361   8.335 -0.4290  0.0209  0.0338
  598MOL0     C80604   4.121   7.387   8.200  0.3719  0.1680 -0.0037
  598MOL0     C80605   4.011   7.298   8.153  0.9137 -0.4537 -0.1658
  598MOL0     C80606   3.889   7.321   8.256 -0.3199 -0.6933  0.1709
  598MOL0     C80607   3.754   7.282   8.190 -0.0557 -0.1562  0.6986
  598MOL0     C80608   3.650   7.266   8.296 -0.1721  0.1050  0.2714
  598MOL0     C80609   3.520   7.205   8.230 -0.4781  0.1017  0.0863
  598MOL0     C80610   3.439   7.141   8.338  0.0553  0.0119 -0.1744
  598MOL0     C80611   3.280   7.148   8.330  0.8636  0.8528  0.2161
  598MOL0     N80612   3.229   7.061   8.221 -0.1102  0.5979  0.4059
  598MOL0     C80613   3.115   6.986   8.214 -0.4624 -0.0501 -0.0371
  598MOL0     C80614   3.088   6.959   8.082 -0.6882 -0.4512  0.1739
  598MOL0     C80615   2.975   6.874   8.022 -0.1000  0.0503 -0.0089
  598MOL0     C80616   2.841   6.938   8.063  0.1622  0.9534 -1.0048
  598MOL0     C80617   2.816   7.069   7.981 -0.0451 -0.7190  0.5551
  598MOL0     C80618   2.660   7.089   7.966  0.4289  0.5023  0.2109
  598MOL0     O80619   2.608   7.007   7.860  0.1436  0.3742  0.1435
  598MOL0     C80620   2.473   7.021   7.841 -0.1728  0.3215 -0.2995
  598MOL0     C80621   2.401   6.905   7.792 -0.4221  0.1655 -0.7915
  598MOL0     C80622   2.260   6.903   7.780 -1.1497  0.0239 -1.1653
  598MOL0     C80623   2.197   6.772   7.741 -0.7057  0.1631 -0.3968
  598MOL0     C80624   2.189   7.020   7.809  0.7144 -0.5572  0.8657
  598MOL0     C80625   2.039   7.032   7.795  0.2629 -0.2293  0.0482
  598MOL0     O80626   1.999   7.153   7.757 -0.0029  0.0817  0.1648
  598MOL0     C80627   1.869   7.188   7.756 -0.1712 -0.0672  0.6035
  598MOL0     C80628   1.773   7.159   7.657  0.2741 -0.4625  0.1226
  598MOL0     C80629   1.641   7.200   7.661  0.9549  0.4713  0.5907
  598MOL0     C80630   1.594   7.270   7.778  0.0739 -0.1044 -0.0445
  598MOL0     O80631   1.470   7.322   7.791 -0.1627 -0.2569 -0.0314
  598MOL0     C80632   1.401   7.379   7.683 -0.0358  0.6379  0.4587
  598MOL0     C80633   1.265   7.320   7.685  0.1889 -0.4936  0.2482
  598MOL0     C80634   1.271   7.194   7.597  0.5418  0.2659 -0.0037
  598MOL0     C80635   1.122   7.139   7.585 -0.0363 -0.5839  0.5386
  598MOL0     C80636   1.125   6.988   7.570  0.6679  0.2065 -0.4991
  598MOL0     C80637   0.984   6.937   7.550  0.1388 -0.1701  0.3656
  598MOL0     C80638   0.980   6.781   7.575 -0.0792  0.0476  0.3096
  598MOL0     C80639   0.837   6.736   7.593  1.5351  0.8683 -1.3656
  598MOL0    Cl80640   0.716   6.794   7.455  0.0265 -0.1341  0.3285
  598MOL0     C80641   1.683   7.296   7.875 -0.2097 -0.3837 -0.7174
  598MOL0     C80642   1.816   7.258   7.862 -0.2138  0.5789 -0.4575
  598MOL0     O80643   1.972   6.934   7.810 -0.3109 -0.7167  0.2734
  598MOL0     C80644   2.255   7.139   7.836 -0.3619 -0.0943 -0.8913
  598MOL0     C80645   2.401   7.139   7.851 -0.0423  0.3551  0.0039
  598MOL0     N80646   3.178   7.026   8.007  0.1375 -0.0039  0.4399
  598MOL0     N80647   3.253   7.085   8.091 -0.6885  0.2878  0.0562
  598MOL0     C80648   4.333   7.525   8.351  0.1381  1.4826 -0.1549
  598MOL0     C80649   4.397   7.623   8.426 -0.9188 -0.2723 -1.2802
  598MOL0     C80650   4.431   7.994   8.656 -0.9364  0.2323 -0.1736
  598MOL0     C80651   4.556   7.971   8.721  0.1085  0.3974  0.1723
  598MOL0     C80652   4.614   8.086   8.775  0.0972  0.5535  0.4018
  598MOL0     C80653   4.576   8.219   8.750 -0.2857  0.4147  0.1293
  598MOL0     O80654   4.650   8.328   8.790  0.1531 -0.2755  0.9201
  598MOL0     C80655   4.784   8.322   8.751  0.3583  0.2818 -0.7321
  598MOL0     C80656   4.810   8.329   8.599 -0.5976 -0.0532  0.1821
  598MOL0     C80657   4.946   8.383   8.561 -0.2613 -0.1567  0.0122
  598MOL0     C80658   4.940   8.388   8.412  0.3025 -0.8136 -1.2499
  598MOL0     C80659   4.959   8.262   8.344  0.1890  0.2774  0.2330
  598MOL0     C80660   4.976   8.156   8.287  0.0122  0.3528 -0.1695
  598MOL0     C80661   4.459   8.236   8.672 -0.5112  0.6289 -0.5598
  598MOL0     C80662   4.385   8.130   8.633  0.1949 -0.6786 -0.2830
  598MOL0     H80663   4.225   7.624   8.720  1.2165  4.4537 -0.6361
  598MOL0     H80664   4.095   7.444   8.579  0.3844  0.2295  1.7674
  598MOL0     H80665   4.076   7.487   8.200  5.4620  2.8510  2.1854
  598MOL0     H80666   4.206   7.383   8.132 -0.2466  2.2777 -0.9688
  598MOL0     H80667   3.983   7.325   8.051 -1.9959 -2.4538  0.0060
  598MOL0     H80668   4.045   7.195   8.155 -0.0052 -0.8268 -1.9905
  598MOL0     H80669   3.917   7.268   8.347 -0.2978  1.3507  1.4299
  598MOL0     H80670   3.880   7.425   8.289  0.6316 -0.8523  0.9703
  598MOL0     H80671   3.729   7.347   8.106  1.4905 -1.0211 -0.4736
  598MOL0     H80672   3.772   7.181   8.153  2.9805  0.6229 -0.1827
  598MOL0     H80673   3.687   7.200   8.375  5.4894  0.3025 -1.7643
  598MOL0     H80674   3.630   7.362   8.344 -1.5506 -0.8692  1.7389
  598MOL0     H80675   3.449   7.282   8.197 -1.0246  0.0273  1.0790
  598MOL0     H80676   3.533   7.126   8.155  1.8938 -1.1132  1.6310
  598MOL0     H80677   3.470   7.036   8.346 -2.9089 -0.9771 -0.3661
  598MOL0     H80678   3.459   7.190   8.434  0.3417  1.5210 -0.9839
  598MOL0     H80679   3.249   7.252   8.320  4.0493  2.1092  1.9490
  598MOL0     H80680   3.237   7.115   8.425  2.6255  0.4664  0.9238
  598MOL0     H80681   3.058   6.945   8.297 -0.9991 -1.8630 -1.2605
  598MOL0     H80682   2.985   6.874   7.914  1.3312 -0.0162  0.1095
  598MOL0     H80683   2.981   6.766   8.040  3.4955 -0.4877 -3.3119
  598MOL0     H80684   2.823   6.953   8.169  0.1501  1.0866 -1.0250
  598MOL0     H80685   2.757   6.872   8.038  0.8830 -0.6565  0.6924
  598MOL0     H80686   2.864   7.058   7.883  0.6027  0.2140  0.7641
  598MOL0     H80687   2.858   7.159   8.025  0.3845 -0.0030 -1.2234
  598MOL0     H80688   2.639   7.193   7.939 -1.2065 -0.0177 -0.6137
  598MOL0     H80689   2.608   7.080   8.061  1.6349  0.8985  0.9303
  598MOL0     H80690   2.452   6.809   7.793  1.8242  1.0263  5.0300
  598MOL0     H80691   2.272   6.700   7.705  0.4782  1.0861  0.1573
  598MOL0     H80692   2.171   6.719   7.833 -1.0185  0.6882 -0.1825
  598MOL0     H80693   2.121   6.786   7.663 -1.2254  1.1052  0.2741
  598MOL0     H80694   1.807   7.089   7.581  2.0157  1.6334 -1.1589
  598MOL0     H80695   1.578   7.160   7.582  0.8743 -0.4895  1.1378
  598MOL0     H80696   1.390   7.484   7.713 -4.1647  1.0393 -1.7081
  598MOL0     H80697   1.450   7.371   7.585  0.7278  0.4787  0.8519
  598MOL0     H80698   1.236   7.292   7.787  0.1812 -1.2566  0.0464
  598MOL0     H80699   1.197   7.398   7.650  0.1449 -1.1484 -1.2025
  598MOL0     H80700   1.338   7.121   7.643 -0.4257 -0.4830  0.2562
  598MOL0     H80701   1.315   7.211   7.498  2.3899 -2.5724  0.2233
  598MOL0     H80702   1.058   7.163   7.670 -5.4466 -1.1769 -2.9072
  598MOL0     H80703   1.061   7.191   7.510  1.7368  3.4053  1.5637
  598MOL0     H80704   1.170   6.938   7.656  1.8218 -0.8205 -1.6661
  598MOL0     H80705   1.181   6.962   7.479 -0.1027  2.0899 -1.5753
  598MOL0     H80706   0.927   6.985   7.630  3.3584  2.0762  1.5347
  598MOL0     H80707   0.939   6.964   7.454 -2.0691  1.0131  1.6494
  598MOL0     H80708   1.045   6.740   7.652 -0.6717 -2.2844 -0.3722
  598MOL0     H80709   1.002   6.729   7.481  1.4280  0.8825  0.1670
  598MOL0     H80710   0.798   6.786   7.683 -1.8647  0.6255 -2.5296
  598MOL0     H80711   0.826   6.627   7.597  2.6015  0.7944  0.0852
  598MOL0     H80712   1.660   7.359   7.961 -0.4003 -0.0966 -0.9748
  598MOL0     H80713   1.895   7.282   7.933  0.0639  2.0407 -1.2216
  598MOL0     H80714   2.200   7.231   7.853  3.2573  1.7005  3.2400
  598MOL0     H80715   2.450   7.236   7.852  1.2325 -0.2757  0.6484
  598MOL0     H80716   4.381   7.502   8.256  3.6593  4.3436  0.7429
  598MOL0     H80717   4.476   7.687   8.387 -0.8515  0.3734 -0.1321
  598MOL0     H80718   4.602   7.874   8.735 -1.0120 -0.5250 -2.0095
  598MOL0     H80719   4.708   8.073   8.826  1.8242  1.8032 -2.2283
  598MOL0     H80720   4.829   8.404   8.807  2.5071 -1.6677  0.5837
  598MOL0     H80721   4.833   8.240   8.805  3.0604  1.8329 -0.6552
  598MOL0     H80722   4.732   8.396   8.562 -1.6912  0.3843  2.9989
  598MOL0     H80723   4.804   8.224   8.568 -0.2940 -0.3688  1.1569
  598MOL0     H80724   5.033   8.325   8.593 -0.6650 -0.8733 -0.1595
  598MOL0     H80725   4.955   8.483   8.603 -1.0193  0.4119 -1.1096
  598MOL0     H80726   5.024   8.454   8.387  0.9847 -0.9573  0.5378
  598MOL0     H80727   4.847   8.429   8.372  0.4719  1.2040  0.2714
  598MOL0     H80728   5.001   8.070   8.228 -1.8509  0.1938 -0.7858
  598MOL0     H80729   4.431   8.337   8.644 -2.4802  0.6353  1.1558
  598MOL0     H80730   4.300   8.150   8.569  0.1043 -3.4080 -1.1216
  599MOL0     O80731   7.344   9.795  10.284  0.0550 -0.2558  0.2427
  599MOL0     C80732   7.334   9.675  10.311 -0.1409 -0.8222  0.0286
  599MOL0     O80733   7.435   9.585  10.301 -0.0443 -0.0699  0.2587
  599MOL0     C80734   7.564   9.613  10.285 -0.6406 -1.1023  0.2766
  599MOL0     C80735   7.644   9.509  10.242 -0.5993 -0.0381 -0.3980
  599MOL0     C80736   7.780   9.522  10.230  0.3152  0.0263  0.1287
  599MOL0     C80737   7.840   9.633  10.281  0.6493 -0.1520 -0.0505
  599MOL0     O80738   7.975   9.618  10.305  0.5936  0.0751  0.5329
  599MOL0     C80739   8.038   9.663  10.433 -0.8592  0.0343 -0.4756
  599MOL0     C80740   8.190   9.626  10.451  1.1300  0.0022  0.3413
  599MOL0     C80741   8.226   9.685  10.584 -1.0304  0.0630 -0.0953
  599MOL0     C80742   8.248   9.839  10.585  0.4472 -0.4764 -0.2240
  599MOL0     C80743   8.377   9.888  10.645  0.6953 -0.8050  0.1783
  599MOL0     C80744   8.499   9.855  10.562 -0.2806  0.0060  0.5522
  599MOL0     C80745   8.633   9.876  10.637 -0.0404 -0.5917 -0.3723
  599MOL0     C80746   8.665  10.019  10.679  0.2532 -0.8046  0.1766
  599MOL0     N80747   8.716  10.105  10.564  0.0011  0.1307 -0.2895
  599MOL0     C80748   8.637  10.142  10.461  0.2099 -0.9668 -0.2824
  599MOL0     C80749   8.705  10.235  10.390  0.7271 -0.5107 -0.7902
  599MOL0     C80750   8.675  10.318  10.262  0.3841  0.3310  0.7301
  599MOL0     C80751   8.542  10.393  10.283  0.9829 -0.2559 -0.3848
  599MOL0     C80752   8.568  10.525  10.352 -0.7244 -0.5348 -0.2946
  599MOL0     C80753   8.451  10.585  10.419  0.1908 -0.1217 -0.1148
  599MOL0     O80754   8.351  10.615  10.327 -0.3405 -0.4895  0.7825
  599MOL0     C80755   8.217  10.613  10.362 -0.6035  0.7204 -0.8009
  599MOL0     C80756   8.130  10.603  10.259  0.0479 -0.0431  0.2192
  599MOL0     C80757   7.996  10.641  10.270 -0.1978 -0.1844  0.9082
  599MOL0     C80758   7.915  10.643  10.142 -0.1552  0.2658  0.1209
  599MOL0     C80759   7.957  10.685  10.391  0.4179  0.6472  0.1808
  599MOL0     C80760   7.813  10.727  10.424  0.5244 -0.3935  0.3205
  599MOL0     O80761   7.721  10.636  10.388 -0.3906  0.2741  0.0016
  599MOL0     C80762   7.590  10.655  10.352  0.2829 -0.0143 -0.5597
  599MOL0     C80763   7.504  10.746  10.419 -0.1736  1.2979  0.5789
  599MOL0     C80764   7.368  10.756  10.379  0.0429 -1.0831  1.6245
  599MOL0     C80765   7.319  10.681  10.271  0.1693 -0.9643 -0.8431
  599MOL0     O80766   7.198  10.697  10.218  0.2428 -0.3813 -0.1872
  599MOL0     C80767   7.109  10.787  10.278 -1.2539 -0.2716 -0.5144
  599MOL0     C80768   6.973  10.771  10.208  0.9299 -0.1659 -0.3302
  599MOL0     C80769   6.994  10.780  10.051 -0.3380 -0.4831  0.3844
  599MOL0     C80770   6.861  10.795   9.973  0.1268  0.8482  0.6268
  599MOL0     C80771   6.887  10.768   9.821  0.2547  0.2002  0.0169
  599MOL0     C80772   6.757  10.766   9.739 -0.0038  0.0068  0.3021
  599MOL0     C80773   6.799  10.750   9.592 -0.4938  0.6701 -1.0265
  599MOL0     C80774   6.672  10.718   9.512 -0.8875  0.1305  0.1307
  599MOL0    Cl80775   6.715  10.667   9.348 -0.4628 -0.8933  0.0949
  599MOL0     C80776   7.407  10.598  10.204 -0.2667  0.8559 -0.5812
  599MOL0     C80777   7.537  10.581  10.244  0.5547  0.6013 -0.4355
  599MOL0     O80778   7.790  10.844  10.458  0.1081  0.2581  0.1332
  599MOL0     C80779   8.039  10.687  10.502 -0.3171 -0.9234  0.2251
  599MOL0     C80780   8.183  10.656  10.490 -0.5656  0.2925 -0.3151
  599MOL0     N80781   8.831  10.237  10.442 -0.3286  0.1351  0.2491
  599MOL0     N80782   8.840  10.165  10.551 -0.0763  0.1795 -0.5673
  599MOL0     C80783   7.764   9.737  10.335 -0.8950 -0.0835 -1.1366
  599MOL0     C80784   7.626   9.734  10.321  0.1344  0.5154  0.0056
  599MOL0     C80785   7.199   9.627  10.338 -0.0641 -0.2261 -0.0343
  599MOL0     C80786   7.092   9.713  10.380  0.3100 -0.8626  0.3143
  599MOL0     C80787   6.968   9.657  10.414  0.2554 -0.4277  0.7002
  599MOL0     C80788   6.945   9.523  10.384  0.1813 -0.3794 -0.6596
  599MOL0     O80789   6.825   9.457  10.400 -0.3142 -0.1068 -0.2407
  599MOL0     C80790   6.698   9.524  10.413 -0.6491  0.4781 -1.0868
  599MOL0     C80791   6.580   9.422  10.403 -0.2426  0.2597  0.4155
  599MOL0     C80792   6.554   9.353  10.535 -0.0449 -0.5645  0.0176
  599MOL0     C80793   6.439   9.250  10.505  0.7133  0.2201 -0.0182
  599MOL0     C80794   6.418   9.167  10.621 -0.0411  0.5156 -0.1742
  599MOL0     C80795   6.394   9.094  10.724  0.4304 -0.6983 -0.0184
  599MOL0     C80796   7.041   9.447  10.334  0.5861  0.2068  0.2766
  599MOL0     C80797   7.171   9.491  10.314  0.3159 -0.7743 -0.0265
  599MOL0     H80798   7.602   9.417  10.202 -0.8274  0.5812 -1.6090
  599MOL0     H80799   7.847   9.441  10.205 -2.5226 -2.2344 -0.6218
  599MOL0     H80800   8.027   9.772  10.440 -1.2994  0.0918 -1.7875
  599MOL0     H80801   7.993   9.628  10.527  2.0672  1.5307  1.6603
  599MOL0     H80802   8.200   9.519  10.432 -3.0548 -0.0768 -2.9436
  599MOL0     H80803   8.252   9.667  10.370 -3.1324 -0.9034 -3.8793
  599MOL0     H80804   8.158   9.647  10.660  1.1078  1.8761  2.9233
  599MOL0     H80805   8.318   9.641  10.623 -2.6489 -1.6056  2.0615
  599MOL0     H80806   8.262   9.878  10.484  3.2701  1.1901  0.7027
  599MOL0     H80807   8.153   9.875  10.625  0.2582 -1.0153 -0.1765
  599MOL0     H80808   8.344   9.992  10.655 -3.8026 -1.8361 -1.1503
  599MOL0     H80809   8.395   9.851  10.746  0.8220  0.4516  0.6398
  599MOL0     H80810   8.494   9.765  10.500  1.1608  1.9653 -2.6809
  599MOL0     H80811   8.496   9.925  10.478 -0.0743 -1.2099 -0.4993
  599MOL0     H80812   8.630   9.824  10.734  2.2238  1.7637  1.1059
  599MOL0     H80813   8.720   9.851  10.576  0.1999  1.6894 -1.0438
  599MOL0     H80814   8.738  10.011  10.760  0.4191  0.7589  0.2088
  599MOL0     H80815   8.583  10.077  10.724  1.7535 -0.2498  2.3678
  599MOL0     H80816   8.533  10.112  10.450 -0.0478 -0.1523 -0.1549
  599MOL0     H80817   8.760  10.383  10.245 -0.6812  1.2839 -1.3187
  599MOL0     H80818   8.669  10.256  10.172 -4.0104 -0.0657  1.0613
  599MOL0     H80819   8.482  10.331  10.350  0.8874 -0.5184 -0.7113
  599MOL0     H80820   8.490  10.411  10.188  2.6479  0.9695 -1.1297
  599MOL0     H80821   8.606  10.599  10.282  1.9476  1.4944  2.9859
  599MOL0     H80822   8.648  10.514  10.426  1.3842 -1.1569 -2.5465
  599MOL0     H80823   8.488  10.672  10.473  2.3834 -0.6772 -0.6381
  599MOL0     H80824   8.416  10.511  10.492 -0.5676  1.0867  0.7839
  599MOL0     H80825   8.151  10.586  10.154 -1.8010  1.6351 -0.4959
  599MOL0     H80826   7.833  10.570  10.141 -0.1179  0.1848  1.2650
  599MOL0     H80827   7.865  10.739  10.129 -0.3491 -0.0332 -1.5172
  599MOL0     H80828   7.980  10.631  10.055  1.3344  1.3887  1.0274
  599MOL0     H80829   7.547  10.799  10.504  1.1143 -2.4395  2.4783
  599MOL0     H80830   7.309  10.836  10.423  1.0671 -0.6809  2.2964
  599MOL0     H80831   7.104  10.760  10.384  0.0540 -1.6988 -0.7730
  599MOL0     H80832   7.149  10.887  10.261 -0.3604 -0.9770 -2.9755
  599MOL0     H80833   6.935  10.669  10.220  2.4604 -0.4455  4.1363
  599MOL0     H80834   6.900  10.845  10.244 -2.7472 -2.9783 -1.3655
  599MOL0     H80835   7.051  10.696  10.010  1.8985  2.3706 -2.9408
  599MOL0     H80836   7.045  10.871  10.017 -5.2848  1.7712 -1.9876
  599MOL0     H80837   6.794  10.713  10.000  0.0719  1.2020  1.5756
  599MOL0     H80838   6.808  10.887   9.998 -1.0152  0.4185 -0.1083
  599MOL0     H80839   6.940  10.672   9.816  1.1162  0.4655  2.4146
  599MOL0     H80840   6.952  10.846   9.782 -1.3268  0.7000 -1.7519
  599MOL0     H80841   6.698  10.679   9.771 -0.8668  0.9425  1.3338
  599MOL0     H80842   6.705  10.863   9.738  0.5631  0.3619  1.9285
  599MOL0     H80843   6.873  10.671   9.575 -1.4081 -0.5851  0.4685
  599MOL0     H80844   6.856  10.839   9.568  0.0116  0.9798  1.1011
  599MOL0     H80845   6.622  10.816   9.514  2.4268  1.9784  0.6777
  599MOL0     H80846   6.619  10.637   9.562 -0.7136 -0.4343 -0.5799
  599MOL0     H80847   7.376  10.552  10.111 -0.2723 -0.9276  0.2726
  599MOL0     H80848   7.598  10.520  10.177  0.4049 -0.7269  0.5981
  599MOL0     H80849   7.983  10.695  10.595 -1.1077  2.3369 -0.4042
  599MOL0     H80850   8.256  10.671  10.568  1.8946  1.7150 -2.7323
  599MOL0     H80851   7.807   9.829  10.373 -1.9253  0.1004 -0.3539
  599MOL0     H80852   7.576   9.820  10.364 -0.9714  0.1810 -0.5604
  599MOL0     H80853   7.116   9.819  10.392  0.3736 -0.9719  1.2509
  599MOL0     H80854   6.893   9.716  10.465  0.9294  1.4788 -0.4093
  599MOL0     H80855   6.693   9.577  10.508 -1.9923 -1.6349  0.1085
  599MOL0     H80856   6.691   9.588  10.325  1.1789  1.8088 -0.3163
  599MOL0     H80857   6.608   9.349  10.326 -0.1890 -0.9882  1.5665
  599MOL0     H80858   6.492   9.475  10.366 -0.3178  0.0786  0.3315
  599MOL0     H80859   6.519   9.432  10.602  3.0416  1.0493 -0.0995
  599MOL0     H80860   6.650   9.321  10.575 -0.0873  0.4356  0.9767
  599MOL0     H80861   6.463   9.186  10.420 -1.4572  0.0672 -0.5665
  599MOL0     H80862   6.346   9.305  10.486 -1.1419 -1.8087  2.4847
  599MOL0     H80863   6.387   9.025  10.805 -2.1659  1.1434  1.4576
  599MOL0     H80864   7.023   9.340  10.323 -0.9962  0.4836 -0.0426
  599MOL0     H80865   7.239   9.412  10.284  1.1028 -0.2634  0.3824
  600MOL0     O80866   0.735   9.907   3.479  0.7265  0.7029  0.3713
  600MOL0     C80867   0.729   9.795   3.530  0.1315 -0.7683  0.0902
  600MOL0     O80868   0.639   9.698   3.509 -0.2582  0.1504  0.6156
  600MOL0     C80869   0.569   9.718   3.391 -0.3404  1.0847  1.1076
  600MOL0     C80870   0.434   9.744   3.408 -0.4464 -0.5180  0.2830
  600MOL0     C80871   0.346   9.765   3.299  0.7345 -0.2817  0.6928
  600MOL0     C80872   0.395   9.754   3.169  0.4037 -0.2961 -0.3679
  600MOL0     O80873   0.312   9.747   3.067  0.2263  0.1751  0.1793
  600MOL0     C80874   0.341   9.840   2.957  0.2947 -0.5590 -0.4184
  600MOL0     C80875   0.234   9.821   2.844 -0.1711 -0.1595 -0.7962
  600MOL0     C80876   0.249   9.698   2.768 -0.1045  0.7623  0.3422
  600MOL0     C80877   0.167   9.709   2.639  0.3858  0.3836 -0.6815
  600MOL0     C80878   0.178   9.571   2.568  0.1991 -0.2964 -0.6623
  600MOL0     C80879   0.100   9.557   2.446 -0.3460  0.6820  0.0558
  600MOL0     C80880   0.090   9.406   2.403  0.5813 -0.2010  0.3177
  600MOL0     C80881  -0.028   9.394   2.318 -0.3588 -0.4487 -0.0607
  600MOL0     N80882  -0.017   9.472   2.196  0.3840 -0.0481 -0.2923
  600MOL0     C80883  -0.119   9.545   2.148 -0.8889 -0.3465 -0.0030
  600MOL0     C80884  -0.074   9.584   2.020 -0.0092  0.2763 -0.7818
  600MOL0     C80885  -0.164   9.617   1.900 -0.0442 -0.2536 -0.2687
  600MOL0     C80886  -0.100   9.714   1.805  0.4495 -0.7458  0.8126
  600MOL0     C80887  -0.197   9.743   1.687 -0.0192  0.3604 -0.3288
  600MOL0     C80888  -0.167   9.891   1.636 -0.3083  0.3937  0.4774
  600MOL0     O80889  -0.258   9.919   1.529 -0.0156  0.8207  0.4088
  600MOL0     C80890  -0.343  10.016   1.546 -0.4608  0.2709  0.0696
  600MOL0     C80891  -0.451   9.991   1.624 -0.4048  0.0881  0.7710
  600MOL0     C80892  -0.545  10.091   1.644  0.0780  0.4531  0.2777
  600MOL0     C80893  -0.672  10.071   1.724  1.1882  0.8608 -0.0005
  600MOL0     C80894  -0.535  10.216   1.573 -0.5378  0.9787  0.2137
  600MOL0     C80895  -0.616  10.339   1.594 -0.2542 -1.0309  0.5324
  600MOL0     O80896  -0.749  10.329   1.599 -1.1067 -0.4905 -0.8686
  600MOL0     C80897  -0.838  10.431   1.604  0.5570  0.8940 -1.0413
  600MOL0     C80898  -0.972  10.381   1.623  0.9871 -0.1903  0.3016
  600MOL0     C80899  -1.071  10.458   1.673  0.3861  0.3833  0.0517
  600MOL0     C80900  -1.047  10.601   1.679  0.4481 -0.0824 -0.5601
  600MOL0     O80901  -1.135  10.700   1.726 -0.1338 -0.3983 -0.0502
  600MOL0     C80902  -1.258  10.647   1.757 -0.1056 -0.4845 -0.5906
  600MOL0     C80903  -1.349  10.769   1.784 -0.5558 -0.4664  0.7488
  600MOL0     C80904  -1.485  10.728   1.837 -0.0801  1.1420 -0.2921
  600MOL0     C80905  -1.591  10.838   1.824  0.3507  0.0095 -0.8284
  600MOL0     C80906  -1.720  10.787   1.878  0.8755  0.9037 -0.7827
  600MOL0     C80907  -1.783  10.688   1.784  1.0395  0.0634  0.2057
  600MOL0     C80908  -1.923  10.660   1.847  0.1477  0.7405  0.3092
  600MOL0     C80909  -1.995  10.567   1.765  0.1208 -0.2535 -0.7124
  600MOL0    Cl80910  -2.166  10.553   1.814 -0.0221  0.2146 -0.2275
  600MOL0     C80911  -0.926  10.658   1.646  0.3918  0.5392  1.5122
  600MOL0     C80912  -0.822  10.568   1.612  0.2251 -0.5718  0.4713
  600MOL0     O80913  -0.553  10.450   1.597  0.9024  0.6631  0.0781
  600MOL0     C80914  -0.422  10.230   1.489 -0.5657  0.8251 -0.1123
  600MOL0     C80915  -0.339  10.129   1.463 -0.8629 -0.3567 -0.1111
  600MOL0     N80916   0.050   9.529   2.004 -0.3150  0.1779 -0.2932
  600MOL0     N80917   0.079   9.458   2.111  0.4121  0.0372  0.6223
  600MOL0     C80918   0.529   9.722   3.150  0.3224  0.6562  0.3358
  600MOL0     C80919   0.622   9.708   3.258 -0.0335  0.3157  0.4456
  600MOL0     C80920   0.813   9.781   3.642 -0.3131 -0.8901  0.4492
  600MOL0     C80921   0.855   9.889   3.719  0.6154 -0.5833  0.2518
  600MOL0     C80922   0.926   9.859   3.833 -0.6007 -0.1993  0.4359
  600MOL0     C80923   0.960   9.725   3.875 -0.8407  1.1646  0.0279
  600MOL0     O80924   1.029   9.706   3.998  0.2571 -0.5744 -0.1631
  600MOL0     C80925   1.088   9.581   4.026 -0.2409  0.5770  0.2862
  600MOL0     C80926   1.166   9.590   4.158 -0.0938  0.2675 -0.0588
  600MOL0     C80927   1.302   9.654   4.141 -0.0682  0.0488  0.3235
  600MOL0     C80928   1.393   9.623   4.263  0.4216  1.0425  0.2851
  600MOL0     C80929   1.518   9.689   4.250  0.4780 -0.1523  0.1858
  600MOL0     C80930   1.614   9.763   4.245 -0.2911  0.3431  0.7467
  600MOL0     C80931   0.931   9.621   3.778  0.6534  0.8938 -0.7476
  600MOL0     C80932   0.856   9.652   3.672 -0.5070  0.7459  0.0081
  600MOL0     H80933   0.397   9.754   3.510  0.3203  1.1870  0.4463
  600MOL0     H80934   0.241   9.787   3.313  0.6422 -1.4751  2.1231
  600MOL0     H80935   0.355   9.942   2.995  2.6928 -0.3959 -1.5241
  600MOL0     H80936   0.437   9.816   2.909  0.3590 -1.2016  0.0236
  600MOL0     H80937   0.131   9.848   2.872 -0.0407  1.0180 -1.4007
  600MOL0     H80938   0.264   9.901   2.775  0.9994  0.3277  0.2622
  600MOL0     H80939   0.351   9.675   2.734 -0.1663 -0.8237  1.1511
  600MOL0     H80940   0.221   9.606   2.819  1.8221 -3.3530 -4.9510
  600MOL0     H80941   0.063   9.728   2.667 -0.0705 -2.9796  0.4166
  600MOL0     H80942   0.199   9.793   2.577  1.3064  2.1162  1.9641
  600MOL0     H80943   0.284   9.559   2.543  0.1475  2.4514 -2.6141
  600MOL0     H80944   0.153   9.491   2.639 -3.8131  0.9144 -0.4983
  600MOL0     H80945   0.002   9.596   2.473 -0.9234 -0.4916 -0.2974
  600MOL0     H80946   0.134   9.621   2.364 -2.8422  1.7280 -0.2647
  600MOL0     H80947   0.184   9.379   2.353  1.9659 -0.4837  2.9276
  600MOL0     H80948   0.069   9.348   2.493 -1.0229 -0.3458 -0.1273
  600MOL0     H80949  -0.118   9.430   2.369  0.8667 -0.8563  2.5402
  600MOL0     H80950  -0.048   9.290   2.293 -3.1830  0.2557 -1.1817
  600MOL0     H80951  -0.219   9.537   2.190 -0.5879 -1.6757  0.5284
  600MOL0     H80952  -0.197   9.522   1.858  1.3800 -0.4505 -1.0248
  600MOL0     H80953  -0.241   9.665   1.961  0.6372  1.4452 -0.6913
  600MOL0     H80954  -0.012   9.666   1.760 -1.2479 -0.9884 -2.5301
  600MOL0     H80955  -0.054   9.799   1.856 -0.8036  1.5121 -1.5850
  600MOL0     H80956  -0.303   9.750   1.713 -0.7094  1.9507 -3.2125
  600MOL0     H80957  -0.192   9.661   1.615 -1.7133 -2.6744  2.6992
  600MOL0     H80958  -0.068   9.912   1.596 -0.7045  0.4357 -0.5133
  600MOL0     H80959  -0.185   9.952   1.724  1.8476  4.4841 -1.6456
  600MOL0     H80960  -0.463   9.895   1.672 -1.5676 -0.5659 -0.7261
  600MOL0     H80961  -0.696   9.964   1.728 -2.1985  1.5729  1.7426
  600MOL0     H80962  -0.668  10.114   1.824  2.1333  0.3579  0.1987
  600MOL0     H80963  -0.763  10.100   1.671 -0.3641 -1.7421  1.0449
  600MOL0     H80964  -0.989  10.274   1.622  0.8197 -0.3685  4.4887
  600MOL0     H80965  -1.162  10.409   1.707 -1.2138  1.5930 -2.2352
  600MOL0     H80966  -1.310  10.585   1.683  0.7030 -2.4280  0.4028
  600MOL0     H80967  -1.251  10.584   1.847  1.7935  0.8962  0.2839
  600MOL0     H80968  -1.287  10.834   1.846 -1.5878  0.7648  0.5292
  600MOL0     H80969  -1.365  10.820   1.688  3.0155 -1.3550 -0.4599
  600MOL0     H80970  -1.472  10.701   1.942  1.4431 -2.0199 -1.1841
  600MOL0     H80971  -1.515  10.637   1.784 -1.1674  1.3067  0.0237
  600MOL0     H80972  -1.568  10.924   1.887  2.5492 -0.5999 -0.7354
  600MOL0     H80973  -1.592  10.875   1.721  0.7563  0.6255 -0.6149
  600MOL0     H80974  -1.795  10.861   1.908 -0.7790 -1.0533  0.0966
  600MOL0     H80975  -1.696  10.738   1.972  1.4692  2.5885 -0.0093
  600MOL0     H80976  -1.801  10.745   1.692  1.7354  1.9317  1.1791
  600MOL0     H80977  -1.723  10.597   1.776 -1.1895 -1.3405 -2.4876
  600MOL0     H80978  -1.982  10.752   1.855  1.5391  1.6410  0.6734
  600MOL0     H80979  -1.915  10.618   1.948 -1.5878  3.0450  1.4988
  600MOL0     H80980  -1.954  10.465   1.764  1.6596  0.3253 -2.7228
  600MOL0     H80981  -1.993  10.602   1.661 -3.6523 -2.7142 -1.8052
  600MOL0     H80982  -0.917  10.765   1.661 -2.2911  0.7784  1.7871
  600MOL0     H80983  -0.724  10.614   1.600  0.2477 -0.0045  2.4802
  600MOL0     H80984  -0.419  10.312   1.418 -4.1046  0.0215 -1.3721
  600MOL0     H80985  -0.253  10.132   1.398  0.7647 -0.3704  1.9350
  600MOL0     H80986   0.576   9.692   3.057  0.2723 -1.0690  0.8298
  600MOL0     H80987   0.728   9.691   3.237 -0.2653 -0.4246 -0.1634
  600MOL0     H80988   0.835   9.991   3.687 -2.4454 -0.9098  0.8613
  600MOL0     H80989   0.956   9.938   3.900  1.1079 -1.5752  1.3998
  600MOL0     H80990   1.007   9.508   4.032 -0.4385  0.5865 -1.5572
  600MOL0     H80991   1.162   9.553   3.951  0.8263 -1.2660  1.9470
  600MOL0     H80992   1.188   9.491   4.200 -2.2385  1.8155  5.7858
  600MOL0     H80993   1.105   9.654   4.223 -0.7488 -1.8526  1.5329
  600MOL0     H80994   1.295   9.763   4.132 -0.0418 -0.0525 -1.1122
  600MOL0     H80995   1.358   9.610   4.058 -1.3162 -0.8115 -0.0952
  600MOL0     H80996   1.401   9.515   4.280 -2.7465  0.7489  0.4999
  600MOL0     H80997   1.343   9.661   4.353  1.0293  1.6255  0.3886
  600MOL0     H80998   1.701   9.825   4.242  1.1507 -1.5487 -2.3496
  600MOL0     H80999   0.944   9.516   3.803 -1.5529  0.8471  0.4010
  600MOL0     H81000   0.822   9.566   3.615 -0.6224 -0.8491  2.3439
  601MOL0     O81001   4.333   2.066  10.113  0.4004  0.1748  0.3578
  601MOL0     C81002   4.391   2.008  10.016  0.5795 -0.4521 -0.3254
  601MOL0     O81003   4.343   1.994   9.891 -0.6753  0.1891 -0.3005
  601MOL0     C81004   4.209   2.025   9.865  0.5299 -0.7055 -0.2993
  601MOL0     C81005   4.159   2.156   9.843  0.9398  1.3516 -0.6866
  601MOL0     C81006   4.022   2.178   9.831  0.7202  0.0643 -0.2945
  601MOL0     C81007   3.932   2.061   9.841  0.1618  0.4260  0.0850
  601MOL0     O81008   3.789   2.068   9.844  0.2182 -0.4080 -0.5517
  601MOL0     C81009   3.729   2.196   9.819  0.7785 -0.6336  0.4024
  601MOL0     C81010   3.726   2.278   9.945 -0.0210 -0.0745  0.1222
  601MOL0     C81011   3.628   2.221  10.047  0.6793 -0.1982  0.3891
  601MOL0     C81012   3.479   2.240  10.005 -0.6117 -0.2406  0.1715
  601MOL0     C81013   3.376   2.196  10.113  0.4998 -0.3758  0.0026
  601MOL0     C81014   3.241   2.158  10.051 -0.0213 -0.2027 -0.0855
  601MOL0     C81015   3.166   2.071  10.149 -0.1611  0.5342 -0.2970
  601MOL0     C81016   3.019   2.056  10.119  0.5079 -0.6168  0.1208
  601MOL0     N81017   2.951   2.179  10.154 -0.1399 -0.3815  0.7121
  601MOL0     C81018   2.918   2.274  10.061  0.3587 -0.5545  0.7638
  601MOL0     C81019   2.834   2.355  10.129  0.6672  0.4322 -0.2612
  601MOL0     C81020   2.779   2.490  10.077  0.2686 -0.0101 -0.3239
  601MOL0     C81021   2.625   2.502  10.095 -0.3920 -0.7366 -0.1889
  601MOL0     C81022   2.578   2.547  10.235 -0.4464  0.0564 -0.0630
  601MOL0     C81023   2.437   2.600  10.232 -0.0271  0.4150 -1.3052
  601MOL0     O81024   2.363   2.496  10.171 -0.2906  0.8598  0.0462
  601MOL0     C81025   2.236   2.533  10.123  0.3415 -0.2417 -0.3047
  601MOL0     C81026   2.163   2.429  10.076  0.1900 -0.3774  1.1555
  601MOL0     C81027   2.027   2.446  10.037 -0.1612 -1.0915  0.1837
  601MOL0     C81028   1.953   2.316  10.003 -0.2115 -0.8786 -0.1407
  601MOL0     C81029   1.968   2.575  10.025 -0.4653 -0.0976 -0.1545
  601MOL0     C81030   1.832   2.603   9.964 -0.2059 -0.0421 -0.1012
  601MOL0     O81031   1.763   2.501   9.907  0.4167  0.4568  1.0888
  601MOL0     C81032   1.630   2.505   9.873  0.0523  0.5299  0.2265
  601MOL0     C81033   1.530   2.451   9.953 -0.6889 -0.9019  0.3750
  601MOL0     C81034   1.399   2.461   9.918  0.1740 -0.8493  0.6609
  601MOL0     C81035   1.355   2.536   9.807 -0.5615  0.9074 -0.6252
  601MOL0     O81036   1.224   2.553   9.777  0.3051  0.5032 -0.4494
  601MOL0     C81037   1.148   2.597   9.895 -0.1277  0.4743  0.0195
  601MOL0     C81038   1.003   2.627   9.856  0.0268 -0.3768 -0.6795
  601MOL0     C81039   0.988   2.719   9.730  1.1086  0.4191 -0.2925
  601MOL0     C81040   0.851   2.785   9.730 -0.5473 -0.1006  0.0739
  601MOL0     C81041   0.727   2.693   9.718 -0.6545  0.5543 -0.9485
  601MOL0     C81042   0.606   2.752   9.657  0.3626 -0.8673 -0.6919
  601MOL0     C81043   0.476   2.673   9.686  0.0972 -0.0802 -0.5203
  601MOL0     C81044   0.357   2.737   9.613 -1.3702 -0.2467  0.7603
  601MOL0    Cl81045   0.218   2.617   9.595  0.2197 -0.0168  0.0323
  601MOL0     C81046   1.457   2.578   9.720 -0.0322  1.0435  0.4121
  601MOL0     C81047   1.593   2.559   9.750  0.4965  0.0917  0.2818
  601MOL0     O81048   1.784   2.714   9.979  0.2798 -0.4794 -0.1091
  601MOL0     C81049   2.047   2.676  10.081 -0.0055  0.1696 -0.4852
  601MOL0     C81050   2.170   2.658  10.133 -0.7679 -0.5472  0.3659
  601MOL0     N81051   2.807   2.298  10.259  0.0371  0.0499  0.4788
  601MOL0     N81052   2.872   2.193  10.265 -0.7529  0.2917 -0.5839
  601MOL0     C81053   3.993   1.936   9.876  0.5983  0.2440  0.1207
  601MOL0     C81054   4.121   1.923   9.891  1.1348 -0.9316 -0.2120
  601MOL0     C81055   4.533   1.981  10.030 -0.0988  0.2419 -0.0185
  601MOL0     C81056   4.610   2.008  10.149  0.8357 -0.6205 -0.6590
  601MOL0     C81057   4.741   1.971  10.165  0.7562 -0.1508 -0.0612
  601MOL0     C81058   4.818   1.932  10.054  0.0962  0.4689 -0.9347
  601MOL0     O81059   4.953   1.903  10.070  0.0823 -0.1390  0.5648
  601MOL0     C81060   5.042   1.974   9.972 -0.1487 -0.1369  0.4844
  601MOL0     C81061   5.134   1.883   9.887 -0.0450  0.1132  0.3149
  601MOL0     C81062   5.258   1.837   9.971  1.0909  0.5559 -0.5563
  601MOL0     C81063   5.339   1.721   9.918 -1.0134 -0.5940  0.2314
  601MOL0     C81064   5.386   1.744   9.778  0.0512  0.1961 -0.6306
  601MOL0     C81065   5.413   1.771   9.660 -0.6416 -0.6453 -1.1832
  601MOL0     C81066   4.752   1.935   9.930 -0.4462  0.2223  0.0413
  601MOL0     C81067   4.613   1.946   9.921 -0.1770 -0.9983  0.8211
  601MOL0     H81068   4.226   2.241   9.834  2.1628  0.5182  0.2546
  601MOL0     H81069   3.976   2.275   9.818  0.6042 -0.3414 -3.7496
  601MOL0     H81070   3.778   2.246   9.735 -0.4796 -0.6581 -0.3691
  601MOL0     H81071   3.630   2.194   9.774  0.5741 -0.1686  0.8124
  601MOL0     H81072   3.828   2.297   9.979  0.7419  0.8297 -2.4161
  601MOL0     H81073   3.697   2.377   9.908 -2.1059 -1.4297 -2.2726
  601MOL0     H81074   3.649   2.115  10.062 -1.8065 -0.5560  1.9612
  601MOL0     H81075   3.639   2.280  10.139 -1.2293  3.3709 -1.4316
  601MOL0     H81076   3.461   2.344   9.976  0.9607 -0.6819 -2.7764
  601MOL0     H81077   3.458   2.187   9.911  1.5013  0.9693 -1.0324
  601MOL0     H81078   3.420   2.105  10.155  0.5482 -0.2183  0.2951
  601MOL0     H81079   3.360   2.279  10.183 -0.0607 -1.2865  0.9751
  601MOL0     H81080   3.192   2.254  10.038 -1.1671 -0.6847  0.4946
  601MOL0     H81081   3.259   2.117   9.951  0.2042  0.9889 -0.5518
  601MOL0     H81082   3.206   1.970  10.152 -2.3400 -0.3882 -0.0724
  601MOL0     H81083   3.173   2.099  10.255  1.3665 -1.1162  0.0839
  601MOL0     H81084   2.973   1.976  10.177  1.9324 -1.1361  0.5726
  601MOL0     H81085   3.000   2.033  10.014  0.9257  2.3821 -0.7208
  601MOL0     H81086   2.951   2.279   9.958 -0.6276 -1.8412  0.3662
  601MOL0     H81087   2.819   2.569  10.142 -0.1660  0.4439 -0.5992
  601MOL0     H81088   2.797   2.515   9.973 -0.0482 -1.2810 -0.7001
  601MOL0     H81089   2.574   2.414  10.055 -0.5366  0.2375 -2.2684
  601MOL0     H81090   2.594   2.582  10.027  0.6822  0.3535  0.5512
  601MOL0     H81091   2.649   2.612  10.287 -0.7119 -0.9733  1.6751
  601MOL0     H81092   2.595   2.468  10.309  2.7921  1.5326  0.9767
  601MOL0     H81093   2.440   2.696  10.180  2.4801  0.4909 -1.1275
  601MOL0     H81094   2.410   2.613  10.337  2.7044  3.1839 -0.8358
  601MOL0     H81095   2.198   2.326  10.078  0.5896 -0.2393  2.7896
  601MOL0     H81096   1.851   2.324  10.040 -0.1856 -0.6975 -0.1092
  601MOL0     H81097   1.959   2.308   9.894  4.4478  0.7530 -0.2234
  601MOL0     H81098   2.006   2.227  10.040 -1.8787 -2.3880 -1.2150
  601MOL0     H81099   1.575   2.400  10.038  3.4499  3.2294  1.0605
  601MOL0     H81100   1.334   2.422   9.995  1.3106 -3.8472  0.2294
  601MOL0     H81101   1.153   2.530   9.982 -0.3939  1.6177  0.9471
  601MOL0     H81102   1.195   2.689   9.932  0.1369  1.2966 -2.2137
  601MOL0     H81103   0.937   2.543   9.834 -0.4661 -0.0107 -0.6130
  601MOL0     H81104   0.954   2.681   9.937 -0.9590 -1.5367 -0.4703
  601MOL0     H81105   0.997   2.663   9.636 -0.7103  1.4646 -1.1478
  601MOL0     H81106   1.060   2.801   9.743  0.4676  1.1742 -1.3889
  601MOL0     H81107   0.843   2.836   9.827  1.5817  2.0611 -0.7584
  601MOL0     H81108   0.847   2.859   9.649  3.4835  1.0211  0.6369
  601MOL0     H81109   0.712   2.663   9.822  2.9156  1.8221  0.0734
  601MOL0     H81110   0.752   2.612   9.650  0.0759  2.1453 -2.6704
  601MOL0     H81111   0.598   2.855   9.691  1.3444 -0.3692 -1.8703
  601MOL0     H81112   0.613   2.745   9.548 -2.2774 -2.7860 -0.8496
  601MOL0     H81113   0.454   2.650   9.790 -1.2117 -0.8037 -0.9277
  601MOL0     H81114   0.484   2.573   9.642 -0.7403 -0.4577  0.1650
  601MOL0     H81115   0.378   2.781   9.515 -2.1644 -0.3036  0.5589
  601MOL0     H81116   0.331   2.820   9.680  1.4616 -0.4542  2.2412
  601MOL0     H81117   1.419   2.624   9.629 -1.2823 -0.3376  0.2060
  601MOL0     H81118   1.669   2.596   9.682 -0.1327 -1.1350 -1.1341
  601MOL0     H81119   2.008   2.776  10.096  0.0352 -0.0192  1.0437
  601MOL0     H81120   2.216   2.748  10.174 -0.9671 -0.2152 -0.1313
  601MOL0     H81121   3.920   1.857   9.890 -0.0500  0.7848 -0.1263
  601MOL0     H81122   4.162   1.834   9.936  1.4831 -0.3524  0.6241
  601MOL0     H81123   4.568   2.054  10.237  1.6925 -1.5721  0.2808
  601MOL0     H81124   4.790   1.988  10.261 -0.3022 -0.3426  0.5323
  601MOL0     H81125   4.985   2.038   9.904 -0.1910 -0.1610  0.4961
  601MOL0     H81126   5.112   2.034  10.030  1.8522 -2.0154  0.1266
  601MOL0     H81127   5.154   1.948   9.801 -0.4961 -0.9315 -0.6124
  601MOL0     H81128   5.071   1.798   9.858  1.1554 -0.7787  0.2395
  601MOL0     H81129   5.224   1.809  10.071 -0.3602  2.7549 -0.3509
  601MOL0     H81130   5.333   1.916   9.980  1.3173  0.1150  2.6168
  601MOL0     H81131   5.284   1.626   9.918 -0.4694 -0.9147  0.1621
  601MOL0     H81132   5.434   1.719   9.973 -0.8895 -1.8788  0.0016
  601MOL0     H81133   5.450   1.815   9.570 -1.6239  2.3658 -0.2290
  601MOL0     H81134   4.808   1.900   9.844  0.5438 -3.8814  2.1170
  601MOL0     H81135   4.587   1.929   9.817  2.0025  2.7725 -0.5608
  602MOL0     O81136   0.479   4.996   9.640 -0.9844  0.2642  0.2809
  602MOL0     C81137   0.444   4.897   9.704  0.4962 -0.1466 -0.0481
  602MOL0     O81138   0.523   4.805   9.762 -0.5279 -0.1494 -0.2217
  602MOL0     C81139   0.654   4.831   9.781  0.9444  0.1224 -0.4880
  602MOL0     C81140   0.717   4.951   9.821  0.7480  0.1044 -1.3446
  602MOL0     C81141   0.853   4.961   9.850 -0.2775  0.9523 -0.1399
  602MOL0     C81142   0.942   4.856   9.836 -0.0472  0.6321  1.3872
  602MOL0     O81143   1.080   4.859   9.849  0.7414 -0.3222 -0.4435
  602MOL0     C81144   1.151   4.974   9.881  1.2306 -0.3183  0.4274
  602MOL0     C81145   1.297   4.950   9.854  0.4561  1.6403 -0.7099
  602MOL0     C81146   1.361   4.886   9.968 -0.5289  0.4702  0.4894
  602MOL0     C81147   1.504   4.845   9.927  0.1708 -0.1765  0.2197
  602MOL0     C81148   1.557   4.739  10.031  0.3190 -0.3910  0.2024
  602MOL0     C81149   1.611   4.824  10.144 -0.4839 -0.6412  0.0883
  602MOL0     C81150   1.631   4.746  10.282  0.0923  0.5143  0.4877
  602MOL0     C81151   1.768   4.669  10.283  0.0640  0.0593 -0.0570
  602MOL0     N81152   1.798   4.642  10.425 -0.1646 -0.3327  0.5895
  602MOL0     C81153   1.846   4.726  10.516  0.6148  0.3104  0.7316
  602MOL0     C81154   1.876   4.649  10.620  0.6665 -0.5388 -0.1707
  602MOL0     C81155   1.922   4.707  10.750 -0.0581  0.3215 -0.4474
  602MOL0     C81156   1.843   4.639  10.867  0.0310 -0.3761 -0.1957
  602MOL0     C81157   1.881   4.709  10.999  0.2328  1.0583  0.3613
  602MOL0     C81158   1.784   4.685  11.112  0.2422 -0.3186  0.2706
  602MOL0     O81159   1.837   4.615  11.224  0.2234 -0.7244  0.2183
  602MOL0     C81160   1.939   4.667  11.292 -0.9768 -0.8948 -0.8147
  602MOL0     C81161   1.977   4.579  11.392  0.8696 -1.0835  0.7747
  602MOL0     C81162   2.088   4.600  11.475 -0.3932 -0.1761  0.5385
  602MOL0     C81163   2.110   4.498  11.590 -0.4323 -0.6182  1.2749
  602MOL0     C81164   2.156   4.728  11.469  0.5403 -0.3774  0.0788
  602MOL0     C81165   2.292   4.753  11.529  0.5766 -0.4643  0.7814
  602MOL0     O81166   2.353   4.655  11.596  0.4913  0.9944  0.7487
  602MOL0     C81167   2.438   4.681  11.706  0.0731 -0.1573  0.3338
  602MOL0     C81168   2.382   4.744  11.814 -1.6309  0.3690  0.6762
  602MOL0     C81169   2.457   4.765  11.935  0.5424 -0.9735  0.5941
  602MOL0     C81170   2.595   4.733  11.942  1.3120 -0.6806 -0.3793
  602MOL0     O81171   2.657   4.782  12.051  0.1123  0.8121 -0.1739
  602MOL0     C81172   2.791   4.742  12.073 -0.4727 -1.1359  0.2954
  602MOL0     C81173   2.831   4.798  12.199  0.6537  0.4516  0.1410
  602MOL0     C81174   2.969   4.737  12.244  0.6632 -0.4349 -0.7001
  602MOL0     C81175   3.091   4.777  12.160  0.3906  0.2099  0.3553
  602MOL0     C81176   3.232   4.735  12.210 -0.5333  0.3766 -0.6241
  602MOL0     C81177   3.225   4.580  12.230 -0.5794 -0.0000 -0.3828
  602MOL0     C81178   3.368   4.529  12.265 -0.0318 -0.6826 -0.2660
  602MOL0     C81179   3.382   4.376  12.315  0.6629 -0.2624 -0.0739
  602MOL0    Cl81180   3.346   4.259  12.182  0.3383 -0.1087 -0.2133
  602MOL0     C81181   2.647   4.667  11.828  0.3649 -0.1664  0.1724
  602MOL0     C81182   2.572   4.650  11.706 -0.1612  0.7136 -0.2284
  602MOL0     O81183   2.352   4.863  11.501  0.0026 -0.5647 -0.7454
  602MOL0     C81184   2.107   4.827  11.372 -0.7228  0.6887  0.3941
  602MOL0     C81185   2.003   4.797  11.288 -0.3933  0.7166  0.1549
  602MOL0     N81186   1.834   4.524  10.599 -0.8508 -0.6160  0.4373
  602MOL0     N81187   1.791   4.522  10.477  0.7691 -0.5438  0.0345
  602MOL0     C81188   0.878   4.738   9.790 -0.1407  0.4948 -0.1768
  602MOL0     C81189   0.736   4.725   9.777 -0.2666 -0.5691 -0.0987
  602MOL0     C81190   0.296   4.889   9.727 -0.7699  0.4628  0.6242
  602MOL0     C81191   0.212   4.960   9.631  0.7298  1.2051 -0.3889
  602MOL0     C81192   0.072   4.932   9.639 -0.2448 -0.7248  0.1368
  602MOL0     C81193   0.021   4.857   9.745 -0.5993 -0.5425 -0.0210
  602MOL0     O81194  -0.116   4.843   9.748 -0.0401  0.5231  0.0061
  602MOL0     C81195  -0.185   4.766   9.850 -0.4243 -1.2177 -0.3861
  602MOL0     C81196  -0.329   4.820   9.862 -0.3371 -0.1460 -0.1763
  602MOL0     C81197  -0.407   4.772   9.993 -0.0954  0.8297 -0.1108
  602MOL0     C81198  -0.431   4.623  10.001 -0.7987 -0.9193  0.4306
  602MOL0     C81199  -0.519   4.584   9.891 -0.0845 -0.1329  0.0340
  602MOL0     C81200  -0.614   4.572   9.816  0.3117  0.0471 -0.4405
  602MOL0     C81201   0.110   4.783   9.821  0.4536 -0.0255 -0.9182
  602MOL0     C81202   0.246   4.794   9.818  0.3717 -0.2861 -0.4647
  602MOL0     H81203   0.654   5.038   9.835 -1.3186 -1.5398  0.2419
  602MOL0     H81204   0.897   5.054   9.884  4.7271 -0.3130 -2.1147
  602MOL0     H81205   1.116   5.062   9.825  0.4954 -1.7819 -1.5010
  602MOL0     H81206   1.141   4.998   9.987  1.4544 -1.4094  0.6969
  602MOL0     H81207   1.316   4.894   9.762  1.0411  0.5040  0.0821
  602MOL0     H81208   1.353   5.043   9.845  0.2240  2.0839  1.7860
  602MOL0     H81209   1.353   4.948  10.058 -1.3959  0.6939  0.2656
  602MOL0     H81210   1.313   4.790   9.985 -1.6448  0.7730 -0.7925
  602MOL0     H81211   1.510   4.801   9.827  0.8201 -3.2160  1.4610
  602MOL0     H81212   1.574   4.929   9.930  0.8919 -0.6185 -2.0851
  602MOL0     H81213   1.482   4.667  10.065  0.9170 -0.9174  0.4515
  602MOL0     H81214   1.632   4.674   9.985  1.4812  0.7997  0.3506
  602MOL0     H81215   1.702   4.878  10.117 -2.2546  1.3493 -2.3115
  602MOL0     H81216   1.544   4.909  10.159 -1.1062 -0.7648 -1.8084
  602MOL0     H81217   1.639   4.811  10.370  2.2224  1.0529 -0.0521
  602MOL0     H81218   1.555   4.669  10.298 -1.3425  1.4813 -1.3478
  602MOL0     H81219   1.831   4.742  10.232 -2.5366  3.1019  0.7697
  602MOL0     H81220   1.758   4.573  10.231  1.4437 -0.8461  1.2600
  602MOL0     H81221   1.863   4.832  10.506 -2.5562  0.7510 -1.3653
  602MOL0     H81222   2.023   4.676  10.776  0.8355  0.8617 -3.0217
  602MOL0     H81223   1.912   4.816  10.758  0.6537  0.2706  3.9642
  602MOL0     H81224   1.861   4.532  10.884  4.8261 -0.0475 -1.5748
  602MOL0     H81225   1.741   4.667  10.840  0.4120  0.0162 -1.2749
  602MOL0     H81226   1.890   4.815  10.972  1.4043  0.9294  0.2205
  602MOL0     H81227   1.976   4.669  11.034 -0.3156  0.4051  1.1430
  602MOL0     H81228   1.699   4.626  11.076  0.2601  0.8224 -1.8035
  602MOL0     H81229   1.734   4.777  11.145  2.1223  1.4126 -1.4249
  602MOL0     H81230   1.928   4.482  11.390 -0.7992 -0.4833  4.5582
  602MOL0     H81231   2.122   4.566  11.675  2.9213  1.1087 -0.4070
  602MOL0     H81232   2.018   4.439  11.604 -0.8097 -0.4628 -0.4112
  602MOL0     H81233   2.205   4.444  11.587  0.4642  0.9627 -1.2350
  602MOL0     H81234   2.288   4.793  11.791 -2.6023 -1.9751 -0.7382
  602MOL0     H81235   2.414   4.822  12.016 -1.6017  1.9151 -2.2938
  602MOL0     H81236   2.797   4.635  12.053 -0.1521 -0.6859 -2.4874
  602MOL0     H81237   2.862   4.784  12.000 -0.4401  0.0452  0.9716
  602MOL0     H81238   2.845   4.906  12.203  2.7961  0.2558 -0.7104
  602MOL0     H81239   2.751   4.776  12.270  1.1474 -1.6760  0.1110
  602MOL0     H81240   2.955   4.629  12.249 -1.3021 -0.1830  0.2366
  602MOL0     H81241   2.996   4.769  12.345 -1.4731  1.2145 -0.5751
  602MOL0     H81242   3.080   4.733  12.061 -1.0103 -0.4270  0.7551
  602MOL0     H81243   3.088   4.885  12.143  2.6339  0.0022 -2.0048
  602MOL0     H81244   3.247   4.779  12.309  1.4770 -1.0017 -0.2533
  602MOL0     H81245   3.310   4.752  12.135  3.5535 -0.3476  3.0456
  602MOL0     H81246   3.160   4.555  12.315  1.5082  3.5620  2.5587
  602MOL0     H81247   3.185   4.525  12.144 -1.9645  0.3876 -0.0104
  602MOL0     H81248   3.402   4.584  12.353  3.3699 -3.5034  0.4086
  602MOL0     H81249   3.439   4.542  12.183 -0.9062 -0.0494 -0.9447
  602MOL0     H81250   3.323   4.354  12.404 -0.4127 -1.8822 -1.1228
  602MOL0     H81251   3.488   4.369  12.342 -0.1464  0.2164  3.6439
  602MOL0     H81252   2.751   4.637  11.827  1.2799  2.6579  1.7026
  602MOL0     H81253   2.615   4.597  11.622  4.2673  2.8159  0.4294
  602MOL0     H81254   2.155   4.924  11.378  0.9155  0.0420 -1.1730
  602MOL0     H81255   1.969   4.874  11.220 -2.2608  0.2895  0.5555
  602MOL0     H81256   0.944   4.653   9.772 -0.1133  0.1232  1.4941
  602MOL0     H81257   0.696   4.625   9.762  1.2077 -1.3823  1.0808
  602MOL0     H81258   0.253   5.028   9.557 -0.8180  0.3695 -2.0871
  602MOL0     H81259   0.002   4.971   9.565  1.0277 -2.0154 -1.8464
  602MOL0     H81260  -0.188   4.658   9.838 -0.2395 -1.8256  3.6831
  602MOL0     H81261  -0.130   4.788   9.942 -1.4007  1.8484 -0.3964
  602MOL0     H81262  -0.383   4.792   9.771 -1.3723  1.1804  0.0066
  602MOL0     H81263  -0.311   4.927   9.859 -0.1298 -0.2025 -1.8834
  602MOL0     H81264  -0.497   4.831  10.013 -1.7593 -1.0646 -1.6651
  602MOL0     H81265  -0.337   4.789  10.076  2.1321  1.8786 -2.0695
  602MOL0     H81266  -0.488   4.609  10.093  0.1704  0.0720  1.2063
  602MOL0     H81267  -0.344   4.560  10.017 -2.1648 -3.2880 -0.9073
  602MOL0     H81268  -0.693   4.564   9.745 -2.3997 -1.3835  2.4885
  602MOL0     H81269   0.061   4.715   9.891  1.6171  0.4855  0.4441
  602MOL0     H81270   0.313   4.729   9.875 -0.8247 -2.1852 -1.1313
  603MOL0     O81271   2.125  10.942   2.384 -0.1834 -0.6862  0.8877
  603MOL0     C81272   2.115  10.884   2.488  0.2106 -0.2608 -0.3169
  603MOL0     O81273   2.007  10.801   2.526  0.2815  0.0849  0.1991
  603MOL0     C81274   1.908  10.778   2.442  0.8080 -0.2908 -0.7772
  603MOL0     C81275   1.775  10.787   2.477  0.7710 -0.3639 -0.6754
  603MOL0     C81276   1.666  10.751   2.400  0.1202  0.7538 -0.7026
  603MOL0     C81277   1.703  10.704   2.274 -0.4521  0.4120 -0.0973
  603MOL0     O81278   1.610  10.682   2.174 -0.3630  0.1645 -0.0937
  603MOL0     C81279   1.525  10.784   2.138 -0.1406 -0.3252 -0.5673
  603MOL0     C81280   1.398  10.716   2.081 -0.1760  0.1781 -0.0581
  603MOL0     C81281   1.346  10.606   2.172  0.4814  0.0399  0.4816
  603MOL0     C81282   1.283  10.667   2.308 -0.1586 -0.0085  1.1888
  603MOL0     C81283   1.188  10.589   2.393  0.2654 -0.1095 -0.5037
  603MOL0     C81284   1.148  10.667   2.520  0.7091 -0.0947  0.4797
  603MOL0     C81285   1.050  10.587   2.608 -0.7460 -0.3147  0.2591
  603MOL0     C81286   0.969  10.664   2.706  0.3812 -1.0261  0.4184
  603MOL0     N81287   1.053  10.742   2.794 -0.3599 -0.3446  0.1786
  603MOL0     C81288   1.001  10.845   2.865  0.1155 -0.1670  0.5856
  603MOL0     C81289   1.093  10.874   2.961 -0.7156 -0.2528  0.0630
  603MOL0     C81290   1.082  10.977   3.077  0.4751 -0.2092  0.5995
  603MOL0     C81291   0.985  10.937   3.190  0.0746 -0.0539  0.0601
  603MOL0     C81292   1.030  11.021   3.300  0.0407 -0.2531 -0.2628
  603MOL0     C81293   0.959  10.978   3.425 -0.7227 -0.2715  0.6688
  603MOL0     O81294   0.975  11.079   3.517 -0.0514 -0.0821 -1.3069
  603MOL0     C81295   0.916  11.204   3.508 -0.0965  0.2450 -0.2466
  603MOL0     C81296   0.963  11.300   3.599 -0.6913 -0.6419  0.5876
  603MOL0     C81297   0.901  11.425   3.615  0.6926  0.3807 -0.1183
  603MOL0     C81298   0.955  11.512   3.718 -1.1171  0.9323 -0.8496
  603MOL0     C81299   0.807  11.469   3.511  0.3123  0.5970 -0.2664
  603MOL0     C81300   0.739  11.611   3.502  0.5591 -0.0856  0.5076
  603MOL0     O81301   0.619  11.629   3.436 -0.5570  0.3230 -0.3737
  603MOL0     C81302   0.584  11.749   3.379  0.0093 -0.3554 -0.2537
  603MOL0     C81303   0.683  11.839   3.330 -0.3932 -0.6709 -0.2840
  603MOL0     C81304   0.645  11.952   3.259 -0.1699  0.1743 -0.1338
  603MOL0     C81305   0.505  11.990   3.248 -0.8374  0.1143  0.0768
  603MOL0     O81306   0.462  12.099   3.170 -0.0405  0.6379 -0.2625
  603MOL0     C81307   0.545  12.209   3.183  0.2426 -0.5009  0.3409
  603MOL0     C81308   0.473  12.339   3.131  0.1639 -0.1510 -0.8612
  603MOL0     C81309   0.410  12.391   3.255 -0.3284  0.1030 -0.0881
  603MOL0     C81310   0.331  12.517   3.245 -0.2438 -0.6857  0.0059
  603MOL0     C81311   0.314  12.604   3.375  0.6847  0.1351  0.5706
  603MOL0     C81312   0.221  12.723   3.355  0.3621  0.5054 -0.5271
  603MOL0     C81313   0.301  12.836   3.299 -0.6939  0.3810  0.7634
  603MOL0     C81314   0.215  12.963   3.272  0.8184  0.3440 -0.1148
  603MOL0    Cl81315   0.130  12.927   3.107 -0.3412 -0.0908  0.1344
  603MOL0     C81316   0.412  11.907   3.300  0.5751 -0.7905 -1.5819
  603MOL0     C81317   0.454  11.793   3.379  0.0885 -1.2065 -0.0351
  603MOL0     O81318   0.798  11.702   3.559  0.6600  0.4254 -0.0075
  603MOL0     C81319   0.756  11.364   3.433  0.6297  0.3514  0.3962
  603MOL0     C81320   0.813  11.234   3.424 -0.0404 -0.3139  0.0043
  603MOL0     N81321   1.188  10.782   2.955 -0.3672  0.0997  0.1768
  603MOL0     N81322   1.156  10.691   2.872 -0.8569 -0.3459 -0.1564
  603MOL0     C81323   1.834  10.677   2.241  0.2280 -0.3063  0.0065
  603MOL0     C81324   1.936  10.723   2.320 -0.4289  1.0045 -1.0958
  603MOL0     C81325   2.233  10.885   2.580  0.3769 -0.2324  0.9847
  603MOL0     C81326   2.233  10.819   2.705  0.0479 -0.2424 -0.1304
  603MOL0     C81327   2.327  10.845   2.798  0.8012  0.4794  0.3522
  603MOL0     C81328   2.420  10.943   2.780  0.2713 -0.6132  0.7565
  603MOL0     O81329   2.513  10.970   2.876 -0.0296  0.1698 -0.5685
  603MOL0     C81330   2.463  10.986   3.007  0.8290  0.7593 -0.3577
  603MOL0     C81331   2.582  11.019   3.094 -1.0585 -0.0073  0.1174
  603MOL0     C81332   2.549  11.108   3.211  0.8999 -0.6058  1.3909
  603MOL0     C81333   2.649  11.118   3.329 -0.1970 -0.0098  0.6176
  603MOL0     C81334   2.778  11.179   3.288  0.8769 -0.2252  0.0338
  603MOL0     C81335   2.879  11.231   3.263 -0.2986 -0.0771 -0.0232
  603MOL0     C81336   2.437  10.998   2.652 -0.1210 -0.5829  0.4443
  603MOL0     C81337   2.341  10.988   2.558  0.5288  0.9488 -0.1994
  603MOL0     H81338   1.762  10.831   2.575  3.0027  1.7158 -1.1923
  603MOL0     H81339   1.568  10.762   2.445 -1.6198 -2.0671 -3.3996
  603MOL0     H81340   1.486  10.841   2.222 -2.3648 -1.8418 -0.4951
  603MOL0     H81341   1.568  10.850   2.062 -3.5768 -0.5860 -2.9927
  603MOL0     H81342   1.334  10.804   2.077 -1.8521 -1.0110 -0.3439
  603MOL0     H81343   1.418  10.677   1.980 -0.1597 -2.9018  1.0370
  603MOL0     H81344   1.270  10.547   2.120  2.1800 -1.6718 -0.1424
  603MOL0     H81345   1.424  10.536   2.202  0.3449 -0.3387 -0.0475
  603MOL0     H81346   1.367  10.698   2.370  1.4645  1.0990 -1.3942
  603MOL0     H81347   1.233  10.758   2.276 -1.9834 -1.8864 -1.8262
  603MOL0     H81348   1.106  10.557   2.327  1.2300 -0.9514 -1.3391
  603MOL0     H81349   1.232  10.492   2.420  0.5938  0.2321  0.2037
  603MOL0     H81350   1.235  10.710   2.571 -1.0470  0.3451  3.3279
  603MOL0     H81351   1.087  10.753   2.487 -0.5108  0.2141  3.2328
  603MOL0     H81352   0.986  10.533   2.538 -0.1466 -0.2914 -0.3124
  603MOL0     H81353   1.115  10.511   2.652 -1.6833 -2.2695 -1.5525
  603MOL0     H81354   0.909  10.598   2.770 -0.8683 -0.6250 -0.3035
  603MOL0     H81355   0.898  10.725   2.649 -2.4062 -2.4229  2.1476
  603MOL0     H81356   0.910  10.901   2.845  0.0651 -0.3266  0.3609
  603MOL0     H81357   1.182  10.986   3.121 -0.6119 -1.0290  3.4791
  603MOL0     H81358   1.046  11.069   3.030  0.3917 -1.1010 -1.1462
  603MOL0     H81359   0.987  10.829   3.208  0.3692  0.1310  1.2167
  603MOL0     H81360   0.881  10.965   3.167  0.2406 -1.5274 -3.0744
  603MOL0     H81361   1.009  11.128   3.291  0.0216 -0.2417 -0.0836
  603MOL0     H81362   1.139  11.019   3.309  0.0048 -1.6323  0.0602
  603MOL0     H81363   1.001  10.888   3.471  2.1602  0.9388  0.5635
  603MOL0     H81364   0.852  10.957   3.415 -0.5255 -0.3311 -2.6062
  603MOL0     H81365   1.046  11.272   3.663 -1.6756 -2.3802  1.1660
  603MOL0     H81366   0.883  11.554   3.788 -0.0854 -0.2667  1.0329
  603MOL0     H81367   1.014  11.448   3.784  0.8262  2.9994 -0.4685
  603MOL0     H81368   1.019  11.585   3.668  1.4323 -1.0454 -0.6695
  603MOL0     H81369   0.790  11.821   3.327  0.0573  1.8279 -1.5009
  603MOL0     H81370   0.735  12.003   3.227 -0.8483 -0.0297 -2.5851
  603MOL0     H81371   0.589  12.220   3.283  1.7130 -2.3368 -0.0606
  603MOL0     H81372   0.623  12.191   3.109  0.2631 -2.5730  0.8210
  603MOL0     H81373   0.543  12.410   3.086  0.0212  0.3871 -0.2599
  603MOL0     H81374   0.400  12.316   3.053 -1.1241  0.1370  0.2188
  603MOL0     H81375   0.498  12.415   3.315  1.0020 -0.5887 -1.6705
  603MOL0     H81376   0.349  12.309   3.293  0.3877 -0.2004  0.4164
  603MOL0     H81377   0.364  12.574   3.158 -0.5171 -1.3377 -0.5401
  603MOL0     H81378   0.228  12.486   3.221 -0.4456  0.5946 -0.8728
  603MOL0     H81379   0.415  12.631   3.409  0.2387 -0.8843  2.8757
  603MOL0     H81380   0.256  12.551   3.451 -0.2732  4.0760  2.8841
  603MOL0     H81381   0.131  12.701   3.297 -0.3284  1.6640  0.0611
  603MOL0     H81382   0.182  12.767   3.448  1.7736  1.1830 -0.2391
  603MOL0     H81383   0.359  12.804   3.212  0.4879  2.4021  0.7428
  603MOL0     H81384   0.382  12.864   3.366  2.7758  1.7868 -3.5064
  603MOL0     H81385   0.263  13.061   3.267  0.1751  0.6559 -0.3628
  603MOL0     H81386   0.140  12.960   3.352  0.0574  0.7261 -0.7936
  603MOL0     H81387   0.308  11.936   3.305  1.5793  3.1521  1.9780
  603MOL0     H81388   0.383  11.728   3.429 -0.1355 -0.7662  0.2212
  603MOL0     H81389   0.670  11.398   3.376  1.6679  1.8120 -0.3634
  603MOL0     H81390   0.774  11.154   3.362  2.2437 -5.0909  4.0139
  603MOL0     H81391   1.851  10.629   2.145 -0.5090  0.4341 -0.5166
  603MOL0     H81392   2.036  10.702   2.282 -1.2289  0.7882 -3.2239
  603MOL0     H81393   2.157  10.747   2.733 -1.6381  0.5119 -2.5083
  603MOL0     H81394   2.319  10.789   2.890 -0.6988  1.9437  1.1755
  603MOL0     H81395   2.396  11.072   3.010  1.9174  1.6297 -0.4325
  603MOL0     H81396   2.408  10.899   3.047 -0.5828  0.4916 -2.6815
  603MOL0     H81397   2.655  11.071   3.031 -1.0221 -0.1174  0.0675
  603MOL0     H81398   2.627  10.924   3.124 -3.9532 -2.1997 -1.9793
  603MOL0     H81399   2.450  11.079   3.248 -1.3526  3.0806 -1.0614
  603MOL0     H81400   2.531  11.208   3.171  1.5050 -1.0247 -0.0067
  603MOL0     H81401   2.667  11.016   3.362  0.3160 -0.0939  0.0879
  603MOL0     H81402   2.593  11.177   3.403 -0.2978  0.7802 -0.0669
  603MOL0     H81403   2.977  11.270   3.241  0.2145 -1.0654  0.4678
  603MOL0     H81404   2.521  11.064   2.641 -2.6840  2.3895 -5.5675
  603MOL0     H81405   2.362  11.043   2.467  2.0362  0.8881  0.0874
  604MOL0     O81406   7.010   9.409   2.650  0.1278 -0.1764  0.0498
  604MOL0     C81407   6.961   9.356   2.754  0.3556  1.4066  0.1722
  604MOL0     O81408   6.830   9.346   2.793  0.6547 -0.8166  0.9791
  604MOL0     C81409   6.731   9.425   2.736 -0.5615  0.7564  0.0678
  604MOL0     C81410   6.745   9.560   2.688  0.0541  1.0053 -0.2158
  604MOL0     C81411   6.634   9.630   2.635 -0.6497  0.3981 -0.3254
  604MOL0     C81412   6.507   9.566   2.621 -0.3115  0.5786  0.1461
  604MOL0     O81413   6.407   9.627   2.549 -0.4135  0.6165 -0.0353
  604MOL0     C81414   6.337   9.736   2.610  0.1822 -0.4816  0.1011
  604MOL0     C81415   6.239   9.796   2.509 -0.5698  0.0751 -0.4411
  604MOL0     C81416   6.119   9.708   2.488  0.1273 -0.2060  0.2065
  604MOL0     C81417   6.032   9.759   2.373  0.5837 -0.7547  0.4283
  604MOL0     C81418   5.928   9.659   2.323  0.6574  0.5745  0.0487
  604MOL0     C81419   5.825   9.624   2.435  0.8655 -0.2154  0.6823
  604MOL0     C81420   5.729   9.518   2.371 -1.5343  0.4611  0.1029
  604MOL0     C81421   5.643   9.462   2.473  0.1750  0.0206 -0.0750
  604MOL0     N81422   5.559   9.572   2.527 -0.5503  0.6447  0.7172
  604MOL0     C81423   5.430   9.593   2.500 -0.5002 -0.8754 -0.4042
  604MOL0     C81424   5.393   9.687   2.587  0.3872  0.3361 -0.2380
  604MOL0     C81425   5.255   9.731   2.597  0.4685 -0.2092 -1.1285
  604MOL0     C81426   5.185   9.624   2.684 -0.0792 -1.1059  0.5115
  604MOL0     C81427   5.035   9.643   2.695 -0.4126 -0.8452  1.0284
  604MOL0     C81428   4.992   9.755   2.796  0.4602 -0.0645  0.4368
  604MOL0     O81429   4.843   9.746   2.804 -0.0460 -0.2760  0.7122
  604MOL0     C81430   4.774   9.821   2.895  0.6002  0.3953 -0.5639
  604MOL0     C81431   4.629   9.821   2.880 -0.7751 -0.7555 -0.7353
  604MOL0     C81432   4.554   9.898   2.973  0.1139  0.1966  0.6655
  604MOL0     C81433   4.402   9.900   2.935 -0.1487  0.1663  0.2863
  604MOL0     C81434   4.616   9.979   3.070 -0.2741 -0.5884 -0.1870
  604MOL0     C81435   4.549  10.062   3.172  0.5770  0.3709  0.1621
  604MOL0     O81436   4.437  10.000   3.226 -0.0941 -0.7639 -0.4869
  604MOL0     C81437   4.355  10.077   3.302  0.5107  0.2677  0.1409
  604MOL0     C81438   4.402  10.155   3.409 -0.5201 -0.4273 -0.0785
  604MOL0     C81439   4.309  10.238   3.474  0.5046 -0.6790 -0.9664
  604MOL0     C81440   4.174  10.249   3.434 -0.4610 -1.0916  0.6021
  604MOL0     O81441   4.081  10.331   3.498  0.2989  0.4103  0.0223
  604MOL0     C81442   4.067  10.463   3.436  0.0682  0.7470  0.5624
  604MOL0     C81443   3.928  10.522   3.448  0.0894 -0.5781  0.1338
  604MOL0     C81444   3.812  10.439   3.377  0.0094  0.1497  0.0753
  604MOL0     C81445   3.679  10.523   3.367 -0.3663 -0.5152 -1.0007
  604MOL0     C81446   3.548  10.451   3.340 -0.2440 -0.1033  0.6203
  604MOL0     C81447   3.428  10.530   3.376  1.1557  0.9159 -0.0350
  604MOL0     C81448   3.428  10.675   3.331  0.1458  0.3369 -0.3975
  604MOL0     C81449   3.288  10.739   3.355 -1.3872 -0.1326 -0.0920
  604MOL0    Cl81450   3.296  10.904   3.287  0.3635 -0.3801  0.0744
  604MOL0     C81451   4.128  10.166   3.335 -1.0890  0.0872  0.1189
  604MOL0     C81452   4.219  10.075   3.270  0.1539  0.7638  0.3524
  604MOL0     O81453   4.594  10.169   3.200 -0.2979 -0.0773 -0.0893
  604MOL0     C81454   4.756   9.980   3.072  0.0429 -0.1300 -0.4308
  604MOL0     C81455   4.838   9.906   2.990  0.3155  0.6079  0.2925
  604MOL0     N81456   5.501   9.726   2.661 -0.3560 -0.3571 -0.3474
  604MOL0     N81457   5.602   9.656   2.624  1.1144 -0.6335 -0.2795
  604MOL0     C81458   6.492   9.441   2.672  0.3215 -0.0304  0.0632
  604MOL0     C81459   6.599   9.373   2.730  0.3084  0.4569 -0.4402
  604MOL0     C81460   7.071   9.285   2.832 -0.7514 -1.3888 -0.6345
  604MOL0     C81461   7.192   9.247   2.774 -0.2225 -0.0331  0.1088
  604MOL0     C81462   7.286   9.179   2.848  0.3441 -0.1359  0.6106
  604MOL0     C81463   7.264   9.129   2.980 -0.3719 -0.5959  0.1024
  604MOL0     O81464   7.367   9.070   3.046  0.3462 -0.4487 -0.3999
  604MOL0     C81465   7.328   8.995   3.164  0.7199  0.4113 -0.1113
  604MOL0     C81466   7.443   8.895   3.201  0.2407  0.7374  0.0869
  604MOL0     C81467   7.466   8.860   3.357  0.4437  0.0653 -0.0738
  604MOL0     C81468   7.597   8.790   3.378  0.0233  0.1808  0.2757
  604MOL0     C81469   7.601   8.753   3.520 -0.1338  0.1499  0.2702
  604MOL0     C81470   7.622   8.768   3.642  0.0389  0.5542  0.3224
  604MOL0     C81471   7.138   9.168   3.041  0.4052 -0.2735  0.1996
  604MOL0     C81472   7.048   9.252   2.964 -1.8112  0.8619 -0.7252
  604MOL0     H81473   6.841   9.609   2.679  1.8393 -2.5137 -3.0991
  604MOL0     H81474   6.653   9.727   2.592 -0.2289  0.1728 -0.6515
  604MOL0     H81475   6.279   9.698   2.694 -1.8985  5.2939  1.7301
  604MOL0     H81476   6.407   9.812   2.645 -1.1334  1.4634 -1.2786
  604MOL0     H81477   6.201   9.891   2.547  0.0881  1.1107 -2.2392
  604MOL0     H81478   6.289   9.803   2.412  0.1847 -2.1538 -0.2757
  604MOL0     H81479   6.160   9.609   2.464 -2.1044 -1.4876  1.3663
  604MOL0     H81480   6.066   9.703   2.583  0.5665 -0.1722  0.4552
  604MOL0     H81481   5.980   9.851   2.403  3.0201  0.8587  0.0684
  604MOL0     H81482   6.099   9.790   2.292  1.2090 -0.3464  1.0814
  604MOL0     H81483   5.867   9.705   2.246 -0.2110 -1.5210 -0.5998
  604MOL0     H81484   5.977   9.571   2.279  0.8890  0.0923  1.2156
  604MOL0     H81485   5.883   9.582   2.518  2.5718 -2.4048 -1.4687
  604MOL0     H81486   5.765   9.710   2.465 -0.7157  0.1083 -2.8916
  604MOL0     H81487   5.675   9.547   2.281 -0.9216 -2.9160 -1.5234
  604MOL0     H81488   5.798   9.440   2.336 -1.3743  0.5415  0.2346
  604MOL0     H81489   5.689   9.430   2.567  0.5272 -0.8165 -0.5161
  604MOL0     H81490   5.588   9.380   2.426  0.0547  0.6266 -1.0016
  604MOL0     H81491   5.368   9.556   2.420 -2.2413  0.4641  0.2548
  604MOL0     H81492   5.259   9.831   2.640  3.9106 -0.2554 -1.0801
  604MOL0     H81493   5.200   9.731   2.502 -0.8374  2.8113 -0.4905
  604MOL0     H81494   5.228   9.640   2.784 -1.9341  1.8790  0.9641
  604MOL0     H81495   5.191   9.526   2.636 -0.2492 -0.3418 -1.1332
  604MOL0     H81496   4.998   9.550   2.738 -2.0039 -1.3117 -1.1316
  604MOL0     H81497   4.997   9.662   2.594  0.4305 -1.0991  0.6581
  604MOL0     H81498   5.018   9.858   2.771  3.7324  0.0296  3.3809
  604MOL0     H81499   5.039   9.725   2.890  1.5906  3.3355  1.0942
  604MOL0     H81500   4.578   9.764   2.803  1.1941 -2.0944 -1.1106
  604MOL0     H81501   4.344   9.967   2.999  2.2107  1.8703  0.7691
  604MOL0     H81502   4.385   9.898   2.827 -1.0946 -4.0784  0.3543
  604MOL0     H81503   4.353   9.805   2.959 -1.7358  0.2839 -2.1089
  604MOL0     H81504   4.508  10.155   3.432  0.0285  0.8518 -2.2816
  604MOL0     H81505   4.328  10.296   3.564 -1.5529 -0.7570 -0.4413
  604MOL0     H81506   4.133  10.536   3.484  1.3976  0.6433 -1.0100
  604MOL0     H81507   4.097  10.451   3.331 -2.6965  0.3870 -0.2498
  604MOL0     H81508   3.904  10.556   3.550 -2.8818  0.4529 -0.8074
  604MOL0     H81509   3.938  10.618   3.398  2.1549  0.6538  2.6215
  604MOL0     H81510   3.802  10.340   3.423  3.8457 -0.2111  0.3912
  604MOL0     H81511   3.846  10.418   3.275  0.1888 -0.3542  0.2384
  604MOL0     H81512   3.668  10.569   3.466 -0.9405 -6.0869  1.9096
  604MOL0     H81513   3.692  10.594   3.285  0.9868 -2.4149 -2.5206
  604MOL0     H81514   3.552  10.353   3.386  1.4120 -0.4767 -0.2428
  604MOL0     H81515   3.546  10.437   3.231  0.8774  0.8595  0.4507
  604MOL0     H81516   3.351  10.483   3.315 -0.8098  1.1795  2.1176
  604MOL0     H81517   3.409  10.521   3.484  1.3957  0.0089 -0.0630
  604MOL0     H81518   3.455  10.676   3.225  1.5749 -0.1304 -0.0613
  604MOL0     H81519   3.505  10.732   3.384  1.9234  0.5135 -3.0094
  604MOL0     H81520   3.262  10.733   3.460 -0.4049 -3.9830  0.0889
  604MOL0     H81521   3.210  10.689   3.297  0.3692 -1.2078 -1.6703
  604MOL0     H81522   4.026  10.185   3.304 -0.6121  1.9448 -0.4869
  604MOL0     H81523   4.193  10.003   3.193 -1.0889  0.9430  0.5846
  604MOL0     H81524   4.823  10.049   3.121 -0.6499  0.5219 -0.3923
  604MOL0     H81525   4.945   9.917   2.987  0.4597 -0.6963 -1.8963
  604MOL0     H81526   6.389   9.408   2.662 -0.2851  1.1325  2.0616
  604MOL0     H81527   6.578   9.280   2.782 -4.2779  2.4027  1.8438
  604MOL0     H81528   7.218   9.274   2.672 -2.0388  0.2858 -0.3155
  604MOL0     H81529   7.385   9.163   2.805 -0.5662 -0.4641 -1.4963
  604MOL0     H81530   7.320   9.066   3.247 -1.2442  1.9541 -1.5124
  604MOL0     H81531   7.229   8.950   3.153  0.2956  0.2935  3.1571
  604MOL0     H81532   7.538   8.923   3.155  0.6335 -0.1020  0.3693
  604MOL0     H81533   7.410   8.806   3.148  3.4018  0.9257 -2.4784
  604MOL0     H81534   7.385   8.809   3.410  0.0230  1.5535  0.7737
  604MOL0     H81535   7.493   8.960   3.393  2.7317  1.4272 -4.7791
  604MOL0     H81536   7.680   8.855   3.351 -0.9568  1.0637 -0.6929
  604MOL0     H81537   7.617   8.703   3.315  1.1791  0.5541  0.1012
  604MOL0     H81538   7.633   8.768   3.749 -1.0128  0.3937  0.4332
  604MOL0     H81539   7.118   9.149   3.146  5.0988 -3.5941  0.7891
  604MOL0     H81540   6.952   9.284   3.001 -1.9772  2.4136 -2.3310
  605MOL0     O81541   7.089   8.818   9.255 -0.0856  0.6626 -0.4575
  605MOL0     C81542   7.011   8.807   9.160  0.1312 -0.3512  0.6816
  605MOL0     O81543   7.041   8.753   9.033  0.2973 -0.7740 -0.2280
  605MOL0     C81544   7.161   8.701   9.023  0.5741 -0.3210  0.5181
  605MOL0     C81545   7.272   8.782   9.012 -0.0229 -0.0973 -0.4343
  605MOL0     C81546   7.407   8.734   9.005  0.1761  0.8123  0.9201
  605MOL0     C81547   7.434   8.594   9.003  0.2213 -0.1210 -0.1687
  605MOL0     O81548   7.567   8.549   8.977  0.0978  0.1772 -0.3282
  605MOL0     C81549   7.574   8.420   8.900  0.3850 -1.0192 -0.9966
  605MOL0     C81550   7.643   8.424   8.771  0.3580 -0.2047 -0.0480
  605MOL0     C81551   7.557   8.484   8.664  0.0797  0.1563  0.0218
  605MOL0     C81552   7.619   8.430   8.537 -0.4857  0.4594 -0.9058
  605MOL0     C81553   7.573   8.493   8.407 -0.2077 -0.0751  0.0729
  605MOL0     C81554   7.597   8.642   8.372  0.4150  0.7158 -0.6650
  605MOL0     C81555   7.733   8.680   8.377 -0.1398  0.2185 -1.4330
  605MOL0     C81556   7.745   8.830   8.359 -0.5425  0.5958 -0.6220
  605MOL0     N81557   7.887   8.871   8.350 -0.2213 -0.4335  0.0382
  605MOL0     C81558   7.946   8.899   8.226 -0.3899 -0.7848 -0.5225
  605MOL0     C81559   8.078   8.902   8.263 -0.7171  0.5942 -0.1281
  605MOL0     C81560   8.200   8.931   8.172  0.4394 -0.6224  0.0858
  605MOL0     C81561   8.336   8.901   8.231 -0.4542 -0.2241  0.4225
  605MOL0     C81562   8.453   8.901   8.129  0.4537 -0.2791  0.3337
  605MOL0     C81563   8.458   8.770   8.053  0.3368 -1.0313  0.2151
  605MOL0     O81564   8.499   8.777   7.910  0.1943 -0.2357  0.1786
  605MOL0     C81565   8.619   8.824   7.860  0.2457  0.3398 -0.5054
  605MOL0     C81566   8.634   8.858   7.727  0.5102 -0.9441  1.3938
  605MOL0     C81567   8.754   8.915   7.672  0.5442 -0.7348  0.1693
  605MOL0     C81568   8.745   8.969   7.532  0.1681  0.2047  1.6302
  605MOL0     C81569   8.867   8.916   7.753 -0.3773 -0.5455  0.1945
  605MOL0     C81570   9.008   8.932   7.709  0.7090 -0.0961 -0.5516
  605MOL0     O81571   9.104   8.898   7.798 -0.6588 -0.4034 -0.0954
  605MOL0     C81572   9.239   8.911   7.765 -0.0923 -0.5125  0.5217
  605MOL0     C81573   9.325   8.945   7.872  0.1566  0.8436  0.2919
  605MOL0     C81574   9.464   8.962   7.864  0.3639  0.2610 -0.7568
  605MOL0     C81575   9.526   8.933   7.739  0.1071 -0.5336 -1.0247
  605MOL0     O81576   9.655   8.938   7.709 -0.1957 -0.2407  0.0876
  605MOL0     C81577   9.748   8.930   7.813 -0.5575 -0.6123 -0.3812
  605MOL0     C81578   9.888   8.893   7.754  0.7062  0.0422 -0.0443
  605MOL0     C81579   9.941   9.006   7.658 -0.4737 -0.4148  0.2047
  605MOL0     C81580  10.096   8.978   7.639 -0.1691  1.1306  0.3555
  605MOL0     C81581  10.163   9.078   7.547  0.5153  0.1124  0.2663
  605MOL0     C81582  10.305   9.038   7.504 -0.6707  0.1697  0.1435
  605MOL0     C81583  10.376   9.129   7.406  0.5093  0.7260 -1.2210
  605MOL0     C81584  10.531   9.145   7.423 -0.7926 -0.2685  0.8691
  605MOL0    Cl81585  10.602   9.254   7.303 -0.3434  0.0602 -0.0746
  605MOL0     C81586   9.437   8.894   7.630  0.9341 -1.6149  0.4979
  605MOL0     C81587   9.297   8.888   7.639  0.3153  0.1523  0.1806
  605MOL0     O81588   9.026   8.982   7.606 -0.3688  0.1839 -0.6506
  605MOL0     C81589   8.860   8.873   7.883  0.3055 -0.2848  0.3746
  605MOL0     C81590   8.738   8.837   7.940 -0.4063  0.5770 -0.7250
  605MOL0     N81591   8.087   8.878   8.396 -0.0045 -0.7568 -0.5349
  605MOL0     N81592   7.976   8.868   8.450  0.0359  0.2441 -0.3690
  605MOL0     C81593   7.317   8.516   9.027 -0.0746 -0.1468 -0.0821
  605MOL0     C81594   7.185   8.570   9.042  0.5240  0.4789 -0.2509
  605MOL0     C81595   6.865   8.837   9.198 -0.6017 -0.2183 -0.0573
  605MOL0     C81596   6.764   8.783   9.121 -0.0565  1.1080  0.2704
  605MOL0     C81597   6.627   8.804   9.152  0.1352 -0.8686 -0.1429
  605MOL0     C81598   6.588   8.890   9.261  0.4138 -0.4559  0.5317
  605MOL0     O81599   6.465   8.921   9.310 -0.4986  0.8111 -0.0251
  605MOL0     C81600   6.351   8.867   9.238  1.1585  0.4361 -0.4709
  605MOL0     C81601   6.228   8.948   9.272  0.2713 -0.5086 -0.5781
  605MOL0     C81602   6.256   9.106   9.307  0.1237  0.6216 -0.3401
  605MOL0     C81603   6.131   9.192   9.263 -0.6807  0.2663 -0.5719
  605MOL0     C81604   6.001   9.154   9.327 -0.4992 -0.0749 -0.4958
  605MOL0     C81605   5.897   9.104   9.382  0.0864  0.2238 -0.1665
  605MOL0     C81606   6.693   8.945   9.332 -0.1390 -0.5190  0.5396
  605MOL0     C81607   6.832   8.925   9.300  0.5130  0.5893  0.3279
  605MOL0     H81608   7.256   8.888   8.996  0.8364 -0.0547 -1.1325
  605MOL0     H81609   7.488   8.806   8.998  2.7021 -1.9985 -2.5212
  605MOL0     H81610   7.637   8.352   8.958 -0.6531 -1.0878  0.0740
  605MOL0     H81611   7.480   8.368   8.878 -1.9028  2.2578  0.3226
  605MOL0     H81612   7.736   8.481   8.781 -0.1199  0.5121  0.5151
  605MOL0     H81613   7.672   8.321   8.750 -0.5434 -0.7793  1.3971
  605MOL0     H81614   7.452   8.454   8.660  0.0157  0.4387 -0.4542
  605MOL0     H81615   7.557   8.593   8.674  1.1417  0.0088  2.2699
  605MOL0     H81616   7.727   8.444   8.548 -0.3380 -1.3105  0.2813
  605MOL0     H81617   7.594   8.324   8.534 -1.6867  0.6739  0.5712
  605MOL0     H81618   7.622   8.444   8.323  0.6824 -0.1937  0.6492
  605MOL0     H81619   7.465   8.471   8.406  0.1171 -2.0258  1.2536
  605MOL0     H81620   7.569   8.655   8.267  1.9990  0.6570 -1.1315
  605MOL0     H81621   7.552   8.705   8.449 -0.4049 -2.4722  1.6546
  605MOL0     H81622   7.766   8.641   8.474 -1.3570  0.7096 -0.7934
  605MOL0     H81623   7.803   8.633   8.308  3.0561 -0.5262  1.9492
  605MOL0     H81624   7.700   8.886   8.441 -2.2885 -0.7624 -0.5771
  605MOL0     H81625   7.696   8.862   8.267 -1.4516  1.2045  0.0527
  605MOL0     H81626   7.896   8.909   8.130 -0.3841 -1.3346 -0.5873
  605MOL0     H81627   8.184   8.879   8.078  1.6030  2.5099 -2.0097
  605MOL0     H81628   8.203   9.038   8.150  0.3241 -0.2384  1.7626
  605MOL0     H81629   8.339   8.801   8.277 -0.3791 -0.1323  0.6159
  605MOL0     H81630   8.350   8.975   8.310 -0.4679  2.2942 -1.8106
  605MOL0     H81631   8.541   8.902   8.194 -0.4257 -0.6907  1.5449
  605MOL0     H81632   8.454   8.973   8.046  1.1180  1.3637  1.7055
  605MOL0     H81633   8.361   8.719   8.057  0.5870 -1.4771  0.8175
  605MOL0     H81634   8.522   8.707   8.116  0.0829  0.8516  2.4953
  605MOL0     H81635   8.545   8.864   7.666  2.7212 -0.6007 -2.1175
  605MOL0     H81636   8.798   9.063   7.516  0.5750 -0.3512 -0.7246
  605MOL0     H81637   8.790   8.898   7.461  0.2763  0.9785  0.9110
  605MOL0     H81638   8.640   8.978   7.502 -0.7377 -2.8349  3.3663
  605MOL0     H81639   9.272   8.975   7.963 -2.1820 -0.3893 -0.5662
  605MOL0     H81640   9.521   8.986   7.953 -1.3072 -0.0679  0.4552
  605MOL0     H81641   9.758   9.029   7.857  1.7204 -0.1839 -1.7235
  605MOL0     H81642   9.703   8.863   7.887  0.4150  0.4545  1.2284
  605MOL0     H81643   9.957   8.880   7.838  1.6166 -4.2612 -1.2202
  605MOL0     H81644   9.886   8.800   7.697  0.0416  0.7923 -1.2621
  605MOL0     H81645   9.921   9.108   7.693 -1.8127 -0.8177  0.6412
  605MOL0     H81646   9.886   9.004   7.564 -1.5963  2.4631  0.7134
  605MOL0     H81647  10.147   8.973   7.735  5.6968 -0.3669 -2.4028
  605MOL0     H81648  10.103   8.884   7.583  0.2734  0.7630  1.0235
  605MOL0     H81649  10.179   9.168   7.607  0.1825  1.6972 -1.8691
  605MOL0     H81650  10.099   9.112   7.465 -2.4297  1.4643  2.8851
  605MOL0     H81651  10.370   9.025   7.591  1.2106  1.3523 -1.0080
  605MOL0     H81652  10.289   8.946   7.448 -0.2261 -0.4105  0.9600
  605MOL0     H81653  10.341   9.232   7.412  0.7342  0.7453  0.1681
  605MOL0     H81654  10.354   9.091   7.306  2.4295 -3.7551 -0.1790
  605MOL0     H81655  10.580   9.047   7.427 -1.7236 -0.8506 -0.8432
  605MOL0     H81656  10.543   9.185   7.524  0.2778 -0.4213  0.8099
  605MOL0     H81657   9.477   8.878   7.530  1.0702  1.0760  0.0552
  605MOL0     H81658   9.234   8.860   7.556  2.0750  1.8480 -1.8496
  605MOL0     H81659   8.944   8.848   7.946  0.6660 -2.7704 -0.9588
  605MOL0     H81660   8.730   8.809   8.044 -1.6880 -2.6875 -1.5615
  605MOL0     H81661   7.331   8.409   9.015  3.0921  0.3231 -1.6819
  605MOL0     H81662   7.108   8.497   9.066  1.3539 -0.8902 -1.5732
  605MOL0     H81663   6.787   8.706   9.048 -0.2556  0.3512  0.9860
  605MOL0     H81664   6.549   8.755   9.093 -0.8218 -1.0188  1.2022
  605MOL0     H81665   6.384   8.868   9.134  0.8693 -0.7686 -0.5918
  605MOL0     H81666   6.335   8.760   9.257  1.0263  0.4945 -0.2540
  605MOL0     H81667   6.178   8.916   9.364  1.3763 -2.6355 -0.6727
  605MOL0     H81668   6.150   8.950   9.195  0.6599  3.2145 -1.0740
  605MOL0     H81669   6.340   9.132   9.241 -0.6726 -1.0650 -2.1097
  605MOL0     H81670   6.276   9.113   9.414  1.6853  0.6349 -0.6066
  605MOL0     H81671   6.125   9.201   9.154 -2.3198  2.1670 -0.3849
  605MOL0     H81672   6.161   9.294   9.288 -0.0374  0.1285 -0.7527
  605MOL0     H81673   5.812   9.066   9.435  0.4348 -1.1392 -0.5481
  605MOL0     H81674   6.669   9.009   9.417  1.1902  1.1499 -0.2776
  605MOL0     H81675   6.913   8.959   9.364  1.5256 -2.7133  0.9682
  606MOL0     O81676   3.019   1.860   6.369 -0.0931  1.0809 -0.5981
  606MOL0     C81677   3.132   1.909   6.382  0.9964 -0.9511  0.1865
  606MOL0     O81678   3.152   2.041   6.385 -0.8789 -0.5084  0.1166
  606MOL0     C81679   3.040   2.120   6.401 -1.2877 -0.1729 -0.0795
  606MOL0     C81680   3.008   2.211   6.304 -0.1364  0.1940 -0.6999
  606MOL0     C81681   2.891   2.286   6.311 -0.6839  0.2669 -0.7782
  606MOL0     C81682   2.803   2.273   6.423  0.2150 -0.2810 -0.0723
  606MOL0     O81683   2.690   2.339   6.432 -0.2670  0.0936  0.3830
  606MOL0     C81684   2.627   2.358   6.561 -0.1687 -0.1366 -0.1628
  606MOL0     C81685   2.501   2.446   6.545  0.0195 -0.3890  1.0918
  606MOL0     C81686   2.432   2.501   6.676  0.0362 -0.7767  0.0930
  606MOL0     C81687   2.318   2.591   6.638 -0.2308  0.6035 -0.3731
  606MOL0     C81688   2.268   2.684   6.759  0.1190  0.8366 -0.1106
  606MOL0     C81689   2.216   2.608   6.879 -0.3516  0.3439  0.4993
  606MOL0     C81690   2.194   2.713   6.995  0.5019  0.4808 -0.2060
  606MOL0     C81691   2.116   2.652   7.121  0.3786 -0.1712  0.8666
  606MOL0     N81692   2.093   2.764   7.207 -0.8853  0.4854 -0.0115
  606MOL0     C81693   1.967   2.805   7.252 -0.8196 -0.0280 -0.1668
  606MOL0     C81694   1.999   2.918   7.317  0.8896 -0.4257  0.1792
  606MOL0     C81695   1.899   3.009   7.376 -0.1674  0.6351 -0.6461
  606MOL0     C81696   1.901   3.014   7.538 -0.3907  0.5017  0.9339
  606MOL0     C81697   1.818   2.891   7.597  0.3031 -0.1852  0.1772
  606MOL0     C81698   1.797   2.909   7.745  0.2136  0.4210  0.0433
  606MOL0     O81699   1.737   3.029   7.760  0.1149 -0.5712 -0.2627
  606MOL0     C81700   1.602   3.040   7.757  0.1105 -0.6931  0.0528
  606MOL0     C81701   1.503   2.938   7.773 -0.0849 -0.4235 -0.4432
  606MOL0     C81702   1.371   2.957   7.747 -0.5535 -0.4607  1.6183
  606MOL0     C81703   1.270   2.853   7.781  0.1554  0.8262  0.0969
  606MOL0     C81704   1.327   3.088   7.696 -0.1972 -0.3363 -0.4658
  606MOL0     C81705   1.185   3.126   7.667 -0.2902 -0.3318 -0.5229
  606MOL0     O81706   1.148   3.265   7.681 -0.1825  0.3968  0.1271
  606MOL0     C81707   1.025   3.295   7.632  0.0169 -0.0206 -1.4104
  606MOL0     C81708   1.034   3.368   7.517  0.8723 -0.6542  0.2623
  606MOL0     C81709   0.917   3.411   7.456  0.5655 -0.6978 -0.4186
  606MOL0     C81710   0.786   3.376   7.515  0.2673 -1.5166  0.3743
  606MOL0     O81711   0.659   3.396   7.460 -0.4127  0.2074 -0.0974
  606MOL0     C81712   0.657   3.423   7.324  0.5829  0.4536 -0.0716
  606MOL0     C81713   0.511   3.419   7.274 -0.9815 -0.2181 -0.9246
  606MOL0     C81714   0.488   3.482   7.133 -0.5936  0.3294  0.0669
  606MOL0     C81715   0.357   3.430   7.062 -0.0761 -0.7580  0.4568
  606MOL0     C81716   0.357   3.286   7.022  0.4105 -0.3616 -0.0996
  606MOL0     C81717   0.265   3.259   6.904 -0.8452 -0.1067  0.8596
  606MOL0     C81718   0.126   3.317   6.918 -0.1885  0.2051  0.0891
  606MOL0     C81719   0.032   3.220   6.849 -0.1313  0.7446  0.9864
  606MOL0    Cl81720  -0.132   3.312   6.849 -0.0927 -0.1401  0.0869
  606MOL0     C81721   0.784   3.298   7.631 -0.6174 -0.0767  0.8889
  606MOL0     C81722   0.902   3.252   7.693  0.6978  0.0859 -0.7661
  606MOL0     O81723   1.121   3.032   7.611  0.1276 -0.0794  0.3081
  606MOL0     C81724   1.423   3.187   7.689 -0.5463 -0.8410  0.0154
  606MOL0     C81725   1.555   3.160   7.724  0.1225  0.0393  0.0941
  606MOL0     N81726   2.139   2.928   7.327  0.4470 -0.1198 -0.2030
  606MOL0     N81727   2.193   2.829   7.273  0.3725  0.5449 -0.2447
  606MOL0     C81728   2.850   2.190   6.526 -0.0803 -0.2167  0.1818
  606MOL0     C81729   2.958   2.103   6.516  0.3303 -0.1565  0.7516
  606MOL0     C81730   3.244   1.820   6.373 -0.2019 -0.1174 -1.2235
  606MOL0     C81731   3.373   1.874   6.372 -0.0350  0.7639 -0.7855
  606MOL0     C81732   3.484   1.789   6.379 -0.1254 -0.0741  0.2280
  606MOL0     C81733   3.471   1.650   6.396 -0.4248 -0.5483  0.0250
  606MOL0     O81734   3.575   1.553   6.409  0.7925 -0.5672 -0.3644
  606MOL0     C81735   3.698   1.581   6.344  0.2185  1.1376  0.0589
  606MOL0     C81736   3.789   1.456   6.381  1.4476 -0.4397 -0.1886
  606MOL0     C81737   3.888   1.426   6.267 -0.9036  0.0545  0.8238
  606MOL0     C81738   4.007   1.337   6.317 -0.7722 -0.1524  0.1644
  606MOL0     C81739   3.958   1.205   6.342 -0.0014 -0.3803  0.1390
  606MOL0     C81740   3.914   1.105   6.380  0.3515  1.0258  0.2194
  606MOL0     C81741   3.342   1.592   6.391 -0.1954 -0.4863  0.6796
  606MOL0     C81742   3.226   1.677   6.399 -0.2057 -0.4084  0.4742
  606MOL0     H81743   3.073   2.235   6.221 -0.2764  2.3656 -0.2508
  606MOL0     H81744   2.858   2.352   6.231  2.3654  1.1335 -1.4409
  606MOL0     H81745   2.612   2.265   6.615  3.4544  0.0730  1.4962
  606MOL0     H81746   2.687   2.419   6.630 -1.0769  2.0852 -1.2126
  606MOL0     H81747   2.537   2.528   6.482 -2.9260  0.4124  0.2776
  606MOL0     H81748   2.421   2.396   6.489 -0.6790 -0.0347  1.7577
  606MOL0     H81749   2.390   2.419   6.735  0.6974  0.5906  2.6129
  606MOL0     H81750   2.500   2.566   6.732 -0.3062 -0.0030 -0.3688
  606MOL0     H81751   2.342   2.652   6.551 -2.0032  0.7747 -0.7948
  606MOL0     H81752   2.237   2.522   6.614 -0.0155  0.7212 -1.4591
  606MOL0     H81753   2.343   2.761   6.780 -1.4200  2.3594 -0.0041
  606MOL0     H81754   2.180   2.736   6.721  0.6055  1.8242  0.0973
  606MOL0     H81755   2.135   2.541   6.851  0.7530 -1.4737  1.4879
  606MOL0     H81756   2.298   2.544   6.913  0.4045  0.3811 -1.1735
  606MOL0     H81757   2.294   2.754   7.010  1.5215 -1.8986  0.0231
  606MOL0     H81758   2.132   2.789   6.947 -1.4248  0.4428  2.0413
  606MOL0     H81759   2.175   2.573   7.169 -2.1575 -1.7452  1.5756
  606MOL0     H81760   2.022   2.604   7.096  0.9057 -0.7070 -0.1312
  606MOL0     H81761   1.865   2.769   7.240 -0.2234 -1.4044 -1.4384
  606MOL0     H81762   1.925   3.104   7.328  1.1679  0.1927 -0.8380
  606MOL0     H81763   1.803   2.988   7.328  1.0161  0.1999 -2.9375
  606MOL0     H81764   1.860   3.111   7.565  0.2338  1.3325 -0.9584
  606MOL0     H81765   2.006   2.998   7.566  0.9398  2.4005 -2.3380
  606MOL0     H81766   1.885   2.806   7.583 -0.9526 -1.5226  1.9020
  606MOL0     H81767   1.724   2.876   7.544  1.0421 -1.5669 -0.7987
  606MOL0     H81768   1.892   2.894   7.797 -0.2890 -0.7640  0.6640
  606MOL0     H81769   1.736   2.833   7.794  0.8795 -0.2836 -0.1927
  606MOL0     H81770   1.531   2.844   7.821 -3.3544 -1.4299 -0.2608
  606MOL0     H81771   1.321   2.771   7.833 -0.3123  0.5626  0.1474
  606MOL0     H81772   1.189   2.889   7.845  0.2736 -2.1196  2.1190
  606MOL0     H81773   1.222   2.816   7.690 -1.1393  0.8207  0.7580
  606MOL0     H81774   1.128   3.410   7.484  1.4032 -1.6171  0.5225
  606MOL0     H81775   0.927   3.471   7.366 -3.6289  0.6160 -0.1971
  606MOL0     H81776   0.700   3.521   7.301 -1.3106  1.1308 -1.0117
  606MOL0     H81777   0.716   3.344   7.277 -0.8509 -1.8938  1.7929
  606MOL0     H81778   0.487   3.312   7.276  3.8059 -1.5173  1.3469
  606MOL0     H81779   0.448   3.466   7.349  0.5553 -1.7572  1.4744
  606MOL0     H81780   0.574   3.456   7.070 -1.5952 -2.8508 -0.1554
  606MOL0     H81781   0.472   3.590   7.143  1.6800  0.5634  2.1737
  606MOL0     H81782   0.278   3.450   7.136 -0.7850 -0.7632 -0.2908
  606MOL0     H81783   0.352   3.486   6.969  1.6415 -0.4066  0.5413
  606MOL0     H81784   0.341   3.215   7.104 -0.4043 -1.4544 -1.1609
  606MOL0     H81785   0.458   3.268   6.983  0.6125  0.3729  0.0671
  606MOL0     H81786   0.315   3.301   6.817 -2.6753 -1.6265 -1.0189
  606MOL0     H81787   0.264   3.153   6.879  0.3223  0.5973 -2.7004
  606MOL0     H81788   0.123   3.411   6.862 -0.3785 -0.6555 -1.4088
  606MOL0     H81789   0.098   3.338   7.022 -0.4345  0.2078  0.0236
  606MOL0     H81790   0.032   3.123   6.899 -0.9135 -0.2286 -0.8230
  606MOL0     H81791   0.062   3.205   6.744 -3.7280 -0.6525  0.0212
  606MOL0     H81792   0.684   3.272   7.666 -0.5916  1.8829  2.5533
  606MOL0     H81793   0.909   3.201   7.789 -0.3926 -1.1883 -1.3438
  606MOL0     H81794   1.397   3.291   7.669  0.1680 -0.1361  2.4228
  606MOL0     H81795   1.618   3.245   7.699 -0.0079 -0.2832 -1.4167
  606MOL0     H81796   2.781   2.179   6.609 -0.9785  0.2710 -0.4713
  606MOL0     H81797   2.971   2.018   6.583 -4.2408 -0.6426  1.3502
  606MOL0     H81798   3.394   1.978   6.348 -0.9592  0.7399 -1.7659
  606MOL0     H81799   3.587   1.822   6.363 -0.0763 -0.8411 -1.2238
  606MOL0     H81800   3.683   1.582   6.236  1.0490 -1.7989 -0.1771
  606MOL0     H81801   3.742   1.673   6.384  2.7073 -0.7615  2.0623
  606MOL0     H81802   3.718   1.372   6.388  0.0534  0.8171  1.8024
  606MOL0     H81803   3.836   1.472   6.479  1.5714 -3.0628  0.2714
  606MOL0     H81804   3.925   1.523   6.231  0.8549 -0.2894  1.6059
  606MOL0     H81805   3.847   1.382   6.176  1.8943 -1.3547  0.1402
  606MOL0     H81806   4.057   1.374   6.406  1.5062 -4.2497  0.8267
  606MOL0     H81807   4.075   1.342   6.232 -0.7118 -0.4131  0.1963
  606MOL0     H81808   3.866   1.012   6.406  0.0527  0.3195 -2.6085
  606MOL0     H81809   3.326   1.484   6.390  1.2482 -0.7117  0.1337
  606MOL0     H81810   3.124   1.641   6.413 -0.0206 -0.0813  3.1846
  607MOL0     O81811   4.035   1.921   0.722  0.2393 -0.3061 -1.3347
  607MOL0     C81812   4.036   2.035   0.778  0.3903  0.3786  0.6746
  607MOL0     O81813   3.937   2.123   0.771 -0.2141 -0.2487 -0.3501
  607MOL0     C81814   3.811   2.101   0.725  0.0663  0.3237 -0.2017
  607MOL0     C81815   3.786   2.030   0.613  0.3842  0.1154 -0.1269
  607MOL0     C81816   3.663   2.017   0.554  0.6087  1.0605  0.2155
  607MOL0     C81817   3.549   2.069   0.614  0.3823  0.4122 -0.9297
  607MOL0     O81818   3.431   2.057   0.546 -0.5527  0.8809 -0.1591
  607MOL0     C81819   3.319   2.131   0.594  1.1161 -0.9958 -0.4715
  607MOL0     C81820   3.206   2.139   0.493  0.0866  0.0132 -0.5716
  607MOL0     C81821   3.235   2.195   0.360 -0.5164  0.1278  0.1472
  607MOL0     C81822   3.179   2.342   0.343  0.1376 -0.8101  0.1369
  607MOL0     C81823   3.262   2.437   0.253 -0.8517  0.1400  0.5883
  607MOL0     C81824   3.204   2.576   0.245  0.3078 -0.1423 -0.9659
  607MOL0     C81825   3.240   2.634   0.112 -0.8688 -0.1995 -0.2862
  607MOL0     C81826   3.214   2.777   0.083 -0.0410 -0.0334  0.6710
  607MOL0     N81827   3.081   2.810   0.128 -0.7866  0.4695 -0.1712
  607MOL0     C81828   2.968   2.816   0.055  0.0246 -0.6913 -0.7713
  607MOL0     C81829   2.876   2.854   0.145  0.1669 -0.2215 -0.5105
  607MOL0     C81830   2.731   2.905   0.123  0.6569 -0.7162  0.7215
  607MOL0     C81831   2.657   3.011   0.201  0.8186  0.4670  0.0844
  607MOL0     C81832   2.699   3.161   0.173  1.0208 -0.0816  0.1795
  607MOL0     C81833   2.618   3.257   0.259 -0.1273 -0.6849  0.6133
  607MOL0     O81834   2.472   3.262   0.229  0.1689 -0.4611 -0.6072
  607MOL0     C81835   2.400   3.372   0.283 -0.0014  0.7243  0.8651
  607MOL0     C81836   2.268   3.363   0.239  0.4292  0.2951  0.5915
  607MOL0     C81837   2.171   3.453   0.297  0.0000 -1.0376 -0.0613
  607MOL0     C81838   2.038   3.445   0.231  0.8008  0.7625 -0.8870
  607MOL0     C81839   2.213   3.556   0.388 -0.1385 -0.1824  0.4996
  607MOL0     C81840   2.120   3.645   0.462  0.4129 -0.2499 -0.9591
  607MOL0     O81841   2.174   3.712   0.573 -0.0326  0.0313  0.8284
  607MOL0     C81842   2.080   3.773   0.646  0.0085  0.1200  0.6352
  607MOL0     C81843   2.041   3.906   0.628  0.2770  0.7269  0.1891
  607MOL0     C81844   1.944   3.964   0.710 -0.5171  0.5159 -0.3283
  607MOL0     C81845   1.880   3.889   0.815  0.4556 -0.2899 -0.1310
  607MOL0     O81846   1.792   3.960   0.899  0.2424  0.7526 -0.5808
  607MOL0     C81847   1.691   3.885   0.963  0.2733  0.1262  0.6724
  607MOL0     C81848   1.618   3.984   1.060 -0.0309 -0.2440  0.1569
  607MOL0     C81849   1.518   4.075   0.973 -0.4250  0.0278  0.0330
  607MOL0     C81850   1.398   3.997   0.933 -0.3054  0.3476 -0.1886
  607MOL0     C81851   1.327   4.058   0.819 -0.2022  0.2364  0.0848
  607MOL0     C81852   1.206   3.978   0.791 -0.5920 -0.7341  0.1084
  607MOL0     C81853   1.218   3.833   0.755  0.4950 -0.3173  0.1312
  607MOL0     C81854   1.081   3.785   0.694 -0.4943  0.6738 -0.3879
  607MOL0    Cl81855   1.082   3.865   0.535  0.1288 -0.0188 -0.2258
  607MOL0     C81856   1.904   3.751   0.824  0.2182 -1.0256 -1.3452
  607MOL0     C81857   2.003   3.697   0.733 -0.0245 -0.2500 -0.5513
  607MOL0     O81858   2.001   3.635   0.436 -0.3741 -0.1402  0.0672
  607MOL0     C81859   2.348   3.559   0.435  0.0533 -0.3795 -0.2925
  607MOL0     C81860   2.440   3.469   0.379 -0.3635  0.2751  0.8102
  607MOL0     N81861   2.936   2.873   0.276 -0.5653  0.5577  0.2874
  607MOL0     N81862   3.064   2.851   0.256 -0.0944  1.2067  0.0494
  607MOL0     C81863   3.569   2.142   0.733  0.3025  0.3264  0.3570
  607MOL0     C81864   3.695   2.162   0.792 -0.1904 -0.3845  0.6062
  607MOL0     C81865   4.141   2.062   0.871 -0.0236 -0.8683  0.5656
  607MOL0     C81866   4.173   2.193   0.905  0.7236 -0.0419 -0.3126
  607MOL0     C81867   4.288   2.227   0.984 -0.7035 -0.0283  0.0217
  607MOL0     C81868   4.371   2.126   1.040 -0.3270  0.3449 -0.3897
  607MOL0     O81869   4.479   2.148   1.123  0.2934 -0.1329 -0.2049
  607MOL0     C81870   4.497   2.283   1.163  0.9757  0.3636  0.5442
  607MOL0     C81871   4.612   2.314   1.245  0.3262  0.9218 -0.4123
  607MOL0     C81872   4.745   2.313   1.175 -0.4342  0.3680 -0.5057
  607MOL0     C81873   4.863   2.354   1.261 -0.1108  0.1124 -0.0997
  607MOL0     C81874   4.867   2.492   1.305  0.2170  0.1697  0.3897
  607MOL0     C81875   4.886   2.605   1.343 -0.1957 -0.2874  0.2406
  607MOL0     C81876   4.348   1.999   0.989  0.0325  0.1782  0.4566
  607MOL0     C81877   4.251   1.974   0.901  0.1755 -0.9530  0.3953
  607MOL0     H81878   3.874   1.987   0.566  1.5838  1.9180  0.3663
  607MOL0     H81879   3.656   1.966   0.459 -2.7670  0.8928  0.4447
  607MOL0     H81880   3.287   2.093   0.691 -1.1425  2.2245  0.1581
  607MOL0     H81881   3.355   2.232   0.615 -0.3502 -1.0853  3.1507
  607MOL0     H81882   3.169   2.036   0.483 -0.8095  0.0576  1.7408
  607MOL0     H81883   3.124   2.194   0.540 -0.2299 -0.0563 -1.0314
  607MOL0     H81884   3.342   2.206   0.346 -0.6495  0.6702 -0.4854
  607MOL0     H81885   3.200   2.130   0.279 -1.1102  1.1377 -0.4275
  607MOL0     H81886   3.078   2.332   0.301  0.0378  0.1766  0.1201
  607MOL0     H81887   3.172   2.391   0.441  3.6944  1.7459 -0.7053
  607MOL0     H81888   3.365   2.434   0.289 -0.3851  2.6427 -0.3203
  607MOL0     H81889   3.257   2.394   0.152 -0.1518  0.2148  0.5116
  607MOL0     H81890   3.096   2.577   0.261  0.6661 -0.0107  2.2050
  607MOL0     H81891   3.236   2.646   0.324  0.4544 -1.0777 -0.1804
  607MOL0     H81892   3.346   2.618   0.089  0.0069  2.5425  1.3234
  607MOL0     H81893   3.193   2.574   0.034 -4.7262  1.0308  0.8463
  607MOL0     H81894   3.230   2.796  -0.024 -1.7669 -0.9631  0.2210
  607MOL0     H81895   3.282   2.837   0.145  0.0370  1.5890 -0.8863
  607MOL0     H81896   2.957   2.797  -0.052  1.0137  0.9413 -1.1932
  607MOL0     H81897   2.726   2.951   0.023 -0.3329  2.9789  2.2672
  607MOL0     H81898   2.664   2.819   0.121  0.4949 -0.5841 -0.4815
  607MOL0     H81899   2.655   2.995   0.310  0.8156 -0.5237 -0.0545
  607MOL0     H81900   2.552   2.995   0.176  0.8613 -0.8286  0.6413
  607MOL0     H81901   2.699   3.178   0.065  1.3531 -2.7377 -0.3030
  607MOL0     H81902   2.802   3.165   0.209  1.0016 -2.2287  0.5818
  607MOL0     H81903   2.664   3.355   0.241 -1.0056  0.2668  3.0373
  607MOL0     H81904   2.641   3.230   0.363  1.6319 -2.1405 -0.1041
  607MOL0     H81905   2.241   3.288   0.165 -3.0611  1.9353 -0.0172
  607MOL0     H81906   1.960   3.419   0.303 -0.1534 -0.7766 -2.4083
  607MOL0     H81907   2.008   3.542   0.190  1.4289  0.6960 -1.5122
  607MOL0     H81908   2.044   3.371   0.151  1.3525 -0.1974  0.0213
  607MOL0     H81909   2.076   3.965   0.544 -3.0551  0.9490 -1.1956
  607MOL0     H81910   1.912   4.066   0.697 -1.6898 -0.0023 -1.8692
  607MOL0     H81911   1.626   3.829   0.895  0.9125 -2.3878  2.0267
  607MOL0     H81912   1.736   3.812   1.031 -3.5723 -1.0863  2.2049
  607MOL0     H81913   1.581   3.941   1.153  3.9052 -2.6812  0.8752
  607MOL0     H81914   1.702   4.045   1.094 -0.7515  0.1269  1.3189
  607MOL0     H81915   1.583   4.113   0.895  1.2605 -2.4593  0.0862
  607MOL0     H81916   1.482   4.158   1.034 -2.0745 -1.7379  1.6161
  607MOL0     H81917   1.425   3.894   0.910  1.1414  0.1864  1.9378
  607MOL0     H81918   1.322   3.998   1.012  1.0302  1.8988  1.1741
  607MOL0     H81919   1.390   4.046   0.730  3.8360 -0.5928  2.7892
  607MOL0     H81920   1.308   4.161   0.849  0.2073 -0.5167  3.2308
  607MOL0     H81921   1.137   3.977   0.876 -1.4676  2.2947 -0.4374
  607MOL0     H81922   1.149   4.032   0.714  2.6610 -1.5244 -3.1140
  607MOL0     H81923   1.230   3.779   0.849  1.0633  2.7931  1.9802
  607MOL0     H81924   1.303   3.803   0.693  2.7346  2.2269  1.8184
  607MOL0     H81925   0.994   3.823   0.748 -1.7048  0.1564 -1.9079
  607MOL0     H81926   1.080   3.676   0.684  1.8761  0.5847 -0.2396
  607MOL0     H81927   1.846   3.692   0.894  2.8985 -1.2475  0.8876
  607MOL0     H81928   2.025   3.591   0.745 -1.9267 -1.0999 -3.4781
  607MOL0     H81929   2.376   3.634   0.508 -0.9636 -2.1565  2.0539
  607MOL0     H81930   2.536   3.457   0.428  0.3453  0.6172 -0.4605
  607MOL0     H81931   3.488   2.192   0.785 -1.9420 -2.6402  0.0441
  607MOL0     H81932   3.706   2.221   0.882 -0.4438 -1.2191  1.2010
  607MOL0     H81933   4.115   2.277   0.868 -1.8846 -1.2558  0.7681
  607MOL0     H81934   4.314   2.332   0.996 -2.9345  0.5418  0.4001
  607MOL0     H81935   4.498   2.353   1.078 -0.3742 -1.3004 -0.9164
  607MOL0     H81936   4.411   2.301   1.228 -1.1392 -0.0721 -1.9717
  607MOL0     H81937   4.616   2.235   1.320  0.1499  0.0206 -1.3276
  607MOL0     H81938   4.597   2.414   1.285 -2.1810  0.1028  0.8497
  607MOL0     H81939   4.740   2.385   1.094  3.5156  0.2540 -1.0297
  607MOL0     H81940   4.760   2.215   1.128 -2.7712 -0.2805 -0.0246
  607MOL0     H81941   4.957   2.338   1.207  0.4371  2.0540  0.1946
  607MOL0     H81942   4.871   2.295   1.353  0.4397  0.4772  0.0932
  607MOL0     H81943   4.895   2.705   1.381 -0.1318  0.4071 -1.4717
  607MOL0     H81944   4.400   1.909   1.020 -3.2242 -1.5756  1.2362
  607MOL0     H81945   4.236   1.876   0.858 -2.0004 -0.0271 -1.1052
  608MOL0     O81946   4.119  11.069   6.198 -0.6331  0.7029 -0.4905
  608MOL0     C81947   4.120  11.189   6.165  0.1706  0.5342 -0.6550
  608MOL0     O81948   4.004  11.260   6.135 -0.2702  0.2350  0.6568
  608MOL0     C81949   3.874  11.212   6.143  0.8026 -0.6494  0.3136
  608MOL0     C81950   3.776  11.291   6.208 -0.2936  0.3376 -0.6715
  608MOL0     C81951   3.645  11.242   6.222 -0.2921 -0.1053 -0.6295
  608MOL0     C81952   3.609  11.115   6.178  0.6227  0.3253 -0.8407
  608MOL0     O81953   3.475  11.066   6.192 -0.5146  0.0719  0.1862
  608MOL0     C81954   3.429  10.955   6.109  0.0246  0.5239  0.1232
  608MOL0     C81955   3.280  10.948   6.123  0.4146 -0.5970 -0.4904
  608MOL0     C81956   3.247  10.873   6.247  1.0063 -0.5233  1.1574
  608MOL0     C81957   3.100  10.848   6.284 -0.5505  0.9655 -0.1078
  608MOL0     C81958   3.026  10.757   6.187 -1.1121 -0.9037 -0.0272
  608MOL0     C81959   2.893  10.720   6.243 -0.6161 -0.1544  0.4414
  608MOL0     C81960   2.814  10.652   6.130  1.0522 -0.2472  0.2802
  608MOL0     C81961   2.666  10.639   6.176 -1.2790  0.2601 -0.6235
  608MOL0     N81962   2.590  10.574   6.069  0.3048  0.1820 -0.3068
  608MOL0     C81963   2.617  10.461   5.990 -0.7018  1.2896 -0.3558
  608MOL0     C81964   2.533  10.448   5.896  1.1129  0.0867  0.1525
  608MOL0     C81965   2.523  10.349   5.777 -0.6133 -0.1776  0.3787
  608MOL0     C81966   2.389  10.267   5.751 -0.5298  0.0487 -0.1333
  608MOL0     C81967   2.268  10.355   5.723 -1.0029  0.1812  0.3273
  608MOL0     C81968   2.275  10.457   5.609  0.1845  0.4866  0.6253
  608MOL0     O81969   2.324  10.407   5.485  0.1824  0.3140 -0.2698
  608MOL0     C81970   2.240  10.340   5.407  0.5296  0.2778 -0.0162
  608MOL0     C81971   2.300  10.306   5.281  0.5060 -0.7697 -0.4243
  608MOL0     C81972   2.224  10.256   5.178 -0.9171  0.2329 -0.1001
  608MOL0     C81973   2.310  10.224   5.054  0.3937  0.0147  0.6386
  608MOL0     C81974   2.088  10.253   5.196  0.1776  1.4196 -0.0647
  608MOL0     C81975   1.998  10.209   5.091 -0.3945 -0.8883  0.3268
  608MOL0     O81976   1.863  10.183   5.127  0.1860 -0.3718  0.7527
  608MOL0     C81977   1.779  10.154   5.027  0.9610  0.4527 -0.4045
  608MOL0     C81978   1.667  10.238   5.005 -0.5320 -0.4315  0.0483
  608MOL0     C81979   1.561  10.210   4.912 -0.2348 -0.4161  0.2443
  608MOL0     C81980   1.587  10.099   4.827  0.2466 -0.2854 -0.3075
  608MOL0     O81981   1.488  10.072   4.732 -0.2206 -0.7132  0.0873
  608MOL0     C81982   1.539  10.028   4.607 -0.8516 -0.7770 -0.3736
  608MOL0     C81983   1.434   9.940   4.542  1.1166 -0.1877 -0.4885
  608MOL0     C81984   1.303  10.029   4.508 -0.3326 -0.8863  0.6311
  608MOL0     C81985   1.215   9.940   4.418 -0.0496 -0.5025 -0.4809
  608MOL0     C81986   1.080  10.006   4.381 -1.1825  0.0000 -0.2927
  608MOL0     C81987   0.995   9.917   4.286 -0.0034 -0.4282  0.5412
  608MOL0     C81988   0.886   9.997   4.227  0.6360 -0.4395 -0.2141
  608MOL0     C81989   0.947  10.112   4.132  0.0868 -0.7672 -0.0170
  608MOL0    Cl81990   0.798  10.169   4.049 -0.0655  0.2917  0.3976
  608MOL0     C81991   1.693  10.009   4.853  0.5628  0.2738 -0.5411
  608MOL0     C81992   1.785  10.033   4.952  0.1568 -0.4237  0.4421
  608MOL0     O81993   2.038  10.188   4.977  0.1290 -0.0074  0.4762
  608MOL0     C81994   2.031  10.278   5.321  0.3336 -0.0450 -0.6096
  608MOL0     C81995   2.106  10.322   5.422 -0.3425 -0.3371 -0.3511
  608MOL0     N81996   2.445  10.560   5.917 -0.1131 -0.3090  0.6524
  608MOL0     N81997   2.471  10.611   6.030  0.1541 -0.2487 -0.5823
  608MOL0     C81998   3.702  11.042   6.100  0.2429 -0.7545  0.3010
  608MOL0     C81999   3.838  11.087   6.083  0.8861  0.3166 -0.8544
  608MOL0     C82000   4.245  11.246   6.135 -0.0089 -0.2789 -0.7185
  608MOL0     C82001   4.252  11.380   6.094 -0.6141 -0.0691  0.2572
  608MOL0     C82002   4.375  11.436   6.057 -0.5826 -0.0461  1.3071
  608MOL0     C82003   4.497  11.370   6.069 -0.0964  0.2421 -0.5282
  608MOL0     O82004   4.611  11.444   6.047  0.0114  0.1815 -0.2883
  608MOL0     C82005   4.741  11.393   6.064  0.1442  0.0640  0.6211
  608MOL0     C82006   4.843  11.503   6.026 -0.1307 -0.0673  0.4407
  608MOL0     C82007   4.814  11.630   6.110 -0.2364  0.6820 -0.0421
  608MOL0     C82008   4.840  11.745   6.014 -0.1709  0.1381 -1.0475
  608MOL0     C82009   4.844  11.878   6.074 -0.1221  0.4859 -0.6638
  608MOL0     C82010   4.852  11.990   6.124  0.0109  0.5119 -0.0997
  608MOL0     C82011   4.492  11.239   6.119 -0.3838 -1.0446 -0.4905
  608MOL0     C82012   4.368  11.182   6.156 -0.9444  0.4284  0.0973
  608MOL0     H82013   3.805  11.387   6.250 -3.3434  0.9036  0.4404
  608MOL0     H82014   3.575  11.305   6.275 -3.4547 -2.6827 -1.4483
  608MOL0     H82015   3.467  10.976   6.009  1.5335  0.9455  0.7450
  608MOL0     H82016   3.472  10.855   6.127 -2.0015 -0.7359 -1.5837
  608MOL0     H82017   3.238  11.049   6.120 -1.1215 -1.2349 -1.2022
  608MOL0     H82018   3.237  10.893   6.038 -0.8461 -1.6035  0.7551
  608MOL0     H82019   3.308  10.782   6.243  0.6852 -0.7120 -0.2699
  608MOL0     H82020   3.286  10.927   6.333 -1.0699  0.1032  1.7482
  608MOL0     H82021   3.098  10.813   6.388 -1.6700  1.7302  0.1475
  608MOL0     H82022   3.061  10.950   6.282 -2.2535  0.3497 -1.4169
  608MOL0     H82023   3.007  10.812   6.095 -1.5382 -1.9184 -0.5576
  608MOL0     H82024   3.086  10.668   6.168  1.3357  0.6065  0.2422
  608MOL0     H82025   2.918  10.658   6.330  1.6236  1.4445  1.0228
  608MOL0     H82026   2.840  10.811   6.272  0.0497 -0.1074  1.6039
  608MOL0     H82027   2.825  10.722   6.047 -2.1938  0.2103  0.1120
  608MOL0     H82028   2.864  10.554   6.129 -0.3165 -0.9770  0.8327
  608MOL0     H82029   2.631  10.740   6.201  2.2183  0.9590  2.2425
  608MOL0     H82030   2.666  10.584   6.270 -1.4062  5.3836  2.7738
  608MOL0     H82031   2.701  10.392   5.992 -1.2788  0.5754 -0.2544
  608MOL0     H82032   2.559  10.413   5.696 -0.0584  2.3175  2.4438
  608MOL0     H82033   2.605  10.278   5.791 -0.5388  0.1366  1.7031
  608MOL0     H82034   2.366  10.200   5.834  3.8802 -0.6997  0.7081
  608MOL0     H82035   2.412  10.207   5.663  0.4105 -0.7175  0.6240
  608MOL0     H82036   2.251  10.406   5.819 -1.0218  1.8689 -0.5238
  608MOL0     H82037   2.182  10.292   5.699 -0.2614 -0.5675 -0.4328
  608MOL0     H82038   2.349  10.526   5.650  2.4554 -1.8839  0.7661
  608MOL0     H82039   2.181  10.510   5.590  0.4405  1.1468  1.1568
  608MOL0     H82040   2.404  10.336   5.267  0.4405 -0.4248 -0.2005
  608MOL0     H82041   2.271  10.134   5.005  3.8628 -1.1386 -0.2773
  608MOL0     H82042   2.304  10.313   4.990 -2.7366  1.6202  2.8965
  608MOL0     H82043   2.414  10.193   5.063  0.8326  1.7984  2.5053
  608MOL0     H82044   1.655  10.327   5.066 -0.6675 -0.0842 -0.4801
  608MOL0     H82045   1.471  10.265   4.887 -0.9999 -2.1625 -1.0228
  608MOL0     H82046   1.563  10.119   4.551  1.9490 -1.6084 -0.6824
  608MOL0     H82047   1.629   9.967   4.617  1.3301  2.3883  1.0431
  608MOL0     H82048   1.481   9.897   4.453  0.1765 -0.6204 -0.7851
  608MOL0     H82049   1.412   9.854   4.605 -0.2933  0.8143  0.4441
  608MOL0     H82050   1.338  10.115   4.450 -0.9744 -0.8737  0.2555
  608MOL0     H82051   1.249  10.071   4.593 -0.1972  2.8683 -0.9222
  608MOL0     H82052   1.280   9.898   4.340  0.2630 -2.4593  0.7407
  608MOL0     H82053   1.201   9.858   4.490 -0.5588 -1.4208 -1.6011
  608MOL0     H82054   1.118  10.096   4.332 -1.3240 -0.1317 -0.6449
  608MOL0     H82055   1.029  10.022   4.477  0.8412 -1.6100  1.1536
  608MOL0     H82056   1.057   9.873   4.207  0.6874  0.2131  0.7249
  608MOL0     H82057   0.937   9.837   4.334 -0.1934 -0.5642  0.0992
  608MOL0     H82058   0.821  10.037   4.305  0.2267  2.1801 -1.7315
  608MOL0     H82059   0.818   9.938   4.165  1.2824 -0.8868 -0.4963
  608MOL0     H82060   1.013  10.064   4.059  1.3921  0.3133  0.4297
  608MOL0     H82061   0.990  10.195   4.189 -1.0505  1.2154 -1.8987
  608MOL0     H82062   1.701   9.909   4.810  2.4046 -0.0721  0.4964
  608MOL0     H82063   1.859   9.959   4.982 -0.7051 -1.1426  0.8771
  608MOL0     H82064   1.925  10.265   5.341  0.6949 -4.3328 -0.5734
  608MOL0     H82065   2.057  10.359   5.512  0.1040 -0.9744  0.1648
  608MOL0     H82066   3.680  10.946   6.054 -3.2263 -0.3052  0.7282
  608MOL0     H82067   3.924  11.036   6.040  3.2965 -0.4447  4.1878
  608MOL0     H82068   4.163  11.440   6.079 -1.2042 -0.5850  1.6109
  608MOL0     H82069   4.369  11.537   6.019 -0.3624 -0.3696  0.3866
  608MOL0     H82070   4.760  11.352   6.164  0.7014  0.6361  0.7622
  608MOL0     H82071   4.772  11.312   5.998  2.9189 -0.0880  1.9626
  608MOL0     H82072   4.841  11.528   5.919 -2.3709  0.4920  0.5561
  608MOL0     H82073   4.944  11.469   6.049 -0.7792 -2.3377  0.1311
  608MOL0     H82074   4.888  11.637   6.190 -0.2790 -0.1383  0.0749
  608MOL0     H82075   4.719  11.628   6.164 -0.1739 -2.0299  0.1335
  608MOL0     H82076   4.752  11.735   5.950 -0.9474  0.3722 -0.0364
  608MOL0     H82077   4.930  11.733   5.953 -0.8649 -1.2610 -1.8347
  608MOL0     H82078   4.873  12.092   6.151 -3.6771  1.1830  0.8166
  608MOL0     H82079   4.594  11.204   6.129  0.0597  0.3686  0.3091
  608MOL0     H82080   4.365  11.083   6.199  1.0261 -0.2357 -1.1482
  609MOL0     O82081   8.886   3.167   3.807  0.8871  0.3641 -0.0523
  609MOL0     C82082   8.992   3.167   3.875  0.1875  0.9059  0.8825
  609MOL0     O82083   9.018   3.253   3.986 -0.2774  0.7380  0.2088
  609MOL0     C82084   8.915   3.324   4.041  0.7683 -0.4707 -0.0187
  609MOL0     C82085   8.878   3.295   4.171  0.8389 -0.3561 -0.2512
  609MOL0     C82086   8.788   3.371   4.246  0.6535  0.3941 -0.6302
  609MOL0     C82087   8.727   3.477   4.177 -0.2573 -0.3639 -0.3880
  609MOL0     O82088   8.635   3.561   4.234  0.3958  0.0617  0.5141
  609MOL0     C82089   8.550   3.501   4.327  0.2458  0.1693  0.1959
  609MOL0     C82090   8.415   3.585   4.323 -0.1179 -0.5746  0.0017
  609MOL0     C82091   8.311   3.517   4.422  0.3779 -0.0586 -0.6915
  609MOL0     C82092   8.189   3.605   4.455  0.3138  0.2115  0.3044
  609MOL0     C82093   8.064   3.529   4.516  0.1126 -0.0692 -0.0989
  609MOL0     C82094   7.953   3.626   4.559  0.8917 -0.0999 -0.5395
  609MOL0     C82095   7.849   3.555   4.642  0.2610 -0.8207 -0.2237
  609MOL0     C82096   7.720   3.631   4.670 -0.5014 -0.4133 -0.0108
  609MOL0     N82097   7.627   3.566   4.774 -0.3866 -0.0756 -0.3523
  609MOL0     C82098   7.642   3.475   4.872  0.5827  0.2324 -0.4665
  609MOL0     C82099   7.526   3.454   4.926 -0.5165  0.0093  0.1282
  609MOL0     C82100   7.482   3.360   5.030  0.0759 -0.0829  0.1562
  609MOL0     C82101   7.347   3.291   4.987  0.1539  0.1918  0.0804
  609MOL0     C82102   7.272   3.242   5.119  0.0188 -0.0811  0.1309
  609MOL0     C82103   7.152   3.156   5.093 -0.6115  0.6534 -0.1531
  609MOL0     O82104   7.060   3.250   5.035  0.3488  0.1684 -0.1976
  609MOL0     C82105   6.923   3.234   5.056 -0.8083 -0.2849 -1.2398
  609MOL0     C82106   6.839   3.334   5.009  0.5369 -0.1870 -0.3907
  609MOL0     C82107   6.696   3.341   5.038 -0.0142 -0.1162 -0.3193
  609MOL0     C82108   6.614   3.458   5.006  0.8335 -0.2890 -0.0872
  609MOL0     C82109   6.639   3.229   5.102  0.4628 -0.4786  1.9053
  609MOL0     C82110   6.488   3.216   5.117  0.4259 -0.2058 -0.1501
  609MOL0     O82111   6.409   3.259   5.017  0.3282 -0.1700  0.2845
  609MOL0     C82112   6.269   3.250   5.027 -0.5394 -0.3342  0.3398
  609MOL0     C82113   6.182   3.362   5.028  0.6563 -0.1275  0.4243
  609MOL0     C82114   6.040   3.346   5.052  0.6492  0.0094  0.5351
  609MOL0     C82115   5.985   3.218   5.087 -0.6468  0.1935  0.3293
  609MOL0     O82116   5.856   3.192   5.115  0.0411 -0.2380  0.0032
  609MOL0     C82117   5.769   3.308   5.134  0.2138 -0.7769  0.5932
  609MOL0     C82118   5.637   3.257   5.177  0.5118  0.1175 -0.7015
  609MOL0     C82119   5.635   3.167   5.300  0.3703 -0.0007  0.3491
  609MOL0     C82120   5.501   3.141   5.365 -0.7947 -0.5054 -0.4422
  609MOL0     C82121   5.494   3.027   5.476  1.4144 -0.6319  0.4654
  609MOL0     C82122   5.355   3.031   5.545  0.6962 -0.4617 -0.1228
  609MOL0     C82123   5.235   2.984   5.467 -0.8521  0.4531  0.2446
  609MOL0     C82124   5.127   2.909   5.551 -0.3497 -0.4209  0.7267
  609MOL0    Cl82125   5.185   2.751   5.604 -0.2454  0.4075 -0.1162
  609MOL0     C82126   6.076   3.114   5.082  0.4816  0.0734  0.5544
  609MOL0     C82127   6.210   3.124   5.050 -0.1201 -0.0116  0.2601
  609MOL0     O82128   6.452   3.163   5.218 -0.2652  0.4638 -0.3602
  609MOL0     C82129   6.722   3.119   5.138  0.6042 -1.0109 -0.6218
  609MOL0     C82130   6.856   3.128   5.127  0.2869  0.0524 -1.0606
  609MOL0     N82131   7.441   3.552   4.880 -0.6467 -0.0909  0.3158
  609MOL0     N82132   7.500   3.627   4.795  0.7913  0.4238  0.8115
  609MOL0     C82133   8.764   3.511   4.043 -0.8596  0.3225  0.6471
  609MOL0     C82134   8.860   3.434   3.977 -0.7635  0.9234  0.8336
  609MOL0     C82135   9.105   3.088   3.816 -0.3257 -0.8601 -0.7081
  609MOL0     C82136   9.093   2.988   3.723 -0.1428 -0.2828  0.7610
  609MOL0     C82137   9.209   2.926   3.671  0.6582 -0.0040 -0.1195
  609MOL0     C82138   9.339   2.963   3.726 -0.1388  0.9316  0.0447
  609MOL0     O82139   9.461   2.923   3.686  0.0397  0.4594  0.4850
  609MOL0     C82140   9.464   2.836   3.572  0.0283  0.1421  0.0053
  609MOL0     C82141   9.616   2.822   3.525 -0.2228  0.0795 -1.1044
  609MOL0     C82142   9.626   2.735   3.394 -0.0946 -0.0378 -0.6183
  609MOL0     C82143   9.768   2.700   3.344 -0.6092  0.5824  0.0819
  609MOL0     C82144   9.758   2.588   3.243 -0.6996  0.0814  0.7731
  609MOL0     C82145   9.743   2.510   3.148  0.0257 -0.4766 -0.1981
  609MOL0     C82146   9.352   3.065   3.820 -0.3456 -1.1490  0.3183
  609MOL0     C82147   9.237   3.118   3.866  0.7376  0.0054 -0.9743
  609MOL0     H82148   8.923   3.212   4.226  0.6191 -0.1380  0.2658
  609MOL0     H82149   8.777   3.345   4.351  2.3648  0.0109 -0.5308
  609MOL0     H82150   8.531   3.399   4.293  1.9679 -0.0922 -0.0575
  609MOL0     H82151   8.585   3.496   4.431  1.3488  2.1823 -0.0345
  609MOL0     H82152   8.431   3.692   4.342 -0.8278 -0.2685 -1.0498
  609MOL0     H82153   8.383   3.562   4.221  0.9436 -3.7860  0.2834
  609MOL0     H82154   8.278   3.426   4.371  0.0944 -0.2130 -0.2383
  609MOL0     H82155   8.355   3.488   4.517 -2.7738  0.9607  1.2233
  609MOL0     H82156   8.228   3.675   4.529 -2.4098  0.9814  1.1169
  609MOL0     H82157   8.153   3.658   4.366 -1.3012 -1.4789 -0.1304
  609MOL0     H82158   8.029   3.462   4.437  3.8625  0.4877 -2.4724
  609MOL0     H82159   8.099   3.472   4.603 -2.1365  1.2017  1.7563
  609MOL0     H82160   7.996   3.703   4.624  0.2751 -0.6919  0.5995
  609MOL0     H82161   7.908   3.672   4.471 -1.1587  0.6857  0.8380
  609MOL0     H82162   7.823   3.458   4.600 -0.8355 -0.7592  0.2722
  609MOL0     H82163   7.906   3.533   4.733  0.4129  1.0990  0.1862
  609MOL0     H82164   7.663   3.639   4.577 -1.2072 -0.3205  0.4221
  609MOL0     H82165   7.746   3.735   4.689 -0.8345 -0.0341 -1.5087
  609MOL0     H82166   7.734   3.421   4.890  0.8961  0.9944  0.2972
  609MOL0     H82167   7.557   3.285   5.059 -0.1621  0.6724  3.0021
  609MOL0     H82168   7.470   3.424   5.117  0.4206 -1.7082  1.4622
  609MOL0     H82169   7.381   3.212   4.920  0.8839  1.7335 -1.4704
  609MOL0     H82170   7.280   3.360   4.935  0.3552  1.0047  0.8632
  609MOL0     H82171   7.247   3.334   5.171 -0.9425  0.0063 -0.4546
  609MOL0     H82172   7.344   3.180   5.174 -0.1645 -1.5592 -1.2090
  609MOL0     H82173   7.111   3.104   5.180  1.4259 -2.8842 -1.0824
  609MOL0     H82174   7.173   3.076   5.021  0.9104 -1.0415  2.0234
  609MOL0     H82175   6.878   3.413   4.945  0.8421 -1.2518 -1.5657
  609MOL0     H82176   6.545   3.470   5.090 -0.9583  2.8386 -1.8053
  609MOL0     H82177   6.676   3.545   4.982  1.0654 -0.6690 -0.8966
  609MOL0     H82178   6.555   3.443   4.915  2.4519  2.3221 -1.6806
  609MOL0     H82179   6.230   3.456   5.005 -0.9100  1.6984  3.8860
  609MOL0     H82180   5.972   3.429   5.036  0.0964 -0.5548 -0.1234
  609MOL0     H82181   5.812   3.375   5.209  0.4714  0.8763 -0.9613
  609MOL0     H82182   5.757   3.372   5.046  1.0772 -0.1240  0.9314
  609MOL0     H82183   5.578   3.346   5.201  0.1386 -0.6323  1.3690
  609MOL0     H82184   5.585   3.205   5.096  2.4489 -2.3135 -0.4697
  609MOL0     H82185   5.705   3.205   5.375  1.4616  3.6733 -2.2704
  609MOL0     H82186   5.677   3.073   5.263  0.7493 -0.9391  2.9087
  609MOL0     H82187   5.478   3.236   5.414 -1.5909 -0.1028 -1.5458
  609MOL0     H82188   5.425   3.119   5.289 -0.4277 -0.1829 -0.9067
  609MOL0     H82189   5.576   3.060   5.540  1.0389  0.4613  0.4143
  609MOL0     H82190   5.517   2.928   5.436  1.0793 -0.2393 -0.7646
  609MOL0     H82191   5.355   2.966   5.633  0.0440  2.1147  1.9148
  609MOL0     H82192   5.339   3.128   5.594  1.6097 -0.6252  0.5269
  609MOL0     H82193   5.267   2.906   5.397  0.1089 -2.6869  3.8624
  609MOL0     H82194   5.200   3.075   5.418 -1.5792  0.8647  1.4746
  609MOL0     H82195   5.036   2.892   5.492 -0.1477  1.6219 -0.2439
  609MOL0     H82196   5.107   2.963   5.643  4.4696  1.7087  0.8143
  609MOL0     H82197   6.050   3.011   5.105  0.8671 -0.4103 -1.0464
  609MOL0     H82198   6.271   3.035   5.051 -3.9690 -2.9077  2.5956
  609MOL0     H82199   6.671   3.034   5.183 -1.7670  1.0001  0.7477
  609MOL0     H82200   6.917   3.047   5.164 -1.5699 -0.7148  0.4731
  609MOL0     H82201   8.715   3.598   3.999  0.4956 -0.2562 -2.2137
  609MOL0     H82202   8.911   3.460   3.885  3.1343 -1.8600  1.9646
  609MOL0     H82203   8.996   2.973   3.678 -0.7844  0.4753  1.8468
  609MOL0     H82204   9.204   2.848   3.596  0.1349 -0.5416  0.4599
  609MOL0     H82205   9.411   2.742   3.587 -0.2447  0.0970 -1.1347
  609MOL0     H82206   9.412   2.885   3.489 -2.9535 -1.6709  0.6561
  609MOL0     H82207   9.680   2.775   3.600  1.5811  1.0665 -1.9834
  609MOL0     H82208   9.650   2.924   3.505 -2.1988  1.8887  3.3691
  609MOL0     H82209   9.569   2.782   3.313 -0.9234 -1.1757 -0.7134
  609MOL0     H82210   9.576   2.641   3.419 -0.3486  0.1553 -0.3966
  609MOL0     H82211   9.831   2.662   3.424 -1.6431  0.1701  0.7148
  609MOL0     H82212   9.816   2.788   3.300  0.6810 -1.0757 -2.0059
  609MOL0     H82213   9.714   2.449   3.065  0.3804  1.0796 -1.4998
  609MOL0     H82214   9.446   3.106   3.855 -0.8301 -0.3207  0.6934
  609MOL0     H82215   9.242   3.207   3.929 -0.3839 -0.0378 -0.7918
  610MOL0     O82216   8.960   2.190   0.029 -0.0140  0.1833 -0.7311
  610MOL0     C82217   9.071   2.252   0.044 -0.0381  0.5397  0.0719
  610MOL0     O82218   9.091   2.385   0.089 -0.5335  0.4233 -0.6604
  610MOL0     C82219   8.976   2.449   0.110  1.0713  0.4770  0.1234
  610MOL0     C82220   8.905   2.501   0.001 -0.7689 -0.6313 -0.1784
  610MOL0     C82221   8.804   2.595   0.020 -0.7798 -0.4029 -0.1355
  610MOL0     C82222   8.762   2.640   0.143  0.2521 -0.6771 -0.3372
  610MOL0     O82223   8.663   2.736   0.146  0.3513  0.0421 -0.4141
  610MOL0     C82224   8.642   2.806   0.266 -0.4918 -0.1688 -0.9152
  610MOL0     C82225   8.527   2.896   0.243 -0.0255 -0.8190  0.8135
  610MOL0     C82226   8.508   2.984   0.363  0.1954  0.5545 -0.7967
  610MOL0     C82227   8.624   3.089   0.384 -0.3622 -0.5536 -0.2113
  610MOL0     C82228   8.575   3.238   0.372 -0.2816  0.2596  0.5309
  610MOL0     C82229   8.520   3.273   0.229  0.2364  0.8276  0.8988
  610MOL0     C82230   8.465   3.412   0.214  0.2975  0.0826  0.1856
  610MOL0     C82231   8.403   3.451   0.075  0.5840  0.1468 -0.1499
  610MOL0     N82232   8.270   3.391   0.064  0.3676  0.5919 -0.1522
  610MOL0     C82233   8.163   3.429   0.136  0.2478  0.5930 -0.7538
  610MOL0     C82234   8.054   3.377   0.081 -0.6905  0.0352 -0.1205
  610MOL0     C82235   7.907   3.398   0.120  0.3487  0.1390  0.3265
  610MOL0     C82236   7.864   3.300   0.228 -0.1273  0.2405 -0.0973
  610MOL0     C82237   7.867   3.161   0.176  0.0951  0.8811 -0.3341
  610MOL0     C82238   7.809   3.061   0.269  0.8920  0.4827 -0.4171
  610MOL0     O82239   7.892   3.032   0.382  0.4317 -0.6698 -0.1942
  610MOL0     C82240   7.838   2.958   0.477 -0.2322 -0.2540 -0.7585
  610MOL0     C82241   7.908   2.968   0.597  0.5261 -0.7782  0.3476
  610MOL0     C82242   7.860   2.889   0.708  0.7723 -0.6308  0.2490
  610MOL0     C82243   7.954   2.895   0.823 -1.1074 -0.6827 -0.2736
  610MOL0     C82244   7.746   2.813   0.699 -0.6622  0.3424 -0.5922
  610MOL0     C82245   7.697   2.713   0.808 -0.2633  1.1750 -0.1442
  610MOL0     O82246   7.577   2.641   0.785 -1.0247  0.8700  0.3887
  610MOL0     C82247   7.531   2.554   0.876 -0.5525 -0.2293  0.0755
  610MOL0     C82248   7.613   2.474   0.952  0.4791  0.3315  0.1503
  610MOL0     C82249   7.545   2.389   1.046  0.4071 -0.5907  0.1679
  610MOL0     C82250   7.411   2.390   1.075 -0.7509  0.7864  0.3477
  610MOL0     O82251   7.365   2.306   1.181 -0.1483 -0.6449 -0.5838
  610MOL0     C82252   7.235   2.331   1.219  0.4584  0.0151  0.2881
  610MOL0     C82253   7.138   2.243   1.138  0.8133 -0.1809 -0.4655
  610MOL0     C82254   6.991   2.274   1.171  0.0899  0.3834 -0.4035
  610MOL0     C82255   6.955   2.218   1.309  0.2611  0.1909 -0.3110
  610MOL0     C82256   6.807   2.245   1.330 -0.0249 -0.4771 -0.5296
  610MOL0     C82257   6.706   2.188   1.233  0.0057 -0.5089 -0.1078
  610MOL0     C82258   6.556   2.187   1.286  0.3463  0.0635  0.4036
  610MOL0     C82259   6.454   2.119   1.190 -0.0481 -0.1745  0.8515
  610MOL0    Cl82260   6.491   1.950   1.173  0.2846  0.4508 -0.3691
  610MOL0     C82261   7.334   2.477   0.989  0.0783  0.1224  0.1145
  610MOL0     C82262   7.391   2.554   0.893 -0.7374 -0.1975  0.6540
  610MOL0     O82263   7.770   2.694   0.905 -0.2422 -0.3050  0.5413
  610MOL0     C82264   7.675   2.815   0.577  0.7913  0.3407 -0.4229
  610MOL0     C82265   7.719   2.885   0.471 -0.2226  0.2395  0.0998
  610MOL0     N82266   8.094   3.298  -0.019 -0.5166 -0.7774 -0.9751
  610MOL0     N82267   8.224   3.296  -0.028  0.0381 -0.8210  0.5655
  610MOL0     C82268   8.832   2.599   0.256 -0.1596  0.2377 -0.5382
  610MOL0     C82269   8.940   2.504   0.235  0.7237 -0.3651 -0.3416
  610MOL0     C82270   9.192   2.188  -0.010 -1.1984  0.6613 -0.5888
  610MOL0     C82271   9.170   2.062  -0.067  0.3613 -0.1365 -0.7775
  610MOL0     C82272   9.278   1.993  -0.109  0.7390 -0.4453  0.3010
  610MOL0     C82273   9.412   2.042  -0.103  0.1558 -0.3928 -0.0165
  610MOL0     O82274   9.513   1.960  -0.149 -0.2735 -0.6969 -0.2121
  610MOL0     C82275   9.653   2.008  -0.162  0.0001  0.3909  0.7406
  610MOL0     C82276   9.720   2.000  -0.030 -0.0083 -0.8490  0.2087
  610MOL0     C82277   9.851   2.086  -0.026 -0.0821 -0.8841  0.5463
  610MOL0     C82278   9.928   2.041   0.099 -0.3412 -0.7368  0.6558
  610MOL0     C82279  10.040   2.130   0.136  0.3083  1.5853  0.8362
  610MOL0     C82280  10.132   2.200   0.169 -0.0157  0.4235 -0.2132
  610MOL0     C82281   9.434   2.171  -0.048  0.0176 -0.7177 -0.0285
  610MOL0     C82282   9.323   2.246  -0.013  0.2159  0.1500  0.2722
  610MOL0     H82283   8.931   2.479  -0.102 -0.9289 -0.1148 -0.3352
  610MOL0     H82284   8.754   2.639  -0.066 -1.3803  1.4063  1.0735
  610MOL0     H82285   8.619   2.737   0.348  2.8414 -1.1373 -0.6449
  610MOL0     H82286   8.728   2.869   0.289 -1.1815 -0.5407  3.4458
  610MOL0     H82287   8.562   2.956   0.158  1.7008 -2.6332  0.1776
  610MOL0     H82288   8.434   2.848   0.212 -1.2349  1.9639 -0.1817
  610MOL0     H82289   8.413   3.036   0.354 -0.5813  0.7780  4.9407
  610MOL0     H82290   8.505   2.921   0.452 -0.6250 -1.3550 -2.1002
  610MOL0     H82291   8.680   3.067   0.475  2.5682 -2.2818 -2.2553
  610MOL0     H82292   8.702   3.074   0.309 -0.5131 -1.0343 -0.2771
  610MOL0     H82293   8.487   3.246   0.438 -1.8066 -3.7707 -0.6980
  610MOL0     H82294   8.655   3.306   0.403  0.0464 -2.0828  5.8209
  610MOL0     H82295   8.599   3.252   0.156  2.3520  1.3129  2.9112
  610MOL0     H82296   8.441   3.201   0.204 -1.3236  3.3177 -2.0184
  610MOL0     H82297   8.391   3.428   0.293 -1.2904 -1.0245 -1.0066
  610MOL0     H82298   8.555   3.471   0.235 -0.2827  1.0990 -0.1426
  610MOL0     H82299   8.465   3.441  -0.014 -0.7586  1.5563 -1.3054
  610MOL0     H82300   8.401   3.559   0.088 -2.1799 -0.0460  1.9105
  610MOL0     H82301   8.150   3.504   0.212 -1.7575  0.5616 -1.0157
  610MOL0     H82302   7.883   3.496   0.162 -0.6331  0.2128 -0.3703
  610MOL0     H82303   7.851   3.390   0.026 -0.5112  0.7520  0.7767
  610MOL0     H82304   7.764   3.319   0.268  0.6056 -1.5906  2.9071
  610MOL0     H82305   7.936   3.315   0.309  1.0740  0.1465 -1.1299
  610MOL0     H82306   7.973   3.133   0.172 -0.1019 -0.0617  0.4891
  610MOL0     H82307   7.821   3.150   0.078  0.4900 -1.0105 -0.3411
  610MOL0     H82308   7.819   2.970   0.209 -1.3253 -0.2536  0.2536
  610MOL0     H82309   7.706   3.085   0.293  0.3966 -1.2609 -0.6592
  610MOL0     H82310   7.996   3.031   0.601  0.3569 -0.4266 -1.1194
  610MOL0     H82311   8.030   2.973   0.815 -0.8163 -1.0200 -0.8904
  610MOL0     H82312   7.899   2.914   0.916 -1.5883  0.4521 -0.7680
  610MOL0     H82313   8.004   2.799   0.833  1.2006  0.1809 -2.4294
  610MOL0     H82314   7.720   2.477   0.932  0.6579  0.1841  1.0437
  610MOL0     H82315   7.601   2.318   1.105  3.4404  2.0642  0.7379
  610MOL0     H82316   7.220   2.300   1.323 -2.9223  0.5683  0.0769
  610MOL0     H82317   7.224   2.440   1.212  1.6306  0.0364 -2.7650
  610MOL0     H82318   7.153   2.258   1.030 -0.2671  0.8009 -0.4968
  610MOL0     H82319   7.153   2.137   1.160 -1.1209 -1.1063 -3.0499
  610MOL0     H82320   6.932   2.221   1.095 -0.2705 -0.6660  0.5806
  610MOL0     H82321   6.978   2.382   1.164 -0.1807  0.4569  1.0277
  610MOL0     H82322   6.964   2.110   1.317 -3.9411 -0.2102  2.3226
  610MOL0     H82323   7.005   2.283   1.381  1.3926 -1.0869  0.0791
  610MOL0     H82324   6.798   2.353   1.347  0.7014 -0.0945 -2.2906
  610MOL0     H82325   6.785   2.201   1.427  0.5377 -1.3705 -0.7952
  610MOL0     H82326   6.704   2.258   1.149 -0.0512 -1.8585 -1.2741
  610MOL0     H82327   6.730   2.085   1.204 -1.6719 -0.9318 -0.1531
  610MOL0     H82328   6.518   2.289   1.294 -0.6588 -0.0710 -1.9024
  610MOL0     H82329   6.552   2.132   1.380  2.2069  0.2105  0.5994
  610MOL0     H82330   6.459   2.158   1.088 -3.6234 -3.6080 -0.9165
  610MOL0     H82331   6.355   2.137   1.233 -0.4300 -0.2596  0.0392
  610MOL0     H82332   7.226   2.476   1.000  0.0896  2.6177  1.0449
  610MOL0     H82333   7.332   2.617   0.828 -0.1202  0.1326  0.4081
  610MOL0     H82334   7.583   2.760   0.556  0.6037 -1.0678  3.2775
  610MOL0     H82335   7.662   2.879   0.378  0.4540  1.9094 -0.4640
  610MOL0     H82336   8.823   2.621   0.362  3.7125  0.7868 -0.1635
  610MOL0     H82337   8.993   2.466   0.322 -1.8532 -0.3553  1.3117
  610MOL0     H82338   9.078   2.005  -0.076 -0.3615  1.0959 -1.5353
  610MOL0     H82339   9.265   1.904  -0.170 -0.1061 -1.6445  2.1387
  610MOL0     H82340   9.695   1.934  -0.231  1.6604  4.5061 -3.1782
  610MOL0     H82341   9.673   2.104  -0.209 -1.5952 -0.2594 -1.4592
  610MOL0     H82342   9.730   1.901   0.016  0.3209  0.0190  2.0983
  610MOL0     H82343   9.661   2.051   0.048 -0.7710  0.1949 -1.0080
  610MOL0     H82344   9.814   2.188  -0.021 -0.5259 -0.8975 -1.5063
  610MOL0     H82345   9.908   2.074  -0.119 -2.5059 -0.3259 -1.1087
  610MOL0     H82346   9.953   1.936   0.078 -2.0016 -0.9561 -0.5218
  610MOL0     H82347   9.857   2.030   0.182 -2.9920 -0.6842 -1.4641
  610MOL0     H82348  10.201   2.275   0.202 -0.5737  0.3060  1.3282
  610MOL0     H82349   9.535   2.211  -0.050 -0.3568  0.2582  0.1741
  610MOL0     H82350   9.346   2.342   0.030  0.4689 -0.2316  1.0017
  611MOL0     O82351   7.421   0.746   3.340 -0.1453  0.8641 -0.2094
  611MOL0     C82352   7.511   0.662   3.354 -0.2277  1.0191  0.3793
  611MOL0     O82353   7.494   0.552   3.428  0.5841 -0.4341  0.2816
  611MOL0     C82354   7.398   0.544   3.519  0.3812  0.3755  0.0739
  611MOL0     C82355   7.321   0.432   3.529  1.1056  0.2739 -0.5515
  611MOL0     C82356   7.236   0.408   3.641  0.2310  0.2806 -0.1049
  611MOL0     C82357   7.220   0.502   3.739  0.9110  1.4714  0.0778
  611MOL0     O82358   7.138   0.477   3.850  0.8748 -0.1747  0.4557
  611MOL0     C82359   7.148   0.545   3.971 -0.3929  0.5072 -0.6828
  611MOL0     C82360   7.038   0.496   4.062  0.2273 -0.8969  0.6622
  611MOL0     C82361   6.989   0.601   4.160  0.7420 -0.2490  0.4209
  611MOL0     C82362   6.917   0.710   4.068  0.0847  0.6599 -1.3568
  611MOL0     C82363   6.993   0.842   4.083 -0.9228  0.3575  0.0442
  611MOL0     C82364   6.953   0.941   3.979  0.0165 -1.2962  0.1083
  611MOL0     C82365   7.079   1.003   3.922  0.0905 -0.3266  0.5027
  611MOL0     C82366   7.131   1.136   3.979  0.6049 -0.7792  0.0287
  611MOL0     N82367   7.172   1.126   4.122 -0.5812 -0.1121 -0.4305
  611MOL0     C82368   7.101   1.129   4.241  0.5501  1.3953 -1.0975
  611MOL0     C82369   7.196   1.128   4.339 -0.6783 -0.9845  0.0376
  611MOL0     C82370   7.156   1.149   4.485 -0.1118 -0.7771  0.4304
  611MOL0     C82371   7.054   1.036   4.536  0.5025 -0.3462  0.3360
  611MOL0     C82372   7.028   1.026   4.689  0.1256 -0.3290  0.8333
  611MOL0     C82373   6.929   0.911   4.713  0.2187 -0.2395  1.2376
  611MOL0     O82374   6.876   0.929   4.847  0.4828  0.0677  0.3122
  611MOL0     C82375   6.736   0.916   4.864 -0.1410 -1.1057 -0.5416
  611MOL0     C82376   6.693   0.939   4.993 -1.0959 -0.3856  0.3665
  611MOL0     C82377   6.567   0.923   5.039  0.1563 -0.4011  0.5255
  611MOL0     C82378   6.535   0.969   5.178  0.5122  0.2296 -0.3996
  611MOL0     C82379   6.469   0.868   4.955  0.4240  0.9008 -0.6885
  611MOL0     C82380   6.325   0.849   4.988  0.1305 -0.1847  0.2361
  611MOL0     O82381   6.246   0.810   4.878 -0.5814 -0.1186 -0.1925
  611MOL0     C82382   6.111   0.838   4.884 -0.0862 -0.7203  0.5972
  611MOL0     C82383   6.023   0.740   4.843 -0.4692  0.1241  0.5317
  611MOL0     C82384   5.881   0.757   4.844 -0.4465  0.1205 -0.5658
  611MOL0     C82385   5.832   0.871   4.913 -0.3866 -0.4075 -0.2697
  611MOL0     O82386   5.702   0.887   4.939 -0.2689 -0.8276 -0.1851
  611MOL0     C82387   5.630   0.766   4.961 -0.2687  0.6461 -0.2191
  611MOL0     C82388   5.500   0.798   5.034 -0.5345 -0.5072 -0.2767
  611MOL0     C82389   5.382   0.818   4.928  0.6400 -0.3911 -0.1797
  611MOL0     C82390   5.257   0.882   4.995  0.2231  1.2655 -0.2638
  611MOL0     C82391   5.173   0.795   5.090  0.1947 -0.4290  0.0803
  611MOL0     C82392   5.048   0.861   5.141  0.2521  0.7132  0.2078
  611MOL0     C82393   5.066   1.006   5.200 -0.7905  0.5112  0.6544
  611MOL0     C82394   5.146   0.999   5.330  0.2288 -0.1702 -0.1915
  611MOL0    Cl82395   5.049   0.922   5.457 -0.2382 -0.1389 -0.3858
  611MOL0     C82396   5.918   0.971   4.959  0.6972  0.5576  1.0702
  611MOL0     C82397   6.059   0.957   4.935  0.2796 -0.5972  0.2905
  611MOL0     O82398   6.279   0.874   5.100  0.0078  0.5520  0.0378
  611MOL0     C82399   6.512   0.831   4.825 -0.0781 -0.3243  0.8212
  611MOL0     C82400   6.640   0.860   4.773  0.2318 -0.3042 -0.0629
  611MOL0     N82401   7.319   1.127   4.277  0.5412  0.0394  0.0656
  611MOL0     N82402   7.307   1.138   4.152 -0.4977 -0.5690  0.4423
  611MOL0     C82403   7.272   0.627   3.716  0.4694 -0.4621 -0.1688
  611MOL0     C82404   7.364   0.648   3.611  0.1532 -0.1316  0.1571
  611MOL0     C82405   7.636   0.676   3.266  0.1148 -0.2734 -0.2070
  611MOL0     C82406   7.739   0.578   3.257  0.5868 -0.7344 -0.2697
  611MOL0     C82407   7.853   0.605   3.183 -0.1426  0.1914 -0.3916
  611MOL0     C82408   7.873   0.718   3.108 -0.0986 -0.9350  0.1165
  611MOL0     O82409   7.992   0.725   3.043  0.4622  0.2989 -0.4142
  611MOL0     C82410   8.029   0.847   2.980 -0.2612 -0.1771  0.7021
  611MOL0     C82411   8.091   0.945   3.078  0.6810  0.6702 -1.4160
  611MOL0     C82412   8.232   0.897   3.123 -0.2037 -0.0952  0.3186
  611MOL0     C82413   8.295   0.990   3.233  0.1269  0.3751  1.2924
  611MOL0     C82414   8.428   0.931   3.254 -0.1037  0.0427  0.3782
  611MOL0     C82415   8.535   0.874   3.283 -0.1154  0.4615 -0.3316
  611MOL0     C82416   7.764   0.810   3.112  0.5421 -0.4586 -0.4898
  611MOL0     C82417   7.658   0.791   3.199  0.6544 -0.9391  0.7799
  611MOL0     H82418   7.329   0.347   3.462  0.6586  0.5169 -0.9162
  611MOL0     H82419   7.212   0.303   3.657  2.0718 -0.1324  0.1592
  611MOL0     H82420   7.240   0.514   4.022 -0.4708 -1.6114 -1.7347
  611MOL0     H82421   7.148   0.654   3.957 -2.4901  0.3766 -2.0486
  611MOL0     H82422   6.956   0.453   4.004 -2.5085  0.5617  3.1879
  611MOL0     H82423   7.070   0.407   4.117  1.6432 -1.7397 -1.3896
  611MOL0     H82424   6.921   0.564   4.237  3.5992 -1.2438  2.6815
  611MOL0     H82425   7.072   0.655   4.207  0.1563  0.6199  0.4808
  611MOL0     H82426   6.914   0.681   3.963  0.6937  2.1650 -1.8278
  611MOL0     H82427   6.818   0.736   4.107  0.3213 -0.3966  0.0527
  611MOL0     H82428   6.973   0.885   4.182  2.7397  3.3258 -0.2488
  611MOL0     H82429   7.100   0.826   4.095 -1.0498  0.0441  0.8144
  611MOL0     H82430   6.892   0.903   3.897  0.4780  2.3059 -2.1227
  611MOL0     H82431   6.889   1.017   4.025  2.0071 -0.9319  2.4823
  611MOL0     H82432   7.161   0.934   3.901  0.9280  0.8011 -0.0668
  611MOL0     H82433   7.038   1.038   3.826 -2.0094 -1.1377  1.0486
  611MOL0     H82434   7.053   1.213   3.976  1.3785  0.0092 -3.3505
  611MOL0     H82435   7.212   1.173   3.916 -0.4185  0.5096 -0.5856
  611MOL0     H82436   6.994   1.136   4.254  0.6882  1.6989 -0.0300
  611MOL0     H82437   7.241   1.156   4.553 -0.0652  0.9023  0.2498
  611MOL0     H82438   7.110   1.248   4.483  1.3735 -0.0117  1.7361
  611MOL0     H82439   7.105   0.941   4.516  1.3296 -0.3271  2.1259
  611MOL0     H82440   6.964   1.041   4.475  1.6488 -0.5621 -1.4666
  611MOL0     H82441   6.986   1.122   4.720  0.0252  0.0760 -0.5171
  611MOL0     H82442   7.125   1.015   4.740  1.9895  0.1476 -2.3349
  611MOL0     H82443   6.974   0.811   4.710 -0.3387 -0.4943 -1.1922
  611MOL0     H82444   6.849   0.918   4.638  0.6132 -1.9732  0.6060
  611MOL0     H82445   6.770   0.975   5.060  1.6140 -1.1819 -2.0739
  611MOL0     H82446   6.503   0.884   5.238 -2.5763  1.2358 -0.4308
  611MOL0     H82447   6.621   1.017   5.226  0.0062  3.2983 -2.2447
  611MOL0     H82448   6.453   1.042   5.185  0.0031 -0.4121  0.6167
  611MOL0     H82449   6.062   0.646   4.805  1.2307 -0.5099  3.5183
  611MOL0     H82450   5.822   0.681   4.794 -1.1190 -0.1778  0.6381
  611MOL0     H82451   5.601   0.714   4.870 -1.4490 -0.2323  0.6271
  611MOL0     H82452   5.678   0.693   5.027 -0.7516 -0.2058 -0.7889
  611MOL0     H82453   5.464   0.711   5.090  0.8852  1.0776  3.4197
  611MOL0     H82454   5.504   0.876   5.111  0.0263  0.0198 -0.8390
  611MOL0     H82455   5.359   0.726   4.873 -0.2599 -1.1003  1.3209
  611MOL0     H82456   5.419   0.885   4.849  1.2201 -1.1541 -0.5717
  611MOL0     H82457   5.289   0.968   5.056  2.0867  1.3295 -1.2538
  611MOL0     H82458   5.199   0.928   4.915 -1.5652 -1.1981 -0.4874
  611MOL0     H82459   5.232   0.755   5.173  0.5721 -0.6284 -0.2809
  611MOL0     H82460   5.149   0.713   5.022  0.8639 -1.4766  1.0765
  611MOL0     H82461   4.981   0.864   5.055  1.9763  1.6921 -1.1519
  611MOL0     H82462   4.992   0.800   5.213  0.5726 -1.0025 -0.9482
  611MOL0     H82463   4.967   1.048   5.221 -0.1425  1.8648  1.1121
  611MOL0     H82464   5.111   1.064   5.119 -0.9086 -2.1250 -1.4274
  611MOL0     H82465   5.169   1.102   5.361  0.2963 -0.3325  0.2964
  611MOL0     H82466   5.245   0.957   5.315  0.2791 -1.0486  2.1747
  611MOL0     H82467   5.871   1.050   5.018 -1.3084  0.1557  0.0937
  611MOL0     H82468   6.129   1.034   4.965  1.2294 -1.9568  1.7353
  611MOL0     H82469   6.439   0.789   4.756 -3.0405 -0.5828  3.8328
  611MOL0     H82470   6.660   0.824   4.672  0.5612  1.7849 -0.7956
  611MOL0     H82471   7.238   0.718   3.765  1.8649  0.2564 -0.4619
  611MOL0     H82472   7.407   0.745   3.588 -1.2046 -0.2681 -3.8356
  611MOL0     H82473   7.726   0.498   3.330 -2.6061  0.0834  0.2078
  611MOL0     H82474   7.936   0.537   3.204 -0.8121 -0.5041  0.0415
  611MOL0     H82475   8.100   0.840   2.897  1.5173  1.6067  1.9605
  611MOL0     H82476   7.939   0.901   2.950 -0.1487  0.0918  0.8451
  611MOL0     H82477   8.028   0.963   3.166  0.4564  0.1935 -1.4787
  611MOL0     H82478   8.101   1.045   3.034  2.1494  2.3973  2.3698
  611MOL0     H82479   8.298   0.891   3.037 -1.3114 -0.5713 -0.5303
  611MOL0     H82480   8.221   0.795   3.160 -1.0709  0.5486  1.9662
  611MOL0     H82481   8.241   0.999   3.327 -2.7630  1.9321 -0.3745
  611MOL0     H82482   8.305   1.092   3.192  1.2971  0.6748  2.2599
  611MOL0     H82483   8.625   0.824   3.313  2.1502  4.4725  0.2744
  611MOL0     H82484   7.771   0.899   3.050  0.8665 -0.9546 -1.1736
  611MOL0     H82485   7.592   0.877   3.197  2.3282  0.3870  0.6822
  612MOL0     O82486   3.563  10.692   5.597 -0.0230 -0.3014  0.1485
  612MOL0     C82487   3.595  10.657   5.716 -0.1697 -0.4804  0.8919
  612MOL0     O82488   3.509  10.601   5.814 -0.4042  0.4752  0.6949
  612MOL0     C82489   3.378  10.614   5.782  0.2595 -0.5432 -0.0630
  612MOL0     C82490   3.308  10.503   5.731 -1.0025 -0.1768  1.4562
  612MOL0     C82491   3.169  10.507   5.723 -0.0662  0.1911  0.8235
  612MOL0     C82492   3.099  10.624   5.755  0.4725 -0.1414  1.0553
  612MOL0     O82493   2.969  10.651   5.732  0.2810  0.0917 -0.3127
  612MOL0     C82494   2.893  10.572   5.639  0.5428 -0.2018  0.2086
  612MOL0     C82495   2.748  10.601   5.663 -0.1357 -0.1947  0.1473
  612MOL0     C82496   2.716  10.740   5.611  1.2435  0.0405 -0.2485
  612MOL0     C82497   2.563  10.773   5.638 -0.8814  0.0187  0.0687
  612MOL0     C82498   2.526  10.893   5.561 -0.6679 -0.8341  1.1440
  612MOL0     C82499   2.389  10.939   5.603  0.0547 -0.1698 -0.4655
  612MOL0     C82500   2.344  11.075   5.532 -0.1913  0.2432 -0.0985
  612MOL0     C82501   2.378  11.203   5.614  0.7451  0.3077 -0.1372
  612MOL0     N82502   2.317  11.306   5.536  0.5439  0.2422  0.3974
  612MOL0     C82503   2.184  11.329   5.518  0.3959 -0.2070  0.5495
  612MOL0     C82504   2.180  11.427   5.418 -0.9067  0.6552  0.7671
  612MOL0     C82505   2.059  11.481   5.343 -0.5320  0.2030 -0.1452
  612MOL0     C82506   1.997  11.377   5.249 -0.8514 -0.2923 -0.6301
  612MOL0     C82507   1.908  11.426   5.129 -0.3597  0.1078 -0.1801
  612MOL0     C82508   1.771  11.469   5.171  0.2745 -0.9950 -1.1745
  612MOL0     O82509   1.682  11.360   5.160 -0.1256  0.4488  0.2332
  612MOL0     C82510   1.596  11.345   5.053 -0.9813  0.4332 -1.8601
  612MOL0     C82511   1.582  11.432   4.940 -0.0002  0.9301  0.3665
  612MOL0     C82512   1.505  11.374   4.833  0.6736 -0.0205 -0.5426
  612MOL0     C82513   1.517  11.458   4.703  0.0166  1.1868  1.3346
  612MOL0     C82514   1.431  11.257   4.843  0.1070  0.8430  0.7628
  612MOL0     C82515   1.339  11.199   4.736  0.0490 -0.5998  0.4015
  612MOL0     O82516   1.311  11.068   4.731  0.4929 -0.7147 -0.2264
  612MOL0     C82517   1.239  11.014   4.621 -0.0152  0.4246 -1.0688
  612MOL0     C82518   1.246  11.069   4.491 -0.2548 -0.6003  0.6997
  612MOL0     C82519   1.171  11.007   4.384  0.6985 -0.4080 -0.0272
  612MOL0     C82520   1.094  10.889   4.412  0.2341  0.1212  1.1716
  612MOL0     O82521   1.019  10.832   4.310 -0.8379  1.3358 -0.3532
  612MOL0     C82522   0.887  10.804   4.354  1.1227  0.2738  1.0183
  612MOL0     C82523   0.810  10.786   4.214 -0.1189 -0.5200 -0.3400
  612MOL0     C82524   0.662  10.734   4.236 -0.2002  0.9115 -0.7451
  612MOL0     C82525   0.579  10.741   4.112  0.3551  0.3582  0.5282
  612MOL0     C82526   0.437  10.681   4.124 -0.0351 -0.1320  0.2893
  612MOL0     C82527   0.330  10.777   4.183 -0.8036 -0.1569  0.3580
  612MOL0     C82528   0.184  10.748   4.160  0.1481  0.0293 -0.3084
  612MOL0     C82529   0.095  10.872   4.172  0.4552 -0.3567  0.4292
  612MOL0    Cl82530   0.093  10.968   4.019  0.3018  0.3416  0.3077
  612MOL0     C82531   1.096  10.841   4.546 -0.0093 -0.7222 -0.9127
  612MOL0     C82532   1.163  10.899   4.651  1.2546 -0.2600 -0.8368
  612MOL0     O82533   1.294  11.283   4.655  0.2754  0.1652  1.1437
  612MOL0     C82534   1.443  11.182   4.964 -0.3438 -0.1343  0.8293
  612MOL0     C82535   1.525  11.230   5.068  0.2117 -0.8114  0.0861
  612MOL0     N82536   2.309  11.466   5.392 -0.1636  0.3095  0.1615
  612MOL0     N82537   2.387  11.393   5.464  0.1105  0.2489  0.1670
  612MOL0     C82538   3.176  10.735   5.794  0.1248  0.1189 -0.9385
  612MOL0     C82539   3.313  10.733   5.805  0.4800 -0.0494  0.3049
  612MOL0     C82540   3.735  10.683   5.753 -0.0043  0.4076  0.2748
  612MOL0     C82541   3.775  10.703   5.890  0.1286  0.3388 -0.1293
  612MOL0     C82542   3.910  10.722   5.919 -0.1076 -0.2772 -1.3750
  612MOL0     C82543   4.008  10.727   5.812 -0.6775 -0.0167 -0.0747
  612MOL0     O82544   4.137  10.712   5.817  0.2929  0.1969  0.3716
  612MOL0     C82545   4.193  10.723   5.952 -0.2831 -0.3993 -0.6914
  612MOL0     C82546   4.340  10.685   5.949 -1.2505  0.6248  0.0331
  612MOL0     C82547   4.373  10.534   5.931 -0.0460 -0.7396  0.3560
  612MOL0     C82548   4.522  10.512   5.901 -0.3489 -0.1777  0.5171
  612MOL0     C82549   4.606  10.547   6.014  0.9146  0.1010  0.3204
  612MOL0     C82550   4.678  10.586   6.099 -0.2063  0.2157 -1.0468
  612MOL0     C82551   3.966  10.710   5.675  0.1992 -0.2955 -0.5183
  612MOL0     C82552   3.833  10.696   5.649  0.4739 -0.2242  0.4920
  612MOL0     H82553   3.357  10.407   5.722 -0.6719 -0.1845  2.9525
  612MOL0     H82554   3.121  10.416   5.688 -0.0333 -0.2628  1.9013
  612MOL0     H82555   2.919  10.602   5.537  1.9706  1.2712  0.9544
  612MOL0     H82556   2.919  10.468   5.661  1.5853 -1.5643 -5.7087
  612MOL0     H82557   2.689  10.533   5.601 -1.1527  0.1270  0.7342
  612MOL0     H82558   2.709  10.602   5.765 -0.2963  0.0440  0.0844
  612MOL0     H82559   2.776  10.824   5.649  0.1005  1.7249 -1.9362
  612MOL0     H82560   2.739  10.742   5.504 -0.3841  1.4868 -0.6151
  612MOL0     H82561   2.516  10.681   5.605  1.8196 -0.5040 -2.7180
  612MOL0     H82562   2.556  10.784   5.747  2.7218  1.6437  0.3136
  612MOL0     H82563   2.607  10.967   5.567  0.9044 -2.5137  1.4436
  612MOL0     H82564   2.529  10.853   5.459 -2.4565 -1.0080  1.1295
  612MOL0     H82565   2.323  10.857   5.572 -0.8435 -0.3381  1.6947
  612MOL0     H82566   2.380  10.955   5.711  0.1989  1.3194 -0.6474
  612MOL0     H82567   2.376  11.092   5.429 -1.4851 -2.7503 -1.0888
  612MOL0     H82568   2.234  11.075   5.529 -0.4900 -0.6929  3.9721
  612MOL0     H82569   2.485  11.223   5.607  0.6911  0.2610 -1.3908
  612MOL0     H82570   2.341  11.200   5.717 -0.1587 -0.0364 -0.4576
  612MOL0     H82571   2.099  11.281   5.566 -0.1002 -0.0847 -0.1881
  612MOL0     H82572   1.995  11.527   5.419  0.2734  1.5327 -0.2336
  612MOL0     H82573   2.086  11.567   5.280  0.4407  0.4149  0.5351
  612MOL0     H82574   1.934  11.323   5.321  0.0055  0.8755  1.0778
  612MOL0     H82575   2.080  11.313   5.220 -0.4624  0.0125 -0.1988
  612MOL0     H82576   1.895  11.336   5.068  2.3409 -0.4133 -0.0833
  612MOL0     H82577   1.961  11.500   5.069  0.7927  0.7958  1.6009
  612MOL0     H82578   1.733  11.548   5.106 -3.7465 -0.0536  1.9495
  612MOL0     H82579   1.764  11.511   5.272 -2.5286 -1.9187 -0.9054
  612MOL0     H82580   1.646  11.517   4.922 -1.8924  1.8727 -2.4809
  612MOL0     H82581   1.523  11.397   4.612  1.3086  2.6755  0.3714
  612MOL0     H82582   1.426  11.519   4.702 -0.4269  0.5521 -0.5013
  612MOL0     H82583   1.612  11.510   4.690 -0.0820  1.5287  1.9755
  612MOL0     H82584   1.311  11.151   4.464  0.6512 -1.7129 -0.6428
  612MOL0     H82585   1.167  11.046   4.283 -0.6315  2.3423  0.9934
  612MOL0     H82586   0.886  10.711   4.412 -0.5967 -0.1931  0.2800
  612MOL0     H82587   0.839  10.888   4.404 -1.1713 -0.7933  0.7007
  612MOL0     H82588   0.810  10.878   4.154  2.8168  0.1868  0.5525
  612MOL0     H82589   0.865  10.711   4.155  1.7085  0.6991 -0.2815
  612MOL0     H82590   0.612  10.793   4.314 -1.7099  0.5989 -1.4441
  612MOL0     H82591   0.670  10.628   4.263  1.2301  0.8669 -1.2590
  612MOL0     H82592   0.584  10.845   4.079  1.0227  0.3596  0.6028
  612MOL0     H82593   0.626  10.683   4.032  0.5649  0.4568  0.5799
  612MOL0     H82594   0.450  10.594   4.189  0.2854  2.6055  4.2462
  612MOL0     H82595   0.407  10.664   4.020  0.0091  0.6393  0.1441
  612MOL0     H82596   0.345  10.770   4.291 -2.5641  2.0808  0.8337
  612MOL0     H82597   0.356  10.878   4.150 -1.4393 -0.7889 -2.2980
  612MOL0     H82598   0.148  10.675   4.234 -4.5806  0.9673 -1.3287
  612MOL0     H82599   0.157  10.712   4.060 -1.8687  1.2540 -0.2581
  612MOL0     H82600   0.129  10.934   4.255 -0.3862  1.1109 -0.2735
  612MOL0     H82601  -0.003  10.837   4.206 -0.2734  0.2725 -0.9126
  612MOL0     H82602   1.020  10.771   4.580  1.4272 -0.4630  3.4534
  612MOL0     H82603   1.160  10.867   4.755  0.1481 -0.3374 -0.8789
  612MOL0     H82604   1.398  11.084   4.977  1.1215 -0.9212  0.1986
  612MOL0     H82605   1.526  11.183   5.166 -2.7244  0.8030  1.0150
  612MOL0     H82606   3.127  10.830   5.811  0.0002 -0.0081 -0.5783
  612MOL0     H82607   3.362  10.822   5.843  2.2106 -0.9655  0.3788
  612MOL0     H82608   3.708  10.696   5.975  1.2913  0.5423  0.8434
  612MOL0     H82609   3.930  10.742   6.023 -0.6570 -2.0644 -0.8995
  612MOL0     H82610   4.183  10.824   5.993 -3.0902 -1.2216  0.9614
  612MOL0     H82611   4.151  10.650   6.023 -0.6299  0.3135 -0.1542
  612MOL0     H82612   4.390  10.718   6.040 -3.6797 -0.2205  1.7862
  612MOL0     H82613   4.388  10.741   5.868 -1.0503 -0.3039 -0.5102
  612MOL0     H82614   4.312  10.491   5.851  2.2439 -2.8932 -0.3465
  612MOL0     H82615   4.350  10.488   6.027  1.5981 -0.2273  1.0250
  612MOL0     H82616   4.564  10.573   5.820 -1.1327 -1.3462 -0.8236
  612MOL0     H82617   4.548  10.407   5.883  2.6782  0.4756  0.4480
  612MOL0     H82618   4.725  10.634   6.182 -3.6320 -2.4937  2.8280
  612MOL0     H82619   4.035  10.698   5.592  0.8407  2.2998 -0.4497
  612MOL0     H82620   3.794  10.680   5.549  0.5018 -1.5943  0.6878
  613MOL0     O82621   0.845   0.941   9.473  0.4270  0.0790  0.7110
  613MOL0     C82622   0.922   0.923   9.383 -0.0766 -0.6177  0.2842
  613MOL0     O82623   0.948   0.803   9.329  0.5031  0.1355  0.3838
  613MOL0     C82624   0.865   0.689   9.325 -0.6767 -0.3895  0.2561
  613MOL0     C82625   0.907   0.592   9.233 -1.0975  0.5737  0.6194
  613MOL0     C82626   0.833   0.475   9.239 -0.8995 -0.3369 -0.0409
  613MOL0     C82627   0.720   0.455   9.321 -0.2979  0.1315 -0.2633
  613MOL0     O82628   0.654   0.334   9.310  0.4272  0.4606 -0.5876
  613MOL0     C82629   0.511   0.321   9.344  0.0617 -0.4114 -0.2167
  613MOL0     C82630   0.427   0.403   9.248  0.7608 -1.4113  0.4525
  613MOL0     C82631   0.299   0.337   9.190  0.7115 -0.3031  0.5163
  613MOL0     C82632   0.208   0.437   9.112  0.1305  0.3389 -0.3338
  613MOL0     C82633   0.081   0.372   9.043 -0.2075  0.8312  0.4867
  613MOL0     C82634  -0.019   0.329   9.147  0.5460 -0.1875 -0.4043
  613MOL0     C82635  -0.156   0.280   9.089 -0.2115 -0.4397  0.0201
  613MOL0     C82636  -0.136   0.141   9.020  0.2460 -1.0837 -0.3339
  613MOL0     N82637  -0.268   0.087   8.980 -0.2965 -0.2470 -0.3042
  613MOL0     C82638  -0.352   0.047   9.075 -0.1382  0.3551  0.3588
  613MOL0     C82639  -0.472   0.069   9.017  0.6441  0.4303 -0.0291
  613MOL0     C82640  -0.606   0.040   9.086  0.2946 -0.6012  0.7070
  613MOL0     C82641  -0.722   0.102   9.009 -0.6964 -0.6947  0.8299
  613MOL0     C82642  -0.862   0.070   9.066  0.2152 -0.1120 -0.6669
  613MOL0     C82643  -0.972   0.127   8.983  0.2352  0.8112  0.3883
  613MOL0     O82644  -1.088   0.091   9.058  0.8304 -0.3475  0.4739
  613MOL0     C82645  -1.212   0.103   9.002 -0.3611 -0.0604 -0.0593
  613MOL0     C82646  -1.328   0.064   9.076 -0.5236 -0.1992  0.9820
  613MOL0     C82647  -1.456   0.071   9.020 -0.2610  0.5575 -0.1148
  613MOL0     C82648  -1.562   0.021   9.118  0.6154  0.4610  0.3072
  613MOL0     C82649  -1.483   0.138   8.903  0.7481 -0.5310  0.8369
  613MOL0     C82650  -1.616   0.151   8.834 -0.0621 -0.5412 -0.0641
  613MOL0     O82651  -1.623   0.183   8.703 -0.9202  0.6774 -0.2509
  613MOL0     C82652  -1.725   0.238   8.635 -0.8399  0.8172 -0.6860
  613MOL0     C82653  -1.696   0.269   8.506 -0.3464 -0.0528  0.7848
  613MOL0     C82654  -1.784   0.321   8.418  0.3937  0.2784 -0.1920
  613MOL0     C82655  -1.916   0.341   8.458  0.4313 -0.2667  0.6899
  613MOL0     O82656  -2.019   0.372   8.373 -0.9342  0.4588  0.0340
  613MOL0     C82657  -1.997   0.489   8.300 -0.0063  0.2013 -0.8019
  613MOL0     C82658  -2.088   0.514   8.178  0.0012 -0.8366 -0.1569
  613MOL0     C82659  -2.037   0.635   8.083 -0.9310 -0.1942 -0.6321
  613MOL0     C82660  -1.969   0.573   7.961  0.2958 -0.1492 -0.8935
  613MOL0     C82661  -1.908   0.694   7.879  0.7015  0.7530 -0.3797
  613MOL0     C82662  -1.818   0.647   7.763  0.1056 -0.5603  1.2147
  613MOL0     C82663  -1.699   0.746   7.733  0.9026 -0.3777 -0.4018
  613MOL0     C82664  -1.603   0.714   7.624 -0.4474  0.2607  0.0441
  613MOL0    Cl82665  -1.519   0.561   7.642 -0.2400  0.5781 -0.1120
  613MOL0     C82666  -1.950   0.305   8.592 -0.3483 -0.3322  0.0850
  613MOL0     C82667  -1.858   0.261   8.675 -0.6928 -0.0247 -0.4205
  613MOL0     O82668  -1.715   0.121   8.902 -0.0636  0.4765  0.5798
  613MOL0     C82669  -1.370   0.182   8.831  0.3318 -0.1590 -0.1835
  613MOL0     C82670  -1.241   0.164   8.875 -0.2277 -0.5422 -0.0356
  613MOL0     N82671  -0.454   0.105   8.884  0.0222  0.0970  0.6557
  613MOL0     N82672  -0.331   0.119   8.862 -0.2537 -0.3490  0.1882
  613MOL0     C82673   0.689   0.554   9.410  0.0277  0.2868 -0.2834
  613MOL0     C82674   0.765   0.669   9.416  0.8711 -0.3207  0.5259
  613MOL0     C82675   1.004   1.035   9.326  0.2536  0.9324  0.6839
  613MOL0     C82676   0.976   1.161   9.365  0.7756 -0.0191  1.0443
  613MOL0     C82677   1.037   1.276   9.297  0.3369  0.2805  0.0489
  613MOL0     C82678   1.121   1.253   9.185 -0.4081 -0.5018  0.0586
  613MOL0     O82679   1.157   1.366   9.111 -0.5771 -0.0681 -0.3043
  613MOL0     C82680   1.214   1.355   8.980 -0.8191 -0.2335 -0.7567
  613MOL0     C82681   1.228   1.494   8.925  0.6917 -0.3639 -0.4130
  613MOL0     C82682   1.348   1.557   8.979  0.2213  0.4370  0.0839
  613MOL0     C82683   1.375   1.693   8.910 -0.3735 -0.1636 -0.4134
  613MOL0     C82684   1.382   1.676   8.761  0.2664 -0.7453 -0.0779
  613MOL0     C82685   1.401   1.658   8.637 -0.5346 -0.4124 -0.6819
  613MOL0     C82686   1.153   1.123   9.152  0.1701 -0.2731  0.1682
  613MOL0     C82687   1.093   1.010   9.219  0.2452  0.1755  0.2421
  613MOL0     H82688   0.980   0.612   9.156 -1.5281  3.0519  0.7845
  613MOL0     H82689   0.848   0.397   9.165 -2.3587  1.5998 -2.5573
  613MOL0     H82690   0.477   0.219   9.325  0.6053 -0.7051  0.3389
  613MOL0     H82691   0.494   0.350   9.447  1.1189 -0.6585  0.0400
  613MOL0     H82692   0.389   0.493   9.297  0.0030 -0.7193 -1.3056
  613MOL0     H82693   0.489   0.436   9.164 -1.1430  0.4062 -0.3376
  613MOL0     H82694   0.323   0.265   9.111 -0.0126  0.3033 -0.2802
  613MOL0     H82695   0.228   0.300   9.264  1.5715  1.0492  2.1042
  613MOL0     H82696   0.170   0.518   9.174 -1.2362  0.4242 -1.2517
  613MOL0     H82697   0.255   0.486   9.026 -0.2304 -0.0067 -0.7348
  613MOL0     H82698   0.030   0.448   8.983 -0.2295  0.3656 -0.0965
  613MOL0     H82699   0.120   0.291   8.980 -2.8670  0.1262 -0.4026
  613MOL0     H82700   0.019   0.243   9.203 -0.1129  0.3355  0.8854
  613MOL0     H82701  -0.039   0.406   9.221  0.1365 -0.1667 -0.5336
  613MOL0     H82702  -0.225   0.260   9.171  3.2158  0.6264  3.4880
  613MOL0     H82703  -0.199   0.342   9.010  0.3452 -0.5550 -0.3875
  613MOL0     H82704  -0.080   0.070   9.081  2.1273 -0.0482 -0.7690
  613MOL0     H82705  -0.069   0.159   8.935  1.7291  1.2292  1.2036
  613MOL0     H82706  -0.331   0.001   9.171  1.1210 -0.1985 -0.1593
  613MOL0     H82707  -0.630  -0.066   9.093  0.1736 -0.5597  0.9223
  613MOL0     H82708  -0.605   0.079   9.188 -0.4779 -2.0594  1.2967
  613MOL0     H82709  -0.724   0.077   8.903  1.0083 -2.6926  1.2109
  613MOL0     H82710  -0.717   0.212   9.011 -2.7664 -0.4324 -1.9816
  613MOL0     H82711  -0.876   0.109   9.167  0.5560  0.3866 -0.8051
  613MOL0     H82712  -0.873  -0.038   9.060  0.5870 -0.0896 -2.1386
  613MOL0     H82713  -0.960   0.080   8.885  1.6575 -0.1572  0.9962
  613MOL0     H82714  -0.963   0.236   8.973 -1.7941  1.0138  0.4644
  613MOL0     H82715  -1.328   0.014   9.172  0.9601  1.3000  1.8249
  613MOL0     H82716  -1.602   0.109   9.170  2.3113  0.7617  1.1551
  613MOL0     H82717  -1.648  -0.035   9.079 -0.2275  0.8549  1.5394
  613MOL0     H82718  -1.523  -0.036   9.203  1.0794  0.4332  0.0781
  613MOL0     H82719  -1.594   0.243   8.479 -1.4678 -2.7920 -1.2749
  613MOL0     H82720  -1.757   0.341   8.315 -1.5711  2.8543 -0.3396
  613MOL0     H82721  -1.986   0.581   8.357  0.5787  0.2607 -1.0062
  613MOL0     H82722  -1.898   0.485   8.252  0.6130 -1.3802  0.5113
  613MOL0     H82723  -2.109   0.426   8.116  2.6182 -1.0637 -0.8583
  613MOL0     H82724  -2.183   0.548   8.219  0.0949 -0.3671 -0.3221
  613MOL0     H82725  -1.970   0.692   8.148 -2.3382 -0.0406  0.7519
  613MOL0     H82726  -2.118   0.699   8.048 -1.6121  0.0907  1.3276
  613MOL0     H82727  -1.895   0.501   7.998 -0.9482 -1.1106 -0.2035
  613MOL0     H82728  -2.040   0.517   7.900  0.8618 -1.7527 -0.1202
  613MOL0     H82729  -1.858   0.758   7.953  0.5357  3.1635 -2.2101
  613MOL0     H82730  -1.992   0.757   7.848 -1.6542 -0.7063  2.4842
  613MOL0     H82731  -1.780   0.547   7.787  0.1518 -1.4671 -2.1362
  613MOL0     H82732  -1.875   0.624   7.672 -1.2955  0.2747  1.8460
  613MOL0     H82733  -1.639   0.748   7.825  1.7506 -0.2842 -0.9455
  613MOL0     H82734  -1.740   0.847   7.727 -1.3599 -1.2950 -2.4181
  613MOL0     H82735  -1.530   0.794   7.633 -0.5348  0.3134  0.2725
  613MOL0     H82736  -1.640   0.704   7.521  1.6523  0.2290 -0.7424
  613MOL0     H82737  -2.051   0.327   8.624  0.0634  1.2737  0.3218
  613MOL0     H82738  -1.887   0.240   8.777  3.2089 -3.2118  0.2691
  613MOL0     H82739  -1.393   0.231   8.737  0.1433  0.7794  0.3329
  613MOL0     H82740  -1.152   0.204   8.827 -0.0570 -1.2039 -0.2891
  613MOL0     H82741   0.596   0.551   9.466  0.9941  1.4971  1.4858
  613MOL0     H82742   0.721   0.746   9.479 -1.6196 -0.1162 -1.3161
  613MOL0     H82743   0.921   1.176   9.458  0.6843 -2.2016  1.3884
  613MOL0     H82744   1.020   1.379   9.326 -0.7740  0.5561 -1.4941
  613MOL0     H82745   1.306   1.297   8.991 -1.0828 -0.2916  1.5443
  613MOL0     H82746   1.151   1.304   8.906 -1.6626  1.8472 -1.5500
  613MOL0     H82747   1.139   1.549   8.958  1.1069 -0.3912  0.8203
  613MOL0     H82748   1.239   1.481   8.817 -0.1320 -3.2569 -0.2380
  613MOL0     H82749   1.427   1.481   8.970 -1.0730 -1.0096  0.4280
  613MOL0     H82750   1.339   1.580   9.085  0.7431  2.7675 -0.3408
  613MOL0     H82751   1.467   1.739   8.948 -0.3310 -0.0767 -0.6188
  613MOL0     H82752   1.306   1.771   8.944 -1.1864 -1.0344 -0.0314
  613MOL0     H82753   1.420   1.627   8.536 -0.0088 -3.0985  0.1641
  613MOL0     H82754   1.224   1.109   9.070 -0.3446 -0.3218 -0.2743
  613MOL0     H82755   1.111   0.912   9.174  4.2308  0.2558  1.2991
  614MOL0     O82756   5.124   7.651   2.312  0.2781  0.2104  0.6112
  614MOL0     C82757   5.161   7.546   2.253  0.3416  0.8077  0.5971
  614MOL0     O82758   5.093   7.424   2.245  0.4182 -0.0887  0.3805
  614MOL0     C82759   4.958   7.443   2.242 -0.1094  0.6023 -0.8010
  614MOL0     C82760   4.880   7.397   2.347 -0.6796 -0.0260  0.3276
  614MOL0     C82761   4.744   7.414   2.333  0.3221 -1.1726  0.4786
  614MOL0     C82762   4.686   7.488   2.225 -0.7553  0.3502  0.4772
  614MOL0     O82763   4.556   7.521   2.222  0.5481 -0.0830 -0.0028
  614MOL0     C82764   4.501   7.563   2.349  0.8392  0.3610 -0.1957
  614MOL0     C82765   4.379   7.660   2.319 -0.1907  0.6635 -0.5109
  614MOL0     C82766   4.405   7.800   2.262  0.1799 -0.4438 -0.2282
  614MOL0     C82767   4.282   7.867   2.207  0.1634 -0.2711  0.1864
  614MOL0     C82768   4.223   7.978   2.298  0.2099 -0.4116  0.3490
  614MOL0     C82769   4.313   8.105   2.298  0.0187  0.6928 -0.2272
  614MOL0     C82770   4.253   8.222   2.377 -1.0268  1.0905 -0.0637
  614MOL0     C82771   4.306   8.354   2.339 -0.7287  0.2025 -0.0656
  614MOL0     N82772   4.222   8.443   2.411 -0.1962 -1.0444 -0.7778
  614MOL0     C82773   4.128   8.514   2.345 -0.0012 -0.3387 -0.1644
  614MOL0     C82774   4.042   8.555   2.440  0.6229  0.4762  0.0580
  614MOL0     C82775   3.912   8.625   2.425 -0.6989  0.6282  0.3888
  614MOL0     C82776   3.786   8.549   2.447 -0.1928 -0.1462 -0.3273
  614MOL0     C82777   3.664   8.634   2.404 -0.0543 -0.4471  0.0140
  614MOL0     C82778   3.544   8.614   2.493  0.3618  0.8030 -0.0690
  614MOL0     O82779   3.512   8.475   2.498 -0.1808  0.2554 -0.0849
  614MOL0     C82780   3.375   8.440   2.495  0.2608 -0.4102  0.5065
  614MOL0     C82781   3.334   8.341   2.411 -0.1521  0.0424 -0.3054
  614MOL0     C82782   3.202   8.312   2.383 -0.7005 -0.1109 -0.1579
  614MOL0     C82783   3.173   8.187   2.303  0.4204  0.5875  0.2864
  614MOL0     C82784   3.102   8.381   2.463  0.3895 -0.3577  0.4270
  614MOL0     C82785   2.957   8.364   2.450  0.1032  0.5771 -0.1047
  614MOL0     O82786   2.869   8.456   2.492  0.5006 -0.5440  0.1443
  614MOL0     C82787   2.738   8.425   2.482  1.0946 -0.3951 -0.3965
  614MOL0     C82788   2.665   8.470   2.374  0.1978  0.0195  0.7006
  614MOL0     C82789   2.528   8.434   2.349 -0.1633  1.3590 -0.7385
  614MOL0     C82790   2.470   8.335   2.430 -0.3960 -0.3894  0.8518
  614MOL0     O82791   2.342   8.302   2.400 -0.1489 -0.3259  0.8142
  614MOL0     C82792   2.251   8.258   2.498  0.1578 -0.1015 -0.7687
  614MOL0     C82793   2.198   8.383   2.566  0.1859 -0.0476 -0.3731
  614MOL0     C82794   2.083   8.349   2.662 -0.1951  0.3532 -0.2775
  614MOL0     C82795   2.042   8.454   2.746  0.0892 -0.3324 -0.7766
  614MOL0     C82796   1.955   8.552   2.672  0.3422  0.0783  0.4172
  614MOL0     C82797   1.905   8.678   2.733 -0.1043  0.0996  0.2086
  614MOL0     C82798   1.821   8.757   2.634 -0.4141 -0.0112  0.3895
  614MOL0     C82799   1.733   8.850   2.725 -0.0337  0.0400  0.5696
  614MOL0    Cl82800   1.639   8.749   2.848  0.7801 -0.5735  0.0352
  614MOL0     C82801   2.546   8.289   2.536  0.1212 -0.1958 -0.4332
  614MOL0     C82802   2.675   8.330   2.568 -0.1168  0.6581  0.1816
  614MOL0     O82803   2.919   8.253   2.413 -0.5073 -0.5467 -0.1281
  614MOL0     C82804   3.143   8.482   2.547 -0.2280 -0.5304  0.4351
  614MOL0     C82805   3.282   8.514   2.569  0.3565  0.9485  0.5347
  614MOL0     N82806   4.089   8.517   2.564  0.0116 -0.9657 -0.0717
  614MOL0     N82807   4.186   8.438   2.544 -0.1118  0.7986 -0.7241
  614MOL0     C82808   4.764   7.518   2.116  0.5648  0.2956 -0.5047
  614MOL0     C82809   4.902   7.504   2.128  0.1906  0.5083 -0.2214
  614MOL0     C82810   5.290   7.551   2.175  0.0107 -0.3027  0.7868
  614MOL0     C82811   5.309   7.474   2.059 -0.0188  0.6911  0.8567
  614MOL0     C82812   5.429   7.474   1.987 -0.0594 -1.3526  0.2890
  614MOL0     C82813   5.534   7.558   2.024 -0.2539 -0.7891 -0.1688
  614MOL0     O82814   5.663   7.542   1.985  0.0879 -0.3700 -0.7101
  614MOL0     C82815   5.707   7.412   1.967  0.3377  0.1987  0.3846
  614MOL0     C82816   5.849   7.418   1.911  0.6920  0.1465 -0.1480
  614MOL0     C82817   5.862   7.457   1.765  0.6607 -0.2106 -0.0636
  614MOL0     C82818   5.837   7.326   1.691  0.3069 -0.1167 -0.1504
  614MOL0     C82819   5.889   7.325   1.559 -0.6891  0.0788 -0.8352
  614MOL0     C82820   5.915   7.327   1.442  0.8121 -0.2533 -0.5368
  614MOL0     C82821   5.514   7.644   2.139  0.1852 -0.5054 -0.6223
  614MOL0     C82822   5.393   7.637   2.213 -0.4716  0.3434  0.4658
  614MOL0     H82823   4.920   7.343   2.432  0.9893 -0.1025 -0.4613
  614MOL0     H82824   4.682   7.368   2.409  0.5570  0.4820  1.7138
  614MOL0     H82825   4.447   7.479   2.393  2.9074 -1.5538 -1.1015
  614MOL0     H82826   4.569   7.603   2.425 -0.7216  2.9385 -0.0536
  614MOL0     H82827   4.321   7.601   2.248 -0.4759  2.4693 -1.8238
  614MOL0     H82828   4.326   7.655   2.415  4.0253 -1.2515  2.0022
  614MOL0     H82829   4.451   7.868   2.334 -0.7704  2.0874 -1.8829
  614MOL0     H82830   4.479   7.786   2.183  0.2613 -2.5337  0.1690
  614MOL0     H82831   4.293   7.920   2.112 -0.3584  0.3843  0.4830
  614MOL0     H82832   4.205   7.790   2.192  0.2733  0.1934 -4.0195
  614MOL0     H82833   4.137   8.027   2.252 -1.6811 -1.3623  2.6535
  614MOL0     H82834   4.192   7.941   2.396  1.1229  1.5522  1.4316
  614MOL0     H82835   4.414   8.088   2.335  1.1360 -0.4236 -3.4336
  614MOL0     H82836   4.314   8.144   2.196 -1.2636  5.1806  1.2391
  614MOL0     H82837   4.144   8.228   2.373 -1.0033  3.3015  1.2637
  614MOL0     H82838   4.281   8.209   2.482 -0.3336  1.5797 -0.1815
  614MOL0     H82839   4.303   8.361   2.230 -1.5380 -1.8470 -0.2200
  614MOL0     H82840   4.407   8.357   2.380 -0.9274 -1.3313  0.5999
  614MOL0     H82841   4.125   8.543   2.240 -2.5746  3.4212  0.7086
  614MOL0     H82842   3.912   8.715   2.487  1.6458  1.3314 -0.5470
  614MOL0     H82843   3.914   8.664   2.323 -0.4706 -0.2433  0.0494
  614MOL0     H82844   3.779   8.529   2.554 -0.6044  2.7071  0.2575
  614MOL0     H82845   3.779   8.445   2.416 -2.8214 -0.2820  0.5348
  614MOL0     H82846   3.635   8.611   2.301  1.1990  1.1318 -0.7287
  614MOL0     H82847   3.691   8.740   2.413 -1.5618 -0.0903  0.6591
  614MOL0     H82848   3.464   8.671   2.445  0.4317  0.6873 -0.3224
  614MOL0     H82849   3.571   8.643   2.595 -1.8451 -3.2986  1.9342
  614MOL0     H82850   3.420   8.298   2.360 -0.6907 -2.8612  1.0215
  614MOL0     H82851   3.155   8.100   2.367 -0.1253 -0.9817 -1.8939
  614MOL0     H82852   3.080   8.201   2.247 -0.6982  4.9511  2.7676
  614MOL0     H82853   3.261   8.169   2.241  0.7178  4.1836 -0.5744
  614MOL0     H82854   2.703   8.532   2.293 -2.4855  1.5590  0.5049
  614MOL0     H82855   2.482   8.481   2.263 -0.6352 -2.3200 -2.7338
  614MOL0     H82856   2.162   8.205   2.463 -0.6892 -0.0816  1.2211
  614MOL0     H82857   2.300   8.195   2.573  1.3075  1.5751 -0.0490
  614MOL0     H82858   2.280   8.433   2.618 -1.9475  4.0976 -0.5489
  614MOL0     H82859   2.164   8.453   2.489  0.9017 -0.0573 -0.7116
  614MOL0     H82860   2.112   8.263   2.724 -0.7157  0.7107  0.4747
  614MOL0     H82861   1.995   8.310   2.611 -0.6666  1.9410 -0.7116
  614MOL0     H82862   1.988   8.413   2.832  0.1782 -0.2104 -0.6618
  614MOL0     H82863   2.129   8.515   2.773  2.1991 -1.6997 -3.8677
  614MOL0     H82864   1.873   8.491   2.633  0.6067  0.5568 -0.9223
  614MOL0     H82865   2.012   8.584   2.584 -0.0301  0.9442  0.4819
  614MOL0     H82866   1.852   8.635   2.818 -0.6779 -1.6346 -0.9596
  614MOL0     H82867   1.982   8.749   2.765  0.2535  0.0644 -0.5485
  614MOL0     H82868   1.760   8.690   2.572 -1.9290  1.6704 -0.0359
  614MOL0     H82869   1.886   8.816   2.569 -1.3730  0.4420 -0.1837
  614MOL0     H82870   1.660   8.902   2.661  2.7925  4.9244  0.8427
  614MOL0     H82871   1.799   8.926   2.767 -1.5673  1.6440  0.1825
  614MOL0     H82872   2.509   8.209   2.600  0.0364 -1.5381 -2.0575
  614MOL0     H82873   2.734   8.288   2.649  3.7086  1.2859 -2.0331
  614MOL0     H82874   3.075   8.547   2.600  1.4374  4.2474 -2.5979
  614MOL0     H82875   3.328   8.594   2.626  3.0082 -0.3896  0.3971
  614MOL0     H82876   4.710   7.564   2.034  0.6772 -1.0130 -1.3510
  614MOL0     H82877   4.972   7.542   2.054 -0.2507 -1.9406 -2.0503
  614MOL0     H82878   5.235   7.407   2.019  1.7920 -0.1348 -1.3735
  614MOL0     H82879   5.450   7.406   1.905  2.2675 -1.7805  1.1611
  614MOL0     H82880   5.713   7.370   2.067 -2.1340  0.6370  0.7566
  614MOL0     H82881   5.653   7.343   1.901  3.5068 -0.7918 -1.4404
  614MOL0     H82882   5.895   7.320   1.925 -1.4782 -1.4256 -2.8307
  614MOL0     H82883   5.910   7.483   1.974  0.3114 -1.9075  2.4887
  614MOL0     H82884   5.963   7.497   1.756  1.4421 -1.6167  1.7936
  614MOL0     H82885   5.804   7.544   1.734  1.4238 -0.1325 -1.3853
  614MOL0     H82886   5.728   7.314   1.691  0.1128  1.0197  2.0528
  614MOL0     H82887   5.878   7.238   1.742  3.0821  2.7715  3.1255
  614MOL0     H82888   5.929   7.336   1.336 -2.1610 -0.3929 -1.0286
  614MOL0     H82889   5.590   7.706   2.186 -1.4410  1.6888 -0.7602
  614MOL0     H82890   5.376   7.698   2.302 -2.1308  0.7566 -0.1027
  615MOL0     O82891   5.842   5.857   7.426 -0.3814  0.2808  0.3543
  615MOL0     C82892   5.927   5.925   7.362  0.3816 -0.8389  0.2350
  615MOL0     O82893   5.890   6.027   7.278 -0.2379  0.4859 -0.0857
  615MOL0     C82894   5.760   6.048   7.252 -0.1462  1.3027 -0.0669
  615MOL0     C82895   5.696   6.165   7.304  0.0284  0.4369 -0.2290
  615MOL0     C82896   5.558   6.196   7.283  0.0331  0.1226 -0.5020
  615MOL0     C82897   5.472   6.102   7.221  0.8521 -0.2503 -0.7372
  615MOL0     O82898   5.353   6.150   7.181  0.0716 -1.2838  0.2143
  615MOL0     C82899   5.236   6.062   7.212  0.4238 -0.5225  0.1506
  615MOL0     C82900   5.132   6.150   7.283 -0.1535 -0.5329  0.2579
  615MOL0     C82901   5.010   6.063   7.304  0.3720  0.3704  0.4208
  615MOL0     C82902   4.903   6.160   7.361 -0.2394 -0.3956  0.0775
  615MOL0     C82903   4.773   6.100   7.385 -0.3736 -0.3048 -0.1020
  615MOL0     C82904   4.673   6.199   7.444  0.9827 -0.9839  0.3405
  615MOL0     C82905   4.534   6.147   7.432  0.1952 -0.5659  0.6245
  615MOL0     C82906   4.424   6.248   7.473 -0.3101  0.0217  0.1675
  615MOL0     N82907   4.294   6.206   7.422  0.2669  0.9624 -0.4215
  615MOL0     C82908   4.204   6.109   7.458 -0.4612 -0.6526 -0.4676
  615MOL0     C82909   4.094   6.119   7.389  0.5624 -0.3758  0.8670
  615MOL0     C82910   3.961   6.040   7.392  0.0986 -0.9321 -1.0787
  615MOL0     C82911   3.909   5.974   7.260  0.2069 -0.7401 -0.7348
  615MOL0     C82912   3.764   5.956   7.279 -0.9509 -0.4601  1.5155
  615MOL0     C82913   3.709   5.847   7.184 -0.5016  0.2291 -0.2891
  615MOL0     O82914   3.563   5.848   7.214 -1.5551 -0.6585  0.6854
  615MOL0     C82915   3.473   5.787   7.134 -0.4239  0.1428 -0.3902
  615MOL0     C82916   3.511   5.674   7.062  0.7044  0.3988  1.1272
  615MOL0     C82917   3.415   5.594   6.999  0.3977  0.2361 -0.3431
  615MOL0     C82918   3.476   5.479   6.926 -0.7997  1.2562 -0.5729
  615MOL0     C82919   3.284   5.646   6.982 -0.0318 -0.0985  0.4704
  615MOL0     C82920   3.179   5.577   6.895  0.0540 -0.8929  0.0230
  615MOL0     O82921   3.060   5.623   6.901  0.0917 -0.3957 -0.4997
  615MOL0     C82922   2.960   5.546   6.845  0.9324 -0.3544 -0.7940
  615MOL0     C82923   2.868   5.469   6.921  0.4239  0.3929 -0.3864
  615MOL0     C82924   2.775   5.382   6.862 -0.5447  0.4337  0.8616
  615MOL0     C82925   2.792   5.358   6.725 -1.1310 -0.4368  0.0679
  615MOL0     O82926   2.710   5.260   6.687  0.3621  0.1203 -0.5096
  615MOL0     C82927   2.722   5.228   6.548  0.0358 -0.8067 -1.1933
  615MOL0     C82928   2.613   5.124   6.507  1.3751  0.0504  0.4786
  615MOL0     C82929   2.473   5.177   6.520  0.7772 -0.4973  0.7325
  615MOL0     C82930   2.381   5.103   6.418  0.2779  0.0466 -1.3215
  615MOL0     C82931   2.240   5.168   6.414  0.3642 -0.5251 -0.5346
  615MOL0     C82932   2.224   5.305   6.345  0.5696 -0.1152 -0.3299
  615MOL0     C82933   2.271   5.313   6.198 -0.0214 -0.1346  0.2945
  615MOL0     C82934   2.214   5.201   6.107 -0.5690 -0.6493  0.1635
  615MOL0    Cl82935   2.040   5.158   6.125 -0.7950 -0.4045  0.0157
  615MOL0     C82936   2.869   5.445   6.640 -0.7228  0.1788  0.2715
  615MOL0     C82937   2.945   5.544   6.701 -0.4397  0.0739 -0.5217
  615MOL0     O82938   3.206   5.474   6.828 -0.6183  0.1223  0.5206
  615MOL0     C82939   3.246   5.762   7.054 -1.4520  0.3462  0.2879
  615MOL0     C82940   3.342   5.828   7.135 -0.0409 -0.6791  0.2369
  615MOL0     N82941   4.113   6.239   7.305 -0.3239  0.6180  0.8654
  615MOL0     N82942   4.227   6.285   7.338 -0.1372 -0.2038 -0.0770
  615MOL0     C82943   5.539   5.975   7.173  0.1839 -0.3782  0.5032
  615MOL0     C82944   5.677   5.951   7.189 -0.5189 -0.7730 -0.7897
  615MOL0     C82945   6.071   5.893   7.388  0.2851 -0.3037 -0.0266
  615MOL0     C82946   6.121   5.770   7.408  0.2123  1.1893 -0.2364
  615MOL0     C82947   6.259   5.748   7.444  1.0639 -0.4053 -0.2568
  615MOL0     C82948   6.355   5.837   7.428 -0.5479 -0.1240  0.6466
  615MOL0     O82949   6.482   5.823   7.442 -0.5678 -0.9393  0.0116
  615MOL0     C82950   6.534   5.691   7.459 -0.0706  0.4386  0.1803
  615MOL0     C82951   6.687   5.686   7.450  0.8928  0.1848  1.2566
  615MOL0     C82952   6.759   5.787   7.539  0.6018  1.1152 -0.1006
  615MOL0     C82953   6.905   5.754   7.555 -0.0520 -0.8695  0.9958
  615MOL0     C82954   6.937   5.614   7.597  0.0354 -0.1577  0.7645
  615MOL0     C82955   6.965   5.501   7.631 -0.7205  0.2589 -0.5848
  615MOL0     C82956   6.302   5.966   7.395  0.2718  0.4095  0.4973
  615MOL0     C82957   6.166   5.996   7.385  0.7499  0.3550 -0.2746
  615MOL0     H82958   5.751   6.235   7.366  1.3538  0.9019 -1.8627
  615MOL0     H82959   5.507   6.282   7.324  1.7217  0.1253  1.7372
  615MOL0     H82960   5.187   6.024   7.122 -1.4232  2.6027 -0.2929
  615MOL0     H82961   5.261   5.981   7.281 -0.0804  0.6374  1.7444
  615MOL0     H82962   5.172   6.183   7.379 -0.4439 -1.3140  0.6550
  615MOL0     H82963   5.108   6.239   7.224  1.1362 -1.7283 -2.2704
  615MOL0     H82964   4.976   6.003   7.219 -0.8310 -0.6314  1.5640
  615MOL0     H82965   5.033   5.985   7.377 -2.6050 -0.9849  0.0251
  615MOL0     H82966   4.945   6.186   7.459  2.9192 -1.1230 -0.9780
  615MOL0     H82967   4.905   6.246   7.294  4.4904  0.2938  0.7490
  615MOL0     H82968   4.728   6.083   7.286 -0.4781  0.1425 -0.1355
  615MOL0     H82969   4.788   6.004   7.436  1.0736  1.4453  3.0332
  615MOL0     H82970   4.705   6.214   7.548  1.5160 -0.9372  0.1693
  615MOL0     H82971   4.681   6.288   7.380 -0.3717 -2.0010 -1.3204
  615MOL0     H82972   4.520   6.120   7.327 -0.6908 -2.0450  1.0942
  615MOL0     H82973   4.532   6.062   7.501  0.8880 -1.2441 -0.1689
  615MOL0     H82974   4.444   6.345   7.429 -0.4817  0.6885  1.5012
  615MOL0     H82975   4.435   6.248   7.582  1.9381 -0.8127 -0.0051
  615MOL0     H82976   4.255   6.028   7.509  2.4326  1.3879  0.1132
  615MOL0     H82977   3.973   5.963   7.469 -0.9005  1.7879  1.9757
  615MOL0     H82978   3.892   6.112   7.436  0.5848  1.5705 -4.0284
  615MOL0     H82979   3.958   5.877   7.252  1.6002 -0.0946 -0.3036
  615MOL0     H82980   3.935   6.032   7.171  1.1717 -2.0891 -1.3607
  615MOL0     H82981   3.710   6.048   7.251  0.3297 -0.5847 -1.8931
  615MOL0     H82982   3.742   5.928   7.382 -1.6192 -0.3799  1.4001
  615MOL0     H82983   3.750   5.746   7.186 -1.0493 -0.0410 -1.5211
  615MOL0     H82984   3.727   5.877   7.080 -1.3793 -0.4627 -0.6563
  615MOL0     H82985   3.610   5.628   7.064 -1.2530 -4.7029 -1.4079
  615MOL0     H82986   3.582   5.472   6.952 -1.1677  2.2544  1.3656
  615MOL0     H82987   3.427   5.384   6.946  0.7461  0.5227 -0.1799
  615MOL0     H82988   3.462   5.497   6.819 -2.2065  2.7234 -0.1784
  615MOL0     H82989   2.873   5.470   7.029  0.3199 -0.5285 -0.3695
  615MOL0     H82990   2.710   5.330   6.932 -1.5003 -0.2787 -0.5211
  615MOL0     H82991   2.736   5.310   6.476  0.9955  0.5141  0.4227
  615MOL0     H82992   2.808   5.163   6.531  1.0443 -0.0496  0.6756
  615MOL0     H82993   2.627   5.084   6.406 -1.2238  1.8463 -0.6962
  615MOL0     H82994   2.631   5.046   6.582  0.1245 -0.2816  0.4534
  615MOL0     H82995   2.478   5.285   6.503  1.5357 -0.2786  2.1687
  615MOL0     H82996   2.433   5.165   6.622 -2.8022 -3.7299 -0.7846
  615MOL0     H82997   2.422   5.121   6.318  0.8384  2.1005 -0.7793
  615MOL0     H82998   2.359   5.001   6.451  2.0306 -0.1326 -0.6117
  615MOL0     H82999   2.198   5.168   6.515 -0.8044  1.7160 -0.9399
  615MOL0     H83000   2.178   5.099   6.357 -0.0425  0.1606 -0.9403
  615MOL0     H83001   2.116   5.320   6.357  0.3193 -2.3429  0.6546
  615MOL0     H83002   2.274   5.375   6.413 -0.3970 -0.3318  0.6372
  615MOL0     H83003   2.379   5.305   6.189 -0.2238 -2.7284 -0.8783
  615MOL0     H83004   2.239   5.409   6.156 -0.4287 -0.1135  0.6319
  615MOL0     H83005   2.273   5.113   6.131  3.5335  1.0919 -2.4946
  615MOL0     H83006   2.246   5.223   6.005  2.2243  0.9176  1.2742
  615MOL0     H83007   2.874   5.439   6.532 -1.0347  0.2856  0.2490
  615MOL0     H83008   3.001   5.610   6.636  1.7100 -2.1825 -1.0998
  615MOL0     H83009   3.147   5.803   7.033 -1.7066 -0.1138  0.5758
  615MOL0     H83010   3.307   5.913   7.192  0.3312  0.9863 -1.9108
  615MOL0     H83011   5.492   5.901   7.109 -1.0171  1.2238 -0.5464
  615MOL0     H83012   5.711   5.860   7.142  1.1780 -1.4151  1.5122
  615MOL0     H83013   6.068   5.675   7.398  2.4011  0.1310 -2.9872
  615MOL0     H83014   6.276   5.648   7.483  2.2756 -0.8683 -1.8610
  615MOL0     H83015   6.504   5.661   7.560  2.2526 -0.1241  0.7600
  615MOL0     H83016   6.498   5.621   7.384 -0.5999  2.0163 -1.1105
  615MOL0     H83017   6.713   5.702   7.345  2.4103  0.2034  1.6106
  615MOL0     H83018   6.705   5.580   7.473 -0.7687  0.0962  2.2913
  615MOL0     H83019   6.720   5.777   7.641  0.2821 -2.2638 -0.4097
  615MOL0     H83020   6.750   5.890   7.503  1.6625  1.5497  0.8280
  615MOL0     H83021   6.931   5.831   7.628 -1.7583  2.3023 -1.5238
  615MOL0     H83022   6.963   5.776   7.465 -1.5385 -1.1291 -0.0625
  615MOL0     H83023   6.987   5.401   7.663  3.1082  1.3557  0.8219
  615MOL0     H83024   6.373   6.048   7.398 -0.4687  1.0292  1.6233
  615MOL0     H83025   6.120   6.090   7.356 -3.5485 -0.5389  2.6919
  616MOL0     O83026   8.591   7.805   9.082 -0.7188  0.3336  0.3543
  616MOL0     C83027   8.640   7.777   9.193 -0.4593  0.1243  0.6572
  616MOL0     O83028   8.569   7.758   9.311  0.0551  0.3170 -0.4473
  616MOL0     C83029   8.429   7.759   9.298 -0.5749  0.0891  0.6665
  616MOL0     C83030   8.361   7.888   9.319 -0.2049  0.2399 -0.0289
  616MOL0     C83031   8.217   7.891   9.335 -0.6250  0.9165 -0.8030
  616MOL0     C83032   8.142   7.763   9.322 -1.0030 -0.9349 -0.4988
  616MOL0     O83033   8.003   7.769   9.325 -0.0274 -0.6856 -0.4240
  616MOL0     C83034   7.913   7.653   9.300 -0.1434  0.4661  0.3625
  616MOL0     C83035   7.771   7.702   9.319  0.9251  0.4733 -0.2126
  616MOL0     C83036   7.726   7.690   9.465  0.5180  0.0903 -0.0959
  616MOL0     C83037   7.610   7.776   9.509 -0.7862 -0.2036  0.5700
  616MOL0     C83038   7.472   7.748   9.451 -0.0123  0.3712 -0.1130
  616MOL0     C83039   7.425   7.617   9.515 -0.3074 -1.5185  0.7733
  616MOL0     C83040   7.277   7.621   9.528  0.3963  1.0483 -0.7661
  616MOL0     C83041   7.232   7.478   9.581 -0.5082 -0.3412  0.3338
  616MOL0     N83042   7.100   7.470   9.647  0.4456  0.2829 -0.3193
  616MOL0     C83043   7.073   7.529   9.775  0.0468 -0.0625  0.0943
  616MOL0     C83044   6.940   7.502   9.797  0.5296  0.3842 -0.3265
  616MOL0     C83045   6.866   7.558   9.927 -0.7256  0.5149 -0.3144
  616MOL0     C83046   6.725   7.501   9.947 -0.1788 -0.1900  0.2095
  616MOL0     C83047   6.721   7.349   9.968 -0.4524  1.0408 -0.5590
  616MOL0     C83048   6.581   7.294   9.928 -0.1430 -0.1590  0.0272
  616MOL0     O83049   6.556   7.169   9.991  0.4985 -0.0042 -0.2809
  616MOL0     C83050   6.435   7.099   9.962 -0.3086 -0.9783  0.4111
  616MOL0     C83051   6.380   7.027  10.066  1.1069 -0.5181  0.2585
  616MOL0     C83052   6.255   6.967  10.052  0.1970  0.6596 -0.5981
  616MOL0     C83053   6.202   6.887  10.174  0.6685  0.2069  0.0271
  616MOL0     C83054   6.179   6.974   9.929 -0.4499 -0.2381  0.8370
  616MOL0     C83055   6.040   6.931   9.907  0.0978  0.9805  0.3989
  616MOL0     O83056   6.010   6.881   9.781  0.2884 -0.0020 -0.1693
  616MOL0     C83057   5.901   6.810   9.779  0.0182  0.0495  0.5052
  616MOL0     C83058   5.851   6.699   9.851 -0.2306 -0.1168  0.3934
  616MOL0     C83059   5.747   6.624   9.817 -0.1320  0.5512  0.8894
  616MOL0     C83060   5.661   6.664   9.711 -0.4153 -0.0674 -0.1378
  616MOL0     O83061   5.549   6.577   9.698 -0.1061 -0.7556 -0.3815
  616MOL0     C83062   5.456   6.604   9.589  1.7760 -0.6533 -0.0717
  616MOL0     C83063   5.333   6.679   9.637  0.3403 -0.2333  0.2855
  616MOL0     C83064   5.212   6.590   9.674  0.2327 -0.5169  0.2659
  616MOL0     C83065   5.153   6.505   9.559  0.2400  0.2271  0.4641
  616MOL0     C83066   5.010   6.459   9.578  0.9020 -1.1664  0.1893
  616MOL0     C83067   4.993   6.388   9.706 -0.1744  0.2290  1.0607
  616MOL0     C83068   4.871   6.295   9.705 -0.4579  0.1033  0.5165
  616MOL0     C83069   4.865   6.245   9.856  0.0459 -0.3447  0.0915
  616MOL0    Cl83070   4.720   6.136   9.874  0.3922  0.2177 -0.2110
  616MOL0     C83071   5.697   6.785   9.641 -0.4251  1.4306 -1.0267
  616MOL0     C83072   5.824   6.838   9.669 -0.7905 -0.1983 -0.5736
  616MOL0     O83073   5.968   6.930  10.005 -0.7526 -0.1852 -1.0089
  616MOL0     C83074   6.240   7.064   9.829  0.6679  0.7387  0.6624
  616MOL0     C83075   6.363   7.121   9.845  0.3262 -0.5159 -0.3481
  616MOL0     N83076   6.885   7.441   9.688  0.0648 -0.4600  0.3080
  616MOL0     N83077   6.980   7.418   9.604  0.8307 -0.4462  0.5222
  616MOL0     C83078   8.215   7.641   9.297  0.1334 -0.2816  0.4927
  616MOL0     C83079   8.355   7.639   9.280 -0.5758  0.0496  0.3391
  616MOL0     C83080   8.785   7.766   9.208  0.5400 -0.4511  1.1148
  616MOL0     C83081   8.868   7.837   9.121 -0.3354  0.0056 -0.2230
  616MOL0     C83082   9.007   7.847   9.139 -0.1039 -0.1083 -0.0101
  616MOL0     C83083   9.068   7.808   9.253  0.1194  0.0278 -0.5897
  616MOL0     O83084   9.199   7.833   9.274 -0.6721 -0.1689 -0.4263
  616MOL0     C83085   9.273   7.748   9.369 -0.9228 -0.0328  0.3881
  616MOL0     C83086   9.409   7.812   9.374  0.3860  1.1983  0.0742
  616MOL0     C83087   9.510   7.725   9.441 -0.3681  0.2187  0.4322
  616MOL0     C83088   9.588   7.635   9.350  0.0818 -0.1210 -0.2890
  616MOL0     C83089   9.689   7.562   9.424  0.7003 -0.7613  0.3236
  616MOL0     C83090   9.768   7.496   9.481 -0.8781 -0.1469 -0.7015
  616MOL0     C83091   8.983   7.739   9.344 -0.1752  0.1347  0.3845
  616MOL0     C83092   8.845   7.713   9.324 -0.2010 -0.0741 -0.4235
  616MOL0     H83093   8.426   7.973   9.341  0.5788 -0.3993  0.1855
  616MOL0     H83094   8.173   7.986   9.365  1.1899  0.4311  4.4011
  616MOL0     H83095   7.927   7.614   9.199 -1.6152  0.9999 -0.0665
  616MOL0     H83096   7.915   7.583   9.385 -0.9453  0.1035  0.0923
  616MOL0     H83097   7.756   7.803   9.279  1.4658  0.4280 -0.5390
  616MOL0     H83098   7.704   7.640   9.258 -0.8312  2.2524 -0.1788
  616MOL0     H83099   7.704   7.585   9.490 -1.7576  0.4253 -0.4614
  616MOL0     H83100   7.803   7.725   9.534 -2.2458  0.6380  2.9484
  616MOL0     H83101   7.604   7.757   9.616  0.7081 -0.3673  0.6409
  616MOL0     H83102   7.622   7.884   9.494 -3.9999  0.1009 -0.5749
  616MOL0     H83103   7.407   7.831   9.479  1.4382  1.0959  1.3228
  616MOL0     H83104   7.478   7.733   9.343 -1.3706  4.2927 -0.8821
  616MOL0     H83105   7.461   7.537   9.450  0.4989 -1.4395  1.1048
  616MOL0     H83106   7.468   7.609   9.615 -2.7518  0.8972  2.1535
  616MOL0     H83107   7.227   7.698   9.589 -1.3802 -1.2565  0.8852
  616MOL0     H83108   7.229   7.640   9.432  0.2998 -0.7517 -1.1107
  616MOL0     H83109   7.317   7.448   9.643 -1.4259 -2.5527  0.6040
  616MOL0     H83110   7.226   7.422   9.487 -0.6695  2.0636 -1.1580
  616MOL0     H83111   7.136   7.601   9.827  0.9243 -2.0934  2.0132
  616MOL0     H83112   6.919   7.522  10.015 -1.5174 -0.5792 -0.2653
  616MOL0     H83113   6.871   7.667   9.921  4.8938  0.4621 -2.4828
  616MOL0     H83114   6.677   7.517   9.850  1.6263 -0.5767 -0.8008
  616MOL0     H83115   6.679   7.552  10.032 -0.6984  1.1097 -0.8018
  616MOL0     H83116   6.746   7.323  10.071  0.8746  1.2488 -0.8139
  616MOL0     H83117   6.796   7.295   9.909 -0.5491 -1.9229  1.7906
  616MOL0     H83118   6.586   7.280   9.820  0.6021 -0.1369  0.0502
  616MOL0     H83119   6.504   7.368   9.949  0.2343  0.4196 -0.5691
  616MOL0     H83120   6.419   7.018  10.167  0.3450 -2.3303  0.4362
  616MOL0     H83121   6.134   6.950  10.232  1.4146 -0.3824  1.6037
  616MOL0     H83122   6.153   6.793  10.148 -0.0646 -0.3845  3.1278
  616MOL0     H83123   6.284   6.847  10.236 -1.8753 -4.0052  1.0694
  616MOL0     H83124   5.904   6.662   9.938 -0.3142 -0.0187  0.4856
  616MOL0     H83125   5.723   6.545   9.888 -0.1679 -0.3367 -0.1010
  616MOL0     H83126   5.507   6.663   9.512  1.0245 -1.5754 -1.3152
  616MOL0     H83127   5.429   6.508   9.543  1.1010 -0.0368 -1.0186
  616MOL0     H83128   5.352   6.745   9.722 -4.1221  0.9990  0.5444
  616MOL0     H83129   5.307   6.740   9.550 -2.5358 -2.2551 -0.4363
  616MOL0     H83130   5.137   6.646   9.732  1.1697  1.1240 -0.0509
  616MOL0     H83131   5.237   6.511   9.745 -4.9929 -1.2274  1.7510
  616MOL0     H83132   5.160   6.557   9.463  1.1098 -1.9322 -0.7236
  616MOL0     H83133   5.210   6.411   9.552  1.8076  1.2831 -2.8517
  616MOL0     H83134   4.990   6.402   9.486 -0.6223  1.8976 -1.5420
  616MOL0     H83135   4.947   6.547   9.562  3.3646  0.9438  1.3230
  616MOL0     H83136   5.079   6.328   9.739  0.9857  1.7440  0.9148
  616MOL0     H83137   4.978   6.464   9.783  0.6840 -1.1129  2.5977
  616MOL0     H83138   4.882   6.208   9.641  3.2733  0.5044  0.4147
  616MOL0     H83139   4.789   6.359   9.672  0.3663  1.5461  1.1426
  616MOL0     H83140   4.844   6.330   9.922 -1.7733 -1.2027  0.6722
  616MOL0     H83141   4.960   6.195   9.877 -0.1032 -0.2906  0.9259
  616MOL0     H83142   5.645   6.838   9.562  1.2646  3.9832 -0.5592
  616MOL0     H83143   5.860   6.921   9.609  0.6771 -0.0985  0.4026
  616MOL0     H83144   6.183   7.078   9.737  0.3781  2.4895  1.0771
  616MOL0     H83145   6.400   7.177   9.759  0.3713 -0.4378 -0.2780
  616MOL0     H83146   8.151   7.554   9.301  1.8404 -1.5521  1.3009
  616MOL0     H83147   8.402   7.544   9.258 -1.1176 -0.6138  1.8751
  616MOL0     H83148   8.815   7.874   9.034  1.6402  0.6173 -1.2259
  616MOL0     H83149   9.080   7.883   9.067  1.0361  0.0240  1.1644
  616MOL0     H83150   9.232   7.747   9.470 -0.2874  1.4917  0.6874
  616MOL0     H83151   9.269   7.646   9.330 -0.4309 -0.4945  1.4884
  616MOL0     H83152   9.388   7.902   9.432 -1.3528  0.2464  0.9834
  616MOL0     H83153   9.444   7.842   9.275  0.9447 -1.1640 -0.5149
  616MOL0     H83154   9.464   7.674   9.526 -2.6776 -0.5649 -1.1873
  616MOL0     H83155   9.588   7.794   9.474 -0.1852  0.7564 -1.0604
  616MOL0     H83156   9.635   7.694   9.270 -2.3235  0.9834 -0.9871
  616MOL0     H83157   9.513   7.567   9.309 -0.6546  0.1461  0.5833
  616MOL0     H83158   9.842   7.441   9.534 -1.4937 -0.0244  0.3123
  616MOL0     H83159   9.037   7.700   9.430  1.0026 -0.1694 -0.4679
  616MOL0     H83160   8.791   7.653   9.397 -0.1371  0.0876 -0.2413
  617MOL0     O83161   4.580  10.180   7.419 -0.0416  0.5306 -0.1957
  617MOL0     C83162   4.679  10.163   7.352  0.4429 -0.1303 -0.1736
  617MOL0     O83163   4.675  10.163   7.212 -0.2794 -0.1319  0.1059
  617MOL0     C83164   4.552  10.153   7.157  0.0125 -0.3949 -0.5942
  617MOL0     C83165   4.505  10.033   7.110 -0.9277 -0.8615 -0.1308
  617MOL0     C83166   4.377  10.023   7.051 -0.1327 -0.1556 -0.6364
  617MOL0     C83167   4.297  10.130   7.037  0.4708 -0.2657  0.8695
  617MOL0     O83168   4.171  10.123   6.985 -0.6437 -0.0153 -0.8962
  617MOL0     C83169   4.148  10.033   6.881 -0.9658 -0.0607 -0.1107
  617MOL0     C83170   4.017  10.086   6.810 -0.3869  0.5622 -0.0803
  617MOL0     C83171   3.973  10.012   6.678  0.1926  0.3682  0.0598
  617MOL0     C83172   3.823  10.039   6.651 -1.1592  0.3645 -0.5033
  617MOL0     C83173   3.748   9.941   6.549  0.0660 -0.6167 -0.1886
  617MOL0     C83174   3.607   9.996   6.508 -1.1979 -0.5892 -0.7957
  617MOL0     C83175   3.549   9.899   6.408  0.8934 -0.6459  0.5259
  617MOL0     C83176   3.419   9.949   6.332 -0.0258  0.7740  0.0841
  617MOL0     N83177   3.341   9.832   6.274  0.3503 -0.6236  0.1329
  617MOL0     C83178   3.275   9.744   6.352  0.0402  0.1899 -0.7700
  617MOL0     C83179   3.204   9.673   6.265 -0.4726 -0.6956 -0.3298
  617MOL0     C83180   3.113   9.563   6.310 -0.3675 -0.0848  0.3044
  617MOL0     C83181   2.972   9.610   6.339 -0.5696 -0.5074 -0.1761
  617MOL0     C83182   2.877   9.490   6.387 -0.6986 -0.2163  0.4289
  617MOL0     C83183   2.753   9.528   6.467  0.6809  0.2405 -0.0517
  617MOL0     O83184   2.737   9.426   6.575  0.7540 -0.6032  0.3297
  617MOL0     C83185   2.625   9.433   6.651 -0.0478 -0.1644  0.5966
  617MOL0     C83186   2.551   9.549   6.678 -0.2859  1.1304  0.1104
  617MOL0     C83187   2.441   9.548   6.766  0.3650  0.2189 -1.1671
  617MOL0     C83188   2.378   9.681   6.802 -0.0065 -0.0590  0.4417
  617MOL0     C83189   2.397   9.424   6.824 -0.0755 -0.6204 -0.6455
  617MOL0     C83190   2.269   9.410   6.907  0.2933  0.1391 -0.4386
  617MOL0     O83191   2.182   9.516   6.923  0.5340  0.8543 -0.1784
  617MOL0     C83192   2.052   9.475   6.939 -0.0260 -0.8297 -0.0741
  617MOL0     C83193   1.979   9.528   7.035  1.2957 -0.2386 -0.1048
  617MOL0     C83194   1.842   9.497   7.049 -0.2571 -0.5587  0.2515
  617MOL0     C83195   1.775   9.433   6.948 -0.5125 -0.6496  1.1242
  617MOL0     O83196   1.639   9.425   6.940  0.0052 -0.2538  0.6091
  617MOL0     C83197   1.565   9.489   6.834 -0.1544  1.2117 -0.6577
  617MOL0     C83198   1.433   9.542   6.887 -0.2703 -0.1381  0.3802
  617MOL0     C83199   1.451   9.673   6.958 -0.5771 -0.0302  0.6698
  617MOL0     C83200   1.326   9.745   7.004 -1.2103 -0.6318 -0.3576
  617MOL0     C83201   1.363   9.850   7.118  0.4316 -0.8038  0.7437
  617MOL0     C83202   1.238   9.911   7.170 -0.1942  0.0544  0.1245
  617MOL0     C83203   1.259   9.979   7.300  0.5560  0.0809 -0.6910
  617MOL0     C83204   1.150  10.073   7.334 -0.0299 -0.5383  0.2477
  617MOL0    Cl83205   0.996   9.995   7.379 -0.3879  0.1732  0.3682
  617MOL0     C83206   1.853   9.370   6.845 -1.3268 -0.9226  0.1905
  617MOL0     C83207   1.984   9.405   6.832 -1.2622 -0.3596 -0.7030
  617MOL0     O83208   2.252   9.296   6.950 -0.0027  0.3183 -0.5427
  617MOL0     C83209   2.470   9.307   6.784  0.8223 -0.6082 -0.2190
  617MOL0     C83210   2.586   9.307   6.706  0.0952 -0.7694  0.3866
  617MOL0     N83211   3.230   9.713   6.138  0.4018  0.5961  0.0205
  617MOL0     N83212   3.310   9.815   6.142  0.3162  0.2479  0.0342
  617MOL0     C83213   4.345  10.257   7.067 -0.1912  1.1676 -0.4916
  617MOL0     C83214   4.472  10.268   7.132 -0.3160 -0.9020  0.1766
  617MOL0     C83215   4.818  10.171   7.413  0.2873  0.0376 -0.1585
  617MOL0     C83216   4.842  10.136   7.550 -0.4178  1.0197 -0.1585
  617MOL0     C83217   4.969  10.131   7.593 -0.6528  1.7371 -0.3444
  617MOL0     C83218   5.079  10.171   7.518 -0.0668  0.1072  0.4679
  617MOL0     O83219   5.212  10.162   7.552 -0.6955  0.2585 -0.0504
  617MOL0     C83220   5.256  10.112   7.681  0.2250 -0.1354 -0.9265
  617MOL0     C83221   5.410  10.091   7.688 -0.0838 -1.1204  0.7527
  617MOL0     C83222   5.462   9.998   7.584 -0.0756  0.1777  0.4680
  617MOL0     C83223   5.621   9.989   7.597  0.5387  0.1276 -0.1318
  617MOL0     C83224   5.666   9.876   7.511 -0.2781  0.8506 -0.0732
  617MOL0     C83225   5.725   9.797   7.444  0.3748 -0.5084  0.1675
  617MOL0     C83226   5.057  10.221   7.394  0.2026  0.5417 -0.7604
  617MOL0     C83227   4.928  10.215   7.333  0.3285  0.1457 -1.3374
  617MOL0     H83228   4.557   9.940   7.130 -1.4535 -0.9462  0.9494
  617MOL0     H83229   4.338   9.928   7.017  0.2532 -0.2205 -0.9003
  617MOL0     H83230   4.235  10.035   6.815 -0.7635 -0.0082  0.1536
  617MOL0     H83231   4.131   9.930   6.911 -2.8321  0.7040  1.7377
  617MOL0     H83232   3.944  10.078   6.891 -2.4064  1.5518 -1.7104
  617MOL0     H83233   4.047  10.188   6.787  2.6718 -0.3704 -0.6936
  617MOL0     H83234   4.029  10.039   6.588  2.1792  0.8175  1.3603
  617MOL0     H83235   4.004   9.909   6.696  1.4190  0.8433  0.7301
  617MOL0     H83236   3.772  10.040   6.748 -0.6403  1.2663 -0.2291
  617MOL0     H83237   3.808  10.140   6.612 -1.0409  0.5475 -0.0743
  617MOL0     H83238   3.802   9.922   6.456 -3.8816 -0.3883 -2.7215
  617MOL0     H83239   3.744   9.841   6.594  2.3104 -1.8012 -2.3570
  617MOL0     H83240   3.543  10.012   6.594  0.8898  0.4328  0.6530
  617MOL0     H83241   3.643  10.084   6.454 -1.1952 -1.7225 -2.7672
  617MOL0     H83242   3.618   9.863   6.331 -0.2901  1.3007 -1.5632
  617MOL0     H83243   3.518   9.819   6.476 -1.3984  0.3490  0.7836
  617MOL0     H83244   3.445  10.017   6.250  1.0404 -0.7991 -0.9458
  617MOL0     H83245   3.360   9.997   6.410 -2.5492 -2.8435  0.6204
  617MOL0     H83246   3.273   9.734   6.460  1.3848 -1.1425 -0.8359
  617MOL0     H83247   3.106   9.487   6.232 -1.4703 -2.6250  2.6947
  617MOL0     H83248   3.157   9.515   6.398 -0.3310 -0.1416  0.2555
  617MOL0     H83249   2.922   9.665   6.258 -1.1916  0.6951  0.9858
  617MOL0     H83250   2.977   9.681   6.423 -3.0964  0.5276 -0.8002
  617MOL0     H83251   2.924   9.433   6.467 -0.7695  1.7919  1.9630
  617MOL0     H83252   2.845   9.432   6.300  2.8925 -0.4561 -0.8759
  617MOL0     H83253   2.663   9.540   6.407  0.0090  2.3417  1.2515
  617MOL0     H83254   2.775   9.623   6.516 -1.2338  0.5302  0.3544
  617MOL0     H83255   2.588   9.643   6.638  2.0286  1.2794  2.2703
  617MOL0     H83256   2.281   9.694   6.754 -0.2267 -1.3489  0.4974
  617MOL0     H83257   2.374   9.700   6.910  1.5193  2.8881  0.0799
  617MOL0     H83258   2.446   9.754   6.758  2.7375 -2.5523  0.2066
  617MOL0     H83259   2.031   9.593   7.104  0.2553  1.5663 -0.9353
  617MOL0     H83260   1.771   9.520   7.128 -1.2614 -1.3700 -0.3901
  617MOL0     H83261   1.627   9.566   6.788  0.4652  0.2151 -1.5255
  617MOL0     H83262   1.538   9.417   6.756  1.7958 -2.3107  1.6451
  617MOL0     H83263   1.372   9.560   6.799  0.4939  0.3830 -0.0581
  617MOL0     H83264   1.375   9.470   6.945 -3.4124  1.1011 -0.9990
  617MOL0     H83265   1.510   9.731   6.887  1.8529 -0.1659  2.4453
  617MOL0     H83266   1.520   9.665   7.042  0.9408  1.2209 -0.3903
  617MOL0     H83267   1.269   9.799   6.928 -2.2305  0.8548  1.3866
  617MOL0     H83268   1.262   9.670   7.052 -0.6262 -1.6885 -1.1930
  617MOL0     H83269   1.440   9.924   7.095  1.1269 -1.2481  1.5666
  617MOL0     H83270   1.410   9.796   7.201 -0.8579 -1.2967  1.1691
  617MOL0     H83271   1.186   9.969   7.093  0.6249  1.9226  0.9381
  617MOL0     H83272   1.175   9.824   7.193  1.4145 -0.8378  1.3339
  617MOL0     H83273   1.351  10.037   7.297 -1.5281  3.7960  1.0028
  617MOL0     H83274   1.259   9.903   7.379 -2.2405 -0.1093 -0.7695
  617MOL0     H83275   1.135  10.134   7.245 -0.6810 -0.7483  0.2127
  617MOL0     H83276   1.186  10.127   7.422  0.6949  0.4008 -0.5893
  617MOL0     H83277   1.800   9.302   6.778 -2.5720 -0.5152  0.7316
  617MOL0     H83278   2.039   9.360   6.751 -0.6647  2.4139 -1.9592
  617MOL0     H83279   2.434   9.214   6.827  1.4106 -0.4843  0.5804
  617MOL0     H83280   2.644   9.217   6.690  0.5589 -1.2669  3.9371
  617MOL0     H83281   4.270  10.332   7.045 -1.3416 -0.2566 -1.6705
  617MOL0     H83282   4.500  10.369   7.159 -0.5322 -0.7845 -0.0456
  617MOL0     H83283   4.749  10.104   7.597  0.4847 -0.6195  0.5720
  617MOL0     H83284   4.982  10.094   7.694  0.3065 -1.4535 -1.5039
  617MOL0     H83285   5.213  10.177   7.757 -2.1382 -3.7765  1.1300
  617MOL0     H83286   5.217  10.010   7.695  2.0868 -0.8084 -0.3596
  617MOL0     H83287   5.434  10.062   7.791 -1.4013  0.1795  1.4631
  617MOL0     H83288   5.463  10.186   7.675 -0.2353 -1.1193  0.1044
  617MOL0     H83289   5.440  10.028   7.481 -2.7456 -0.8953  0.6536
  617MOL0     H83290   5.417   9.899   7.594 -3.3396  1.1587 -2.6450
  617MOL0     H83291   5.653   9.975   7.700 -1.2721 -3.4977  0.1066
  617MOL0     H83292   5.670  10.084   7.573 -0.6278  1.6242  2.9032
  617MOL0     H83293   5.763   9.723   7.376 -0.8075  0.5086 -1.6896
  617MOL0     H83294   5.140  10.272   7.346  3.2419 -0.0285  3.2755
  617MOL0     H83295   4.908  10.256   7.235 -1.9215  2.1168 -0.1487
  618MOL0     O83296   2.488  10.937   4.989 -0.2171 -0.2261 -0.0635
  618MOL0     C83297   2.467  11.039   5.044 -0.0438 -0.8266  0.0722
  618MOL0     O83298   2.369  11.137   5.013 -0.2308 -0.1048 -0.8603
  618MOL0     C83299   2.264  11.122   4.930  1.2188  0.3620  0.1986
  618MOL0     C83300   2.227  10.995   4.875  0.4032  0.2636 -0.1886
  618MOL0     C83301   2.104  10.983   4.805  0.3446 -0.4228 -0.3414
  618MOL0     C83302   2.037  11.097   4.780 -0.0201  0.0608 -0.1933
  618MOL0     O83303   1.931  11.100   4.701 -0.1602 -0.3219  0.4295
  618MOL0     C83304   1.806  11.041   4.745  0.0195 -0.5734 -0.1173
  618MOL0     C83305   1.689  11.054   4.648 -0.8747  0.6857  0.3538
  618MOL0     C83306   1.594  10.938   4.635 -0.0476 -0.8520  0.7837
  618MOL0     C83307   1.681  10.817   4.588 -0.3838 -0.3414 -0.5511
  618MOL0     C83308   1.605  10.712   4.511  0.2632  1.2679  0.6602
  618MOL0     C83309   1.702  10.598   4.491  0.1721 -0.1486 -0.0998
  618MOL0     C83310   1.645  10.494   4.394  0.3252 -0.4696 -1.0390
  618MOL0     C83311   1.525  10.421   4.453  1.1530  0.3237 -0.4659
  618MOL0     N83312   1.453  10.340   4.356  0.0681 -0.7511 -0.8821
  618MOL0     C83313   1.518  10.294   4.247  0.5621  0.1068 -0.3719
  618MOL0     C83314   1.421  10.265   4.154  0.1378  0.1861 -0.8978
  618MOL0     C83315   1.443  10.233   4.010  0.3976 -0.4874 -0.2559
  618MOL0     C83316   1.498  10.088   4.011  0.0090 -0.3247 -0.5060
  618MOL0     C83317   1.390   9.975   4.038  0.0784 -0.4386 -0.0967
  618MOL0     C83318   1.295   9.965   3.920  0.0161  0.4558  0.1048
  618MOL0     O83319   1.360   9.925   3.806 -0.9480  0.7119 -0.2167
  618MOL0     C83320   1.281   9.876   3.700 -0.2295  0.1426 -0.3035
  618MOL0     C83321   1.258   9.743   3.671  0.2940  0.1110  0.1363
  618MOL0     C83322   1.185   9.701   3.562 -0.2284  1.0599  0.2318
  618MOL0     C83323   1.175   9.553   3.543  0.3112 -0.3783  0.3449
  618MOL0     C83324   1.124   9.800   3.476 -0.3196 -0.2282 -0.3479
  618MOL0     C83325   1.040   9.768   3.357  0.4247  0.3667  0.1529
  618MOL0     O83326   1.015   9.878   3.278 -0.1250 -0.1606  0.4210
  618MOL0     C83327   0.945   9.871   3.161  0.4548  0.8808  0.7388
  618MOL0     C83328   0.840   9.958   3.149  0.9389  0.2789  1.1665
  618MOL0     C83329   0.746   9.946   3.043 -0.3664  0.2620  0.1891
  618MOL0     C83330   0.763   9.855   2.938  0.5689 -0.1454  0.5072
  618MOL0     O83331   0.681   9.851   2.828 -0.0722 -0.6830 -0.5217
  618MOL0     C83332   0.750   9.887   2.698 -0.5042 -0.4754  0.3003
  618MOL0     C83333   0.655   9.858   2.584 -0.1565  0.0611  0.4796
  618MOL0     C83334   0.539   9.965   2.576  0.6921  0.4565 -0.1386
  618MOL0     C83335   0.465   9.922   2.454  1.4012 -0.7589  0.0018
  618MOL0     C83336   0.342  10.015   2.433 -0.3546  0.5162 -0.1601
  618MOL0     C83337   0.281  10.008   2.285 -0.0907  0.4384 -0.1037
  618MOL0     C83338   0.271   9.867   2.231 -0.1600  0.8347  0.5960
  618MOL0     C83339   0.186   9.845   2.104  0.0335  0.0322 -0.4947
  618MOL0    Cl83340   0.231   9.954   1.968  0.5962 -0.4052 -0.1861
  618MOL0     C83341   0.873   9.776   2.945 -0.0043 -0.0240 -0.9798
  618MOL0     C83342   0.957   9.774   3.058  1.0213  0.1627 -0.0032
  618MOL0     O83343   0.992   9.657   3.337 -0.2280  0.2182 -0.6083
  618MOL0     C83344   1.147   9.933   3.508  0.0769 -0.0141  0.3638
  618MOL0     C83345   1.224   9.974   3.617 -0.4461  0.2057 -0.7793
  618MOL0     N83346   1.296  10.285   4.216 -0.4064 -0.4478 -0.2251
  618MOL0     N83347   1.322  10.352   4.323  0.1192 -0.2391 -0.1380
  618MOL0     C83348   2.068  11.221   4.825 -0.6929 -0.7663 -0.8455
  618MOL0     C83349   2.191  11.238   4.899  0.8140  0.1041  0.1694
  618MOL0     C83350   2.559  11.056   5.164  0.6453  0.2327  0.6701
  618MOL0     C83351   2.539  11.161   5.258  0.1324 -0.5651 -0.1005
  618MOL0     C83352   2.619  11.178   5.369 -0.7547  0.1254  0.1813
  618MOL0     C83353   2.728  11.092   5.380 -0.9962 -0.0881 -0.6415
  618MOL0     O83354   2.815  11.125   5.489 -0.4200 -0.7139 -0.1487
  618MOL0     C83355   2.940  11.052   5.520 -0.2577 -0.4304  0.0335
  618MOL0     C83356   3.014  11.109   5.635 -0.6461 -0.0649 -0.4976
  618MOL0     C83357   2.915  11.139   5.761  0.6033 -0.0524  0.1080
  618MOL0     C83358   2.990  11.145   5.896 -0.6591 -0.3053  0.0474
  618MOL0     C83359   2.894  11.142   6.009 -0.2978 -0.3539  0.0592
  618MOL0     C83360   2.823  11.137   6.111 -0.0900  0.7448  0.8620
  618MOL0     C83361   2.750  10.982   5.296 -0.6434 -0.2314  0.0219
  618MOL0     C83362   2.655  10.961   5.198  0.1557  0.4144 -0.6721
  618MOL0     H83363   2.274  10.899   4.892 -1.3329 -0.6609 -0.4045
  618MOL0     H83364   2.067  10.894   4.757  0.1824  0.3299 -1.6498
  618MOL0     H83365   1.832  10.936   4.761 -0.4642 -0.5546  0.9056
  618MOL0     H83366   1.780  11.087   4.841 -0.2835  4.9868 -2.4852
  618MOL0     H83367   1.621  11.134   4.680  0.2962  1.8200  0.1344
  618MOL0     H83368   1.721  11.071   4.545  2.7670 -0.5740  1.1469
  618MOL0     H83369   1.549  10.918   4.733 -1.9737 -2.3506 -0.3335
  618MOL0     H83370   1.518  10.957   4.558  1.5938 -0.3504 -0.7862
  618MOL0     H83371   1.762  10.852   4.523  0.1974  1.8369  1.1988
  618MOL0     H83372   1.730  10.778   4.677 -1.6486  3.4210  2.0493
  618MOL0     H83373   1.519  10.677   4.569 -0.1170 -0.6641 -0.9555
  618MOL0     H83374   1.571  10.736   4.409 -1.6554  0.6540  1.1280
  618MOL0     H83375   1.800  10.624   4.451  0.8992 -1.7164  0.5608
  618MOL0     H83376   1.723  10.563   4.593  0.9442 -0.5930 -0.4124
  618MOL0     H83377   1.611  10.546   4.303  1.1889  0.0511 -1.0815
  618MOL0     H83378   1.712  10.414   4.362 -0.4052 -2.3528  1.8063
  618MOL0     H83379   1.449  10.491   4.489  1.0349  1.3918 -2.6258
  618MOL0     H83380   1.549  10.359   4.540 -0.3153  0.5774  0.1542
  618MOL0     H83381   1.622  10.290   4.218  0.1636  1.7006 -2.2249
  618MOL0     H83382   1.353  10.248   3.950  1.0179  2.4596 -0.6002
  618MOL0     H83383   1.519  10.300   3.969  0.0434 -1.8623 -3.5121
  618MOL0     H83384   1.577  10.073   4.086 -1.8013  0.5162  1.6821
  618MOL0     H83385   1.543  10.072   3.912  1.7359 -2.8308  0.5937
  618MOL0     H83386   1.349   9.999   4.136 -0.2665  0.6255 -0.4841
  618MOL0     H83387   1.445   9.881   4.038 -1.9861 -1.6981 -0.1528
  618MOL0     H83388   1.229  10.051   3.919  1.2652  1.5140  2.1872
  618MOL0     H83389   1.239   9.878   3.956  1.4408 -0.2343  0.7618
  618MOL0     H83390   1.309   9.678   3.741  1.1455  1.8006  1.1322
  618MOL0     H83391   1.095   9.510   3.604 -0.5063 -1.0183 -1.1180
  618MOL0     H83392   1.168   9.516   3.440  0.5812  1.9247 -0.5550
  618MOL0     H83393   1.266   9.505   3.579  0.1458 -3.2109 -2.5374
  618MOL0     H83394   0.835  10.029   3.231  1.5801 -0.0574  1.5030
  618MOL0     H83395   0.668  10.021   3.035 -0.0540  0.4056 -2.2421
  618MOL0     H83396   0.769   9.994   2.702  0.1619 -0.4950 -1.4647
  618MOL0     H83397   0.841   9.828   2.683 -1.1817 -1.2546 -0.9466
  618MOL0     H83398   0.713   9.854   2.492  1.5091 -0.7473  1.5093
  618MOL0     H83399   0.622   9.755   2.595 -0.6060  0.1345 -0.1813
  618MOL0     H83400   0.577  10.067   2.562 -2.5236  1.9634  1.0141
  618MOL0     H83401   0.474   9.948   2.663 -1.5740  1.4778 -1.5454
  618MOL0     H83402   0.525   9.950   2.368 -1.0506  1.0174 -1.2555
  618MOL0     H83403   0.426   9.820   2.446 -2.2666  0.5477 -0.9711
  618MOL0     H83404   0.377  10.118   2.441 -1.1271  0.9069 -1.5144
  618MOL0     H83405   0.260   9.991   2.501  0.6687 -1.0284  0.6039
  618MOL0     H83406   0.182  10.054   2.290 -0.8534 -1.0791 -0.5883
  618MOL0     H83407   0.333  10.071   2.212  0.2799  2.1185  1.5254
  618MOL0     H83408   0.240   9.801   2.312  3.8623 -0.3445  1.4337
  618MOL0     H83409   0.374   9.842   2.202 -0.9952 -1.6193 -0.5001
  618MOL0     H83410   0.085   9.868   2.140  1.4406  2.9673  2.0249
  618MOL0     H83411   0.194   9.740   2.074  0.1599  0.1933 -1.0437
  618MOL0     H83412   0.893   9.702   2.868  3.8380 -0.5946  0.3437
  618MOL0     H83413   1.029   9.693   3.060 -1.6393 -2.3756 -0.3597
  618MOL0     H83414   1.108  10.013   3.446 -0.0894  0.1418  0.6652
  618MOL0     H83415   1.247  10.080   3.626  1.2962 -0.1676 -0.3457
  618MOL0     H83416   2.007  11.311   4.815 -1.6348 -1.3091 -0.1107
  618MOL0     H83417   2.214  11.337   4.936  0.9648  0.4743 -0.8649
  618MOL0     H83418   2.460  11.233   5.246  2.2000  1.5441 -2.3285
  618MOL0     H83419   2.595  11.245   5.451  0.6055 -2.5641  2.9775
  618MOL0     H83420   2.919  10.947   5.545 -1.0785  0.0392  1.4306
  618MOL0     H83421   3.004  11.068   5.433  0.5343 -0.1737  0.6548
  618MOL0     H83422   3.063  11.202   5.602  2.4240 -0.1752  3.0943
  618MOL0     H83423   3.099  11.049   5.666 -0.0188  0.1309 -1.7715
  618MOL0     H83424   2.835  11.065   5.770  0.1363  0.3724 -0.4625
  618MOL0     H83425   2.862  11.233   5.744  1.1650  0.5481  1.5253
  618MOL0     H83426   3.046  11.239   5.907 -3.7958  1.7339  0.0373
  618MOL0     H83427   3.056  11.060   5.913  0.6435  1.0966  2.6779
  618MOL0     H83428   2.769  11.134   6.204  2.9267  5.0601  3.1139
  618MOL0     H83429   2.835  10.914   5.299 -0.0637  0.5040  0.7226
  618MOL0     H83430   2.678  10.896   5.114 -0.9581 -1.8156  0.6651
  619MOL0     O83431   8.578   3.502  10.668 -0.0169 -0.0667 -0.0921
  619MOL0     C83432   8.647   3.479  10.566  0.2321  0.4405 -0.3789
  619MOL0     O83433   8.757   3.539  10.529  0.4484  0.3311  0.4758
  619MOL0     C83434   8.815   3.625  10.617 -0.8095 -0.4870 -0.2047
  619MOL0     C83435   8.861   3.576  10.745  0.3341 -0.3761  0.5908
  619MOL0     C83436   8.933   3.657  10.836 -0.0709  0.9887 -0.1883
  619MOL0     C83437   8.950   3.788  10.814 -0.3212 -1.2886 -0.5660
  619MOL0     O83438   9.024   3.867  10.904  0.0650  0.2202  1.0855
  619MOL0     C83439   9.038   3.830  11.034  0.4351  0.3541 -0.9620
  619MOL0     C83440   9.048   3.954  11.128  0.0306  0.0800  0.5114
  619MOL0     C83441   9.002   3.918  11.270  0.1858 -0.4207 -0.0876
  619MOL0     C83442   9.067   4.007  11.374  0.1661  0.6359  0.1758
  619MOL0     C83443   9.088   3.923  11.497  0.7091  0.6594  0.9027
  619MOL0     C83444   9.034   3.989  11.629 -1.0319 -0.1879 -0.5263
  619MOL0     C83445   8.887   3.983  11.628 -0.1113  0.2202 -0.6774
  619MOL0     C83446   8.823   4.051  11.745  0.1582  0.1333  0.8880
  619MOL0     N83447   8.709   3.975  11.803  0.0448  0.6502 -0.1048
  619MOL0     C83448   8.581   3.984  11.761  1.3870 -0.2985 -0.0201
  619MOL0     C83449   8.520   3.889  11.837 -1.0535  0.2349 -0.0953
  619MOL0     C83450   8.378   3.884  11.825  0.5235 -0.4430 -0.6058
  619MOL0     C83451   8.339   3.742  11.776  1.1234  0.2384  0.6891
  619MOL0     C83452   8.288   3.645  11.884 -1.0848 -0.5622 -0.3338
  619MOL0     C83453   8.156   3.682  11.946 -0.1186  0.4666 -0.3367
  619MOL0     O83454   8.077   3.561  11.969 -0.3796 -0.4805  0.0061
  619MOL0     C83455   7.952   3.585  12.006 -0.6386 -0.2543 -0.1765
  619MOL0     C83456   7.862   3.481  12.000 -1.3260 -0.1153 -0.1814
  619MOL0     C83457   7.725   3.484  12.039 -0.5903  0.0145 -1.3907
  619MOL0     C83458   7.642   3.357  12.008  0.3583  0.5212  0.2900
  619MOL0     C83459   7.674   3.600  12.103 -0.1815 -0.2927  0.1322
  619MOL0     C83460   7.528   3.620  12.142 -0.3426  1.3704  0.7095
  619MOL0     O83461   7.506   3.680  12.251 -0.2018 -0.0101 -0.5162
  619MOL0     C83462   7.373   3.696  12.300  1.1097 -0.3298 -0.4695
  619MOL0     C83463   7.303   3.812  12.306  0.1125  1.1434  0.5821
  619MOL0     C83464   7.175   3.809  12.365 -0.4845 -0.1846 -0.3727
  619MOL0     C83465   7.125   3.702  12.424  0.1167 -0.3304  0.4484
  619MOL0     O83466   7.004   3.727  12.490  0.0779  0.6693 -0.4011
  619MOL0     C83467   6.971   3.633  12.590  0.2435 -0.1108  0.0758
  619MOL0     C83468   6.832   3.686  12.651 -0.3551  0.8433 -0.7233
  619MOL0     C83469   6.734   3.687  12.526  0.0941 -0.3236 -0.1340
  619MOL0     C83470   6.591   3.701  12.586 -0.0317  0.0072  0.4078
  619MOL0     C83471   6.531   3.585  12.680  0.5995 -0.3539  0.0863
  619MOL0     C83472   6.399   3.640  12.735 -0.9299 -0.0902  0.0233
  619MOL0     C83473   6.359   3.575  12.871 -0.3195  0.0274  0.4139
  619MOL0     C83474   6.236   3.647  12.931  0.3289  0.1154  0.4136
  619MOL0    Cl83475   6.095   3.659  12.809  0.0349 -0.2495  0.0772
  619MOL0     C83476   7.197   3.577  12.416  0.4785 -0.5045 -1.4901
  619MOL0     C83477   7.322   3.577  12.352  0.5451  0.6158 -0.3197
  619MOL0     O83478   7.446   3.598  12.055  0.1172 -0.4375 -0.1070
  619MOL0     C83479   7.772   3.705  12.114 -0.5068  0.2189 -0.2583
  619MOL0     C83480   7.901   3.699  12.068  0.9187 -0.2208  0.3684
  619MOL0     N83481   8.613   3.832  11.920 -0.1265 -0.9539 -0.3366
  619MOL0     N83482   8.727   3.887  11.904  0.0529  0.1919  0.0039
  619MOL0     C83483   8.903   3.841  10.694 -0.1352 -0.6926  0.2827
  619MOL0     C83484   8.851   3.758  10.588 -0.9018  0.0865 -0.1305
  619MOL0     C83485   8.593   3.376  10.471  0.3016  0.5785 -0.7300
  619MOL0     C83486   8.468   3.316  10.482  0.5622  0.2099  0.3767
  619MOL0     C83487   8.432   3.212  10.397  0.0150 -0.9004 -0.2058
  619MOL0     C83488   8.514   3.169  10.299 -0.8521 -0.4840  1.0395
  619MOL0     O83489   8.483   3.063  10.216  0.3701 -0.3689  0.1288
  619MOL0     C83490   8.357   3.001  10.225  0.6860 -0.0931 -0.7328
  619MOL0     C83491   8.354   2.878  10.122 -0.5095 -1.0437 -1.1943
  619MOL0     C83492   8.465   2.774  10.180 -0.2386  0.4798 -0.0706
  619MOL0     C83493   8.456   2.637  10.104  0.3576 -0.1941 -0.1063
  619MOL0     C83494   8.531   2.530  10.162  0.5702 -0.5004  0.0144
  619MOL0     C83495   8.595   2.444  10.215  0.5882 -0.7415 -0.3038
  619MOL0     C83496   8.649   3.229  10.290 -0.1238  0.1271 -0.2022
  619MOL0     C83497   8.685   3.335  10.370 -0.3296  0.0199 -0.0944
  619MOL0     H83498   8.849   3.468  10.747  1.6935 -0.6060 -1.2559
  619MOL0     H83499   8.964   3.608  10.927 -1.1862  2.4095  1.0225
  619MOL0     H83500   8.954   3.771  11.073  0.9909 -1.5490 -2.4481
  619MOL0     H83501   9.122   3.760  11.042 -0.3739 -0.7516 -1.8032
  619MOL0     H83502   9.148   3.990  11.152 -1.5148  3.9217  2.0970
  619MOL0     H83503   8.992   4.040  11.089  3.4534  0.4840 -4.5504
  619MOL0     H83504   8.894   3.923  11.282  0.3488  2.5091  0.9803
  619MOL0     H83505   9.037   3.815  11.283  0.1455 -0.6381 -1.5935
  619MOL0     H83506   9.168   4.033  11.342 -0.3076  1.2234 -0.8786
  619MOL0     H83507   9.014   4.098  11.404  1.7838  1.3947  0.9014
  619MOL0     H83508   9.030   3.831  11.486 -1.2188  2.0891 -2.6571
  619MOL0     H83509   9.195   3.907  11.512  0.8493  2.2404  1.8106
  619MOL0     H83510   9.065   3.928  11.713 -2.3302  0.9474  0.8217
  619MOL0     H83511   9.080   4.088  11.644 -1.7883  0.0313  0.4644
  619MOL0     H83512   8.840   4.016  11.536 -0.1828 -0.6382 -0.9590
  619MOL0     H83513   8.862   3.877  11.632  4.2038 -0.9743  0.4664
  619MOL0     H83514   8.794   4.155  11.728  0.7456  0.5620  2.3892
  619MOL0     H83515   8.892   4.054  11.830 -0.5546  1.8411  1.4440
  619MOL0     H83516   8.541   4.039  11.677 -0.0768 -0.4111  0.5814
  619MOL0     H83517   8.323   3.913  11.915  1.4940 -0.3341 -0.0273
  619MOL0     H83518   8.347   3.952  11.746 -0.1678 -2.1408 -1.8487
  619MOL0     H83519   8.422   3.703  11.716 -0.5017 -0.4113 -1.2704
  619MOL0     H83520   8.272   3.746  11.690 -0.4328  1.9932  1.8953
  619MOL0     H83521   8.375   3.633  11.951 -0.1607 -0.6083 -1.5119
  619MOL0     H83522   8.278   3.552  11.828  1.2305 -0.9063 -0.2849
  619MOL0     H83523   8.095   3.753  11.889  0.3438  0.6625 -0.5882
  619MOL0     H83524   8.188   3.722  12.043  1.0673 -2.2473  0.4715
  619MOL0     H83525   7.907   3.390  11.964 -1.0503 -0.2578  0.5167
  619MOL0     H83526   7.562   3.356  12.082 -1.4450  1.4196 -1.5302
  619MOL0     H83527   7.601   3.369  11.907 -0.0441 -0.3672  0.3419
  619MOL0     H83528   7.689   3.259  12.010 -2.5606 -0.9729  0.4641
  619MOL0     H83529   7.359   3.904  12.295  1.5270  0.2715  0.2963
  619MOL0     H83530   7.118   3.900  12.379  1.4006  0.8600  0.9558
  619MOL0     H83531   6.964   3.528  12.561  1.8595 -0.8927  2.2572
  619MOL0     H83532   7.053   3.643  12.661  1.0940 -0.3751 -0.8526
  619MOL0     H83533   6.799   3.624  12.735  1.2231  1.7440  0.6185
  619MOL0     H83534   6.841   3.785  12.697  1.6441  0.7272 -0.7354
  619MOL0     H83535   6.735   3.596  12.466 -1.4572 -0.0782 -0.5780
  619MOL0     H83536   6.756   3.768  12.455 -4.3617 -0.4487 -1.9852
  619MOL0     H83537   6.589   3.795  12.641 -3.1204  0.5326 -0.4021
  619MOL0     H83538   6.519   3.723  12.507 -2.7196 -0.6365  2.5417
  619MOL0     H83539   6.595   3.561  12.766 -1.4746 -0.3797  1.7055
  619MOL0     H83540   6.508   3.490  12.631 -2.5794  0.8816 -1.1068
  619MOL0     H83541   6.417   3.745  12.759 -1.6298 -0.2617  1.4024
  619MOL0     H83542   6.316   3.633  12.665 -2.7099 -1.9798  2.2003
  619MOL0     H83543   6.449   3.565  12.933  0.0350 -3.4591 -0.4454
  619MOL0     H83544   6.315   3.476  12.861 -1.5032  0.6740 -1.2507
  619MOL0     H83545   6.266   3.745  12.969  0.8501  0.2094 -0.2091
  619MOL0     H83546   6.204   3.593  13.021  1.1819 -0.7559  0.2215
  619MOL0     H83547   7.159   3.488  12.466  2.8842  0.2198  1.9397
  619MOL0     H83548   7.378   3.484  12.353 -0.9572 -0.3333 -0.6942
  619MOL0     H83549   7.733   3.797  12.156  0.8323 -0.5722  2.9806
  619MOL0     H83550   7.962   3.789  12.076 -1.5149  1.7499 -1.6041
  619MOL0     H83551   8.916   3.947  10.671 -0.8013 -0.1156  2.3480
  619MOL0     H83552   8.828   3.793  10.488 -0.3100 -2.0631 -1.0693
  619MOL0     H83553   8.396   3.362  10.548  2.1658 -0.5252  2.7651
  619MOL0     H83554   8.338   3.160  10.415  0.6259 -1.4355  1.6977
  619MOL0     H83555   8.342   2.973  10.330  0.0616 -1.5888 -1.1911
  619MOL0     H83556   8.275   3.073  10.212 -0.5370 -0.7517  2.2925
  619MOL0     H83557   8.372   2.910  10.019 -0.9724 -0.3141 -1.0480
  619MOL0     H83558   8.255   2.833  10.131 -0.5186 -0.6814  1.0528
  619MOL0     H83559   8.431   2.755  10.282 -0.6758  1.1097 -0.0907
  619MOL0     H83560   8.561   2.826  10.174  1.2222 -2.1278 -0.6288
  619MOL0     H83561   8.489   2.655  10.001 -3.9534  1.7306 -1.4162
  619MOL0     H83562   8.351   2.608  10.092 -1.0115  3.5048  1.2613
  619MOL0     H83563   8.654   2.374  10.272  1.0913  0.9960  1.4532
  619MOL0     H83564   8.709   3.187  10.209  0.9109 -3.3642  2.1495
  619MOL0     H83565   8.786   3.370  10.351 -0.5687 -0.5741 -2.7051
  620MOL0     O83566   6.156   2.605   0.234  0.4309 -0.4569 -0.3016
  620MOL0     C83567   6.221   2.699   0.287 -0.1238  0.1709  0.4668
  620MOL0     O83568   6.198   2.754   0.415  0.2481  0.2664 -0.7759
  620MOL0     C83569   6.099   2.705   0.492  0.3593 -0.7509 -0.5473
  620MOL0     C83570   6.131   2.604   0.584  0.3735 -0.5200  0.6784
  620MOL0     C83571   6.031   2.575   0.672 -0.1353 -0.2267 -0.1356
  620MOL0     C83572   5.896   2.627   0.665 -0.2659 -0.3058 -0.0229
  620MOL0     O83573   5.783   2.606   0.730 -0.9536  0.6253  0.5865
  620MOL0     C83574   5.803   2.582   0.867 -0.6179  0.4477 -0.3167
  620MOL0     C83575   5.671   2.536   0.944 -0.6967 -0.2813 -0.5557
  620MOL0     C83576   5.694   2.493   1.097  0.3457  0.0211 -0.1149
  620MOL0     C83577   5.770   2.607   1.176  0.4117 -0.0948  0.2828
  620MOL0     C83578   5.777   2.592   1.330 -0.0892  0.6397  0.4929
  620MOL0     C83579   5.853   2.702   1.400  0.6026  0.1298  0.2593
  620MOL0     C83580   5.896   2.660   1.543 -0.2247  0.2385 -0.1280
  620MOL0     C83581   5.796   2.655   1.649 -0.0305 -0.0347 -0.0567
  620MOL0     N83582   5.721   2.531   1.636 -0.5527 -0.4437 -0.5362
  620MOL0     C83583   5.773   2.406   1.645  0.4071  0.8498  0.8337
  620MOL0     C83584   5.675   2.323   1.620  0.8587  0.3614 -0.8274
  620MOL0     C83585   5.673   2.165   1.616  0.5424 -0.1604  0.3997
  620MOL0     C83586   5.712   2.105   1.479  0.3536 -0.3832 -0.0065
  620MOL0     C83587   5.617   2.152   1.371  0.4016  0.4706  0.4690
  620MOL0     C83588   5.607   2.057   1.257 -0.0005 -0.7151  0.5879
  620MOL0     O83589   5.509   2.097   1.164 -0.3264  0.2313  0.2967
  620MOL0     C83590   5.492   2.009   1.053  0.1066  0.5461 -1.1497
  620MOL0     C83591   5.598   1.971   0.974  0.2232  0.8509  0.5549
  620MOL0     C83592   5.577   1.874   0.869  0.6745 -0.2801 -1.2504
  620MOL0     C83593   5.694   1.831   0.780 -0.3286  0.7453 -0.1058
  620MOL0     C83594   5.457   1.807   0.854  0.2836 -0.0391 -0.6324
  620MOL0     C83595   5.430   1.682   0.776  0.0135  0.4084  0.4373
  620MOL0     O83596   5.304   1.683   0.731  0.4783  0.3272  0.1116
  620MOL0     C83597   5.273   1.579   0.644 -0.0950  0.2117 -0.2633
  620MOL0     C83598   5.329   1.587   0.518  0.8472 -0.5859  0.4317
  620MOL0     C83599   5.279   1.499   0.422 -0.5576  0.8340  1.0971
  620MOL0     C83600   5.197   1.393   0.451  0.4864  0.8123 -0.1604
  620MOL0     O83601   5.143   1.316   0.353 -0.6751 -0.1440  0.1122
  620MOL0     C83602   5.196   1.189   0.341 -0.2924  0.1686  0.3177
  620MOL0     C83603   5.343   1.191   0.296  0.0354  0.1311 -0.7298
  620MOL0     C83604   5.408   1.043   0.300  0.3845 -0.0290 -0.6979
  620MOL0     C83605   5.557   1.053   0.333 -0.6107  0.4766 -0.0399
  620MOL0     C83606   5.626   1.098   0.201 -0.7791  0.4105 -0.2217
  620MOL0     C83607   5.776   1.133   0.210  0.3731 -0.7759 -0.3614
  620MOL0     C83608   5.831   1.219   0.098 -0.4052  0.2456 -0.2947
  620MOL0     C83609   5.856   1.128  -0.022 -0.0107  0.4730 -0.0785
  620MOL0    Cl83610   5.990   1.198  -0.109 -0.0311  0.1340  0.4076
  620MOL0     C83611   5.141   1.382   0.578 -0.0932  0.2871  0.5357
  620MOL0     C83612   5.185   1.469   0.674  0.7152 -0.4842 -0.5649
  620MOL0     O83613   5.517   1.584   0.762  0.1397 -0.6004  0.4070
  620MOL0     C83614   5.350   1.861   0.932 -1.1505 -0.2591 -0.4054
  620MOL0     C83615   5.362   1.958   1.027  0.2166 -0.5059 -0.0960
  620MOL0     N83616   5.566   2.404   1.590  0.2631  0.7004 -1.0813
  620MOL0     N83617   5.588   2.533   1.600 -0.6213  0.4688 -0.2431
  620MOL0     C83618   5.870   2.721   0.571 -0.4314 -0.3185 -0.1253
  620MOL0     C83619   5.972   2.768   0.495 -0.7965  0.1538 -0.1484
  620MOL0     C83620   6.329   2.763   0.209 -0.1270  0.4793  0.5821
  620MOL0     C83621   6.414   2.866   0.268  0.0142  0.3995 -0.4316
  620MOL0     C83622   6.509   2.937   0.189  0.4949  0.2199  0.0626
  620MOL0     C83623   6.537   2.893   0.060  1.0401  0.3388 -0.3458
  620MOL0     O83624   6.624   2.971  -0.009 -0.3300 -0.1586  0.1356
  620MOL0     C83625   6.625   2.959  -0.155  0.1391 -0.4065  0.2130
  620MOL0     C83626   6.689   3.089  -0.230  0.4231  1.0225 -0.5218
  620MOL0     C83627   6.634   3.212  -0.178 -0.4158  0.6956  0.0760
  620MOL0     C83628   6.698   3.269  -0.049  0.2708 -0.2627  0.3758
  620MOL0     C83629   6.834   3.299  -0.075 -1.3931  0.8581  0.1636
  620MOL0     C83630   6.939   3.335  -0.113  0.3851 -0.4295 -1.0211
  620MOL0     C83631   6.458   2.790  -0.002 -0.6592 -0.2541 -0.1215
  620MOL0     C83632   6.364   2.716   0.077  0.0326 -0.3722 -0.0333
  620MOL0     H83633   6.228   2.555   0.582  0.5198 -0.2169 -0.1322
  620MOL0     H83634   6.049   2.490   0.737 -0.3513 -0.3821 -0.2774
  620MOL0     H83635   5.881   2.509   0.892 -0.8303  0.8907  1.8158
  620MOL0     H83636   5.842   2.675   0.911  3.3264  0.0563 -2.4709
  620MOL0     H83637   5.594   2.614   0.942  0.5776  1.0278 -1.1302
  620MOL0     H83638   5.623   2.451   0.894 -0.4047 -0.2713 -0.8577
  620MOL0     H83639   5.595   2.480   1.141 -0.6629  1.3893 -1.8467
  620MOL0     H83640   5.749   2.398   1.104  1.0489  0.1995 -2.2817
  620MOL0     H83641   5.870   2.602   1.131  0.3974  2.9133 -0.3071
  620MOL0     H83642   5.741   2.711   1.156 -0.0616 -0.3056 -0.1418
  620MOL0     H83643   5.676   2.592   1.374  0.8613 -1.8286  2.9606
  620MOL0     H83644   5.832   2.502   1.357  2.1753  1.9395  0.3960
  620MOL0     H83645   5.939   2.725   1.337 -1.5085  2.3786 -2.0401
  620MOL0     H83646   5.791   2.792   1.401  0.2077 -0.1227  1.7983
  620MOL0     H83647   5.964   2.574   1.547 -0.6742 -0.0872  0.8848
  620MOL0     H83648   5.956   2.745   1.574  2.2812 -1.4852  0.0834
  620MOL0     H83649   5.735   2.746   1.650  0.7011  0.5372  2.8806
  620MOL0     H83650   5.844   2.661   1.747  1.7596 -0.3458 -0.8773
  620MOL0     H83651   5.879   2.391   1.663  0.8182  0.7678 -1.3901
  620MOL0     H83652   5.744   2.141   1.696  1.6965  0.0785 -0.5363
  620MOL0     H83653   5.577   2.122   1.646  0.7147  0.1895  1.5036
  620MOL0     H83654   5.723   1.996   1.477 -0.0100 -0.4261 -1.7965
  620MOL0     H83655   5.808   2.147   1.447 -0.5132  1.1254 -0.7408
  620MOL0     H83656   5.647   2.250   1.334  2.6005 -1.2153 -2.6854
  620MOL0     H83657   5.514   2.155   1.408  0.6173  0.0872  1.1166
  620MOL0     H83658   5.576   1.962   1.303 -1.2584  0.2830  1.8809
  620MOL0     H83659   5.706   2.052   1.210 -1.1288 -3.0348 -1.8663
  620MOL0     H83660   5.693   2.019   0.995  0.2740  0.6338  0.8379
  620MOL0     H83661   5.757   1.755   0.826 -2.0536 -0.9158 -0.3564
  620MOL0     H83662   5.655   1.782   0.690  0.2129 -0.9124  0.5289
  620MOL0     H83663   5.761   1.913   0.751  2.6336 -0.9398  1.5259
  620MOL0     H83664   5.396   1.669   0.494 -1.8276  2.0077  1.1550
  620MOL0     H83665   5.305   1.521   0.318  0.4287  2.2083  1.6096
  620MOL0     H83666   5.186   1.122   0.427 -1.6275  0.3036  0.2908
  620MOL0     H83667   5.147   1.129   0.264  1.3032 -1.9603  0.8662
  620MOL0     H83668   5.366   1.226   0.195  3.4487  1.7479  0.4810
  620MOL0     H83669   5.397   1.254   0.367  0.9889 -1.3711 -0.0665
  620MOL0     H83670   5.402   0.988   0.206  0.9572 -0.1945 -0.6392
  620MOL0     H83671   5.366   0.987   0.384  1.3073  0.3010  0.0093
  620MOL0     H83672   5.575   1.129   0.409 -0.1863  0.9083 -0.5690
  620MOL0     H83673   5.596   0.956   0.367 -1.3944 -0.1776 -0.9726
  620MOL0     H83674   5.574   1.189   0.169  2.4844  1.7820 -2.0976
  620MOL0     H83675   5.613   1.018   0.128  0.3848  1.2873 -1.4433
  620MOL0     H83676   5.804   1.186   0.301  3.8425 -1.2005 -1.0566
  620MOL0     H83677   5.833   1.040   0.216  0.9418 -0.6100 -2.5360
  620MOL0     H83678   5.936   1.247   0.111  0.4127 -0.3501 -4.4902
  620MOL0     H83679   5.782   1.313   0.073  3.9932  2.4003 -1.8310
  620MOL0     H83680   5.770   1.129  -0.090  0.1268  1.0908 -0.2464
  620MOL0     H83681   5.892   1.028   0.006 -0.0369  0.8126  1.2000
  620MOL0     H83682   5.063   1.309   0.596 -3.4887  2.0944 -4.5144
  620MOL0     H83683   5.132   1.468   0.769  0.4763  0.9924 -0.6580
  620MOL0     H83684   5.250   1.826   0.909 -0.1019 -2.8222 -1.4516
  620MOL0     H83685   5.284   2.002   1.087 -0.3255  0.8018 -1.6970
  620MOL0     H83686   5.766   2.753   0.564 -1.1116 -2.4824 -0.7167
  620MOL0     H83687   5.948   2.842   0.419  1.7808 -1.2338 -2.4790
  620MOL0     H83688   6.411   2.895   0.372  1.6442 -1.5301  0.2273
  620MOL0     H83689   6.575   3.013   0.227  0.5463 -0.4213  1.2939
  620MOL0     H83690   6.688   2.873  -0.181  0.0975 -0.4027  0.0981
  620MOL0     H83691   6.528   2.940  -0.203 -0.6763  1.1761  1.1705
  620MOL0     H83692   6.671   3.078  -0.337 -2.1263 -0.4008 -0.0205
  620MOL0     H83693   6.797   3.072  -0.215  0.1375  0.3137  0.8944
  620MOL0     H83694   6.527   3.194  -0.165 -0.3632  0.9175  0.8642
  620MOL0     H83695   6.644   3.289  -0.255 -0.6696  2.4899  1.7358
  620MOL0     H83696   6.689   3.206   0.041 -3.4426  1.5124  1.4170
  620MOL0     H83697   6.645   3.356  -0.010 -1.9741 -1.4386  0.0990
  620MOL0     H83698   7.037   3.349  -0.153  0.6068 -2.3883 -1.2717
  620MOL0     H83699   6.465   2.755  -0.105  0.7455 -5.1160  1.3595
  620MOL0     H83700   6.320   2.625   0.040 -3.5104  0.0734  2.5497
  621MOL0     O83701   5.484   5.860   3.343  0.1440  0.2142  0.0302
  621MOL0     C83702   5.475   5.757   3.421  0.7282 -0.0555  0.3538
  621MOL0     O83703   5.355   5.706   3.470 -0.3748 -0.0110 -0.1874
  621MOL0     C83704   5.235   5.743   3.418  0.1231 -0.0013 -0.0447
  621MOL0     C83705   5.213   5.746   3.280 -0.4200  0.2817 -0.6982
  621MOL0     C83706   5.083   5.792   3.234  0.3576 -0.0910 -0.8852
  621MOL0     C83707   4.979   5.832   3.322 -0.1112  0.5689  0.2020
  621MOL0     O83708   4.855   5.869   3.304  0.1847  0.1964 -0.0026
  621MOL0     C83709   4.808   5.857   3.174 -0.7942 -0.4019 -0.1976
  621MOL0     C83710   4.767   5.716   3.142  0.2644  0.2903 -0.6536
  621MOL0     C83711   4.657   5.639   3.219  0.0755 -0.6960 -0.4154
  621MOL0     C83712   4.528   5.722   3.238 -0.8965 -0.9323 -0.1749
  621MOL0     C83713   4.411   5.641   3.282  0.1927 -0.0076 -0.1996
  621MOL0     C83714   4.274   5.695   3.235  0.2154 -0.1956  0.3874
  621MOL0     C83715   4.161   5.595   3.268 -0.0148  0.2084 -0.8895
  621MOL0     C83716   4.024   5.608   3.191 -0.4635 -0.5123 -0.3662
  621MOL0     N83717   3.975   5.742   3.171  0.3407 -0.5009  0.4809
  621MOL0     C83718   3.879   5.796   3.251  0.3824  0.8601  0.5922
  621MOL0     C83719   3.869   5.928   3.215 -0.5776 -0.6086 -0.2622
  621MOL0     C83720   3.754   6.021   3.260  0.5317 -0.7980 -0.0081
  621MOL0     C83721   3.616   5.948   3.250  0.2776  0.3121  0.9150
  621MOL0     C83722   3.515   6.056   3.234 -0.9383 -0.5328  0.9240
  621MOL0     C83723   3.382   5.996   3.202 -0.1622  0.2034 -0.1279
  621MOL0     O83724   3.340   5.931   3.328  0.8895  0.8328  0.0303
  621MOL0     C83725   3.227   5.854   3.335 -0.3177 -0.0707  1.0247
  621MOL0     C83726   3.123   5.842   3.233  0.7278 -0.2357  0.8674
  621MOL0     C83727   3.011   5.752   3.258 -0.6299  0.2653 -0.7545
  621MOL0     C83728   2.910   5.751   3.139  0.4600  0.6517  0.5206
  621MOL0     C83729   2.995   5.687   3.382  0.7688 -0.4797 -0.2501
  621MOL0     C83730   2.878   5.594   3.404  0.1722  0.3526  0.8585
  621MOL0     O83731   2.862   5.565   3.537 -0.2144 -0.8746 -0.2556
  621MOL0     C83732   2.738   5.529   3.578  0.3724 -0.2476 -0.3484
  621MOL0     C83733   2.719   5.425   3.672  0.0807  0.6294 -0.4027
  621MOL0     C83734   2.590   5.392   3.711 -0.6827  0.4703  0.1385
  621MOL0     C83735   2.476   5.448   3.662 -0.4220  0.3725  0.2000
  621MOL0     O83736   2.362   5.393   3.715 -0.1111 -0.7587 -0.1987
  621MOL0     C83737   2.311   5.470   3.820  0.2905  0.3929  0.1908
  621MOL0     C83738   2.189   5.401   3.883 -0.6264 -1.2338 -0.3620
  621MOL0     C83739   2.058   5.480   3.860  0.5668  0.5458  0.4123
  621MOL0     C83740   1.936   5.439   3.929  0.0418  0.1618 -0.5243
  621MOL0     C83741   1.831   5.546   3.889  0.5776  0.0083 -0.3671
  621MOL0     C83742   1.698   5.541   3.963 -0.0732 -0.0044 -0.1919
  621MOL0     C83743   1.616   5.679   3.957 -0.8139  0.7313  0.4704
  621MOL0     C83744   1.482   5.677   4.020 -0.0886  0.1188 -0.6015
  621MOL0    Cl83745   1.398   5.834   3.976 -0.1900 -0.1174  0.1409
  621MOL0     C83746   2.491   5.562   3.586 -0.7076  0.0233 -1.2138
  621MOL0     C83747   2.624   5.598   3.538  0.3828  0.1003 -0.2468
  621MOL0     O83748   2.801   5.547   3.317  0.0262  0.3854 -0.1170
  621MOL0     C83749   3.095   5.698   3.477 -0.6430 -0.2269 -0.3242
  621MOL0     C83750   3.207   5.772   3.447 -0.2507  0.0653 -0.0266
  621MOL0     N83751   3.973   5.954   3.133 -0.4108 -0.0251  0.7360
  621MOL0     N83752   4.031   5.838   3.096  0.3914  0.3091  0.4843
  621MOL0     C83753   5.006   5.820   3.456  0.4099 -0.4126 -0.1065
  621MOL0     C83754   5.126   5.772   3.502  0.1830  0.6107 -0.3249
  621MOL0     C83755   5.602   5.707   3.462  0.0822 -0.1247  0.1100
  621MOL0     C83756   5.718   5.748   3.414 -0.8673 -0.0740  0.7095
  621MOL0     C83757   5.836   5.709   3.478  0.2438 -0.6700 -0.6715
  621MOL0     C83758   5.845   5.627   3.590  1.1391  0.0304  0.7555
  621MOL0     O83759   5.972   5.609   3.637  0.5535  0.4261  0.0645
  621MOL0     C83760   5.988   5.515   3.748 -0.1941 -0.0635  0.1931
  621MOL0     C83761   6.129   5.466   3.744  0.3289  0.6864  0.7622
  621MOL0     C83762   6.163   5.370   3.865 -0.6994  0.4457  0.0084
  621MOL0     C83763   6.293   5.293   3.832  0.2827 -0.3562  0.0323
  621MOL0     C83764   6.404   5.389   3.839 -0.7962  0.3426 -0.2368
  621MOL0     C83765   6.511   5.458   3.834  0.0037  0.5743 -0.0601
  621MOL0     C83766   5.728   5.580   3.645 -0.1162  0.0221  0.0345
  621MOL0     C83767   5.612   5.617   3.578  0.4101  0.3366 -0.0843
  621MOL0     H83768   5.280   5.714   3.201 -0.0475 -0.0222 -0.2699
  621MOL0     H83769   5.072   5.798   3.126 -0.0197  4.3053 -0.7778
  621MOL0     H83770   4.719   5.920   3.168 -1.5669 -1.5240 -0.9916
  621MOL0     H83771   4.874   5.903   3.100 -0.3437  1.0622  1.0587
  621MOL0     H83772   4.741   5.729   3.036 -0.5889  2.4450 -0.2341
  621MOL0     H83773   4.854   5.651   3.152 -0.1005  0.1332  2.3019
  621MOL0     H83774   4.634   5.547   3.164 -0.3068 -0.5941 -0.4311
  621MOL0     H83775   4.696   5.613   3.318  0.0694  2.4991  0.5316
  621MOL0     H83776   4.558   5.803   3.304  0.1597  0.5929 -2.4075
  621MOL0     H83777   4.519   5.757   3.135  0.7294 -0.5214 -0.1923
  621MOL0     H83778   4.430   5.544   3.234  0.1624 -0.0441 -0.1375
  621MOL0     H83779   4.407   5.630   3.391 -1.3558 -1.3597 -0.3622
  621MOL0     H83780   4.252   5.794   3.276  0.1408  0.0022 -0.1153
  621MOL0     H83781   4.280   5.709   3.127  1.4141 -2.8507  0.0306
  621MOL0     H83782   4.203   5.495   3.254 -1.1343  0.0685 -3.8533
  621MOL0     H83783   4.138   5.606   3.374 -0.8895  2.4203 -1.2447
  621MOL0     H83784   3.946   5.561   3.250  1.0016  2.0313  3.9967
  621MOL0     H83785   4.036   5.555   3.096  0.0088 -1.7092  0.3363
  621MOL0     H83786   3.813   5.737   3.314  1.3667  0.5177  1.3282
  621MOL0     H83787   3.756   6.050   3.366  0.3015 -0.8304  0.0060
  621MOL0     H83788   3.758   6.113   3.203  2.8764 -0.8982 -0.0901
  621MOL0     H83789   3.603   5.873   3.329 -0.0287 -0.4421  0.1557
  621MOL0     H83790   3.616   5.893   3.156  0.5506 -0.7848  1.5356
  621MOL0     H83791   3.541   6.120   3.148 -0.7734  0.5044  1.7278
  621MOL0     H83792   3.516   6.118   3.324  1.0659  1.9446 -0.6384
  621MOL0     H83793   3.388   5.920   3.123  0.1317  0.0202  0.0723
  621MOL0     H83794   3.310   6.070   3.165 -2.2340  0.1327  3.3430
  621MOL0     H83795   3.113   5.893   3.137  0.0850 -0.7554  0.6540
  621MOL0     H83796   2.957   5.784   3.046 -3.4168 -2.3499 -2.9078
  621MOL0     H83797   2.884   5.647   3.117 -0.0248  0.2889  2.5878
  621MOL0     H83798   2.821   5.814   3.153 -0.2812  0.6723 -3.2225
  621MOL0     H83799   2.810   5.385   3.715  0.6765  1.7305 -0.6322
  621MOL0     H83800   2.574   5.322   3.792 -1.6913  0.6418  0.0962
  621MOL0     H83801   2.387   5.488   3.897  0.0743 -0.1320  0.5376
  621MOL0     H83802   2.274   5.565   3.781 -1.5356 -0.6412 -0.6941
  621MOL0     H83803   2.191   5.302   3.838  1.4860 -0.8013 -1.3760
  621MOL0     H83804   2.198   5.385   3.990 -0.4638 -4.6736 -0.7944
  621MOL0     H83805   2.037   5.479   3.752  1.5371 -3.3575  0.1416
  621MOL0     H83806   2.082   5.579   3.900 -0.4758  1.4717 -1.1152
  621MOL0     H83807   1.897   5.339   3.907 -1.8439  0.6452  0.4406
  621MOL0     H83808   1.958   5.441   4.036 -1.0404  0.5576 -0.2946
  621MOL0     H83809   1.806   5.552   3.783 -0.7488  0.0862 -0.0610
  621MOL0     H83810   1.870   5.648   3.894 -1.5060  0.8366 -0.2505
  621MOL0     H83811   1.646   5.460   3.910  0.1148  0.6638 -1.4448
  621MOL0     H83812   1.719   5.518   4.068  0.2243 -0.5396 -0.3613
  621MOL0     H83813   1.613   5.691   3.848  1.3146 -2.5637 -0.1057
  621MOL0     H83814   1.673   5.765   3.994  0.0228  0.1446  0.5813
  621MOL0     H83815   1.484   5.668   4.129 -2.9576  0.6255 -0.4040
  621MOL0     H83816   1.430   5.588   3.982  3.4993 -1.6046 -1.8552
  621MOL0     H83817   2.405   5.626   3.568 -0.7772  1.1037  2.2204
  621MOL0     H83818   2.634   5.686   3.475  0.5008 -0.2178 -0.6809
  621MOL0     H83819   3.084   5.644   3.571  2.2478 -2.6000 -1.1615
  621MOL0     H83820   3.294   5.779   3.512 -0.5178  0.8692  0.2569
  621MOL0     H83821   4.932   5.870   3.518  1.3293  1.8850 -0.7248
  621MOL0     H83822   5.126   5.772   3.611  0.9604  1.1999 -0.3205
  621MOL0     H83823   5.727   5.812   3.327  0.6591  0.5327  1.2794
  621MOL0     H83824   5.936   5.741   3.452 -0.4819  0.2737 -2.4145
  621MOL0     H83825   5.971   5.563   3.845  2.9090 -2.8201  2.3655
  621MOL0     H83826   5.926   5.424   3.746 -0.1958 -0.0792  0.6850
  621MOL0     H83827   6.189   5.558   3.741 -2.2225  2.4487  1.1255
  621MOL0     H83828   6.147   5.410   3.652 -0.8238  2.4371 -0.6181
  621MOL0     H83829   6.089   5.290   3.878  0.8771 -1.1704 -0.5912
  621MOL0     H83830   6.180   5.425   3.958  4.9742 -0.4063 -0.1831
  621MOL0     H83831   6.288   5.261   3.728 -1.3358 -0.5688  0.1524
  621MOL0     H83832   6.309   5.209   3.900 -1.6527 -0.7553  0.0483
  621MOL0     H83833   6.600   5.516   3.823 -0.9754  1.8332 -1.9005
  621MOL0     H83834   5.730   5.514   3.731 -0.9639  0.5984  0.5130
  621MOL0     H83835   5.519   5.587   3.626 -1.0343  1.4291 -2.0296
  622MOL0     O83836   5.932  10.326   2.085  0.1202 -0.1089  0.4950
  622MOL0     C83837   5.888  10.273   1.979  0.9812 -0.8599  0.1325
  622MOL0     O83838   5.786  10.186   1.972 -0.0710  0.2522  0.7828
  622MOL0     C83839   5.709  10.180   2.084 -0.0328  0.4932 -0.2385
  622MOL0     C83840   5.751  10.108   2.196 -0.7544  0.1753 -0.8817
  622MOL0     C83841   5.665  10.071   2.300 -0.1605  0.0897  0.2578
  622MOL0     C83842   5.537  10.131   2.320 -0.8669  0.4431  0.7320
  622MOL0     O83843   5.459  10.081   2.421  0.0102  0.4743 -0.1121
  622MOL0     C83844   5.391  10.185   2.486 -0.7217 -0.5048  0.8549
  622MOL0     C83845   5.331  10.133   2.620 -0.2975 -0.3445  0.7822
  622MOL0     C83846   5.433  10.058   2.711  0.7792  0.2285  0.5080
  622MOL0     C83847   5.541  10.145   2.760  0.1590 -0.5448 -1.2457
  622MOL0     C83848   5.646  10.053   2.834 -0.8251  0.0146  0.0616
  622MOL0     C83849   5.785  10.117   2.873  0.8778 -0.3454 -1.3657
  622MOL0     C83850   5.873  10.004   2.923 -0.1349  0.4205 -0.2930
  622MOL0     C83851   5.920   9.918   2.811 -0.0856 -0.4464  0.6074
  622MOL0     N83852   6.028   9.839   2.855 -0.2331  0.2347 -0.6751
  622MOL0     C83853   6.147   9.878   2.908  0.0209 -1.0804  0.4439
  622MOL0     C83854   6.210   9.767   2.934 -0.4566 -0.5004  0.0492
  622MOL0     C83855   6.349   9.768   2.973  0.4498  0.3998 -0.2590
  622MOL0     C83856   6.405   9.629   3.015  0.3831 -0.6071 -0.1226
  622MOL0     C83857   6.559   9.643   3.036 -0.3454 -0.2878  0.3195
  622MOL0     C83858   6.628   9.512   3.077  0.7248 -0.0254 -0.5523
  622MOL0     O83859   6.770   9.540   3.098  0.1091 -0.1869 -0.1137
  622MOL0     C83860   6.835   9.440   3.175  0.2738 -0.6686  0.1860
  622MOL0     C83861   6.783   9.317   3.205  0.2290 -0.1072  0.0997
  622MOL0     C83862   6.841   9.237   3.310  0.4704  0.6577 -0.1267
  622MOL0     C83863   6.773   9.103   3.341  0.5163 -0.0035  0.0151
  622MOL0     C83864   6.967   9.279   3.364 -0.0842  0.2306  0.1781
  622MOL0     C83865   7.035   9.190   3.471 -0.5950  0.0188 -0.3517
  622MOL0     O83866   7.097   9.250   3.584  0.3109  0.7600  0.1093
  622MOL0     C83867   7.191   9.163   3.644  0.7174 -0.7798  0.7497
  622MOL0     C83868   7.299   9.107   3.584 -0.5982 -0.0518 -0.7113
  622MOL0     C83869   7.390   9.038   3.661 -0.6767 -0.7463 -0.7568
  622MOL0     C83870   7.377   9.030   3.803  0.4435  0.5616  0.0999
  622MOL0     O83871   7.469   8.954   3.875  0.0922 -0.2616  0.4098
  622MOL0     C83872   7.469   8.967   4.017  0.5454  0.0730 -0.1069
  622MOL0     C83873   7.592   8.900   4.077 -0.0985  0.1844 -0.1581
  622MOL0     C83874   7.612   8.748   4.056 -0.1358  0.0859 -0.0014
  622MOL0     C83875   7.738   8.690   4.114 -0.6469  0.3744  0.2462
  622MOL0     C83876   7.719   8.626   4.266 -0.9213 -0.4581  0.4390
  622MOL0     C83877   7.685   8.736   4.372  0.6688  0.2259  0.0992
  622MOL0     C83878   7.769   8.862   4.386  0.1955 -0.9515  0.0363
  622MOL0     C83879   7.742   8.928   4.521 -0.6286 -0.0589 -0.2709
  622MOL0    Cl83880   7.571   8.998   4.547  0.3975 -0.3474  0.1567
  622MOL0     C83881   7.275   9.108   3.867 -0.0950 -0.0172  0.4181
  622MOL0     C83882   7.173   9.166   3.781  0.4937  0.2592 -0.6359
  622MOL0     O83883   7.040   9.069   3.436 -0.3393 -0.1163 -0.7105
  622MOL0     C83884   7.027   9.401   3.323  0.5249  0.1121  0.1637
  622MOL0     C83885   6.949   9.480   3.228 -0.4427  0.7625  0.4732
  622MOL0     N83886   6.127   9.661   2.910 -0.1630  0.1032 -0.7218
  622MOL0     N83887   6.014   9.705   2.861 -0.3266  0.2085  0.3019
  622MOL0     C83888   5.500  10.224   2.218  0.0758 -0.3467 -0.3763
  622MOL0     C83889   5.589  10.241   2.103  0.2673 -1.1979 -0.8126
  622MOL0     C83890   5.964  10.302   1.855 -0.3735  0.6220  0.3481
  622MOL0     C83891   5.948  10.223   1.745  0.0495 -0.1030  0.4033
  622MOL0     C83892   6.010  10.258   1.622 -0.0433 -0.1155  0.5864
  622MOL0     C83893   6.093  10.368   1.613  1.5878  0.1694 -0.3112
  622MOL0     O83894   6.132  10.401   1.487  0.1733  0.6731 -0.8205
  622MOL0     C83895   6.226  10.507   1.475  0.7831 -0.8014  0.9248
  622MOL0     C83896   6.306  10.511   1.337  0.3518  0.2604  0.5344
  622MOL0     C83897   6.416  10.621   1.342 -0.3928  0.3132  0.0762
  622MOL0     C83898   6.548  10.574   1.396  0.4690 -0.3019 -0.3643
  622MOL0     C83899   6.639  10.685   1.393  0.2430 -0.0924  0.7214
  622MOL0     C83900   6.706  10.788   1.380  0.0415 -0.5092  0.0234
  622MOL0     C83901   6.102  10.443   1.734 -0.3587 -0.5146 -0.2315
  622MOL0     C83902   6.040  10.416   1.853  0.5246  0.2460  0.3206
  622MOL0     H83903   5.846  10.055   2.184  0.8904  1.7276  3.3079
  622MOL0     H83904   5.697   9.991   2.366 -0.3870  0.0449  0.3137
  622MOL0     H83905   5.463  10.267   2.498  1.8571 -2.2134 -1.5511
  622MOL0     H83906   5.313  10.227   2.422 -0.0931 -1.6623 -0.7270
  622MOL0     H83907   5.280  10.216   2.671 -1.1292  0.9043 -1.8580
  622MOL0     H83908   5.248  10.069   2.586 -0.4642  0.2135  0.0897
  622MOL0     H83909   5.378  10.017   2.797  1.2765 -0.2001  0.6253
  622MOL0     H83910   5.481   9.977   2.656 -2.1654 -0.8886 -0.6281
  622MOL0     H83911   5.602  10.191   2.682  0.2856  0.6298 -0.4831
  622MOL0     H83912   5.496  10.208   2.837  1.2152 -2.0853  0.7358
  622MOL0     H83913   5.590  10.013   2.919  0.7616 -2.7140 -0.0646
  622MOL0     H83914   5.663   9.969   2.767  1.3774 -0.0514  0.6162
  622MOL0     H83915   5.831  10.171   2.790 -0.4465  3.0044 -0.1282
  622MOL0     H83916   5.764  10.180   2.960  0.0921 -1.9179 -0.3616
  622MOL0     H83917   5.964  10.049   2.964 -0.0455  0.7909 -0.8773
  622MOL0     H83918   5.827   9.938   2.997 -0.1304 -0.1330 -0.7707
  622MOL0     H83919   5.946   9.976   2.723  0.0881 -1.9226 -0.3626
  622MOL0     H83920   5.836   9.852   2.784  1.4852 -2.6149  0.7122
  622MOL0     H83921   6.177   9.980   2.925  0.1538 -0.0857 -4.2700
  622MOL0     H83922   6.401   9.806   2.884 -0.7160  0.7060 -0.8186
  622MOL0     H83923   6.367   9.846   3.048  0.6946  1.6194 -1.5514
  622MOL0     H83924   6.390   9.554   2.937 -2.0480  1.0691 -1.3710
  622MOL0     H83925   6.359   9.590   3.106 -2.6951  1.3564 -0.7057
  622MOL0     H83926   6.569   9.715   3.117 -2.2169 -1.0984  1.3335
  622MOL0     H83927   6.613   9.672   2.945 -1.2151  0.2662 -0.0292
  622MOL0     H83928   6.614   9.439   2.996  0.7231 -2.4260  1.5044
  622MOL0     H83929   6.574   9.477   3.165  2.1037 -0.7743  0.0129
  622MOL0     H83930   6.691   9.281   3.160 -0.4567 -2.8552  3.3637
  622MOL0     H83931   6.804   9.030   3.266 -0.8849  2.2943 -3.0107
  622MOL0     H83932   6.798   9.070   3.442  1.0704  1.2735  0.3177
  622MOL0     H83933   6.664   9.110   3.329  0.6684  0.7756 -1.0238
  622MOL0     H83934   7.314   9.114   3.477  1.3047 -0.1941 -0.4814
  622MOL0     H83935   7.478   8.990   3.618  0.7680  0.9227  0.2211
  622MOL0     H83936   7.455   9.072   4.043 -0.0251  0.4057 -1.6355
  622MOL0     H83937   7.373   8.922   4.042  0.0371  0.8734 -0.5848
  622MOL0     H83938   7.682   8.961   4.066  0.5765 -0.6836  0.3275
  622MOL0     H83939   7.567   8.899   4.184 -0.0342 -0.7273 -0.1396
  622MOL0     H83940   7.624   8.730   3.949  0.5261 -0.7312  0.1959
  622MOL0     H83941   7.527   8.684   4.083 -0.1363  0.6892  1.4946
  622MOL0     H83942   7.762   8.611   4.042  0.6570 -1.1639  2.2923
  622MOL0     H83943   7.818   8.765   4.110  1.3250 -1.6000 -3.2347
  622MOL0     H83944   7.807   8.566   4.292 -1.2020 -2.0369 -1.9194
  622MOL0     H83945   7.635   8.557   4.273  1.3313 -3.2631  2.9313
  622MOL0     H83946   7.579   8.760   4.364  1.2409  3.3594  0.5985
  622MOL0     H83947   7.699   8.679   4.465  2.8281 -0.9088 -0.8431
  622MOL0     H83948   7.750   8.934   4.305  0.5623 -0.8709  0.0231
  622MOL0     H83949   7.876   8.841   4.378  0.7318  1.4801 -0.1000
  622MOL0     H83950   7.816   9.006   4.536  0.0018 -0.9487  1.5945
  622MOL0     H83951   7.761   8.845   4.591  0.0668  0.5358  0.2551
  622MOL0     H83952   7.275   9.124   3.975  1.4794  2.7803  0.1060
  622MOL0     H83953   7.088   9.211   3.831 -0.1060 -0.1709 -1.2593
  622MOL0     H83954   7.125   9.429   3.361  2.0179 -0.1252 -3.1922
  622MOL0     H83955   6.981   9.580   3.198 -2.2296  1.4597  0.7115
  622MOL0     H83956   5.401  10.270   2.219  0.7515  1.6351 -4.6159
  622MOL0     H83957   5.553  10.312   2.030  2.8323 -0.3732 -1.3804
  622MOL0     H83958   5.875  10.143   1.741 -0.7558  0.6524 -3.4044
  622MOL0     H83959   5.993  10.201   1.531 -1.6678 -0.8564  1.3085
  622MOL0     H83960   6.173  10.601   1.495 -0.5930 -1.3675  0.0776
  622MOL0     H83961   6.305  10.495   1.550  0.1998 -1.4585  1.4507
  622MOL0     H83962   6.238  10.537   1.256  2.8313 -0.7303 -2.0219
  622MOL0     H83963   6.352  10.417   1.306  0.9029  0.0009  2.0712
  622MOL0     H83964   6.377  10.701   1.406 -0.4238 -0.5832  1.2297
  622MOL0     H83965   6.443  10.665   1.246  2.0345  0.9838  1.0001
  622MOL0     H83966   6.589  10.494   1.333 -0.7806 -1.3581  0.1269
  622MOL0     H83967   6.533  10.536   1.497 -2.7501  1.3460 -0.1111
  622MOL0     H83968   6.757  10.882   1.368 -0.9171  0.2876  1.7601
  622MOL0     H83969   6.158  10.536   1.741  0.0536 -0.8074  0.4407
  622MOL0     H83970   6.057  10.476   1.942  3.3067 -1.2528  0.9164
  623MOL0     O83971   6.554   3.299   0.813 -0.7662  0.4440  0.4032
  623MOL0     C83972   6.457   3.305   0.735 -0.1431 -0.6727 -0.1695
  623MOL0     O83973   6.449   3.238   0.619  0.2339 -0.5757 -0.1800
  623MOL0     C83974   6.558   3.160   0.586  0.4070  0.1953  0.7437
  623MOL0     C83975   6.677   3.203   0.533  0.0099 -1.1666 -0.1494
  623MOL0     C83976   6.783   3.123   0.486 -0.1436 -0.4277  0.7590
  623MOL0     C83977   6.761   2.978   0.491  0.0917  0.6947  0.7397
  623MOL0     O83978   6.839   2.870   0.452 -0.6070 -0.3791 -0.2365
  623MOL0     C83979   6.933   2.899   0.339 -0.1688  0.7126 -0.0028
  623MOL0     C83980   6.869   2.824   0.220 -0.4037 -0.4377  0.1673
  623MOL0     C83981   6.924   2.840   0.079  0.0545  0.1103  0.6602
  623MOL0     C83982   7.033   2.940   0.054  0.1072 -0.3868  0.2935
  623MOL0     C83983   7.083   2.944  -0.092 -0.1738 -0.3275  0.2845
  623MOL0     C83984   7.125   2.816  -0.164 -0.5532  0.9806  0.0053
  623MOL0     C83985   7.254   2.753  -0.111  0.2952  0.1829  0.5454
  623MOL0     C83986   7.259   2.595  -0.125  0.0411 -1.1378 -0.7574
  623MOL0     N83987   7.317   2.551  -0.256  0.3098  0.4687  0.0238
  623MOL0     C83988   7.254   2.582  -0.380 -0.1453 -0.6487 -0.0600
  623MOL0     C83989   7.347   2.551  -0.473  0.2102 -0.5724 -0.3123
  623MOL0     C83990   7.333   2.573  -0.621 -0.3487  0.4991  0.4752
  623MOL0     C83991   7.375   2.708  -0.675  0.0951 -0.0957 -0.4966
  623MOL0     C83992   7.385   2.720  -0.823 -0.0471 -0.2276  0.9063
  623MOL0     C83993   7.442   2.859  -0.868 -0.1304 -0.5034 -0.3296
  623MOL0     O83994   7.344   2.959  -0.844 -0.6688  0.7866  0.1636
  623MOL0     C83995   7.391   3.085  -0.861  0.5609 -0.7289 -0.8200
  623MOL0     C83996   7.340   3.165  -0.959  0.3433  0.8497  0.5512
  623MOL0     C83997   7.391   3.297  -0.986 -0.6929  1.2649  0.5822
  623MOL0     C83998   7.325   3.370  -1.101  0.3195 -0.5755  0.0123
  623MOL0     C83999   7.484   3.355  -0.896  0.2612 -0.3947  0.3144
  623MOL0     C84000   7.525   3.494  -0.908  0.1486  0.0571 -0.0264
  623MOL0     O84001   7.547   3.555  -0.788 -0.4975 -0.3487 -0.2074
  623MOL0     C84002   7.610   3.671  -0.771  0.8036  0.2742 -0.1394
  623MOL0     C84003   7.570   3.742  -0.659 -0.6023 -0.4701  0.1255
  623MOL0     C84004   7.634   3.855  -0.619  0.2147  0.2842 -0.4098
  623MOL0     C84005   7.747   3.891  -0.690 -0.3296 -0.2628  0.6250
  623MOL0     O84006   7.813   4.010  -0.661 -0.9263  0.0071 -0.2262
  623MOL0     C84007   7.852   4.032  -0.524  0.0207  0.2552  0.4543
  623MOL0     C84008   7.994   3.978  -0.501 -0.8521  0.3343  0.8197
  623MOL0     C84009   8.105   4.022  -0.606  0.0238 -0.4321  0.7714
  623MOL0     C84010   8.224   3.934  -0.606  0.5781  0.1455 -0.2334
  623MOL0     C84011   8.327   3.973  -0.714  0.1304  0.0034 -0.5337
  623MOL0     C84012   8.448   3.884  -0.708  0.6034  0.3960  0.3699
  623MOL0     C84013   8.557   3.924  -0.597  0.0549 -0.3691 -0.1563
  623MOL0     C84014   8.634   4.049  -0.644  1.5414 -0.8205 -0.0226
  623MOL0    Cl84015   8.744   4.103  -0.514 -0.4209 -0.2272  0.4474
  623MOL0     C84016   7.803   3.810  -0.801  0.5602 -0.3999 -0.5120
  623MOL0     C84017   7.725   3.703  -0.839  0.2689  0.3044 -0.2479
  623MOL0     O84018   7.556   3.547  -1.020 -0.2834 -0.0270  1.0235
  623MOL0     C84019   7.532   3.282  -0.791 -0.3990 -0.3398 -0.6248
  623MOL0     C84020   7.490   3.154  -0.780  0.5155  0.7302  0.0994
  623MOL0     N84021   7.461   2.504  -0.412  0.8803  0.8307 -0.8320
  623MOL0     N84022   7.437   2.501  -0.289  0.1887  1.2919 -0.6168
  623MOL0     C84023   6.644   2.937   0.547  1.2423 -0.6493  0.0280
  623MOL0     C84024   6.545   3.024   0.601 -0.1672  0.8734 -0.7709
  623MOL0     C84025   6.346   3.388   0.789 -1.1210  0.2757  0.4756
  623MOL0     C84026   6.225   3.386   0.722  0.0262 -0.7656 -0.0613
  623MOL0     C84027   6.119   3.474   0.762 -0.4809  0.7701  0.7958
  623MOL0     C84028   6.133   3.565   0.869 -0.2939 -0.5565 -0.8130
  623MOL0     O84029   6.034   3.655   0.891 -0.1506  0.3226  0.6287
  623MOL0     C84030   6.038   3.724   1.017 -0.6548  0.6602  0.3891
  623MOL0     C84031   5.891   3.762   1.029  0.2170 -1.0635  0.0452
  623MOL0     C84032   5.785   3.653   1.053  0.7457  0.2261 -0.4459
  623MOL0     C84033   5.806   3.563   1.169 -0.4480 -0.2015 -0.6171
  623MOL0     C84034   5.702   3.455   1.174  0.2143 -0.3513 -0.3100
  623MOL0     C84035   5.620   3.377   1.173 -0.6393  1.0669  0.0447
  623MOL0     C84036   6.256   3.557   0.947 -0.1015  0.2207 -0.2888
  623MOL0     C84037   6.355   3.473   0.900  0.1413  0.1908  0.4089
  623MOL0     H84038   6.683   3.311   0.524 -1.2860 -0.8407  2.2050
  623MOL0     H84039   6.866   3.171   0.435  0.1569 -0.2761  1.3793
  623MOL0     H84040   6.947   3.003   0.309 -0.6717 -0.0380 -3.2208
  623MOL0     H84041   7.029   2.854   0.366 -1.3697 -1.5592  0.7234
  623MOL0     H84042   6.855   2.717   0.240 -1.8236 -0.3922 -0.4081
  623MOL0     H84043   6.764   2.854   0.219 -0.8096 -1.7274  0.9290
  623MOL0     H84044   6.953   2.741   0.042  1.2575 -0.4253  2.8063
  623MOL0     H84045   6.838   2.861   0.015 -0.0570 -3.3989 -0.5615
  623MOL0     H84046   6.988   3.034   0.087  0.3337 -0.5633  1.1207
  623MOL0     H84047   7.119   2.920   0.118  0.8505  0.6007 -0.3704
  623MOL0     H84048   7.014   3.004  -0.151  2.7918  3.4464  0.2537
  623MOL0     H84049   7.163   3.019  -0.087  2.2362 -2.7927  1.4913
  623MOL0     H84050   7.040   2.748  -0.163  0.5646 -0.7166 -3.5516
  623MOL0     H84051   7.137   2.842  -0.270 -4.1164  0.2968 -0.6711
  623MOL0     H84052   7.336   2.792  -0.172  1.7357 -2.7643  0.3814
  623MOL0     H84053   7.278   2.778  -0.007  0.9136  2.1291 -0.0242
  623MOL0     H84054   7.158   2.554  -0.123  0.1882 -1.5940 -2.0650
  623MOL0     H84055   7.316   2.559  -0.038 -1.2881 -3.1571 -0.6695
  623MOL0     H84056   7.157   2.627  -0.398  0.8987  0.9764 -2.0135
  623MOL0     H84057   7.407   2.514  -0.676 -1.4240  0.5672 -1.1124
  623MOL0     H84058   7.235   2.542  -0.657 -1.0505  2.4342  0.5845
  623MOL0     H84059   7.470   2.739  -0.630 -0.7654  0.5658  0.9304
  623MOL0     H84060   7.306   2.788  -0.647  1.9202  2.3000 -2.2708
  623MOL0     H84061   7.290   2.704  -0.875  0.3147 -1.0453  0.4813
  623MOL0     H84062   7.457   2.646  -0.859 -1.1059 -1.2027  0.7684
  623MOL0     H84063   7.464   2.849  -0.975  0.1586  2.5664 -0.6426
  623MOL0     H84064   7.534   2.871  -0.810 -0.7877  2.2555  0.2455
  623MOL0     H84065   7.262   3.119  -1.018  0.1012  1.7499  0.1511
  623MOL0     H84066   7.396   3.359  -1.183  2.0311  0.6323  1.2534
  623MOL0     H84067   7.226   3.329  -1.126  1.0777 -3.1183  0.8125
  623MOL0     H84068   7.306   3.476  -1.080  0.2892 -0.3076 -1.3198
  623MOL0     H84069   7.488   3.698  -0.604 -1.0730  0.7882  0.4592
  623MOL0     H84070   7.598   3.905  -0.530 -0.4447  0.4319 -0.7541
  623MOL0     H84071   7.851   4.140  -0.508 -1.4757  0.1602  1.1009
  623MOL0     H84072   7.787   3.975  -0.457 -1.5247  0.3447 -0.8904
  623MOL0     H84073   8.039   3.999  -0.403  0.4019 -0.4005  0.4235
  623MOL0     H84074   7.984   3.870  -0.515 -2.5974  0.2279  2.3958
  623MOL0     H84075   8.134   4.124  -0.579  0.2257  0.1714 -1.5111
  623MOL0     H84076   8.069   4.018  -0.710 -2.1204 -1.8795  1.4969
  623MOL0     H84077   8.274   3.933  -0.509  1.7380 -2.6744 -0.7600
  623MOL0     H84078   8.181   3.835  -0.622 -0.3456 -0.1406  3.2267
  623MOL0     H84079   8.352   4.077  -0.691  2.1619 -0.2930 -1.2458
  623MOL0     H84080   8.278   3.970  -0.811  0.7988 -0.7343 -0.8599
  623MOL0     H84081   8.426   3.778  -0.697 -2.8658  0.5232 -3.1299
  623MOL0     H84082   8.496   3.879  -0.806  0.5941 -3.0757  0.4507
  623MOL0     H84083   8.621   3.835  -0.591 -0.2248 -0.5334  0.4161
  623MOL0     H84084   8.504   3.948  -0.505 -0.2073  2.5026 -0.9599
  623MOL0     H84085   8.568   4.136  -0.650  1.1921 -0.9897  1.0944
  623MOL0     H84086   8.687   4.029  -0.737  3.4050  0.9319  0.5981
  623MOL0     H84087   7.904   3.836  -0.830  2.1314 -3.8937  1.1986
  623MOL0     H84088   7.768   3.643  -0.918 -2.0350 -2.5357  0.4793
  623MOL0     H84089   7.605   3.321  -0.720 -1.8228 -1.3559  1.5316
  623MOL0     H84090   7.545   3.093  -0.709 -1.1481 -0.3360  0.5377
  623MOL0     H84091   6.623   2.831   0.544 -1.0038 -0.2848  1.0877
  623MOL0     H84092   6.452   2.989   0.645  0.4415 -0.6662 -0.6539
  623MOL0     H84093   6.203   3.331   0.631 -3.0331 -0.5005  0.4161
  623MOL0     H84094   6.040   3.473   0.687  1.6049  0.3249 -1.5382
  623MOL0     H84095   6.067   3.660   1.101 -1.4099 -0.8897 -0.4881
  623MOL0     H84096   6.107   3.809   1.015  0.2127 -0.0287  0.3991
  623MOL0     H84097   5.879   3.823   0.939  1.1076 -2.4390 -1.0364
  623MOL0     H84098   5.879   3.833   1.112  0.0486 -0.4602 -0.4904
  623MOL0     H84099   5.777   3.584   0.969  1.8858 -0.8716  0.3169
  623MOL0     H84100   5.688   3.699   1.073  1.5655  1.6947  0.3221
  623MOL0     H84101   5.812   3.608   1.268  0.3152  0.5383 -0.9824
  623MOL0     H84102   5.904   3.516   1.157 -1.1787 -1.5642 -1.6572
  623MOL0     H84103   5.554   3.294   1.160  0.3889  0.3342 -0.7039
  623MOL0     H84104   6.267   3.619   1.035 -1.7127  1.1831 -0.7117
  623MOL0     H84105   6.456   3.467   0.939 -0.0941 -1.9409  0.8206
  624MOL0     O84106   6.275   6.313  10.826 -0.4501 -0.3238  0.4442
  624MOL0     C84107   6.291   6.433  10.849  0.4784 -0.0663 -0.0718
  624MOL0     O84108   6.197   6.520  10.906 -0.6029 -1.0066  0.0017
  624MOL0     C84109   6.072   6.467  10.920 -0.4137  0.5249 -0.1487
  624MOL0     C84110   5.952   6.507  10.857  0.0403  0.2388 -0.5132
  624MOL0     C84111   5.824   6.459  10.896  0.0814  0.6192  0.5157
  624MOL0     C84112   5.807   6.367  11.002 -0.0875  0.5076 -0.4865
  624MOL0     O84113   5.684   6.323  11.055  0.1361  0.6058  0.1006
  624MOL0     C84114   5.682   6.187  11.110 -0.6002 -0.0125 -0.6035
  624MOL0     C84115   5.546   6.124  11.120  0.1339  0.3122  0.0787
  624MOL0     C84116   5.446   6.215  11.193 -0.6965  0.3950  0.2341
  624MOL0     C84117   5.304   6.188  11.151 -0.5773 -0.0110 -0.7760
  624MOL0     C84118   5.188   6.235  11.228  0.5308  0.4117  0.7836
  624MOL0     C84119   5.202   6.386  11.240  0.0593  0.1052 -0.6132
  624MOL0     C84120   5.077   6.467  11.271  0.1920 -0.1197 -0.5695
  624MOL0     C84121   4.977   6.486  11.158  0.0420  0.8599  0.0016
  624MOL0     N84122   4.850   6.536  11.204  0.3420 -0.0895 -0.0619
  624MOL0     C84123   4.811   6.653  11.273 -0.4259  0.3958  0.2225
  624MOL0     C84124   4.687   6.630  11.317 -0.4210  1.0287  1.1088
  624MOL0     C84125   4.605   6.735  11.389 -0.1953 -0.6233 -0.1836
  624MOL0     C84126   4.520   6.811  11.296 -0.3943 -1.2476  0.1543
  624MOL0     C84127   4.422   6.904  11.380 -0.6155  0.2759 -0.1897
  624MOL0     C84128   4.339   7.004  11.293 -0.2233  0.2980 -0.3173
  624MOL0     O84129   4.415   7.092  11.216 -0.2871 -0.2949 -0.0754
  624MOL0     C84130   4.360   7.185  11.136  0.1636 -0.7934 -0.1262
  624MOL0     C84131   4.450   7.268  11.075  0.0036 -0.7283  0.7185
  624MOL0     C84132   4.412   7.381  10.989  0.3671  0.1789 -0.0412
  624MOL0     C84133   4.523   7.449  10.907  0.3825  0.8800 -0.4202
  624MOL0     C84134   4.275   7.413  10.988  0.4900 -0.2663 -0.0522
  624MOL0     C84135   4.226   7.511  10.893  0.0154 -0.0835 -0.4980
  624MOL0     O84136   4.267   7.637  10.903 -1.4529 -0.3887 -0.5642
  624MOL0     C84137   4.214   7.735  10.826 -0.5166  0.3926  0.4408
  624MOL0     C84138   4.107   7.813  10.869 -0.3062  0.5534 -0.5214
  624MOL0     C84139   4.055   7.903  10.787 -0.3895 -0.3881  0.0694
  624MOL0     C84140   4.109   7.922  10.650  0.1596 -0.5134 -0.7121
  624MOL0     O84141   4.050   8.008  10.551 -0.6545  1.3292 -0.8464
  624MOL0     C84142   3.907   8.049  10.561 -1.0702  0.3231 -1.3856
  624MOL0     C84143   3.905   8.184  10.641 -0.3819  0.3110 -0.2161
  624MOL0     C84144   3.868   8.307  10.550 -0.1857  0.4245  0.4367
  624MOL0     C84145   3.920   8.430  10.620  0.3523  0.4068  0.7901
  624MOL0     C84146   3.874   8.577  10.583 -0.3983  0.3870  0.5400
  624MOL0     C84147   3.947   8.692  10.655  0.2482  0.9715  0.3623
  624MOL0     C84148   3.931   8.822  10.582 -0.2036 -0.3300 -0.1916
  624MOL0     C84149   3.795   8.880  10.600  0.1117  0.2603  0.1313
  624MOL0    Cl84150   3.789   8.942  10.771 -0.1532  0.1861  0.1996
  624MOL0     C84151   4.227   7.852  10.613 -0.1875  0.1786  0.1015
  624MOL0     C84152   4.282   7.751  10.700  0.5309 -0.9076 -0.1813
  624MOL0     O84153   4.129   7.476  10.831 -0.1949 -0.1166  0.9910
  624MOL0     C84154   4.186   7.319  11.051 -0.5495  0.4769 -0.5555
  624MOL0     C84155   4.228   7.208  11.125  0.4703 -0.2581 -0.0461
  624MOL0     N84156   4.653   6.490  11.298  0.4727  0.5862  0.1836
  624MOL0     N84157   4.740   6.447  11.213 -0.0729 -0.8370  0.5743
  624MOL0     C84158   5.922   6.342  11.073 -0.7278  1.2410  0.7443
  624MOL0     C84159   6.053   6.383  11.033 -0.2066 -0.4364 -0.3895
  624MOL0     C84160   6.414   6.498  10.809  0.2960 -0.4959 -0.5298
  624MOL0     C84161   6.437   6.638  10.835 -1.1821 -0.2516 -0.5021
  624MOL0     C84162   6.554   6.700  10.800  0.1056 -0.6730 -0.2946
  624MOL0     C84163   6.654   6.628  10.736  0.2778  0.0588 -0.1271
  624MOL0     O84164   6.782   6.666  10.695  0.3354  0.1686 -0.6964
  624MOL0     C84165   6.846   6.735  10.809  0.2626 -0.1195 -0.0206
  624MOL0     C84166   6.909   6.869  10.776  0.7351  0.8313  0.4881
  624MOL0     C84167   7.015   6.853  10.668 -0.3002 -0.0098  0.2866
  624MOL0     C84168   7.075   6.988  10.648  0.7243 -1.0300  0.0042
  624MOL0     C84169   7.177   6.990  10.546 -0.5259  0.4832  0.0397
  624MOL0     C84170   7.275   6.964  10.470  0.6871  0.6537 -0.2464
  624MOL0     C84171   6.626   6.493  10.709 -0.3988 -0.2783  0.0918
  624MOL0     C84172   6.518   6.425  10.751  0.0022 -0.9098  0.7614
  624MOL0     H84173   5.963   6.567  10.768 -0.9545  0.4628 -0.4999
  624MOL0     H84174   5.734   6.491  10.843 -1.4353  0.6910  2.9658
  624MOL0     H84175   5.762   6.132  11.058  2.3113  1.7329  1.6711
  624MOL0     H84176   5.715   6.199  11.214  1.5119 -0.3091 -1.1862
  624MOL0     H84177   5.501   6.100  11.024  0.7838  0.3269 -0.2361
  624MOL0     H84178   5.550   6.038  11.188  0.3426 -0.7092 -1.1798
  624MOL0     H84179   5.465   6.214  11.301 -0.9005  2.9106  0.3484
  624MOL0     H84180   5.471   6.317  11.162  1.6649 -0.2755 -0.2993
  624MOL0     H84181   5.292   6.226  11.049 -0.3669  2.8461  0.1477
  624MOL0     H84182   5.303   6.079  11.145  0.6852 -0.0087 -1.1669
  624MOL0     H84183   5.092   6.225  11.176  1.6349  1.2631 -1.5305
  624MOL0     H84184   5.182   6.192  11.329  0.0711 -2.4667 -0.3798
  624MOL0     H84185   5.274   6.405  11.320 -1.2368  1.2796  0.3019
  624MOL0     H84186   5.249   6.438  11.156  3.1922 -0.1807  0.8195
  624MOL0     H84187   5.029   6.425  11.360  0.6833 -0.0588 -0.2699
  624MOL0     H84188   5.125   6.562  11.295  2.1742 -0.5652 -2.4848
  624MOL0     H84189   4.957   6.386  11.117  2.6642 -1.0452  2.9078
  624MOL0     H84190   5.026   6.553  11.087 -0.4922  3.7375  2.1813
  624MOL0     H84191   4.864   6.748  11.282  1.7153 -0.3338 -2.9258
  624MOL0     H84192   4.538   6.695  11.466  0.4073  0.3128  0.8672
  624MOL0     H84193   4.675   6.806  11.434  0.5371 -2.5432  1.8952
  624MOL0     H84194   4.467   6.741  11.232 -0.1725 -0.0995 -1.3430
  624MOL0     H84195   4.585   6.873  11.233 -0.8601 -1.9714 -1.0685
  624MOL0     H84196   4.485   6.963  11.448  1.2594 -2.7813  0.9642
  624MOL0     H84197   4.354   6.835  11.430  1.5500 -1.9360 -0.0878
  624MOL0     H84198   4.266   7.065  11.346  0.7924 -0.3166  1.9190
  624MOL0     H84199   4.290   6.941  11.218  1.0733 -0.0620 -0.8974
  624MOL0     H84200   4.555   7.253  11.098  0.9205  2.1423 -1.0348
  624MOL0     H84201   4.514   7.443  10.798 -0.7829 -0.8538 -0.2596
  624MOL0     H84202   4.543   7.552  10.937 -2.2003  0.4883  3.2868
  624MOL0     H84203   4.615   7.392  10.916 -0.6577 -1.1726 -2.0369
  624MOL0     H84204   4.060   7.804  10.966  0.5849  0.1046 -0.1319
  624MOL0     H84205   3.970   7.963  10.817 -0.4999 -0.1843 -0.6174
  624MOL0     H84206   3.870   8.066  10.459  0.6029 -0.6902 -2.2202
  624MOL0     H84207   3.850   7.969  10.610 -2.0097  2.6479  1.5880
  624MOL0     H84208   3.825   8.173  10.715 -0.7596  0.1348 -0.6488
  624MOL0     H84209   4.001   8.195  10.692 -0.4684  1.0918 -0.2146
  624MOL0     H84210   3.761   8.325  10.531 -0.2632  0.3193  0.7653
  624MOL0     H84211   3.922   8.295  10.456 -1.7037 -2.2112 -0.2168
  624MOL0     H84212   3.874   8.417  10.719 -0.5294  0.6925  0.4309
  624MOL0     H84213   4.029   8.425  10.626  0.3583 -3.0084 -0.3547
  624MOL0     H84214   3.766   8.586  10.597 -0.3485  1.9794  0.1775
  624MOL0     H84215   3.897   8.575  10.476 -1.7210 -0.1240  0.2568
  624MOL0     H84216   3.909   8.699  10.757 -2.0346  2.2975 -0.5237
  624MOL0     H84217   4.053   8.662  10.655 -0.7212 -3.0979  0.6374
  624MOL0     H84218   3.954   8.797  10.478 -0.1852 -0.8352 -0.0706
  624MOL0     H84219   4.001   8.894  10.624  0.8989 -2.2186  1.4126
  624MOL0     H84220   3.719   8.809  10.565 -0.6360  1.3377 -0.4593
  624MOL0     H84221   3.769   8.965  10.537  1.6526  0.4063 -0.3509
  624MOL0     H84222   4.277   7.847  10.517 -0.9998 -1.6615 -0.2721
  624MOL0     H84223   4.377   7.706  10.671  0.9704 -0.5068  0.6150
  624MOL0     H84224   4.081   7.337  11.033 -0.5655 -0.8816 -2.0479
  624MOL0     H84225   4.157   7.138  11.167  0.6439 -0.6583 -0.4078
  624MOL0     H84226   5.910   6.290  11.168  3.8765  0.8928  1.3501
  624MOL0     H84227   6.140   6.360  11.094  0.3103 -1.4399 -1.4705
  624MOL0     H84228   6.360   6.698  10.883 -1.1948  0.3604 -1.2768
  624MOL0     H84229   6.557   6.807  10.818 -0.1072 -0.9029  1.2287
  624MOL0     H84230   6.775   6.760  10.887  0.5787 -3.9776  1.7167
  624MOL0     H84231   6.913   6.667  10.863 -1.7852 -1.5197  0.8598
  624MOL0     H84232   6.961   6.901  10.866  3.9734 -0.8701 -0.6076
  624MOL0     H84233   6.830   6.936  10.742  2.9168  2.7057 -1.1851
  624MOL0     H84234   6.986   6.833  10.565  1.4529 -2.0996  0.1446
  624MOL0     H84235   7.084   6.772  10.693  1.2076  1.5137  1.2723
  624MOL0     H84236   7.112   7.033  10.741  0.5103  0.7163 -0.7224
  624MOL0     H84237   7.002   7.061  10.614  2.2123  0.0120 -1.0800
  624MOL0     H84238   7.359   6.933  10.412  0.4383  0.7583 -0.6659
  624MOL0     H84239   6.700   6.441  10.649  1.1212  0.4012  1.2963
  624MOL0     H84240   6.509   6.319  10.730  0.6083 -0.8834  0.3471
  625MOL0     O84241   3.691   8.019   9.392 -0.3332 -0.3013 -0.0423
  625MOL0     C84242   3.777   7.980   9.316 -0.7910  0.2104  0.2427
  625MOL0     O84243   3.748   7.908   9.205 -0.0295 -0.5566 -0.5240
  625MOL0     C84244   3.621   7.860   9.187 -0.3945  0.3893  0.9056
  625MOL0     C84245   3.584   7.727   9.217 -0.4715 -0.0721 -0.3835
  625MOL0     C84246   3.461   7.671   9.181 -0.5837 -0.0718  0.6667
  625MOL0     C84247   3.371   7.746   9.111 -0.2395  0.2018 -0.6451
  625MOL0     O84248   3.242   7.706   9.103  0.2872  0.5798  0.5142
  625MOL0     C84249   3.205   7.564   9.087  0.3425 -0.8268  0.1268
  625MOL0     C84250   3.063   7.565   9.033  1.1083 -0.2490  0.0065
  625MOL0     C84251   3.052   7.619   8.890  0.1430  0.5420 -0.0726
  625MOL0     C84252   2.906   7.616   8.833  0.2507  0.5487 -0.5858
  625MOL0     C84253   2.895   7.667   8.689 -0.4924  0.3117 -0.0361
  625MOL0     C84254   2.928   7.550   8.588 -0.7534  0.3940 -1.2518
  625MOL0     C84255   2.872   7.559   8.446  0.3335 -0.2646  0.0852
  625MOL0     C84256   2.905   7.424   8.375 -0.0371 -0.0162  0.8840
  625MOL0     N84257   2.818   7.307   8.402 -0.5123 -0.1771  0.1631
  625MOL0     C84258   2.683   7.307   8.387  0.9950  0.0861 -0.4879
  625MOL0     C84259   2.657   7.173   8.403  0.4373 -0.3471  0.6897
  625MOL0     C84260   2.529   7.099   8.404 -0.2245 -0.0278 -0.6004
  625MOL0     C84261   2.403   7.177   8.385  1.3885 -0.2805  0.0783
  625MOL0     C84262   2.381   7.188   8.230  0.1757  0.5743  0.3411
  625MOL0     C84263   2.256   7.268   8.209  0.3011  0.0022 -0.1685
  625MOL0     O84264   2.266   7.401   8.261  0.1882  0.1302 -1.1086
  625MOL0     C84265   2.149   7.475   8.273  0.5717  0.6310 -0.0052
  625MOL0     C84266   2.155   7.588   8.347 -0.7713 -0.7830 -0.5441
  625MOL0     C84267   2.053   7.678   8.376  1.2085  1.0481  0.7908
  625MOL0     C84268   2.077   7.798   8.446 -0.6488 -0.3497 -0.7009
  625MOL0     C84269   1.921   7.642   8.321 -0.6696 -0.1721 -0.3069
  625MOL0     C84270   1.793   7.721   8.351 -0.2356 -0.2361  0.4977
  625MOL0     O84271   1.794   7.821   8.447  0.1380 -0.6027 -0.2107
  625MOL0     C84272   1.690   7.899   8.444 -0.3595  0.0501  0.4873
  625MOL0     C84273   1.569   7.863   8.513  0.4002  0.3859  0.3561
  625MOL0     C84274   1.459   7.950   8.526  0.1410 -0.2150 -0.0375
  625MOL0     C84275   1.467   8.074   8.463  0.7626 -0.3271 -0.4476
  625MOL0     O84276   1.365   8.162   8.474 -0.1915  0.6459 -0.7724
  625MOL0     C84277   1.321   8.231   8.358  0.3735  0.5942 -0.4825
  625MOL0     C84278   1.178   8.292   8.383  0.4214 -0.1882 -0.6554
  625MOL0     C84279   1.072   8.200   8.453  0.6274 -0.1386 -0.7983
  625MOL0     C84280   0.942   8.271   8.494  0.8387 -0.0916 -0.0895
  625MOL0     C84281   0.841   8.168   8.556 -0.2202 -0.8224  0.5669
  625MOL0     C84282   0.885   8.106   8.692 -0.9269  0.0938 -0.1433
  625MOL0     C84283   0.775   8.028   8.758 -0.3371 -0.4765  0.8428
  625MOL0     C84284   0.707   8.112   8.859 -0.1647 -0.3666  0.5433
  625MOL0    Cl84285   0.547   8.046   8.902  0.1508 -0.1542 -0.1579
  625MOL0     C84286   1.584   8.109   8.388 -0.0660 -0.6041  0.0112
  625MOL0     C84287   1.691   8.019   8.376  0.3658 -0.4324  0.0257
  625MOL0     O84288   1.695   7.696   8.279 -0.4750 -0.4275 -0.1322
  625MOL0     C84289   1.919   7.535   8.237 -0.3192 -0.3060  0.1509
  625MOL0     C84290   2.030   7.454   8.210  0.0087 -0.1375  0.2865
  625MOL0     N84291   2.782   7.105   8.422  0.5387  0.4713 -0.1584
  625MOL0     N84292   2.875   7.184   8.420 -0.8494  0.7676  1.1737
  625MOL0     C84293   3.402   7.878   9.072 -0.6142  0.3128 -0.2476
  625MOL0     C84294   3.529   7.933   9.109 -0.5409 -0.5889 -0.4497
  625MOL0     C84295   3.920   8.020   9.335 -0.0682 -0.2080  0.2398
  625MOL0     C84296   4.019   8.012   9.238 -0.0658  0.6414 -0.5803
  625MOL0     C84297   4.156   8.046   9.264 -0.2628  0.8715  0.0600
  625MOL0     C84298   4.198   8.094   9.387  0.3866  0.2720 -0.5240
  625MOL0     O84299   4.328   8.120   9.393 -1.0515 -0.3358 -0.4542
  625MOL0     C84300   4.380   8.221   9.486 -0.0352 -0.0787 -0.0848
  625MOL0     C84301   4.455   8.171   9.612  0.7006 -0.1352  0.1276
  625MOL0     C84302   4.370   8.082   9.700 -0.1031 -0.5492 -0.6952
  625MOL0     C84303   4.446   8.010   9.804  0.8133 -0.5653  0.0943
  625MOL0     C84304   4.483   8.094   9.909  0.7467 -0.6310 -0.8723
  625MOL0     C84305   4.512   8.171  10.001 -0.0695  0.1605  0.9585
  625MOL0     C84306   4.102   8.109   9.490 -0.0680 -0.2944  0.2141
  625MOL0     C84307   3.971   8.064   9.467  0.1723  0.3698 -0.6531
  625MOL0     H84308   3.659   7.668   9.268  0.6540 -0.4748 -2.3924
  625MOL0     H84309   3.447   7.569   9.216  0.3231 -1.0219 -1.5446
  625MOL0     H84310   3.271   7.505   9.023 -0.0423 -0.8677 -0.2354
  625MOL0     H84311   3.198   7.495   9.172 -3.1768 -2.5625 -1.4043
  625MOL0     H84312   3.025   7.463   9.031  2.7824 -1.0792  3.6201
  625MOL0     H84313   3.005   7.632   9.097 -0.7785  0.2344 -2.0522
  625MOL0     H84314   3.092   7.720   8.904 -2.0436  0.9924  4.7456
  625MOL0     H84315   3.123   7.558   8.833 -1.5492 -1.2685 -0.3354
  625MOL0     H84316   2.858   7.519   8.851 -0.0060  0.7118 -0.3915
  625MOL0     H84317   2.850   7.694   8.885  0.1284  0.3380 -0.4017
  625MOL0     H84318   2.791   7.683   8.659 -0.1802  2.3963 -0.1609
  625MOL0     H84319   2.952   7.753   8.655  1.6418 -0.7895  0.5985
  625MOL0     H84320   3.036   7.538   8.576 -0.4230  4.1967 -3.6441
  625MOL0     H84321   2.882   7.464   8.637 -1.1221  0.0455 -2.1872
  625MOL0     H84322   2.765   7.580   8.455  0.3022  1.0309 -2.4595
  625MOL0     H84323   2.907   7.646   8.391  0.0430 -1.1450 -1.5471
  625MOL0     H84324   3.010   7.394   8.376  0.8458  2.3573 -2.4959
  625MOL0     H84325   2.881   7.452   8.271 -0.3341  0.3462  1.0489
  625MOL0     H84326   2.617   7.393   8.385 -0.5391 -1.0611 -1.1162
  625MOL0     H84327   2.535   7.013   8.336  0.6806 -0.0172 -0.5466
  625MOL0     H84328   2.513   7.052   8.502  1.2961 -0.1263 -0.3864
  625MOL0     H84329   2.423   7.276   8.428 -1.6782  2.1948 -3.4968
  625MOL0     H84330   2.325   7.131   8.446  0.4382  1.7568  0.4891
  625MOL0     H84331   2.365   7.086   8.196  0.8912  1.0425 -1.5353
  625MOL0     H84332   2.469   7.238   8.187  0.9842 -1.6107 -0.6465
  625MOL0     H84333   2.168   7.214   8.245 -0.9838  2.6892  0.9966
  625MOL0     H84334   2.244   7.277   8.101  2.8820  1.3448 -0.4399
  625MOL0     H84335   2.250   7.600   8.399 -1.8916  3.0570  0.9767
  625MOL0     H84336   2.180   7.794   8.483 -2.2538  0.5153  4.8674
  625MOL0     H84337   2.077   7.890   8.387  4.2551 -0.3551 -1.0862
  625MOL0     H84338   2.007   7.806   8.530  0.5916  1.2533  0.2360
  625MOL0     H84339   1.562   7.761   8.552  1.8473  0.5312  1.0670
  625MOL0     H84340   1.378   7.919   8.592  1.3300 -2.5672  0.3978
  625MOL0     H84341   1.382   8.322   8.344  0.9879  0.3332  0.3885
  625MOL0     H84342   1.337   8.165   8.273 -2.7047 -3.0228  1.4534
  625MOL0     H84343   1.188   8.383   8.444  0.9959  3.2284 -5.2579
  625MOL0     H84344   1.141   8.331   8.288  0.2805 -1.7356 -1.2469
  625MOL0     H84345   1.116   8.161   8.545 -0.5653  1.0057  0.3000
  625MOL0     H84346   1.047   8.119   8.385 -1.0424  0.3479 -0.8036
  625MOL0     H84347   0.966   8.344   8.572 -0.9236 -0.2451  0.6413
  625MOL0     H84348   0.900   8.322   8.406 -2.5656 -4.3569 -1.2921
  625MOL0     H84349   0.834   8.094   8.476 -1.3382  0.7445 -0.8623
  625MOL0     H84350   0.740   8.208   8.571  0.9039  1.5527  2.4775
  625MOL0     H84351   0.971   8.039   8.678 -1.1794 -0.4203  0.6861
  625MOL0     H84352   0.915   8.185   8.761 -0.7022 -1.8601  2.1252
  625MOL0     H84353   0.812   7.938   8.809 -2.4377 -0.0166  3.3644
  625MOL0     H84354   0.704   7.995   8.682  0.1885 -0.8416  0.4965
  625MOL0     H84355   0.701   8.215   8.824 -0.6990 -0.4033  0.5141
  625MOL0     H84356   0.775   8.127   8.944  2.1840  1.2659 -1.4840
  625MOL0     H84357   1.586   8.207   8.341 -0.6411  0.0117  1.2260
  625MOL0     H84358   1.780   8.036   8.315  0.9997 -3.0389  0.0597
  625MOL0     H84359   1.823   7.532   8.187  0.4541  3.6000 -1.8765
  625MOL0     H84360   2.010   7.372   8.142  1.2897 -1.0647  0.9909
  625MOL0     H84361   3.339   7.943   9.013  0.0970  1.8524  0.6291
  625MOL0     H84362   3.550   8.028   9.061 -1.7675 -0.7126 -1.2934
  625MOL0     H84363   3.984   7.983   9.140  1.0175 -2.7557 -0.0661
  625MOL0     H84364   4.233   8.029   9.189 -0.2616  0.3404  0.1774
  625MOL0     H84365   4.448   8.286   9.431 -0.1238  1.0700  1.1272
  625MOL0     H84366   4.297   8.286   9.514  1.1946  0.7382  1.8963
  625MOL0     H84367   4.498   8.242   9.682  0.5268  0.8075 -0.6937
  625MOL0     H84368   4.544   8.117   9.576  1.4189  2.1847 -1.8648
  625MOL0     H84369   4.324   8.003   9.640 -1.1345  0.4813 -1.3061
  625MOL0     H84370   4.285   8.137   9.741  0.3810 -0.9892  0.9557
  625MOL0     H84371   4.537   7.962   9.766  1.7903  1.1870  0.1248
  625MOL0     H84372   4.388   7.926   9.845 -0.5914 -0.3701 -1.4283
  625MOL0     H84373   4.536   8.245  10.075 -0.2747  0.3886  0.7968
  625MOL0     H84374   4.131   8.149   9.586  0.8152 -0.0832 -0.1253
  625MOL0     H84375   3.899   8.072   9.547 -1.8473  0.7160 -2.4120
  626MOL0     O84376   2.412   8.832   6.369 -1.1356 -0.7315  0.3370
  626MOL0     C84377   2.389   8.928   6.440  0.9169  0.0118  0.2126
  626MOL0     O84378   2.419   9.058   6.408  0.7447 -0.0015  0.8597
  626MOL0     C84379   2.491   9.094   6.293 -0.1501  0.2951 -0.3731
  626MOL0     C84380   2.521   9.015   6.174  0.1868 -0.1235 -0.4407
  626MOL0     C84381   2.597   9.069   6.056 -0.0310  0.2100 -0.0081
  626MOL0     C84382   2.639   9.204   6.058  1.2029 -0.4610 -0.7302
  626MOL0     O84383   2.714   9.279   5.972 -0.1577 -0.6037 -0.1453
  626MOL0     C84384   2.783   9.202   5.870 -0.7998 -0.4337 -0.4211
  626MOL0     C84385   2.872   9.300   5.789  0.2345 -0.4057  0.1670
  626MOL0     C84386   2.984   9.365   5.868 -0.3552 -0.4411 -0.0056
  626MOL0     C84387   3.107   9.273   5.876 -0.1046 -0.2066  0.0174
  626MOL0     C84388   3.212   9.333   5.965 -0.0395  0.4462  0.4942
  626MOL0     C84389   3.282   9.462   5.908  0.7948 -0.1064  0.1406
  626MOL0     C84390   3.434   9.486   5.914  0.1522  0.1609  0.0129
  626MOL0     C84391   3.496   9.486   6.056  0.1472  0.6678 -0.1475
  626MOL0     N84392   3.637   9.530   6.055 -0.7204 -0.2649  0.3040
  626MOL0     C84393   3.684   9.658   6.083 -0.2784 -0.0897 -0.0983
  626MOL0     C84394   3.820   9.648   6.070 -0.4612  0.7212 -0.5804
  626MOL0     C84395   3.927   9.755   6.087 -0.2484 -0.2241  0.5945
  626MOL0     C84396   3.984   9.729   6.230 -0.1893 -0.3413  0.1881
  626MOL0     C84397   4.075   9.842   6.272  0.2657  0.8995 -1.5163
  626MOL0     C84398   4.168   9.788   6.385 -0.1057  0.0084 -0.1796
  626MOL0     O84399   4.250   9.898   6.438  0.4418  0.4583 -0.1513
  626MOL0     C84400   4.332   9.887   6.545 -0.8811 -0.5261  0.2314
  626MOL0     C84401   4.342   9.773   6.619  1.2400  0.7736  0.1898
  626MOL0     C84402   4.438   9.763   6.718  0.3724  0.2615 -1.3064
  626MOL0     C84403   4.432   9.616   6.774  0.3068  0.0872  0.1016
  626MOL0     C84404   4.524   9.870   6.754 -1.9318  0.7660 -0.2141
  626MOL0     C84405   4.632   9.854   6.855  0.0322 -0.7101  0.0270
  626MOL0     O84406   4.711   9.968   6.875  0.0190 -0.9061 -0.7785
  626MOL0     C84407   4.826   9.977   6.956  0.8634 -0.0480 -0.9049
  626MOL0     C84408   4.909   9.875   6.993 -0.6523  0.8657 -0.3841
  626MOL0     C84409   5.044   9.901   7.045  0.3611 -0.2459  0.1138
  626MOL0     C84410   5.092  10.031   7.044  0.7344  0.3498  0.6917
  626MOL0     O84411   5.225  10.050   7.092 -0.3645  0.7771 -0.2164
  626MOL0     C84412   5.292  10.179   7.089  0.1738  0.3093 -0.7059
  626MOL0     C84413   5.425  10.186   7.168 -0.2460  0.0924  0.7657
  626MOL0     C84414   5.546  10.148   7.083  0.9035  0.1863 -0.1318
  626MOL0     C84415   5.654  10.087   7.173 -0.8110  0.1355  0.1996
  626MOL0     C84416   5.778  10.049   7.095 -0.4067 -0.3261 -0.1031
  626MOL0     C84417   5.867  10.177   7.074  0.2763  0.7863  0.9493
  626MOL0     C84418   5.963  10.173   6.955  0.0037  0.7981  0.8579
  626MOL0     C84419   5.972  10.306   6.893 -0.7858 -0.3664 -0.2218
  626MOL0    Cl84420   6.067  10.283   6.741 -0.0158  0.0165 -0.1199
  626MOL0     C84421   5.011  10.137   7.005  0.1693  0.7699  0.7186
  626MOL0     C84422   4.878  10.110   6.960 -0.0430 -0.4443  0.7298
  626MOL0     O84423   4.653   9.744   6.905 -0.1633  0.4282  0.7841
  626MOL0     C84424   4.510   9.989   6.681  0.1708  0.4651 -0.9619
  626MOL0     C84425   4.417   9.994   6.572 -1.1537 -0.4765  0.3741
  626MOL0     N84426   3.854   9.512   6.047 -0.7059 -0.4529 -1.1584
  626MOL0     N84427   3.746   9.443   6.039  0.2958  0.0034  1.2095
  626MOL0     C84428   2.607   9.277   6.177  0.1699 -0.8995  0.2910
  626MOL0     C84429   2.541   9.227   6.286 -0.4528 -0.1286  0.1201
  626MOL0     C84430   2.294   8.914   6.550  0.4207 -0.9186  0.1147
  626MOL0     C84431   2.274   9.033   6.633  0.0847 -0.5721  0.5295
  626MOL0     C84432   2.181   9.029   6.730  0.5087  0.0440 -0.7625
  626MOL0     C84433   2.100   8.918   6.759 -0.0567 -0.1892  0.2010
  626MOL0     O84434   2.000   8.921   6.851  0.6755  0.0170  0.0570
  626MOL0     C84435   1.875   8.949   6.799 -0.1017 -0.5567  0.8647
  626MOL0     C84436   1.760   8.924   6.896  0.2448  0.1332 -0.2606
  626MOL0     C84437   1.613   8.939   6.855 -0.3840 -0.5140  0.8086
  626MOL0     C84438   1.563   9.078   6.831  0.4724 -0.4701 -0.0385
  626MOL0     C84439   1.439   9.088   6.756  0.3289 -0.7028 -0.2154
  626MOL0     C84440   1.333   9.105   6.698  0.0837 -0.5067 -0.1411
  626MOL0     C84441   2.117   8.797   6.686  0.2513  0.5570  0.5333
  626MOL0     C84442   2.217   8.802   6.581  0.2973 -1.0694 -0.6242
  626MOL0     H84443   2.497   8.910   6.173 -1.5088  0.2325 -1.0784
  626MOL0     H84444   2.610   9.004   5.971 -5.0323 -0.9807 -0.1524
  626MOL0     H84445   2.837   9.123   5.922 -2.2608 -1.1386  0.0713
  626MOL0     H84446   2.714   9.155   5.799 -0.3238  0.6299 -1.6393
  626MOL0     H84447   2.915   9.246   5.705 -1.0493 -0.5639 -0.4099
  626MOL0     H84448   2.818   9.381   5.738  0.4981 -0.1528  0.2821
  626MOL0     H84449   3.017   9.452   5.811 -0.2258 -1.3477 -1.3573
  626MOL0     H84450   2.960   9.408   5.965  2.1531  0.5980  0.2014
  626MOL0     H84451   3.069   9.177   5.911 -2.5691  0.6239 -0.2113
  626MOL0     H84452   3.136   9.265   5.771  1.5523  0.8185  0.3549
  626MOL0     H84453   3.192   9.346   6.072 -0.0243  0.4950  0.4910
  626MOL0     H84454   3.285   9.252   5.970 -2.2708 -1.9468 -2.0272
  626MOL0     H84455   3.261   9.463   5.800  2.5330 -4.1676 -0.4137
  626MOL0     H84456   3.227   9.540   5.961  0.7859 -0.3087  0.4317
  626MOL0     H84457   3.489   9.412   5.855 -2.8423 -1.1930 -1.3252
  626MOL0     H84458   3.445   9.581   5.862 -1.9561 -0.3288 -1.4586
  626MOL0     H84459   3.476   9.384   6.093  2.4150  0.0749 -0.4029
  626MOL0     H84460   3.435   9.556   6.114  0.6022  1.7041 -0.9016
  626MOL0     H84461   3.626   9.747   6.103 -1.5260 -0.6534 -1.0728
  626MOL0     H84462   4.006   9.739   6.013  1.2432 -3.1860  2.5997
  626MOL0     H84463   3.889   9.857   6.083  1.9348  0.6288 -0.1658
  626MOL0     H84464   4.039   9.635   6.224 -1.3670 -0.9796 -1.1822
  626MOL0     H84465   3.907   9.727   6.309 -1.3623  1.8821 -0.8001
  626MOL0     H84466   4.020   9.930   6.308  0.4441  0.5322 -0.3086
  626MOL0     H84467   4.144   9.883   6.198  0.8598  3.6054  0.3825
  626MOL0     H84468   4.231   9.707   6.346  0.4814 -0.6590  2.0484
  626MOL0     H84469   4.105   9.751   6.466 -0.8917  0.7379 -0.4560
  626MOL0     H84470   4.271   9.699   6.585  0.5968  1.8727 -0.9743
  626MOL0     H84471   4.455   9.606   6.880  0.4710 -2.5133 -0.1096
  626MOL0     H84472   4.335   9.567   6.765  0.7936 -1.9486  3.9096
  626MOL0     H84473   4.507   9.556   6.721  1.2323  1.7913 -0.6050
  626MOL0     H84474   4.869   9.774   6.991 -1.5475  1.1695  1.0624
  626MOL0     H84475   5.102   9.816   7.076  3.1772  0.0031 -3.7861
  626MOL0     H84476   5.316  10.204   6.985 -1.3940  1.7467 -0.7622
  626MOL0     H84477   5.222  10.248   7.136  0.5643  2.3538 -2.9056
  626MOL0     H84478   5.444  10.287   7.208  3.8770  0.7362 -2.1557
  626MOL0     H84479   5.410  10.122   7.255 -0.5712  0.7038  1.1720
  626MOL0     H84480   5.588  10.232   7.026  3.5156 -1.6637 -1.1206
  626MOL0     H84481   5.506  10.069   7.019 -1.8101 -0.3926  2.0905
  626MOL0     H84482   5.670  10.160   7.252 -1.1783 -1.2571  1.6139
  626MOL0     H84483   5.624   9.993   7.221  1.5437 -1.2153 -0.8276
  626MOL0     H84484   5.739  10.023   6.996 -0.2734 -1.0129  0.0185
  626MOL0     H84485   5.835   9.967   7.139 -0.0923  0.3133  0.7130
  626MOL0     H84486   5.799  10.262   7.065  0.2294  0.6996  0.4991
  626MOL0     H84487   5.919  10.182   7.170  1.0460 -3.4084  0.9441
  626MOL0     H84488   5.916  10.102   6.885  0.4275  0.0481  1.3232
  626MOL0     H84489   6.061  10.138   6.987 -0.0088 -0.8279 -0.6900
  626MOL0     H84490   6.026  10.369   6.964 -0.5565 -2.1641  1.2777
  626MOL0     H84491   5.874  10.346   6.866  0.4643  1.4466 -2.4455
  626MOL0     H84492   5.064  10.231   7.005  1.8628 -0.1296  2.3339
  626MOL0     H84493   4.811  10.191   6.935  1.2552  0.5240  0.2417
  626MOL0     H84494   4.562  10.082   6.700  0.1555  0.0618  1.4492
  626MOL0     H84495   4.417  10.086   6.515  2.1919  1.8741  3.6810
  626MOL0     H84496   2.640   9.381   6.176 -1.1830 -0.4464  0.4953
  626MOL0     H84497   2.538   9.302   6.365 -3.1565  0.2167 -0.2044
  626MOL0     H84498   2.330   9.123   6.610 -0.9318 -0.3397 -1.2140
  626MOL0     H84499   2.155   9.118   6.786  3.0402  0.5232 -0.2119
  626MOL0     H84500   1.866   9.049   6.754  0.9520 -0.9369 -0.2746
  626MOL0     H84501   1.864   8.896   6.704 -1.7005  1.1991 -0.0005
  626MOL0     H84502   1.773   9.002   6.972 -1.0668 -0.5590  0.7095
  626MOL0     H84503   1.766   8.832   6.955 -1.0712 -0.0714 -0.4233
  626MOL0     H84504   1.544   8.901   6.932 -2.1883  2.8417  1.0308
  626MOL0     H84505   1.607   8.891   6.757  0.7171  2.6495 -0.9487
  626MOL0     H84506   1.641   9.131   6.776  2.5923 -1.6623  1.6133
  626MOL0     H84507   1.541   9.126   6.927  1.1367 -2.4551  1.1921
  626MOL0     H84508   1.241   9.100   6.644  0.9889 -2.7126 -1.6264
  626MOL0     H84509   2.057   8.709   6.706 -1.8583  1.3087 -1.9569
  626MOL0     H84510   2.227   8.711   6.522  0.4801 -0.1981 -1.9559
  627MOL0     O84511   6.593  11.191   1.394  0.0731 -0.1908  0.5653
  627MOL0     C84512   6.511  11.232   1.325  0.5266 -0.0995  0.4584
  627MOL0     O84513   6.370  11.216   1.333  0.1896 -0.0069 -0.0876
  627MOL0     C84514   6.312  11.124   1.422  1.2422  0.0682  0.6678
  627MOL0     C84515   6.178  11.150   1.455 -0.0765 -0.1120 -0.2060
  627MOL0     C84516   6.114  11.072   1.550  0.4165  0.3583  0.5047
  627MOL0     C84517   6.164  10.958   1.609  0.0493  0.1934 -1.0387
  627MOL0     O84518   6.091  10.877   1.692 -0.6870  0.1546 -0.0163
  627MOL0     C84519   5.998  10.928   1.781 -0.1306 -0.6174 -0.9176
  627MOL0     C84520   5.922  10.805   1.848 -0.5240 -0.5213 -0.8156
  627MOL0     C84521   5.845  10.726   1.739  1.1229  0.1270 -0.3118
  627MOL0     C84522   5.737  10.636   1.799  0.1404 -0.4164 -0.9206
  627MOL0     C84523   5.684  10.529   1.704  0.5599 -0.0282 -0.4671
  627MOL0     C84524   5.594  10.587   1.605  0.2252  0.7607  0.4259
  627MOL0     C84525   5.557  10.483   1.502 -1.1230 -0.3736 -0.0282
  627MOL0     C84526   5.670  10.444   1.411 -0.3316  0.4018 -0.4005
  627MOL0     N84527   5.738  10.566   1.347  0.9586  0.5643  0.4580
  627MOL0     C84528   5.850  10.628   1.394 -0.2680 -0.0377  0.0402
  627MOL0     C84529   5.875  10.736   1.315  0.5220  0.1280 -0.1656
  627MOL0     C84530   5.978  10.844   1.320 -1.1850  0.4210 -0.0521
  627MOL0     C84531   6.053  10.860   1.188 -0.3675  0.4299  1.3578
  627MOL0     C84532   5.981  10.918   1.068 -0.2049  0.5327  0.2517
  627MOL0     C84533   5.940  11.069   1.076 -0.0599 -0.6253  0.1454
  627MOL0     O84534   5.883  11.088   0.948 -1.2500 -0.4311 -0.3127
  627MOL0     C84535   5.744  11.070   0.930 -0.2838  0.6300 -0.4459
  627MOL0     C84536   5.681  11.119   0.812  0.6298  0.4402  0.5773
  627MOL0     C84537   5.547  11.090   0.797  1.6851  0.5625 -0.1747
  627MOL0     C84538   5.493  11.155   0.673  0.5542 -0.1572 -0.2429
  627MOL0     C84539   5.459  11.022   0.891 -0.0628 -0.6723 -0.1761
  627MOL0     C84540   5.323  10.975   0.862 -0.3703 -0.1606 -0.3456
  627MOL0     O84541   5.302  10.945   0.734  0.4775  0.4985 -0.1017
  627MOL0     C84542   5.184  10.880   0.707 -0.1086  0.6953  0.1465
  627MOL0     C84543   5.107  10.937   0.607 -0.3795 -0.2000  0.1733
  627MOL0     C84544   4.992  10.869   0.563  0.4868 -0.9737 -0.1628
  627MOL0     C84545   4.943  10.760   0.631  0.2177  0.0111 -0.3403
  627MOL0     O84546   4.815  10.713   0.591 -0.2683  0.3591  0.1883
  627MOL0     C84547   4.742  10.672   0.705  0.5521  0.4737 -0.3648
  627MOL0     C84548   4.588  10.642   0.671 -0.7706  0.1441 -0.4818
  627MOL0     C84549   4.560  10.489   0.665 -0.4698 -0.4644  0.0273
  627MOL0     C84550   4.517  10.443   0.802 -0.8678 -0.3395  0.5342
  627MOL0     C84551   4.463  10.303   0.783  0.8153  0.0410  0.6872
  627MOL0     C84552   4.469  10.215   0.906 -0.0556  1.3721  0.2441
  627MOL0     C84553   4.427  10.063   0.867  0.0087 -0.0506 -0.3796
  627MOL0     C84554   4.387   9.993   0.992  0.9048  0.7927  0.3312
  627MOL0    Cl84555   4.217  10.043   1.037  0.2483 -0.3329 -0.0175
  627MOL0     C84556   5.034  10.693   0.708 -0.4792 -0.0593 -0.4723
  627MOL0     C84557   5.147  10.757   0.750  0.2806 -0.4359  0.3514
  627MOL0     O84558   5.251  10.950   0.954  0.1755  0.8297 -0.2629
  627MOL0     C84559   5.523  10.987   1.006 -0.8536  0.0438  0.0104
  627MOL0     C84560   5.665  11.005   1.025  0.4258 -0.0131  1.1995
  627MOL0     N84561   5.777  10.726   1.214 -0.7023 -0.0701 -0.1366
  627MOL0     N84562   5.706  10.621   1.232 -0.2031 -0.1915  0.2961
  627MOL0     C84563   6.294  10.924   1.569  0.0987 -0.2631 -0.6280
  627MOL0     C84564   6.363  11.004   1.476  0.4312 -0.9981 -0.2855
  627MOL0     C84565   6.557  11.314   1.210  1.1515  0.0346  0.1570
  627MOL0     C84566   6.695  11.333   1.188  0.2217  0.8028 -0.1496
  627MOL0     C84567   6.739  11.402   1.077  0.4537  0.1267 -0.0537
  627MOL0     C84568   6.650  11.462   0.983  0.2021  0.8659 -0.2216
  627MOL0     O84569   6.708  11.534   0.881 -0.5204 -0.0351 -0.8036
  627MOL0     C84570   6.633  11.533   0.766 -0.1114  0.2188  0.9310
  627MOL0     C84571   6.717  11.580   0.647 -0.2166 -0.4315  0.6969
  627MOL0     C84572   6.646  11.585   0.514  0.4996  0.1582 -0.7891
  627MOL0     C84573   6.517  11.674   0.508  0.2378 -0.2235 -0.0498
  627MOL0     C84574   6.470  11.672   0.368  0.2060 -0.1506 -0.4942
  627MOL0     C84575   6.429  11.665   0.253 -0.3787 -0.4117  0.6224
  627MOL0     C84576   6.512  11.446   1.015 -0.4266  0.1017  0.3288
  627MOL0     C84577   6.468  11.370   1.121 -0.3559  0.1154  0.3518
  627MOL0     H84578   6.135  11.235   1.405 -0.2494 -0.5140 -0.7534
  627MOL0     H84579   6.013  11.103   1.575  1.1689  1.1647  2.7250
  627MOL0     H84580   6.052  10.997   1.847  1.2159 -1.0516 -1.5259
  627MOL0     H84581   5.923  10.984   1.725  0.5686  1.3220 -0.0082
  627MOL0     H84582   5.989  10.745   1.909 -2.1409  0.0275  1.6410
  627MOL0     H84583   5.856  10.838   1.929  2.0162 -3.8990  2.9948
  627MOL0     H84584   5.799  10.788   1.662  1.6549 -0.7155 -1.3267
  627MOL0     H84585   5.919  10.661   1.690 -0.3591 -0.5539 -1.7294
  627MOL0     H84586   5.775  10.587   1.889 -0.8921  2.0696  0.9704
  627MOL0     H84587   5.664  10.709   1.836 -0.4400 -1.2677 -0.3351
  627MOL0     H84588   5.758  10.459   1.664  0.8321  0.5400 -0.9693
  627MOL0     H84589   5.631  10.456   1.766  1.3680  0.1899  0.4985
  627MOL0     H84590   5.503  10.627   1.650  0.1163  2.0460 -0.8467
  627MOL0     H84591   5.636  10.677   1.559  1.1813 -0.6104 -1.5021
  627MOL0     H84592   5.507  10.401   1.555  0.8519  1.0153  4.4204
  627MOL0     H84593   5.475  10.523   1.441 -1.2133 -0.8066 -0.1972
  627MOL0     H84594   5.619  10.384   1.335  0.2707 -1.5237  0.6532
  627MOL0     H84595   5.746  10.375   1.447  1.7512  2.8108  0.1316
  627MOL0     H84596   5.911  10.595   1.478  0.0106  0.6527  0.1136
  627MOL0     H84597   5.952  10.938   1.370 -1.0116 -0.7621  2.3966
  627MOL0     H84598   6.058  10.808   1.386 -2.1211 -0.9099  0.4022
  627MOL0     H84599   6.094  10.766   1.148  1.4453  2.0449 -0.8929
  627MOL0     H84600   6.136  10.930   1.201 -1.2844  1.7557  0.3604
  627MOL0     H84601   5.891  10.860   1.045 -0.2108  0.8161 -0.4591
  627MOL0     H84602   6.040  10.892   0.980 -2.4395 -1.7363 -0.7110
  627MOL0     H84603   6.035  11.120   1.094 -1.1251  0.6138  2.8026
  627MOL0     H84604   5.870  11.086   1.159 -1.4231 -1.4060 -0.8056
  627MOL0     H84605   5.736  11.195   0.757  1.6223  0.4005  1.4773
  627MOL0     H84606   5.478  11.079   0.596  0.9618 -1.0847  0.5571
  627MOL0     H84607   5.398  11.208   0.684  2.5282  3.6363  0.2650
  627MOL0     H84608   5.559  11.236   0.640 -0.6848  0.9717 -0.0241
  627MOL0     H84609   5.149  11.025   0.560 -2.9695  0.5194 -1.0016
  627MOL0     H84610   4.932  10.913   0.483 -0.3812  2.9521  2.3137
  627MOL0     H84611   4.789  10.585   0.752 -1.2835 -0.4148 -0.1157
  627MOL0     H84612   4.756  10.767   0.757  0.9750  2.2001 -3.3851
  627MOL0     H84613   4.541  10.693   0.756  1.4183 -1.5865  1.9169
  627MOL0     H84614   4.572  10.695   0.576 -0.3871  0.8580 -0.1594
  627MOL0     H84615   4.652  10.437   0.636 -1.1497 -0.6783 -1.9273
  627MOL0     H84616   4.488  10.464   0.586  0.7210  1.3960 -1.7538
  627MOL0     H84617   4.611  10.442   0.857  0.0541  0.5759 -0.9517
  627MOL0     H84618   4.436  10.498   0.853  0.3688  1.0708  1.0664
  627MOL0     H84619   4.510  10.243   0.705 -1.5885 -2.3158  0.8940
  627MOL0     H84620   4.360  10.323   0.752  0.3944  2.9259  3.4096
  627MOL0     H84621   4.571  10.209   0.945 -0.3443  3.1810  1.3748
  627MOL0     H84622   4.403  10.252   0.984 -0.7514 -0.4328  0.5529
  627MOL0     H84623   4.514  10.010   0.827 -0.4197 -1.0179 -0.0506
  627MOL0     H84624   4.348  10.050   0.792  0.7228  0.8990 -1.3263
  627MOL0     H84625   4.456  10.023   1.072  0.3068 -0.2045  1.2587
  627MOL0     H84626   4.377   9.885   0.979  0.8069  0.5071  2.3712
  627MOL0     H84627   5.016  10.605   0.769 -1.0070  2.0725  2.6774
  627MOL0     H84628   5.195  10.698   0.827  2.0632 -1.0255 -1.1466
  627MOL0     H84629   5.470  10.924   1.077  0.0313  0.2738  0.8884
  627MOL0     H84630   5.718  10.960   1.109  2.0749  0.5041  0.4834
  627MOL0     H84631   6.345  10.839   1.613  2.8081  0.5958 -1.8702
  627MOL0     H84632   6.461  10.967   1.446 -0.3817 -0.5017 -4.0235
  627MOL0     H84633   6.759  11.298   1.268 -1.0274  0.1011  0.5811
  627MOL0     H84634   6.846  11.410   1.059  0.9137 -0.1862  2.2542
  627MOL0     H84635   6.583  11.440   0.740 -1.0456  1.0829 -0.5117
  627MOL0     H84636   6.555  11.609   0.774 -0.5673 -0.0476 -0.6106
  627MOL0     H84637   6.808  11.525   0.623  0.5512  1.0547  0.0312
  627MOL0     H84638   6.747  11.684   0.662  0.1290 -0.6705  1.7211
  627MOL0     H84639   6.614  11.481   0.500  0.2522 -0.4424  3.1094
  627MOL0     H84640   6.715  11.617   0.436  0.2270 -1.6734 -1.8524
  627MOL0     H84641   6.525  11.782   0.527 -2.3205  0.0224 -0.0274
  627MOL0     H84642   6.438  11.626   0.567 -0.6698  0.7743 -0.4156
  627MOL0     H84643   6.389  11.664   0.153 -1.7626 -0.1943  1.1558
  627MOL0     H84644   6.439  11.492   0.949 -0.0480 -0.0032 -0.1702
  627MOL0     H84645   6.362  11.358   1.140  0.1718 -2.1901  2.2368
  628MOL0     O84646   4.569   3.997   1.421  0.1772 -0.7396  0.1369
  628MOL0     C84647   4.613   3.939   1.321 -0.6775  0.2033  0.2480
  628MOL0     O84648   4.540   3.858   1.240 -0.6793 -0.1994 -0.3584
  628MOL0     C84649   4.420   3.812   1.273 -0.0524  0.5516  0.2901
  628MOL0     C84650   4.344   3.815   1.387 -0.1886  0.0942 -0.4187
  628MOL0     C84651   4.217   3.749   1.396  0.8677 -1.2747  0.8690
  628MOL0     C84652   4.166   3.679   1.283 -0.0328 -0.4803  0.0062
  628MOL0     O84653   4.038   3.622   1.295  0.1763  0.4609  0.7421
  628MOL0     C84654   3.994   3.593   1.429 -0.0821  0.8837  0.0769
  628MOL0     C84655   3.880   3.489   1.429  1.0669  0.0076  1.1920
  628MOL0     C84656   3.754   3.510   1.346  0.1140  0.4227 -0.2060
  628MOL0     C84657   3.710   3.656   1.363  0.1037  1.1666  0.5720
  628MOL0     C84658   3.568   3.659   1.309  0.1863 -1.0003  0.6246
  628MOL0     C84659   3.549   3.622   1.166 -0.5382  0.3462  0.8435
  628MOL0     C84660   3.395   3.664   1.139  0.0566  1.5479  0.6580
  628MOL0     C84661   3.289   3.584   1.217 -0.3809 -0.2564 -0.3796
  628MOL0     N84662   3.225   3.663   1.323  0.6077  0.0211 -0.7626
  628MOL0     C84663   3.091   3.646   1.352  0.0664  0.0475  0.5420
  628MOL0     C84664   3.076   3.698   1.468 -0.2030  0.6135  0.4346
  628MOL0     C84665   2.951   3.717   1.565  0.4974 -0.8773  0.1227
  628MOL0     C84666   2.857   3.602   1.603 -0.1509  0.4734  0.8412
  628MOL0     C84667   2.757   3.658   1.706  0.2571 -0.3904  0.3494
  628MOL0     C84668   2.691   3.554   1.796 -0.4974  0.1620 -0.4764
  628MOL0     O84669   2.574   3.616   1.858  0.8410 -0.5548 -0.1692
  628MOL0     C84670   2.497   3.535   1.939  0.2083  0.7943  1.1555
  628MOL0     C84671   2.527   3.403   1.971 -0.9384 -0.3095  0.0151
  628MOL0     C84672   2.444   3.330   2.052 -0.1073  0.5067 -0.5211
  628MOL0     C84673   2.485   3.187   2.077 -0.4474 -0.3080 -0.3746
  628MOL0     C84674   2.335   3.389   2.116  0.2878 -0.2183 -0.2632
  628MOL0     C84675   2.235   3.327   2.209 -0.7070 -0.4768  0.0583
  628MOL0     O84676   2.111   3.373   2.235  0.8224  0.4891  0.1082
  628MOL0     C84677   2.054   3.369   2.358  0.2830  0.6465  0.3122
  628MOL0     C84678   2.017   3.491   2.416  0.3356  0.8533 -0.7020
  628MOL0     C84679   1.943   3.480   2.537 -0.2953 -0.1381 -0.3511
  628MOL0     C84680   1.881   3.362   2.574  0.4026 -0.5098  0.2159
  628MOL0     O84681   1.792   3.353   2.671  0.2534  1.1855 -0.9523
  628MOL0     C84682   1.787   3.423   2.797  0.6815 -0.1278 -0.3429
  628MOL0     C84683   1.650   3.394   2.846  0.3532  0.2490  0.0211
  628MOL0     C84684   1.620   3.475   2.969 -0.5269  0.0964 -0.1912
  628MOL0     C84685   1.477   3.462   3.014  0.7989  0.2218  0.6234
  628MOL0     C84686   1.464   3.545   3.139  0.7769 -0.1335 -0.0497
  628MOL0     C84687   1.414   3.686   3.115 -1.0146  0.2245  0.1437
  628MOL0     C84688   1.372   3.761   3.234  0.1995  0.1553  0.2661
  628MOL0     C84689   1.227   3.738   3.269  0.6941  0.1704  0.1630
  628MOL0    Cl84690   1.204   3.592   3.367  0.5018  0.1977  0.1855
  628MOL0     C84691   1.907   3.243   2.501  0.6755  0.1938  0.1490
  628MOL0     C84692   1.999   3.244   2.398  0.6021 -0.5089 -0.0583
  628MOL0     O84693   2.290   3.236   2.276  0.4588 -0.0509  0.0702
  628MOL0     C84694   2.312   3.521   2.103 -0.1324  0.4027  1.2866
  628MOL0     C84695   2.398   3.594   2.020  0.5002  0.3580  0.2280
  628MOL0     N84696   3.192   3.760   1.514  0.7014 -0.2389  0.3322
  628MOL0     N84697   3.285   3.731   1.423  0.1488 -0.5940 -0.4681
  628MOL0     C84698   4.246   3.668   1.170  0.3384  0.1493 -0.6188
  628MOL0     C84699   4.373   3.732   1.164  0.0290 -0.8085 -0.4464
  628MOL0     C84700   4.749   3.978   1.280  0.6980 -0.2442  0.3378
  628MOL0     C84701   4.833   4.072   1.344  0.7947 -0.6787 -0.3892
  628MOL0     C84702   4.963   4.105   1.300 -0.3139 -0.1232 -0.6031
  628MOL0     C84703   5.019   4.018   1.207  0.0313  0.5774  0.0548
  628MOL0     O84704   5.144   4.035   1.153 -0.0139 -0.2877 -0.0017
  628MOL0     C84705   5.248   4.038   1.249 -0.3831  0.0071  0.4064
  628MOL0     C84706   5.366   3.956   1.201 -0.2956 -0.0792 -0.0686
  628MOL0     C84707   5.511   4.001   1.246  0.6530 -0.3738  0.7172
  628MOL0     C84708   5.530   4.046   1.393  0.9186  0.2151  0.1979
  628MOL0     C84709   5.670   4.040   1.432 -0.8417  0.1411 -0.1453
  628MOL0     C84710   5.788   4.037   1.478  0.4833  0.2101 -0.2142
  628MOL0     C84711   4.938   3.927   1.139 -0.2062  0.2243  0.0943
  628MOL0     C84712   4.803   3.913   1.173 -0.4394  0.5511  0.3667
  628MOL0     H84713   4.386   3.854   1.479 -0.3877  0.1655 -0.3582
  628MOL0     H84714   4.157   3.758   1.485 -1.7821 -1.4152 -0.7985
  628MOL0     H84715   4.077   3.547   1.483  0.6933 -0.2713 -1.9696
  628MOL0     H84716   3.965   3.686   1.479 -0.6064  2.8653 -3.5417
  628MOL0     H84717   3.929   3.401   1.388  0.0328 -0.2687  0.5119
  628MOL0     H84718   3.859   3.472   1.535  0.9467  2.4590  1.6065
  628MOL0     H84719   3.773   3.479   1.242 -0.6921 -0.4505 -0.1142
  628MOL0     H84720   3.670   3.449   1.383 -0.9855  1.0708 -1.5376
  628MOL0     H84721   3.712   3.696   1.465  1.7331  0.6615  0.7524
  628MOL0     H84722   3.778   3.718   1.305  1.0648  1.5623  2.0730
  628MOL0     H84723   3.505   3.594   1.371 -0.5698  0.7822  1.7967
  628MOL0     H84724   3.530   3.760   1.322  2.8094  0.0406  0.7767
  628MOL0     H84725   3.614   3.679   1.099 -0.7013 -0.8126 -0.3471
  628MOL0     H84726   3.565   3.515   1.147 -0.6563 -0.0605  2.7383
  628MOL0     H84727   3.378   3.771   1.153  0.1087  1.7893 -0.9014
  628MOL0     H84728   3.377   3.649   1.032 -3.2999  2.5069  0.9609
  628MOL0     H84729   3.331   3.488   1.249  2.4984  0.6606 -1.1592
  628MOL0     H84730   3.208   3.567   1.145 -1.7793 -0.8605  1.2627
  628MOL0     H84731   3.011   3.600   1.295 -1.3413  0.8968  1.7447
  628MOL0     H84732   2.996   3.748   1.660  0.4936 -4.1235  1.2802
  628MOL0     H84733   2.899   3.806   1.528  0.4960 -1.6302 -1.7822
  628MOL0     H84734   2.909   3.521   1.655 -3.1543 -0.2325  3.0046
  628MOL0     H84735   2.815   3.565   1.510 -0.1049 -1.3975  1.5314
  628MOL0     H84736   2.680   3.706   1.645 -0.5096  2.0598  3.0279
  628MOL0     H84737   2.790   3.743   1.766 -0.7950  0.3104 -0.0289
  628MOL0     H84738   2.763   3.517   1.870 -0.9825 -1.5229 -0.7951
  628MOL0     H84739   2.662   3.470   1.733  3.3034 -0.1815 -2.0691
  628MOL0     H84740   2.614   3.356   1.926 -1.4120  0.2044 -1.4884
  628MOL0     H84741   2.520   3.180   2.180 -1.7128  1.1893  0.1985
  628MOL0     H84742   2.394   3.126   2.073 -0.6101 -0.1292  0.4610
  628MOL0     H84743   2.559   3.157   2.002  1.7243 -1.1674  1.9800
  628MOL0     H84744   2.042   3.593   2.389 -4.6720  2.4974 -0.1910
  628MOL0     H84745   1.922   3.565   2.602  1.0928  0.5917 -0.8185
  628MOL0     H84746   1.862   3.384   2.868 -1.4252  1.4655  3.0216
  628MOL0     H84747   1.819   3.525   2.776  4.0377 -0.5572  1.8451
  628MOL0     H84748   1.580   3.426   2.769  2.3210  0.0264 -1.9480
  628MOL0     H84749   1.635   3.286   2.852 -0.6999  0.0088 -4.1133
  628MOL0     H84750   1.650   3.580   2.956 -2.5069  0.9939  1.9362
  628MOL0     H84751   1.670   3.430   3.055 -0.9672 -0.4074 -0.1924
  628MOL0     H84752   1.410   3.494   2.934  0.3964  2.3871  1.7204
  628MOL0     H84753   1.457   3.358   3.041 -0.7303  0.2112 -0.4089
  628MOL0     H84754   1.552   3.543   3.204 -0.0428 -1.0474  1.0757
  628MOL0     H84755   1.383   3.502   3.199  2.3341 -1.7278  1.0137
  628MOL0     H84756   1.485   3.752   3.063  0.3059 -0.6716  0.7600
  628MOL0     H84757   1.336   3.669   3.040 -2.1885  0.2435  1.3260
  628MOL0     H84758   1.370   3.867   3.206 -0.9994 -0.4778 -2.3478
  628MOL0     H84759   1.428   3.736   3.325  1.3889  0.3044 -0.3944
  628MOL0     H84760   1.163   3.731   3.181  2.1239 -1.0667 -0.8143
  628MOL0     H84761   1.190   3.821   3.330  0.1432 -0.1840  0.3110
  628MOL0     H84762   1.848   3.153   2.520  0.5115  0.2258 -0.2047
  628MOL0     H84763   2.035   3.165   2.333 -0.8699 -1.3024  0.0543
  628MOL0     H84764   2.241   3.576   2.165 -1.7103 -0.2890  0.1574
  628MOL0     H84765   2.381   3.701   2.011 -1.2182 -0.0172 -2.0774
  628MOL0     H84766   4.207   3.626   1.078  1.2901 -0.2893 -0.8280
  628MOL0     H84767   4.440   3.728   1.079  0.0478 -1.4396 -0.4058
  628MOL0     H84768   4.793   4.134   1.424 -0.7405  1.8609 -2.9666
  628MOL0     H84769   5.017   4.185   1.350 -3.5165  2.1603 -0.4450
  628MOL0     H84770   5.275   4.143   1.265 -1.0671  0.6751 -2.3340
  628MOL0     H84771   5.209   4.003   1.345 -2.0471  0.5732 -0.0343
  628MOL0     H84772   5.370   3.935   1.093  2.6030  1.5431 -0.3529
  628MOL0     H84773   5.353   3.852   1.235 -1.0380 -0.7581 -2.2097
  628MOL0     H84774   5.542   4.085   1.183 -2.5021 -0.7809 -1.6789
  628MOL0     H84775   5.584   3.923   1.224 -0.3076 -1.3324  0.8351
  628MOL0     H84776   5.478   3.971   1.452 -1.6165  0.4306 -1.5749
  628MOL0     H84777   5.489   4.145   1.414 -1.6404 -1.1497  2.2119
  628MOL0     H84778   5.889   4.043   1.511  0.0589  4.0402  0.8201
  628MOL0     H84779   4.975   3.867   1.057 -2.7695 -2.0878  0.4851
  628MOL0     H84780   4.735   3.845   1.122 -1.3363  0.2453  1.8851
  629MOL0     O84781   9.290   7.595   8.081 -0.7530 -0.2793  0.0437
  629MOL0     C84782   9.362   7.599   8.184 -0.1496 -0.3026 -0.3474
  629MOL0     O84783   9.317   7.621   8.315  0.3398  0.0008  0.2054
  629MOL0     C84784   9.190   7.661   8.330  0.0581 -0.2522 -0.0959
  629MOL0     C84785   9.173   7.763   8.425 -0.0846  0.5591  0.4438
  629MOL0     C84786   9.049   7.799   8.450  0.1673 -0.3925  0.1352
  629MOL0     C84787   8.932   7.735   8.397  0.2722  0.5691 -0.2620
  629MOL0     O84788   8.806   7.767   8.433 -0.1944 -0.3527 -0.0575
  629MOL0     C84789   8.751   7.690   8.540  0.1705  0.0988 -0.5539
  629MOL0     C84790   8.614   7.746   8.558 -0.2548  0.3056 -0.6203
  629MOL0     C84791   8.541   7.647   8.653  0.1384  0.2071 -0.5995
  629MOL0     C84792   8.397   7.704   8.682 -0.4025 -0.2970  0.6639
  629MOL0     C84793   8.327   7.638   8.792  0.3705  0.9991 -1.0603
  629MOL0     C84794   8.191   7.705   8.845 -0.6466 -0.0560 -0.1879
  629MOL0     C84795   8.218   7.849   8.889 -0.2545 -0.1904  0.5854
  629MOL0     C84796   8.100   7.897   8.975 -0.6581  0.2946  1.1144
  629MOL0     N84797   7.977   7.940   8.899 -1.3302  0.4832 -0.2647
  629MOL0     C84798   7.867   7.854   8.875 -0.2767  0.0701  0.2176
  629MOL0     C84799   7.773   7.939   8.827 -0.4570  0.0660  0.2257
  629MOL0     C84800   7.631   7.898   8.803  0.0356  1.2485 -0.0760
  629MOL0     C84801   7.530   8.010   8.806 -0.1165 -0.2520  0.2907
  629MOL0     C84802   7.385   7.956   8.800 -0.6383 -0.3565  0.1800
  629MOL0     C84803   7.291   8.057   8.747 -0.0692  0.2223  0.1177
  629MOL0     O84804   7.275   8.181   8.813 -0.4517 -0.5408 -0.4186
  629MOL0     C84805   7.163   8.193   8.891  0.1335  0.0593  0.4724
  629MOL0     C84806   7.138   8.105   8.998  0.2814 -0.3305  0.7520
  629MOL0     C84807   7.035   8.132   9.088  0.0473 -0.8956  0.9547
  629MOL0     C84808   7.026   8.048   9.209  0.3919 -0.3364  0.3000
  629MOL0     C84809   6.937   8.229   9.055 -0.9206  0.1749  0.1111
  629MOL0     C84810   6.828   8.278   9.143  0.1143  0.2304  0.5743
  629MOL0     O84811   6.714   8.339   9.082 -0.5594  0.0267  0.1337
  629MOL0     C84812   6.604   8.381   9.159 -0.5127  0.0737 -0.2107
  629MOL0     C84813   6.630   8.487   9.253 -0.1500 -0.2827  1.1478
  629MOL0     C84814   6.529   8.541   9.326 -0.4246  0.4781  0.3164
  629MOL0     C84815   6.400   8.481   9.311  0.7437 -0.6916 -0.5612
  629MOL0     O84816   6.317   8.535   9.395  0.6487 -0.4270 -0.7073
  629MOL0     C84817   6.175   8.528   9.366 -0.6088 -0.4679 -0.4500
  629MOL0     C84818   6.108   8.603   9.472 -0.3885 -0.0976 -0.5404
  629MOL0     C84819   5.964   8.637   9.443  0.2713 -0.3735 -0.0687
  629MOL0     C84820   5.884   8.715   9.543  0.3776  0.3309  0.0043
  629MOL0     C84821   5.747   8.746   9.483 -0.2849  0.5160  0.6890
  629MOL0     C84822   5.659   8.805   9.588  0.1932 -0.6633  0.1378
  629MOL0     C84823   5.513   8.826   9.544 -0.1318  0.8351  0.0140
  629MOL0     C84824   5.489   8.906   9.421  0.2565  0.2261 -0.0239
  629MOL0    Cl84825   5.516   9.081   9.469  0.2221 -0.4490  0.0897
  629MOL0     C84826   6.377   8.382   9.221  0.5213  0.7302  0.6829
  629MOL0     C84827   6.480   8.335   9.141  0.6016  0.1822  0.0400
  629MOL0     O84828   6.842   8.261   9.262 -0.2555  0.0745 -0.1305
  629MOL0     C84829   6.948   8.304   8.929 -0.3364 -0.2283  0.5712
  629MOL0     C84830   7.067   8.286   8.849  0.2517 -1.2142 -0.1999
  629MOL0     N84831   7.830   8.065   8.808 -0.5772 -0.5444 -0.3827
  629MOL0     N84832   7.951   8.058   8.843 -0.9006  1.0118 -0.3199
  629MOL0     C84833   8.951   7.635   8.297  0.4993  0.3653 -1.5355
  629MOL0     C84834   9.078   7.593   8.269 -0.2228 -1.0674 -0.0718
  629MOL0     C84835   9.503   7.573   8.160 -0.4437  0.1462 -0.0128
  629MOL0     C84836   9.592   7.614   8.261  0.4183  0.4504  0.1340
  629MOL0     C84837   9.728   7.590   8.252 -0.2339 -0.3761  0.2836
  629MOL0     C84838   9.782   7.526   8.144 -0.0430 -0.0361 -0.3739
  629MOL0     O84839   9.911   7.499   8.120  0.3106  0.0225 -0.4990
  629MOL0     C84840   9.996   7.615   8.146 -0.5272  0.6029  0.2765
  629MOL0     C84841  10.119   7.611   8.048  0.9538 -0.8833 -0.7155
  629MOL0     C84842  10.213   7.496   8.095  0.3194 -0.3002 -0.2093
  629MOL0     C84843  10.339   7.482   8.006 -0.0191  1.1421 -0.0952
  629MOL0     C84844  10.439   7.374   8.044  0.4595  0.3566  0.3499
  629MOL0     C84845  10.522   7.298   8.071  0.1144  0.0511 -0.7341
  629MOL0     C84846   9.696   7.464   8.056 -0.2274 -0.0705 -0.3468
  629MOL0     C84847   9.560   7.493   8.056 -0.4211  1.1268  0.2929
  629MOL0     H84848   9.263   7.809   8.465 -0.0551 -1.4383  2.9681
  629MOL0     H84849   9.036   7.886   8.513 -0.5390 -0.0346 -0.4937
  629MOL0     H84850   8.746   7.587   8.504  1.4101 -1.0497  2.2662
  629MOL0     H84851   8.819   7.702   8.624  4.0038 -1.0028 -3.2368
  629MOL0     H84852   8.635   7.835   8.618 -0.8708  0.7512 -1.0615
  629MOL0     H84853   8.578   7.767   8.457  1.7077  2.4816 -0.9688
  629MOL0     H84854   8.534   7.548   8.606 -4.5524  0.2945 -0.5278
  629MOL0     H84855   8.594   7.631   8.748 -1.7897 -0.1570  0.4804
  629MOL0     H84856   8.409   7.809   8.712  1.4777 -0.1582 -0.3812
  629MOL0     H84857   8.329   7.701   8.596  0.4242  0.1459 -0.0202
  629MOL0     H84858   8.298   7.536   8.765  0.4089  0.5727  0.4048
  629MOL0     H84859   8.393   7.635   8.879  1.1645 -1.8355 -1.6800
  629MOL0     H84860   8.114   7.705   8.767 -2.4522 -1.5946  1.4727
  629MOL0     H84861   8.148   7.643   8.924  0.7741 -0.9476 -0.0769
  629MOL0     H84862   8.311   7.858   8.945  0.6694  0.7395 -1.0102
  629MOL0     H84863   8.212   7.916   8.802 -0.7363  1.7918  2.0725
  629MOL0     H84864   8.127   7.990   9.027 -0.3437  0.3075  0.9347
  629MOL0     H84865   8.083   7.816   9.045 -1.9841  1.0396  1.6735
  629MOL0     H84866   7.851   7.754   8.914 -0.4147 -0.4035 -1.0122
  629MOL0     H84867   7.631   7.842   8.709  2.4075 -0.3156  0.7807
  629MOL0     H84868   7.601   7.824   8.877  0.9327  0.7133 -0.2271
  629MOL0     H84869   7.562   8.071   8.721  0.5196 -3.1597 -1.6867
  629MOL0     H84870   7.557   8.071   8.893 -0.0284 -1.9070  1.4534
  629MOL0     H84871   7.355   7.921   8.900 -3.1860 -1.7471 -0.9587
  629MOL0     H84872   7.379   7.866   8.737 -0.9059 -0.7653  0.7799
  629MOL0     H84873   7.192   8.012   8.742  0.6823 -1.4653 -0.0240
  629MOL0     H84874   7.321   8.091   8.647  0.1655  2.0079  0.7550
  629MOL0     H84875   7.214   8.030   9.021 -0.3854 -0.3420  3.1663
  629MOL0     H84876   7.005   8.108   9.298 -0.8706  1.1418 -0.9429
  629MOL0     H84877   6.948   7.973   9.194 -1.1508  0.8907  1.7013
  629MOL0     H84878   7.115   7.986   9.220  0.4283  0.0524  2.7136
  629MOL0     H84879   6.727   8.535   9.247 -0.8894  1.0808 -1.6389
  629MOL0     H84880   6.557   8.620   9.396 -0.9134 -1.8671  3.3597
  629MOL0     H84881   6.150   8.580   9.273  0.8920  0.4778 -0.3543
  629MOL0     H84882   6.143   8.423   9.365  2.0134 -1.4753  2.5979
  629MOL0     H84883   6.109   8.541   9.562  1.3637  0.2535 -0.2830
  629MOL0     H84884   6.165   8.694   9.494 -0.0072 -0.2486 -0.8983
  629MOL0     H84885   5.909   8.547   9.418  0.0340  0.3137 -2.2441
  629MOL0     H84886   5.980   8.696   9.351  0.5689 -0.3783 -0.0213
  629MOL0     H84887   5.887   8.656   9.636 -0.8472 -1.2106 -0.8729
  629MOL0     H84888   5.933   8.809   9.568 -2.0011  1.0743  2.3483
  629MOL0     H84889   5.700   8.651   9.457  2.0103  0.1345 -2.6462
  629MOL0     H84890   5.760   8.809   9.394 -2.2743  0.0667  0.0421
  629MOL0     H84891   5.663   8.741   9.676 -1.2172  1.3157  1.7393
  629MOL0     H84892   5.709   8.896   9.622  0.7717 -2.6316  5.4173
  629MOL0     H84893   5.455   8.877   9.622 -0.8400  0.9645 -0.5836
  629MOL0     H84894   5.460   8.734   9.519 -0.8675  0.9916  0.9158
  629MOL0     H84895   5.386   8.894   9.387  0.4006  1.6185 -1.0517
  629MOL0     H84896   5.557   8.875   9.341  0.0409 -0.6283  0.1223
  629MOL0     H84897   6.280   8.335   9.207  0.0305  1.3813  1.8023
  629MOL0     H84898   6.449   8.263   9.066 -1.1226  0.9332 -0.0119
  629MOL0     H84899   6.888   8.392   8.911 -0.1008 -0.6547 -3.0029
  629MOL0     H84900   7.086   8.342   8.758  0.5390 -1.5472 -0.3507
  629MOL0     H84901   8.859   7.587   8.265 -2.3145  1.2067  4.1209
  629MOL0     H84902   9.090   7.504   8.208 -0.3573 -1.1674  0.0490
  629MOL0     H84903   9.550   7.661   8.350  0.0701 -1.7230  1.1815
  629MOL0     H84904   9.798   7.617   8.330 -0.3309  0.7873 -0.0084
  629MOL0     H84905   9.938   7.705   8.121 -0.2183  0.8521  0.4554
  629MOL0     H84906  10.021   7.615   8.252 -0.3692 -2.1281  0.3069
  629MOL0     H84907  10.178   7.701   8.065 -0.5990  0.0816 -0.2054
  629MOL0     H84908  10.096   7.598   7.942 -0.5950 -0.9511 -0.3954
  629MOL0     H84909  10.152   7.405   8.102 -0.3873  0.2704  1.8532
  629MOL0     H84910  10.238   7.519   8.199  0.6413 -0.3584 -0.2743
  629MOL0     H84911  10.390   7.578   8.000  1.3067  0.4275 -0.8530
  629MOL0     H84912  10.306   7.470   7.902 -0.9304 -0.1362  0.3090
  629MOL0     H84913  10.601   7.233   8.105 -0.3599  0.5988  1.5516
  629MOL0     H84914   9.742   7.396   7.984 -1.3327 -0.0058 -1.1429
  629MOL0     H84915   9.507   7.432   7.983  0.2245 -0.0043  0.7537
  630MOL0     O84916   3.194   5.686   4.925 -0.1372 -0.7098 -0.1264
  630MOL0     C84917   3.180   5.809   4.921 -0.1348 -0.0175  0.1755
  630MOL0     O84918   3.065   5.869   4.927  0.8455  0.3735 -0.2760
  630MOL0     C84919   2.952   5.794   4.930 -0.6070  0.4801  0.5790
  630MOL0     C84920   2.860   5.806   4.821  0.7728  0.3423  0.7869
  630MOL0     C84921   2.738   5.737   4.822 -0.8018 -0.3500 -0.0514
  630MOL0     C84922   2.698   5.677   4.943 -1.5160  0.8789 -0.1288
  630MOL0     O84923   2.577   5.620   4.970 -0.0377 -0.5192  0.7323
  630MOL0     C84924   2.542   5.525   4.869  0.1069  0.0097  0.2533
  630MOL0     C84925   2.426   5.577   4.796 -0.0479  1.0533  0.5733
  630MOL0     C84926   2.304   5.582   4.886  0.2796 -0.2427 -0.0777
  630MOL0     C84927   2.181   5.591   4.796  0.0144  0.0221  0.7661
  630MOL0     C84928   2.050   5.535   4.854  0.9101  0.3826  0.3410
  630MOL0     C84929   1.994   5.624   4.961  0.1216  0.2323  0.1852
  630MOL0     C84930   1.857   5.567   4.994 -0.0255  0.3249 -0.2834
  630MOL0     C84931   1.749   5.598   4.899 -0.5624  0.9982 -0.3677
  630MOL0     N84932   1.716   5.737   4.888  0.6059 -0.0226 -0.0251
  630MOL0     C84933   1.649   5.822   4.977  0.3292 -0.4058 -0.1894
  630MOL0     C84934   1.660   5.940   4.922 -0.8864 -0.0926 -0.1415
  630MOL0     C84935   1.625   6.065   4.988  0.1152 -0.2113  0.2883
  630MOL0     C84936   1.501   6.134   4.925 -0.0148 -0.5108  0.0830
  630MOL0     C84937   1.368   6.106   4.992 -0.1157 -0.1474 -0.2030
  630MOL0     C84938   1.325   5.953   4.981  0.2336  0.2186 -0.3726
  630MOL0     O84939   1.200   5.954   5.046  0.1380  0.6211 -0.0680
  630MOL0     C84940   1.095   6.008   4.979 -0.1416  0.4951  0.1627
  630MOL0     C84941   1.077   6.026   4.844 -0.1261  0.3760 -0.4923
  630MOL0     C84942   0.957   6.069   4.787  0.6121  0.1755 -0.0020
  630MOL0     C84943   0.944   6.065   4.635  0.5409 -0.1922 -0.0465
  630MOL0     C84944   0.858   6.128   4.878 -0.6667  0.4082  0.2312
  630MOL0     C84945   0.744   6.212   4.838 -0.0402  0.4908 -0.6080
  630MOL0     O84946   0.647   6.240   4.937  0.1056  0.0204 -0.6471
  630MOL0     C84947   0.559   6.347   4.929  0.2508 -0.3007 -0.0538
  630MOL0     C84948   0.491   6.374   5.055  0.1058  0.2497 -0.0549
  630MOL0     C84949   0.401   6.475   5.075 -0.6784 -0.2894 -0.1200
  630MOL0     C84950   0.368   6.557   4.969 -0.2195 -0.8205  0.3571
  630MOL0     O84951   0.301   6.679   4.984 -0.1171 -0.6548  0.3978
  630MOL0     C84952   0.174   6.667   5.053 -0.2321  0.3947  0.0563
  630MOL0     C84953   0.068   6.737   4.987 -0.1417  0.3469  0.5890
  630MOL0     C84954   0.069   6.704   4.835 -0.7513 -0.6893 -1.3143
  630MOL0     C84955  -0.021   6.790   4.744  0.1239  0.4827 -0.3705
  630MOL0     C84956  -0.025   6.763   4.595  0.2104 -0.4249  0.5022
  630MOL0     C84957  -0.114   6.641   4.561 -0.8492  0.1741  0.2039
  630MOL0     C84958  -0.132   6.623   4.406  0.3190 -0.0508  0.2893
  630MOL0     C84959  -0.195   6.489   4.372  0.0371 -0.8017  0.1741
  630MOL0    Cl84960  -0.233   6.489   4.193  0.1912  0.3304 -0.2246
  630MOL0     C84961   0.441   6.546   4.856 -0.1744  0.8573 -0.0169
  630MOL0     C84962   0.526   6.440   4.831  0.1931  0.6216  0.4263
  630MOL0     O84963   0.747   6.259   4.725  0.2916 -0.5015  0.0335
  630MOL0     C84964   0.880   6.118   5.017  0.4661  0.3600  0.5272
  630MOL0     C84965   1.000   6.065   5.065  0.7073  0.3045  0.1515
  630MOL0     N84966   1.721   5.930   4.799 -0.1630  0.2741 -0.6265
  630MOL0     N84967   1.767   5.812   4.783 -0.4154  0.5874 -0.2579
  630MOL0     C84968   2.781   5.671   5.052  0.2950  0.1557  0.0154
  630MOL0     C84969   2.900   5.723   5.048  0.1401 -0.2350 -0.3533
  630MOL0     C84970   3.306   5.890   4.929  0.1503 -0.3479  0.0191
  630MOL0     C84971   3.293   6.033   4.935  0.5947  0.1305  0.0186
  630MOL0     C84972   3.409   6.113   4.959  0.4343 -0.2444  0.9633
  630MOL0     C84973   3.537   6.053   4.959  0.3962  0.2930  0.4553
  630MOL0     O84974   3.645   6.138   4.971  0.5361  0.2182 -0.6762
  630MOL0     C84975   3.769   6.081   4.984  0.2820  0.3773 -0.7882
  630MOL0     C84976   3.890   6.178   5.007  0.5179 -0.2789 -0.3626
  630MOL0     C84977   4.024   6.108   5.036  0.2993  0.9816  0.2403
  630MOL0     C84978   4.144   6.194   4.985  0.4136  0.0623  0.2168
  630MOL0     C84979   4.162   6.318   5.044  0.2238  0.9928 -0.4389
  630MOL0     C84980   4.172   6.419   5.104  0.5500  0.9236 -0.7050
  630MOL0     C84981   3.541   5.911   4.940  0.0662  0.3349 -0.5009
  630MOL0     C84982   3.431   5.835   4.928  0.0732 -0.5894 -0.6076
  630MOL0     H84983   2.878   5.866   4.732 -2.1005 -0.0720 -0.1958
  630MOL0     H84984   2.663   5.752   4.745  0.1511  0.0257 -0.9158
  630MOL0     H84985   2.630   5.506   4.806  0.5710 -1.0241  1.1881
  630MOL0     H84986   2.520   5.428   4.915  0.3900  0.3138  1.0391
  630MOL0     H84987   2.448   5.681   4.771 -0.1765  0.9417 -0.0047
  630MOL0     H84988   2.420   5.514   4.708 -4.1672  2.3150 -0.2884
  630MOL0     H84989   2.303   5.492   4.947  0.6949  3.0816  5.4920
  630MOL0     H84990   2.311   5.662   4.960 -0.8971 -0.9468  0.8289
  630MOL0     H84991   2.170   5.698   4.778  0.7233 -0.1605 -0.9018
  630MOL0     H84992   2.215   5.533   4.709  3.6191  0.2357  1.8332
  630MOL0     H84993   1.983   5.517   4.769  1.5811 -1.7048  0.1890
  630MOL0     H84994   2.064   5.438   4.903  2.6256  0.5464  0.2460
  630MOL0     H84995   2.062   5.619   5.047  1.2406 -0.5417 -0.7138
  630MOL0     H84996   1.989   5.727   4.923 -1.8024 -0.3058 -1.1700
  630MOL0     H84997   1.867   5.460   5.011 -1.8583  0.2139  0.2558
  630MOL0     H84998   1.823   5.610   5.089 -2.3539 -1.7289 -0.0982
  630MOL0     H84999   1.659   5.547   4.933 -0.2330  1.4837  1.3459
  630MOL0     H85000   1.775   5.561   4.800 -1.6335 -3.3912  0.7934
  630MOL0     H85001   1.610   5.791   5.073 -1.4367 -1.9945 -1.3345
  630MOL0     H85002   1.614   6.060   5.096  0.3838  1.2386  0.3961
  630MOL0     H85003   1.704   6.139   4.974 -1.6734  1.7893  0.1484
  630MOL0     H85004   1.492   6.117   4.818 -2.0064  0.8354 -0.0050
  630MOL0     H85005   1.523   6.241   4.938  0.7538 -0.7854  1.1908
  630MOL0     H85006   1.283   6.165   4.956 -1.2134 -0.9665  0.9495
  630MOL0     H85007   1.368   6.142   5.095  0.9492  0.1580 -0.2917
  630MOL0     H85008   1.400   5.897   5.038  1.2191  1.5636 -0.3044
  630MOL0     H85009   1.328   5.906   4.882  0.4376 -0.9118  0.1538
  630MOL0     H85010   1.157   6.012   4.771 -0.5007  0.6145 -0.9536
  630MOL0     H85011   0.852   6.008   4.618 -0.0130  1.1897 -2.0760
  630MOL0     H85012   0.945   6.166   4.592 -1.7041  0.0690  0.3621
  630MOL0     H85013   1.024   6.003   4.594 -2.7231 -3.1626 -2.4475
  630MOL0     H85014   0.497   6.303   5.137  0.2891  0.6608  0.2895
  630MOL0     H85015   0.355   6.500   5.171 -1.4464 -0.6583 -0.3788
  630MOL0     H85016   0.145   6.561   5.052  0.8122  0.0972  0.3576
  630MOL0     H85017   0.165   6.701   5.156 -1.1978 -0.7106  0.3601
  630MOL0     H85018  -0.030   6.702   5.019 -0.3865  1.2882  0.9047
  630MOL0     H85019   0.074   6.845   5.005  2.8702 -0.1807  3.8589
  630MOL0     H85020   0.047   6.597   4.826 -0.7131 -0.8265  0.0758
  630MOL0     H85021   0.173   6.711   4.800 -0.1537  0.3212  0.5435
  630MOL0     H85022  -0.121   6.784   4.788  1.4162 -2.4251  2.6821
  630MOL0     H85023   0.011   6.894   4.752 -0.9757  0.8062  0.0354
  630MOL0     H85024   0.072   6.742   4.548  0.4597  0.4062  0.6249
  630MOL0     H85025  -0.055   6.854   4.542 -0.1860 -1.2565 -0.7360
  630MOL0     H85026  -0.064   6.551   4.597  1.0065  0.9808 -0.2651
  630MOL0     H85027  -0.211   6.655   4.610 -1.4049 -0.4963 -0.6622
  630MOL0     H85028  -0.030   6.632   4.367  0.0729 -0.4374 -0.4623
  630MOL0     H85029  -0.196   6.695   4.354 -0.1275 -1.9138 -1.9016
  630MOL0     H85030  -0.296   6.486   4.415  0.1167 -0.4857  0.3823
  630MOL0     H85031  -0.127   6.414   4.413  0.9638  0.4225  0.9383
  630MOL0     H85032   0.428   6.613   4.771 -0.7829 -0.2136 -0.7979
  630MOL0     H85033   0.549   6.402   4.732  2.7220 -0.6632  1.3889
  630MOL0     H85034   0.807   6.165   5.083  0.7034  0.7678  0.4997
  630MOL0     H85035   1.021   6.070   5.172 -2.9870 -0.8245  1.0812
  630MOL0     H85036   2.754   5.627   5.147  2.3644  0.5960  0.8496
  630MOL0     H85037   2.961   5.718   5.137  3.7547 -3.3364 -2.7132
  630MOL0     H85038   3.195   6.079   4.936 -0.6204 -2.3155  0.8418
  630MOL0     H85039   3.407   6.220   4.978 -2.2009  0.0583 -0.4958
  630MOL0     H85040   3.773   6.019   5.074  0.1715  1.6164  0.0842
  630MOL0     H85041   3.791   6.013   4.900  0.0793  0.3446 -0.8160
  630MOL0     H85042   3.868   6.233   5.099 -0.2880 -3.0152  1.1968
  630MOL0     H85043   3.904   6.245   4.921  0.4030  0.2918  0.0628
  630MOL0     H85044   4.020   6.011   4.986 -3.0632  0.7498  0.7390
  630MOL0     H85045   4.025   6.084   5.142 -2.0478 -1.0779 -0.1101
  630MOL0     H85046   4.124   6.224   4.881 -0.1168 -0.2341  0.2298
  630MOL0     H85047   4.231   6.127   4.987  0.6115  0.3334  2.3511
  630MOL0     H85048   4.156   6.513   5.153 -2.4059  0.1930 -0.1166
  630MOL0     H85049   3.628   5.847   4.923 -0.4710 -0.1530 -1.5397
  630MOL0     H85050   3.429   5.726   4.924 -1.3466 -0.5954 -0.2302
  631MOL0     O85051   6.255   8.044   1.491 -0.2221  0.1921  0.3134
  631MOL0     C85052   6.190   8.024   1.593  0.0872 -0.0137  0.0190
  631MOL0     O85053   6.239   7.949   1.696  0.0789 -0.3372 -0.6198
  631MOL0     C85054   6.375   7.915   1.699  0.6776 -0.0963  0.3440
  631MOL0     C85055   6.448   7.857   1.593  0.9881  0.2605 -0.2382
  631MOL0     C85056   6.584   7.826   1.598  0.1666  0.0799  0.2562
  631MOL0     C85057   6.645   7.843   1.722 -0.1163  0.2371  0.5061
  631MOL0     O85058   6.766   7.792   1.740  0.2103 -0.3350 -0.3326
  631MOL0     C85059   6.763   7.652   1.773 -0.1271  1.0236 -0.5085
  631MOL0     C85060   6.906   7.628   1.832  0.0278  0.2616  0.9673
  631MOL0     C85061   6.918   7.480   1.870  0.1429  0.6585 -0.6176
  631MOL0     C85062   7.009   7.460   1.994  0.2310 -0.6075  0.1196
  631MOL0     C85063   7.001   7.322   2.061  0.2486  0.3793  0.8679
  631MOL0     C85064   7.030   7.211   1.954 -0.2721  0.5924 -0.0086
  631MOL0     C85065   7.068   7.073   2.024 -0.1685 -0.5223  0.1579
  631MOL0     C85066   7.085   6.967   1.916 -0.2462  0.7359 -0.7972
  631MOL0     N85067   6.964   6.967   1.830  0.2312  0.6308 -0.6926
  631MOL0     C85068   6.835   6.935   1.877 -0.1364  1.0930  0.3573
  631MOL0     C85069   6.752   6.987   1.779  0.0404 -0.0996 -0.2067
  631MOL0     C85070   6.607   6.998   1.772 -0.0938 -0.4620 -0.7630
  631MOL0     C85071   6.548   6.871   1.812 -0.1067  0.4697 -0.0529
  631MOL0     C85072   6.394   6.858   1.773 -0.3026  0.6210 -0.8902
  631MOL0     C85073   6.342   6.720   1.791  0.0413 -0.3712 -0.1688
  631MOL0     O85074   6.380   6.660   1.914  0.3732  0.6054  0.4977
  631MOL0     C85075   6.329   6.717   2.029  0.0388 -0.1396  0.3657
  631MOL0     C85076   6.382   6.663   2.140  0.5099  0.6298 -0.3379
  631MOL0     C85077   6.329   6.674   2.277  0.0575 -0.5073  0.2214
  631MOL0     C85078   6.399   6.620   2.397 -0.1405 -0.0914  0.0287
  631MOL0     C85079   6.204   6.740   2.287 -0.5445 -0.5690  0.3423
  631MOL0     C85080   6.121   6.753   2.410 -0.4966  0.1709 -0.7547
  631MOL0     O85081   6.033   6.863   2.428  0.5061  0.2199 -0.0080
  631MOL0     C85082   5.965   6.887   2.545 -0.4444  0.4822 -0.7271
  631MOL0     C85083   5.828   6.905   2.548 -0.4968 -0.2591 -0.7204
  631MOL0     C85084   5.751   6.915   2.665  0.8532  0.5098  0.1580
  631MOL0     C85085   5.814   6.911   2.788 -0.4254 -0.0249  0.6493
  631MOL0     O85086   5.730   6.911   2.904  0.4989 -0.1323  0.4520
  631MOL0     C85087   5.797   6.924   3.033 -1.1357 -0.4357  0.2174
  631MOL0     C85088   5.697   6.958   3.142  0.5682  0.5555  0.3499
  631MOL0     C85089   5.644   7.102   3.139 -0.5397 -0.2940  0.0213
  631MOL0     C85090   5.524   7.119   3.246 -0.2905 -0.7065 -0.3826
  631MOL0     C85091   5.397   7.071   3.179  0.1055  1.2038 -0.0296
  631MOL0     C85092   5.281   7.148   3.252  0.3337 -0.2220  0.7418
  631MOL0     C85093   5.158   7.140   3.159  0.4020  0.2627  0.1588
  631MOL0     C85094   5.027   7.196   3.219 -0.1019 -1.0654 -0.0804
  631MOL0    Cl85095   5.041   7.350   3.293 -0.0171 -0.3600 -0.4614
  631MOL0     C85096   5.954   6.890   2.785 -0.1169 -0.4685  0.6273
  631MOL0     C85097   6.028   6.883   2.671  0.5558  0.5077  0.3805
  631MOL0     O85098   6.132   6.660   2.487 -0.6157 -0.1284  0.0470
  631MOL0     C85099   6.147   6.802   2.169  0.3399 -0.4942 -1.1611
  631MOL0     C85100   6.211   6.788   2.049  0.4184  0.2261  0.7876
  631MOL0     N85101   6.832   7.013   1.669 -0.2028  0.0329  0.5469
  631MOL0     N85102   6.955   7.009   1.700  0.1855  0.4640  0.6357
  631MOL0     C85103   6.581   7.909   1.822  0.1379 -0.4672 -0.7536
  631MOL0     C85104   6.451   7.948   1.813  0.0341 -0.5308 -0.2176
  631MOL0     C85105   6.051   8.079   1.598 -0.3212  0.3173 -0.6747
  631MOL0     C85106   5.990   8.142   1.492 -0.2303  0.1836 -0.1834
  631MOL0     C85107   5.862   8.197   1.491  0.0599  0.4197  0.0759
  631MOL0     C85108   5.784   8.190   1.613  0.2679  0.7971 -0.5654
  631MOL0     O85109   5.662   8.239   1.616  0.4151 -0.4310 -0.7341
  631MOL0     C85110   5.576   8.209   1.732 -1.5205 -0.9284  1.6096
  631MOL0     C85111   5.431   8.209   1.700  0.0877 -0.1137 -0.3909
  631MOL0     C85112   5.356   8.179   1.836  0.8503 -0.3845 -0.4269
  631MOL0     C85113   5.201   8.186   1.815 -0.1144 -0.0207 -0.6655
  631MOL0     C85114   5.135   8.210   1.945  0.3024 -0.3939  0.4827
  631MOL0     C85115   5.083   8.260   2.044 -0.2120  0.6587 -0.0055
  631MOL0     C85116   5.854   8.143   1.719  0.5270  0.1968  0.2417
  631MOL0     C85117   5.982   8.087   1.714  0.2896  0.3233 -0.1247
  631MOL0     H85118   6.392   7.833   1.503  0.1665  3.1679 -0.6150
  631MOL0     H85119   6.628   7.776   1.512  0.9624  0.2203  0.5773
  631MOL0     H85120   6.682   7.642   1.847  0.7884 -0.2552  0.3500
  631MOL0     H85121   6.738   7.584   1.692 -3.0632  0.1080  0.9976
  631MOL0     H85122   6.976   7.641   1.748  0.4621  0.0454  1.2920
  631MOL0     H85123   6.926   7.685   1.923  4.7260  0.0155  0.3498
  631MOL0     H85124   6.818   7.436   1.884  0.6323 -0.9926 -1.9336
  631MOL0     H85125   6.959   7.423   1.786  1.2401 -0.9515  0.9308
  631MOL0     H85126   7.110   7.486   1.960 -1.2513  2.6324 -2.3219
  631MOL0     H85127   6.980   7.535   2.069 -0.2816  0.6478 -1.2924
  631MOL0     H85128   7.075   7.335   2.142  0.4728  2.4479  0.3956
  631MOL0     H85129   6.905   7.307   2.111 -0.3178 -1.1441 -0.6342
  631MOL0     H85130   6.942   7.196   1.892 -0.0521 -0.2541 -0.1236
  631MOL0     H85131   7.107   7.245   1.884 -1.3607  3.9698  0.2330
  631MOL0     H85132   7.164   7.079   2.075  1.7113 -1.7388 -2.9644
  631MOL0     H85133   6.995   7.039   2.098  0.4998 -1.4265  0.4177
  631MOL0     H85134   7.091   6.867   1.960 -0.4591  2.0582  2.4615
  631MOL0     H85135   7.176   6.981   1.857 -0.9097  1.4257 -1.6784
  631MOL0     H85136   6.807   6.884   1.969  1.1541 -1.5496 -0.6338
  631MOL0     H85137   6.575   7.082   1.834  0.4000 -3.0102  3.3012
  631MOL0     H85138   6.574   7.017   1.669  1.6733 -0.2751 -1.3461
  631MOL0     H85139   6.565   6.855   1.919  1.8332  1.4329 -0.1792
  631MOL0     H85140   6.610   6.802   1.754  0.0988  1.0800 -0.5681
  631MOL0     H85141   6.375   6.898   1.673  0.1819  1.7309 -0.5506
  631MOL0     H85142   6.333   6.926   1.833 -2.1793 -0.6680 -1.2517
  631MOL0     H85143   6.382   6.664   1.707 -1.6885 -0.3022 -1.0791
  631MOL0     H85144   6.236   6.740   1.776  0.1717 -0.7716 -1.8172
  631MOL0     H85145   6.470   6.601   2.125 -1.7251 -2.5651 -1.2342
  631MOL0     H85146   6.342   6.542   2.448  1.1332 -0.5557  0.7992
  631MOL0     H85147   6.488   6.562   2.369 -2.1474 -4.1342  1.1487
  631MOL0     H85148   6.419   6.697   2.471 -2.2450 -0.4218  1.0119
  631MOL0     H85149   5.780   6.906   2.451 -1.7179 -4.5630 -0.3815
  631MOL0     H85150   5.642   6.916   2.666  0.8499  1.9820  1.6835
  631MOL0     H85151   5.839   6.825   3.052 -1.0008 -0.7633 -1.6109
  631MOL0     H85152   5.883   6.990   3.025  1.1440 -3.3973 -1.9024
  631MOL0     H85153   5.615   6.887   3.129 -0.6231  1.7264  1.2134
  631MOL0     H85154   5.741   6.939   3.240  1.9530 -1.7899 -0.6396
  631MOL0     H85155   5.622   7.127   3.034  2.3033 -3.3047 -1.4944
  631MOL0     H85156   5.722   7.171   3.173 -1.2637  0.4990  0.1228
  631MOL0     H85157   5.542   7.052   3.329  0.8981  2.1783  1.8709
  631MOL0     H85158   5.514   7.223   3.278  0.7186 -0.0643 -2.0260
  631MOL0     H85159   5.394   6.963   3.196 -0.2810  1.3062  0.5981
  631MOL0     H85160   5.407   7.088   3.072 -2.6937  1.1403 -0.3762
  631MOL0     H85161   5.251   7.114   3.352 -1.4109 -2.9453 -0.5771
  631MOL0     H85162   5.306   7.254   3.252 -1.4910  0.2549  1.1882
  631MOL0     H85163   5.143   7.035   3.132 -0.2578 -0.2583  2.3742
  631MOL0     H85164   5.178   7.202   3.071 -4.2772  1.8108 -0.0912
  631MOL0     H85165   4.990   7.133   3.301 -0.7009 -1.2669 -0.4946
  631MOL0     H85166   4.947   7.207   3.145  0.3845 -1.4838 -0.6680
  631MOL0     H85167   6.002   6.868   2.880 -0.5838 -0.8567  0.7763
  631MOL0     H85168   6.129   6.843   2.677  0.1499 -0.6162  0.0113
  631MOL0     H85169   6.052   6.852   2.185  1.5346  1.1488  1.4074
  631MOL0     H85170   6.149   6.823   1.967  0.5756 -1.0687  0.0792
  631MOL0     H85171   6.636   7.917   1.916 -1.5893 -2.4807  0.5380
  631MOL0     H85172   6.405   8.003   1.894 -0.2257 -2.5764  1.0971
  631MOL0     H85173   6.044   8.134   1.398  2.5639  1.6421  1.1704
  631MOL0     H85174   5.801   8.234   1.409 -1.9091 -0.1209  1.2217
  631MOL0     H85175   5.588   8.110   1.779 -1.6709 -1.9116 -0.3193
  631MOL0     H85176   5.599   8.285   1.806 -1.6020  1.5379 -0.7599
  631MOL0     H85177   5.416   8.139   1.617  1.9557  0.7153 -1.4974
  631MOL0     H85178   5.387   8.306   1.675  0.3791  0.6250  1.7273
  631MOL0     H85179   5.392   8.255   1.905 -2.2206  2.8239 -2.0291
  631MOL0     H85180   5.380   8.078   1.871  2.1695  0.0988  0.1237
  631MOL0     H85181   5.171   8.089   1.775 -3.2801  0.7144 -0.2911
  631MOL0     H85182   5.163   8.264   1.748  1.6243  1.4476 -0.0238
  631MOL0     H85183   5.033   8.317   2.120 -2.0521 -0.5718 -0.2289
  631MOL0     H85184   5.807   8.141   1.817  2.8359  0.7765  1.4205
  631MOL0     H85185   6.020   8.039   1.804 -1.3932 -0.3421  0.2715
  632MOL0     O85186   0.437  11.139   5.716  0.1260  0.0356  0.4211
  632MOL0     C85187   0.437  11.073   5.817  0.0934 -0.0026 -0.9797
  632MOL0     O85188   0.344  10.991   5.861 -0.1014  0.1308 -0.2093
  632MOL0     C85189   0.224  10.986   5.790  0.8187  0.1196  0.1156
  632MOL0     C85190   0.167  11.081   5.705  0.2050  0.0256  0.0251
  632MOL0     C85191   0.056  11.046   5.629  0.1657  0.3968  0.4917
  632MOL0     C85192  -0.010  10.923   5.642  0.1526  0.5095  0.7472
  632MOL0     O85193  -0.113  10.903   5.554  0.5061  0.5140  0.2386
  632MOL0     C85194  -0.142  10.767   5.533  0.5619 -0.6447 -0.2578
  632MOL0     C85195  -0.247  10.770   5.420 -0.2550 -0.2094 -0.0791
  632MOL0     C85196  -0.294  10.625   5.408 -0.0390  0.0667  0.4585
  632MOL0     C85197  -0.396  10.610   5.295  0.5697  0.3547 -0.7711
  632MOL0     C85198  -0.469  10.479   5.285 -0.4946 -0.0353  0.1466
  632MOL0     C85199  -0.582  10.496   5.191 -0.3404  0.4988 -0.1116
  632MOL0     C85200  -0.680  10.378   5.188 -0.1557 -0.6299 -0.2022
  632MOL0     C85201  -0.622  10.246   5.123 -0.3509 -0.5645  0.0019
  632MOL0     N85202  -0.652  10.258   4.979  0.5182 -0.3142  1.0085
  632MOL0     C85203  -0.746  10.182   4.914  0.2878 -0.4687 -0.3239
  632MOL0     C85204  -0.728  10.214   4.784  1.0975  0.5060  0.0157
  632MOL0     C85205  -0.820  10.173   4.674 -0.1104 -0.4067  0.7299
  632MOL0     C85206  -0.850  10.276   4.552 -1.0795 -0.8569 -0.0198
  632MOL0     C85207  -0.957  10.376   4.600  0.1490 -0.2585 -0.8615
  632MOL0     C85208  -0.918  10.458   4.728 -0.1394  0.6395  0.3251
  632MOL0     O85209  -1.011  10.565   4.753 -0.0746  0.6252  0.2261
  632MOL0     C85210  -1.145  10.533   4.780 -0.0971 -0.2403 -0.2781
  632MOL0     C85211  -1.246  10.600   4.718  0.6478  0.2072  0.1911
  632MOL0     C85212  -1.385  10.581   4.754  0.3837  0.2042  0.6930
  632MOL0     C85213  -1.479  10.680   4.686  0.1798 -0.4346 -0.7872
  632MOL0     C85214  -1.425  10.471   4.845  0.6656 -0.1254  0.1825
  632MOL0     C85215  -1.565  10.443   4.871  1.4216  0.4537 -0.0159
  632MOL0     O85216  -1.645  10.543   4.915 -0.3298 -0.1814  0.3067
  632MOL0     C85217  -1.774  10.527   4.941 -0.2242  0.6032  0.6515
  632MOL0     C85218  -1.804  10.489   5.069  0.3876 -0.1881 -0.1071
  632MOL0     C85219  -1.941  10.477   5.108  1.0448 -0.4262 -0.1349
  632MOL0     C85220  -2.044  10.489   5.016 -0.1678 -1.4706  0.4721
  632MOL0     O85221  -2.174  10.484   5.067  0.5841 -0.0445  0.6518
  632MOL0     C85222  -2.277  10.495   4.974  0.0288  0.1833 -0.4090
  632MOL0     C85223  -2.412  10.493   5.056  0.5050 -0.9677 -0.4216
  632MOL0     C85224  -2.542  10.503   4.982  0.0953 -0.3281 -0.1224
  632MOL0     C85225  -2.651  10.445   5.087  0.2876  0.5555 -0.1603
  632MOL0     C85226  -2.791  10.486   5.051 -0.2448 -0.6436  0.6285
  632MOL0     C85227  -2.896  10.403   5.127 -0.2030  0.2579 -0.1205
  632MOL0     C85228  -3.029  10.468   5.116 -0.1557  0.3248 -0.1630
  632MOL0     C85229  -3.146  10.390   5.172  0.0182 -1.1398 -1.1079
  632MOL0    Cl85230  -3.312  10.459   5.151  0.3658 -0.3231 -0.0049
  632MOL0     C85231  -2.010  10.528   4.879 -0.1090 -0.3240 -0.3025
  632MOL0     C85232  -1.875  10.546   4.842  0.7902  0.0982 -0.4837
  632MOL0     O85233  -1.604  10.326   4.870  0.5159 -0.2955 -0.5722
  632MOL0     C85234  -1.314  10.395   4.893  0.6963  0.5535  0.9134
  632MOL0     C85235  -1.175  10.434   4.871 -0.0423 -0.1624  0.4930
  632MOL0     N85236  -0.626  10.312   4.773  0.5711  0.0882 -0.6556
  632MOL0     N85237  -0.584  10.342   4.895  0.0601  0.0852  0.5787
  632MOL0     C85238   0.031  10.833   5.744 -0.2901  0.4422  0.1190
  632MOL0     C85239   0.149  10.860   5.814 -0.7006 -0.3337  0.2044
  632MOL0     C85240   0.548  11.089   5.920 -0.5095 -0.5166  0.5510
  632MOL0     C85241   0.517  11.064   6.060  0.6588  0.0327  1.2743
  632MOL0     C85242   0.622  11.083   6.151 -0.5076  0.3643  0.2089
  632MOL0     C85243   0.752  11.124   6.108  0.0798 -0.6992 -0.0478
  632MOL0     O85244   0.845  11.128   6.208 -0.5489 -0.7740  0.4115
  632MOL0     C85245   0.949  11.223   6.179  0.4930 -0.2334  0.4295
  632MOL0     C85246   1.063  11.227   6.284  0.0883  0.6134  0.1836
  632MOL0     C85247   1.126  11.093   6.326  0.5559  0.3665 -0.0984
  632MOL0     C85248   1.193  11.006   6.214 -0.5926 -0.0561  0.4952
  632MOL0     C85249   1.307  11.082   6.150  0.5651  0.5979 -1.3325
  632MOL0     C85250   1.385  11.163   6.113 -0.3262  0.6996 -0.4855
  632MOL0     C85251   0.775  11.138   5.970 -0.2242 -0.2233  0.3679
  632MOL0     C85252   0.676  11.122   5.877 -0.2629 -0.7863 -0.4532
  632MOL0     H85253   0.209  11.179   5.684  0.0948 -0.3663 -2.2684
  632MOL0     H85254   0.002  11.109   5.559 -2.0390 -0.5490  1.2225
  632MOL0     H85255  -0.058  10.710   5.495  2.7129  0.2227  2.7961
  632MOL0     H85256  -0.176  10.722   5.626 -0.5810  0.7420  0.0458
  632MOL0     H85257  -0.323  10.840   5.456  0.2508 -0.4596  1.5709
  632MOL0     H85258  -0.208  10.813   5.328 -0.0008  2.1339  1.0352
  632MOL0     H85259  -0.212  10.555   5.388 -2.1370 -2.0714 -1.3488
  632MOL0     H85260  -0.330  10.593   5.506  0.0712 -0.1100  0.4421
  632MOL0     H85261  -0.469  10.689   5.313 -0.6534 -1.0550  0.7752
  632MOL0     H85262  -0.347  10.626   5.198  1.4756  0.1455 -0.3640
  632MOL0     H85263  -0.396  10.403   5.255  1.6644  1.6862  0.7337
  632MOL0     H85264  -0.518  10.451   5.379  0.6736 -3.0257 -0.0427
  632MOL0     H85265  -0.644  10.578   5.229  0.6399  0.6807  1.1537
  632MOL0     H85266  -0.541  10.523   5.093 -1.9138 -0.3746 -1.0569
  632MOL0     H85267  -0.717  10.358   5.288 -1.4877 -1.6802 -0.8710
  632MOL0     H85268  -0.765  10.416   5.131 -0.3799 -3.5389 -2.0162
  632MOL0     H85269  -0.675  10.164   5.172 -2.6337  0.5200 -0.4685
  632MOL0     H85270  -0.516  10.227   5.140 -0.3359  0.7281  1.6102
  632MOL0     H85271  -0.825  10.120   4.954 -1.5666  0.5433 -2.2021
  632MOL0     H85272  -0.776  10.089   4.620 -0.9395  0.6374 -1.7454
  632MOL0     H85273  -0.917  10.134   4.708 -1.8204  1.2735 -1.8116
  632MOL0     H85274  -0.877  10.225   4.459 -2.4869 -1.6158  0.7827
  632MOL0     H85275  -0.755  10.326   4.532 -2.4733  2.1131  0.2494
  632MOL0     H85276  -1.051  10.328   4.625  0.3052  0.1438  0.5448
  632MOL0     H85277  -0.970  10.450   4.520  1.7332  1.9833  0.8159
  632MOL0     H85278  -0.817  10.499   4.721  0.9173 -1.1562  3.0375
  632MOL0     H85279  -0.924  10.392   4.815 -0.1595  0.8987  0.5193
  632MOL0     H85280  -1.225  10.691   4.663  0.0722  1.9447  2.6712
  632MOL0     H85281  -1.581  10.670   4.722  0.0923  0.2945 -0.8194
  632MOL0     H85282  -1.451  10.782   4.712 -0.0669 -0.1635 -1.5570
  632MOL0     H85283  -1.479  10.664   4.578 -0.0351 -2.0303 -0.5742
  632MOL0     H85284  -1.728  10.474   5.146  0.5490  1.8423  0.1758
  632MOL0     H85285  -1.970  10.455   5.211  1.8034  0.2713  0.2348
  632MOL0     H85286  -2.266  10.581   4.907 -1.3682 -2.0539 -3.7463
  632MOL0     H85287  -2.285  10.405   4.913 -0.7139  1.1738 -1.8159
  632MOL0     H85288  -2.408  10.399   5.112 -2.0223 -0.8227  0.0977
  632MOL0     H85289  -2.410  10.576   5.128  1.0601 -2.0522  0.8683
  632MOL0     H85290  -2.534  10.440   4.893 -0.6312 -0.3378 -0.1898
  632MOL0     H85291  -2.563  10.608   4.959 -0.6676  0.0796  2.1066
  632MOL0     H85292  -2.647  10.336   5.097  1.6793  0.3167 -2.5292
  632MOL0     H85293  -2.639  10.492   5.185 -3.1197  2.1518 -0.3514
  632MOL0     H85294  -2.808  10.474   4.944 -0.5709 -0.7835  0.6944
  632MOL0     H85295  -2.800  10.592   5.077 -0.5883 -0.5572  0.1731
  632MOL0     H85296  -2.905  10.306   5.078 -1.8622 -0.0563  0.7641
  632MOL0     H85297  -2.878  10.388   5.234  0.3589  0.3283 -0.2005
  632MOL0     H85298  -3.049  10.484   5.010  1.1849 -1.9274 -0.8426
  632MOL0     H85299  -3.012  10.556   5.178  0.1998 -1.1236  1.9026
  632MOL0     H85300  -3.130  10.384   5.280  5.3133 -0.7190 -1.6173
  632MOL0     H85301  -3.147  10.285   5.141 -1.7620 -1.6153  0.3892
  632MOL0     H85302  -2.084  10.542   4.802 -0.2449  3.3817  0.3199
  632MOL0     H85303  -1.859  10.574   4.738 -3.5832  0.8409 -1.1491
  632MOL0     H85304  -1.316  10.301   4.947  1.1217 -1.4691 -2.2920
  632MOL0     H85305  -1.101  10.390   4.935  0.2295  1.2126  1.1700
  632MOL0     H85306  -0.005  10.733   5.766  2.1049 -1.2172 -2.7024
  632MOL0     H85307   0.177  10.788   5.890 -1.8989 -2.5175 -1.3330
  632MOL0     H85308   0.412  11.053   6.087 -0.4258 -0.9102 -2.7296
  632MOL0     H85309   0.615  11.062   6.257 -3.1022  0.4754  0.1215
  632MOL0     H85310   1.003  11.184   6.093 -2.1761 -1.1353 -0.9705
  632MOL0     H85311   0.923  11.329   6.173 -1.1134 -0.5858  0.6828
  632MOL0     H85312   1.026  11.278   6.373  0.4448  0.0076  0.6833
  632MOL0     H85313   1.149  11.286   6.251  0.7606 -1.4949 -2.2291
  632MOL0     H85314   1.040  11.042   6.372  1.6400 -1.6689 -0.2195
  632MOL0     H85315   1.197  11.108   6.407  0.3038  2.7474 -0.2452
  632MOL0     H85316   1.119  10.986   6.136 -1.7379  0.3510  1.4442
  632MOL0     H85317   1.223  10.919   6.272 -0.5072  0.8180  1.8032
  632MOL0     H85318   1.465  11.216   6.063  0.1619  0.2685 -0.1706
  632MOL0     H85319   0.872  11.159   5.925 -0.6704  1.7558  0.2144
  632MOL0     H85320   0.697  11.126   5.771  0.8801  0.1720 -0.2146
  633MOL0     O85321  10.440   6.383   1.670  0.5030  0.3326 -0.1901
  633MOL0     C85322  10.538   6.387   1.743  0.8682 -0.1243 -0.2448
  633MOL0     O85323  10.543   6.328   1.875 -0.0579  0.5264  0.4011
  633MOL0     C85324  10.422   6.288   1.927 -0.3663 -0.4695 -0.3380
  633MOL0     C85325  10.434   6.196   2.027  0.2304  0.6279  0.1089
  633MOL0     C85326  10.324   6.154   2.098 -0.1631 -0.4762  0.3887
  633MOL0     C85327  10.194   6.212   2.065 -0.8655  0.1702 -0.1610
  633MOL0     O85328  10.097   6.161   2.139  0.1857  0.0797 -0.1706
  633MOL0     C85329  10.046   6.248   2.237 -0.2681  0.4525  0.2042
  633MOL0     C85330   9.902   6.201   2.282 -0.7028  0.2194 -0.2749
  633MOL0     C85331   9.856   6.296   2.400  0.7819  1.3675  0.7460
  633MOL0     C85332   9.722   6.268   2.462  0.7847  0.2565 -0.1851
  633MOL0     C85333   9.605   6.280   2.360  0.5117  0.1772 -0.9176
  633MOL0     C85334   9.471   6.215   2.412  0.7198  0.1753  0.7793
  633MOL0     C85335   9.366   6.219   2.297  0.0425 -0.3132  0.2461
  633MOL0     C85336   9.241   6.146   2.340  0.9833  0.3461 -0.1334
  633MOL0     N85337   9.139   6.124   2.235 -0.7987  0.9238 -0.5670
  633MOL0     C85338   9.034   6.031   2.251  1.0841 -0.2886  0.1119
  633MOL0     C85339   8.939   6.076   2.158  0.0754  0.3830 -0.8426
  633MOL0     C85340   8.808   6.008   2.119  0.9457  0.6437 -0.6120
  633MOL0     C85341   8.838   5.869   2.070 -0.2763 -0.1399 -0.1473
  633MOL0     C85342   8.723   5.812   1.984 -0.5828 -1.0359 -0.4769
  633MOL0     C85343   8.730   5.667   1.947  0.0538  0.7818  0.2981
  633MOL0     O85344   8.700   5.593   2.071 -0.0250 -0.0379 -0.2841
  633MOL0     C85345   8.571   5.549   2.080 -1.4321  0.7561  0.9407
  633MOL0     C85346   8.503   5.599   2.193 -0.3132 -0.5013  1.0482
  633MOL0     C85347   8.364   5.560   2.224 -0.0448 -0.6059 -0.0978
  633MOL0     C85348   8.307   5.593   2.358 -0.1996 -0.3284 -0.1353
  633MOL0     C85349   8.301   5.479   2.121  0.0312 -0.6298  0.0015
  633MOL0     C85350   8.155   5.441   2.133  0.2206 -0.0862  0.2714
  633MOL0     O85351   8.120   5.321   2.078  0.0186  0.6438  0.7809
  633MOL0     C85352   7.986   5.283   2.086  0.3223 -0.3369  0.3672
  633MOL0     C85353   7.903   5.295   2.199  0.7844 -0.8363  0.4859
  633MOL0     C85354   7.766   5.247   2.203  0.0016 -0.1769 -1.0143
  633MOL0     C85355   7.718   5.184   2.089 -0.5374  0.1137 -0.1748
  633MOL0     O85356   7.593   5.129   2.096 -0.6657 -0.1477  0.0212
  633MOL0     C85357   7.503   5.117   1.980  0.2433  0.3479  0.3213
  633MOL0     C85358   7.364   5.092   2.025  0.1311  0.2683 -0.3326
  633MOL0     C85359   7.336   4.972   2.115 -0.4548  0.0068  0.1138
  633MOL0     C85360   7.197   4.990   2.181 -0.6025 -0.4964  0.1187
  633MOL0     C85361   7.148   4.870   2.261 -0.9757  0.2088  0.3634
  633MOL0     C85362   6.995   4.894   2.293 -0.1991 -0.3206  0.3468
  633MOL0     C85363   6.953   4.779   2.386 -0.4829  0.8259  0.8745
  633MOL0     C85364   6.809   4.780   2.426 -0.0286 -0.0249  1.0222
  633MOL0    Cl85365   6.767   4.657   2.559 -0.7780 -0.0161  0.3061
  633MOL0     C85366   7.801   5.160   1.979 -0.2503  0.1356  0.6813
  633MOL0     C85367   7.927   5.219   1.974  0.0738  0.0654 -0.4435
  633MOL0     O85368   8.089   5.520   2.198 -0.5237 -0.0347  0.1360
  633MOL0     C85369   8.371   5.434   2.014  0.1505  0.1860 -0.7294
  633MOL0     C85370   8.506   5.455   1.995 -0.4311  0.0698  0.3847
  633MOL0     N85371   8.988   6.194   2.101 -0.5415 -0.0722 -0.0335
  633MOL0     N85372   9.099   6.222   2.150 -0.5441 -0.3094 -0.2274
  633MOL0     C85373  10.182   6.323   1.980  0.1432 -0.6170  0.5730
  633MOL0     C85374  10.296   6.359   1.908  0.1594  0.1399  0.4200
  633MOL0     C85375  10.650   6.467   1.700  0.0394  0.0957  0.9939
  633MOL0     C85376  10.745   6.503   1.800  0.1136  0.2246  0.1884
  633MOL0     C85377  10.855   6.583   1.772 -0.7832  0.8246 -0.9363
  633MOL0     C85378  10.884   6.634   1.644  0.5359  0.1369  0.2623
  633MOL0     O85379  10.995   6.710   1.642  0.0713 -0.1581 -0.2365
  633MOL0     C85380  10.999   6.825   1.551  0.4917  0.3749  0.0220
  633MOL0     C85381  11.111   6.784   1.453  0.0603 -0.8954  0.5387
  633MOL0     C85382  11.253   6.828   1.496  0.1388  0.7462  0.3460
  633MOL0     C85383  11.360   6.805   1.388 -0.5303 -0.7785  0.7518
  633MOL0     C85384  11.499   6.805   1.426 -0.1261  0.3690 -0.6218
  633MOL0     C85385  11.619   6.809   1.464 -0.3656  0.7591  0.1978
  633MOL0     C85386  10.786   6.592   1.533 -0.1663 -0.5785  0.5633
  633MOL0     C85387  10.678   6.512   1.570 -0.0781 -0.6162  0.5229
  633MOL0     H85388  10.532   6.150   2.039 -0.4520 -0.9293 -0.0735
  633MOL0     H85389  10.347   6.080   2.173 -2.4272 -1.9356 -0.2440
  633MOL0     H85390  10.115   6.246   2.322 -0.5327 -1.9889  0.4462
  633MOL0     H85391  10.039   6.351   2.201  2.6490  0.3751 -0.9159
  633MOL0     H85392   9.831   6.202   2.199 -2.2527  2.1916  0.9748
  633MOL0     H85393   9.919   6.101   2.321 -0.8584 -0.0126 -0.7912
  633MOL0     H85394   9.948   6.292   2.458  1.2231 -3.0286  0.0819
  633MOL0     H85395   9.849   6.398   2.359 -1.7296  0.4904 -1.2868
  633MOL0     H85396   9.729   6.164   2.494  5.1239  0.6127  0.5852
  633MOL0     H85397   9.698   6.327   2.550 -2.3579 -0.2289 -0.6022
  633MOL0     H85398   9.578   6.385   2.342  0.9949  0.3246 -0.8042
  633MOL0     H85399   9.638   6.229   2.270 -2.1051 -3.4387 -0.0839
  633MOL0     H85400   9.503   6.113   2.435  1.5668  0.6586  1.8866
  633MOL0     H85401   9.432   6.258   2.504 -3.1250 -0.4083 -0.4108
  633MOL0     H85402   9.335   6.318   2.262 -1.3560 -0.1801  1.6847
  633MOL0     H85403   9.410   6.166   2.213  0.7484 -0.0669  0.4568
  633MOL0     H85404   9.193   6.206   2.417  1.7418 -0.9228  1.3792
  633MOL0     H85405   9.278   6.055   2.389  0.8170 -0.0699 -0.7635
  633MOL0     H85406   9.039   5.938   2.308  3.9801 -1.0525 -1.2012
  633MOL0     H85407   8.745   6.009   2.208  3.3310 -2.2528  1.3137
  633MOL0     H85408   8.760   6.066   2.040  0.8471 -1.7873 -2.4304
  633MOL0     H85409   8.846   5.803   2.157  1.5983  3.1496  2.4168
  633MOL0     H85410   8.930   5.863   2.011 -1.3191 -1.0518 -1.7665
  633MOL0     H85411   8.714   5.870   1.892 -0.3652  3.8470  2.2153
  633MOL0     H85412   8.631   5.844   2.035  0.1423  2.6206 -1.1657
  633MOL0     H85413   8.829   5.640   1.910  0.4659 -0.1461  1.9748
  633MOL0     H85414   8.656   5.646   1.870  0.3075 -1.9838  0.7026
  633MOL0     H85415   8.572   5.656   2.254  0.0451  5.0979 -3.6777
  633MOL0     H85416   8.244   5.681   2.341  1.0938  0.8470  0.8948
  633MOL0     H85417   8.253   5.514   2.411 -0.5532  0.6476  1.0198
  633MOL0     H85418   8.377   5.624   2.437 -1.3902  0.6252  0.5855
  633MOL0     H85419   7.925   5.349   2.291 -1.6635  2.8303 -0.8122
  633MOL0     H85420   7.709   5.257   2.295  1.8239  1.7076  0.0044
  633MOL0     H85421   7.500   5.210   1.921 -2.8082  0.2236  0.1163
  633MOL0     H85422   7.542   5.039   1.915  0.0094  2.0980 -2.0422
  633MOL0     H85423   7.346   5.185   2.079  1.6435  0.8843 -0.8369
  633MOL0     H85424   7.293   5.085   1.942  1.2742 -0.9803 -1.2497
  633MOL0     H85425   7.408   4.957   2.197 -0.5911 -0.3118  0.1749
  633MOL0     H85426   7.345   4.886   2.049 -1.8208  0.0510 -0.1529
  633MOL0     H85427   7.183   5.076   2.247 -1.5021 -0.2971 -0.3225
  633MOL0     H85428   7.127   5.004   2.098 -0.6885 -2.3270 -0.1502
  633MOL0     H85429   7.210   4.865   2.352  0.7566  0.1242 -0.7785
  633MOL0     H85430   7.166   4.777   2.206 -0.0906  0.1942  0.6591
  633MOL0     H85431   6.978   4.992   2.339  1.1020 -0.8464  2.0072
  633MOL0     H85432   6.934   4.908   2.203  0.1206 -0.1099  0.1626
  633MOL0     H85433   7.007   4.801   2.479 -2.1646  1.3443  1.7755
  633MOL0     H85434   6.985   4.685   2.341  1.2028  2.7717 -2.3992
  633MOL0     H85435   6.755   4.754   2.335 -2.0935 -0.7905  2.3809
  633MOL0     H85436   6.778   4.877   2.466 -1.5033 -0.4887  1.0933
  633MOL0     H85437   7.766   5.116   1.886  1.3402 -1.4121  0.7531
  633MOL0     H85438   7.994   5.212   1.889  1.3200 -1.9449  0.6149
  633MOL0     H85439   8.319   5.365   1.949  3.3545 -2.1843 -1.0322
  633MOL0     H85440   8.556   5.413   1.908 -0.2450 -2.4250  1.6074
  633MOL0     H85441  10.090   6.380   1.984 -0.2615 -1.0255 -1.7632
  633MOL0     H85442  10.285   6.442   1.840  0.9738 -0.9747 -1.1480
  633MOL0     H85443  10.735   6.489   1.908  1.1907  1.7752  0.5234
  633MOL0     H85444  10.921   6.611   1.854 -1.3416  2.3410 -0.9706
  633MOL0     H85445  10.902   6.840   1.502  0.8509  1.1567 -0.4685
  633MOL0     H85446  11.020   6.918   1.604 -3.6854  2.1582 -1.0459
  633MOL0     H85447  11.086   6.834   1.358  1.7865  1.1665  1.0994
  633MOL0     H85448  11.106   6.676   1.434  1.0422 -0.6476 -1.3771
  633MOL0     H85449  11.295   6.768   1.577  2.0697  1.1606 -0.2811
  633MOL0     H85450  11.267   6.933   1.524  0.8810  0.3038  1.7428
  633MOL0     H85451  11.345   6.895   1.328  2.2739  0.6070  1.9324
  633MOL0     H85452  11.352   6.706   1.342  1.0975 -0.5306 -0.1241
  633MOL0     H85453  11.716   6.813   1.508 -1.6705  0.1445  3.4625
  633MOL0     H85454  10.804   6.632   1.434 -0.3156 -2.5633 -0.3311
  633MOL0     H85455  10.597   6.487   1.502  0.7258 -1.2781 -0.2097
  634MOL0     O85456   8.259   4.425   0.614  0.7893  0.1392  0.3916
  634MOL0     C85457   8.289   4.337   0.540  0.6602  0.0272  0.2059
  634MOL0     O85458   8.218   4.233   0.509 -0.0372 -0.2584  0.3616
  634MOL0     C85459   8.103   4.208   0.577 -0.0280 -0.2165  0.1525
  634MOL0     C85460   7.987   4.168   0.504  0.6908 -1.3250  0.1294
  634MOL0     C85461   7.872   4.131   0.570 -0.3592 -0.7319 -0.3734
  634MOL0     C85462   7.865   4.134   0.710 -1.1185  0.2102 -0.3234
  634MOL0     O85463   7.755   4.075   0.764  0.1991 -0.2592  0.3094
  634MOL0     C85464   7.727   4.115   0.903  0.5100  1.1111 -0.7168
  634MOL0     C85465   7.578   4.082   0.933 -0.1820 -0.5110  0.0935
  634MOL0     C85466   7.525   4.145   1.062 -0.2090  0.0726 -0.0983
  634MOL0     C85467   7.400   4.072   1.103  0.3336  0.3897 -0.4840
  634MOL0     C85468   7.337   4.124   1.225  0.8488  0.5456  0.8165
  634MOL0     C85469   7.201   4.069   1.269 -0.2343  0.3527 -0.6780
  634MOL0     C85470   7.149   4.110   1.402 -0.8290  0.1698 -0.2892
  634MOL0     C85471   6.998   4.083   1.397  0.2224 -0.0560 -0.7788
  634MOL0     N85472   6.931   4.114   1.529 -0.5907 -0.8734 -0.1299
  634MOL0     C85473   6.963   4.195   1.638  0.4541  0.5366 -0.3993
  634MOL0     C85474   6.867   4.184   1.730 -0.3036 -0.1093  0.9263
  634MOL0     C85475   6.864   4.260   1.862  1.0281  0.0767 -0.2203
  634MOL0     C85476   6.966   4.204   1.963 -0.3719  1.0920  0.0799
  634MOL0     C85477   6.932   4.069   2.026 -0.3016 -0.6072 -0.0838
  634MOL0     C85478   7.053   4.022   2.105 -0.3417  0.0116  0.1234
  634MOL0     O85479   7.143   3.944   2.018 -0.0284 -0.4553  0.6576
  634MOL0     C85480   7.138   3.808   2.038 -0.0555 -0.6779 -0.3053
  634MOL0     C85481   7.017   3.742   2.061  0.6599  0.9647  0.2828
  634MOL0     C85482   7.017   3.599   2.073  0.0386 -0.5865 -0.0529
  634MOL0     C85483   6.881   3.541   2.076  0.7807  0.4764  0.2146
  634MOL0     C85484   7.143   3.527   2.067  0.4862  0.7078 -0.1985
  634MOL0     C85485   7.147   3.379   2.080 -0.2073 -0.1917  0.1383
  634MOL0     O85486   7.254   3.316   2.034  0.2304  0.3997  1.2279
  634MOL0     C85487   7.280   3.182   2.027  0.5686  0.7329 -0.0681
  634MOL0     C85488   7.187   3.088   2.086 -0.4671 -0.0761  0.5707
  634MOL0     C85489   7.207   2.950   2.069 -0.2533  0.1593  0.0311
  634MOL0     C85490   7.320   2.898   1.996  0.3496  0.2309 -0.2632
  634MOL0     O85491   7.354   2.759   1.982  0.1898 -0.4198 -0.0142
  634MOL0     C85492   7.268   2.663   2.051 -0.2611 -0.4211 -0.5925
  634MOL0     C85493   7.331   2.519   2.030  0.3328 -0.1072 -0.8976
  634MOL0     C85494   7.234   2.402   2.071  0.1628  0.0914  0.6580
  634MOL0     C85495   7.177   2.406   2.216 -0.9307 -0.0028  0.3701
  634MOL0     C85496   7.276   2.341   2.309 -0.1035 -0.2896 -0.0956
  634MOL0     C85497   7.216   2.319   2.446 -0.1277  0.5866 -0.5059
  634MOL0     C85498   7.294   2.230   2.532  0.0885  0.0503 -0.4213
  634MOL0     C85499   7.252   2.215   2.680 -0.3730  0.1583 -0.6362
  634MOL0    Cl85500   7.070   2.192   2.691  0.3198 -0.1168 -0.6787
  634MOL0     C85501   7.399   2.992   1.940 -0.8395 -0.4120  1.1836
  634MOL0     C85502   7.382   3.126   1.957 -0.3315 -0.6511 -0.4142
  634MOL0     O85503   7.063   3.326   2.153  0.1989 -0.3792  0.1413
  634MOL0     C85504   7.256   3.601   2.058 -0.2620 -0.2089 -1.2195
  634MOL0     C85505   7.260   3.739   2.047  0.1861 -0.7422 -0.6062
  634MOL0     N85506   6.776   4.093   1.682 -0.0955  0.0857  0.6265
  634MOL0     N85507   6.818   4.049   1.571  0.5008 -0.0186  0.6561
  634MOL0     C85508   7.981   4.168   0.784  0.2808  0.3246  0.3028
  634MOL0     C85509   8.095   4.213   0.716 -0.0932 -0.3288  0.7076
  634MOL0     C85510   8.423   4.366   0.468  0.3495  0.5555 -0.4204
  634MOL0     C85511   8.439   4.333   0.336 -0.3258 -0.7285  0.6915
  634MOL0     C85512   8.563   4.337   0.265  1.2208 -0.2227 -0.3156
  634MOL0     C85513   8.675   4.388   0.332  0.6050  0.4685 -0.3253
  634MOL0     O85514   8.794   4.420   0.271 -0.3767 -0.0748 -0.7027
  634MOL0     C85515   8.793   4.455   0.125  0.0325 -0.1296 -0.4532
  634MOL0     C85516   8.852   4.335   0.042 -0.0043  0.1086  0.2420
  634MOL0     C85517   8.820   4.322  -0.107 -0.3191  0.4059 -0.0618
  634MOL0     C85518   8.690   4.392  -0.139 -0.3385 -0.2648 -0.4725
  634MOL0     C85519   8.636   4.374  -0.274  0.8538  0.1271 -0.4034
  634MOL0     C85520   8.584   4.377  -0.386 -0.8148 -0.2374  0.0887
  634MOL0     C85521   8.657   4.413   0.468  0.7923 -0.7741 -0.6835
  634MOL0     C85522   8.535   4.412   0.539 -0.6939  0.6750  0.5570
  634MOL0     H85523   7.987   4.172   0.395 -3.7997 -2.6907 -0.1278
  634MOL0     H85524   7.780   4.092   0.528 -1.9615  2.3126  0.0256
  634MOL0     H85525   7.794   4.067   0.975 -2.5460  1.8212  2.8977
  634MOL0     H85526   7.730   4.224   0.911  2.1457  1.1688 -1.6119
  634MOL0     H85527   7.520   4.122   0.849 -0.3124 -1.7134 -0.4048
  634MOL0     H85528   7.564   3.975   0.919  0.7180 -0.5687 -0.4545
  634MOL0     H85529   7.605   4.141   1.138  0.3369 -1.6866 -0.7172
  634MOL0     H85530   7.508   4.252   1.048 -0.1591  0.3552  1.7896
  634MOL0     H85531   7.322   4.075   1.026 -0.4761 -1.5225  0.1895
  634MOL0     H85532   7.418   3.965   1.117 -0.3289 -0.0867 -2.7732
  634MOL0     H85533   7.401   4.106   1.312  1.7344 -2.1219 -0.2966
  634MOL0     H85534   7.324   4.232   1.212  0.1530  0.6596  2.1891
  634MOL0     H85535   7.124   4.087   1.193 -0.8642 -3.1906 -1.0678
  634MOL0     H85536   7.223   3.961   1.265  0.6924  0.5499 -1.0589
  634MOL0     H85537   7.186   4.053   1.488 -0.1036 -1.2639 -1.4997
  634MOL0     H85538   7.159   4.218   1.410  1.9476 -0.0271 -0.1316
  634MOL0     H85539   6.985   3.976   1.376  0.8917  0.1220 -2.1896
  634MOL0     H85540   6.946   4.146   1.325 -0.6550  0.3025  0.1454
  634MOL0     H85541   7.043   4.265   1.659  0.1085  0.7568  0.2095
  634MOL0     H85542   6.885   4.365   1.841  0.1972  0.2368 -0.2827
  634MOL0     H85543   6.762   4.262   1.901  0.6072  0.6692 -1.3393
  634MOL0     H85544   6.983   4.265   2.052 -1.2486  0.8104  0.4442
  634MOL0     H85545   7.059   4.190   1.906  0.9092 -0.5879  2.4142
  634MOL0     H85546   6.904   3.996   1.950 -1.9648 -2.4626  2.1664
  634MOL0     H85547   6.844   4.077   2.090  0.3104  4.3389  0.5434
  634MOL0     H85548   7.018   3.965   2.191 -0.6634 -0.2147 -0.1507
  634MOL0     H85549   7.103   4.109   2.147  0.9460 -0.9658  0.6813
  634MOL0     H85550   6.923   3.797   2.058  0.0756 -0.0146 -3.1188
  634MOL0     H85551   6.869   3.491   2.172 -2.7817  2.0818  0.7843
  634MOL0     H85552   6.809   3.619   2.051  0.9585  0.8051  0.7154
  634MOL0     H85553   6.867   3.461   2.002  1.8148 -0.4509  0.9911
  634MOL0     H85554   7.096   3.112   2.139  0.2824  3.3957  0.5082
  634MOL0     H85555   7.136   2.882   2.115  0.8279 -0.2658  1.1110
  634MOL0     H85556   7.259   2.693   2.156 -0.2416  0.7188 -0.9104
  634MOL0     H85557   7.167   2.672   2.010  0.0249  0.4489 -1.1237
  634MOL0     H85558   7.346   2.510   1.923 -0.6317  0.4626 -1.0914
  634MOL0     H85559   7.428   2.520   2.081  1.4120  0.0553 -2.8841
  634MOL0     H85560   7.271   2.305   2.035 -1.5674  0.0639 -1.2264
  634MOL0     H85561   7.151   2.411   2.001  1.9437 -1.8682 -1.9128
  634MOL0     H85562   7.162   2.510   2.248 -2.2989 -0.0364 -0.1354
  634MOL0     H85563   7.078   2.362   2.222 -2.8594  3.4789 -2.0901
  634MOL0     H85564   7.366   2.401   2.322  0.5431 -1.0530 -0.9418
  634MOL0     H85565   7.303   2.243   2.270  0.6378  0.6330 -2.0552
  634MOL0     H85566   7.198   2.416   2.493  1.1444  0.7586 -0.3306
  634MOL0     H85567   7.118   2.272   2.435 -0.4831  1.4811 -1.2653
  634MOL0     H85568   7.395   2.273   2.537 -0.2196  0.7576 -0.1056
  634MOL0     H85569   7.295   2.129   2.490 -0.8220  0.5257 -1.6246
  634MOL0     H85570   7.279   2.304   2.738  0.3115  0.5326 -1.5129
  634MOL0     H85571   7.294   2.123   2.721 -1.4559 -0.1472 -0.1689
  634MOL0     H85572   7.489   2.966   1.886 -0.0449 -1.5663  2.9767
  634MOL0     H85573   7.454   3.197   1.918  0.9620 -0.5036  1.9984
  634MOL0     H85574   7.355   3.555   2.063 -0.2214 -0.0623 -0.3863
  634MOL0     H85575   7.358   3.785   2.053  0.2290 -1.0037  2.0600
  634MOL0     H85576   7.974   4.170   0.892 -0.5090  0.8996  0.2502
  634MOL0     H85577   8.185   4.239   0.770 -0.6230 -0.0995  1.5128
  634MOL0     H85578   8.349   4.291   0.293  1.4487 -0.7080 -3.4878
  634MOL0     H85579   8.555   4.310   0.160 -0.3316 -0.2218 -0.2290
  634MOL0     H85580   8.690   4.476   0.095  0.4326 -0.2996 -2.0530
  634MOL0     H85581   8.853   4.546   0.111  0.5768 -0.5972 -1.2205
  634MOL0     H85582   8.830   4.237   0.087  4.1368 -1.3905 -0.5773
  634MOL0     H85583   8.960   4.343   0.053 -0.0305  1.6893 -0.4273
  634MOL0     H85584   8.819   4.214  -0.120 -1.8604  0.2083  1.3747
  634MOL0     H85585   8.902   4.360  -0.169  0.1379 -1.5354 -0.7331
  634MOL0     H85586   8.706   4.499  -0.124  0.7403 -0.5832  0.8581
  634MOL0     H85587   8.618   4.347  -0.070  1.5468  0.8038  2.3583
  634MOL0     H85588   8.538   4.385  -0.483 -0.1344 -1.8564 -0.4182
  634MOL0     H85589   8.745   4.449   0.519  0.5750 -1.1500 -0.0313
  634MOL0     H85590   8.525   4.425   0.647 -1.4300 -1.2543  0.7644
  635MOL0     O85591   2.188   6.253   5.478 -0.1642  0.1362  0.1075
  635MOL0     C85592   2.223   6.142   5.513 -0.2472 -0.7718  0.0873
  635MOL0     O85593   2.351   6.112   5.558 -0.2515  0.5830 -0.2081
  635MOL0     C85594   2.460   6.201   5.537  0.7489 -0.5861 -0.1780
  635MOL0     C85595   2.567   6.188   5.623  0.7291 -0.0924  0.1531
  635MOL0     C85596   2.674   6.272   5.615  0.2892 -0.5038 -0.3360
  635MOL0     C85597   2.673   6.378   5.526  0.0747  0.7842  0.6793
  635MOL0     O85598   2.776   6.461   5.536 -0.0980  0.1629 -0.2667
  635MOL0     C85599   2.830   6.515   5.420  0.5892  0.6009  0.2548
  635MOL0     C85600   2.883   6.659   5.445 -1.1502 -0.7373 -0.1605
  635MOL0     C85601   3.018   6.651   5.517 -0.5099 -0.2002  0.0578
  635MOL0     C85602   3.057   6.787   5.553 -0.3510 -0.4113 -0.4045
  635MOL0     C85603   3.163   6.792   5.661  0.5710  0.2350  0.7234
  635MOL0     C85604   3.306   6.758   5.632 -0.3163  0.3413  0.6230
  635MOL0     C85605   3.378   6.842   5.524 -0.1130  0.0245 -0.3279
  635MOL0     C85606   3.514   6.810   5.463 -0.7632  0.1519 -0.6813
  635MOL0     N85607   3.609   6.770   5.570 -0.3591 -0.2031 -0.0663
  635MOL0     C85608   3.698   6.853   5.627  0.0130  0.1035  0.9115
  635MOL0     C85609   3.769   6.773   5.711  0.4348  0.2993 -0.5617
  635MOL0     C85610   3.876   6.828   5.799 -0.4031  0.0275 -0.5860
  635MOL0     C85611   3.808   6.877   5.927  0.1983 -0.4161  0.2720
  635MOL0     C85612   3.896   6.946   6.025  0.0276 -0.4672 -0.5338
  635MOL0     C85613   4.016   6.871   6.074  0.7431  0.4124  0.2612
  635MOL0     O85614   4.085   6.939   6.182 -0.1888 -0.3790 -0.3585
  635MOL0     C85615   4.178   7.040   6.152 -0.0527  0.2928 -0.1757
  635MOL0     C85616   4.214   7.077   6.019 -0.9909  0.2513  0.6393
  635MOL0     C85617   4.313   7.171   5.991  0.2615  0.2000 -0.8547
  635MOL0     C85618   4.333   7.219   5.854 -0.2581  1.1775  0.0797
  635MOL0     C85619   4.382   7.235   6.108 -0.4963 -0.0680 -0.1706
  635MOL0     C85620   4.491   7.333   6.092  0.1242 -0.4511 -0.0627
  635MOL0     O85621   4.506   7.414   6.204 -0.1000  1.0690 -0.0037
  635MOL0     C85622   4.636   7.470   6.226 -0.4895  0.3650  0.7889
  635MOL0     C85623   4.675   7.597   6.177 -0.0146 -0.2332  0.5184
  635MOL0     C85624   4.810   7.635   6.182 -0.5796 -0.4841 -0.7090
  635MOL0     C85625   4.907   7.552   6.243 -0.8369 -0.1269 -0.1518
  635MOL0     O85626   5.043   7.583   6.247  0.2445  0.4148 -0.3164
  635MOL0     C85627   5.069   7.720   6.263  0.1541 -0.5885  0.0068
  635MOL0     C85628   5.208   7.757   6.326  0.0193  0.0553  0.1448
  635MOL0     C85629   5.234   7.693   6.466  0.8038 -0.5298 -0.5928
  635MOL0     C85630   5.368   7.724   6.515 -0.1253  0.1659  0.6832
  635MOL0     C85631   5.381   7.877   6.551  0.4524  0.0666 -0.2059
  635MOL0     C85632   5.515   7.904   6.627  0.3290  0.4098  1.8318
  635MOL0     C85633   5.506   8.022   6.729 -0.0958  0.3319 -0.2721
  635MOL0     C85634   5.634   8.114   6.733 -0.6130 -0.9632  1.0610
  635MOL0    Cl85635   5.656   8.201   6.581  0.1660 -0.3003  0.4283
  635MOL0     C85636   4.867   7.432   6.308 -0.7386  0.1605  0.1465
  635MOL0     C85637   4.735   7.396   6.293  0.4363  0.6567 -0.3301
  635MOL0     O85638   4.559   7.337   5.992 -0.8280  0.2895 -0.4811
  635MOL0     C85639   4.345   7.203   6.240 -0.1697  0.3142  0.3434
  635MOL0     C85640   4.247   7.105   6.254 -0.0916  0.5298  0.6562
  635MOL0     N85641   3.726   6.636   5.698  0.6226 -0.6350  0.4978
  635MOL0     N85642   3.620   6.647   5.617 -0.0495  0.9721  0.4876
  635MOL0     C85643   2.570   6.388   5.441  0.7972 -0.0534  0.2298
  635MOL0     C85644   2.467   6.297   5.439 -0.4137 -0.0609 -0.0264
  635MOL0     C85645   2.133   6.027   5.507 -0.7940 -0.7353 -0.8643
  635MOL0     C85646   1.999   6.047   5.477 -0.0946  0.3838  0.2962
  635MOL0     C85647   1.904   5.941   5.470 -0.1131 -0.5651  0.1384
  635MOL0     C85648   1.957   5.810   5.498 -0.2414  0.2592 -0.2288
  635MOL0     O85649   1.876   5.705   5.508 -0.0975 -0.3426 -0.5438
  635MOL0     C85650   1.742   5.705   5.454  0.6818 -0.7252  0.6246
  635MOL0     C85651   1.697   5.563   5.469  0.1513  1.2180  0.1994
  635MOL0     C85652   1.610   5.528   5.348  0.0335 -0.3876 -0.3362
  635MOL0     C85653   1.481   5.619   5.339 -0.0214  0.1899 -0.2496
  635MOL0     C85654   1.427   5.617   5.198  0.3180  1.1245 -0.5194
  635MOL0     C85655   1.402   5.612   5.081 -0.0122 -0.3948  0.1157
  635MOL0     C85656   2.095   5.793   5.535  1.3572 -0.3252 -1.0687
  635MOL0     C85657   2.181   5.901   5.538  0.4547 -0.0069  0.1736
  635MOL0     H85658   2.567   6.120   5.707 -4.9230  0.2617  0.7972
  635MOL0     H85659   2.745   6.255   5.696 -1.8461 -3.1892  1.1671
  635MOL0     H85660   2.900   6.448   5.371 -0.4140  1.9453 -3.3486
  635MOL0     H85661   2.759   6.529   5.338  0.2081 -0.2206  0.4373
  635MOL0     H85662   2.892   6.710   5.349  0.0304  0.2176  0.4285
  635MOL0     H85663   2.812   6.714   5.508 -0.8553 -2.9937  2.3045
  635MOL0     H85664   3.011   6.582   5.602  1.9179 -0.6935 -0.0780
  635MOL0     H85665   3.093   6.601   5.455  0.4010  0.6295  0.4608
  635MOL0     H85666   3.092   6.844   5.466  2.1261 -1.0297  0.1225
  635MOL0     H85667   2.972   6.839   5.598 -0.4604 -0.6398 -0.3431
  635MOL0     H85668   3.162   6.894   5.701 -1.8482  0.3316  0.5725
  635MOL0     H85669   3.127   6.728   5.742  1.2915  0.9322  1.6170
  635MOL0     H85670   3.367   6.762   5.723  0.0600 -0.9976  0.4535
  635MOL0     H85671   3.306   6.654   5.599 -2.6013  0.1794  0.9860
  635MOL0     H85672   3.320   6.850   5.431  3.2682  4.6792 -2.4150
  635MOL0     H85673   3.374   6.945   5.560 -2.2265  0.3974 -1.4473
  635MOL0     H85674   3.536   6.904   5.411  0.6049 -1.2463 -2.7797
  635MOL0     H85675   3.507   6.730   5.388  0.6384 -2.4856  1.7887
  635MOL0     H85676   3.707   6.959   5.609  0.1304 -0.3050 -1.8726
  635MOL0     H85677   3.951   6.750   5.815 -0.0739 -0.2763 -3.1118
  635MOL0     H85678   3.920   6.915   5.749 -1.9383  0.7165 -0.7769
  635MOL0     H85679   3.757   6.795   5.978  1.0213 -1.1225 -0.0261
  635MOL0     H85680   3.731   6.951   5.902  2.8189  2.7687  0.8988
  635MOL0     H85681   3.832   6.972   6.109  0.1280  0.5141 -0.7510
  635MOL0     H85682   3.929   7.048   6.005  0.5703 -0.1596  1.6829
  635MOL0     H85683   4.080   6.846   5.989  1.4283  2.4593  0.1351
  635MOL0     H85684   3.979   6.774   6.111  0.5454  0.8892  1.3643
  635MOL0     H85685   4.169   7.024   5.936  0.8026  0.1374 -0.2926
  635MOL0     H85686   4.429   7.187   5.812 -1.2006  0.8116 -1.9315
  635MOL0     H85687   4.252   7.192   5.786 -0.4612  4.0775 -0.9676
  635MOL0     H85688   4.339   7.328   5.857 -0.5530  1.1723  2.8743
  635MOL0     H85689   4.597   7.648   6.121 -0.7465  0.0319  1.7275
  635MOL0     H85690   4.847   7.731   6.147 -1.8810  1.2688  2.2879
  635MOL0     H85691   5.073   7.773   6.168  0.3054  0.0856  0.3860
  635MOL0     H85692   4.997   7.770   6.328  2.0901  0.1303  1.7440
  635MOL0     H85693   5.296   7.731   6.266 -0.1931  0.6529 -0.4307
  635MOL0     H85694   5.206   7.865   6.342  0.9933 -0.1355  1.8726
  635MOL0     H85695   5.228   7.584   6.473 -0.8252 -0.3618  2.0383
  635MOL0     H85696   5.163   7.742   6.534  1.1813  0.3500 -0.8270
  635MOL0     H85697   5.387   7.669   6.608  1.2936  1.0003  0.9231
  635MOL0     H85698   5.444   7.696   6.442 -1.7324 -2.3780 -0.1256
  635MOL0     H85699   5.299   7.901   6.619  1.1035  1.1731  0.2118
  635MOL0     H85700   5.370   7.945   6.465  0.0080 -0.7433 -0.8026
  635MOL0     H85701   5.552   7.809   6.666  0.1823 -0.5872 -0.2978
  635MOL0     H85702   5.593   7.935   6.557 -0.9757 -0.7082 -0.2493
  635MOL0     H85703   5.502   7.978   6.829 -2.2270  3.2210  1.0720
  635MOL0     H85704   5.418   8.081   6.700 -1.2304 -1.0435  0.2907
  635MOL0     H85705   5.720   8.047   6.745 -0.8124 -1.9754 -2.2351
  635MOL0     H85706   5.636   8.179   6.821 -2.0245  0.6729 -0.0478
  635MOL0     H85707   4.932   7.370   6.369 -1.5315 -0.3984  0.4461
  635MOL0     H85708   4.704   7.307   6.346 -1.6613  0.8189 -1.1931
  635MOL0     H85709   4.380   7.247   6.332  1.9972 -1.2486  0.3381
  635MOL0     H85710   4.234   7.065   6.354 -1.9657 -2.0825 -0.5013
  635MOL0     H85711   2.572   6.465   5.364  0.4743 -0.4851 -0.2173
  635MOL0     H85712   2.380   6.310   5.375 -1.7265 -0.6906  1.5608
  635MOL0     H85713   1.951   6.141   5.450  1.8222  1.0590 -0.9257
  635MOL0     H85714   1.801   5.960   5.440  0.0736 -2.4971 -1.9989
  635MOL0     H85715   1.684   5.776   5.512 -0.2730 -0.5848 -0.4574
  635MOL0     H85716   1.746   5.739   5.350  0.8240 -0.2670  0.7795
  635MOL0     H85717   1.638   5.550   5.561 -1.3809 -1.8827 -1.0707
  635MOL0     H85718   1.780   5.492   5.460 -0.6108  0.4588 -1.2803
  635MOL0     H85719   1.579   5.423   5.360 -0.3931 -0.5979 -2.8689
  635MOL0     H85720   1.661   5.521   5.252  0.2781 -2.1365 -0.1073
  635MOL0     H85721   1.494   5.724   5.369  3.0402 -0.1560  0.0057
  635MOL0     H85722   1.404   5.593   5.411  0.1892  2.4642  0.9105
  635MOL0     H85723   1.397   5.599   4.975  1.0704  2.6591 -0.3937
  635MOL0     H85724   2.132   5.694   5.557 -0.1685 -0.5750  0.6383
  635MOL0     H85725   2.287   5.878   5.544  1.0062  0.5264 -4.2740
  636MOL0     O85726   3.855   3.926   5.427 -0.1802  0.1649  0.1586
  636MOL0     C85727   3.770   3.866   5.362  0.3475 -0.5853  0.1711
  636MOL0     O85728   3.732   3.745   5.383  0.3846 -0.9730  0.3485
  636MOL0     C85729   3.775   3.666   5.485 -1.0100 -0.6021 -0.1235
  636MOL0     C85730   3.687   3.619   5.579  0.4325  0.3944  0.7076
  636MOL0     C85731   3.726   3.544   5.686  1.1095  0.0948  0.3208
  636MOL0     C85732   3.853   3.492   5.702  0.4055 -0.4468 -0.3844
  636MOL0     O85733   3.898   3.417   5.808 -0.1475  0.4486  0.6039
  636MOL0     C85734   3.810   3.318   5.857  0.7015  0.3774 -0.1228
  636MOL0     C85735   3.873   3.251   5.990 -0.7619 -0.3265  0.1279
  636MOL0     C85736   3.766   3.190   6.081 -0.4035  0.2063  0.0839
  636MOL0     C85737   3.813   3.080   6.173  0.4269 -0.3769  0.1980
  636MOL0     C85738   3.909   3.143   6.272 -0.9265  0.5481 -0.3461
  636MOL0     C85739   3.969   3.039   6.367  0.2586 -0.6064  0.7600
  636MOL0     C85740   4.078   3.093   6.454  0.6899  0.4215 -0.4250
  636MOL0     C85741   4.137   2.990   6.547 -0.8199 -0.2925 -0.7880
  636MOL0     N85742   4.230   3.050   6.641 -0.6139 -0.0423 -0.2453
  636MOL0     C85743   4.287   3.174   6.630 -0.4192 -0.8373  0.4558
  636MOL0     C85744   4.378   3.184   6.731  0.6111  0.1439 -0.4964
  636MOL0     C85745   4.481   3.291   6.750  0.8786  0.2065 -0.5399
  636MOL0     C85746   4.432   3.375   6.856  0.6941 -0.0444 -0.4283
  636MOL0     C85747   4.449   3.323   6.998  0.2791 -0.2606 -0.3069
  636MOL0     C85748   4.408   3.425   7.106 -0.0863 -0.2469 -0.6834
  636MOL0     O85749   4.510   3.527   7.111  0.2528 -0.0678 -0.4642
  636MOL0     C85750   4.493   3.632   7.199 -0.8201 -0.0928 -0.2265
  636MOL0     C85751   4.594   3.727   7.221  0.5363 -0.3087  0.6421
  636MOL0     C85752   4.586   3.831   7.314 -0.5332  0.4517  1.0607
  636MOL0     C85753   4.714   3.916   7.312  0.5501  0.6056 -0.1325
  636MOL0     C85754   4.474   3.857   7.382 -0.0207  0.3648  0.1316
  636MOL0     C85755   4.447   3.971   7.464 -0.9265 -0.6793  0.2629
  636MOL0     O85756   4.555   4.019   7.534 -0.2567 -0.1581 -0.9937
  636MOL0     C85757   4.532   4.153   7.579  0.7887  0.1382  0.3317
  636MOL0     C85758   4.504   4.254   7.486  0.0767  0.0192  0.2730
  636MOL0     C85759   4.489   4.385   7.527  1.0059 -0.1624  0.6083
  636MOL0     C85760   4.478   4.417   7.664  0.0434  0.0859  0.4720
  636MOL0     O85761   4.455   4.549   7.699 -0.5423 -0.3513  0.1412
  636MOL0     C85762   4.576   4.628   7.704 -0.3445  0.0128 -0.8164
  636MOL0     C85763   4.543   4.749   7.798  0.5552 -0.4427 -0.6193
  636MOL0     C85764   4.673   4.826   7.833  0.5076 -0.6570 -0.8171
  636MOL0     C85765   4.725   4.918   7.728  0.8529 -0.1952 -0.1703
  636MOL0     C85766   4.828   5.011   7.794 -0.4297  0.1041 -0.3763
  636MOL0     C85767   4.771   5.116   7.898  0.9898 -0.1755 -0.1503
  636MOL0     C85768   4.874   5.217   7.939 -0.3538 -0.1982  0.0831
  636MOL0     C85769   4.866   5.292   8.072 -0.6717  0.2149 -0.4625
  636MOL0    Cl85770   4.955   5.194   8.187 -0.0218 -0.2029 -0.0292
  636MOL0     C85771   4.527   4.320   7.753  0.2638  0.7607  0.3749
  636MOL0     C85772   4.558   4.187   7.712 -0.5227 -0.2120  0.2930
  636MOL0     O85773   4.334   4.020   7.461  0.3117  0.6680 -0.2731
  636MOL0     C85774   4.362   3.771   7.358 -0.9204  0.8851  1.2926
  636MOL0     C85775   4.377   3.655   7.272  0.6511 -0.4097  0.2257
  636MOL0     N85776   4.363   3.071   6.814 -0.6030  0.1275 -0.2352
  636MOL0     N85777   4.274   2.991   6.756 -0.0033  0.2954 -0.4753
  636MOL0     C85778   3.942   3.548   5.610 -0.3847 -0.8659 -0.5042
  636MOL0     C85779   3.914   3.630   5.499  0.6503 -0.5576  0.2771
  636MOL0     C85780   3.701   3.940   5.249 -0.7456  0.1983  0.7030
  636MOL0     C85781   3.748   4.062   5.193  0.3234  0.3073 -0.1388
  636MOL0     C85782   3.668   4.131   5.096 -0.1254  0.0979 -0.1865
  636MOL0     C85783   3.546   4.080   5.054 -0.0584  0.6348  0.0200
  636MOL0     O85784   3.477   4.136   4.953  0.2678 -0.1901  0.0236
  636MOL0     C85785   3.457   4.278   4.954 -0.3497 -0.4427 -0.8265
  636MOL0     C85786   3.398   4.339   4.832  0.2994  0.3431  0.4683
  636MOL0     C85787   3.252   4.288   4.806 -0.1144 -0.2813 -0.1510
  636MOL0     C85788   3.248   4.208   4.679 -0.8544 -0.4857  1.3338
  636MOL0     C85789   3.123   4.150   4.652  0.5760  0.1039  0.1671
  636MOL0     C85790   3.018   4.098   4.617  0.8385  0.2713 -0.5254
  636MOL0     C85791   3.498   3.961   5.107 -0.2507 -0.1713 -0.5670
  636MOL0     C85792   3.586   3.893   5.192  0.8844  0.2066 -0.3777
  636MOL0     H85793   3.588   3.658   5.560  1.5486  2.1509 -2.1557
  636MOL0     H85794   3.647   3.532   5.759  0.7435  3.5385  0.6275
  636MOL0     H85795   3.715   3.368   5.878  1.2069  1.4046 -0.2626
  636MOL0     H85796   3.788   3.233   5.791 -3.7587  2.0946 -1.2191
  636MOL0     H85797   3.948   3.175   5.965  1.7630  1.3117  2.1250
  636MOL0     H85798   3.934   3.328   6.039 -0.2859  0.9920 -2.3635
  636MOL0     H85799   3.708   3.254   6.147 -1.0166 -0.4796  0.2261
  636MOL0     H85800   3.689   3.144   6.017 -0.7911  1.3286 -0.2846
  636MOL0     H85801   3.731   3.024   6.219  0.2790  1.6315  2.5859
  636MOL0     H85802   3.878   3.011   6.118  3.9364  1.9110  1.1238
  636MOL0     H85803   3.987   3.189   6.211 -1.6839  1.3850 -0.6953
  636MOL0     H85804   3.852   3.222   6.322  1.3763  1.2431  1.3675
  636MOL0     H85805   3.891   2.994   6.429 -0.1671  1.1731  1.5759
  636MOL0     H85806   4.007   2.960   6.302  0.4831 -0.2003  0.3883
  636MOL0     H85807   4.157   3.142   6.396 -0.0961  2.0668 -0.1841
  636MOL0     H85808   4.041   3.175   6.517  0.0382 -1.1965  1.4054
  636MOL0     H85809   4.197   2.926   6.481  2.6486 -0.5704  2.3395
  636MOL0     H85810   4.061   2.936   6.604 -1.0627  1.6179  0.7985
  636MOL0     H85811   4.272   3.246   6.550  2.6548  0.2693  0.7303
  636MOL0     H85812   4.579   3.251   6.778  0.5903 -0.6081 -0.6725
  636MOL0     H85813   4.503   3.348   6.659 -1.5514  1.0028 -0.6938
  636MOL0     H85814   4.329   3.408   6.839  1.3997  3.1889  0.8111
  636MOL0     H85815   4.488   3.469   6.857  1.5094 -0.5134  1.0541
  636MOL0     H85816   4.554   3.301   7.017 -0.1946 -1.2906  1.3094
  636MOL0     H85817   4.387   3.235   7.017 -0.7745 -0.1304 -2.7537
  636MOL0     H85818   4.396   3.379   7.204 -0.5959 -1.7428 -1.4061
  636MOL0     H85819   4.310   3.464   7.078 -0.3503 -0.1636  0.3367
  636MOL0     H85820   4.687   3.709   7.167  1.4609  0.5520  1.8930
  636MOL0     H85821   4.781   3.885   7.231 -1.2272 -2.4160 -0.6190
  636MOL0     H85822   4.681   4.020   7.304 -2.5151 -0.2259  0.4300
  636MOL0     H85823   4.776   3.899   7.400 -0.1367  0.3050  0.2976
  636MOL0     H85824   4.491   4.237   7.380 -0.2002  2.7536 -0.2001
  636MOL0     H85825   4.493   4.461   7.450  2.3061 -1.4787 -0.6860
  636MOL0     H85826   4.662   4.566   7.732 -1.2953 -1.5673 -1.2737
  636MOL0     H85827   4.613   4.668   7.610 -1.2738  0.5331 -0.9690
  636MOL0     H85828   4.471   4.823   7.761  0.3991  1.2742  2.7864
  636MOL0     H85829   4.513   4.697   7.889 -1.3379  1.0207 -0.3456
  636MOL0     H85830   4.746   4.776   7.898  1.9566  3.0315  0.6750
  636MOL0     H85831   4.625   4.891   7.907 -2.4473 -1.3242 -2.0164
  636MOL0     H85832   4.768   4.849   7.655 -3.5618 -2.7139 -0.8198
  636MOL0     H85833   4.648   4.973   7.673  0.5735 -0.3348  0.0691
  636MOL0     H85834   4.869   5.075   7.715  1.7717 -0.6875  0.0441
  636MOL0     H85835   4.910   4.954   7.839 -0.0867  0.8330 -0.0488
  636MOL0     H85836   4.686   5.170   7.855  0.8946 -0.0384  0.2061
  636MOL0     H85837   4.719   5.067   7.981 -3.2298  2.1241 -1.1224
  636MOL0     H85838   4.869   5.287   7.855  1.1341 -1.4409 -1.0983
  636MOL0     H85839   4.975   5.177   7.928  0.1747  1.5832 -2.1996
  636MOL0     H85840   4.763   5.311   8.104 -1.9223 -3.0354 -2.0399
  636MOL0     H85841   4.921   5.385   8.061  1.9709 -1.4289 -2.7090
  636MOL0     H85842   4.537   4.359   7.854 -2.8743  3.4467 -0.1793
  636MOL0     H85843   4.584   4.122   7.795 -0.0906  0.2425  0.5138
  636MOL0     H85844   4.262   3.789   7.396 -0.0196  1.9958  3.2786
  636MOL0     H85845   4.283   3.600   7.274 -0.5662  1.3592 -2.5112
  636MOL0     H85846   4.045   3.516   5.621  0.2190  1.5330  1.8263
  636MOL0     H85847   3.990   3.670   5.432  1.1084  1.0617  1.6958
  636MOL0     H85848   3.840   4.093   5.242  0.2357 -0.2903  0.4211
  636MOL0     H85849   3.707   4.226   5.062 -0.7959  1.9639  3.7402
  636MOL0     H85850   3.389   4.292   5.039  1.9923  0.7841  0.9926
  636MOL0     H85851   3.546   4.334   4.985 -1.1688  1.6517 -2.0876
  636MOL0     H85852   3.457   4.313   4.744  2.4205  0.4983  1.7570
  636MOL0     H85853   3.403   4.448   4.845  1.4613  1.0741 -4.2439
  636MOL0     H85854   3.180   4.370   4.795 -0.6716 -0.6287  0.7595
  636MOL0     H85855   3.213   4.223   4.886 -1.4628  0.2262 -0.3679
  636MOL0     H85856   3.329   4.134   4.679  0.1224  0.5447  2.0260
  636MOL0     H85857   3.263   4.278   4.596  0.2886 -2.1717  0.0441
  636MOL0     H85858   2.918   4.061   4.605 -0.0941  2.2363  0.5687
  636MOL0     H85859   3.402   3.919   5.079 -1.9127  0.7801  3.0781
  636MOL0     H85860   3.545   3.800   5.232  1.7470 -0.0769 -0.1278
  637MOL0     O85861   9.521   7.678   1.243  0.9899 -0.4295  0.0762
  637MOL0     C85862   9.557   7.753   1.333  0.5519  0.3006  0.8100
  637MOL0     O85863   9.481   7.807   1.422  0.2174 -0.5352 -0.1258
  637MOL0     C85864   9.341   7.783   1.422  0.6115 -0.1800 -0.5635
  637MOL0     C85865   9.277   7.753   1.546  0.1191  0.6092 -0.1579
  637MOL0     C85866   9.138   7.749   1.554  0.1530 -0.4432 -0.1486
  637MOL0     C85867   9.061   7.777   1.450 -0.2023 -0.0946  0.4461
  637MOL0     O85868   8.923   7.793   1.476 -0.4026 -0.3887 -0.4499
  637MOL0     C85869   8.838   7.801   1.364  0.3065  0.7156  0.0132
  637MOL0     C85870   8.707   7.744   1.403  0.2759  0.4674  0.8832
  637MOL0     C85871   8.729   7.607   1.478  0.4000 -0.9578  0.6020
  637MOL0     C85872   8.605   7.524   1.457  0.3936  0.0796  0.0891
  637MOL0     C85873   8.510   7.541   1.568  0.2572  0.2757 -0.0521
  637MOL0     C85874   8.398   7.431   1.567  0.4455  0.2880 -0.1058
  637MOL0     C85875   8.313   7.443   1.698  0.0399 -0.2552  0.7935
  637MOL0     C85876   8.196   7.344   1.708  0.0355  0.1435  0.6715
  637MOL0     N85877   8.228   7.206   1.725 -0.2513  0.4000 -0.7407
  637MOL0     C85878   8.249   7.122   1.618  0.0635 -0.1710 -0.4325
  637MOL0     C85879   8.263   7.007   1.684 -0.2692  0.5486  1.0041
  637MOL0     C85880   8.321   6.874   1.634 -0.7489 -0.5200  0.5296
  637MOL0     C85881   8.455   6.836   1.680  0.3685 -0.0392 -0.1243
  637MOL0     C85882   8.492   6.693   1.634 -0.4791 -0.3125  0.1305
  637MOL0     C85883   8.626   6.667   1.712  0.0773 -0.3366 -0.0853
  637MOL0     O85884   8.728   6.761   1.680 -0.3402  0.1550  0.5350
  637MOL0     C85885   8.842   6.762   1.754  0.3118  0.1672 -0.1580
  637MOL0     C85886   8.897   6.653   1.823 -0.3536  0.2462 -0.1810
  637MOL0     C85887   9.014   6.655   1.895  0.4954 -0.4680 -0.4435
  637MOL0     C85888   9.043   6.540   1.990 -0.3238 -0.2762 -0.2334
  637MOL0     C85889   9.082   6.782   1.900 -0.4656 -0.8593 -0.0302
  637MOL0     C85890   9.206   6.807   1.979  0.1106  0.0129 -1.1425
  637MOL0     O85891   9.232   6.939   2.003 -0.1265 -0.0435  0.0081
  637MOL0     C85892   9.327   6.971   2.096 -0.6123 -0.4597 -1.1987
  637MOL0     C85893   9.453   7.023   2.058  0.0978  0.8343 -0.3235
  637MOL0     C85894   9.550   7.036   2.160  0.0807  0.5584  0.7718
  637MOL0     C85895   9.528   7.005   2.292 -0.5498 -0.0546  0.4761
  637MOL0     O85896   9.637   7.010   2.372  0.6782 -0.0352  0.3231
  637MOL0     C85897   9.628   7.016   2.510 -0.0428  0.0777  0.7234
  637MOL0     C85898   9.772   7.029   2.551 -0.6339 -0.4737  0.3076
  637MOL0     C85899   9.829   7.162   2.503 -0.1862  0.0960  0.1693
  637MOL0     C85900   9.985   7.173   2.523  0.1285 -0.3383 -0.6695
  637MOL0     C85901  10.029   7.313   2.547  0.5501 -0.0829 -0.1589
  637MOL0     C85902  10.173   7.326   2.558 -0.6845 -0.0683 -0.7575
  637MOL0     C85903  10.224   7.473   2.577  0.2365 -0.2817  0.1657
  637MOL0     C85904  10.356   7.480   2.647 -0.5861 -0.7434 -0.0976
  637MOL0    Cl85905  10.471   7.362   2.557  0.3332 -0.2885 -0.0683
  637MOL0     C85906   9.401   6.969   2.338  0.0999  0.5569  0.7147
  637MOL0     C85907   9.302   6.951   2.238  0.0423 -0.4085 -0.2593
  637MOL0     O85908   9.256   6.706   2.038 -0.4509 -0.8570 -0.2752
  637MOL0     C85909   9.033   6.888   1.824  0.3532  0.3042  0.5333
  637MOL0     C85910   8.905   6.874   1.760 -0.4027 -0.9290 -0.4777
  637MOL0     N85911   8.227   7.021   1.821  0.4539  0.1411 -0.0144
  637MOL0     N85912   8.208   7.143   1.839 -0.2909  0.2184  0.4319
  637MOL0     C85913   9.121   7.797   1.324  0.4033  0.7424  0.2798
  637MOL0     C85914   9.259   7.805   1.315  0.5089  0.2134  0.1141
  637MOL0     C85915   9.696   7.789   1.319  0.4653 -0.0390 -0.0769
  637MOL0     C85916   9.791   7.795   1.426 -0.3387  0.1893  0.0428
  637MOL0     C85917   9.914   7.869   1.409  0.3051  0.2483  0.1067
  637MOL0     C85918   9.939   7.938   1.290  0.2623 -0.0030  0.6777
  637MOL0     O85919  10.060   8.008   1.297  0.2006  0.5472 -0.9927
  637MOL0     C85920  10.125   8.040   1.171 -0.0599  0.1555  0.3327
  637MOL0     C85921  10.246   8.129   1.194 -0.4001 -0.5759 -0.4280
  637MOL0     C85922  10.206   8.282   1.197 -0.1425  0.8223 -0.0227
  637MOL0     C85923  10.318   8.379   1.247 -0.3105 -0.3005  0.1233
  637MOL0     C85924  10.380   8.444   1.136  0.1603  1.0828  0.0881
  637MOL0     C85925  10.431   8.494   1.042  0.1775 -0.1496  0.0998
  637MOL0     C85926   9.847   7.927   1.182 -0.5726  0.3173 -0.2169
  637MOL0     C85927   9.724   7.858   1.200 -0.1275 -0.0864 -0.5565
  637MOL0     H85928   9.330   7.740   1.640  2.5886 -0.3368 -1.6111
  637MOL0     H85929   9.096   7.742   1.654 -1.1495  3.8661 -0.2046
  637MOL0     H85930   8.834   7.905   1.331 -1.0723  1.1294  1.3765
  637MOL0     H85931   8.881   7.735   1.288  0.1662  1.1177 -0.4158
  637MOL0     H85932   8.659   7.818   1.468 -0.1180  1.0835 -0.0849
  637MOL0     H85933   8.637   7.733   1.320  0.9009 -0.9326  0.5120
  637MOL0     H85934   8.827   7.569   1.447  0.7996 -1.9654  2.8877
  637MOL0     H85935   8.730   7.621   1.586  2.1255 -3.7191  1.0404
  637MOL0     H85936   8.551   7.535   1.362 -0.5743 -2.4122  0.2649
  637MOL0     H85937   8.644   7.422   1.453 -0.2006 -0.1592  0.2524
  637MOL0     H85938   8.563   7.534   1.664 -0.6424  2.0752  0.6178
  637MOL0     H85939   8.463   7.639   1.567 -3.4311 -1.3261  0.1100
  637MOL0     H85940   8.328   7.434   1.483  1.2330  0.2476 -0.7909
  637MOL0     H85941   8.447   7.333   1.562 -1.0822 -0.4498 -1.1546
  637MOL0     H85942   8.383   7.417   1.779  0.8613 -3.1630 -0.6934
  637MOL0     H85943   8.282   7.546   1.711 -0.9072 -0.4354  0.0486
  637MOL0     H85944   8.142   7.350   1.613  0.9112 -2.6129 -0.0747
  637MOL0     H85945   8.131   7.370   1.792  0.2706 -0.1370  0.9379
  637MOL0     H85946   8.272   7.146   1.514 -1.6505  1.5838 -0.4650
  637MOL0     H85947   8.251   6.795   1.662 -1.0859 -0.2342  0.4996
  637MOL0     H85948   8.341   6.882   1.526  1.9781 -1.2510  0.9163
  637MOL0     H85949   8.458   6.849   1.789  0.8641  0.3018 -0.1774
  637MOL0     H85950   8.526   6.909   1.641 -0.6282  1.6999  1.1410
  637MOL0     H85951   8.507   6.677   1.527 -0.7009 -0.8470  0.1773
  637MOL0     H85952   8.421   6.615   1.665 -0.9420 -0.0502 -0.2691
  637MOL0     H85953   8.672   6.572   1.685  2.0990  0.1812  1.2842
  637MOL0     H85954   8.618   6.686   1.820 -0.8123  1.1940 -0.3970
  637MOL0     H85955   8.846   6.557   1.819  1.9466 -1.0589 -0.2501
  637MOL0     H85956   9.083   6.573   2.086 -0.0236  1.5145 -0.9497
  637MOL0     H85957   8.956   6.473   2.000 -1.0830  0.3893 -1.9169
  637MOL0     H85958   9.128   6.486   1.946  1.1548 -0.1034  2.2495
  637MOL0     H85959   9.462   7.038   1.951 -0.4829  2.2695 -0.1915
  637MOL0     H85960   9.651   7.060   2.128  0.0248  0.0732  0.2014
  637MOL0     H85961   9.568   7.106   2.524 -1.5822  0.0117 -3.8949
  637MOL0     H85962   9.580   6.930   2.558 -0.5164  0.2656  0.5925
  637MOL0     H85963   9.787   7.016   2.659  3.0369 -0.5866 -0.1049
  637MOL0     H85964   9.831   6.948   2.509 -0.8710 -0.7941  0.5828
  637MOL0     H85965   9.783   7.246   2.557 -1.5491 -0.1600 -0.5312
  637MOL0     H85966   9.799   7.173   2.398 -2.2884  0.7038  0.7778
  637MOL0     H85967  10.005   7.109   2.609 -1.4699  0.3010  0.2203
  637MOL0     H85968  10.049   7.136   2.443  0.3112 -1.0573 -0.2046
  637MOL0     H85969   9.975   7.361   2.630  2.9793  2.2285  0.2171
  637MOL0     H85970   9.998   7.379   2.465 -0.5845  2.4092  2.1079
  637MOL0     H85971  10.201   7.269   2.648  2.6752  0.4718 -1.3289
  637MOL0     H85972  10.215   7.273   2.472 -3.1591  0.0298 -2.1073
  637MOL0     H85973  10.154   7.552   2.605  1.2089  0.3993  0.7272
  637MOL0     H85974  10.241   7.511   2.476 -1.4526  3.2097  1.0474
  637MOL0     H85975  10.350   7.452   2.753 -2.0410 -1.5691 -0.3689
  637MOL0     H85976  10.386   7.585   2.653 -3.5789  0.1922  0.1508
  637MOL0     H85977   9.385   6.952   2.444  0.9421 -3.5716  0.3583
  637MOL0     H85978   9.201   6.915   2.255 -0.2621  0.4646 -0.1642
  637MOL0     H85979   9.090   6.981   1.822  1.6615 -0.4407  1.4450
  637MOL0     H85980   8.864   6.962   1.710 -2.3314 -1.8617 -0.6360
  637MOL0     H85981   9.050   7.818   1.245 -1.4201  1.1329  1.9586
  637MOL0     H85982   9.291   7.838   1.216 -0.0626 -0.7743 -0.4187
  637MOL0     H85983   9.755   7.765   1.523  0.2939  4.9297  2.0063
  637MOL0     H85984   9.982   7.888   1.492  0.0463 -2.0970  0.9493
  637MOL0     H85985  10.151   7.952   1.112 -2.6951 -0.7427  0.3845
  637MOL0     H85986  10.050   8.089   1.107 -0.2587 -0.1190  0.3552
  637MOL0     H85987  10.324   8.111   1.119 -0.9973 -1.4939 -0.8404
  637MOL0     H85988  10.285   8.097   1.291 -1.8564  0.2413  0.4633
  637MOL0     H85989  10.116   8.282   1.259 -1.8373  1.8557 -2.3269
  637MOL0     H85990  10.175   8.327   1.102  2.8030  3.0075 -0.1174
  637MOL0     H85991  10.391   8.324   1.306 -2.1850 -0.9221  2.0233
  637MOL0     H85992  10.275   8.452   1.316  1.3554  0.7302  0.1002
  637MOL0     H85993  10.477   8.550   0.964  1.2745 -0.2298  0.6747
  637MOL0     H85994   9.857   7.981   1.089 -1.1363  1.6750  0.4697
  637MOL0     H85995   9.653   7.852   1.118 -0.6624 -1.7228 -0.0056
  638MOL0     O85996   4.644   4.465   6.254  1.0790 -0.2187  0.5694
  638MOL0     C85997   4.718   4.486   6.348  0.0903 -0.0987 -0.6604
  638MOL0     O85998   4.699   4.424   6.472  0.0049  0.2710 -0.1544
  638MOL0     C85999   4.577   4.360   6.521 -0.8838 -0.3868  0.9120
  638MOL0     C86000   4.458   4.362   6.453 -0.0943 -0.4957  0.7156
  638MOL0     C86001   4.334   4.309   6.496  0.1503 -0.4334  0.5952
  638MOL0     C86002   4.339   4.254   6.624  0.5597  0.0924 -0.0378
  638MOL0     O86003   4.221   4.219   6.691  0.6305 -0.2556 -0.6662
  638MOL0     C86004   4.181   4.290   6.810 -0.1711  0.5858  0.6581
  638MOL0     C86005   4.095   4.414   6.772  0.3260 -0.5680 -0.3086
  638MOL0     C86006   4.055   4.498   6.895  0.1722  0.7684  0.8735
  638MOL0     C86007   3.968   4.427   6.999  0.0250 -0.6028 -0.0592
  638MOL0     C86008   3.840   4.370   6.943 -0.3055 -0.2132 -0.2321
  638MOL0     C86009   3.755   4.478   6.871 -0.6057  0.3983  0.0497
  638MOL0     C86010   3.612   4.421   6.852 -0.5979 -0.3708  0.0223
  638MOL0     C86011   3.511   4.474   6.946  0.0869 -0.8773  0.1313
  638MOL0     N86012   3.376   4.438   6.909  1.4388  0.4437  1.2217
  638MOL0     C86013   3.268   4.521   6.865  0.4476  0.5939  0.4534
  638MOL0     C86014   3.176   4.437   6.816  0.3849 -0.3656  0.1361
  638MOL0     C86015   3.040   4.464   6.749 -0.5733  0.4489 -0.1218
  638MOL0     C86016   3.050   4.527   6.605  0.6191 -0.6529  0.0441
  638MOL0     C86017   2.925   4.603   6.568  0.3054 -0.2385  0.4013
  638MOL0     C86018   2.913   4.636   6.418 -0.1521  0.2242 -0.1469
  638MOL0     O86019   2.904   4.514   6.341  0.7696  0.1380  0.0319
  638MOL0     C86020   2.845   4.525   6.224  0.5489 -0.5728  1.1140
  638MOL0     C86021   2.915   4.568   6.112 -0.4425 -0.6633 -0.8439
  638MOL0     C86022   2.852   4.580   5.991 -0.5458 -0.0011 -0.1386
  638MOL0     C86023   2.926   4.658   5.885  0.7491  0.5006 -0.0118
  638MOL0     C86024   2.719   4.524   5.969 -0.1940 -0.9462  0.2346
  638MOL0     C86025   2.638   4.518   5.841  0.0037  0.0489  0.7115
  638MOL0     O86026   2.511   4.465   5.856  0.6455 -0.3106  0.3743
  638MOL0     C86027   2.411   4.472   5.763 -0.3350 -1.1451 -0.4500
  638MOL0     C86028   2.405   4.559   5.658 -0.2255  0.3090 -0.2752
  638MOL0     C86029   2.290   4.559   5.574  0.4537  0.2851 -0.3267
  638MOL0     C86030   2.189   4.464   5.593 -0.0718  0.5898 -0.1486
  638MOL0     O86031   2.077   4.461   5.511 -0.4289 -0.9647 -0.9427
  638MOL0     C86032   2.068   4.555   5.403  0.6028  0.2302  0.7445
  638MOL0     C86033   1.958   4.503   5.307  0.0189 -0.9286  0.4590
  638MOL0     C86034   1.954   4.570   5.168  0.8450 -0.1416 -0.6808
  638MOL0     C86035   2.011   4.713   5.158 -0.0668  0.2601  0.4690
  638MOL0     C86036   2.041   4.764   5.013 -0.0506 -0.4782  0.2552
  638MOL0     C86037   2.149   4.689   4.933 -1.1758  0.2368  0.3061
  638MOL0     C86038   2.287   4.689   5.007 -0.4475 -0.3307 -0.9184
  638MOL0     C86039   2.392   4.617   4.919  0.3196 -0.3388 -0.2155
  638MOL0    Cl86040   2.440   4.727   4.790 -0.2411 -0.6072 -0.5677
  638MOL0     C86041   2.196   4.373   5.702 -0.0439 -0.9980 -0.5180
  638MOL0     C86042   2.310   4.382   5.790  0.0035 -1.5753  0.5196
  638MOL0     O86043   2.690   4.542   5.732 -0.2504 -0.0296  0.4059
  638MOL0     C86044   2.657   4.480   6.083  0.0471 -1.0034  0.0675
  638MOL0     C86045   2.715   4.486   6.208  0.0636 -0.2395 -0.3452
  638MOL0     N86046   3.219   4.314   6.844  0.0764  0.2917  1.2611
  638MOL0     N86047   3.333   4.313   6.900  0.1044  0.2272 -0.0989
  638MOL0     C86048   4.456   4.248   6.698 -0.1234 -0.2604 -0.7957
  638MOL0     C86049   4.580   4.297   6.637 -0.2079 -0.1082 -0.3528
  638MOL0     C86050   4.855   4.524   6.315  0.9783 -0.3405 -0.0346
  638MOL0     C86051   4.961   4.497   6.401 -0.5321 -0.2213 -0.2896
  638MOL0     C86052   5.094   4.522   6.357 -0.1879  0.7863 -0.2146
  638MOL0     C86053   5.121   4.580   6.236  0.1125  1.1754 -0.5852
  638MOL0     O86054   5.255   4.607   6.205  0.5257 -0.1192  0.4721
  638MOL0     C86055   5.298   4.655   6.079  0.3750 -0.4563  0.2152
  638MOL0     C86056   5.284   4.807   6.049  0.2373  0.2946 -0.2943
  638MOL0     C86057   5.337   4.896   6.163 -0.2211  0.5889  0.9036
  638MOL0     C86058   5.491   4.903   6.163  0.0157 -0.6711 -0.4085
  638MOL0     C86059   5.553   4.981   6.056  0.1099 -0.4033 -0.4353
  638MOL0     C86060   5.584   5.047   5.962  0.1590  0.5019 -0.3800
  638MOL0     C86061   5.011   4.610   6.157 -1.0946 -0.3154 -0.6322
  638MOL0     C86062   4.885   4.578   6.189  0.2517  0.1922 -1.1897
  638MOL0     H86063   4.452   4.405   6.354 -0.0445  1.8545  1.6652
  638MOL0     H86064   4.241   4.323   6.441  1.6642  1.5688 -1.7109
  638MOL0     H86065   4.136   4.212   6.872  0.9592 -1.0222 -0.4465
  638MOL0     H86066   4.262   4.332   6.869  0.9623 -1.5171  0.7130
  638MOL0     H86067   4.153   4.485   6.712 -1.6832  2.0257  0.5832
  638MOL0     H86068   4.006   4.381   6.719 -0.2321  0.2812  0.0715
  638MOL0     H86069   4.146   4.536   6.941  1.4604 -0.4451 -0.5830
  638MOL0     H86070   4.001   4.583   6.852  1.8345  0.6695 -1.5999
  638MOL0     H86071   4.030   4.340   7.023  1.5460 -0.2565 -2.4583
  638MOL0     H86072   3.949   4.491   7.085 -0.6547 -2.8991  1.6094
  638MOL0     H86073   3.855   4.287   6.873  0.9805  2.1504 -2.9878
  638MOL0     H86074   3.793   4.341   7.037 -0.5313  0.4107 -0.1455
  638MOL0     H86075   3.750   4.574   6.923  0.0156  1.5721 -1.9772
  638MOL0     H86076   3.799   4.492   6.773 -2.1644 -0.7197 -0.8587
  638MOL0     H86077   3.573   4.444   6.752 -3.1481  0.2943  1.0838
  638MOL0     H86078   3.605   4.312   6.858 -1.6132 -0.2689  0.8993
  638MOL0     H86079   3.526   4.582   6.954  2.4119 -0.5343 -4.9653
  638MOL0     H86080   3.536   4.429   7.043 -1.2521 -3.0704 -0.4661
  638MOL0     H86081   3.285   4.628   6.871  3.1070  0.2752 -0.2399
  638MOL0     H86082   2.984   4.371   6.762  1.0750 -0.4887  0.6152
  638MOL0     H86083   2.987   4.541   6.805 -1.8111 -0.1620 -0.4140
  638MOL0     H86084   3.067   4.450   6.529  2.5661  0.3856 -0.6498
  638MOL0     H86085   3.134   4.596   6.596 -1.9644  2.5346 -1.5198
  638MOL0     H86086   2.930   4.698   6.622 -1.7920  0.1811 -0.0665
  638MOL0     H86087   2.842   4.543   6.606 -0.0130  0.4882  0.8682
  638MOL0     H86088   3.007   4.686   6.392  2.7019 -3.4271  2.0908
  638MOL0     H86089   2.831   4.703   6.390 -0.7301 -1.0076 -1.5979
  638MOL0     H86090   3.017   4.602   6.122 -0.8884  1.0067 -1.5428
  638MOL0     H86091   2.953   4.604   5.793 -0.9028 -2.4996  1.1042
  638MOL0     H86092   2.848   4.730   5.858 -0.5663 -0.7924  0.2199
  638MOL0     H86093   3.005   4.721   5.926  0.4959  2.7316 -2.7100
  638MOL0     H86094   2.477   4.640   5.652 -2.6099  2.4508 -2.8604
  638MOL0     H86095   2.297   4.632   5.494 -1.7295 -0.1118 -0.9263
  638MOL0     H86096   2.055   4.656   5.443 -0.4207  0.4181 -0.0249
  638MOL0     H86097   2.160   4.556   5.343  1.3149 -1.4182  1.7286
  638MOL0     H86098   1.973   4.396   5.291  2.3752 -0.5856 -0.1887
  638MOL0     H86099   1.863   4.514   5.358 -0.5709 -0.7236 -0.6539
  638MOL0     H86100   1.853   4.558   5.129  0.6026 -2.0718  0.4546
  638MOL0     H86101   2.007   4.497   5.107  0.1891 -1.0058 -0.2371
  638MOL0     H86102   1.936   4.779   5.202 -4.6200 -1.5693 -3.5959
  638MOL0     H86103   2.105   4.733   5.211 -1.4492  3.7700  1.8876
  638MOL0     H86104   2.072   4.868   5.012 -0.0212 -0.4805 -1.2187
  638MOL0     H86105   1.949   4.753   4.955 -1.0949  0.4672  1.6730
  638MOL0     H86106   2.107   4.589   4.922  0.4492 -0.4980  0.3777
  638MOL0     H86107   2.148   4.736   4.834  2.6741 -2.0290 -1.0442
  638MOL0     H86108   2.268   4.645   5.106  3.5020  1.5302  0.8740
  638MOL0     H86109   2.321   4.790   5.032  2.1959 -1.1209 -1.0162
  638MOL0     H86110   2.349   4.530   4.869 -0.3099  1.0217 -2.1386
  638MOL0     H86111   2.477   4.580   4.977  0.8769 -1.0579 -1.4638
  638MOL0     H86112   2.113   4.303   5.705 -2.1038  1.1278 -3.0093
  638MOL0     H86113   2.323   4.313   5.873  4.1788  0.2520  1.6284
  638MOL0     H86114   2.562   4.428   6.075 -0.6826  0.2721  0.0804
  638MOL0     H86115   2.664   4.456   6.299 -1.3597 -0.3014 -1.1294
  638MOL0     H86116   4.442   4.212   6.800 -0.3038  1.9797  0.0471
  638MOL0     H86117   4.676   4.277   6.682 -0.2028 -0.9796 -0.7163
  638MOL0     H86118   4.946   4.461   6.502  0.1667  2.8404  1.0132
  638MOL0     H86119   5.177   4.505   6.424 -0.1122  0.1079 -0.4732
  638MOL0     H86120   5.405   4.635   6.086 -0.0868 -3.5820 -0.2146
  638MOL0     H86121   5.252   4.606   5.992  1.8883 -0.9272 -0.3531
  638MOL0     H86122   5.175   4.817   6.040 -0.0775 -1.1259  1.2549
  638MOL0     H86123   5.341   4.824   5.957  3.1319 -1.4320  1.0438
  638MOL0     H86124   5.312   4.850   6.259 -1.7244 -0.4491  0.0522
  638MOL0     H86125   5.297   4.997   6.151  0.8781  1.0382  0.9121
  638MOL0     H86126   5.524   4.800   6.150  0.9306 -0.2134 -2.0696
  638MOL0     H86127   5.513   4.944   6.262 -0.7444 -1.8707  0.2848
  638MOL0     H86128   5.615   5.099   5.875 -1.7235 -0.4951 -1.7220
  638MOL0     H86129   5.049   4.646   6.063  2.0275 -2.5174 -0.3828
  638MOL0     H86130   4.808   4.586   6.113  0.6457 -1.5499 -1.8181
  639MOL0     O86131   4.082   9.888   9.784  0.5267 -0.1508 -0.6150
  639MOL0     C86132   4.050   9.990   9.846 -0.7162 -0.1785 -1.0673
  639MOL0     O86133   3.948  10.071   9.818  0.3899 -0.1971  0.1594
  639MOL0     C86134   3.859  10.023   9.724  0.4998 -0.8152 -0.2955
  639MOL0     C86135   3.793   9.910   9.743 -0.0254 -0.3656  0.1994
  639MOL0     C86136   3.701   9.874   9.651  0.2087 -0.4321  0.5159
  639MOL0     C86137   3.670   9.952   9.539 -0.0682  0.4026  0.1502
  639MOL0     O86138   3.564   9.904   9.461  0.0599  0.4194 -0.3271
  639MOL0     C86139   3.546   9.948   9.322  0.1804 -0.1398  0.2829
  639MOL0     C86140   3.406   9.899   9.279 -0.4814  0.1862 -0.0763
  639MOL0     C86141   3.404   9.746   9.281 -0.5556 -0.0911  0.6967
  639MOL0     C86142   3.281   9.693   9.211 -0.2111 -0.2175 -0.0572
  639MOL0     C86143   3.163   9.754   9.282  0.5825 -0.3803 -0.9915
  639MOL0     C86144   3.042   9.664   9.270 -0.5406  0.2739 -0.1234
  639MOL0     C86145   3.004   9.595   9.146  0.2042 -0.5633  0.2719
  639MOL0     C86146   2.873   9.661   9.084  0.3679 -0.0020 -0.2912
  639MOL0     N86147   2.744   9.656   9.161 -0.6896  0.6623  0.6600
  639MOL0     C86148   2.646   9.757   9.175 -0.1214 -1.0224  0.0710
  639MOL0     C86149   2.538   9.699   9.232  0.1475 -0.1582 -0.2998
  639MOL0     C86150   2.411   9.758   9.273 -0.1568 -0.1980 -0.2309
  639MOL0     C86151   2.301   9.721   9.188 -0.2018  0.4086 -0.1168
  639MOL0     C86152   2.162   9.781   9.232  0.6608 -0.7068 -0.9064
  639MOL0     C86153   2.116   9.736   9.369 -0.2028 -0.3744  0.2528
  639MOL0     O86154   2.149   9.815   9.485 -0.1815  0.4269  0.2900
  639MOL0     C86155   2.094   9.778   9.602  0.4122 -0.7151  0.4782
  639MOL0     C86156   2.136   9.844   9.718  0.5558  0.4290  0.2678
  639MOL0     C86157   2.071   9.840   9.840 -0.4620  0.5059 -1.5529
  639MOL0     C86158   2.105   9.948   9.946 -0.3110  0.0614  0.1018
  639MOL0     C86159   1.960   9.750   9.859 -0.3330  0.2641  0.1335
  639MOL0     C86160   1.899   9.705   9.994 -0.0644 -0.2035  1.0489
  639MOL0     O86161   1.781   9.644   9.981 -0.0745  0.4760  0.1041
  639MOL0     C86162   1.695   9.641  10.092  0.0831 -0.1634  0.5934
  639MOL0     C86163   1.651   9.760  10.154  1.0841  0.2557  0.4361
  639MOL0     C86164   1.549   9.760  10.253  0.0736 -0.3554  0.5316
  639MOL0     C86165   1.474   9.647  10.283  0.4385 -0.5321  0.2031
  639MOL0     O86166   1.382   9.670  10.387 -0.3119  0.7132  0.0123
  639MOL0     C86167   1.279   9.570  10.385 -0.0002  0.7586  0.1539
  639MOL0     C86168   1.179   9.596  10.500 -0.2985 -0.5236  0.1747
  639MOL0     C86169   1.127   9.739  10.515 -0.5411 -0.0164  0.4438
  639MOL0     C86170   1.096   9.773  10.654 -0.3806  0.2889 -0.3828
  639MOL0     C86171   1.022   9.905  10.670 -0.4347 -0.5753  0.1080
  639MOL0     C86172   1.088  10.036  10.606 -0.4158 -0.7457  0.7530
  639MOL0     C86173   1.010  10.161  10.646 -0.2933  0.1403 -0.4303
  639MOL0     C86174   0.903  10.181  10.548  0.3149  0.8297 -0.1201
  639MOL0    Cl86175   0.964  10.194  10.386  0.6828  0.1204 -0.6906
  639MOL0     C86176   1.511   9.529  10.224 -0.3684  0.3477  0.5853
  639MOL0     C86177   1.616   9.529  10.128 -0.6264 -0.8132  0.1618
  639MOL0     O86178   1.962   9.717  10.094  0.4337 -0.4572 -0.7526
  639MOL0     C86179   1.933   9.665   9.746  0.2912 -0.0914  0.3210
  639MOL0     C86180   1.988   9.687   9.622  0.0926  1.0370  0.4139
  639MOL0     N86181   2.582   9.573   9.267 -0.5225 -0.8583  0.2760
  639MOL0     N86182   2.706   9.545   9.230  1.5665  0.2719  0.2549
  639MOL0     C86183   3.741  10.070   9.518  0.6420 -0.1852 -0.5211
  639MOL0     C86184   3.841  10.109   9.613 -0.1910  0.1291  0.3785
  639MOL0     C86185   4.146  10.041   9.943 -0.0234  0.8776 -0.3224
  639MOL0     C86186   4.261   9.966   9.974 -0.2940 -0.9445  0.1126
  639MOL0     C86187   4.358  10.011  10.069 -0.4641 -0.4651  0.2619
  639MOL0     C86188   4.347  10.141  10.127 -0.3484  0.5479 -0.0362
  639MOL0     O86189   4.447  10.182  10.211  0.5905  0.1627 -0.1345
  639MOL0     C86190   4.448  10.307  10.286 -0.1168  0.2516  0.1624
  639MOL0     C86191   4.464  10.268  10.436 -0.6413  0.3331  1.2653
  639MOL0     C86192   4.610  10.224  10.453 -0.2516  0.2217  0.3807
  639MOL0     C86193   4.632  10.177  10.596 -0.0290  0.2060  0.1078
  639MOL0     C86194   4.744  10.086  10.614  0.0575  0.7377 -0.4609
  639MOL0     C86195   4.831  10.003  10.638  0.0619  0.6447 -0.2120
  639MOL0     C86196   4.227  10.219  10.087 -0.5021  0.2735  0.8135
  639MOL0     C86197   4.125  10.162  10.000 -0.1677 -0.0146 -0.2005
  639MOL0     H86198   3.807   9.843   9.827  0.0170  0.2628  0.6955
  639MOL0     H86199   3.646   9.782   9.667 -0.2048  0.0095  1.7926
  639MOL0     H86200   3.558  10.053   9.295  0.0913 -0.1720  0.1197
  639MOL0     H86201   3.627   9.905   9.263 -1.3882 -1.3857 -1.0747
  639MOL0     H86202   3.327   9.942   9.341 -0.2116 -2.7061  2.4471
  639MOL0     H86203   3.401   9.921   9.172  2.3336 -1.3338 -0.6055
  639MOL0     H86204   3.497   9.705   9.241  1.2597  3.2996  1.0840
  639MOL0     H86205   3.399   9.717   9.387  0.5399 -0.9439  0.5420
  639MOL0     H86206   3.278   9.719   9.105  2.1376  0.5060  0.0006
  639MOL0     H86207   3.272   9.584   9.214 -2.1656 -0.0715  0.8337
  639MOL0     H86208   3.173   9.777   9.389 -0.2171 -0.8361 -0.8104
  639MOL0     H86209   3.143   9.848   9.229  3.5467  0.9866  0.1086
  639MOL0     H86210   3.056   9.582   9.341 -0.7342  2.0599  2.0733
  639MOL0     H86211   2.959   9.715   9.319  0.4516  0.7350  1.1256
  639MOL0     H86212   3.083   9.607   9.071  0.6824 -0.9542  0.7086
  639MOL0     H86213   2.980   9.489   9.160 -1.7205 -0.1997  0.0461
  639MOL0     H86214   2.862   9.633   8.979  0.3388  0.9623 -0.5563
  639MOL0     H86215   2.897   9.767   9.069  1.9036 -0.4101 -0.9219
  639MOL0     H86216   2.650   9.859   9.137  1.2748 -1.3066 -0.6016
  639MOL0     H86217   2.395   9.710   9.370  4.0195  0.7659  1.1267
  639MOL0     H86218   2.421   9.866   9.286  2.5674 -0.2719 -1.1641
  639MOL0     H86219   2.296   9.612   9.194  1.2492  0.3725  0.8473
  639MOL0     H86220   2.323   9.751   9.085  0.0029  2.1043  0.3848
  639MOL0     H86221   2.093   9.731   9.163  2.8047 -1.6654 -2.4782
  639MOL0     H86222   2.163   9.890   9.238  1.8886 -0.7191  4.5823
  639MOL0     H86223   2.139   9.630   9.383  1.2124 -0.2806 -1.0885
  639MOL0     H86224   2.007   9.745   9.364 -0.1944 -0.0147  0.6626
  639MOL0     H86225   2.213   9.919   9.703  2.1593 -0.4795  3.0520
  639MOL0     H86226   2.175  10.023   9.908 -2.1056  0.2734 -3.2604
  639MOL0     H86227   2.014  10.004   9.971  1.7413  2.8789  1.7841
  639MOL0     H86228   2.132   9.888  10.033  1.4105 -1.2749 -1.2708
  639MOL0     H86229   1.696   9.854  10.124 -0.6433  0.3885 -2.0804
  639MOL0     H86230   1.531   9.858  10.297 -1.8412  1.4007 -3.5875
  639MOL0     H86231   1.227   9.583  10.289 -0.3395  0.0008  0.2322
  639MOL0     H86232   1.318   9.470  10.402  0.7530  1.0127 -0.0384
  639MOL0     H86233   1.094   9.527  10.498 -1.1703  0.5407 -0.7265
  639MOL0     H86234   1.240   9.579  10.590  0.1015  1.9284  0.4500
  639MOL0     H86235   1.028   9.740  10.470 -1.1888  3.7915  1.5892
  639MOL0     H86236   1.187   9.814  10.463  0.4110 -0.9406  0.1638
  639MOL0     H86237   1.021   9.710  10.702  0.7642  0.2039  1.4018
  639MOL0     H86238   1.187   9.760  10.715  0.5776  0.2015 -1.7794
  639MOL0     H86239   1.009   9.924  10.777 -0.7925 -0.4981  0.0523
  639MOL0     H86240   0.925   9.886  10.622 -0.1913 -0.4019 -0.4481
  639MOL0     H86241   1.192  10.038  10.642 -0.1828  1.1673  0.1011
  639MOL0     H86242   1.102  10.018  10.499  1.9066 -0.0747  0.8837
  639MOL0     H86243   1.084  10.241  10.652 -1.3684  1.0625  1.5146
  639MOL0     H86244   0.972  10.150  10.748 -0.5760 -3.6447 -0.7778
  639MOL0     H86245   0.852  10.273  10.577 -0.9151  0.1598 -0.0896
  639MOL0     H86246   0.829  10.101  10.556  1.5350 -0.2207  1.0881
  639MOL0     H86247   1.478   9.428  10.245  1.6614 -0.9651 -1.9749
  639MOL0     H86248   1.640   9.435  10.079 -0.7626 -0.0173 -1.5327
  639MOL0     H86249   1.869   9.578   9.762  2.4103 -2.1004 -1.3762
  639MOL0     H86250   1.958   9.613   9.548  2.6810 -1.3104  1.5117
  639MOL0     H86251   3.713  10.143   9.444 -1.0604  0.0667  0.3330
  639MOL0     H86252   3.906  10.196   9.610  0.9527 -0.7169 -2.4400
  639MOL0     H86253   4.271   9.866   9.934  0.7548 -0.5858 -0.5482
  639MOL0     H86254   4.441   9.944  10.090 -0.9712 -1.5929 -1.1854
  639MOL0     H86255   4.525  10.378  10.257 -1.3160  1.3350 -0.4954
  639MOL0     H86256   4.356  10.365  10.272  0.3578  0.7327 -1.1185
  639MOL0     H86257   4.387  10.192  10.450 -0.0257 -0.1327  2.2118
  639MOL0     H86258   4.456  10.347  10.511  2.9985  0.1374  2.0266
  639MOL0     H86259   4.681  10.302  10.424 -0.6787  0.3288 -0.4058
  639MOL0     H86260   4.624  10.130  10.398  0.9341 -0.9776  2.6151
  639MOL0     H86261   4.542  10.121  10.622  0.1898  0.2487  0.9903
  639MOL0     H86262   4.639  10.262  10.665 -0.5956 -0.0424  0.4719
  639MOL0     H86263   4.896   9.925  10.673 -0.9442 -0.8186 -1.4885
  639MOL0     H86264   4.227  10.324  10.117  1.7622  0.3847  0.6006
  639MOL0     H86265   4.037  10.218   9.969  0.6199  0.9755 -0.7022
  640MOL0     O86266   1.560   0.507   8.993  0.3497  0.2974 -0.3483
  640MOL0     C86267   1.465   0.463   8.922  0.6806 -0.1114 -0.5368
  640MOL0     O86268   1.332   0.502   8.937 -0.0982 -0.0776  0.2635
  640MOL0     C86269   1.293   0.554   9.056 -0.4508 -1.2096  0.3944
  640MOL0     C86270   1.256   0.474   9.160 -0.4169  0.1778 -0.1720
  640MOL0     C86271   1.231   0.528   9.286  0.5067  0.4131 -1.5940
  640MOL0     C86272   1.248   0.661   9.315  0.7446  0.1412  0.4122
  640MOL0     O86273   1.237   0.727   9.439 -0.0313  0.5925 -0.0784
  640MOL0     C86274   1.175   0.646   9.541  0.0641  0.4348  0.3539
  640MOL0     C86275   1.170   0.725   9.664 -0.1655 -0.5505 -0.7979
  640MOL0     C86276   1.078   0.664   9.778  0.5277 -0.2581  0.4856
  640MOL0     C86277   1.142   0.538   9.832  0.1272  0.7342 -0.2104
  640MOL0     C86278   1.056   0.454   9.928  0.2376 -0.0778  0.7656
  640MOL0     C86279   1.147   0.357  10.001 -0.0777 -0.2884 -0.3232
  640MOL0     C86280   1.069   0.277  10.111 -0.5887  0.6240  0.8351
  640MOL0     C86281   1.023   0.356  10.229  0.9518 -1.4411  0.9575
  640MOL0     N86282   0.977   0.273  10.329 -0.3870  0.6164  0.0609
  640MOL0     C86283   0.851   0.203  10.334 -0.7717  0.3415  0.4411
  640MOL0     C86284   0.853   0.149  10.457  0.0506  0.0475 -1.0173
  640MOL0     C86285   0.739   0.093  10.546  0.0788 -0.0546 -0.1491
  640MOL0     C86286   0.611   0.077  10.479  0.1677  0.0137  0.3924
  640MOL0     C86287   0.496   0.042  10.575  0.1251  0.0300  0.3027
  640MOL0     C86288   0.353   0.080  10.532  0.0750 -0.0911 -0.4218
  640MOL0     O86289   0.261   0.020  10.623  0.4862  0.2983 -0.9684
  640MOL0     C86290   0.129   0.052  10.602  0.6338  0.0951 -0.7562
  640MOL0     C86291   0.035   0.016  10.709  0.9608  1.1163  0.2796
  640MOL0     C86292  -0.099   0.046  10.708  0.8576  0.4324 -0.5629
  640MOL0     C86293  -0.191  -0.002  10.824  0.3704  0.4374  0.2579
  640MOL0     C86294  -0.153   0.120  10.591 -0.7720  0.4682  0.3173
  640MOL0     C86295  -0.293   0.150  10.569  0.1598 -0.1507 -0.1376
  640MOL0     O86296  -0.317   0.278  10.552 -0.5587 -0.3044  0.0360
  640MOL0     C86297  -0.444   0.314  10.516  0.6565 -1.1147 -0.3868
  640MOL0     C86298  -0.482   0.356  10.386  1.0078 -0.4548  0.2739
  640MOL0     C86299  -0.618   0.385  10.355 -0.3910  0.1773  0.3092
  640MOL0     C86300  -0.714   0.363  10.452 -0.9589  0.1654  1.4233
  640MOL0     O86301  -0.841   0.372  10.399  0.2105  0.3362  0.1115
  640MOL0     C86302  -0.943   0.278  10.454 -0.5504 -0.6697 -0.2422
  640MOL0     C86303  -1.076   0.319  10.396 -0.2851 -0.2500  0.2241
  640MOL0     C86304  -1.192   0.257  10.458  0.1364  0.1546 -0.0739
  640MOL0     C86305  -1.303   0.234  10.371 -0.0500  0.2901  0.2694
  640MOL0     C86306  -1.381   0.357  10.331 -0.9983 -0.3257 -0.4162
  640MOL0     C86307  -1.499   0.326  10.242 -0.3145  0.3402 -0.4639
  640MOL0     C86308  -1.610   0.247  10.322  0.1968  0.5266 -0.7741
  640MOL0     C86309  -1.736   0.232  10.246  0.1836 -0.2673 -0.5960
  640MOL0    Cl86310  -1.851   0.145  10.360 -0.0815 -0.2697 -0.5886
  640MOL0     C86311  -0.684   0.325  10.581 -0.5325 -0.7465  0.2172
  640MOL0     C86312  -0.548   0.303  10.613 -0.1996  0.0363 -0.3267
  640MOL0     O86313  -0.370   0.057  10.559 -0.5498  0.1947  0.7948
  640MOL0     C86314  -0.057   0.163  10.499 -0.5612  0.6576  0.4886
  640MOL0     C86315   0.078   0.132  10.498  0.5572 -0.7523  0.0042
  640MOL0     N86316   0.981   0.173  10.511  0.1076 -0.5609 -0.2163
  640MOL0     N86317   1.049   0.241  10.433  0.1379 -0.0282 -0.3034
  640MOL0     C86318   1.289   0.742   9.208  0.6780 -0.2547  1.2054
  640MOL0     C86319   1.309   0.691   9.075 -0.0386 -0.8244 -0.2082
  640MOL0     C86320   1.505   0.354   8.826 -0.0432 -0.5186  0.8705
  640MOL0     C86321   1.409   0.270   8.764 -0.9478 -0.2800  0.7308
  640MOL0     C86322   1.455   0.176   8.672 -0.0886 -0.4860 -0.5982
  640MOL0     C86323   1.590   0.159   8.639 -0.0998 -0.5102 -0.1472
  640MOL0     O86324   1.627   0.069   8.546 -0.2396 -0.2401  0.4571
  640MOL0     C86325   1.762   0.043   8.506 -0.2376  0.1102  0.2381
  640MOL0     C86326   1.768  -0.052   8.386  0.6662  0.6541  0.5591
  640MOL0     C86327   1.775  -0.203   8.420 -0.5988 -1.1255  0.7473
  640MOL0     C86328   1.759  -0.280   8.296 -0.6126  0.5575  0.0855
  640MOL0     C86329   1.854  -0.244   8.191  1.4118 -0.8418  0.1547
  640MOL0     C86330   1.924  -0.219   8.099 -0.4939 -0.3777 -0.6871
  640MOL0     C86331   1.681   0.240   8.709  0.5620  0.2575 -0.2146
  640MOL0     C86332   1.640   0.338   8.803 -0.0065 -0.0566  0.9062
  640MOL0     H86333   1.248   0.368   9.140  5.2331 -0.3840 -1.2263
  640MOL0     H86334   1.200   0.457   9.362  0.7594  2.2240  0.2859
  640MOL0     H86335   1.075   0.635   9.497 -0.1700  1.0181  0.7264
  640MOL0     H86336   1.210   0.543   9.553 -2.9520 -0.6349  1.0581
  640MOL0     H86337   1.271   0.713   9.704  0.0156  0.6096 -0.8757
  640MOL0     H86338   1.137   0.828   9.653 -0.0777 -0.6838 -2.4458
  640MOL0     H86339   1.072   0.747   9.850 -2.2712 -0.8276  1.0475
  640MOL0     H86340   0.981   0.651   9.729  0.5666  1.4234 -0.1021
  640MOL0     H86341   1.178   0.474   9.751  5.1140  0.3923  1.9609
  640MOL0     H86342   1.235   0.562   9.883  0.8985 -0.1271 -1.1710
  640MOL0     H86343   1.021   0.531   9.996  0.1261  0.7210 -0.1683
  640MOL0     H86344   0.975   0.402   9.876 -0.0145 -1.0742  2.1183
  640MOL0     H86345   1.198   0.288   9.934 -0.0346 -0.2538 -0.3263
  640MOL0     H86346   1.223   0.421  10.048 -1.2812  0.5042  0.6076
  640MOL0     H86347   0.992   0.213  10.066  1.3537 -1.5172  0.3788
  640MOL0     H86348   1.128   0.200  10.159 -2.5565 -0.9533  0.8673
  640MOL0     H86349   0.937   0.401  10.180  0.1696 -5.4863 -1.9017
  640MOL0     H86350   1.089   0.435  10.266  0.0551 -0.4040  0.4226
  640MOL0     H86351   0.768   0.199  10.264 -3.3073  0.9539  3.2397
  640MOL0     H86352   0.778   0.001  10.592 -3.0773 -2.0061 -1.0568
  640MOL0     H86353   0.716   0.161  10.629 -1.2018  1.3144 -1.5709
  640MOL0     H86354   0.619   0.009  10.394 -1.5223  1.2296 -0.7846
  640MOL0     H86355   0.586   0.177  10.444 -1.8321  0.6405  3.2285
  640MOL0     H86356   0.512   0.090  10.672 -1.6198 -2.3854  1.9075
  640MOL0     H86357   0.499  -0.068  10.580 -0.5478 -0.0819 -1.1000
  640MOL0     H86358   0.343   0.039  10.431 -1.3524 -1.6295  0.2993
  640MOL0     H86359   0.331   0.188  10.527 -0.3179 -0.2006 -1.3764
  640MOL0     H86360   0.072  -0.042  10.794 -0.0421 -0.0701 -0.0592
  640MOL0     H86361  -0.283  -0.040  10.778 -0.1576  2.3816 -0.4117
  640MOL0     H86362  -0.140  -0.078  10.884  0.2448  0.9940  1.0960
  640MOL0     H86363  -0.227   0.088  10.875 -0.4981  1.0960 -1.4430
  640MOL0     H86364  -0.407   0.382  10.312  0.6187  0.7019  0.2748
  640MOL0     H86365  -0.661   0.419  10.261  0.8865  1.4301  0.1333
  640MOL0     H86366  -0.918   0.177  10.418  2.1116  0.0805 -0.7087
  640MOL0     H86367  -0.945   0.289  10.563  1.0001 -1.3316 -0.1149
  640MOL0     H86368  -1.095   0.426  10.411  0.0032 -0.1519 -0.1000
  640MOL0     H86369  -1.067   0.285  10.293  1.4041  3.2126 -0.9131
  640MOL0     H86370  -1.228   0.319  10.541 -0.4201 -1.9907  1.3594
  640MOL0     H86371  -1.162   0.160  10.499 -1.2091 -0.6897 -1.0397
  640MOL0     H86372  -1.265   0.189  10.279 -3.5180  0.3947 -1.3647
  640MOL0     H86373  -1.369   0.160  10.417 -0.2399  0.3105  0.0285
  640MOL0     H86374  -1.326   0.434  10.276 -1.2365  0.1303 -0.0267
  640MOL0     H86375  -1.409   0.400  10.428 -1.5830 -0.2057 -0.6380
  640MOL0     H86376  -1.549   0.411  10.195 -2.1396 -0.5755 -0.2498
  640MOL0     H86377  -1.462   0.265  10.159  1.3606 -1.6839  1.6237
  640MOL0     H86378  -1.630   0.289  10.421 -1.2904 -2.1955  0.2027
  640MOL0     H86379  -1.600   0.139  10.340 -1.7678  0.1722 -1.5497
  640MOL0     H86380  -1.716   0.168  10.159  0.4814 -2.6899  1.1446
  640MOL0     H86381  -1.772   0.334  10.230  0.4936  0.1373  1.1459
  640MOL0     H86382  -0.755   0.311  10.662 -1.2104  1.4677  0.0927
  640MOL0     H86383  -0.519   0.263  10.709  1.0194 -0.6570 -0.9469
  640MOL0     H86384  -0.096   0.216  10.413 -0.5259 -2.0086 -1.2682
  640MOL0     H86385   0.147   0.189  10.436  1.9464 -0.6546  1.5687
  640MOL0     H86386   1.320   0.846   9.222  0.3955  0.0590 -0.3171
  640MOL0     H86387   1.350   0.753   8.996  1.0021 -1.0328  0.1433
  640MOL0     H86388   1.302   0.284   8.772 -1.0465 -0.5764  0.0428
  640MOL0     H86389   1.386   0.117   8.613 -1.0774  0.8226 -0.7912
  640MOL0     H86390   1.806   0.140   8.481 -0.5968 -0.6145 -3.9385
  640MOL0     H86391   1.826   0.000   8.584  0.4811  2.3548  0.9471
  640MOL0     H86392   1.852  -0.013   8.329  0.2613  2.0013  0.8557
  640MOL0     H86393   1.675  -0.038   8.331  1.0117  3.7078  0.5658
  640MOL0     H86394   1.703  -0.224   8.500 -2.1953  0.4500 -0.2159
  640MOL0     H86395   1.873  -0.227   8.462  0.2237 -2.6667 -1.8160
  640MOL0     H86396   1.659  -0.274   8.253  0.4573 -0.4026 -2.7995
  640MOL0     H86397   1.783  -0.384   8.321  0.2643  0.6782 -0.2203
  640MOL0     H86398   1.982  -0.221   8.008 -0.0824 -1.4206 -0.4178
  640MOL0     H86399   1.787   0.222   8.699  1.0080  2.0398  0.8041
  640MOL0     H86400   1.718   0.378   8.867  0.8978  1.3170 -0.9869
  641MOL0     O86401  11.335   4.638   2.857  0.0248 -0.0164  0.3809
  641MOL0     C86402  11.293   4.685   2.747 -0.5754  0.4306 -0.1498
  641MOL0     O86403  11.183   4.656   2.682 -0.2371  0.0682  0.1657
  641MOL0     C86404  11.091   4.581   2.740  0.3343  0.5954 -0.6098
  641MOL0     C86405  10.972   4.634   2.778  0.2365 -0.3564 -1.1579
  641MOL0     C86406  10.879   4.564   2.856 -0.8190 -0.6532  0.4781
  641MOL0     C86407  10.916   4.439   2.903  0.5123  0.6038 -0.6854
  641MOL0     O86408  10.837   4.363   2.981 -0.0388  0.1673  0.2199
  641MOL0     C86409  10.698   4.398   2.982  0.0756  0.4541  1.2064
  641MOL0     C86410  10.633   4.273   3.030 -0.0045 -0.1996 -0.0175
  641MOL0     C86411  10.668   4.238   3.170 -0.3379  0.5429 -0.3926
  641MOL0     C86412  10.587   4.123   3.225 -0.9771 -0.7974  0.4739
  641MOL0     C86413  10.649   4.082   3.355 -0.3082  0.2752 -0.7413
  641MOL0     C86414  10.568   3.971   3.429  0.8046 -0.8085  0.3002
  641MOL0     C86415  10.575   3.846   3.342 -0.1187  0.5088 -0.0984
  641MOL0     C86416  10.534   3.706   3.396  0.2702  0.6827 -0.6888
  641MOL0     N86417  10.405   3.711   3.459  0.3501  0.3801  0.1988
  641MOL0     C86418  10.366   3.748   3.588 -1.2887  0.5681 -0.2872
  641MOL0     C86419  10.235   3.714   3.589 -0.2785 -0.8721  0.2256
  641MOL0     C86420  10.144   3.746   3.708 -0.8751 -0.6641  0.6588
  641MOL0     C86421  10.004   3.693   3.693  0.2400  0.8184 -0.3108
  641MOL0     C86422   9.903   3.795   3.629 -0.6336 -1.4751 -0.5499
  641MOL0     C86423   9.869   3.905   3.721 -0.1168 -0.1165 -0.0598
  641MOL0     O86424   9.817   4.007   3.632 -0.0575  0.5956 -0.5740
  641MOL0     C86425   9.826   4.136   3.670 -0.1537 -0.3336 -0.0744
  641MOL0     C86426   9.834   4.184   3.804 -0.0490  0.6568 -0.3018
  641MOL0     C86427   9.837   4.317   3.842 -0.0294 -0.1783 -1.2462
  641MOL0     C86428   9.869   4.341   3.992  0.3324 -0.9888 -0.3095
  641MOL0     C86429   9.822   4.417   3.735  0.1784 -0.1884  0.2225
  641MOL0     C86430   9.816   4.564   3.750 -0.3851  0.1029  0.5403
  641MOL0     O86431   9.765   4.646   3.649 -0.8020  0.5054  0.7655
  641MOL0     C86432   9.764   4.783   3.657 -0.4974 -0.2347 -0.4900
  641MOL0     C86433   9.658   4.855   3.715  0.1166  0.5806  0.4468
  641MOL0     C86434   9.660   4.993   3.723  0.5648 -0.1714  0.2761
  641MOL0     C86435   9.763   5.070   3.664  0.5994 -0.3297  1.3759
  641MOL0     O86436   9.762   5.209   3.665  0.2197  0.3743 -0.3723
  641MOL0     C86437   9.713   5.281   3.783  0.3948  0.2956  0.6649
  641MOL0     C86438   9.739   5.430   3.751  0.3924  0.5855  0.1625
  641MOL0     C86439   9.880   5.473   3.820 -0.0276  0.7488 -0.7705
  641MOL0     C86440   9.985   5.428   3.722  0.0751  0.0482  0.1053
  641MOL0     C86441  10.133   5.444   3.782 -0.3931 -0.5092 -0.0231
  641MOL0     C86442  10.166   5.580   3.846 -0.9676 -0.6531 -0.3446
  641MOL0     C86443  10.190   5.698   3.746 -0.0185  0.7361  0.0434
  641MOL0     C86444  10.155   5.838   3.800 -0.1042  0.5409 -0.5389
  641MOL0    Cl86445  10.272   5.903   3.908 -0.0732 -0.6990  0.1442
  641MOL0     C86446   9.871   4.997   3.610  0.1609  0.6163 -0.8321
  641MOL0     C86447   9.870   4.855   3.594  0.1300 -0.2556  0.4290
  641MOL0     O86448   9.850   4.598   3.860  0.4368 -0.9415 -0.1087
  641MOL0     C86449   9.802   4.371   3.606 -0.1476 -0.5072  0.9420
  641MOL0     C86450   9.807   4.234   3.572  0.8934  0.7013  0.2137
  641MOL0     N86451  10.197   3.651   3.471 -0.3564  0.1654 -0.4033
  641MOL0     N86452  10.303   3.647   3.394  0.1136  0.3685 -0.7395
  641MOL0     C86453  11.034   4.376   2.865 -2.2286  0.8866  0.2045
  641MOL0     C86454  11.112   4.449   2.780 -0.5429 -0.5761  0.9311
  641MOL0     C86455  11.366   4.793   2.694  0.0695 -1.4446 -0.2458
  641MOL0     C86456  11.301   4.919   2.668 -0.3921  0.3834  0.3206
  641MOL0     C86457  11.385   5.028   2.622 -0.2684 -0.3049 -0.3824
  641MOL0     C86458  11.523   5.013   2.604 -0.0237 -0.4859  0.0836
  641MOL0     O86459  11.606   5.121   2.560  0.3080 -0.6578  0.0123
  641MOL0     C86460  11.550   5.251   2.560  0.4306 -1.0853  0.1548
  641MOL0     C86461  11.655   5.365   2.564 -0.1742  0.3822 -0.1753
  641MOL0     C86462  11.729   5.368   2.434  0.7403  0.2841 -0.1737
  641MOL0     C86463  11.640   5.362   2.311  0.3872  0.1251 -0.0177
  641MOL0     C86464  11.720   5.365   2.198 -0.7014  0.1465  0.2605
  641MOL0     C86465  11.786   5.364   2.098  0.3905  0.9494  0.5750
  641MOL0     C86466  11.580   4.891   2.619  0.1250 -0.0970 -0.1797
  641MOL0     C86467  11.510   4.783   2.670  0.2362  1.1505  1.3797
  641MOL0     H86468  10.947   4.730   2.734  2.1519  0.1444 -1.2579
  641MOL0     H86469  10.785   4.614   2.877 -0.1813  0.0719  1.7065
  641MOL0     H86470  10.682   4.484   3.047  1.8972 -0.2627  2.7120
  641MOL0     H86471  10.664   4.415   2.879 -0.5285 -1.8185  0.9680
  641MOL0     H86472  10.526   4.294   3.023 -0.0465  1.7903  3.9939
  641MOL0     H86473  10.664   4.191   2.963 -2.3382  0.7421 -2.4453
  641MOL0     H86474  10.775   4.216   3.164 -0.5023 -0.4438  0.0196
  641MOL0     H86475  10.645   4.322   3.237 -0.9997  0.1176 -0.0748
  641MOL0     H86476  10.487   4.165   3.243 -1.5498 -1.6554 -0.5975
  641MOL0     H86477  10.582   4.043   3.151  1.7679 -2.3941  1.8711
  641MOL0     H86478  10.751   4.049   3.333 -0.4497  0.4294 -1.6642
  641MOL0     H86479  10.654   4.170   3.420 -2.6677  2.6004 -3.4360
  641MOL0     H86480  10.605   3.952   3.530 -1.9768 -1.2381  1.3276
  641MOL0     H86481  10.467   4.011   3.430  1.1943  0.6408 -3.3338
  641MOL0     H86482  10.519   3.866   3.250 -0.2563  0.9668  0.0823
  641MOL0     H86483  10.679   3.844   3.306 -0.1878 -0.5846 -0.2561
  641MOL0     H86484  10.610   3.672   3.466  0.0257  2.8469  0.7430
  641MOL0     H86485  10.528   3.630   3.319  0.7861  1.6890 -1.7524
  641MOL0     H86486  10.424   3.796   3.667  0.3474 -1.0739 -0.4234
  641MOL0     H86487  10.201   3.700   3.789  5.3412  1.4788 -1.8567
  641MOL0     H86488  10.154   3.853   3.728  0.5192 -0.3067 -1.5558
  641MOL0     H86489   9.970   3.655   3.790  1.2051 -1.6951 -0.8558
  641MOL0     H86490  10.003   3.612   3.619 -2.0311 -0.3501  0.8985
  641MOL0     H86491   9.821   3.725   3.611 -0.7032 -1.6144  0.2876
  641MOL0     H86492   9.941   3.843   3.538 -3.0877 -0.2089 -0.9951
  641MOL0     H86493   9.959   3.943   3.771 -0.2613  0.5196 -0.2715
  641MOL0     H86494   9.801   3.868   3.799 -0.0590  0.5648  0.3185
  641MOL0     H86495   9.851   4.109   3.881 -1.7943 -0.5312 -0.9989
  641MOL0     H86496   9.807   4.410   4.050  1.0539 -0.6912  0.1174
  641MOL0     H86497   9.855   4.247   4.047 -0.2048 -0.4369  0.5176
  641MOL0     H86498   9.976   4.355   4.012 -0.0173 -0.6553  1.5662
  641MOL0     H86499   9.572   4.802   3.756  2.4404 -2.4782  1.7564
  641MOL0     H86500   9.572   5.024   3.778  0.6393 -0.0902  0.3490
  641MOL0     H86501   9.604   5.275   3.790  0.3392  1.4776  1.1036
  641MOL0     H86502   9.772   5.252   3.870  0.7955  1.6548  0.8777
  641MOL0     H86503   9.730   5.454   3.644 -1.3087  3.6875  0.8930
  641MOL0     H86504   9.655   5.491   3.784  1.6674  0.9793  2.9437
  641MOL0     H86505   9.890   5.421   3.916  0.0198 -1.2007 -1.7876
  641MOL0     H86506   9.891   5.581   3.834 -2.7531  1.0866 -0.6745
  641MOL0     H86507   9.979   5.321   3.699 -1.0739  0.0977  0.1574
  641MOL0     H86508   9.969   5.474   3.624 -1.5853 -3.4207 -1.4431
  641MOL0     H86509  10.217   5.429   3.713  3.4745 -3.5202  4.7405
  641MOL0     H86510  10.153   5.369   3.859  0.3349  3.1645  3.7132
  641MOL0     H86511  10.084   5.604   3.914 -1.0781  1.2791 -1.0719
  641MOL0     H86512  10.261   5.568   3.899 -0.1895  0.2781 -1.4599
  641MOL0     H86513  10.117   5.680   3.666 -0.2524 -2.1258  0.7886
  641MOL0     H86514  10.289   5.697   3.701 -0.4010  1.6510 -0.8578
  641MOL0     H86515  10.057   5.829   3.849 -0.5197 -1.1870 -1.5958
  641MOL0     H86516  10.145   5.900   3.710  1.1535  0.6792 -0.6011
  641MOL0     H86517   9.947   5.058   3.563  1.1019  1.8612  2.1058
  641MOL0     H86518   9.945   4.807   3.532 -0.8167  0.6016 -1.4295
  641MOL0     H86519   9.773   4.426   3.517  1.9537 -1.2003 -0.2109
  641MOL0     H86520   9.778   4.202   3.473 -0.4171  0.8832  0.5147
  641MOL0     H86521  11.067   4.279   2.900 -0.8557  1.2951  0.1144
  641MOL0     H86522  11.198   4.401   2.733 -0.6838  0.8986 -0.9416
  641MOL0     H86523  11.196   4.930   2.693 -0.0272 -0.3862  2.4719
  641MOL0     H86524  11.330   5.117   2.593 -1.0383 -0.6745 -0.1108
  641MOL0     H86525  11.478   5.263   2.478  0.6267  3.5789  0.4146
  641MOL0     H86526  11.483   5.268   2.645 -1.8423  5.9473 -2.3599
  641MOL0     H86527  11.723   5.358   2.648  0.0856  2.9432 -0.0901
  641MOL0     H86528  11.603   5.461   2.578 -1.8609 -0.5066 -0.0165
  641MOL0     H86529  11.797   5.284   2.445 -1.9126 -1.9326  0.4969
  641MOL0     H86530  11.778   5.466   2.441  0.0947  0.5789  0.4039
  641MOL0     H86531  11.571   5.447   2.314  0.0036 -0.1345 -1.1202
  641MOL0     H86532  11.586   5.267   2.303  1.2962 -0.4075  0.0630
  641MOL0     H86533  11.842   5.346   2.009  0.8910 -0.6925  1.1951
  641MOL0     H86534  11.687   4.879   2.606  0.4893  2.0229  0.4369
  641MOL0     H86535  11.573   4.695   2.683  1.6206  1.9647  0.3353
  642MOL0     O86536   0.312   9.927   9.618 -0.0607 -0.1383  0.2654
  642MOL0     C86537   0.421   9.935   9.682  0.8330 -0.0529 -0.2919
  642MOL0     O86538   0.459  10.036   9.767  0.6583  0.5775 -0.7008
  642MOL0     C86539   0.364  10.138   9.778  0.6285  0.4795  0.2529
  642MOL0     C86540   0.222  10.111   9.793  0.5321 -0.1016 -0.1762
  642MOL0     C86541   0.134  10.221   9.806 -0.8080 -0.7612 -0.6240
  642MOL0     C86542   0.183  10.356   9.809  0.7716  0.5741  0.1658
  642MOL0     O86543   0.093  10.453   9.821  0.3485  0.8818 -0.3342
  642MOL0     C86544   0.139  10.596   9.834  0.4209  1.5596 -0.1871
  642MOL0     C86545   0.029  10.692   9.846  0.6483 -0.1944  0.2499
  642MOL0     C86546  -0.037  10.690   9.981  0.3787  0.1922  0.4022
  642MOL0     C86547  -0.140  10.801   9.982 -0.1818  0.4451  0.4132
  642MOL0     C86548  -0.207  10.818  10.126 -0.5813  0.7025 -0.6465
  642MOL0     C86549  -0.276  10.687  10.160  0.6094 -1.3243  0.1608
  642MOL0     C86550  -0.370  10.714  10.278  0.4546 -0.5570  1.0658
  642MOL0     C86551  -0.446  10.591  10.330 -0.1104 -0.0230  0.0785
  642MOL0     N86552  -0.502  10.635  10.460  0.5163 -0.4519 -0.4000
  642MOL0     C86553  -0.620  10.707  10.472  0.3949  0.3846  0.4190
  642MOL0     C86554  -0.643  10.712  10.610  0.0911 -0.4439 -0.0159
  642MOL0     C86555  -0.763  10.754  10.687  0.4515  0.0512  0.1561
  642MOL0     C86556  -0.864  10.645  10.683 -0.7255  0.0035  0.1894
  642MOL0     C86557  -0.994  10.666  10.758  0.7991 -0.5363  0.3687
  642MOL0     C86558  -1.087  10.759  10.689  0.1047  0.2494 -0.2133
  642MOL0     O86559  -1.205  10.767  10.759  0.3644 -0.0562  0.7696
  642MOL0     C86560  -1.309  10.827  10.694  0.7494 -0.2549 -0.4964
  642MOL0     C86561  -1.307  10.936  10.597 -0.1414 -0.2951 -0.2405
  642MOL0     C86562  -1.421  11.004  10.560  1.0978 -0.0631  0.4391
  642MOL0     C86563  -1.402  11.120  10.470 -0.4645  0.3589  0.3457
  642MOL0     C86564  -1.550  10.971  10.616 -0.4556  0.6855  0.3098
  642MOL0     C86565  -1.680  11.045  10.601  0.0710  0.3427  0.4475
  642MOL0     O86566  -1.771  11.014  10.697 -0.7086  0.2656 -0.2767
  642MOL0     C86567  -1.899  11.052  10.686  0.0665 -1.5493 -0.8754
  642MOL0     C86568  -1.941  11.183  10.722  0.2619  0.5175  0.5827
  642MOL0     C86569  -2.081  11.217  10.723 -0.4662 -0.2659 -0.9295
  642MOL0     C86570  -2.186  11.120  10.705 -0.5073  0.4730  0.2972
  642MOL0     O86571  -2.321  11.139  10.684  0.0387 -0.2537 -0.0739
  642MOL0     C86572  -2.360  11.283  10.669 -0.7810  0.0709  0.0625
  642MOL0     C86573  -2.482  11.289  10.583  0.3902 -0.2604  0.3441
  642MOL0     C86574  -2.590  11.194  10.630  0.2212  0.2194  0.6202
  642MOL0     C86575  -2.723  11.216  10.553  0.5643  0.5992 -0.2216
  642MOL0     C86576  -2.834  11.119  10.607 -0.4660 -0.4065 -0.1095
  642MOL0     C86577  -2.972  11.142  10.539 -0.5962  0.0711  0.2537
  642MOL0     C86578  -3.076  11.048  10.603  0.4526  0.2194  0.2974
  642MOL0     C86579  -3.211  11.064  10.528 -1.0456  0.6798 -0.3138
  642MOL0    Cl86580  -3.279  11.234  10.561 -0.5084  0.1712  0.0713
  642MOL0     C86581  -2.138  10.992  10.686 -0.4272  0.5697 -0.0873
  642MOL0     C86582  -2.002  10.963  10.655  0.3355 -1.5472  0.4937
  642MOL0     O86583  -1.701  11.124  10.513 -0.0480 -0.5910  0.6733
  642MOL0     C86584  -1.555  10.852  10.690 -0.0223 -0.5233  0.6615
  642MOL0     C86585  -1.431  10.786  10.733 -0.6140  0.1243  0.0065
  642MOL0     N86586  -0.544  10.632  10.669  0.3426 -0.6062  0.3665
  642MOL0     N86587  -0.453  10.600  10.584 -0.2634 -0.0370  0.4533
  642MOL0     C86588   0.327  10.377   9.792  0.3853 -0.1831  0.4440
  642MOL0     C86589   0.409  10.268   9.775 -0.6678 -0.3697  0.2476
  642MOL0     C86590   0.532   9.839   9.661  0.4028  0.9459  0.1809
  642MOL0     C86591   0.503   9.721   9.582 -0.2865  0.3264 -0.2320
  642MOL0     C86592   0.604   9.621   9.571 -0.3258 -0.4641  0.2975
  642MOL0     C86593   0.726   9.630   9.626  0.4610  0.3960  1.0466
  642MOL0     O86594   0.812   9.522   9.607  0.6796  0.5254 -0.5969
  642MOL0     C86595   0.950   9.557   9.599 -0.6023  0.6761 -0.4313
  642MOL0     C86596   1.014   9.446   9.518 -0.3410 -1.2460 -0.5124
  642MOL0     C86597   0.992   9.440   9.377 -0.4533 -0.2906 -0.1541
  642MOL0     C86598   1.091   9.539   9.300 -0.7436  0.2757  0.1742
  642MOL0     C86599   1.227   9.484   9.300 -0.3294  0.4688 -0.2431
  642MOL0     C86600   1.343   9.460   9.313  0.0044  1.2699  0.2428
  642MOL0     C86601   0.747   9.738   9.716 -0.0966  0.5030  0.3871
  642MOL0     C86602   0.647   9.830   9.744  0.5197  1.4271 -0.4576
  642MOL0     H86603   0.175  10.017   9.819  1.0120  0.1690  1.8931
  642MOL0     H86604   0.026  10.210   9.814 -0.9089  1.0239  1.5445
  642MOL0     H86605   0.202  10.614   9.922 -2.4030  0.4423  2.2475
  642MOL0     H86606   0.197  10.624   9.746  0.0813  0.2508 -0.8463
  642MOL0     H86607   0.072  10.790   9.824 -1.3210  0.6842  0.0719
  642MOL0     H86608  -0.051  10.675   9.774  0.0835 -0.4544  0.9295
  642MOL0     H86609  -0.083  10.596  10.013 -0.9860  0.9092  0.6378
  642MOL0     H86610   0.039  10.710  10.057  0.1425 -0.3273  0.7725
  642MOL0     H86611  -0.105  10.898   9.946  0.0755 -0.0389 -0.6705
  642MOL0     H86612  -0.211  10.765   9.908  2.0368 -1.2232 -1.0314
  642MOL0     H86613  -0.130  10.843  10.199  0.4663 -1.2411 -1.0060
  642MOL0     H86614  -0.276  10.902  10.114 -0.0422  1.2137 -0.2073
  642MOL0     H86615  -0.339  10.665  10.073  1.9498  1.6217 -1.7252
  642MOL0     H86616  -0.204  10.610  10.190  1.6918 -0.4525 -0.1564
  642MOL0     H86617  -0.310  10.754  10.360  0.8607 -0.3921  0.6944
  642MOL0     H86618  -0.426  10.799  10.236  0.9297 -1.7141 -2.1718
  642MOL0     H86619  -0.376  10.513  10.357  0.2383 -0.2254 -1.3290
  642MOL0     H86620  -0.530  10.545  10.276 -1.8507 -0.6958  3.1415
  642MOL0     H86621  -0.684  10.734  10.389  0.7105 -0.1891 -0.0226
  642MOL0     H86622  -0.742  10.773  10.793  0.7939  0.5593 -0.0024
  642MOL0     H86623  -0.815  10.840  10.644  0.3038  1.1597  2.3751
  642MOL0     H86624  -0.816  10.556  10.726  1.5561  1.3603  0.6159
  642MOL0     H86625  -0.888  10.612  10.581 -1.6713 -1.1553  0.7597
  642MOL0     H86626  -0.976  10.712  10.856 -0.6471 -2.4943  1.6423
  642MOL0     H86627  -1.043  10.570  10.779 -1.7477  0.8538  1.3150
  642MOL0     H86628  -1.107  10.720  10.589 -0.6057 -0.6090  0.2369
  642MOL0     H86629  -1.039  10.856  10.680  0.5064 -0.1215 -2.7529
  642MOL0     H86630  -1.209  10.970  10.565  1.0411 -2.3247  0.9883
  642MOL0     H86631  -1.423  11.213  10.525  0.2855  1.0532 -0.4975
  642MOL0     H86632  -1.296  11.129  10.446 -0.4115  1.9372  1.0054
  642MOL0     H86633  -1.474  11.116  10.387 -1.4365  0.8289  1.1414
  642MOL0     H86634  -1.865  11.257  10.749  1.1456  0.8241 -2.3941
  642MOL0     H86635  -2.109  11.319  10.747  1.3263 -0.3685  1.9989
  642MOL0     H86636  -2.376  11.332  10.766  0.2786  1.4724 -0.4230
  642MOL0     H86637  -2.284  11.327  10.603 -0.1988 -0.8783  0.0824
  642MOL0     H86638  -2.520  11.389  10.560 -1.0438 -0.4128  1.8252
  642MOL0     H86639  -2.454  11.251  10.484 -2.4826  0.0442 -0.6966
  642MOL0     H86640  -2.598  11.203  10.738 -4.6905 -0.6940  0.5529
  642MOL0     H86641  -2.568  11.091  10.601 -1.4615  0.6836 -2.8177
  642MOL0     H86642  -2.753  11.319  10.573  1.2447  0.9009 -0.6952
  642MOL0     H86643  -2.712  11.206  10.444  0.2599 -1.3706 -0.1114
  642MOL0     H86644  -2.841  11.118  10.717 -3.2544 -1.0400 -0.2328
  642MOL0     H86645  -2.817  11.015  10.577 -0.9677 -0.5687  0.1581
  642MOL0     H86646  -2.999  11.246  10.559 -3.7096 -0.3175 -1.2449
  642MOL0     H86647  -2.958  11.128  10.431 -1.2391 -2.9500  0.4886
  642MOL0     H86648  -3.096  11.064  10.709 -4.6595  1.5894 -0.5664
  642MOL0     H86649  -3.037  10.948  10.586  0.6702  0.4113 -0.3708
  642MOL0     H86650  -3.281  10.990  10.569  1.0760 -0.3804  1.6054
  642MOL0     H86651  -3.198  11.058  10.419 -0.1498  1.2637 -0.2504
  642MOL0     H86652  -2.221  10.925  10.664 -1.3856  0.7015  2.6661
  642MOL0     H86653  -1.982  10.860  10.628 -1.9907 -2.6598  2.5980
  642MOL0     H86654  -1.648  10.811  10.727  0.3288  0.4203  2.7410
  642MOL0     H86655  -1.431  10.710  10.811 -0.6158 -0.3901 -0.4888
  642MOL0     H86656   0.375  10.474   9.789  0.8157 -0.3818  0.7802
  642MOL0     H86657   0.516  10.282   9.763 -0.6740 -0.7992 -0.3217
  642MOL0     H86658   0.406   9.712   9.534  0.2664  0.8859 -1.4715
  642MOL0     H86659   0.586   9.542   9.499  2.3425  0.3288 -1.3631
  642MOL0     H86660   0.965   9.659   9.562 -2.2223  0.8784 -0.6153
  642MOL0     H86661   1.001   9.548   9.695  0.3588  2.7599 -0.6909
  642MOL0     H86662   0.994   9.347   9.558 -1.7612 -1.7492 -2.3587
  642MOL0     H86663   1.123   9.457   9.530 -0.6222 -0.6077  2.2936
  642MOL0     H86664   0.891   9.476   9.356 -0.0707  0.5446 -0.5866
  642MOL0     H86665   1.013   9.337   9.343  5.2124 -0.3204  2.2188
  642MOL0     H86666   1.100   9.636   9.350  1.4541  0.9208 -1.3167
  642MOL0     H86667   1.060   9.548   9.196 -1.5846  0.7826  0.4576
  642MOL0     H86668   1.449   9.444   9.319 -0.0936 -0.1547 -1.1065
  642MOL0     H86669   0.831   9.751   9.783  0.3767  2.0765 -0.4702
  642MOL0     H86670   0.674   9.899   9.823  1.5522  0.7330 -0.1860
  643MOL0     O86671   0.456   6.512   1.233 -0.3570  0.4214 -0.5941
  643MOL0     C86672   0.551   6.441   1.238  0.5646  0.1381 -0.0436
  643MOL0     O86673   0.661   6.472   1.301 -0.1082  0.1389  0.1962
  643MOL0     C86674   0.676   6.596   1.361  0.3226  0.5611 -0.1805
  643MOL0     C86675   0.640   6.607   1.497 -0.6171 -0.1734 -0.4056
  643MOL0     C86676   0.650   6.729   1.564 -0.5995 -0.6097 -0.6403
  643MOL0     C86677   0.688   6.848   1.496 -0.0229 -0.8264 -0.2205
  643MOL0     O86678   0.681   6.966   1.569  0.4100  0.1076 -0.4961
  643MOL0     C86679   0.679   7.098   1.504  0.5809 -0.7512  0.2641
  643MOL0     C86680   0.539   7.144   1.459 -0.3674  0.1456  0.8074
  643MOL0     C86681   0.439   7.128   1.569 -0.1872  0.7013  0.6673
  643MOL0     C86682   0.309   7.168   1.505  0.6668  0.1459  0.3136
  643MOL0     C86683   0.207   7.162   1.624  0.4593 -0.1011 -0.4479
  643MOL0     C86684   0.070   7.215   1.593  0.0786  0.2365 -0.0708
  643MOL0     C86685  -0.011   7.250   1.719  0.2287 -0.4444  0.8196
  643MOL0     C86686  -0.101   7.370   1.685  0.6918 -0.1043  0.7655
  643MOL0     N86687  -0.214   7.386   1.790  0.1806 -0.0049  0.0328
  643MOL0     C86688  -0.220   7.454   1.900  0.3426 -0.0766 -0.1622
  643MOL0     C86689  -0.351   7.461   1.943 -0.0722 -0.7773 -0.6491
  643MOL0     C86690  -0.413   7.548   2.052 -0.0331  0.9576  0.2271
  643MOL0     C86691  -0.474   7.469   2.174  0.0278  1.0310  0.0745
  643MOL0     C86692  -0.597   7.380   2.132  0.9084  0.7785 -0.9176
  643MOL0     C86693  -0.714   7.466   2.115  1.3292  0.1718  0.2449
  643MOL0     O86694  -0.825   7.386   2.144  0.5047 -0.2006  0.0910
  643MOL0     C86695  -0.953   7.441   2.143 -0.2485  0.1222 -0.6778
  643MOL0     C86696  -0.986   7.568   2.121 -0.8321 -0.2131  0.3324
  643MOL0     C86697  -1.109   7.624   2.128 -0.2933  0.0735 -0.7286
  643MOL0     C86698  -1.121   7.771   2.112  1.1785  0.3370 -1.2157
  643MOL0     C86699  -1.220   7.532   2.155  0.8942 -0.8842  0.1636
  643MOL0     C86700  -1.373   7.579   2.148 -0.7389  0.8782 -0.1683
  643MOL0     O86701  -1.465   7.479   2.172  0.6443 -0.2393  0.1882
  643MOL0     C86702  -1.601   7.505   2.179  0.0145  0.3681  0.1383
  643MOL0     C86703  -1.684   7.409   2.124 -0.1671 -0.4089  0.8699
  643MOL0     C86704  -1.825   7.405   2.141  0.3304 -0.1533  0.1404
  643MOL0     C86705  -1.887   7.499   2.228  0.4153  0.5124 -0.4313
  643MOL0     O86706  -2.022   7.483   2.254 -0.2674  0.7986  0.7912
  643MOL0     C86707  -2.100   7.360   2.251  1.0403 -0.4379 -0.0512
  643MOL0     C86708  -2.215   7.359   2.356 -0.5007 -0.6014 -0.5386
  643MOL0     C86709  -2.174   7.414   2.489  0.1667 -0.7011 -0.4632
  643MOL0     C86710  -2.095   7.327   2.582  0.5079 -0.0929  0.3934
  643MOL0     C86711  -2.009   7.403   2.688  0.1917 -0.9605 -0.0948
  643MOL0     C86712  -2.015   7.341   2.825  0.9177  0.0962  0.7626
  643MOL0     C86713  -1.953   7.203   2.819 -0.8249 -0.9015 -0.0616
  643MOL0     C86714  -1.883   7.179   2.946 -0.3324  0.4113 -0.4769
  643MOL0    Cl86715  -2.013   7.154   3.064  0.2446  0.0704 -0.8037
  643MOL0     C86716  -1.808   7.606   2.283  0.3930  0.2454  0.1909
  643MOL0     C86717  -1.667   7.602   2.259  0.5216  1.0862  0.0483
  643MOL0     O86718  -1.402   7.697   2.149  0.2672  0.2740 -0.9540
  643MOL0     C86719  -1.184   7.399   2.203 -0.0413 -0.4135 -0.2703
  643MOL0     C86720  -1.051   7.361   2.203  0.0166 -0.5513  0.3288
  643MOL0     N86721  -0.420   7.378   1.856  0.0303 -0.0723 -0.1309
  643MOL0     N86722  -0.335   7.324   1.765 -0.0107  0.4924  0.7195
  643MOL0     C86723   0.718   6.837   1.361  0.0182  0.4304 -0.0577
  643MOL0     C86724   0.712   6.714   1.292  0.1702 -0.7192 -0.8280
  643MOL0     C86725   0.545   6.309   1.167  0.0223 -0.9719 -0.1721
  643MOL0     C86726   0.452   6.281   1.067  0.1659 -0.1430 -0.8150
  643MOL0     C86727   0.447   6.154   1.008 -0.6254 -0.0260  0.0179
  643MOL0     C86728   0.533   6.052   1.042  0.3037 -0.0397 -0.7454
  643MOL0     O86729   0.517   5.930   0.983  0.2617  0.0868 -0.3149
  643MOL0     C86730   0.416   5.853   1.043  0.4248 -0.2769 -0.0850
  643MOL0     C86731   0.466   5.711   1.036  0.8623  0.1581 -0.7668
  643MOL0     C86732   0.532   5.669   0.906 -0.9251  0.2466  0.4943
  643MOL0     C86733   0.568   5.518   0.906 -0.3331  0.0483  0.4697
  643MOL0     C86734   0.669   5.496   1.009 -0.9004 -0.3559 -0.5546
  643MOL0     C86735   0.753   5.492   1.094 -0.1088  1.1042 -0.0646
  643MOL0     C86736   0.623   6.077   1.150  0.3077 -0.0169 -0.1217
  643MOL0     C86737   0.625   6.204   1.215  0.2259  0.5339 -0.1626
  643MOL0     H86738   0.625   6.509   1.541 -0.5771 -0.2860 -0.6411
  643MOL0     H86739   0.621   6.731   1.668  3.0450 -1.2381  0.5281
  643MOL0     H86740   0.708   7.170   1.581 -1.1298 -0.0979  0.3296
  643MOL0     H86741   0.740   7.104   1.414  1.0266 -0.0746  0.6058
  643MOL0     H86742   0.540   7.252   1.440 -1.4977 -0.0156 -0.2391
  643MOL0     H86743   0.514   7.084   1.371  1.5466 -0.0007  0.3072
  643MOL0     H86744   0.431   7.022   1.596 -1.2301  0.0847 -1.7540
  643MOL0     H86745   0.466   7.192   1.654  1.0920  1.9700 -0.6301
  643MOL0     H86746   0.317   7.267   1.458 -0.6713  1.0104  1.7990
  643MOL0     H86747   0.277   7.088   1.436  0.0989 -0.2972  1.0767
  643MOL0     H86748   0.185   7.057   1.645 -2.8221  0.3518 -1.0727
  643MOL0     H86749   0.257   7.206   1.711 -0.4393 -0.7630  0.4276
  643MOL0     H86750   0.089   7.304   1.532 -0.1102 -1.7007 -3.2058
  643MOL0     H86751   0.016   7.152   1.522  0.2551  0.3632 -0.3222
  643MOL0     H86752  -0.079   7.167   1.738  0.1176 -0.9104 -1.3747
  643MOL0     H86753   0.041   7.276   1.811 -1.8716 -1.0286  2.2405
  643MOL0     H86754  -0.148   7.353   1.588  0.0284  1.3846  0.8133
  643MOL0     H86755  -0.034   7.456   1.680 -2.7123  2.6705 -0.4341
  643MOL0     H86756  -0.132   7.508   1.935  2.3227  0.0021 -4.5768
  643MOL0     H86757  -0.332   7.617   2.078 -0.3076  1.3189  0.1203
  643MOL0     H86758  -0.494   7.603   2.004  0.5906  0.4686 -1.4624
  643MOL0     H86759  -0.498   7.535   2.258 -0.0253  0.7245  0.2995
  643MOL0     H86760  -0.405   7.396   2.218  1.4094  2.5133  0.4941
  643MOL0     H86761  -0.616   7.312   2.216 -3.0431  2.1571 -0.5009
  643MOL0     H86762  -0.560   7.313   2.054  1.9797  0.5245 -0.2160
  643MOL0     H86763  -0.726   7.502   2.012 -2.0390  0.3073  0.5610
  643MOL0     H86764  -0.695   7.557   2.172  0.4126  2.0115 -2.1814
  643MOL0     H86765  -0.917   7.647   2.093 -1.0195  0.2438  1.1379
  643MOL0     H86766  -1.187   7.794   2.027 -2.1897 -0.4401  0.9994
  643MOL0     H86767  -1.159   7.810   2.207  1.8027 -1.3743 -0.2268
  643MOL0     H86768  -1.027   7.825   2.099  1.6661 -0.5328 -1.3516
  643MOL0     H86769  -1.633   7.354   2.045 -0.5840  1.6139 -0.8951
  643MOL0     H86770  -1.872   7.327   2.082  3.9201  0.1671 -3.5878
  643MOL0     H86771  -2.143   7.357   2.151 -0.3661  3.3751  0.2569
  643MOL0     H86772  -2.037   7.274   2.274 -1.2411 -2.0289  0.5551
  643MOL0     H86773  -2.297   7.425   2.327  0.3897 -0.0784 -1.9637
  643MOL0     H86774  -2.249   7.256   2.375 -1.3724 -0.7790 -2.6810
  643MOL0     H86775  -2.266   7.452   2.534  1.4558  2.6389 -0.3365
  643MOL0     H86776  -2.117   7.505   2.468 -3.2491  1.9330  0.7216
  643MOL0     H86777  -2.161   7.245   2.613  2.8880 -2.3657 -0.1258
  643MOL0     H86778  -2.010   7.283   2.528  0.4958 -4.4697  3.3738
  643MOL0     H86779  -2.053   7.502   2.697 -0.2215 -1.1225 -0.3146
  643MOL0     H86780  -1.905   7.416   2.657 -0.3782  0.4688 -1.5290
  643MOL0     H86781  -1.958   7.404   2.894  1.7911  0.7060 -0.4572
  643MOL0     H86782  -2.118   7.328   2.858 -0.0578  0.7015 -1.7881
  643MOL0     H86783  -1.877   7.202   2.741 -0.3065 -6.6025  0.1601
  643MOL0     H86784  -2.028   7.130   2.788 -1.0017  0.2137 -2.4908
  643MOL0     H86785  -1.823   7.263   2.983 -3.4077  1.7599  1.9553
  643MOL0     H86786  -1.809   7.098   2.943  0.5470  1.0948  1.1663
  643MOL0     H86787  -1.862   7.678   2.342 -2.4070  0.6693 -2.6085
  643MOL0     H86788  -1.597   7.671   2.306 -0.1856  0.5832  1.9330
  643MOL0     H86789  -1.271   7.348   2.244  2.1708 -2.8334  1.8100
  643MOL0     H86790  -1.017   7.266   2.244 -0.4653 -0.3992  1.1049
  643MOL0     H86791   0.749   6.917   1.294  0.3625  0.3716  0.0320
  643MOL0     H86792   0.735   6.695   1.188 -1.7091 -0.0594 -1.4137
  643MOL0     H86793   0.378   6.353   1.032  0.2859 -0.2650 -1.3282
  643MOL0     H86794   0.373   6.134   0.932  0.1765 -0.3223 -0.7035
  643MOL0     H86795   0.399   5.879   1.148  3.4173 -3.0701  1.2502
  643MOL0     H86796   0.318   5.857   0.993 -0.0496 -1.6575  0.6843
  643MOL0     H86797   0.380   5.645   1.053  0.4452  1.0004  0.5621
  643MOL0     H86798   0.532   5.699   1.122 -2.3825  0.5683  1.9606
  643MOL0     H86799   0.629   5.719   0.892 -1.4716  1.2607  0.2076
  643MOL0     H86800   0.469   5.690   0.819 -0.6840 -0.1637  0.2201
  643MOL0     H86801   0.609   5.495   0.807  2.4580  3.3881  0.6567
  643MOL0     H86802   0.481   5.455   0.927 -0.9822  0.6624 -0.2961
  643MOL0     H86803   0.839   5.497   1.159  3.1333  6.4316 -3.9302
  643MOL0     H86804   0.713   6.020   1.170  1.3584  1.7420  0.2919
  643MOL0     H86805   0.693   6.226   1.296  0.2161  2.3324 -0.6072
  644MOL0     O86806   6.546   0.518   4.079  0.3951  0.3121 -0.3207
  644MOL0     C86807   6.488   0.478   3.977  0.2927  0.0940  0.0503
  644MOL0     O86808   6.359   0.506   3.932  0.0515  0.5775 -0.1676
  644MOL0     C86809   6.268   0.575   4.012  0.7959 -0.4652 -1.1692
  644MOL0     C86810   6.134   0.522   4.001 -0.4616  0.9759  0.8137
  644MOL0     C86811   6.029   0.580   4.073  0.6032  0.3581 -0.1587
  644MOL0     C86812   6.056   0.686   4.167  0.1090  0.2263 -0.7174
  644MOL0     O86813   5.955   0.744   4.244  0.4867  0.2148 -0.1968
  644MOL0     C86814   5.861   0.654   4.290  0.4588  0.0895 -0.7500
  644MOL0     C86815   5.779   0.716   4.406  0.3675  0.1176  0.7340
  644MOL0     C86816   5.635   0.666   4.403  0.1944  0.4828  0.9003
  644MOL0     C86817   5.539   0.765   4.483  0.5019  0.2644  0.0949
  644MOL0     C86818   5.399   0.720   4.468  0.3651  0.4400 -0.1585
  644MOL0     C86819   5.292   0.813   4.540 -0.7923 -0.3956 -0.2764
  644MOL0     C86820   5.148   0.768   4.515 -0.3264 -0.6457 -0.4172
  644MOL0     C86821   5.099   0.793   4.373 -0.1752 -1.2404  0.1691
  644MOL0     N86822   4.963   0.760   4.358 -0.1952 -0.6957  0.6419
  644MOL0     C86823   4.887   0.660   4.420 -0.3265  0.8347  0.5842
  644MOL0     C86824   4.758   0.674   4.393 -0.3739 -0.7583  0.1276
  644MOL0     C86825   4.641   0.577   4.445 -0.1899  0.3195 -0.1497
  644MOL0     C86826   4.664   0.498   4.574  0.5389  0.6160 -0.4473
  644MOL0     C86827   4.564   0.377   4.594 -0.0738 -0.6329  1.2102
  644MOL0     C86828   4.599   0.290   4.712  0.0891 -0.2218  0.1364
  644MOL0     O86829   4.553   0.161   4.691  0.4160 -0.8554 -0.5908
  644MOL0     C86830   4.436   0.124   4.760  0.6051  0.0226  0.3830
  644MOL0     C86831   4.416  -0.022   4.769 -0.3615 -0.8030 -0.1784
  644MOL0     C86832   4.309  -0.092   4.830 -0.7185 -0.3189  0.9431
  644MOL0     C86833   4.293  -0.242   4.817  0.3965 -0.4536  0.2100
  644MOL0     C86834   4.209  -0.015   4.892  0.0008  0.3424 -0.0072
  644MOL0     C86835   4.091  -0.058   4.967 -0.8523 -0.2518  1.4518
  644MOL0     O86836   4.002   0.032   4.988  0.6054  0.0908  0.0999
  644MOL0     C86837   3.887  -0.008   5.048 -0.2943  0.8523  0.1842
  644MOL0     C86838   3.876  -0.040   5.189 -0.3788 -0.4807 -0.7291
  644MOL0     C86839   3.750  -0.082   5.239 -1.4272 -0.5317 -0.7986
  644MOL0     C86840   3.644  -0.094   5.150  0.1502  0.1794 -0.9611
  644MOL0     O86841   3.514  -0.117   5.197 -0.2968 -0.1491  0.3460
  644MOL0     C86842   3.477  -0.055   5.323  0.1558 -0.4965  0.1086
  644MOL0     C86843   3.337  -0.102   5.365  0.0891  0.1665 -0.5085
  644MOL0     C86844   3.216  -0.055   5.274 -0.4614  0.9364 -0.1544
  644MOL0     C86845   3.167   0.075   5.327 -1.2819  0.5325 -0.3017
  644MOL0     C86846   3.030   0.118   5.265 -0.2996  0.1634 -0.1470
  644MOL0     C86847   2.906   0.046   5.307  0.4284 -0.1653 -0.3132
  644MOL0     C86848   2.783   0.132   5.285  0.1320 -0.1252 -1.0759
  644MOL0     C86849   2.751   0.145   5.137 -0.3980 -0.4933 -0.3654
  644MOL0    Cl86850   2.670   0.004   5.073 -0.4201 -0.5750  0.0663
  644MOL0     C86851   3.662  -0.069   5.016  0.0318  0.9386  0.9313
  644MOL0     C86852   3.775  -0.024   4.966 -1.6218 -1.5988 -0.2419
  644MOL0     O86853   4.081  -0.173   4.993  0.2211  0.6777 -0.1854
  644MOL0     C86854   4.221   0.127   4.881 -0.2208 -0.2704 -0.2839
  644MOL0     C86855   4.334   0.194   4.821  1.3319  0.4333 -0.1027
  644MOL0     N86856   4.757   0.784   4.308 -0.0419 -0.0525 -0.0262
  644MOL0     N86857   4.875   0.841   4.289  0.2994  0.0180  0.4094
  644MOL0     C86858   6.183   0.744   4.175 -0.1754 -0.4323 -0.0717
  644MOL0     C86859   6.288   0.686   4.102 -0.6797  0.0365 -0.3314
  644MOL0     C86860   6.551   0.378   3.887  0.5863 -0.2557  0.1395
  644MOL0     C86861   6.501   0.345   3.756 -0.2467 -0.5971  0.0921
  644MOL0     C86862   6.562   0.240   3.682  0.4653  0.2069  0.5002
  644MOL0     C86863   6.685   0.183   3.724  0.3788  0.3149  0.6518
  644MOL0     O86864   6.757   0.085   3.658 -0.7522  0.1301 -0.0460
  644MOL0     C86865   6.693   0.013   3.556 -1.0314 -0.2839  0.4642
  644MOL0     C86866   6.797  -0.069   3.482 -0.6026 -0.0018 -0.4769
  644MOL0     C86867   6.748  -0.153   3.365 -0.7839  0.1118  0.5737
  644MOL0     C86868   6.867  -0.190   3.268 -0.4768 -0.0807 -0.1246
  644MOL0     C86869   6.831  -0.316   3.210  0.2372 -0.4279  0.7094
  644MOL0     C86870   6.812  -0.415   3.145 -0.0376 -0.7503  0.7959
  644MOL0     C86871   6.743   0.223   3.841  1.0564 -0.7576 -0.3846
  644MOL0     C86872   6.679   0.320   3.917  0.4410  0.7402 -0.0952
  644MOL0     H86873   6.125   0.427   3.950 -0.4843  0.2858  2.0653
  644MOL0     H86874   5.935   0.532   4.050  0.3046  0.5927  0.5283
  644MOL0     H86875   5.796   0.614   4.212 -2.0954  1.6819  0.4205
  644MOL0     H86876   5.913   0.563   4.323  1.0079 -0.8226 -3.7910
  644MOL0     H86877   5.825   0.699   4.503  2.4636 -4.3101 -0.7500
  644MOL0     H86878   5.771   0.823   4.387  2.1155  0.3902  1.3340
  644MOL0     H86879   5.605   0.666   4.298  0.5451  2.1473  0.7720
  644MOL0     H86880   5.624   0.567   4.450 -1.3440 -0.4433 -1.2506
  644MOL0     H86881   5.564   0.752   4.588 -0.0053  1.9621  0.4560
  644MOL0     H86882   5.553   0.868   4.447 -1.1306 -0.3906 -2.7923
  644MOL0     H86883   5.386   0.727   4.359 -1.0801  1.1219  0.0339
  644MOL0     H86884   5.384   0.614   4.493 -0.9056  0.1220 -2.0422
  644MOL0     H86885   5.308   0.816   4.648 -0.6588 -1.1059 -0.2704
  644MOL0     H86886   5.306   0.915   4.504  0.4824 -0.6804 -0.6318
  644MOL0     H86887   5.150   0.660   4.534  2.8820 -0.9309 -1.7364
  644MOL0     H86888   5.077   0.821   4.579  0.9280  0.6672 -0.0347
  644MOL0     H86889   5.151   0.737   4.295  1.7558 -0.5552  0.9133
  644MOL0     H86890   5.117   0.899   4.349 -3.0889 -0.2858  1.6274
  644MOL0     H86891   4.936   0.585   4.480  0.8197  0.7148 -0.4636
  644MOL0     H86892   4.549   0.636   4.453 -0.7548 -0.5754  0.0839
  644MOL0     H86893   4.626   0.503   4.367  0.6701  2.4376 -2.4663
  644MOL0     H86894   4.646   0.566   4.658 -2.6020  1.1462 -1.4099
  644MOL0     H86895   4.767   0.463   4.576 -0.1829 -1.6496 -0.2604
  644MOL0     H86896   4.571   0.311   4.507  0.3807 -1.5107  1.8914
  644MOL0     H86897   4.469   0.424   4.618  1.3436  3.4652 -0.2851
  644MOL0     H86898   4.557   0.333   4.803  0.9787  4.1383 -1.2698
  644MOL0     H86899   4.709   0.287   4.716  0.1348  0.9432 -0.0353
  644MOL0     H86900   4.504  -0.069   4.726 -1.1930  0.4595 -3.5954
  644MOL0     H86901   4.337  -0.285   4.907 -1.3435 -0.1320  1.2674
  644MOL0     H86902   4.190  -0.269   4.795 -0.1660  1.7934 -0.2130
  644MOL0     H86903   4.345  -0.281   4.729 -0.6311 -3.0721  0.6835
  644MOL0     H86904   3.971  -0.045   5.243  0.0717  0.8868 -1.3417
  644MOL0     H86905   3.748  -0.126   5.339  2.8187  0.8188  0.0737
  644MOL0     H86906   3.550  -0.080   5.401 -0.5090  0.9678  1.2414
  644MOL0     H86907   3.480   0.053   5.305 -2.5917 -0.5197 -0.9846
  644MOL0     H86908   3.344  -0.211   5.359  3.5051  0.1246  1.6503
  644MOL0     H86909   3.307  -0.071   5.465  0.8802  0.3548 -0.3224
  644MOL0     H86910   3.135  -0.125   5.296 -0.7432  0.9859 -0.9980
  644MOL0     H86911   3.253  -0.063   5.171  1.1718 -1.8084  0.5510
  644MOL0     H86912   3.140   0.057   5.431 -1.8870 -2.4476 -0.8779
  644MOL0     H86913   3.239   0.154   5.306 -1.3195  0.3596 -1.1176
  644MOL0     H86914   3.040   0.120   5.156  2.5912 -0.9593  0.0018
  644MOL0     H86915   3.026   0.218   5.308  4.2082  0.6285 -0.3503
  644MOL0     H86916   2.881  -0.050   5.262 -1.9268 -0.4688  1.4098
  644MOL0     H86917   2.906   0.033   5.416 -0.6440 -0.2012 -0.3090
  644MOL0     H86918   2.789   0.216   5.355 -0.3195  0.6499 -1.9586
  644MOL0     H86919   2.708   0.075   5.342  1.6016 -1.2723 -0.2016
  644MOL0     H86920   2.837   0.178   5.078  1.0360  1.4394  2.5613
  644MOL0     H86921   2.694   0.237   5.129  1.3364  0.5568 -1.3997
  644MOL0     H86922   3.576  -0.082   4.952  0.8125  1.1552 -0.1926
  644MOL0     H86923   3.781   0.012   4.864 -2.4368  1.8017  0.7909
  644MOL0     H86924   4.148   0.199   4.918 -0.5788 -1.3849  1.2429
  644MOL0     H86925   4.336   0.302   4.824 -0.3665  0.4916 -0.3660
  644MOL0     H86926   6.203   0.814   4.256  1.6118 -4.0075  2.8992
  644MOL0     H86927   6.389   0.722   4.115 -0.6999  0.2161 -0.6559
  644MOL0     H86928   6.410   0.395   3.725  0.7020  1.2757  0.1812
  644MOL0     H86929   6.516   0.214   3.587  1.6710  0.9686 -0.3310
  644MOL0     H86930   6.616  -0.059   3.584 -0.1442 -1.2000  0.6163
  644MOL0     H86931   6.653   0.086   3.485 -4.0063  1.3661  3.5485
  644MOL0     H86932   6.846  -0.142   3.547  1.4016  0.1714 -1.7117
  644MOL0     H86933   6.872   0.001   3.445 -0.0720 -0.1939  0.2137
  644MOL0     H86934   6.667  -0.104   3.311 -0.8408 -1.3373 -0.7440
  644MOL0     H86935   6.701  -0.248   3.393 -2.7904  1.1712  0.9625
  644MOL0     H86936   6.964  -0.199   3.317  0.2224  3.3952 -0.5962
  644MOL0     H86937   6.879  -0.102   3.204  1.1246 -0.4281 -0.3280
  644MOL0     H86938   6.801  -0.492   3.071  1.9525  0.1829 -0.5653
  644MOL0     H86939   6.840   0.187   3.875  0.2834 -1.6431  0.9499
  644MOL0     H86940   6.713   0.354   4.015 -2.3161  1.5188  0.6679
  645MOL0     O86941   2.631   6.067   0.094  0.2193 -0.0482  0.6555
  645MOL0     C86942   2.659   6.142   0.191  0.7896  0.2301 -0.5840
  645MOL0     O86943   2.594   6.143   0.311 -0.6566  0.5662  0.0884
  645MOL0     C86944   2.486   6.048   0.323 -0.2324 -1.1967 -0.1739
  645MOL0     C86945   2.358   6.096   0.339  0.2864  0.3591 -0.6400
  645MOL0     C86946   2.254   6.012   0.355 -0.0982  0.7521 -0.5225
  645MOL0     C86947   2.268   5.877   0.356 -0.4152  0.5835  0.0900
  645MOL0     O86948   2.163   5.798   0.388  0.2637 -0.1785  0.9042
  645MOL0     C86949   2.183   5.657   0.369 -0.2022  0.2346  0.5143
  645MOL0     C86950   2.066   5.561   0.400 -0.4671 -0.0118  0.0456
  645MOL0     C86951   1.968   5.544   0.288  0.4075 -0.2988 -0.2645
  645MOL0     C86952   1.837   5.475   0.329 -0.5956 -0.1518  0.7318
  645MOL0     C86953   1.760   5.414   0.215  0.8743 -0.3803  0.7232
  645MOL0     C86954   1.612   5.376   0.256 -0.5287  0.1010  0.9176
  645MOL0     C86955   1.520   5.368   0.139  0.0825  0.2323 -0.0290
  645MOL0     C86956   1.534   5.235   0.067 -0.4771 -1.4268  0.8779
  645MOL0     N86957   1.433   5.224  -0.050 -0.3962 -0.6574 -0.6517
  645MOL0     C86958   1.369   5.329  -0.112 -0.4627  0.3262 -0.7771
  645MOL0     C86959   1.294   5.282  -0.205  1.1917  0.2862  0.4282
  645MOL0     C86960   1.206   5.360  -0.306  0.4322 -0.6461 -0.2396
  645MOL0     C86961   1.126   5.490  -0.256 -0.8189  0.9155 -0.0556
  645MOL0     C86962   1.048   5.548  -0.371  0.0155  0.5565 -0.3765
  645MOL0     C86963   1.136   5.608  -0.485  0.4743 -0.9696 -0.4528
  645MOL0     O86964   1.066   5.726  -0.524 -0.1965  0.4782 -0.0599
  645MOL0     C86965   0.937   5.708  -0.572 -1.1218  0.8073  0.5188
  645MOL0     C86966   0.838   5.785  -0.546  0.1003 -0.6644  0.1058
  645MOL0     C86967   0.706   5.779  -0.604 -0.5813  0.3971  0.4749
  645MOL0     C86968   0.612   5.889  -0.570  0.0524  0.6438  0.8915
  645MOL0     C86969   0.678   5.663  -0.682  0.0505  0.7864 -0.2779
  645MOL0     C86970   0.547   5.625  -0.724 -0.4821 -0.2479  0.6031
  645MOL0     O86971   0.426   5.673  -0.671  0.3078  0.7052 -0.0898
  645MOL0     C86972   0.312   5.641  -0.727 -0.4188  0.3708 -0.5309
  645MOL0     C86973   0.210   5.739  -0.753 -0.3803  0.4542  0.9117
  645MOL0     C86974   0.088   5.704  -0.810 -0.3598 -0.2710  0.3550
  645MOL0     C86975   0.053   5.571  -0.844 -0.9825  0.3063 -0.0767
  645MOL0     O86976  -0.073   5.536  -0.881  0.4752 -0.1214 -1.1644
  645MOL0     C86977  -0.190   5.619  -0.839 -1.5604 -0.0011 -0.6101
  645MOL0     C86978  -0.309   5.535  -0.852 -0.2155  0.0214  0.3342
  645MOL0     C86979  -0.432   5.592  -0.790 -0.3790  0.0916  0.4941
  645MOL0     C86980  -0.546   5.496  -0.819  0.8865 -0.1418 -0.1478
  645MOL0     C86981  -0.666   5.517  -0.728  0.4385 -0.1428 -0.5030
  645MOL0     C86982  -0.786   5.435  -0.780  0.7485 -0.1523  0.2145
  645MOL0     C86983  -0.911   5.499  -0.726 -0.0881  0.7379 -0.2473
  645MOL0     C86984  -1.028   5.421  -0.787  0.0810  0.5213  0.5593
  645MOL0    Cl86985  -1.192   5.490  -0.719  0.6097  0.1312  0.2391
  645MOL0     C86986   0.150   5.477  -0.816  0.1180 -0.6072  0.8514
  645MOL0     C86987   0.271   5.512  -0.750 -0.0420  0.7352  0.6891
  645MOL0     O86988   0.552   5.551  -0.822 -0.0784  0.8288  1.1509
  645MOL0     C86989   0.788   5.580  -0.713 -0.3433  0.7564 -0.0020
  645MOL0     C86990   0.913   5.603  -0.668 -0.3300 -0.4874 -0.0676
  645MOL0     N86991   1.320   5.147  -0.213 -0.0299 -1.4734 -0.4891
  645MOL0     N86992   1.404   5.106  -0.122 -0.2968 -0.6720 -0.3658
  645MOL0     C86993   2.397   5.827   0.321  0.2277 -0.2909  0.0356
  645MOL0     C86994   2.510   5.913   0.311 -0.1610  0.1876  0.4002
  645MOL0     C86995   2.755   6.244   0.168  0.1106  0.2548  0.3499
  645MOL0     C86996   2.790   6.338   0.273  0.9219  0.4771  0.9083
  645MOL0     C86997   2.897   6.416   0.256 -0.2780 -0.3693 -0.0015
  645MOL0     C86998   2.977   6.414   0.139 -0.0885  0.4077  0.1320
  645MOL0     O86999   3.094   6.494   0.128 -0.2912 -0.0902 -0.4965
  645MOL0     C87000   3.214   6.438   0.076 -0.4193  0.8133  0.2415
  645MOL0     C87001   3.340   6.511   0.121  0.3164 -0.4308 -0.1179
  645MOL0     C87002   3.374   6.487   0.271  0.0640 -0.7998  0.4248
  645MOL0     C87003   3.406   6.339   0.309 -0.6510  0.0174  0.4737
  645MOL0     C87004   3.525   6.303   0.224 -0.4856 -0.6087  0.3491
  645MOL0     C87005   3.619   6.306   0.150 -0.3456 -0.4204  0.5411
  645MOL0     C87006   2.938   6.328   0.037 -0.2848  0.5675  0.0030
  645MOL0     C87007   2.831   6.250   0.052  1.4162 -0.4085  0.4880
  645MOL0     H87008   2.353   6.204   0.340 -0.8156  0.3230  0.2982
  645MOL0     H87009   2.165   6.062   0.392  1.9451  2.7826  2.1292
  645MOL0     H87010   2.203   5.635   0.264  0.5296  0.4284  0.6087
  645MOL0     H87011   2.265   5.622   0.433  0.3027 -2.1891 -1.3211
  645MOL0     H87012   2.121   5.470   0.427 -0.4726  0.4549  1.7678
  645MOL0     H87013   2.016   5.589   0.494  0.0988 -1.9506  0.9771
  645MOL0     H87014   1.943   5.644   0.251 -2.5523 -0.2331  1.5642
  645MOL0     H87015   2.022   5.488   0.211  0.1117 -3.6525  1.7517
  645MOL0     H87016   1.857   5.391   0.396 -1.5617 -0.4053  0.7130
  645MOL0     H87017   1.777   5.544   0.391 -1.6560  0.3950 -0.8462
  645MOL0     H87018   1.747   5.488   0.135 -1.5523 -1.0097  0.4501
  645MOL0     H87019   1.807   5.320   0.186  0.7698 -0.3100  0.3104
  645MOL0     H87020   1.611   5.286   0.319 -2.9162 -2.7456 -2.7678
  645MOL0     H87021   1.572   5.453   0.322  1.4107 -1.3482  4.0266
  645MOL0     H87022   1.418   5.375   0.178 -0.1313 -0.2168 -0.4935
  645MOL0     H87023   1.547   5.443   0.064  1.3271 -1.8903 -1.8176
  645MOL0     H87024   1.529   5.148   0.133 -0.7790 -1.7191  0.4787
  645MOL0     H87025   1.634   5.238   0.024  0.1117  1.4304  2.1809
  645MOL0     H87026   1.379   5.435  -0.090 -4.8242  0.5389  1.2138
  645MOL0     H87027   1.282   5.391  -0.378 -1.5492 -3.0024 -3.6298
  645MOL0     H87028   1.131   5.288  -0.340 -1.7140  0.2016  2.3303
  645MOL0     H87029   1.204   5.563  -0.234  0.1849 -0.2273  0.2711
  645MOL0     H87030   1.068   5.483  -0.164  1.0700  0.8628  1.1801
  645MOL0     H87031   0.977   5.621  -0.332  0.8881  0.9194  0.5750
  645MOL0     H87032   0.991   5.467  -0.419  0.4675 -2.0126  3.0389
  645MOL0     H87033   1.152   5.538  -0.568  1.9405 -1.7527  0.4524
  645MOL0     H87034   1.234   5.635  -0.444  0.1510  3.1327 -1.8421
  645MOL0     H87035   0.854   5.866  -0.476 -0.9781 -0.3425  0.0101
  645MOL0     H87036   0.518   5.888  -0.625  1.6987 -1.1906 -2.2134
  645MOL0     H87037   0.600   5.887  -0.462  0.8196 -0.1143  0.9742
  645MOL0     H87038   0.659   5.987  -0.588 -2.0769  2.0441  2.5102
  645MOL0     H87039   0.230   5.841  -0.723 -2.1459  1.9141 -2.3122
  645MOL0     H87040   0.003   5.770  -0.825 -2.1297 -2.1362  1.5121
  645MOL0     H87041  -0.173   5.646  -0.734 -1.9041 -0.8637 -0.3292
  645MOL0     H87042  -0.201   5.714  -0.892  0.4396  0.0745 -0.9586
  645MOL0     H87043  -0.325   5.504  -0.956 -0.5629 -0.0699  0.4130
  645MOL0     H87044  -0.287   5.443  -0.797 -1.0500 -1.4402 -1.6531
  645MOL0     H87045  -0.443   5.690  -0.837  1.9107 -0.3361 -1.0880
  645MOL0     H87046  -0.406   5.603  -0.684  0.6771 -1.9395  0.4836
  645MOL0     H87047  -0.577   5.484  -0.923 -0.4453  0.5037  0.1593
  645MOL0     H87048  -0.519   5.393  -0.793  0.8289  0.3810  2.1999
  645MOL0     H87049  -0.679   5.625  -0.715 -1.2877 -0.3096 -0.6137
  645MOL0     H87050  -0.648   5.494  -0.623 -2.2943  0.2506  0.1445
  645MOL0     H87051  -0.791   5.439  -0.889  0.4971  1.6426  0.2592
  645MOL0     H87052  -0.771   5.334  -0.742  1.6591 -0.7663 -1.6322
  645MOL0     H87053  -0.924   5.606  -0.744  0.0812  1.4796  3.2502
  645MOL0     H87054  -0.921   5.486  -0.618  0.9826 -1.9018 -0.3886
  645MOL0     H87055  -1.046   5.316  -0.761 -2.0992  0.9671  1.0903
  645MOL0     H87056  -1.021   5.431  -0.895 -0.4572 -1.8916  0.2477
  645MOL0     H87057   0.116   5.380  -0.849 -0.0273 -0.0045 -0.8783
  645MOL0     H87058   0.337   5.429  -0.728  2.2212  2.4256  0.5594
  645MOL0     H87059   0.774   5.493  -0.776 -0.6881  0.4731  0.4597
  645MOL0     H87060   0.988   5.537  -0.711 -1.5886 -2.1797  0.2127
  645MOL0     H87061   2.415   5.721   0.312  1.4511 -0.2349  1.4817
  645MOL0     H87062   2.607   5.877   0.279 -0.9279 -1.1467 -0.5281
  645MOL0     H87063   2.731   6.344   0.363 -0.8722  1.6090 -0.3040
  645MOL0     H87064   2.928   6.478   0.339 -2.1843 -3.4012  3.2199
  645MOL0     H87065   3.227   6.331   0.093  1.0508  0.2045 -3.5602
  645MOL0     H87066   3.205   6.434  -0.033  1.1880  0.4285  0.0941
  645MOL0     H87067   3.302   6.612   0.102 -3.5950 -2.0367 -2.1132
  645MOL0     H87068   3.424   6.485   0.056 -1.1777 -1.9680 -1.5435
  645MOL0     H87069   3.279   6.512   0.320 -0.1822  2.2940 -1.3193
  645MOL0     H87070   3.453   6.557   0.298  0.8622  0.1772 -3.7182
  645MOL0     H87071   3.326   6.269   0.285 -0.0962 -0.2263 -0.7646
  645MOL0     H87072   3.440   6.329   0.412 -0.5791 -1.8828  0.2989
  645MOL0     H87073   3.706   6.294   0.088 -1.7979 -3.2724 -1.1534
  645MOL0     H87074   2.996   6.327  -0.055 -0.4426 -1.2025 -0.1063
  645MOL0     H87075   2.802   6.191  -0.035 -0.4153 -0.5974  1.1884
  646MOL0     O87076   2.154   0.489   6.179 -0.1848 -0.0395  0.3139
  646MOL0     C87077   2.050   0.559   6.162 -0.1753 -0.8413  0.4172
  646MOL0     O87078   1.921   0.512   6.149  1.1369 -0.3044 -0.5542
  646MOL0     C87079   1.891   0.381   6.125 -0.4249 -0.2247 -0.5192
  646MOL0     C87080   1.790   0.348   6.033 -0.2042  0.3279 -0.2851
  646MOL0     C87081   1.753   0.214   6.023 -0.2437  0.0528 -0.4751
  646MOL0     C87082   1.814   0.111   6.105 -0.4953 -0.7843 -0.3900
  646MOL0     O87083   1.755  -0.011   6.096  0.5869 -0.6490  0.1964
  646MOL0     C87084   1.825  -0.126   6.136  0.5151  0.2958 -0.6138
  646MOL0     C87085   1.799  -0.153   6.286 -0.5492 -0.3868 -0.1498
  646MOL0     C87086   1.657  -0.182   6.317 -0.0164  0.7301 -0.7009
  646MOL0     C87087   1.634  -0.228   6.465  0.1988  0.4829 -0.1365
  646MOL0     C87088   1.490  -0.289   6.472  0.7867  0.0891  0.0711
  646MOL0     C87089   1.482  -0.369   6.600  0.5115 -0.1276 -0.2802
  646MOL0     C87090   1.543  -0.513   6.590  0.3304 -0.4772  0.7405
  646MOL0     C87091   1.466  -0.607   6.500  0.3505  0.1899 -0.2254
  646MOL0     N87092   1.336  -0.641   6.568  0.4479 -0.8369  0.4037
  646MOL0     C87093   1.326  -0.717   6.685 -0.7709 -0.7713  0.3078
  646MOL0     C87094   1.195  -0.720   6.713  1.1653  0.1880 -0.6416
  646MOL0     C87095   1.127  -0.788   6.826 -0.0602 -0.0591  0.4609
  646MOL0     C87096   1.065  -0.927   6.789 -0.4700 -0.2498  0.0920
  646MOL0     C87097   1.030  -1.006   6.917  0.5719 -0.4872 -0.1441
  646MOL0     C87098   1.012  -1.156   6.894  0.1836 -0.0478 -0.3385
  646MOL0     O87099   0.991  -1.217   7.019 -0.3251 -0.1370 -0.8824
  646MOL0     C87100   0.859  -1.251   7.042 -0.6925 -0.1889  0.0672
  646MOL0     C87101   0.813  -1.388   7.047  0.1445 -0.2553  0.5435
  646MOL0     C87102   0.670  -1.423   7.053 -1.2051 -0.1203  0.2216
  646MOL0     C87103   0.643  -1.569   7.048 -0.2001  0.4361  0.1187
  646MOL0     C87104   0.573  -1.319   7.055 -0.3880 -0.0725 -0.1228
  646MOL0     C87105   0.432  -1.347   7.077  0.0960 -0.3273  0.2861
  646MOL0     O87106   0.348  -1.250   7.029  0.4883  0.6543 -0.0604
  646MOL0     C87107   0.230  -1.289   6.993  1.7646  0.1763 -0.0856
  646MOL0     C87108   0.119  -1.207   7.028 -0.3715  0.1696  0.0223
  646MOL0     C87109  -0.010  -1.239   6.982 -0.3729 -0.3299 -0.4413
  646MOL0     C87110  -0.038  -1.360   6.911 -0.3540  0.6177 -0.3828
  646MOL0     O87111  -0.170  -1.391   6.886 -0.0875 -0.9862 -0.2323
  646MOL0     C87112  -0.201  -1.463   6.764 -0.8912  0.3840 -0.0365
  646MOL0     C87113  -0.336  -1.530   6.783  0.8781 -1.2835  0.3469
  646MOL0     C87114  -0.427  -1.524   6.660 -0.3862 -0.5707 -0.6548
  646MOL0     C87115  -0.531  -1.632   6.657  1.0242 -0.5582  0.2066
  646MOL0     C87116  -0.604  -1.644   6.523 -0.2580 -0.1366 -0.1314
  646MOL0     C87117  -0.692  -1.764   6.503 -0.0971  0.0145 -0.3660
  646MOL0     C87118  -0.786  -1.794   6.619 -0.0719  0.9281  0.4231
  646MOL0     C87119  -0.851  -1.921   6.574 -0.6845  0.0369  0.6124
  646MOL0    Cl87120  -0.741  -2.073   6.566 -0.0489 -0.0911 -0.6190
  646MOL0     C87121   0.070  -1.444   6.875 -0.0982 -0.3224  0.7587
  646MOL0     C87122   0.205  -1.402   6.910  0.6974  1.2141 -0.0771
  646MOL0     O87123   0.400  -1.428   7.163 -0.0639  0.4938  0.4123
  646MOL0     C87124   0.628  -1.188   7.061  1.1447  0.3363  0.8328
  646MOL0     C87125   0.760  -1.158   7.050  0.0835 -0.8530  0.6761
  646MOL0     N87126   1.132  -0.643   6.622 -0.2853 -0.4701 -0.2738
  646MOL0     N87127   1.216  -0.589   6.538 -0.2625  0.3926  0.4577
  646MOL0     C87128   1.902   0.152   6.206  0.5977  0.5689  1.5814
  646MOL0     C87129   1.944   0.281   6.214 -0.5440  0.2522 -0.8053
  646MOL0     C87130   2.054   0.705   6.177  0.7160 -0.4394 -0.6162
  646MOL0     C87131   2.171   0.773   6.159 -0.2555 -0.6400  0.3110
  646MOL0     C87132   2.179   0.905   6.177 -0.0092 -0.1206 -0.5653
  646MOL0     C87133   2.083   0.985   6.231  0.2850 -0.2903  0.6067
  646MOL0     O87134   2.116   1.116   6.272 -0.1764 -0.0090 -0.4903
  646MOL0     C87135   2.020   1.218   6.298  0.8038 -0.3603  0.1874
  646MOL0     C87136   2.003   1.292   6.164  0.6771 -0.5539 -0.2234
  646MOL0     C87137   1.870   1.382   6.164  0.0387  0.8990  0.4545
  646MOL0     C87138   1.880   1.479   6.046 -0.2243  0.0389 -0.8812
  646MOL0     C87139   1.838   1.421   5.922 -0.6342 -0.1003  0.8155
  646MOL0     C87140   1.800   1.365   5.814  0.4940 -0.6656 -0.0535
  646MOL0     C87141   1.959   0.923   6.246 -0.5497 -0.5105  0.1955
  646MOL0     C87142   1.947   0.784   6.224 -0.1090 -0.3805  0.3571
  646MOL0     H87143   1.739   0.429   5.982 -3.2726 -1.0829  0.3028
  646MOL0     H87144   1.661   0.180   5.977 -0.6128  0.4324 -0.0138
  646MOL0     H87145   1.801  -0.214   6.076 -0.9113 -0.0820  0.4505
  646MOL0     H87146   1.929  -0.109   6.107 -0.5046  2.2825 -3.6841
  646MOL0     H87147   1.867  -0.227   6.330  0.1438  0.6421  0.5468
  646MOL0     H87148   1.831  -0.061   6.336 -0.2566 -0.4657 -0.1885
  646MOL0     H87149   1.599  -0.093   6.290  1.3542  1.3013 -1.8689
  646MOL0     H87150   1.619  -0.255   6.244  0.7864 -1.3335  0.8446
  646MOL0     H87151   1.703  -0.309   6.490 -0.2815  0.1607  0.1548
  646MOL0     H87152   1.666  -0.153   6.538  0.8626 -0.4508  0.5631
  646MOL0     H87153   1.412  -0.212   6.472  0.4450 -0.2486  0.1627
  646MOL0     H87154   1.473  -0.356   6.387 -0.9702 -0.2350  0.6254
  646MOL0     H87155   1.526  -0.310   6.681 -0.3866  2.3252 -1.4759
  646MOL0     H87156   1.373  -0.373   6.612  0.4080 -0.2207 -1.2005
  646MOL0     H87157   1.638  -0.501   6.537 -2.1116  0.3383 -4.0001
  646MOL0     H87158   1.549  -0.558   6.689 -0.7087 -0.5307  0.7965
  646MOL0     H87159   1.523  -0.700   6.486 -1.5341 -1.3345  1.4656
  646MOL0     H87160   1.456  -0.560   6.402 -1.1418 -1.5518 -0.9835
  646MOL0     H87161   1.394  -0.770   6.753 -2.0459 -1.5591  1.0113
  646MOL0     H87162   1.207  -0.796   6.900  1.0155  1.5839 -0.4658
  646MOL0     H87163   1.049  -0.733   6.879 -1.4437  0.0129 -1.5677
  646MOL0     H87164   1.144  -0.981   6.736  3.4386  3.1423  1.9047
  646MOL0     H87165   0.979  -0.913   6.723  0.7916 -1.5023 -1.9313
  646MOL0     H87166   0.943  -0.958   6.963  0.0967  0.0897 -1.5938
  646MOL0     H87167   1.108  -0.999   6.993  1.1026  0.6148 -0.7614
  646MOL0     H87168   1.106  -1.196   6.853 -0.1272  0.0044 -1.1112
  646MOL0     H87169   0.935  -1.183   6.821 -1.8202  2.3399  0.7686
  646MOL0     H87170   0.884  -1.470   7.043  1.1477  0.6337 -0.7307
  646MOL0     H87171   0.675  -1.607   7.146  2.3907  0.7034 -0.5650
  646MOL0     H87172   0.539  -1.601   7.035 -0.2033  1.6302 -5.8405
  646MOL0     H87173   0.704  -1.615   6.970  1.0805 -0.3414  1.5212
  646MOL0     H87174   0.126  -1.119   7.092  0.4391  1.1984 -1.4459
  646MOL0     H87175  -0.088  -1.172   7.017 -0.9541 -0.2031 -1.9046
  646MOL0     H87176  -0.203  -1.385   6.686 -0.3470 -0.1234 -0.5648
  646MOL0     H87177  -0.124  -1.537   6.740 -0.9559  0.2020  0.3107
  646MOL0     H87178  -0.305  -1.634   6.791  0.5698 -1.2893  1.5557
  646MOL0     H87179  -0.378  -1.488   6.875  2.4483  2.2704 -0.3637
  646MOL0     H87180  -0.365  -1.541   6.571 -1.4309  0.2967 -1.5703
  646MOL0     H87181  -0.470  -1.424   6.658  0.5607 -0.0958  1.0655
  646MOL0     H87182  -0.487  -1.730   6.678  1.5082 -0.4924 -0.4710
  646MOL0     H87183  -0.605  -1.601   6.732  1.0392  0.6536 -0.2571
  646MOL0     H87184  -0.538  -1.651   6.437 -1.8411 -3.5499 -1.2461
  646MOL0     H87185  -0.680  -1.565   6.530 -3.5253 -3.0079 -0.3670
  646MOL0     H87186  -0.755  -1.742   6.416  0.1074 -3.3676 -1.5412
  646MOL0     H87187  -0.632  -1.854   6.482  3.0230  2.2263 -1.6546
  646MOL0     H87188  -0.852  -1.711   6.646  1.0361  1.6810  0.8880
  646MOL0     H87189  -0.734  -1.810   6.714  0.2788  1.3124  0.3028
  646MOL0     H87190  -0.898  -1.902   6.477  3.7030  0.3310 -1.6856
  646MOL0     H87191  -0.929  -1.944   6.647 -1.2572 -1.7544 -0.4716
  646MOL0     H87192   0.048  -1.524   6.804 -1.2041 -1.4584  2.3090
  646MOL0     H87193   0.285  -1.470   6.883  0.3704 -0.9919  3.8028
  646MOL0     H87194   0.558  -1.106   7.056 -1.1125 -1.4156 -5.5113
  646MOL0     H87195   0.787  -1.054   7.053  1.7676 -1.2634  0.5529
  646MOL0     H87196   1.942   0.084   6.280 -0.2102 -1.0219  0.5998
  646MOL0     H87197   2.022   0.308   6.285 -0.0379 -1.8436 -0.4788
  646MOL0     H87198   2.257   0.730   6.109  1.8931 -1.1118  4.0236
  646MOL0     H87199   2.271   0.957   6.154  0.9761 -1.3478  0.4028
  646MOL0     H87200   1.931   1.178   6.347 -0.7862  3.9617  1.3017
  646MOL0     H87201   2.059   1.294   6.367 -0.1543 -0.0388  0.3934
  646MOL0     H87202   1.996   1.227   6.076  0.0565 -1.2148  0.3111
  646MOL0     H87203   2.089   1.357   6.145  1.7613 -1.6007  0.9093
  646MOL0     H87204   1.862   1.441   6.255 -1.5189  0.6568  0.5072
  646MOL0     H87205   1.778   1.323   6.156  0.7127 -0.6687  3.0306
  646MOL0     H87206   1.983   1.517   6.039 -0.9549  2.0305 -1.8131
  646MOL0     H87207   1.815   1.564   6.070 -0.7049 -0.8609  1.2936
  646MOL0     H87208   1.759   1.314   5.729 -0.6817 -0.4969  0.4003
  646MOL0     H87209   1.869   0.965   6.290 -0.1850  1.3432 -0.7430
  646MOL0     H87210   1.852   0.735   6.245  1.5446 -3.9031  0.3789
  647MOL0     O87211   2.429   6.290  10.103  0.3707 -0.1463  0.5477
  647MOL0     C87212   2.409   6.218  10.005  0.5262 -0.1957 -0.1191
  647MOL0     O87213   2.299   6.235   9.920 -0.3517  0.1950  0.5039
  647MOL0     C87214   2.191   6.318   9.940  0.6104 -0.1633  0.5477
  647MOL0     C87215   2.205   6.445  10.012  0.5941 -0.6636  0.3580
  647MOL0     C87216   2.094   6.521  10.040 -0.3568  0.2967  0.2056
  647MOL0     C87217   1.969   6.485   9.979  0.0868  0.2187  0.1561
  647MOL0     O87218   1.848   6.564   9.984  0.2541 -0.0948 -0.1190
  647MOL0     C87219   1.829   6.681  10.063  0.3234  0.8167  0.0078
  647MOL0     C87220   1.805   6.633  10.205 -0.0604 -0.7658  0.5115
  647MOL0     C87221   1.798   6.739  10.317 -0.5301 -0.0515  0.4805
  647MOL0     C87222   1.746   6.678  10.453 -0.0348  0.2086  0.5000
  647MOL0     C87223   1.742   6.780  10.568 -0.1519 -0.2828  0.8961
  647MOL0     C87224   1.680   6.912  10.543 -0.8177 -0.3939 -0.1333
  647MOL0     C87225   1.677   6.990  10.677  0.4263 -0.7931  0.9087
  647MOL0     C87226   1.614   7.135  10.657 -0.7160  0.2158 -0.5366
  647MOL0     N87227   1.465   7.127  10.648 -0.1478 -0.0814  0.2924
  647MOL0     C87228   1.375   7.123  10.756 -0.3739 -0.3800  0.1625
  647MOL0     C87229   1.256   7.096  10.707 -0.6177 -1.1613  0.1003
  647MOL0     C87230   1.127   7.077  10.788 -0.1066 -0.2587 -0.7510
  647MOL0     C87231   1.118   6.932  10.836 -0.2464  0.2486  1.2007
  647MOL0     C87232   1.011   6.927  10.948  0.0375  0.2311 -0.0813
  647MOL0     C87233   1.026   6.800  11.018 -0.4901 -0.7006  0.4558
  647MOL0     O87234   0.949   6.794  11.129 -0.9741 -0.2005  0.2215
  647MOL0     C87235   0.815   6.767  11.125 -0.8987 -0.9746  0.1455
  647MOL0     C87236   0.758   6.763  11.253  0.8240 -0.3981 -0.2361
  647MOL0     C87237   0.610   6.750  11.260  0.3532 -0.5897  0.2026
  647MOL0     C87238   0.566   6.753  11.403 -0.2175  0.3400 -0.5309
  647MOL0     C87239   0.526   6.733  11.145 -0.4334  0.7555 -0.1317
  647MOL0     C87240   0.377   6.715  11.157 -0.3630  0.6466 -0.0350
  647MOL0     O87241   0.311   6.668  11.042 -0.4548  0.2040 -0.3503
  647MOL0     C87242   0.200   6.589  11.062 -0.3560  0.0713  0.1677
  647MOL0     C87243   0.189   6.474  11.142 -0.0528  0.1642 -0.1513
  647MOL0     C87244   0.067   6.398  11.138 -0.0798  0.2624 -1.0019
  647MOL0     C87245  -0.037   6.447  11.077  1.0960 -0.3713  0.3334
  647MOL0     O87246  -0.152   6.364  11.081 -0.1223 -0.0413 -0.2022
  647MOL0     C87247  -0.272   6.408  11.012 -0.0876 -0.1156 -0.2207
  647MOL0     C87248  -0.384   6.313  11.054 -0.3556  0.7987  0.0945
  647MOL0     C87249  -0.522   6.342  11.009  0.3228 -0.2134 -0.5445
  647MOL0     C87250  -0.632   6.271  11.080 -0.6418  0.4652 -0.0239
  647MOL0     C87251  -0.773   6.317  11.031 -0.1508 -0.5595 -0.4784
  647MOL0     C87252  -0.818   6.451  11.097  0.2066 -0.2633 -0.1530
  647MOL0     C87253  -0.957   6.491  11.057 -0.0474  0.2314 -0.1907
  647MOL0     C87254  -1.030   6.589  11.152 -0.5671  0.2357 -0.4749
  647MOL0    Cl87255  -0.934   6.742  11.189 -0.0235  0.0913 -0.7320
  647MOL0     C87256  -0.026   6.564  11.000  0.9643 -0.4595  0.3472
  647MOL0     C87257   0.091   6.627  10.993  0.6166 -0.4505  0.0596
  647MOL0     O87258   0.321   6.721  11.271  0.1680  0.4872 -0.2596
  647MOL0     C87259   0.600   6.724  11.024 -0.1667  0.4049  0.4577
  647MOL0     C87260   0.735   6.756  11.009  0.7628  0.4620 -0.5520
  647MOL0     N87261   1.270   7.098  10.567 -1.4632  0.2421 -0.1962
  647MOL0     N87262   1.394   7.123  10.535 -0.5580  0.6106 -0.4620
  647MOL0     C87263   1.951   6.375   9.904 -0.6272  0.0557  0.2089
  647MOL0     C87264   2.057   6.284   9.883  0.0864 -0.6804 -0.9574
  647MOL0     C87265   2.493   6.104   9.966  0.1070 -0.2303  0.3327
  647MOL0     C87266   2.471   6.024   9.854 -0.0878  0.5739  0.6329
  647MOL0     C87267   2.558   5.917   9.824 -0.2514 -0.7220  0.0831
  647MOL0     C87268   2.669   5.892   9.900  0.5168 -0.1133  1.2093
  647MOL0     O87269   2.754   5.791   9.861  0.1211 -0.4743  0.1700
  647MOL0     C87270   2.733   5.675   9.938  1.2205 -0.4122 -0.4083
  647MOL0     C87271   2.869   5.624   9.983  0.1771  1.0383 -1.2326
  647MOL0     C87272   2.956   5.589   9.859  0.8834  0.9675  0.3397
  647MOL0     C87273   3.088   5.529   9.895 -0.2510 -0.0677 -0.2719
  647MOL0     C87274   3.084   5.393   9.955 -0.2039 -0.8681  0.4827
  647MOL0     C87275   3.103   5.291  10.023 -0.0524  0.1954  0.2892
  647MOL0     C87276   2.688   5.971  10.007 -0.4530 -0.6248  0.0079
  647MOL0     C87277   2.604   6.074  10.041  0.5703  1.3584  0.1620
  647MOL0     H87278   2.298   6.481  10.056  1.3454 -1.4869 -0.5146
  647MOL0     H87279   2.102   6.620  10.085  0.4861 -0.1968  1.1706
  647MOL0     H87280   1.919   6.742  10.052 -0.1734  2.1337  2.6025
  647MOL0     H87281   1.737   6.732  10.034 -1.1299  0.0863  2.9707
  647MOL0     H87282   1.700   6.601  10.203 -1.8221  4.1617  0.7404
  647MOL0     H87283   1.872   6.553  10.236 -0.1168 -1.2630 -0.5729
  647MOL0     H87284   1.897   6.783  10.333 -0.4954  0.0965 -0.1278
  647MOL0     H87285   1.730   6.818  10.283 -1.9847  0.5315  4.2643
  647MOL0     H87286   1.646   6.638  10.436 -1.0378  1.8794  2.1337
  647MOL0     H87287   1.816   6.602  10.489  1.1690  0.8936 -0.3348
  647MOL0     H87288   1.682   6.739  10.650 -1.0973  5.5955  3.6262
  647MOL0     H87289   1.842   6.802  10.607 -0.4092 -0.3545  1.6131
  647MOL0     H87290   1.743   6.962  10.469 -2.8206 -0.4085 -1.9444
  647MOL0     H87291   1.579   6.900  10.504 -0.9702 -1.4809  0.5521
  647MOL0     H87292   1.629   6.931  10.756  1.5248 -1.3266  1.1906
  647MOL0     H87293   1.780   6.988  10.712  1.8789  1.9759 -2.5579
  647MOL0     H87294   1.658   7.182  10.569  1.7413 -2.6376 -0.9601
  647MOL0     H87295   1.635   7.203  10.741 -1.5181  1.9207 -1.6494
  647MOL0     H87296   1.395   7.145  10.860  0.4286  1.2113 -0.2880
  647MOL0     H87297   1.113   7.148  10.870 -1.2152 -2.6743  1.2939
  647MOL0     H87298   1.046   7.099  10.718 -0.6482 -3.4545 -1.2727
  647MOL0     H87299   1.217   6.909  10.878 -0.0734  1.4080  1.4666
  647MOL0     H87300   1.096   6.863  10.754 -1.0346  0.0753  1.5523
  647MOL0     H87301   0.912   6.939  10.901  0.0384 -1.5816 -0.6436
  647MOL0     H87302   1.031   7.003  11.023 -0.1028  0.6914 -0.5014
  647MOL0     H87303   1.131   6.780  11.037  0.2599  1.8836 -0.5195
  647MOL0     H87304   0.995   6.722  10.948 -1.7719 -1.7798  2.1437
  647MOL0     H87305   0.812   6.786  11.344  1.2143  2.9882 -1.2008
  647MOL0     H87306   0.483   6.823  11.414 -1.9642 -1.6457 -0.3008
  647MOL0     H87307   0.521   6.657  11.429 -1.5917  1.8020  3.0691
  647MOL0     H87308   0.636   6.772  11.485  0.3071 -3.1701  0.0160
  647MOL0     H87309   0.276   6.445  11.200  1.7007  3.1264 -1.0545
  647MOL0     H87310   0.061   6.303  11.190 -0.7419  0.6112 -0.4292
  647MOL0     H87311  -0.301   6.509  11.042 -1.8223 -0.6057 -0.1628
  647MOL0     H87312  -0.262   6.405  10.904 -0.1278  0.9137 -0.2579
  647MOL0     H87313  -0.353   6.215  11.017  0.1895 -0.1458  2.8570
  647MOL0     H87314  -0.386   6.310  11.163 -1.8150 -0.1936  0.0697
  647MOL0     H87315  -0.538   6.312  10.904 -1.6330 -0.9171 -0.1001
  647MOL0     H87316  -0.534   6.449  11.029  0.2062 -0.5522  1.3643
  647MOL0     H87317  -0.621   6.170  11.041 -0.1371  0.2099  0.7583
  647MOL0     H87318  -0.618   6.265  11.188 -1.3325 -0.3031  0.0331
  647MOL0     H87319  -0.849   6.242  11.054 -2.0300  1.0254 -1.3139
  647MOL0     H87320  -0.759   6.322  10.923  2.5997 -2.8221 -0.3485
  647MOL0     H87321  -0.823   6.434  11.205  1.0329  0.2367 -0.0282
  647MOL0     H87322  -0.750   6.535  11.078  0.0377 -0.3313 -1.1325
  647MOL0     H87323  -1.015   6.400  11.072  0.2379  0.1137  0.1891
  647MOL0     H87324  -0.955   6.528  10.954  2.5981 -1.0952 -0.6968
  647MOL0     H87325  -1.058   6.547  11.250 -1.5216  4.0519  1.0706
  647MOL0     H87326  -1.122   6.626  11.106 -0.3238  0.6857 -0.5994
  647MOL0     H87327  -0.110   6.604  10.943  1.0112 -4.2675 -2.8045
  647MOL0     H87328   0.095   6.716  10.931 -1.0354  1.4719  2.4883
  647MOL0     H87329   0.531   6.705  10.942 -2.8985 -2.7999  3.1657
  647MOL0     H87330   0.763   6.770  10.906 -1.5758  3.3886 -0.9242
  647MOL0     H87331   1.852   6.366   9.859 -0.4554  2.0500 -0.6662
  647MOL0     H87332   2.034   6.192   9.829 -2.6705 -0.4811 -0.2992
  647MOL0     H87333   2.379   6.038   9.798  0.3388 -0.9167 -0.4932
  647MOL0     H87334   2.558   5.857   9.733  2.6633 -2.3620  1.0324
  647MOL0     H87335   2.666   5.690  10.023  1.2844 -1.5819 -0.1361
  647MOL0     H87336   2.686   5.599   9.876  1.3206  0.2172 -1.2836
  647MOL0     H87337   2.854   5.531  10.039 -0.7073  1.5752 -0.5567
  647MOL0     H87338   2.925   5.694  10.044  0.0300  0.3523 -0.2873
  647MOL0     H87339   2.974   5.673   9.791  1.6824 -0.8747 -1.8141
  647MOL0     H87340   2.902   5.513   9.803 -0.5675  1.1790  1.3871
  647MOL0     H87341   3.147   5.605   9.947  0.1462  0.7531 -1.8562
  647MOL0     H87342   3.139   5.498   9.803 -0.9737  0.1553 -0.7573
  647MOL0     H87343   3.120   5.200  10.077  0.3257 -0.2929 -0.6194
  647MOL0     H87344   2.778   5.957  10.065 -1.4267 -0.9930  1.5050
  647MOL0     H87345   2.631   6.131  10.130  0.7025 -0.6755  1.5044
  648MOL0     O87346  11.381   8.031   9.399 -0.3109  0.4022 -0.2411
  648MOL0     C87347  11.375   7.908   9.405  0.5058 -0.7135  0.5386
  648MOL0     O87348  11.277   7.833   9.352 -0.4032  0.6788 -0.1964
  648MOL0     C87349  11.151   7.875   9.346 -0.0088 -0.3416  0.4487
  648MOL0     C87350  11.090   7.880   9.213  0.4239  0.3210 -0.8179
  648MOL0     C87351  10.964   7.932   9.204 -0.7236  0.5364  0.2190
  648MOL0     C87352  10.892   7.963   9.323  0.3945  1.4263  0.2049
  648MOL0     O87353  10.775   8.035   9.318  0.0357  0.2008  0.3474
  648MOL0     C87354  10.661   7.953   9.303  0.3718 -0.3928 -0.3039
  648MOL0     C87355  10.554   7.992   9.410 -1.1774 -0.6794 -0.5801
  648MOL0     C87356  10.452   7.886   9.420  0.6890  0.4164  0.4093
  648MOL0     C87357  10.312   7.945   9.461 -1.1540  0.1672  0.2107
  648MOL0     C87358  10.200   7.864   9.401  0.0813 -0.3570  0.7776
  648MOL0     C87359  10.075   7.932   9.464  0.1917 -0.0889  0.7787
  648MOL0     C87360   9.946   7.892   9.398  0.8720 -0.1672  0.1490
  648MOL0     C87361   9.955   7.894   9.239  0.4797  0.3831 -0.6977
  648MOL0     N87362   9.822   7.904   9.174  0.4976 -0.5139  0.4121
  648MOL0     C87363   9.801   7.860   9.045 -0.2669 -0.3668 -0.6935
  648MOL0     C87364   9.676   7.901   9.024 -0.3101  0.1367  0.1231
  648MOL0     C87365   9.623   7.895   8.882  0.0096 -0.7001 -0.0319
  648MOL0     C87366   9.510   7.789   8.861 -0.5179  0.4923  0.8401
  648MOL0     C87367   9.442   7.799   8.723 -0.2904 -0.1941 -0.3503
  648MOL0     C87368   9.531   7.843   8.614 -0.0456  0.8047  0.3772
  648MOL0     O87369   9.644   7.762   8.626 -0.7285 -1.0445 -0.1184
  648MOL0     C87370   9.760   7.797   8.550  0.5149 -0.0291 -0.4237
  648MOL0     C87371   9.885   7.758   8.602  0.5414  0.0758  0.0752
  648MOL0     C87372  10.001   7.791   8.543 -0.4125  0.6806 -1.0958
  648MOL0     C87373  10.118   7.728   8.619  0.3489  0.4426  0.6775
  648MOL0     C87374  10.001   7.870   8.429 -0.3673  1.1057  0.3697
  648MOL0     C87375  10.124   7.920   8.363 -0.7469 -0.5732 -0.0721
  648MOL0     O87376  10.102   7.986   8.247 -0.0224  0.3223 -0.3880
  648MOL0     C87377  10.198   8.056   8.172 -0.8155 -0.6720 -1.1535
  648MOL0     C87378  10.163   8.190   8.139 -0.1046 -0.4919 -0.3700
  648MOL0     C87379  10.251   8.264   8.057  0.0089  0.5502  0.2986
  648MOL0     C87380  10.376   8.212   8.020 -0.9907 -0.8052  0.4009
  648MOL0     O87381  10.478   8.277   7.950  0.0707 -0.3519  0.7600
  648MOL0     C87382  10.449   8.414   7.911  0.3336  0.1663 -0.2916
  648MOL0     C87383  10.563   8.477   7.831 -0.8165  0.6390 -0.2984
  648MOL0     C87384  10.707   8.413   7.864  0.1476 -0.7867  0.3781
  648MOL0     C87385  10.745   8.284   7.781  0.7612  0.6655  0.7905
  648MOL0     C87386  10.899   8.271   7.750  0.0827 -0.4743 -0.6213
  648MOL0     C87387  10.969   8.376   7.671  0.4507  0.5361 -0.5026
  648MOL0     C87388  11.067   8.312   7.565 -0.1365  0.0576 -1.1551
  648MOL0     C87389  11.146   8.421   7.489  0.2754 -0.1545 -1.1450
  648MOL0    Cl87390  11.218   8.346   7.342  0.4358 -0.6413  0.2386
  648MOL0     C87391  10.410   8.080   8.065 -0.1139  0.2126 -0.5633
  648MOL0     C87392  10.322   7.998   8.138  0.9842  0.6664  0.3882
  648MOL0     O87393  10.235   7.894   8.409  0.2035 -0.1916 -0.0957
  648MOL0     C87394   9.876   7.916   8.374 -0.5339  1.0652  0.0737
  648MOL0     C87395   9.758   7.880   8.436  1.1491  0.5642  0.4588
  648MOL0     N87396   9.626   7.984   9.119 -0.1672  0.5029  0.1195
  648MOL0     N87397   9.716   7.978   9.213  0.4343 -0.4731 -0.1866
  648MOL0     C87398  10.956   7.965   9.442 -0.0105  0.6412 -0.3259
  648MOL0     C87399  11.090   7.928   9.457  0.6457 -0.2709  0.0884
  648MOL0     C87400  11.504   7.839   9.432  0.2965  0.0818  0.5819
  648MOL0     C87401  11.525   7.702   9.414 -0.7679  1.0822  0.9718
  648MOL0     C87402  11.653   7.644   9.426 -0.1771 -0.1551 -0.0140
  648MOL0     C87403  11.766   7.719   9.468 -0.3970  0.0080 -0.2619
  648MOL0     O87404  11.882   7.657   9.485 -0.2602 -0.4309  0.2056
  648MOL0     C87405  12.000   7.727   9.538 -0.1891 -0.6896 -0.6004
  648MOL0     C87406  12.013   7.719   9.686 -0.9553  1.4131  0.3488
  648MOL0     C87407  12.044   7.852   9.750 -0.7276 -0.1162  0.8074
  648MOL0     C87408  11.934   7.897   9.856 -1.5773  1.4301 -0.0548
  648MOL0     C87409  11.967   8.027   9.914  0.7592  1.0299 -0.2769
  648MOL0     C87410  11.974   8.140   9.945  0.6959 -1.0355 -0.6687
  648MOL0     C87411  11.737   7.850   9.508 -0.0981  0.1293  0.3168
  648MOL0     C87412  11.609   7.907   9.502 -0.5176 -0.2923  0.5634
  648MOL0     H87413  11.144   7.831   9.132 -0.1817  0.5787 -1.3841
  648MOL0     H87414  10.926   7.943   9.103  1.8713  0.8795 -0.8051
  648MOL0     H87415  10.616   7.964   9.204 -3.0411 -4.9293  0.4117
  648MOL0     H87416  10.684   7.846   9.303 -0.0524 -0.5006  1.1742
  648MOL0     H87417  10.599   8.020   9.505 -3.7799  3.6457 -0.3602
  648MOL0     H87418  10.510   8.085   9.373 -0.8293  0.2248  1.2036
  648MOL0     H87419  10.443   7.833   9.325 -0.7241 -1.4134  1.5003
  648MOL0     H87420  10.493   7.815   9.492 -0.6508 -0.1482  0.6545
  648MOL0     H87421  10.308   7.935   9.570  1.4227 -0.7524  0.2865
  648MOL0     H87422  10.300   8.046   9.423  1.2414  0.4273  0.0140
  648MOL0     H87423  10.216   7.869   9.293 -1.8410  1.1320  0.4975
  648MOL0     H87424  10.212   7.760   9.431 -1.7433  0.1787  3.7816
  648MOL0     H87425  10.076   7.922   9.573  1.7628 -2.3483  0.6198
  648MOL0     H87426  10.079   8.041   9.453 -4.6398  0.6558  3.4957
  648MOL0     H87427   9.922   7.794   9.439  1.0465  0.6267  2.2853
  648MOL0     H87428   9.870   7.960   9.438 -0.5449 -0.3383 -2.0655
  648MOL0     H87429  10.007   7.805   9.202  1.9466  0.6422  0.6593
  648MOL0     H87430  10.008   7.985   9.210 -0.0036  0.5553 -1.0545
  648MOL0     H87431   9.874   7.806   8.986 -1.2465  0.0273 -2.3248
  648MOL0     H87432   9.573   7.990   8.863  2.8360  0.4115 -2.6592
  648MOL0     H87433   9.713   7.886   8.821  0.7091  0.7209  0.7602
  648MOL0     H87434   9.437   7.796   8.942  1.0218 -1.0230  2.4573
  648MOL0     H87435   9.555   7.689   8.868  0.1983  0.8126  0.9173
  648MOL0     H87436   9.360   7.870   8.739  0.0638 -0.1022  1.2571
  648MOL0     H87437   9.399   7.701   8.704  0.1938 -0.5704  0.4527
  648MOL0     H87438   9.556   7.949   8.622  2.0628  0.3667  0.2298
  648MOL0     H87439   9.483   7.820   8.519 -0.1447  0.7260  0.4467
  648MOL0     H87440   9.887   7.701   8.694  1.3531  2.8918  1.9438
  648MOL0     H87441  10.093   7.629   8.657 -0.5145  1.1308  1.9914
  648MOL0     H87442  10.207   7.701   8.561  2.2566 -0.8280  3.9288
  648MOL0     H87443  10.161   7.792   8.697  0.7684  0.5687  0.3486
  648MOL0     H87444  10.067   8.225   8.174 -2.4741 -4.1783 -2.5056
  648MOL0     H87445  10.220   8.366   8.035 -0.3377  0.5781  0.8898
  648MOL0     H87446  10.355   8.410   7.855  0.2457  0.8534 -0.2014
  648MOL0     H87447  10.440   8.468   8.006  0.3260  0.6688 -0.5756
  648MOL0     H87448  10.541   8.467   7.724  0.0972  0.5155 -0.4816
  648MOL0     H87449  10.571   8.581   7.864  3.6301  0.3406  0.1988
  648MOL0     H87450  10.703   8.387   7.971 -3.2991  0.6991  0.7735
  648MOL0     H87451  10.778   8.495   7.851 -0.4007 -0.4493 -0.6181
  648MOL0     H87452  10.722   8.189   7.828 -2.4729  1.5800  1.2636
  648MOL0     H87453  10.706   8.285   7.679  1.0648 -0.2132  0.6608
  648MOL0     H87454  10.905   8.175   7.698 -3.0334 -1.1184  0.0208
  648MOL0     H87455  10.956   8.252   7.842 -1.9687 -0.2746  0.7471
  648MOL0     H87456  10.889   8.427   7.617  1.2024  1.5634 -0.6773
  648MOL0     H87457  11.020   8.441   7.743 -1.9797  2.4456 -0.3601
  648MOL0     H87458  11.006   8.256   7.494 -1.4237  0.1359 -0.1420
  648MOL0     H87459  11.145   8.250   7.611 -0.6349 -0.5531 -1.1223
  648MOL0     H87460  11.229   8.453   7.553 -1.1675 -2.7793  2.3738
  648MOL0     H87461  11.082   8.507   7.467 -2.6967 -1.3131  2.0827
  648MOL0     H87462  10.506   8.036   8.041  0.0256  0.3385 -0.2385
  648MOL0     H87463  10.355   7.900   8.172  1.3735 -0.1866 -2.2320
  648MOL0     H87464   9.864   7.993   8.298 -0.0845  0.1254 -0.9873
  648MOL0     H87465   9.660   7.920   8.409 -0.2952 -1.2031  2.6995
  648MOL0     H87466  10.890   8.011   9.515 -2.5293  1.5610 -2.9976
  648MOL0     H87467  11.129   7.915   9.557  0.2796  1.5509  0.5147
  648MOL0     H87468  11.439   7.646   9.379  0.6371 -0.0527 -0.8651
  648MOL0     H87469  11.658   7.536   9.412 -0.3122 -0.0006 -1.3993
  648MOL0     H87470  12.093   7.684   9.499  0.0611  0.3655 -1.2209
  648MOL0     H87471  11.989   7.829   9.500 -2.3479 -1.4196 -2.1275
  648MOL0     H87472  12.096   7.650   9.706 -2.0519 -0.1380 -0.2184
  648MOL0     H87473  11.924   7.682   9.739 -1.1355  2.1441  0.5682
  648MOL0     H87474  12.076   7.923   9.673  0.4160 -1.5589 -0.0935
  648MOL0     H87475  12.129   7.824   9.813 -1.7436 -3.8561  0.7720
  648MOL0     H87476  11.911   7.828   9.937  1.9245  0.1993  0.0199
  648MOL0     H87477  11.834   7.918   9.815 -1.6426  2.7924  0.7309
  648MOL0     H87478  11.975   8.245   9.966  2.1644 -1.3915  1.2411
  648MOL0     H87479  11.812   7.914   9.554  1.1954  0.1190 -1.6710
  648MOL0     H87480  11.591   8.008   9.538  1.1255  0.5285 -0.7652
  649MOL0     O87481   6.566   8.681   2.032  0.3869 -0.3227 -0.8778
  649MOL0     C87482   6.650   8.769   2.050 -0.2658  0.1083  0.1791
  649MOL0     O87483   6.630   8.904   2.065  0.0986  0.5326 -0.0767
  649MOL0     C87484   6.502   8.943   2.067 -0.8738  0.2501 -0.1766
  649MOL0     C87485   6.411   8.907   2.170 -0.0530  0.6540  0.3780
  649MOL0     C87486   6.274   8.937   2.140  0.3890 -0.2265 -0.2349
  649MOL0     C87487   6.229   9.005   2.032  0.2181  0.9757  1.0461
  649MOL0     O87488   6.094   9.025   2.004 -0.5647  0.2183 -0.1214
  649MOL0     C87489   6.017   8.917   1.954 -0.4859  0.5398  0.2161
  649MOL0     C87490   5.889   8.973   1.888 -1.6787  0.1037  0.1678
  649MOL0     C87491   5.792   9.047   1.974 -0.3549  0.3661  0.1651
  649MOL0     C87492   5.656   9.016   1.918 -0.6041 -0.0394  0.1282
  649MOL0     C87493   5.543   9.107   1.986 -0.0484 -0.2212  0.1638
  649MOL0     C87494   5.404   9.040   2.006 -0.9846  0.1148 -0.8501
  649MOL0     C87495   5.300   9.143   2.063 -0.0842 -0.2325 -0.4665
  649MOL0     C87496   5.156   9.117   2.047  0.3655  0.0153  0.1087
  649MOL0     N87497   5.099   9.194   1.936  0.0954 -0.3266 -0.5014
  649MOL0     C87498   5.015   9.294   1.957 -0.0995  0.5105 -0.6489
  649MOL0     C87499   4.987   9.350   1.833  0.6951  1.0498 -1.4400
  649MOL0     C87500   4.897   9.459   1.806  0.5116  0.2806  0.2372
  649MOL0     C87501   4.824   9.441   1.674 -0.5538  0.5965  0.3184
  649MOL0     C87502   4.769   9.577   1.617 -0.6333 -0.0677 -0.3266
  649MOL0     C87503   4.665   9.639   1.711 -0.1376  0.2009  0.2318
  649MOL0     O87504   4.550   9.556   1.729  0.0865  0.9389 -0.4629
  649MOL0     C87505   4.440   9.622   1.786 -0.1826  1.8013  0.3660
  649MOL0     C87506   4.434   9.758   1.828 -0.9127 -0.3732 -0.1184
  649MOL0     C87507   4.319   9.797   1.902  0.0428  0.0016 -0.0730
  649MOL0     C87508   4.323   9.940   1.961  0.8998 -0.6575  0.4100
  649MOL0     C87509   4.211   9.712   1.915 -0.1945  0.0149  0.0100
  649MOL0     C87510   4.089   9.746   1.992  0.6746 -0.0548 -1.0618
  649MOL0     O87511   3.965   9.737   1.938 -0.7685 -0.2577  0.5503
  649MOL0     C87512   3.856   9.737   2.015 -0.5244  0.1091  0.2569
  649MOL0     C87513   3.773   9.625   1.983 -0.5586 -0.0271  0.3816
  649MOL0     C87514   3.642   9.622   2.037 -0.2099  0.3582 -0.4017
  649MOL0     C87515   3.609   9.716   2.129  0.9459  1.2667 -0.1590
  649MOL0     O87516   3.489   9.690   2.184  0.0041  0.2797  0.5183
  649MOL0     C87517   3.452   9.772   2.293  0.4476 -0.8261  0.8210
  649MOL0     C87518   3.314   9.729   2.347  0.1970 -1.0102 -0.3611
  649MOL0     C87519   3.280   9.804   2.477 -0.1336  0.1342 -0.1450
  649MOL0     C87520   3.135   9.766   2.522 -0.3327 -0.2702  0.1801
  649MOL0     C87521   3.135   9.703   2.669 -0.6596 -0.5876  0.3188
  649MOL0     C87522   3.155   9.803   2.787 -0.4830  0.1736  0.1826
  649MOL0     C87523   3.061   9.764   2.904  0.1171 -0.2989 -0.4806
  649MOL0     C87524   3.066   9.877   3.007 -1.1589  0.3451 -0.3517
  649MOL0    Cl87525   2.962   9.845   3.143  0.6929 -0.3974 -0.2550
  649MOL0     C87526   3.699   9.810   2.178 -0.3353 -0.3797  0.4752
  649MOL0     C87527   3.823   9.828   2.116  0.9312  0.4416 -0.5423
  649MOL0     O87528   4.108   9.778   2.112 -0.0218  0.1259 -0.6163
  649MOL0     C87529   4.214   9.580   1.856  0.2038 -0.1592 -0.3254
  649MOL0     C87530   4.327   9.535   1.797 -0.7843  0.3910  0.3089
  649MOL0     N87531   5.053   9.275   1.737  0.5036  0.1293  0.4897
  649MOL0     N87532   5.106   9.176   1.799  0.4180 -0.4152 -1.1375
  649MOL0     C87533   6.329   9.059   1.942  1.1846  0.6697 -0.1582
  649MOL0     C87534   6.462   9.014   1.955  0.0441  0.7035  0.7359
  649MOL0     C87535   6.783   8.715   2.053 -0.2545  1.1930 -0.0370
  649MOL0     C87536   6.878   8.785   2.139 -0.2347  0.2265 -0.1255
  649MOL0     C87537   7.014   8.746   2.142 -0.7410 -0.2891 -0.2362
  649MOL0     C87538   7.059   8.654   2.041  0.5475  0.1926 -0.0514
  649MOL0     O87539   7.194   8.614   2.055  0.1523  0.2043 -0.4281
  649MOL0     C87540   7.219   8.475   2.014 -0.5294 -0.8657  0.0790
  649MOL0     C87541   7.371   8.441   2.032  0.1716 -0.1158  0.0338
  649MOL0     C87542   7.399   8.296   1.992  1.4513  0.6829 -0.5609
  649MOL0     C87543   7.523   8.227   2.029  0.1433  0.2433  0.6060
  649MOL0     C87544   7.645   8.301   1.978  0.4698 -0.1570 -0.6712
  649MOL0     C87545   7.753   8.343   1.955  0.2596  0.0091  0.9153
  649MOL0     C87546   6.971   8.593   1.952 -0.0833  0.5929  0.5010
  649MOL0     C87547   6.835   8.624   1.959 -0.2005  0.2393 -0.1395
  649MOL0     H87548   6.441   8.847   2.255  1.8489 -1.6563 -1.7520
  649MOL0     H87549   6.206   8.881   2.205  2.4419 -2.1889  0.3703
  649MOL0     H87550   6.065   8.856   1.877 -0.4109  0.3137  0.4376
  649MOL0     H87551   5.985   8.843   2.028 -0.0516  0.0180 -0.1129
  649MOL0     H87552   5.927   9.046   1.816  0.6541  0.1504  1.3441
  649MOL0     H87553   5.845   8.886   1.838  0.8318 -0.9376 -0.3785
  649MOL0     H87554   5.798   9.006   2.075  2.0040 -1.8227 -0.7446
  649MOL0     H87555   5.807   9.155   1.967  1.1886  0.0814 -1.9742
  649MOL0     H87556   5.649   9.037   1.811 -1.3536  1.7897  0.4927
  649MOL0     H87557   5.639   8.911   1.947 -1.1358 -0.0697 -0.2752
  649MOL0     H87558   5.566   9.139   2.088 -1.9817 -0.0280  0.5844
  649MOL0     H87559   5.531   9.198   1.926 -1.5879 -1.8185 -2.1281
  649MOL0     H87560   5.374   9.010   1.905  1.0172  2.3419 -2.2171
  649MOL0     H87561   5.417   8.957   2.076 -1.1657  1.5154  0.9074
  649MOL0     H87562   5.327   9.171   2.166  0.7128  2.6866 -1.3693
  649MOL0     H87563   5.315   9.239   2.014 -1.8792  0.1608 -0.2832
  649MOL0     H87564   5.109   9.146   2.141 -0.3449  0.1831 -0.2918
  649MOL0     H87565   5.128   9.012   2.032 -0.7436 -0.0844  2.4308
  649MOL0     H87566   4.982   9.331   2.053 -2.1371 -1.1325 -0.6396
  649MOL0     H87567   4.824   9.470   1.887 -0.5705  0.0784 -0.6847
  649MOL0     H87568   4.945   9.556   1.795 -2.1641  1.4280 -3.3841
  649MOL0     H87569   4.743   9.369   1.690  0.0348  0.0044  0.7226
  649MOL0     H87570   4.900   9.399   1.607  1.8196  1.6704  2.1792
  649MOL0     H87571   4.714   9.558   1.524  1.5300  1.6871 -2.0797
  649MOL0     H87572   4.856   9.641   1.598  1.7616 -2.4049  1.9149
  649MOL0     H87573   4.640   9.717   1.638 -0.3015 -1.9636 -2.1632
  649MOL0     H87574   4.700   9.681   1.806 -2.0229 -4.7130  3.4894
  649MOL0     H87575   4.514   9.831   1.819 -1.8706  0.6070 -1.0324
  649MOL0     H87576   4.243  10.005   1.925  0.7310  1.2326  3.8287
  649MOL0     H87577   4.308   9.931   2.069 -0.7209 -2.4554  0.0823
  649MOL0     H87578   4.411   9.999   1.934  0.8758 -0.2454  1.2049
  649MOL0     H87579   3.795   9.555   1.903 -0.8932  2.3038 -1.8642
  649MOL0     H87580   3.572   9.547   2.002 -0.9914 -0.7852  3.2195
  649MOL0     H87581   3.518   9.742   2.375  0.4935 -2.3487  0.2619
  649MOL0     H87582   3.455   9.877   2.262  0.2956 -1.6412 -2.2714
  649MOL0     H87583   3.237   9.760   2.275  1.3116 -0.1953 -1.2366
  649MOL0     H87584   3.312   9.620   2.354 -1.5742 -0.9037  1.8477
  649MOL0     H87585   3.297   9.912   2.485 -0.8425  0.2018  0.5908
  649MOL0     H87586   3.344   9.766   2.557 -0.8582 -0.9511 -0.0551
  649MOL0     H87587   3.073   9.856   2.514  2.3255  1.5478 -1.5577
  649MOL0     H87588   3.092   9.693   2.452 -1.9624  1.9449 -1.2808
  649MOL0     H87589   3.211   9.623   2.671  1.4979  1.3684  0.5929
  649MOL0     H87590   3.036   9.659   2.684 -2.0865  2.4707  0.4323
  649MOL0     H87591   3.261   9.789   2.810 -0.5576 -0.5204  0.1388
  649MOL0     H87592   3.139   9.907   2.757 -0.7681 -0.1421 -0.7941
  649MOL0     H87593   3.094   9.672   2.953 -3.4894 -2.1488 -1.2131
  649MOL0     H87594   2.958   9.754   2.870 -1.1823 -2.0497  3.4057
  649MOL0     H87595   3.046   9.976   2.964 -2.4907 -0.1149 -0.8790
  649MOL0     H87596   3.168   9.875   3.045  1.5738 -1.4227 -6.4253
  649MOL0     H87597   3.686   9.887   2.254 -2.1902 -0.2139  0.0561
  649MOL0     H87598   3.888   9.906   2.152 -0.1065  0.5634  1.1486
  649MOL0     H87599   4.127   9.514   1.855  1.4341 -1.8731  0.2773
  649MOL0     H87600   4.334   9.433   1.760 -5.4311 -0.1089  0.2769
  649MOL0     H87601   6.300   9.108   1.849  0.4799 -2.5610 -1.7872
  649MOL0     H87602   6.538   9.009   1.878 -1.3650 -0.4215 -0.6550
  649MOL0     H87603   6.840   8.870   2.195 -3.3117 -0.7795 -0.5033
  649MOL0     H87604   7.096   8.788   2.200 -0.8271  0.6056 -0.7401
  649MOL0     H87605   7.151   8.416   2.076  1.3677  0.8309  4.1501
  649MOL0     H87606   7.203   8.474   1.906  1.2115  3.0612 -0.4093
  649MOL0     H87607   7.402   8.470   2.133  1.3648  2.5430 -1.0049
  649MOL0     H87608   7.422   8.508   1.963 -0.0307 -1.8449 -1.8995
  649MOL0     H87609   7.385   8.291   1.883  0.2585  0.9339 -0.4381
  649MOL0     H87610   7.313   8.237   2.026  2.9519 -0.4893  1.4418
  649MOL0     H87611   7.526   8.124   1.993  1.8878  0.3646  0.2690
  649MOL0     H87612   7.530   8.208   2.136  0.4493 -1.2830  0.3360
  649MOL0     H87613   7.846   8.389   1.931  0.7540 -0.9849  0.8444
  649MOL0     H87614   7.001   8.524   1.874 -1.8276  0.3907 -0.0199
  649MOL0     H87615   6.766   8.573   1.893 -0.4231  0.0560  0.2294
  650MOL0     O87616   6.308   2.261   9.970  0.2616 -0.2475 -0.4252
  650MOL0     C87617   6.304   2.380   9.948 -1.0501  0.7264 -0.0649
  650MOL0     O87618   6.227   2.471  10.017  0.0785 -0.2285 -0.0115
  650MOL0     C87619   6.128   2.444  10.102 -0.2386  0.1983  0.3069
  650MOL0     C87620   6.059   2.323  10.096  0.0681 -0.4664  0.0853
  650MOL0     C87621   5.953   2.298  10.188 -1.0003 -0.5850 -0.8196
  650MOL0     C87622   5.923   2.392  10.292  0.3548 -1.1516  0.3447
  650MOL0     O87623   5.815   2.372  10.380 -1.4848 -0.0659  0.4428
  650MOL0     C87624   5.803   2.236  10.435  0.1851 -0.0462  0.6100
  650MOL0     C87625   5.763   2.243  10.583 -0.5801  0.6524  0.1170
  650MOL0     C87626   5.623   2.294  10.602  1.8686 -0.3380 -0.0230
  650MOL0     C87627   5.620   2.422  10.688  0.4192  0.7942 -0.8942
  650MOL0     C87628   5.490   2.489  10.671  0.6318 -1.2005 -0.2028
  650MOL0     C87629   5.487   2.639  10.700 -0.4931 -0.6779 -0.0531
  650MOL0     C87630   5.383   2.685  10.809  0.3654  0.8798 -0.2072
  650MOL0     C87631   5.357   2.835  10.793 -0.2152 -0.6084 -0.0497
  650MOL0     N87632   5.253   2.878  10.885 -0.3794  0.2455  0.3282
  650MOL0     C87633   5.133   2.934  10.852  0.3442  0.9427 -0.0976
  650MOL0     C87634   5.062   2.957  10.969  0.3453  0.5095 -0.1950
  650MOL0     C87635   4.923   3.014  10.989 -0.5149 -1.4957 -0.3124
  650MOL0     C87636   4.907   3.126  11.096  0.0637  0.3113 -0.0460
  650MOL0     C87637   4.766   3.138  11.156 -0.6279  0.3354 -0.1721
  650MOL0     C87638   4.756   3.047  11.272  0.0245 -0.2832 -0.0993
  650MOL0     O87639   4.838   3.101  11.381  0.4365  0.4415  0.5205
  650MOL0     C87640   4.784   3.167  11.491 -0.2530  0.5939 -0.0175
  650MOL0     C87641   4.867   3.209  11.595 -0.4385 -0.1732  0.3435
  650MOL0     C87642   4.824   3.290  11.710  0.4223 -0.6172  0.0210
  650MOL0     C87643   4.936   3.349  11.791  0.0649  0.1080 -0.2938
  650MOL0     C87644   4.686   3.326  11.724 -0.1583 -0.5787  0.5254
  650MOL0     C87645   4.629   3.401  11.834  0.4043 -0.6289  0.0461
  650MOL0     O87646   4.513   3.458  11.813 -0.0533 -0.4617 -0.3273
  650MOL0     C87647   4.434   3.510  11.916 -0.2352  0.6462  0.6242
  650MOL0     C87648   4.405   3.643  11.910 -0.5868  0.0846  0.3510
  650MOL0     C87649   4.327   3.708  12.008 -0.2583  0.4203 -0.3855
  650MOL0     C87650   4.266   3.621  12.109  0.5182 -1.3014  0.7119
  650MOL0     O87651   4.177   3.659  12.208  0.9494  0.6520 -0.9324
  650MOL0     C87652   4.132   3.795  12.215  0.1262 -0.2042  1.1075
  650MOL0     C87653   4.019   3.814  12.104 -0.6643 -0.3368  1.2126
  650MOL0     C87654   3.985   3.964  12.091  0.2850  0.4752 -2.0042
  650MOL0     C87655   3.916   4.010  12.226  0.3729 -0.4859  0.6208
  650MOL0     C87656   3.887   4.159  12.228  0.1843 -0.0305 -0.0722
  650MOL0     C87657   3.800   4.200  12.344 -0.6393  0.2700  0.8712
  650MOL0     C87658   3.779   4.357  12.357  0.2587 -0.0636 -0.9080
  650MOL0     C87659   3.715   4.381  12.497  0.2771  0.3262 -0.0424
  650MOL0    Cl87660   3.645   4.537  12.490 -0.1895  0.3608  0.0706
  650MOL0     C87661   4.305   3.494  12.114 -0.6441  0.6647 -0.2070
  650MOL0     C87662   4.385   3.438  12.023 -0.7843  1.2017 -0.1132
  650MOL0     O87663   4.689   3.395  11.943  0.7165  0.0958  0.0045
  650MOL0     C87664   4.606   3.273  11.618  0.8252  0.5113  0.3150
  650MOL0     C87665   4.652   3.191  11.511  0.8213  0.1663  0.4472
  650MOL0     N87666   5.143   2.917  11.072  0.6540 -0.7770  0.3216
  650MOL0     N87667   5.256   2.873  11.023 -0.1538 -0.1094  0.2785
  650MOL0     C87668   5.977   2.525  10.285 -0.2621 -0.2321  0.3730
  650MOL0     C87669   6.073   2.550  10.182  0.3083  0.2749  0.6754
  650MOL0     C87670   6.408   2.434   9.858 -0.2664 -0.8368 -0.9052
  650MOL0     C87671   6.507   2.355   9.796 -1.1885  0.4618  0.4647
  650MOL0     C87672   6.586   2.404   9.690  1.5435  0.5374  0.4614
  650MOL0     C87673   6.592   2.541   9.662 -0.8219  0.7729 -0.0009
  650MOL0     O87674   6.681   2.597   9.570  0.5892 -0.2133  0.9665
  650MOL0     C87675   6.764   2.507   9.489 -0.7333  0.0988 -0.9365
  650MOL0     C87676   6.829   2.586   9.378 -0.6852  0.6978  0.1165
  650MOL0     C87677   6.947   2.678   9.427 -0.0622 -0.0480 -0.4546
  650MOL0     C87678   7.013   2.758   9.315  0.0875  0.5520 -0.0023
  650MOL0     C87679   6.927   2.868   9.276  0.0752  0.2206 -0.1754
  650MOL0     C87680   6.859   2.969   9.255  0.2786 -0.3647  0.1954
  650MOL0     C87681   6.504   2.631   9.735  0.3902 -0.5900 -0.8259
  650MOL0     C87682   6.418   2.574   9.827  0.6060  0.5370  0.1379
  650MOL0     H87683   6.064   2.259  10.009  0.6322 -2.0044  1.2068
  650MOL0     H87684   5.910   2.198  10.187  0.0887 -1.3031  3.5216
  650MOL0     H87685   5.727   2.174  10.385  1.5514 -2.2300  1.1269
  650MOL0     H87686   5.892   2.174  10.430 -1.3839 -2.5879  1.8543
  650MOL0     H87687   5.752   2.143  10.625 -0.2854  0.7636  0.4627
  650MOL0     H87688   5.838   2.299  10.640  2.2942  0.2516 -2.9790
  650MOL0     H87689   5.580   2.312  10.503  0.9935 -0.8149  0.2612
  650MOL0     H87690   5.564   2.216  10.650  1.1775 -1.5141 -2.5829
  650MOL0     H87691   5.633   2.392  10.792 -4.7752 -0.1621 -0.2548
  650MOL0     H87692   5.693   2.489  10.642 -3.1189  4.4417 -1.8512
  650MOL0     H87693   5.445   2.477  10.571 -1.0272 -0.1805  0.3715
  650MOL0     H87694   5.422   2.442  10.742 -0.0279 -0.9857 -0.6776
  650MOL0     H87695   5.587   2.671  10.732 -0.2339  1.6962 -2.8051
  650MOL0     H87696   5.457   2.697  10.612 -2.1968 -1.7159 -0.1828
  650MOL0     H87697   5.289   2.636  10.782  0.3047  1.5980 -1.3795
  650MOL0     H87698   5.410   2.671  10.914  0.7712 -1.3810 -0.5713
  650MOL0     H87699   5.322   2.850  10.691  0.1806  0.8985  0.0130
  650MOL0     H87700   5.450   2.892  10.797  0.0297 -0.9389 -0.8431
  650MOL0     H87701   5.100   2.937  10.748  2.1210 -1.0495 -0.8129
  650MOL0     H87702   4.880   3.052  10.895 -0.4802 -0.8940 -0.0859
  650MOL0     H87703   4.863   2.932  11.028 -0.3206 -0.8248  1.4944
  650MOL0     H87704   4.932   3.219  11.045  4.3557 -2.1523 -3.0797
  650MOL0     H87705   4.969   3.104  11.183 -2.4802 -0.8760  1.5975
  650MOL0     H87706   4.693   3.114  11.078  1.2647 -1.4384 -1.4830
  650MOL0     H87707   4.758   3.242  11.191  0.3287 -0.4873  2.7326
  650MOL0     H87708   4.795   2.947  11.252 -4.2372 -1.4894 -4.0453
  650MOL0     H87709   4.650   3.031  11.290  0.0125 -1.7474 -1.2994
  650MOL0     H87710   4.973   3.191  11.581 -0.4565  1.7031 -3.3966
  650MOL0     H87711   5.030   3.336  11.736  0.9476 -1.4739  1.4916
  650MOL0     H87712   4.906   3.454  11.798 -1.4648 -0.1589 -1.9577
  650MOL0     H87713   4.945   3.296  11.886  3.1490  1.1242  0.0759
  650MOL0     H87714   4.451   3.697  11.827 -2.0448 -1.8534 -1.8614
  650MOL0     H87715   4.312   3.816  12.003 -0.8140  0.3500 -0.3326
  650MOL0     H87716   4.088   3.802  12.315 -4.0083  1.8954 -0.6109
  650MOL0     H87717   4.212   3.869  12.206 -3.8440  4.4295 -0.5233
  650MOL0     H87718   4.072   3.794  12.010  2.5380  3.0136  2.0737
  650MOL0     H87719   3.934   3.746  12.114  0.7202 -1.9799  2.4194
  650MOL0     H87720   3.919   3.974  12.005  0.0654  1.1060 -1.7759
  650MOL0     H87721   4.078   4.014  12.061  0.6952  0.9714 -0.0685
  650MOL0     H87722   3.827   3.950  12.248 -1.1983  0.9373 -1.4303
  650MOL0     H87723   3.990   3.997  12.306  0.6937  1.2051  0.6367
  650MOL0     H87724   3.834   4.177  12.134 -1.5262 -0.6116  0.7353
  650MOL0     H87725   3.980   4.216  12.223  0.7139 -0.9546 -1.4318
  650MOL0     H87726   3.704   4.147  12.341  2.2739 -5.8860  0.1051
  650MOL0     H87727   3.846   4.152  12.431 -2.8447 -2.1630  0.8329
  650MOL0     H87728   3.713   4.387  12.274  0.2846  0.6948 -0.6636
  650MOL0     H87729   3.876   4.408  12.349  0.7351 -0.1254  2.9016
  650MOL0     H87730   3.775   4.367  12.587  0.5670  0.6087 -0.1894
  650MOL0     H87731   3.633   4.310  12.508 -0.4244  1.3903  1.8462
  650MOL0     H87732   4.264   3.429  12.191 -0.3057 -0.7231 -1.1517
  650MOL0     H87733   4.425   3.340  12.043 -1.4768  0.8233 -0.5422
  650MOL0     H87734   4.504   3.306  11.606  0.7184  1.4386  3.1357
  650MOL0     H87735   4.570   3.177  11.441 -0.4875 -0.4005  2.0221
  650MOL0     H87736   5.954   2.604  10.355 -0.6445  0.2169 -0.2459
  650MOL0     H87737   6.111   2.652  10.185  0.6487  0.1262  2.5309
  650MOL0     H87738   6.495   2.252   9.827 -3.4311  0.5881  0.2238
  650MOL0     H87739   6.647   2.333   9.635  0.1132 -1.8181  1.7507
  650MOL0     H87740   6.840   2.467   9.556 -0.5576 -1.2923 -1.9175
  650MOL0     H87741   6.725   2.415   9.444  1.0834  0.1014 -2.6233
  650MOL0     H87742   6.749   2.635   9.323 -1.5937 -0.7653  0.0610
  650MOL0     H87743   6.875   2.511   9.312  0.7846 -0.7190  2.5901
  650MOL0     H87744   7.018   2.612   9.478 -1.5362 -0.7673  0.7487
  650MOL0     H87745   6.902   2.744   9.501 -0.1409  1.6258 -1.9417
  650MOL0     H87746   7.027   2.687   9.233  2.8799  0.7557  0.2051
  650MOL0     H87747   7.114   2.787   9.344  0.7591 -1.0749 -0.5750
  650MOL0     H87748   6.784   3.044   9.242 -1.5907 -1.8681  1.6578
  650MOL0     H87749   6.511   2.739   9.729  2.3424 -0.5001  1.5527
  650MOL0     H87750   6.336   2.628   9.874  0.8548 -0.1386  1.3993
  651MOL0     O87751  10.525   5.473   5.020  0.2798  0.6369  0.2671
  651MOL0     C87752  10.556   5.477   4.900 -0.8460  1.1592  0.2870
  651MOL0     O87753  10.482   5.526   4.799  0.3207 -0.7875  0.2339
  651MOL0     C87754  10.350   5.576   4.815  0.4983 -1.0817  0.4170
  651MOL0     C87755  10.263   5.567   4.698  0.3528  0.3050 -0.1244
  651MOL0     C87756  10.137   5.621   4.689  0.0305  0.1191  0.1412
  651MOL0     C87757  10.076   5.687   4.803 -0.4484  0.3910 -0.4655
  651MOL0     O87758   9.945   5.725   4.800 -0.0417 -0.5741  0.2590
  651MOL0     C87759   9.870   5.735   4.920  0.6140  0.0222  0.5786
  651MOL0     C87760   9.726   5.793   4.902  0.3748  0.1850 -0.3709
  651MOL0     C87761   9.635   5.700   4.820 -0.1133 -0.8236  0.2477
  651MOL0     C87762   9.508   5.773   4.784  0.3468  0.3866 -0.3432
  651MOL0     C87763   9.403   5.668   4.737  0.6039 -0.3458  0.0123
  651MOL0     C87764   9.286   5.719   4.651  0.7530 -0.5243 -0.5089
  651MOL0     C87765   9.309   5.755   4.508 -0.0014  0.9199  0.7723
  651MOL0     C87766   9.188   5.781   4.430  1.2896  0.0796  0.4973
  651MOL0     N87767   9.089   5.864   4.497 -0.1207  0.0682 -0.2797
  651MOL0     C87768   8.992   5.831   4.584  0.0306  0.6419  0.5864
  651MOL0     C87769   8.937   5.945   4.634 -0.3587  0.3503  0.4713
  651MOL0     C87770   8.836   5.957   4.746  0.0385  0.1385  0.2283
  651MOL0     C87771   8.690   5.955   4.702 -0.2233  0.4806 -0.2174
  651MOL0     C87772   8.617   6.097   4.678  0.3249 -0.2742  0.1462
  651MOL0     C87773   8.475   6.081   4.652  0.0342  0.0078 -0.2266
  651MOL0     O87774   8.415   6.199   4.585  1.4317  0.4865 -0.5004
  651MOL0     C87775   8.282   6.178   4.558 -0.4963  0.2161  0.5288
  651MOL0     C87776   8.242   6.115   4.443 -0.3485  0.0798  0.0552
  651MOL0     C87777   8.112   6.070   4.420 -0.4014 -0.8446 -0.7716
  651MOL0     C87778   8.083   5.990   4.303 -0.4570  0.0739 -0.1756
  651MOL0     C87779   8.009   6.102   4.515  0.9552 -0.6614 -0.4329
  651MOL0     C87780   7.869   6.071   4.506  0.0069  0.8930  0.1850
  651MOL0     O87781   7.772   6.149   4.571  0.1797 -0.3617  0.2871
  651MOL0     C87782   7.641   6.096   4.580  0.3999  0.3764  0.0937
  651MOL0     C87783   7.573   6.117   4.699 -0.1152 -0.7420 -0.5331
  651MOL0     C87784   7.443   6.066   4.718  1.1055 -0.6200  0.9390
  651MOL0     C87785   7.375   6.006   4.608 -0.0919 -0.4113 -0.6508
  651MOL0     O87786   7.242   5.979   4.625 -0.0885  1.3363 -0.3265
  651MOL0     C87787   7.203   5.841   4.595  0.0140  0.3601 -0.4564
  651MOL0     C87788   7.050   5.815   4.635  0.0646  0.0549  0.1793
  651MOL0     C87789   7.023   5.830   4.787  0.1596 -0.2300  0.3410
  651MOL0     C87790   7.100   5.733   4.879  0.5767  0.8221 -0.2469
  651MOL0     C87791   7.060   5.756   5.019  0.2939  0.1878 -0.3816
  651MOL0     C87792   7.069   5.886   5.079  0.6658 -0.6508 -0.5748
  651MOL0     C87793   7.054   5.876   5.237 -0.0012  0.3631 -0.0720
  651MOL0     C87794   6.938   5.789   5.286 -0.1753 -0.0605 -0.2256
  651MOL0    Cl87795   6.780   5.857   5.211 -0.0914 -0.0795 -0.0975
  651MOL0     C87796   7.433   6.003   4.483 -0.5735 -0.0301  0.3356
  651MOL0     C87797   7.571   6.032   4.474 -0.0889  0.3436  0.1381
  651MOL0     O87798   7.839   5.972   4.442 -0.2236 -0.1514 -0.2294
  651MOL0     C87799   8.049   6.177   4.622  0.2015  0.1959  0.2733
  651MOL0     C87800   8.177   6.223   4.640 -0.3490 -0.5539 -0.1137
  651MOL0     N87801   9.007   6.054   4.569  0.0656  0.0706 -0.2657
  651MOL0     N87802   9.098   6.003   4.493  0.9276  0.8873 -0.4236
  651MOL0     C87803  10.151   5.688   4.917  0.2231 -0.2187 -0.3117
  651MOL0     C87804  10.285   5.632   4.928  1.1071 -0.1052 -0.4303
  651MOL0     C87805  10.689   5.412   4.861  0.1473  1.0240  0.2194
  651MOL0     C87806  10.719   5.392   4.733  0.4004 -0.6319  1.1535
  651MOL0     C87807  10.843   5.323   4.699  0.1650 -0.3751 -0.3116
  651MOL0     C87808  10.929   5.264   4.797  0.8994 -0.1924 -0.1942
  651MOL0     O87809  11.038   5.178   4.779 -0.1849  0.1751  0.1744
  651MOL0     C87810  11.072   5.147   4.639  0.0838 -0.1288  0.9426
  651MOL0     C87811  11.208   5.077   4.623  0.1773  0.1072 -0.6513
  651MOL0     C87812  11.224   5.019   4.482 -0.7349 -0.0750  1.3340
  651MOL0     C87813  11.360   4.975   4.440  0.4900  0.1329  0.0518
  651MOL0     C87814  11.358   4.888   4.326  0.9510 -0.8616 -0.3254
  651MOL0     C87815  11.350   4.821   4.226  0.3204  0.7202  1.0596
  651MOL0     C87816  10.889   5.283   4.931 -0.7401  0.4574  0.6983
  651MOL0     C87817  10.771   5.353   4.958  0.0922  0.3248  0.6355
  651MOL0     H87818  10.310   5.521   4.611  0.2423 -1.2979  0.6368
  651MOL0     H87819  10.082   5.609   4.596  0.9363  0.3936 -0.4438
  651MOL0     H87820   9.848   5.631   4.949 -0.0096 -0.2605 -0.7943
  651MOL0     H87821   9.915   5.795   4.999 -2.4250 -0.4221  2.8540
  651MOL0     H87822   9.670   5.800   4.996  3.1151  0.6129  1.3330
  651MOL0     H87823   9.724   5.896   4.864  0.1442  0.2037 -0.3124
  651MOL0     H87824   9.676   5.665   4.724 -0.4633 -2.7853  0.7841
  651MOL0     H87825   9.610   5.617   4.886 -0.3116  0.7020  2.1676
  651MOL0     H87826   9.475   5.812   4.881 -1.8333  0.0574 -0.9202
  651MOL0     H87827   9.526   5.854   4.713  1.6825  0.2387 -0.2015
  651MOL0     H87828   9.446   5.582   4.685 -0.6560 -0.3064 -1.1440
  651MOL0     H87829   9.353   5.625   4.825 -0.7944 -0.9862 -1.0684
  651MOL0     H87830   9.213   5.638   4.659 -0.3196  0.0897 -3.1359
  651MOL0     H87831   9.239   5.808   4.695  0.8904 -0.4419 -0.5285
  651MOL0     H87832   9.366   5.848   4.514  1.4497  0.4353 -2.8128
  651MOL0     H87833   9.365   5.686   4.444 -1.5360  1.7323 -1.6000
  651MOL0     H87834   9.141   5.686   4.401  1.3494  0.2584 -0.2122
  651MOL0     H87835   9.228   5.824   4.337  3.6370  0.8355  1.7878
  651MOL0     H87836   8.964   5.730   4.613 -0.4002  1.1788  2.1476
  651MOL0     H87837   8.864   5.881   4.820  1.6465 -0.8576 -1.3249
  651MOL0     H87838   8.864   6.051   4.795  1.1233 -0.3446  0.5621
  651MOL0     H87839   8.643   5.881   4.768  1.1390 -2.2297 -2.1015
  651MOL0     H87840   8.687   5.910   4.603  1.7761 -0.8120  0.2552
  651MOL0     H87841   8.667   6.153   4.598  0.1623 -1.6838 -0.9853
  651MOL0     H87842   8.622   6.175   4.754 -3.0310  3.4470 -2.9739
  651MOL0     H87843   8.425   6.048   4.743 -0.8760  1.7424 -0.0514
  651MOL0     H87844   8.454   5.998   4.583  1.1414  1.3697 -2.3165
  651MOL0     H87845   8.320   6.083   4.374 -1.1206  0.6086 -1.0917
  651MOL0     H87846   8.008   6.032   4.236  0.1122  1.7487  0.1811
  651MOL0     H87847   8.168   5.990   4.235 -0.6653  1.0400 -0.4538
  651MOL0     H87848   8.057   5.888   4.333  2.4592  0.1188  3.1736
  651MOL0     H87849   7.627   6.177   4.772  1.3125 -0.4297 -1.7988
  651MOL0     H87850   7.379   6.091   4.802 -1.9776 -1.8388 -0.8937
  651MOL0     H87851   7.217   5.823   4.488 -1.1800  1.5042 -0.8394
  651MOL0     H87852   7.259   5.762   4.645 -1.2816 -0.8486 -0.8549
  651MOL0     H87853   6.988   5.877   4.570  2.6368  1.1034 -1.4513
  651MOL0     H87854   7.018   5.714   4.606 -1.1639  0.3378  0.5005
  651MOL0     H87855   6.915   5.814   4.790  0.4247 -2.3861  0.3000
  651MOL0     H87856   7.047   5.930   4.825 -1.5259 -0.3423  1.8469
  651MOL0     H87857   7.076   5.629   4.853 -1.7401  0.3666  3.1317
  651MOL0     H87858   7.208   5.733   4.865  0.6231 -1.5166 -0.4150
  651MOL0     H87859   7.130   5.697   5.079  0.5667  1.5458  0.6744
  651MOL0     H87860   6.960   5.718   5.043  1.6099 -2.2908  1.7263
  651MOL0     H87861   7.169   5.925   5.061  0.3158 -0.2637 -1.8403
  651MOL0     H87862   6.997   5.956   5.033 -0.9546 -0.8086  1.5438
  651MOL0     H87863   7.042   5.975   5.281  1.5947  2.1751 -3.3667
  651MOL0     H87864   7.144   5.828   5.278 -0.5679  0.0520  0.8432
  651MOL0     H87865   6.936   5.794   5.395 -2.1993 -1.2905 -0.1457
  651MOL0     H87866   6.956   5.686   5.254  3.5897  0.7488 -1.1952
  651MOL0     H87867   7.376   5.953   4.406 -2.4690 -1.2800  2.4413
  651MOL0     H87868   7.618   6.015   4.378  1.3037  1.7631  0.5336
  651MOL0     H87869   7.978   6.200   4.702  2.1892  1.8088  1.6901
  651MOL0     H87870   8.198   6.289   4.724  0.1194  0.6273 -1.1371
  651MOL0     H87871  10.117   5.735   5.009 -1.2816  3.7141 -2.6115
  651MOL0     H87872  10.332   5.633   5.026  0.2124  0.9778  0.0087
  651MOL0     H87873  10.656   5.429   4.653  0.4708 -0.8183  1.0093
  651MOL0     H87874  10.868   5.323   4.593  0.8841  0.0700 -0.1485
  651MOL0     H87875  10.994   5.092   4.585  2.0141  0.1729 -2.4225
  651MOL0     H87876  11.081   5.245   4.590  0.0884  0.3174  1.8250
  651MOL0     H87877  11.232   5.001   4.698  2.3527  1.4861  0.1650
  651MOL0     H87878  11.295   5.142   4.639  0.9202 -1.1996  0.9938
  651MOL0     H87879  11.212   5.107   4.418  1.5099  0.5227  1.6310
  651MOL0     H87880  11.145   4.948   4.455 -0.6511 -0.2970  1.6767
  651MOL0     H87881  11.398   4.906   4.516 -3.0917 -2.9295 -0.6318
  651MOL0     H87882  11.429   5.059   4.429 -0.7661  1.3774  1.2195
  651MOL0     H87883  11.330   4.776   4.131  2.5106  2.2274 -0.2007
  651MOL0     H87884  10.959   5.250   5.007  1.3971  0.5305 -1.1283
  651MOL0     H87885  10.740   5.360   5.062 -0.4968 -2.7729  0.7447
  652MOL0     O87886   5.168   3.373   8.285 -0.4306 -0.6220  0.5898
  652MOL0     C87887   5.203   3.469   8.217 -0.7136  0.2293  0.9252
  652MOL0     O87888   5.139   3.582   8.208 -0.2748 -1.0589  0.4311
  652MOL0     C87889   5.015   3.597   8.259 -0.3616 -0.7366  0.1377
  652MOL0     C87890   4.997   3.693   8.364  0.5181  0.3471 -1.1086
  652MOL0     C87891   4.864   3.706   8.421 -0.3566  0.1526 -0.0311
  652MOL0     C87892   4.760   3.623   8.374 -1.7047 -0.2147  0.7603
  652MOL0     O87893   4.629   3.641   8.409 -0.6202 -0.4487 -0.2339
  652MOL0     C87894   4.585   3.737   8.503  0.3088  0.4715  0.0922
  652MOL0     C87895   4.428   3.729   8.493  0.0932 -0.6590  1.4031
  652MOL0     C87896   4.364   3.846   8.566 -0.1616 -0.6170 -0.2941
  652MOL0     C87897   4.209   3.834   8.576  0.0478 -0.0430  0.0132
  652MOL0     C87898   4.132   3.943   8.662 -0.3682 -0.3543 -0.3413
  652MOL0     C87899   4.170   4.089   8.611  0.2702 -0.3819  0.1935
  652MOL0     C87900   4.096   4.196   8.701  0.3064  0.4492 -0.7672
  652MOL0     C87901   4.094   4.329   8.627  0.1913 -0.0826  0.5330
  652MOL0     N87902   4.233   4.377   8.603  0.2641  0.1067 -0.3366
  652MOL0     C87903   4.323   4.417   8.703  0.4249 -0.4500  0.7030
  652MOL0     C87904   4.435   4.462   8.642 -0.1657  1.3689  0.2934
  652MOL0     C87905   4.554   4.515   8.723 -0.2160 -0.2039 -0.9897
  652MOL0     C87906   4.683   4.509   8.635  0.9857  0.1392  0.3590
  652MOL0     C87907   4.799   4.556   8.726  0.5450 -0.1828 -0.0212
  652MOL0     C87908   4.935   4.545   8.652  0.1597 -0.0328 -1.5011
  652MOL0     O87909   4.944   4.627   8.530 -0.3969 -0.4018 -0.0783
  652MOL0     C87910   5.055   4.616   8.456 -0.5341 -0.2597 -0.3427
  652MOL0     C87911   5.066   4.692   8.340 -0.0115  0.7212 -0.0668
  652MOL0     C87912   5.180   4.688   8.255 -0.5554  0.3920 -0.1391
  652MOL0     C87913   5.196   4.796   8.143  0.8470  0.0655 -0.2277
  652MOL0     C87914   5.289   4.593   8.281  0.1654  0.0972 -0.6360
  652MOL0     C87915   5.414   4.575   8.205 -0.6079 -0.0700 -0.6805
  652MOL0     O87916   5.530   4.534   8.270  0.1175  0.1329  0.0228
  652MOL0     C87917   5.644   4.472   8.215 -1.1715 -0.0648 -1.0410
  652MOL0     C87918   5.659   4.448   8.077 -0.1623 -0.3807  0.9544
  652MOL0     C87919   5.783   4.382   8.043 -1.2211  0.4966 -0.1215
  652MOL0     C87920   5.887   4.362   8.130 -0.3985  0.0902 -1.0105
  652MOL0     O87921   6.020   4.338   8.113 -0.2898  0.4656 -0.4400
  652MOL0     C87922   6.071   4.300   7.986 -1.0750 -0.5627  1.2560
  652MOL0     C87923   6.227   4.302   7.982  0.4365 -0.3788 -0.0320
  652MOL0     C87924   6.288   4.192   8.061 -0.2380  0.6953  0.4742
  652MOL0     C87925   6.438   4.201   8.057 -0.5138 -0.7208 -0.9830
  652MOL0     C87926   6.505   4.089   8.135 -0.0231 -0.0847  0.0058
  652MOL0     C87927   6.661   4.112   8.155 -0.3700 -0.5279 -0.2768
  652MOL0     C87928   6.749   3.991   8.193 -0.0461 -0.7702  0.8613
  652MOL0     C87929   6.899   4.028   8.201  0.0941 -0.7256 -0.5164
  652MOL0    Cl87930   6.952   4.138   8.334  0.2593  0.0270  0.0546
  652MOL0     C87931   5.864   4.398   8.268  0.3563 -0.8905 -0.9608
  652MOL0     C87932   5.747   4.449   8.310  0.8521 -0.4173  0.5502
  652MOL0     O87933   5.411   4.597   8.086  0.1067  0.6288 -0.0179
  652MOL0     C87934   5.278   4.521   8.404 -0.3551 -0.6970 -0.1299
  652MOL0     C87935   5.167   4.534   8.488 -0.1870 -0.1459 -0.3990
  652MOL0     N87936   4.422   4.443   8.504  0.2233 -0.9681 -0.1040
  652MOL0     N87937   4.300   4.391   8.481 -1.0800 -0.1429 -0.4064
  652MOL0     C87938   4.791   3.521   8.288 -0.0128  0.0844 -0.0677
  652MOL0     C87939   4.918   3.514   8.224 -0.7136  0.0712 -0.5855
  652MOL0     C87940   5.327   3.458   8.148 -0.6765 -0.3908 -0.0746
  652MOL0     C87941   5.401   3.337   8.144 -0.4150 -0.4119 -0.0106
  652MOL0     C87942   5.538   3.333   8.107 -0.7392 -0.3709  0.3959
  652MOL0     C87943   5.602   3.447   8.062 -0.1093 -0.0975 -1.5112
  652MOL0     O87944   5.729   3.436   8.009  0.6388  0.3137 -0.2720
  652MOL0     C87945   5.790   3.553   7.953  0.1502 -1.1129  0.4853
  652MOL0     C87946   5.908   3.529   7.866 -0.7103  0.9501 -0.0525
  652MOL0     C87947   6.026   3.457   7.934 -0.3612  0.7440  0.2270
  652MOL0     C87948   6.009   3.301   7.948  0.3163 -0.5239 -0.5311
  652MOL0     C87949   6.121   3.240   8.014 -0.3770 -0.4699 -0.1531
  652MOL0     C87950   6.213   3.183   8.052 -0.4662  0.8740  0.0063
  652MOL0     C87951   5.532   3.561   8.071 -0.0337 -0.4757  0.2602
  652MOL0     C87952   5.400   3.566   8.119  0.0404 -0.7204 -0.6884
  652MOL0     H87953   5.085   3.751   8.392  1.5570 -1.3448 -0.6942
  652MOL0     H87954   4.831   3.782   8.491 -2.4211  2.4330 -3.2479
  652MOL0     H87955   4.620   3.715   8.604 -0.2339  0.5320  0.2937
  652MOL0     H87956   4.622   3.834   8.467  0.3601 -0.2759 -2.0189
  652MOL0     H87957   4.399   3.728   8.388 -0.1961 -0.3604  1.4798
  652MOL0     H87958   4.398   3.634   8.538  0.7865 -0.5775  2.0618
  652MOL0     H87959   4.397   3.858   8.670  1.3447  1.5283 -0.9543
  652MOL0     H87960   4.383   3.936   8.508 -1.1137 -1.2091 -1.5607
  652MOL0     H87961   4.173   3.840   8.473 -0.1839 -1.5822 -0.0237
  652MOL0     H87962   4.183   3.735   8.616 -1.9604  0.5563  0.3137
  652MOL0     H87963   4.027   3.934   8.634 -1.2296  2.6057  1.4597
  652MOL0     H87964   4.154   3.943   8.770 -1.1501  2.2969 -0.0876
  652MOL0     H87965   4.276   4.110   8.621 -0.3708  2.9424  1.0805
  652MOL0     H87966   4.152   4.088   8.503  1.6638 -2.3927 -0.0814
  652MOL0     H87967   3.991   4.177   8.725  0.0869  1.7121 -0.6346
  652MOL0     H87968   4.141   4.195   8.800  0.1150  0.1667 -0.6853
  652MOL0     H87969   4.049   4.403   8.695 -2.6539  0.1766 -1.4646
  652MOL0     H87970   4.028   4.339   8.541  0.4320  1.5422  0.5052
  652MOL0     H87971   4.297   4.420   8.808 -1.2423  0.5981  0.3028
  652MOL0     H87972   4.532   4.617   8.757 -1.0022  0.1387 -2.4287
  652MOL0     H87973   4.567   4.451   8.811 -0.1473  2.1166  0.7923
  652MOL0     H87974   4.674   4.578   8.550 -0.4671  0.0217  0.4000
  652MOL0     H87975   4.717   4.411   8.601  2.9615  1.2275 -1.0258
  652MOL0     H87976   4.806   4.488   8.811 -3.0438 -0.2290  0.3854
  652MOL0     H87977   4.783   4.655   8.770  1.1077 -0.8796  1.8554
  652MOL0     H87978   4.953   4.438   8.635 -0.7251 -0.1138 -2.0059
  652MOL0     H87979   5.006   4.574   8.729 -1.0906  2.4208 -1.1934
  652MOL0     H87980   4.985   4.759   8.315 -2.8770 -2.2248  0.6619
  652MOL0     H87981   5.161   4.751   8.050 -2.0830  1.4938  0.0653
  652MOL0     H87982   5.136   4.883   8.174 -0.7730 -0.9273 -0.4781
  652MOL0     H87983   5.302   4.824   8.135  0.8703 -0.4962 -2.2109
  652MOL0     H87984   5.581   4.467   8.004  0.5813 -0.8388  0.0216
  652MOL0     H87985   5.797   4.382   7.935 -0.0933  1.6121  0.0053
  652MOL0     H87986   6.045   4.200   7.951  1.0910 -0.6091 -0.4820
  652MOL0     H87987   6.026   4.368   7.912 -0.0640 -0.8778  0.3167
  652MOL0     H87988   6.264   4.305   7.879  0.3757  0.6492 -0.0293
  652MOL0     H87989   6.254   4.397   8.029  0.2733 -0.9766  1.3238
  652MOL0     H87990   6.266   4.097   8.011 -0.6302  0.0083  1.9072
  652MOL0     H87991   6.249   4.197   8.162  2.2620 -0.5079  1.5980
  652MOL0     H87992   6.477   4.186   7.956  1.6628  0.6718 -0.4249
  652MOL0     H87993   6.476   4.297   8.094 -0.1947 -0.7891 -1.1252
  652MOL0     H87994   6.490   3.993   8.085  0.0443  0.9224 -2.0363
  652MOL0     H87995   6.448   4.080   8.228 -0.2387 -0.8632 -0.1949
  652MOL0     H87996   6.704   4.144   8.059 -0.1389 -1.7324 -0.5909
  652MOL0     H87997   6.678   4.188   8.231 -0.5094 -0.4522 -0.3200
  652MOL0     H87998   6.741   3.924   8.107  2.3812 -0.1799  0.0879
  652MOL0     H87999   6.711   3.930   8.275 -3.0570 -1.4100 -0.8705
  652MOL0     H88000   6.925   4.082   8.110 -1.1698 -0.4303 -0.7183
  652MOL0     H88001   6.964   3.941   8.217  0.2678 -0.5072 -0.0008
  652MOL0     H88002   5.936   4.406   8.348  1.0053 -0.6646 -1.5623
  652MOL0     H88003   5.736   4.483   8.412  0.5441 -0.0138  0.3895
  652MOL0     H88004   5.349   4.447   8.439  1.3266  1.5364  1.4827
  652MOL0     H88005   5.181   4.483   8.583 -3.0015 -0.1586  0.0907
  652MOL0     H88006   4.721   3.448   8.248  0.8255 -0.6667 -0.2105
  652MOL0     H88007   4.935   3.447   8.140 -0.6781 -0.6135 -0.0393
  652MOL0     H88008   5.354   3.253   8.194  0.3484 -0.5670  0.4699
  652MOL0     H88009   5.597   3.242   8.109  0.1647  0.2028  0.4929
  652MOL0     H88010   5.711   3.611   7.905  2.5541 -0.1350 -2.5342
  652MOL0     H88011   5.826   3.616   8.035 -0.8947 -0.7822  0.7146
  652MOL0     H88012   5.951   3.628   7.850  0.7769  0.4811  0.7758
  652MOL0     H88013   5.879   3.490   7.768 -0.9931  3.0382 -0.8442
  652MOL0     H88014   6.045   3.510   8.027  2.4427  1.5509 -0.7006
  652MOL0     H88015   6.117   3.474   7.876  1.6553  2.3987  3.5634
  652MOL0     H88016   5.981   3.248   7.856 -1.2901  0.9853 -0.9601
  652MOL0     H88017   5.919   3.291   8.010 -1.2792  0.2297 -2.5739
  652MOL0     H88018   6.306   3.133   8.068  0.3855  1.6374 -2.2565
  652MOL0     H88019   5.566   3.660   8.043 -1.5968  0.4870  1.5422
  652MOL0     H88020   5.362   3.667   8.112 -0.5487 -0.9718 -1.1962
  653MOL0     O88021   1.499  11.092  11.383  0.6244  0.6839  0.2283
  653MOL0     C88022   1.443  11.014  11.301 -0.9198 -0.4114  0.1327
  653MOL0     O88023   1.509  10.962  11.189 -0.2123 -0.1594  0.1371
  653MOL0     C88024   1.639  10.977  11.160 -0.3248 -0.5104  0.3131
  653MOL0     C88025   1.741  10.899  11.222 -0.3594 -0.7896  0.2550
  653MOL0     C88026   1.868  10.908  11.167 -0.0004 -0.7118 -0.2590
  653MOL0     C88027   1.901  11.007  11.074  0.3151  0.4421 -0.7942
  653MOL0     O88028   2.028  11.039  11.037  0.0979  0.6384 -0.6669
  653MOL0     C88029   2.115  11.090  11.136  0.1013  0.1070 -0.4696
  653MOL0     C88030   2.219  11.188  11.079 -0.8319  0.0846 -0.4724
  653MOL0     C88031   2.291  11.143  10.953  0.0952 -0.4436 -0.3225
  653MOL0     C88032   2.425  11.215  10.948  0.8723 -0.9892  0.5491
  653MOL0     C88033   2.502  11.164  10.829  0.0100  0.3878  0.4079
  653MOL0     C88034   2.624  11.250  10.786 -0.3588 -0.4170 -0.1424
  653MOL0     C88035   2.694  11.190  10.670  0.1954  0.4957  0.2878
  653MOL0     C88036   2.781  11.290  10.587  0.5766 -0.2446  0.0357
  653MOL0     N88037   2.717  11.396  10.501 -0.0478  0.8445 -0.5623
  653MOL0     C88038   2.625  11.496  10.531  0.2847  0.1382  0.0608
  653MOL0     C88039   2.575  11.530  10.406 -0.9770  0.0001 -0.2744
  653MOL0     C88040   2.482  11.643  10.368 -0.0553  0.0111 -0.4146
  653MOL0     C88041   2.338  11.598  10.376 -0.3263 -0.2027  0.2300
  653MOL0     C88042   2.285  11.553  10.513  0.4295  0.1783 -0.4983
  653MOL0     C88043   2.142  11.503  10.509  0.6419 -0.8821  0.1478
  653MOL0     O88044   2.120  11.423  10.623 -0.2859 -0.5471 -0.5657
  653MOL0     C88045   2.054  11.471  10.734 -0.9880 -0.2171  0.5517
  653MOL0     C88046   2.144  11.489  10.841  0.3455 -0.3120 -0.3073
  653MOL0     C88047   2.086  11.532  10.969 -0.2125  0.0878 -0.2993
  653MOL0     C88048   2.187  11.547  11.081  0.1174 -0.4768 -0.5620
  653MOL0     C88049   1.950  11.546  10.990  0.0641 -0.8325 -0.2436
  653MOL0     C88050   1.882  11.599  11.116 -0.3872  0.1356  0.4299
  653MOL0     O88051   1.761  11.543  11.140 -0.3107  0.5059  0.6329
  653MOL0     C88052   1.724  11.535  11.267  1.0491 -0.8710  0.3486
  653MOL0     C88053   1.680  11.414  11.318 -0.8521  0.4456 -0.2792
  653MOL0     C88054   1.637  11.403  11.454 -0.5600 -0.3449 -0.2295
  653MOL0     C88055   1.624  11.514  11.532 -0.3425  0.2918 -0.1323
  653MOL0     O88056   1.588  11.507  11.667  0.5415 -1.2861 -0.1641
  653MOL0     C88057   1.543  11.384  11.733  0.5370 -0.0708  0.2643
  653MOL0     C88058   1.404  11.350  11.685  0.9205 -0.0926 -0.0222
  653MOL0     C88059   1.291  11.441  11.738  0.4611 -0.6119 -0.2997
  653MOL0     C88060   1.148  11.414  11.677  0.0999  0.3880 -0.9019
  653MOL0     C88061   1.133  11.434  11.523 -0.8424  0.0200 -0.3821
  653MOL0     C88062   1.004  11.384  11.477  0.0312  0.6478 -0.5426
  653MOL0     C88063   0.996  11.374  11.322  0.9969 -0.7126  1.3577
  653MOL0     C88064   0.845  11.389  11.280 -0.2661 -0.2106  0.1164
  653MOL0    Cl88065   0.801  11.554  11.213 -0.0267 -0.1621 -0.1878
  653MOL0     C88066   1.661  11.643  11.480  0.2256  0.0466 -0.5148
  653MOL0     C88067   1.704  11.648  11.344 -0.8843  0.1501 -0.6304
  653MOL0     O88068   1.934  11.690  11.179 -0.0514  0.0237  0.0235
  653MOL0     C88069   1.871  11.505  10.884  0.9295  0.2430 -0.0174
  653MOL0     C88070   1.917  11.475  10.755  0.1694 -0.6075  0.0550
  653MOL0     N88071   2.620  11.452  10.305 -0.0409  0.4977 -0.0542
  653MOL0     N88072   2.710  11.383  10.366  0.0251 -0.4508  0.7196
  653MOL0     C88073   1.803  11.090  11.018  1.2294  0.5585  0.0351
  653MOL0     C88074   1.670  11.066  11.057 -0.1012  0.0042  0.6163
  653MOL0     C88075   1.303  10.993  11.334 -0.4119  1.0622 -0.3741
  653MOL0     C88076   1.201  11.024  11.236 -0.2155 -1.1062 -0.2246
  653MOL0     C88077   1.067  11.007  11.270 -0.6536 -0.2874  0.4639
  653MOL0     C88078   1.033  10.956  11.400  0.7859 -0.0754  0.0841
  653MOL0     O88079   0.895  10.943  11.434  0.7030 -0.4588  0.2559
  653MOL0     C88080   0.854  11.017  11.550 -1.5379 -0.3129 -0.3204
  653MOL0     C88081   0.718  11.071  11.560 -0.0361 -0.3993 -0.2915
  653MOL0     C88082   0.613  10.954  11.514  0.0670 -0.4432  0.0809
  653MOL0     C88083   0.470  11.006  11.534 -0.3811  0.6467  0.2708
  653MOL0     C88084   0.390  10.897  11.481 -0.6127  0.5088  0.4157
  653MOL0     C88085   0.294  10.823  11.460 -0.0857 -0.1517 -0.2850
  653MOL0     C88086   1.131  10.908  11.481  0.0689 -0.4108 -0.1426
  653MOL0     C88087   1.266  10.936  11.455  0.5527  1.4201 -0.3936
  653MOL0     H88088   1.716  10.815  11.286 -0.0928 -1.7808 -0.9181
  653MOL0     H88089   1.944  10.844  11.209 -0.2475  1.4030  3.8646
  653MOL0     H88090   2.065  11.144  11.216  0.0625 -0.5543 -0.0375
  653MOL0     H88091   2.168  11.015  11.195 -1.6735 -0.2673  0.7256
  653MOL0     H88092   2.173  11.287  11.073  0.2625  1.0460  3.6679
  653MOL0     H88093   2.299  11.197  11.153 -2.0152 -2.4504  1.2845
  653MOL0     H88094   2.290  11.034  10.957 -1.5244 -0.5292 -1.8455
  653MOL0     H88095   2.227  11.181  10.873 -3.3089  2.3804  3.3351
  653MOL0     H88096   2.410  11.324  10.951  1.6662 -0.8770  2.6241
  653MOL0     H88097   2.483  11.192  11.038 -2.1308  1.6991  3.4819
  653MOL0     H88098   2.545  11.070  10.866 -0.2214 -0.2848 -0.9596
  653MOL0     H88099   2.452  11.141  10.734 -0.6321  1.5099  0.4562
  653MOL0     H88100   2.591  11.353  10.770 -1.3997 -0.9491 -1.5935
  653MOL0     H88101   2.690  11.250  10.873 -1.5661 -0.3403  0.8116
  653MOL0     H88102   2.761  11.119  10.719 -1.1800 -0.9800  0.1080
  653MOL0     H88103   2.632  11.126  10.607 -0.0050 -1.7562  2.6347
  653MOL0     H88104   2.853  11.232  10.528  0.2383 -1.6932  0.9843
  653MOL0     H88105   2.843  11.351  10.652  1.9507 -2.1112  0.5799
  653MOL0     H88106   2.590  11.547  10.620 -0.5679 -0.0268 -0.1701
  653MOL0     H88107   2.487  11.726  10.439 -2.9857  1.3142 -1.5589
  653MOL0     H88108   2.510  11.679  10.269  0.0306  0.6872 -0.1509
  653MOL0     H88109   2.312  11.524  10.301 -0.9220  1.0081 -0.7971
  653MOL0     H88110   2.269  11.674  10.338  1.5327 -0.5354 -4.3788
  653MOL0     H88111   2.296  11.637  10.582  1.4098 -1.0286  0.8795
  653MOL0     H88112   2.346  11.466  10.538  3.0148  2.0287  0.0559
  653MOL0     H88113   2.137  11.444  10.417  1.4088  0.7467 -0.9829
  653MOL0     H88114   2.074  11.586  10.490 -0.6253 -1.2020  2.9425
  653MOL0     H88115   2.248  11.486  10.810  0.3779 -1.9744 -0.1386
  653MOL0     H88116   2.172  11.481  11.166  0.1599  1.4454  1.0137
  653MOL0     H88117   2.286  11.526  11.037  0.3359 -1.9501  0.5575
  653MOL0     H88118   2.180  11.646  11.128 -4.2004 -1.4448  1.2206
  653MOL0     H88119   1.678  11.330  11.249  0.8956  0.3829 -0.2988
  653MOL0     H88120   1.612  11.302  11.485  1.5083 -0.8881 -0.1686
  653MOL0     H88121   1.609  11.300  11.708 -0.5723 -0.2193 -2.4294
  653MOL0     H88122   1.541  11.411  11.839  1.7927 -0.5545  0.4297
  653MOL0     H88123   1.411  11.352  11.576  2.1080 -0.7800  0.0244
  653MOL0     H88124   1.375  11.250  11.719  0.8447  0.1972  0.8089
  653MOL0     H88125   1.311  11.544  11.708 -2.0331  0.7861  2.2530
  653MOL0     H88126   1.284  11.438  11.847  2.2889 -1.7721 -0.1749
  653MOL0     H88127   1.126  11.308  11.694 -1.2115  0.6537 -0.8719
  653MOL0     H88128   1.085  11.485  11.730  1.1144  1.4434 -1.0724
  653MOL0     H88129   1.223  11.389  11.481  0.6019  1.5843  0.8986
  653MOL0     H88130   1.151  11.538  11.495  2.2422 -0.5186 -0.7470
  653MOL0     H88131   0.987  11.284  11.520 -1.7868  0.7769 -0.8848
  653MOL0     H88132   0.932  11.456  11.517  0.2354  0.2177  0.6310
  653MOL0     H88133   1.027  11.271  11.297  1.3890 -1.4147  4.4133
  653MOL0     H88134   1.062  11.437  11.261  0.9883 -0.6303  1.4342
  653MOL0     H88135   0.775  11.367  11.362 -2.5553 -3.0371 -2.3491
  653MOL0     H88136   0.841  11.314  11.201 -1.3390 -1.2029  1.0632
  653MOL0     H88137   1.641  11.728  11.544 -2.5388 -0.7886 -0.1460
  653MOL0     H88138   1.718  11.747  11.302 -2.2635 -0.2010 -1.9875
  653MOL0     H88139   1.764  11.507  10.904  0.9349 -0.4548  0.0931
  653MOL0     H88140   1.844  11.457  10.677  0.5899 -0.9139 -0.2723
  653MOL0     H88141   1.831  11.157  10.937 -0.3051  0.0913 -0.9408
  653MOL0     H88142   1.589  11.117  11.006 -2.6636  0.9841  5.1151
  653MOL0     H88143   1.217  11.066  11.137  1.3529 -3.2103 -0.9433
  653MOL0     H88144   0.998  11.036  11.192  2.6654  0.3202 -2.5156
  653MOL0     H88145   0.878  10.967  11.644  0.6933  0.7063 -0.2759
  653MOL0     H88146   0.924  11.100  11.563  1.3487 -2.7448  1.0510
  653MOL0     H88147   0.715  11.158  11.494 -0.5005 -1.5506 -1.8202
  653MOL0     H88148   0.708  11.110  11.662  0.2471 -1.8367  0.3045
  653MOL0     H88149   0.627  10.861  11.569 -1.6451 -1.0754 -0.4881
  653MOL0     H88150   0.632  10.942  11.406 -0.0489 -0.0968  0.0220
  653MOL0     H88151   0.447  11.103  11.489 -0.7164  1.7705  2.7436
  653MOL0     H88152   0.471  11.001  11.643 -1.4487 -1.1264  0.2359
  653MOL0     H88153   0.205  10.770  11.433  0.3905 -0.3162 -1.5937
  653MOL0     H88154   1.096  10.871  11.577  0.4821  0.7933  0.4857
  653MOL0     H88155   1.339  10.915  11.532 -0.7268  0.4601  0.5987
  654MOL0     O88156  10.114   6.431   0.187  0.7036 -0.0353  1.0635
  654MOL0     C88157  10.082   6.346   0.273 -0.2551 -0.3321  0.3057
  654MOL0     O88158   9.964   6.316   0.319  0.0455 -0.2418  0.0757
  654MOL0     C88159   9.855   6.383   0.260 -0.2789 -0.2872  0.5707
  654MOL0     C88160   9.824   6.517   0.280 -0.3952  0.3711  0.5834
  654MOL0     C88161   9.713   6.576   0.215  0.5183  0.4124 -0.3009
  654MOL0     C88162   9.637   6.500   0.126 -0.6445  0.1957  0.8728
  654MOL0     O88163   9.518   6.547   0.058 -0.4522 -0.1347 -0.4520
  654MOL0     C88164   9.462   6.668   0.112 -0.1378  0.1056 -0.7116
  654MOL0     C88165   9.333   6.690   0.046  0.7504  0.2779 -0.7363
  654MOL0     C88166   9.222   6.601   0.113 -0.8510 -0.9363 -0.1761
  654MOL0     C88167   9.087   6.634   0.034 -0.5627 -0.4896 -0.5213
  654MOL0     C88168   8.966   6.556   0.085 -0.3066 -0.1551  0.0310
  654MOL0     C88169   8.854   6.546  -0.023 -0.2081  0.0987 -0.5726
  654MOL0     C88170   8.746   6.452   0.006  0.4759  0.4158  0.0192
  654MOL0     C88171   8.661   6.457  -0.127  0.0914  0.6830  0.0066
  654MOL0     N88172   8.538   6.374  -0.124  0.4157  0.8154 -0.0397
  654MOL0     C88173   8.439   6.409  -0.210  0.6261  0.0274 -1.0573
  654MOL0     C88174   8.348   6.302  -0.198 -0.8865  0.5376 -1.1368
  654MOL0     C88175   8.225   6.295  -0.285 -0.4138 -0.0560 -0.4084
  654MOL0     C88176   8.130   6.184  -0.233 -0.3635 -0.0183 -0.6744
  654MOL0     C88177   8.019   6.168  -0.330  0.4502  1.0355 -0.7758
  654MOL0     C88178   7.925   6.044  -0.321  0.1460  0.1526 -0.2360
  654MOL0     O88179   7.846   6.041  -0.201 -0.2821  0.0151 -0.1941
  654MOL0     C88180   7.784   5.923  -0.178 -0.3496 -0.0345 -0.2885
  654MOL0     C88181   7.788   5.804  -0.249 -0.5223 -0.1610  0.4238
  654MOL0     C88182   7.731   5.681  -0.202  0.2812  0.7085  0.2598
  654MOL0     C88183   7.736   5.569  -0.297 -0.3693  0.5696 -0.0314
  654MOL0     C88184   7.664   5.682  -0.078 -0.0837  0.9470  0.6196
  654MOL0     C88185   7.601   5.557  -0.021  0.0537  0.4889  0.0498
  654MOL0     O88186   7.533   5.568   0.091  0.7307  0.2903 -1.0528
  654MOL0     C88187   7.481   5.451   0.145  0.7155 -0.5035  0.4221
  654MOL0     C88188   7.344   5.428   0.128 -0.0910  0.3970 -0.1276
  654MOL0     C88189   7.277   5.325   0.197 -0.0146  0.5776  0.4358
  654MOL0     C88190   7.349   5.233   0.278  0.0064  0.2054  0.1275
  654MOL0     O88191   7.287   5.118   0.325  0.2769 -0.3955 -0.6181
  654MOL0     C88192   7.144   5.114   0.314 -0.5185  0.5913 -0.2739
  654MOL0     C88193   7.104   5.011   0.426  0.3134  0.3266 -0.5572
  654MOL0     C88194   7.123   4.876   0.365 -0.7554 -0.2638  0.6201
  654MOL0     C88195   7.108   4.757   0.454 -0.2665  0.0639 -0.2640
  654MOL0     C88196   6.957   4.744   0.486 -1.0386  0.1667 -0.2606
  654MOL0     C88197   6.934   4.599   0.529 -0.4919 -0.1994 -0.4596
  654MOL0     C88198   6.787   4.557   0.556  0.2481 -0.4177 -0.0108
  654MOL0     C88199   6.711   4.539   0.421 -0.0839  0.4219  0.0436
  654MOL0    Cl88200   6.541   4.494   0.459 -0.2265 -0.0511  0.1651
  654MOL0     C88201   7.485   5.255   0.295  0.1538  0.4105  0.4903
  654MOL0     C88202   7.550   5.361   0.230  0.3084  1.4819 -0.3819
  654MOL0     O88203   7.629   5.451  -0.069 -0.3489 -0.5220  0.4950
  654MOL0     C88204   7.651   5.802  -0.018  0.4567 -0.3178 -0.2686
  654MOL0     C88205   7.708   5.922  -0.062 -0.4405 -0.0560  1.0564
  654MOL0     N88206   8.383   6.221  -0.093 -0.1926  0.0388 -0.6462
  654MOL0     N88207   8.502   6.254  -0.058  0.2626 -0.5568 -0.3765
  654MOL0     C88208   9.670   6.368   0.102 -0.6425  0.0132 -0.4548
  654MOL0     C88209   9.778   6.313   0.172 -0.3483 -0.1466 -0.1896
  654MOL0     C88210  10.205   6.297   0.351  0.6743  0.3507  0.1325
  654MOL0     C88211  10.327   6.366   0.348  0.5268 -0.7927  1.0849
  654MOL0     C88212  10.440   6.326   0.416  1.0544 -0.7638  0.0275
  654MOL0     C88213  10.433   6.217   0.495  0.3629  0.6082 -0.4226
  654MOL0     O88214  10.532   6.162   0.565 -0.0066 -0.1033 -0.6154
  654MOL0     C88215  10.664   6.188   0.519 -0.7882 -0.7352  0.5745
  654MOL0     C88216  10.737   6.125   0.634  0.5351 -0.7984 -0.4918
  654MOL0     C88217  10.886   6.143   0.610  0.1204  0.8156  0.1636
  654MOL0     C88218  10.974   6.071   0.714  0.9311 -0.1135 -0.5683
  654MOL0     C88219  10.954   5.927   0.700  0.3092 -0.4038  0.5568
  654MOL0     C88220  10.952   5.809   0.707 -0.4650 -0.4572  0.1634
  654MOL0     C88221  10.307   6.147   0.505 -1.2824 -0.3268 -0.0732
  654MOL0     C88222  10.193   6.183   0.437 -0.3014 -0.6534 -0.8772
  654MOL0     H88223   9.898   6.577   0.331  0.0819  1.3659 -1.1855
  654MOL0     H88224   9.694   6.682   0.224 -0.2293  0.3006 -0.5124
  654MOL0     H88225   9.455   6.674   0.222  1.1736  0.9475 -0.6593
  654MOL0     H88226   9.519   6.752   0.074  0.1781  0.4618  0.4907
  654MOL0     H88227   9.304   6.795   0.057 -0.9888 -0.3770  2.1609
  654MOL0     H88228   9.342   6.663  -0.060  0.8966  1.2175 -0.9762
  654MOL0     H88229   9.247   6.495   0.109 -0.9624 -1.2469  3.6298
  654MOL0     H88230   9.206   6.626   0.219 -2.8342 -1.8131 -0.2100
  654MOL0     H88231   9.071   6.743   0.031 -0.4038 -0.4632 -0.4059
  654MOL0     H88232   9.095   6.622  -0.075 -0.3569  1.8571 -0.8375
  654MOL0     H88233   8.996   6.457   0.119 -3.4832 -0.8416  1.1013
  654MOL0     H88234   8.929   6.611   0.172 -1.1303  1.9716 -1.5589
  654MOL0     H88235   8.807   6.641  -0.048 -3.9475 -1.2462  0.6983
  654MOL0     H88236   8.910   6.495  -0.101  0.5157 -1.5111  0.9262
  654MOL0     H88237   8.784   6.353   0.031  4.7799  1.1874 -2.4802
  654MOL0     H88238   8.673   6.494   0.077 -1.4926  0.8428 -2.1213
  654MOL0     H88239   8.718   6.410  -0.208 -2.4220  0.1279 -1.5494
  654MOL0     H88240   8.624   6.555  -0.156 -3.7970 -0.8983 -0.9679
  654MOL0     H88241   8.444   6.496  -0.276  2.2231  1.2663  0.5836
  654MOL0     H88242   8.183   6.396  -0.280 -0.2144  0.0424 -0.6744
  654MOL0     H88243   8.249   6.274  -0.390  0.8243  0.1171 -0.1722
  654MOL0     H88244   8.084   6.207  -0.136  0.5491 -1.8554  0.2619
  654MOL0     H88245   8.186   6.091  -0.214 -0.5612  0.0509  0.3204
  654MOL0     H88246   8.052   6.166  -0.434 -2.3403 -3.1150 -1.8205
  654MOL0     H88247   7.949   6.249  -0.309  0.6646  0.9678  0.2654
  654MOL0     H88248   7.986   5.953  -0.326  0.9903  0.7177 -0.5453
  654MOL0     H88249   7.861   6.059  -0.408 -3.0583 -2.6073  1.4212
  654MOL0     H88250   7.860   5.792  -0.330 -1.7817 -1.5829 -0.5272
  654MOL0     H88251   7.805   5.488  -0.272 -1.9842 -0.4000  1.5344
  654MOL0     H88252   7.633   5.534  -0.304  0.6710 -2.4031 -2.5071
  654MOL0     H88253   7.757   5.604  -0.398 -2.5004  1.3665 -0.2594
  654MOL0     H88254   7.287   5.495   0.065  0.8525 -2.6572 -4.6654
  654MOL0     H88255   7.169   5.312   0.187 -0.0404  0.7970  0.4334
  654MOL0     H88256   7.086   5.205   0.333  0.2275  1.7858 -3.1419
  654MOL0     H88257   7.110   5.086   0.213 -3.4832  0.2431  0.7071
  654MOL0     H88258   7.164   5.040   0.512  2.9144  4.2112 -3.3402
  654MOL0     H88259   6.999   5.032   0.447 -0.1785 -2.2892  0.0499
  654MOL0     H88260   7.227   4.864   0.333 -0.6832 -1.8237  1.3641
  654MOL0     H88261   7.051   4.858   0.284  0.1869 -2.8330  0.2655
  654MOL0     H88262   7.142   4.667   0.403  2.0858  1.3112 -1.0573
  654MOL0     H88263   7.172   4.763   0.542  0.7928  0.3579 -1.0259
  654MOL0     H88264   6.902   4.765   0.393  0.0526  1.6664 -0.6140
  654MOL0     H88265   6.919   4.810   0.565 -0.1736  0.3231  0.0372
  654MOL0     H88266   6.973   4.518   0.466 -1.2579 -0.5281 -0.5214
  654MOL0     H88267   6.987   4.588   0.624  3.0941 -0.4977 -2.3283
  654MOL0     H88268   6.738   4.636   0.612  0.8540  0.3653 -0.5634
  654MOL0     H88269   6.802   4.465   0.613  1.1306 -0.4038 -0.2059
  654MOL0     H88270   6.745   4.464   0.349  0.5590  2.4307 -1.8945
  654MOL0     H88271   6.720   4.631   0.361  0.9976  0.4663  0.2591
  654MOL0     H88272   7.544   5.181   0.348 -0.5918 -0.7586 -0.2635
  654MOL0     H88273   7.658   5.353   0.241  0.2959  0.4548 -0.9049
  654MOL0     H88274   7.611   5.818   0.081 -1.5547 -2.3074 -0.6819
  654MOL0     H88275   7.707   6.013  -0.003  2.0279 -0.0560  1.1631
  654MOL0     H88276   9.622   6.308   0.025 -0.5763 -0.5473 -0.0626
  654MOL0     H88277   9.814   6.216   0.140  0.6216 -0.0418  0.5621
  654MOL0     H88278  10.343   6.451   0.282 -4.5726  0.3269  0.8214
  654MOL0     H88279  10.536   6.374   0.397  0.6356 -1.1709 -3.7229
  654MOL0     H88280  10.680   6.134   0.426  2.2432  0.0226  0.5429
  654MOL0     H88281  10.688   6.294   0.512  0.1645 -1.0350 -1.3338
  654MOL0     H88282  10.722   6.017   0.641 -0.4673 -0.6192  0.3936
  654MOL0     H88283  10.690   6.168   0.723  1.5699 -1.3478  0.3561
  654MOL0     H88284  10.906   6.251   0.618  2.8909  0.4774 -1.0023
  654MOL0     H88285  10.919   6.110   0.511  1.3143 -1.1958  1.1583
  654MOL0     H88286  10.947   6.091   0.818  0.6807  1.8008 -0.9445
  654MOL0     H88287  11.078   6.093   0.689  0.3805  0.3396 -2.7164
  654MOL0     H88288  10.964   5.703   0.713 -3.3200 -0.7625  2.3475
  654MOL0     H88289  10.306   6.064   0.575  1.0550 -0.4315 -0.1083
  654MOL0     H88290  10.107   6.120   0.458  0.8951 -1.6452  1.4552
  655MOL0     O88291  10.450   7.846  10.048  0.3274  0.2249  1.6044
  655MOL0     C88292  10.484   7.840   9.934  0.3826  0.1987 -0.3008
  655MOL0     O88293  10.408   7.871   9.823  0.4393 -0.1010 -0.0360
  655MOL0     C88294  10.282   7.928   9.835  0.2696  0.4038 -0.1162
  655MOL0     C88295  10.175   7.836   9.866  0.7864  0.5721 -1.2588
  655MOL0     C88296  10.047   7.885   9.886 -0.9003 -0.2584 -0.1713
  655MOL0     C88297  10.021   8.019   9.872  1.0138  0.0202 -0.5256
  655MOL0     O88298   9.883   8.057   9.885  0.4471 -0.0084 -0.5766
  655MOL0     C88299   9.826   8.159   9.805 -1.0053  0.2240  1.0749
  655MOL0     C88300   9.671   8.161   9.822  0.2505  0.3244 -1.1196
  655MOL0     C88301   9.600   8.029   9.772  1.0242 -0.4127  0.3677
  655MOL0     C88302   9.452   8.049   9.814 -1.0867  0.1738 -0.1607
  655MOL0     C88303   9.379   7.931   9.760  1.2184 -0.1890  0.1294
  655MOL0     C88304   9.240   7.908   9.825 -0.2576  0.5484  0.0516
  655MOL0     C88305   9.262   7.824   9.941 -0.0584  0.7306  0.0800
  655MOL0     C88306   9.147   7.827  10.042  0.3552  0.2714  0.9872
  655MOL0     N88307   9.139   7.954  10.119 -0.1546 -0.2097 -0.5456
  655MOL0     C88308   9.233   8.049  10.143 -0.1060  0.0209 -0.6134
  655MOL0     C88309   9.169   8.154  10.211 -0.3812  0.3698 -0.0279
  655MOL0     C88310   9.217   8.284  10.268 -0.6128 -0.5522  0.0228
  655MOL0     C88311   9.225   8.300  10.422  0.0134 -0.9130 -0.4720
  655MOL0     C88312   9.292   8.185  10.497 -0.4285 -0.2254 -0.0825
  655MOL0     C88313   9.276   8.200  10.651  0.0090 -0.1462 -0.0988
  655MOL0     O88314   9.347   8.303  10.720 -0.4730 -0.0140  0.2259
  655MOL0     C88315   9.486   8.314  10.712  0.4491 -0.1797 -0.2909
  655MOL0     C88316   9.573   8.208  10.703 -0.1444  0.2962 -0.2353
  655MOL0     C88317   9.712   8.237  10.685 -0.5855 -0.1145 -1.0035
  655MOL0     C88318   9.806   8.121  10.688 -0.6096 -0.5210 -0.8458
  655MOL0     C88319   9.763   8.368  10.696 -0.2426  0.0982  1.1903
  655MOL0     C88320   9.907   8.393  10.695 -0.2535  0.2945  0.9783
  655MOL0     O88321   9.943   8.502  10.775 -0.1652  0.1359  0.1349
  655MOL0     C88322  10.071   8.499  10.811 -0.1651  0.1165 -0.0276
  655MOL0     C88323  10.088   8.474  10.946  0.2197 -0.6973 -0.4110
  655MOL0     C88324  10.207   8.475  11.020 -0.0208  0.3471  0.6924
  655MOL0     C88325  10.327   8.494  10.937 -0.0960  0.9933 -0.0034
  655MOL0     O88326  10.449   8.491  10.999  0.5301 -0.4537 -0.4322
  655MOL0     C88327  10.536   8.606  10.983  0.2229  0.3874  0.4782
  655MOL0     C88328  10.654   8.594  11.073  0.2806  0.2529 -0.0847
  655MOL0     C88329  10.716   8.734  11.103 -0.0088 -0.3402 -0.2571
  655MOL0     C88330  10.806   8.730  11.220 -1.1042 -0.1165 -0.3976
  655MOL0     C88331  10.961   8.729  11.190  0.2651  0.0926 -0.3716
  655MOL0     C88332  10.999   8.602  11.115 -0.9747  0.0694  0.6901
  655MOL0     C88333  11.146   8.579  11.071 -0.0952 -0.1172 -1.8434
  655MOL0     C88334  11.207   8.686  10.976  0.0726  0.8689  0.2718
  655MOL0    Cl88335  11.152   8.659  10.816 -0.1408 -0.9773  0.2656
  655MOL0     C88336  10.315   8.517  10.794  0.3467  0.6007 -0.1705
  655MOL0     C88337  10.189   8.515  10.725 -0.0475 -0.3416 -0.2587
  655MOL0     O88338   9.987   8.322  10.632  0.3985 -0.3198 -0.0841
  655MOL0     C88339   9.672   8.472  10.717  0.7984 -0.1876 -0.0941
  655MOL0     C88340   9.533   8.446  10.715  0.4102  0.0221  0.0223
  655MOL0     N88341   9.039   8.118  10.220  0.0583  0.0480  0.1977
  655MOL0     N88342   9.016   7.999  10.160  0.2518  0.0308 -0.0730
  655MOL0     C88343  10.122   8.105   9.845 -0.3999  0.0355  0.4230
  655MOL0     C88344  10.261   8.062   9.823  1.2747  0.4353 -0.4977
  655MOL0     C88345  10.628   7.833   9.898  0.0720 -0.4235  0.1220
  655MOL0     C88346  10.723   7.855   9.996  1.1131 -0.8319 -0.2528
  655MOL0     C88347  10.853   7.873   9.968 -0.2125 -0.7511 -0.3594
  655MOL0     C88348  10.896   7.851   9.835 -1.3913  0.0677 -0.2937
  655MOL0     O88349  11.029   7.861   9.795 -0.6202 -0.1139  0.7136
  655MOL0     C88350  11.130   7.841   9.897  0.6017  0.2465 -0.0374
  655MOL0     C88351  11.268   7.839   9.817  0.0429 -0.9490 -0.6811
  655MOL0     C88352  11.396   7.801   9.902  0.1864 -0.6497 -1.1364
  655MOL0     C88353  11.527   7.814   9.809 -1.1261 -0.0957  0.0922
  655MOL0     C88354  11.630   7.723   9.868 -0.0346 -0.6779  0.3569
  655MOL0     C88355  11.708   7.643   9.908  0.0506  0.1854  0.4074
  655MOL0     C88356  10.803   7.819   9.742 -0.7183 -0.5307 -0.2034
  655MOL0     C88357  10.665   7.817   9.763  0.0184 -0.2662 -1.2555
  655MOL0     H88358  10.199   7.731   9.860 -2.8598 -0.3820 -1.3901
  655MOL0     H88359   9.970   7.809   9.899  0.5584 -2.1157 -1.7594
  655MOL0     H88360   9.860   8.258   9.837  2.0099 -0.9057  1.6798
  655MOL0     H88361   9.846   8.151   9.698 -2.0595  1.8085  0.7167
  655MOL0     H88362   9.646   8.172   9.928  3.2918 -0.2049 -0.2491
  655MOL0     H88363   9.633   8.247   9.767 -1.6143 -1.3184 -2.5808
  655MOL0     H88364   9.609   8.015   9.664 -0.1035  1.4957 -0.0337
  655MOL0     H88365   9.636   7.939   9.822  1.9504  0.0680  0.5948
  655MOL0     H88366   9.446   8.054   9.923  2.4937 -0.5291  0.2188
  655MOL0     H88367   9.400   8.134   9.769 -1.9806 -0.9743 -1.3510
  655MOL0     H88368   9.367   7.946   9.652  3.5262  1.3747  0.0180
  655MOL0     H88369   9.439   7.840   9.769 -0.1926 -1.0148  1.8686
  655MOL0     H88370   9.192   8.005   9.840 -2.0697 -0.6353  2.7023
  655MOL0     H88371   9.179   7.849   9.756 -1.7998  2.1734 -0.0277
  655MOL0     H88372   9.258   7.719   9.910 -0.1501  0.2791  1.5418
  655MOL0     H88373   9.352   7.853   9.996  0.8656 -1.7455  0.0271
  655MOL0     H88374   9.152   7.741  10.110 -0.5887  0.2334  1.0247
  655MOL0     H88375   9.050   7.815   9.994  0.3399  2.8675  0.2577
  655MOL0     H88376   9.341   8.047  10.127 -0.0690 -2.3320 -0.4364
  655MOL0     H88377   9.317   8.282  10.224 -0.2503 -2.6310  0.8287
  655MOL0     H88378   9.156   8.365  10.227 -1.1949 -0.5266  0.9161
  655MOL0     H88379   9.122   8.303  10.458  0.5075 -4.2352  1.6447
  655MOL0     H88380   9.280   8.388  10.455  0.1324 -1.0321 -0.3499
  655MOL0     H88381   9.398   8.173  10.477 -0.1319 -1.3130  1.9005
  655MOL0     H88382   9.240   8.088  10.490 -2.2943  0.7836 -0.9985
  655MOL0     H88383   9.319   8.112  10.699 -1.1872 -1.2500 -0.9718
  655MOL0     H88384   9.172   8.211  10.683 -0.5515  1.0209 -2.1068
  655MOL0     H88385   9.533   8.107  10.701 -1.7465  0.7946 -4.1060
  655MOL0     H88386   9.757   8.026  10.707 -1.9718 -0.1000 -2.0629
  655MOL0     H88387   9.866   8.116  10.596  2.7910 -2.7000  1.2492
  655MOL0     H88388   9.886   8.138  10.760  0.5866 -2.2889 -1.6757
  655MOL0     H88389   9.993   8.475  11.000  2.0380 -0.3395  3.0540
  655MOL0     H88390  10.209   8.456  11.127  0.7360  0.5223  0.7119
  655MOL0     H88391  10.564   8.620  10.878 -1.9617 -0.3740 -0.2713
  655MOL0     H88392  10.489   8.701  11.007  0.8898  0.7348  0.4326
  655MOL0     H88393  10.618   8.538  11.160  0.9975 -1.6046 -0.9324
  655MOL0     H88394  10.731   8.531  11.029 -0.7775  0.5326 -2.4991
  655MOL0     H88395  10.635   8.803  11.128 -0.2904 -0.1043 -1.7325
  655MOL0     H88396  10.768   8.777  11.016  0.5570 -2.0960 -0.8344
  655MOL0     H88397  10.775   8.815  11.281 -2.9788 -1.1314  0.1539
  655MOL0     H88398  10.786   8.641  11.280 -3.2831 -1.3560 -2.7530
  655MOL0     H88399  11.027   8.724  11.277 -2.6165 -3.0197  1.8434
  655MOL0     H88400  10.980   8.825  11.141  0.7301  2.0741  3.3431
  655MOL0     H88401  10.980   8.511  11.173 -2.5423 -1.2668 -1.7611
  655MOL0     H88402  10.935   8.594  11.027  0.8619 -0.4936 -0.6284
  655MOL0     H88403  11.164   8.476  11.040  0.5843 -0.9428  1.0773
  655MOL0     H88404  11.199   8.590  11.166 -1.2669 -1.9247 -0.9402
  655MOL0     H88405  11.315   8.686  10.994  0.0261 -0.7607  0.7419
  655MOL0     H88406  11.180   8.790  10.995  1.3330  1.1347  0.7189
  655MOL0     H88407  10.408   8.526  10.738  2.4615 -2.0325  2.5766
  655MOL0     H88408  10.187   8.542  10.620  1.3863  1.2447  0.0800
  655MOL0     H88409   9.716   8.571  10.721 -0.9184  0.5693  2.5490
  655MOL0     H88410   9.460   8.526  10.722  0.0827 -0.0287 -2.0880
  655MOL0     H88411  10.097   8.210   9.831  0.4835  0.0812 -1.1091
  655MOL0     H88412  10.346   8.127   9.802  1.4458 -0.0501 -1.3493
  655MOL0     H88413  10.692   7.862  10.099  2.0584  3.9010 -0.0283
  655MOL0     H88414  10.914   7.903  10.052  0.7146 -0.3385 -1.1555
  655MOL0     H88415  11.128   7.923   9.969  1.6595  0.1011  0.1786
  655MOL0     H88416  11.104   7.749   9.949 -2.5388 -0.0759 -1.8926
  655MOL0     H88417  11.297   7.939   9.786  3.1009 -1.0638  1.3258
  655MOL0     H88418  11.264   7.772   9.731 -1.7708 -1.6295 -0.1096
  655MOL0     H88419  11.384   7.701   9.945  3.2433  0.7198  3.8745
  655MOL0     H88420  11.409   7.863   9.992 -1.1799 -2.4390  0.3671
  655MOL0     H88421  11.557   7.914   9.779  1.4413 -1.2925 -1.6828
  655MOL0     H88422  11.504   7.761   9.716 -0.9028  1.7523 -1.0586
  655MOL0     H88423  11.777   7.567   9.936 -0.0498 -0.3634 -0.7656
  655MOL0     H88424  10.842   7.815   9.640  0.2443 -0.2457  0.1384
  655MOL0     H88425  10.586   7.791   9.692 -0.7688  0.1170 -0.5304
  656MOL0     O88426  10.410   0.404   2.942  0.6441 -0.6686  0.0231
  656MOL0     C88427  10.405   0.334   2.846 -0.6344  0.5051 -0.4545
  656MOL0     O88428  10.303   0.327   2.755 -0.6693 -0.2164 -0.1171
  656MOL0     C88429  10.192   0.412   2.771 -0.4553 -0.8371 -0.0918
  656MOL0     C88430  10.111   0.416   2.884  0.2090 -0.2010 -0.1001
  656MOL0     C88431   9.999   0.503   2.887  0.5464  0.6560 -0.0552
  656MOL0     C88432   9.966   0.579   2.779 -0.8480 -0.2140 -0.0292
  656MOL0     O88433   9.861   0.663   2.770  0.5192  0.9351 -0.4016
  656MOL0     C88434   9.779   0.698   2.884 -0.0054 -0.5391  0.4188
  656MOL0     C88435   9.709   0.830   2.838 -0.8666  0.2093  0.1162
  656MOL0     C88436   9.611   0.812   2.722 -0.3914  0.9302 -0.5912
  656MOL0     C88437   9.507   0.706   2.744 -0.2046 -0.0349 -0.4647
  656MOL0     C88438   9.395   0.694   2.635 -0.7723  0.0611 -0.6069
  656MOL0     C88439   9.280   0.798   2.661  0.5969  0.6663  0.2017
  656MOL0     C88440   9.202   0.762   2.786  0.2041  0.5066 -0.4391
  656MOL0     C88441   9.068   0.844   2.785 -0.3645  0.0130  0.5079
  656MOL0     N88442   8.963   0.780   2.695 -0.1115  1.0379 -0.7548
  656MOL0     C88443   8.906   0.855   2.597 -0.9727  0.6357  0.5875
  656MOL0     C88444   8.852   0.768   2.513 -0.1764 -0.3732  0.6162
  656MOL0     C88445   8.775   0.816   2.395  0.3016 -0.8774  0.4096
  656MOL0     C88446   8.622   0.775   2.395 -0.7350 -0.6548  0.3086
  656MOL0     C88447   8.598   0.630   2.357  0.8275 -0.7095  1.0173
  656MOL0     C88448   8.447   0.583   2.373 -0.7518  0.3195 -0.2061
  656MOL0     O88449   8.355   0.672   2.316 -0.1857  0.4510  0.5977
  656MOL0     C88450   8.312   0.782   2.386 -0.5462 -0.3844 -0.3508
  656MOL0     C88451   8.255   0.889   2.318 -0.1998  1.3555 -0.4252
  656MOL0     C88452   8.228   1.011   2.378 -0.1056 -0.2020 -1.0107
  656MOL0     C88453   8.173   1.116   2.282 -0.0738 -0.0351  0.6759
  656MOL0     C88454   8.237   1.036   2.517 -0.1686  0.0234  0.1360
  656MOL0     C88455   8.233   1.167   2.589  0.2895 -0.1361 -0.5413
  656MOL0     O88456   8.281   1.170   2.720  0.3177 -0.3550  0.9357
  656MOL0     C88457   8.284   1.286   2.787  0.6505 -0.0359 -0.1020
  656MOL0     C88458   8.300   1.418   2.731 -0.2914  0.7794  0.0335
  656MOL0     C88459   8.296   1.522   2.824  0.3238 -0.5801 -0.9440
  656MOL0     C88460   8.254   1.513   2.962  0.0306  0.1535  0.4849
  656MOL0     O88461   8.245   1.615   3.050  0.6550 -0.5910 -0.1049
  656MOL0     C88462   8.264   1.757   3.019 -0.7692 -0.4344 -0.9085
  656MOL0     C88463   8.412   1.799   2.997 -1.1977  0.0173  1.3276
  656MOL0     C88464   8.500   1.783   3.121  0.2021 -0.3798 -0.7894
  656MOL0     C88465   8.460   1.864   3.239  0.3145 -0.3459  0.0514
  656MOL0     C88466   8.575   1.851   3.341  0.2685  0.1525 -0.1378
  656MOL0     C88467   8.532   1.893   3.480 -0.7555 -0.5388 -0.8544
  656MOL0     C88468   8.652   1.914   3.573 -0.4417  0.2416  0.1426
  656MOL0     C88469   8.623   2.020   3.678 -1.1515 -0.9663 -0.9260
  656MOL0    Cl88470   8.487   1.983   3.776 -0.0254 -0.4132 -0.6161
  656MOL0     C88471   8.223   1.387   3.010  0.0923  0.4172 -0.5083
  656MOL0     C88472   8.246   1.267   2.925 -0.7588 -0.6943  1.1376
  656MOL0     O88473   8.173   1.257   2.535  0.8534  0.0030  0.0629
  656MOL0     C88474   8.283   0.918   2.592  1.3008  0.5214  0.4997
  656MOL0     C88475   8.312   0.798   2.529  0.0242  1.1907  0.1119
  656MOL0     N88476   8.869   0.638   2.554  0.8980 -0.5029  0.7080
  656MOL0     N88477   8.937   0.645   2.667 -0.3168 -0.3527  0.3359
  656MOL0     C88478  10.050   0.574   2.663  0.4250  0.1770 -0.9508
  656MOL0     C88479  10.159   0.490   2.658  0.5760  0.1645 -0.2974
  656MOL0     C88480  10.522   0.243   2.839 -0.4878  0.8539  1.1361
  656MOL0     C88481  10.548   0.174   2.719 -0.2498 -0.3288 -0.9072
  656MOL0     C88482  10.655   0.086   2.708  0.1818  0.4466 -0.0042
  656MOL0     C88483  10.748   0.071   2.815  0.0573 -0.2774  0.2768
  656MOL0     O88484  10.852  -0.023   2.809 -0.4208 -0.3422 -0.0111
  656MOL0     C88485  10.921  -0.010   2.682  0.3451  0.5679  0.1538
  656MOL0     C88486  11.080   0.018   2.711  0.0168  0.1299  0.2541
  656MOL0     C88487  11.171  -0.014   2.589  0.5363  0.3660  0.1421
  656MOL0     C88488  11.310   0.000   2.630 -0.7244  0.1541 -0.1872
  656MOL0     C88489  11.363  -0.103   2.720  1.3728 -0.3625  0.1869
  656MOL0     C88490  11.410  -0.196   2.768 -0.9207  0.3145  0.2411
  656MOL0     C88491  10.730   0.142   2.931 -0.2924  0.5974 -0.1056
  656MOL0     C88492  10.623   0.228   2.946 -0.2898 -0.6897  0.7157
  656MOL0     H88493  10.136   0.371   2.980  0.3344  1.0428  0.4635
  656MOL0     H88494   9.953   0.516   2.984 -0.1149 -1.1929 -0.0788
  656MOL0     H88495   9.704   0.623   2.910 -0.0611 -1.0818 -1.1958
  656MOL0     H88496   9.831   0.709   2.980  1.8677  1.9728 -0.7603
  656MOL0     H88497   9.651   0.858   2.926 -1.1513  0.4045 -0.1312
  656MOL0     H88498   9.787   0.903   2.812 -0.2188 -0.0744  1.1675
  656MOL0     H88499   9.559   0.905   2.697 -1.1282  0.4953 -0.7025
  656MOL0     H88500   9.676   0.781   2.640  1.4229  1.3392  0.6294
  656MOL0     H88501   9.556   0.608   2.752 -0.3473 -0.1427 -0.9087
  656MOL0     H88502   9.469   0.725   2.845  1.4267 -3.9597  1.0984
  656MOL0     H88503   9.443   0.711   2.539  2.5113 -1.2106  0.6762
  656MOL0     H88504   9.358   0.592   2.620 -2.7992  0.6662 -0.0677
  656MOL0     H88505   9.335   0.892   2.671 -0.8612  1.3245  3.0215
  656MOL0     H88506   9.214   0.801   2.574 -0.1881  0.3232  0.7764
  656MOL0     H88507   9.179   0.655   2.789 -1.0332  0.7404 -0.9087
  656MOL0     H88508   9.257   0.784   2.878 -2.2254 -1.7987  1.7485
  656MOL0     H88509   9.087   0.950   2.768  0.8829 -0.0886  1.1535
  656MOL0     H88510   9.027   0.832   2.886  0.1863  0.2127  0.7568
  656MOL0     H88511   8.916   0.961   2.577 -3.5456  0.5811 -1.5512
  656MOL0     H88512   8.781   0.924   2.383 -5.6722 -0.1371  1.1246
  656MOL0     H88513   8.820   0.780   2.302 -0.5229 -2.1506  0.4742
  656MOL0     H88514   8.573   0.835   2.317  1.0861  2.1548  1.1788
  656MOL0     H88515   8.579   0.806   2.491  3.6566 -0.2894  2.3626
  656MOL0     H88516   8.660   0.569   2.424  2.3108  2.1151  2.4271
  656MOL0     H88517   8.640   0.611   2.258  1.7864 -1.6603  1.5795
  656MOL0     H88518   8.426   0.566   2.479 -0.8610 -2.7061 -0.6216
  656MOL0     H88519   8.437   0.487   2.322  3.5070  0.6160 -2.0230
  656MOL0     H88520   8.243   0.882   2.210  0.7369  0.0158 -0.4738
  656MOL0     H88521   8.064   1.126   2.284 -0.2813 -1.9726  2.0173
  656MOL0     H88522   8.207   1.219   2.294 -1.2887  0.0242  5.6841
  656MOL0     H88523   8.202   1.086   2.181 -4.1484  1.2262 -1.1144
  656MOL0     H88524   8.318   1.435   2.625 -3.1887  1.1350 -0.4800
  656MOL0     H88525   8.330   1.619   2.790 -1.1688  0.1649 -0.3940
  656MOL0     H88526   8.207   1.784   2.929 -0.6306 -0.8220 -1.1168
  656MOL0     H88527   8.223   1.805   3.108 -3.4468 -3.9292 -0.0167
  656MOL0     H88528   8.447   1.728   2.921 -1.6694  0.6543  0.5003
  656MOL0     H88529   8.424   1.895   2.946 -0.0594 -0.4062  0.7517
  656MOL0     H88530   8.597   1.814   3.081 -0.4687  0.3832 -1.8936
  656MOL0     H88531   8.503   1.681   3.161 -0.8423 -0.6489 -1.3217
  656MOL0     H88532   8.447   1.969   3.211  0.6742 -0.2412  0.2702
  656MOL0     H88533   8.368   1.826   3.282 -0.7233 -0.1301 -1.8494
  656MOL0     H88534   8.661   1.911   3.310  0.9189  0.8265  2.6558
  656MOL0     H88535   8.603   1.746   3.355  0.7611  0.3330  0.2622
  656MOL0     H88536   8.483   1.990   3.462 -0.6317 -0.4097 -0.5007
  656MOL0     H88537   8.460   1.828   3.530 -3.2367  2.2707 -0.4622
  656MOL0     H88538   8.742   1.946   3.519  0.6605  1.9599  2.8078
  656MOL0     H88539   8.679   1.817   3.613  1.9308  1.1728  0.9357
  656MOL0     H88540   8.600   2.119   3.636 -0.6986 -0.3717  0.1997
  656MOL0     H88541   8.707   2.019   3.748 -1.9419  2.0264  0.2303
  656MOL0     H88542   8.191   1.378   3.114 -1.0227  0.7129 -0.8114
  656MOL0     H88543   8.240   1.162   2.953  3.7509 -0.6506  3.1456
  656MOL0     H88544   8.284   0.931   2.699  2.9859  2.1825  0.3512
  656MOL0     H88545   8.357   0.733   2.604 -3.5350  3.1973  4.4114
  656MOL0     H88546  10.012   0.638   2.584  0.1113  1.4094  0.1474
  656MOL0     H88547  10.216   0.485   2.565 -1.3407  1.1001 -1.5824
  656MOL0     H88548  10.473   0.186   2.642 -0.5939 -1.8962 -0.8494
  656MOL0     H88549  10.668   0.028   2.618 -1.1048 -0.3727  0.3130
  656MOL0     H88550  10.914  -0.107   2.631 -2.2748  0.6362  0.2677
  656MOL0     H88551  10.886   0.068   2.614  1.4908  2.7522  1.9329
  656MOL0     H88552  11.110  -0.038   2.800  0.9166 -0.3460 -0.3261
  656MOL0     H88553  11.092   0.124   2.732  0.7539 -0.3095  2.2914
  656MOL0     H88554  11.140   0.051   2.506 -1.5857 -2.0003 -1.0514
  656MOL0     H88555  11.153  -0.119   2.564 -2.0714  0.8036 -0.1006
  656MOL0     H88556  11.337   0.098   2.671  0.9388 -0.6810  0.7789
  656MOL0     H88557  11.382  -0.016   2.550  2.0634  1.9634  1.7562
  656MOL0     H88558  11.458  -0.275   2.823  0.5895 -0.2964 -1.8426
  656MOL0     H88559  10.805   0.116   3.005  1.2121  0.4441 -1.6216
  656MOL0     H88560  10.615   0.270   3.045  1.0449 -3.1192  1.9521
  657MOL0     O88561   6.285   2.010   9.260  0.5504 -0.6532 -0.2806
  657MOL0     C88562   6.366   2.085   9.221 -0.7548 -0.7206  0.0430
  657MOL0     O88563   6.374   2.217   9.266  0.6823 -0.2496  0.0315
  657MOL0     C88564   6.270   2.259   9.349  0.0187 -1.0501  0.4778
  657MOL0     C88565   6.154   2.300   9.286 -0.2732  0.4679  0.0089
  657MOL0     C88566   6.053   2.350   9.362  0.7252  1.5082 -0.6584
  657MOL0     C88567   6.064   2.366   9.503 -0.2529 -0.1290  0.1063
  657MOL0     O88568   5.975   2.430   9.578 -0.3856  0.1135  0.0437
  657MOL0     C88569   5.834   2.421   9.543  0.4479 -1.0532 -0.0455
  657MOL0     C88570   5.744   2.452   9.674 -0.1043  0.0288 -0.0663
  657MOL0     C88571   5.600   2.471   9.635  1.3473  0.5612 -0.2552
  657MOL0     C88572   5.518   2.502   9.768 -0.1222 -0.2803  0.4542
  657MOL0     C88573   5.372   2.454   9.742  0.1246  0.7659 -0.6846
  657MOL0     C88574   5.263   2.555   9.762  0.3094  0.0999  1.4375
  657MOL0     C88575   5.134   2.516   9.687 -0.1349  0.6724 -0.4633
  657MOL0     C88576   5.050   2.404   9.751  0.2780  0.0586  0.1525
  657MOL0     N88577   4.975   2.435   9.878  0.2724 -0.2818  0.1161
  657MOL0     C88578   4.975   2.551   9.953  0.9273 -0.1371  0.1657
  657MOL0     C88579   4.880   2.527  10.055 -0.1133 -1.1914  0.1244
  657MOL0     C88580   4.856   2.619  10.171 -0.1197 -0.3885 -0.6233
  657MOL0     C88581   4.703   2.653  10.190  0.6733 -0.0989 -0.3005
  657MOL0     C88582   4.648   2.754  10.076  0.1041  0.1097 -0.2820
  657MOL0     C88583   4.494   2.751  10.056  0.9807  0.4986  0.1815
  657MOL0     O88584   4.440   2.848   9.970  0.3320 -0.2231  0.8751
  657MOL0     C88585   4.306   2.847   9.944 -0.1476  0.8805  1.3029
  657MOL0     C88586   4.211   2.815  10.047 -0.4110  0.6654 -0.0236
  657MOL0     C88587   4.075   2.841  10.014 -0.2022  0.3089  0.6645
  657MOL0     C88588   3.978   2.823  10.125 -0.3204  0.3218 -0.3205
  657MOL0     C88589   4.039   2.897   9.892 -0.1198 -0.6374  0.3664
  657MOL0     C88590   3.900   2.946   9.871 -0.0076  0.0934  0.1976
  657MOL0     O88591   3.809   2.861   9.822 -0.0598  0.4369 -0.1758
  657MOL0     C88592   3.685   2.906   9.785 -0.2103 -0.2140  0.1412
  657MOL0     C88593   3.634   2.877   9.651 -0.7358  0.3366  0.0451
  657MOL0     C88594   3.510   2.920   9.613 -1.4857 -0.1834 -0.1298
  657MOL0     C88595   3.422   2.993   9.696 -0.2557  0.2655 -0.2031
  657MOL0     O88596   3.302   3.050   9.661 -0.5754 -0.1108 -0.4374
  657MOL0     C88597   3.249   3.009   9.535  0.6209  0.0115  0.1430
  657MOL0     C88598   3.094   3.029   9.533 -0.5797  0.1117  0.3792
  657MOL0     C88599   3.033   3.047   9.391 -0.1035  0.2750  0.1540
  657MOL0     C88600   2.886   3.070   9.424 -0.1419 -0.1185 -0.2267
  657MOL0     C88601   2.799   3.048   9.299  0.4714  0.2099  0.5625
  657MOL0     C88602   2.657   3.111   9.308 -0.0075  0.6593  0.6145
  657MOL0     C88603   2.584   3.123   9.176  0.9162  0.0723 -0.1192
  657MOL0     C88604   2.448   3.204   9.190  0.4660  0.3690  1.1952
  657MOL0    Cl88605   2.315   3.111   9.107  0.0667  0.4413  0.6581
  657MOL0     C88606   3.462   3.000   9.825 -0.3961 -0.0147  0.1701
  657MOL0     C88607   3.593   2.963   9.871 -0.5734 -0.3569 -0.0600
  657MOL0     O88608   3.875   3.063   9.910 -0.0984  0.1187  0.5796
  657MOL0     C88609   4.136   2.912   9.793 -0.3697 -0.8992 -0.1421
  657MOL0     C88610   4.272   2.889   9.812 -0.8898 -0.6928 -0.4659
  657MOL0     N88611   4.838   2.397  10.038  0.4391 -1.0930  0.3690
  657MOL0     N88612   4.884   2.349   9.925 -0.4840  0.0371  0.6430
  657MOL0     C88613   6.188   2.340   9.563 -0.3176  0.0852  0.5028
  657MOL0     C88614   6.291   2.289   9.487  0.4232 -0.6489 -0.4840
  657MOL0     C88615   6.471   2.041   9.125  0.3462  0.8739 -0.2799
  657MOL0     C88616   6.489   1.908   9.090  0.5318  0.4118  0.2545
  657MOL0     C88617   6.576   1.866   8.993  0.5479 -1.0585 -0.0856
  657MOL0     C88618   6.660   1.960   8.933 -0.6196 -0.2339 -0.1705
  657MOL0     O88619   6.745   1.937   8.827  0.3079  0.5567 -0.1468
  657MOL0     C88620   6.864   1.868   8.873 -0.0506 -1.1177  1.1228
  657MOL0     C88621   6.998   1.942   8.844 -0.0902  0.0260 -0.3190
  657MOL0     C88622   7.010   2.070   8.915  0.5139 -0.2572  0.7595
  657MOL0     C88623   7.160   2.100   8.939 -0.7588  0.6495 -0.4249
  657MOL0     C88624   7.243   2.117   8.823 -1.0067 -0.2390  1.3137
  657MOL0     C88625   7.327   2.131   8.732  0.2954 -0.7653 -0.3646
  657MOL0     C88626   6.644   2.091   8.970 -0.0245  0.6459 -0.0246
  657MOL0     C88627   6.550   2.134   9.060 -0.1251  0.0551 -0.7344
  657MOL0     H88628   6.149   2.297   9.178 -0.1423 -1.3218  0.0178
  657MOL0     H88629   5.957   2.368   9.315 -0.0539 -3.2420 -1.3783
  657MOL0     H88630   5.803   2.488   9.463 -1.1544 -3.0651 -1.2313
  657MOL0     H88631   5.805   2.324   9.500  1.9371 -1.4973 -0.1326
  657MOL0     H88632   5.767   2.369   9.741  1.4053  1.2590  1.0364
  657MOL0     H88633   5.780   2.539   9.731 -1.2262  0.0058  0.7180
  657MOL0     H88634   5.590   2.549   9.559  4.6466  1.3199 -0.0797
  657MOL0     H88635   5.566   2.374   9.597  0.2902  1.5031 -1.8288
  657MOL0     H88636   5.559   2.437   9.846  1.6547  0.8322  0.5007
  657MOL0     H88637   5.509   2.603   9.808  2.7788 -0.1647  1.0168
  657MOL0     H88638   5.359   2.424   9.638  0.2163  0.1405 -0.5218
  657MOL0     H88639   5.344   2.361   9.792 -1.8807  1.4895 -0.3812
  657MOL0     H88640   5.255   2.554   9.871  1.2263  1.0425  1.5230
  657MOL0     H88641   5.293   2.652   9.722  3.0753 -0.9603  0.6808
  657MOL0     H88642   5.068   2.603   9.683 -2.6004 -0.9265  1.8986
  657MOL0     H88643   5.152   2.492   9.582 -2.8905  0.0633 -0.8880
  657MOL0     H88644   5.110   2.313   9.765 -0.0364 -0.1459  0.1940
  657MOL0     H88645   4.967   2.377   9.685 -1.4148  2.2532  1.2422
  657MOL0     H88646   5.047   2.632   9.960 -0.9127  1.4438  1.9828
  657MOL0     H88647   4.899   2.580  10.263  1.0573  1.5925 -0.2611
  657MOL0     H88648   4.905   2.715  10.150  0.0172 -0.1850  0.5723
  657MOL0     H88649   4.693   2.704  10.286  3.0278  0.7151 -0.4286
  657MOL0     H88650   4.644   2.562  10.202  0.9259 -0.3977 -1.2294
  657MOL0     H88651   4.679   2.716   9.978  0.1760  1.2264 -0.6996
  657MOL0     H88652   4.678   2.859  10.083 -1.7606  0.7217 -0.9039
  657MOL0     H88653   4.461   2.768  10.158  2.3164 -1.9612  1.1294
  657MOL0     H88654   4.468   2.649  10.024 -2.3493  1.0568  0.8226
  657MOL0     H88655   4.250   2.772  10.139  0.8108 -0.2445 -0.9450
  657MOL0     H88656   3.974   2.908  10.195  0.2211 -2.2315  3.1121
  657MOL0     H88657   3.883   2.786  10.085 -0.2482 -1.5101  1.0611
  657MOL0     H88658   4.004   2.739  10.190  0.2912 -0.2698 -1.3101
  657MOL0     H88659   3.694   2.833   9.572  1.3703  3.9516 -0.5728
  657MOL0     H88660   3.469   2.912   9.513  2.1044 -0.2063 -1.7352
  657MOL0     H88661   3.294   3.080   9.464 -2.0573  0.3740 -1.3305
  657MOL0     H88662   3.263   2.906   9.501  1.1038 -1.3953  4.1099
  657MOL0     H88663   3.051   2.940   9.580  1.0265 -0.9075 -0.0359
  657MOL0     H88664   3.067   3.115   9.595  0.0301  1.2093 -0.8144
  657MOL0     H88665   3.048   2.950   9.342  0.3033  0.8814 -0.9677
  657MOL0     H88666   3.082   3.133   9.346  0.7930 -0.4346 -0.2602
  657MOL0     H88667   2.848   3.004   9.503  1.6222 -1.7400 -0.6724
  657MOL0     H88668   2.865   3.169   9.466 -2.0875 -1.1396  1.3977
  657MOL0     H88669   2.787   2.941   9.280  0.8459  0.0820  1.0285
  657MOL0     H88670   2.843   3.091   9.208 -1.7770 -0.0569 -0.7284
  657MOL0     H88671   2.590   3.062   9.379  0.0799  3.0379  2.4455
  657MOL0     H88672   2.671   3.213   9.344  0.9939  0.3719  1.0896
  657MOL0     H88673   2.569   3.026   9.127  1.4716 -0.2335  0.2994
  657MOL0     H88674   2.651   3.178   9.109  1.1928 -0.5735 -0.3873
  657MOL0     H88675   2.460   3.301   9.141  1.0020 -0.9227 -1.4032
  657MOL0     H88676   2.414   3.228   9.291  2.3267  0.1922  1.9077
  657MOL0     H88677   3.405   3.050   9.902  0.9217 -1.7048  2.3362
  657MOL0     H88678   3.632   2.978   9.972  0.1292 -2.5369  0.0414
  657MOL0     H88679   4.089   2.940   9.699 -3.1835  0.4928  1.5398
  657MOL0     H88680   4.346   2.924   9.741 -0.4655  0.9111  0.6944
  657MOL0     H88681   6.207   2.344   9.670 -1.7856  3.4010  0.7491
  657MOL0     H88682   6.386   2.271   9.536 -1.0956  2.2049  4.0975
  657MOL0     H88683   6.417   1.831   9.117 -0.7121  1.0588 -1.0520
  657MOL0     H88684   6.559   1.765   8.955 -0.4985 -1.1348  0.5341
  657MOL0     H88685   6.868   1.843   8.979  3.3280  0.5661  1.5452
  657MOL0     H88686   6.865   1.776   8.814  1.2896  0.9118 -2.3391
  657MOL0     H88687   7.011   1.960   8.737 -2.5308 -1.6366 -0.9811
  657MOL0     H88688   7.074   1.873   8.883 -0.8473 -1.4733 -1.3847
  657MOL0     H88689   6.964   2.055   9.012  1.7168 -0.7224  1.2809
  657MOL0     H88690   6.958   2.150   8.861  0.7002 -0.9826 -0.5444
  657MOL0     H88691   7.199   2.019   9.001 -1.5748  0.2576 -0.4181
  657MOL0     H88692   7.161   2.185   9.008 -1.4297  2.2321 -2.2740
  657MOL0     H88693   7.397   2.136   8.651  0.0721 -1.8423 -0.6460
  657MOL0     H88694   6.714   2.164   8.931 -1.0413  2.3506  1.2127
  657MOL0     H88695   6.549   2.239   9.086 -1.2438  0.1712 -1.1678
  658MOL0     O88696   6.205   4.352   6.489 -0.2275  0.1219  0.4018
  658MOL0     C88697   6.312   4.411   6.494  0.1296 -0.6783 -0.3701
  658MOL0     O88698   6.335   4.522   6.561  0.1097  0.6594 -0.4977
  658MOL0     C88699   6.234   4.579   6.637 -0.2611 -0.1198 -1.3100
  658MOL0     C88700   6.261   4.633   6.763 -0.8761  0.5128 -0.1209
  658MOL0     C88701   6.175   4.725   6.823  0.3069 -0.4600 -0.0267
  658MOL0     C88702   6.046   4.744   6.769 -1.7348  0.2013  0.4038
  658MOL0     O88703   5.961   4.827   6.830  0.8456  0.2201 -0.2060
  658MOL0     C88704   5.983   4.892   6.964 -0.4399  0.6424  0.1855
  658MOL0     C88705   5.875   4.995   6.997  0.5327  0.1182  0.6074
  658MOL0     C88706   5.826   5.078   6.885 -0.6816 -0.4440 -0.1900
  658MOL0     C88707   5.743   5.199   6.941  0.7282  0.9285 -0.0147
  658MOL0     C88708   5.593   5.160   6.947 -0.0291  0.1653  0.2545
  658MOL0     C88709   5.502   5.276   6.975 -0.7809 -0.4094  0.2313
  658MOL0     C88710   5.359   5.226   7.005  0.5792  0.5359 -0.1576
  658MOL0     C88711   5.298   5.158   6.884 -0.8908  0.0438 -0.9404
  658MOL0     N88712   5.158   5.151   6.926  0.7082  0.0233 -0.5988
  658MOL0     C88713   5.056   5.170   6.836  0.0508  0.4612  0.1270
  658MOL0     C88714   4.949   5.119   6.896  1.1851  0.0773 -0.1025
  658MOL0     C88715   4.809   5.116   6.841 -0.2446  0.1429 -0.7735
  658MOL0     C88716   4.754   4.976   6.829  0.0526 -0.3741 -0.4822
  658MOL0     C88717   4.609   4.964   6.801 -0.2976 -0.3090  0.9608
  658MOL0     C88718   4.529   4.994   6.920 -0.2203 -0.1186 -0.4897
  658MOL0     O88719   4.401   4.962   6.876  0.6395  0.3858 -0.1929
  658MOL0     C88720   4.291   4.955   6.961 -0.1300  0.2373  0.8603
  658MOL0     C88721   4.291   5.015   7.088  0.2487  0.8499  0.5934
  658MOL0     C88722   4.190   4.987   7.176  0.1096  0.4927  0.1697
  658MOL0     C88723   4.208   5.068   7.301 -0.1550  0.2924 -0.5835
  658MOL0     C88724   4.078   4.906   7.137  0.0872 -0.2014  0.3325
  658MOL0     C88725   3.967   4.868   7.218 -0.1207  0.3547 -0.2547
  658MOL0     O88726   3.906   4.752   7.182  0.7210  0.1796 -0.8960
  658MOL0     C88727   3.769   4.726   7.220 -0.5123 -0.1128 -0.0539
  658MOL0     C88728   3.736   4.596   7.267  0.6014 -0.7684  0.1316
  658MOL0     C88729   3.604   4.551   7.283 -0.4034 -0.5893  0.5577
  658MOL0     C88730   3.493   4.642   7.272 -0.8177 -1.2015  0.4724
  658MOL0     O88731   3.367   4.590   7.295 -0.0515 -1.0227  0.4268
  658MOL0     C88732   3.255   4.669   7.320  0.2721 -0.0396 -0.6097
  658MOL0     C88733   3.127   4.593   7.313  0.0237  0.4277  0.1276
  658MOL0     C88734   2.999   4.669   7.363 -0.0933  0.1061  0.0493
  658MOL0     C88735   2.888   4.575   7.342 -0.1294  0.5550  0.8536
  658MOL0     C88736   2.756   4.646   7.310 -0.8626 -0.1457  0.2664
  658MOL0     C88737   2.648   4.539   7.313 -0.0027  0.1663  0.9395
  658MOL0     C88738   2.503   4.593   7.296  0.9057  0.2455  0.4471
  658MOL0     C88739   2.490   4.659   7.163 -0.6418 -0.8990  0.8857
  658MOL0    Cl88740   2.325   4.708   7.138  0.3027  0.0285  0.0973
  658MOL0     C88741   3.523   4.778   7.227 -0.6758  0.6916  0.0318
  658MOL0     C88742   3.661   4.815   7.201 -0.0025  0.1556  0.4029
  658MOL0     O88743   3.930   4.935   7.314  0.1038  0.2026  0.3606
  658MOL0     C88744   4.079   4.860   7.003 -0.0626 -0.1606 -0.3005
  658MOL0     C88745   4.175   4.893   6.918  0.4435  0.8684 -0.0341
  658MOL0     N88746   4.984   5.083   7.025  0.1614 -0.2204 -0.5323
  658MOL0     N88747   5.108   5.094   7.038  0.6941  1.0118 -0.2179
  658MOL0     C88748   6.013   4.685   6.648  0.2272  0.3891  0.5946
  658MOL0     C88749   6.110   4.609   6.584 -0.0048  0.2193 -0.2601
  658MOL0     C88750   6.421   4.354   6.414  0.3447 -0.5593  0.3858
  658MOL0     C88751   6.396   4.268   6.305  0.1769 -0.1880 -0.1083
  658MOL0     C88752   6.496   4.201   6.230  0.3590  0.2040 -0.4459
  658MOL0     C88753   6.634   4.226   6.268 -0.2839  0.1750 -1.1896
  658MOL0     O88754   6.735   4.159   6.203 -0.4186 -0.0065  0.3237
  658MOL0     C88755   6.811   4.242   6.117 -0.4675 -0.5568 -0.5258
  658MOL0     C88756   6.852   4.167   5.992 -0.1126 -0.3529 -0.4718
  658MOL0     C88757   6.739   4.153   5.893  0.5770  0.3970 -0.1154
  658MOL0     C88758   6.791   4.090   5.762 -0.1756  0.6313 -0.5880
  658MOL0     C88759   6.681   4.059   5.672  0.0822  0.4934  1.1790
  658MOL0     C88760   6.602   4.042   5.583  0.7798  0.1107 -0.1650
  658MOL0     C88761   6.656   4.334   6.364  0.6967 -0.3009  0.0110
  658MOL0     C88762   6.550   4.387   6.442  0.6286 -0.6347 -0.4443
  658MOL0     H88763   6.356   4.635   6.816 -0.3944  1.6458 -0.9767
  658MOL0     H88764   6.193   4.769   6.920 -0.3399 -0.0024 -0.1085
  658MOL0     H88765   5.991   4.821   7.046 -1.9523 -0.2102 -0.3765
  658MOL0     H88766   6.080   4.943   6.956  0.9932 -1.6363  1.9226
  658MOL0     H88767   5.792   4.943   7.048  0.2891  1.0520  1.1808
  658MOL0     H88768   5.918   5.059   7.074 -1.1506  1.9731  0.0766
  658MOL0     H88769   5.918   5.102   6.831  0.1546 -0.7182  1.0790
  658MOL0     H88770   5.768   5.020   6.812  0.5083  0.1851 -1.6861
  658MOL0     H88771   5.777   5.215   7.044 -1.7368  2.2144  0.6915
  658MOL0     H88772   5.763   5.292   6.886 -1.6906  0.9613 -0.9586
  658MOL0     H88773   5.564   5.111   6.854  3.3963 -1.6610 -0.0352
  658MOL0     H88774   5.583   5.082   7.022 -0.2014 -0.6096 -0.5599
  658MOL0     H88775   5.526   5.322   7.071 -3.2160 -0.7010  1.0433
  658MOL0     H88776   5.515   5.343   6.889  3.0857 -1.1316  0.0729
  658MOL0     H88777   5.358   5.174   7.101  2.3864  0.2236 -0.2662
  658MOL0     H88778   5.302   5.318   7.018 -1.7488 -0.9752  1.0582
  658MOL0     H88779   5.346   5.062   6.864  3.5705  1.8818 -0.1959
  658MOL0     H88780   5.291   5.219   6.793 -1.8590  1.6117  0.1328
  658MOL0     H88781   5.063   5.178   6.728  0.4843  1.2388  0.2003
  658MOL0     H88782   4.751   5.178   6.909  1.2117 -0.5718  1.2229
  658MOL0     H88783   4.814   5.163   6.742  1.3337  0.7356 -0.4417
  658MOL0     H88784   4.774   4.917   6.919  0.1577  2.3467  1.3858
  658MOL0     H88785   4.803   4.933   6.741 -0.2459  0.6908 -1.1883
  658MOL0     H88786   4.578   4.870   6.753 -0.9274 -0.1275  1.0026
  658MOL0     H88787   4.586   5.048   6.735 -2.0887 -1.0208  0.6176
  658MOL0     H88788   4.536   5.100   6.943 -0.8486 -0.1914  0.0472
  658MOL0     H88789   4.553   4.938   7.011  1.2111 -1.0701 -1.4022
  658MOL0     H88790   4.379   5.074   7.112  1.0349  0.0896 -0.3475
  658MOL0     H88791   4.229   4.996   7.381  1.1285  0.0621 -1.0934
  658MOL0     H88792   4.299   5.129   7.294  0.0848  0.4081  2.3729
  658MOL0     H88793   4.119   5.119   7.338 -0.5687 -1.7376  1.4186
  658MOL0     H88794   3.825   4.536   7.287  1.1537 -0.0482 -0.0854
  658MOL0     H88795   3.592   4.449   7.317  1.3974 -1.3833 -0.9780
  658MOL0     H88796   3.269   4.722   7.415  0.9791  0.7562 -1.1339
  658MOL0     H88797   3.248   4.756   7.254  1.5645  1.6646  1.3430
  658MOL0     H88798   3.112   4.560   7.210  0.7253  0.4994 -0.0027
  658MOL0     H88799   3.135   4.498   7.367 -0.3277  0.9329  1.1013
  658MOL0     H88800   2.994   4.764   7.310  1.2649 -0.5829 -1.4012
  658MOL0     H88801   3.002   4.677   7.472 -0.0631 -1.4126  0.1840
  658MOL0     H88802   2.919   4.509   7.260 -0.0769  1.4948  0.1026
  658MOL0     H88803   2.882   4.510   7.430 -1.5000 -1.6113 -0.7304
  658MOL0     H88804   2.765   4.694   7.212 -2.9353 -2.2479 -1.0335
  658MOL0     H88805   2.741   4.728   7.381  2.6464  0.7657  0.1874
  658MOL0     H88806   2.667   4.466   7.234  0.3995  1.2440  0.0133
  658MOL0     H88807   2.649   4.479   7.404  0.5283 -0.7205  0.3602
  658MOL0     H88808   2.472   4.660   7.376 -2.1420 -0.4950  0.0326
  658MOL0     H88809   2.431   4.511   7.289 -1.1607  1.5841  3.5182
  658MOL0     H88810   2.510   4.587   7.083  1.3330  0.1492  0.3546
  658MOL0     H88811   2.554   4.748   7.161 -3.8860  2.0081 -5.6659
  658MOL0     H88812   3.444   4.852   7.218 -2.8357 -1.4440  0.4624
  658MOL0     H88813   3.687   4.914   7.167 -0.1511  0.6859  1.7644
  658MOL0     H88814   3.988   4.830   6.951 -1.5144  0.9340  1.4775
  658MOL0     H88815   4.180   4.860   6.815  3.7860  1.0303 -0.0573
  658MOL0     H88816   5.921   4.705   6.595 -0.2517 -0.9225  0.9066
  658MOL0     H88817   6.089   4.573   6.483 -1.6098 -1.5846  0.6517
  658MOL0     H88818   6.292   4.255   6.277  0.1003 -0.8076  0.4374
  658MOL0     H88819   6.466   4.135   6.149  1.9422 -1.5115  0.2750
  658MOL0     H88820   6.773   4.344   6.103  0.6429  0.5143  3.0889
  658MOL0     H88821   6.910   4.262   6.160  0.3538  2.4778 -3.3587
  658MOL0     H88822   6.900   4.074   6.025  0.8507  0.1038 -0.5495
  658MOL0     H88823   6.925   4.227   5.936 -0.9243  3.4711  2.1529
  658MOL0     H88824   6.676   4.240   5.873 -1.9304 -0.9715  1.2501
  658MOL0     H88825   6.672   4.081   5.941 -0.1153  1.1062  0.0197
  658MOL0     H88826   6.870   4.016   5.776 -1.5341 -0.6482  0.5857
  658MOL0     H88827   6.863   4.152   5.707 -0.6778  0.4633 -1.4523
  658MOL0     H88828   6.533   4.026   5.502  0.5287 -2.0438  0.4142
  658MOL0     H88829   6.758   4.353   6.394  0.0117  2.9997  0.6839
  658MOL0     H88830   6.568   4.436   6.537 -0.8477 -3.9025  1.7065
  659MOL0     O88831   4.312  10.222  10.793 -0.1256  0.8105 -0.1839
  659MOL0     C88832   4.297  10.100  10.802  0.3669 -0.3173  0.5579
  659MOL0     O88833   4.178  10.030  10.769  0.7880  0.0621  0.8097
  659MOL0     C88834   4.058  10.093  10.765 -0.0089  0.9842 -0.3007
  659MOL0     C88835   3.949  10.040  10.690 -0.9877  0.3003 -0.1910
  659MOL0     C88836   3.825  10.108  10.674 -0.4140  0.9905 -0.2559
  659MOL0     C88837   3.806  10.224  10.747 -1.7611  0.1036 -0.1094
  659MOL0     O88838   3.694  10.297  10.751 -0.2307  0.7129 -0.4514
  659MOL0     C88839   3.613  10.310  10.631 -0.1691  0.8693 -0.3073
  659MOL0     C88840   3.485  10.241  10.674  1.1101  0.1738  0.0674
  659MOL0     C88841   3.371  10.262  10.573 -0.2424  0.7414  0.0145
  659MOL0     C88842   3.237  10.246  10.641 -0.1045 -0.6624  0.1785
  659MOL0     C88843   3.124  10.242  10.536 -1.0906  0.2925 -0.3273
  659MOL0     C88844   3.002  10.177  10.586 -0.2647  0.2658 -0.3277
  659MOL0     C88845   2.902  10.171  10.462 -1.0063 -0.4081 -1.0699
  659MOL0     C88846   2.801  10.290  10.443 -0.0065 -0.0105  0.3000
  659MOL0     N88847   2.717  10.313  10.562  0.0986 -0.6316 -0.4656
  659MOL0     C88848   2.591  10.266  10.581 -0.0196 -0.5852  0.7911
  659MOL0     C88849   2.549  10.340  10.685  0.5666  0.9299 -0.3090
  659MOL0     C88850   2.427  10.315  10.766 -0.7004  0.2528  1.0744
  659MOL0     C88851   2.451  10.260  10.912  0.7679 -0.0267 -0.4525
  659MOL0     C88852   2.542  10.140  10.939  0.5319  0.2347  0.0274
  659MOL0     C88853   2.522  10.079  11.081  0.3276 -0.3484 -0.1322
  659MOL0     O88854   2.512  10.178  11.188  0.6960 -0.8634 -0.8300
  659MOL0     C88855   2.402  10.176  11.279  0.5094  0.3975  1.0071
  659MOL0     C88856   2.436  10.196  11.413  0.1161 -1.0406  0.1449
  659MOL0     C88857   2.338  10.206  11.512  1.0591 -1.3908  0.3453
  659MOL0     C88858   2.371  10.243  11.652  0.1685 -0.0839 -0.4006
  659MOL0     C88859   2.199  10.204  11.472  0.4569  0.6002 -0.1973
  659MOL0     C88860   2.081  10.233  11.563 -1.0263  0.4120 -0.1501
  659MOL0     O88861   1.987  10.316  11.512 -0.7178 -0.3571 -0.8870
  659MOL0     C88862   1.860  10.312  11.563 -0.3827 -0.1843 -0.3432
  659MOL0     C88863   1.822  10.391  11.674  0.3372 -0.0754  0.0802
  659MOL0     C88864   1.697  10.376  11.730 -0.1527 -0.2192 -0.2204
  659MOL0     C88865   1.599  10.293  11.674  0.1163 -0.6003 -0.0526
  659MOL0     O88866   1.468  10.276  11.714  0.1045  0.7152  0.5209
  659MOL0     C88867   1.424  10.359  11.827  0.2579  0.5068  0.3486
  659MOL0     C88868   1.287  10.317  11.881 -0.1671  0.5370 -0.1289
  659MOL0     C88869   1.173  10.325  11.777  0.9861  0.1640  0.6638
  659MOL0     C88870   1.032  10.321  11.833 -0.3713  0.5294  0.6660
  659MOL0     C88871   0.922  10.284  11.730 -0.3446 -0.1578  0.7162
  659MOL0     C88872   0.779  10.282  11.784  0.3987  0.2666 -0.2512
  659MOL0     C88873   0.681  10.208  11.688 -0.2378  0.2318 -0.2324
  659MOL0     C88874   0.547  10.168  11.754  0.3736 -0.0158 -0.2019
  659MOL0    Cl88875   0.557  10.038  11.880  0.3159  0.2102 -0.1418
  659MOL0     C88876   1.635  10.211  11.572  0.3856  0.5351  0.1499
  659MOL0     C88877   1.768  10.221  11.519 -1.1207 -0.5789  0.5281
  659MOL0     O88878   2.070  10.176  11.666  0.6559 -0.3607  0.5536
  659MOL0     C88879   2.171  10.174  11.338 -0.4578 -0.2891  0.3587
  659MOL0     C88880   2.271  10.160  11.241 -0.3178 -0.0285  0.2406
  659MOL0     N88881   2.655  10.414  10.733 -0.1591 -0.3814  0.3529
  659MOL0     N88882   2.758  10.396  10.660 -0.7480 -0.1695  0.0659
  659MOL0     C88883   3.907  10.280  10.825  0.0184  0.5268 -0.3397
  659MOL0     C88884   4.028  10.206  10.847  1.0514 -0.8974 -0.6624
  659MOL0     C88885   4.420  10.029  10.834  0.9063 -0.4596  0.4841
  659MOL0     C88886   4.432   9.888  10.811 -1.2711  0.7099  0.5593
  659MOL0     C88887   4.554   9.829  10.861 -0.7766  0.2483  0.4681
  659MOL0     C88888   4.655   9.903  10.927 -0.0159  0.2907 -0.3875
  659MOL0     O88889   4.775   9.852  10.972 -0.6614 -0.0476 -0.2483
  659MOL0     C88890   4.794   9.713  10.942 -0.2879 -0.5487 -0.2887
  659MOL0     C88891   4.941   9.670  10.969 -0.8295  0.2669  0.1711
  659MOL0     C88892   5.040   9.746  10.877  0.3569 -0.1465 -0.5529
  659MOL0     C88893   5.192   9.702  10.876  0.7778 -0.9372  0.4018
  659MOL0     C88894   5.258   9.699  11.006  0.6325  0.1627  0.4047
  659MOL0     C88895   5.312   9.671  11.114  0.1614 -0.0254  0.3958
  659MOL0     C88896   4.632  10.035  10.957  0.4767 -0.9038  0.0414
  659MOL0     C88897   4.514  10.095  10.913  0.0938  0.5730 -0.5722
  659MOL0     H88898   3.966   9.951  10.630  0.2707 -0.7065  1.5296
  659MOL0     H88899   3.751  10.066  10.607  0.7019  1.5833 -1.9274
  659MOL0     H88900   3.585  10.415  10.619  0.5982  1.1561  0.3308
  659MOL0     H88901   3.653  10.265  10.539  1.2356 -0.7278  1.0314
  659MOL0     H88902   3.497  10.133  10.692 -1.4494 -0.3391 -0.8910
  659MOL0     H88903   3.449  10.279  10.770 -0.4234  3.0121 -1.5227
  659MOL0     H88904   3.383  10.360  10.526  1.4978  0.1299 -0.9228
  659MOL0     H88905   3.376  10.184  10.496 -1.1908 -1.2705  1.8775
  659MOL0     H88906   3.241  10.151  10.694  2.5132 -0.2391  0.8889
  659MOL0     H88907   3.219  10.327  10.713  1.0895 -0.5784  0.3979
  659MOL0     H88908   3.093  10.342  10.504  0.0675  1.6843  2.5591
  659MOL0     H88909   3.162  10.194  10.445  1.7781  0.7093  0.5539
  659MOL0     H88910   3.009  10.074  10.622 -3.7650  0.4613  1.3161
  659MOL0     H88911   2.961  10.231  10.672 -0.7176 -2.0406  0.9933
  659MOL0     H88912   2.958  10.139  10.374  0.1577  0.8681 -0.8241
  659MOL0     H88913   2.836  10.086  10.481  0.1521 -1.4450 -1.5460
  659MOL0     H88914   2.746  10.271  10.350 -0.2092 -0.5733  0.5302
  659MOL0     H88915   2.847  10.389  10.435  0.0235 -0.0905 -0.6489
  659MOL0     H88916   2.543  10.182  10.533  1.1579  0.9312 -3.5562
  659MOL0     H88917   2.373  10.410  10.765 -1.6413 -0.1088 -3.2717
  659MOL0     H88918   2.362  10.244  10.714 -0.4255 -2.3179  3.9929
  659MOL0     H88919   2.349  10.238  10.942  0.8658 -1.6304 -1.1783
  659MOL0     H88920   2.488  10.334  10.984  0.0521 -0.9629  0.9032
  659MOL0     H88921   2.647  10.167  10.928  0.5481 -0.5400 -2.3421
  659MOL0     H88922   2.525  10.060  10.866  0.9582 -4.3294  4.3758
  659MOL0     H88923   2.598  10.003  11.101 -2.7683 -3.8977 -0.6728
  659MOL0     H88924   2.427  10.025  11.079 -0.2142  0.5891 -0.7749
  659MOL0     H88925   2.537  10.222  11.443  1.1953 -2.1743 -2.2506
  659MOL0     H88926   2.374  10.146  11.704 -1.1636 -1.6018 -2.9560
  659MOL0     H88927   2.475  10.277  11.649 -0.2250  1.1411 -0.7411
  659MOL0     H88928   2.300  10.315  11.693 -0.4777  1.1318 -3.4525
  659MOL0     H88929   1.893  10.463  11.715 -0.7723  0.2579  1.5001
  659MOL0     H88930   1.665  10.444  11.809  1.4493 -1.0625  1.2284
  659MOL0     H88931   1.486  10.353  11.917 -1.1349 -2.8082  1.2488
  659MOL0     H88932   1.410  10.464  11.802  1.0692  1.2190  2.6340
  659MOL0     H88933   1.287  10.216  11.923  0.5137  0.7284  0.3521
  659MOL0     H88934   1.256  10.394  11.952 -3.3456 -1.6274  1.0519
  659MOL0     H88935   1.187  10.243  11.706 -1.9476  0.7223 -0.7050
  659MOL0     H88936   1.173  10.418  11.720 -3.2662 -1.6195 -2.8052
  659MOL0     H88937   1.036  10.240  11.907  1.4538  0.5510  0.6416
  659MOL0     H88938   1.009  10.413  11.888 -0.8033 -0.0287  1.4390
  659MOL0     H88939   0.940  10.190  11.677 -1.2579  2.1481 -4.3281
  659MOL0     H88940   0.931  10.356  11.648 -0.4769  1.9015  2.4222
  659MOL0     H88941   0.772  10.229  11.880  0.0920  0.7159 -0.0215
  659MOL0     H88942   0.740  10.382  11.804  2.4541  1.3116 -1.2924
  659MOL0     H88943   0.727  10.114  11.656  1.4380  1.0508 -0.3372
  659MOL0     H88944   0.659  10.265  11.598  0.8756 -0.8989 -1.2564
  659MOL0     H88945   0.483  10.136  11.670  1.6212 -1.4291 -0.6573
  659MOL0     H88946   0.510  10.260  11.800  0.9928  0.7238 -1.1443
  659MOL0     H88947   1.562  10.133  11.551 -1.2204  1.1371  2.9187
  659MOL0     H88948   1.792  10.154  11.437 -3.6114 -0.1259 -0.6456
  659MOL0     H88949   2.069  10.172  11.300 -0.4042 -2.2557  0.2110
  659MOL0     H88950   2.238  10.135  11.141  0.1932  0.6883 -0.1171
  659MOL0     H88951   3.888  10.369  10.883  1.9470 -0.3360  1.7518
  659MOL0     H88952   4.102  10.242  10.918 -0.0565 -3.5241  2.0304
  659MOL0     H88953   4.363   9.824  10.757  0.0918  0.7722 -1.3269
  659MOL0     H88954   4.558   9.721  10.851  0.3947  0.3275 -0.0217
  659MOL0     H88955   4.725   9.666  11.012 -0.3581  1.0060  0.7628
  659MOL0     H88956   4.768   9.686  10.840  6.6029  1.1671 -3.1171
  659MOL0     H88957   4.968   9.570  10.935 -0.4541  0.8987 -1.5063
  659MOL0     H88958   4.967   9.701  11.071 -1.3280  0.6937  0.1725
  659MOL0     H88959   5.035   9.854  10.893  4.5814 -0.0109  1.3104
  659MOL0     H88960   5.013   9.728  10.773  1.7079  3.3088 -1.6387
  659MOL0     H88961   5.244   9.765  10.804  0.8108 -1.9508 -0.4898
  659MOL0     H88962   5.184   9.599  10.840 -4.1583 -0.7713  0.3490
  659MOL0     H88963   5.373   9.648  11.198 -0.6284 -0.0190  0.9868
  659MOL0     H88964   4.704  10.081  11.024 -3.1717  2.4493  2.0555
  659MOL0     H88965   4.491  10.195  10.947 -0.2936  0.1430  0.5011
  660MOL0     O88966  10.849   6.260   0.130  0.5410  0.0324  0.2133
  660MOL0     C88967  10.805   6.345   0.053  1.0634 -0.0857 -0.4315
  660MOL0     O88968  10.670   6.356   0.024  0.0875 -0.1786 -0.7717
  660MOL0     C88969  10.589   6.247   0.053  0.3442 -0.3464 -0.0203
  660MOL0     C88970  10.596   6.154   0.151 -0.5808  0.5212  0.4212
  660MOL0     C88971  10.509   6.049   0.171  0.5599  0.4386 -0.5962
  660MOL0     C88972  10.408   6.027   0.071  0.8207 -0.3133  0.4610
  660MOL0     O88973  10.318   5.924   0.058  0.1890  0.1262 -0.7182
  660MOL0     C88974  10.295   5.844   0.178  0.6466 -0.0212 -0.4542
  660MOL0     C88975  10.164   5.763   0.154 -0.3002 -0.2610  0.2950
  660MOL0     C88976  10.150   5.633   0.247 -0.5865  1.3653 -0.0846
  660MOL0     C88977  10.246   5.514   0.218 -0.4349 -1.0328  0.9966
  660MOL0     C88978  10.268   5.426   0.338  0.9697  0.2222 -0.0313
  660MOL0     C88979  10.379   5.335   0.328  0.2556  1.3969 -1.4488
  660MOL0     C88980  10.381   5.237   0.452  0.0919 -0.3644  0.9942
  660MOL0     C88981  10.273   5.126   0.450  0.8123 -0.6973 -0.2538
  660MOL0     N88982  10.282   5.042   0.562  0.0418  0.7829  0.2410
  660MOL0     C88983  10.206   5.039   0.672 -0.4238  0.4156  0.1247
  660MOL0     C88984  10.272   4.943   0.751 -0.4327  0.6262 -0.1607
  660MOL0     C88985  10.247   4.911   0.896 -0.2133  0.3526 -0.0477
  660MOL0     C88986  10.107   4.924   0.951 -0.1112  0.7147 -0.3514
  660MOL0     C88987  10.089   4.890   1.099 -0.3518  0.9062  0.9437
  660MOL0     C88988  10.121   4.740   1.137 -0.0667 -0.3076  0.2554
  660MOL0     O88989  10.259   4.700   1.113 -0.1739 -0.0781  0.0932
  660MOL0     C88990  10.297   4.574   1.136 -0.2680  0.5578  0.1926
  660MOL0     C88991  10.213   4.467   1.172  0.1505 -0.6448 -0.0453
  660MOL0     C88992  10.272   4.342   1.206  0.1418  0.4924  0.3327
  660MOL0     C88993  10.169   4.226   1.240 -0.5001 -0.2287 -0.0828
  660MOL0     C88994  10.412   4.324   1.201  0.2034  0.2099 -0.1390
  660MOL0     C88995  10.468   4.196   1.244 -0.0864 -0.2337  0.4395
  660MOL0     O88996  10.433   4.149   1.362 -0.1474 -0.5090  0.1167
  660MOL0     C88997  10.456   4.021   1.413 -0.8346 -0.0886  0.3496
  660MOL0     C88998  10.384   4.004   1.527  0.7589  0.7126 -0.9426
  660MOL0     C88999  10.386   3.876   1.588  0.7754  0.0150 -0.0101
  660MOL0     C89000  10.442   3.767   1.518 -0.4784 -0.2203  0.7393
  660MOL0     O89001  10.438   3.639   1.575  0.8948  0.4393  0.3261
  660MOL0     C89002  10.454   3.526   1.485  0.3613 -0.3701 -0.0583
  660MOL0     C89003  10.369   3.403   1.539  0.1475 -0.0600  0.5108
  660MOL0     C89004  10.468   3.333   1.633 -0.4694  0.0020 -0.1969
  660MOL0     C89005  10.400   3.214   1.708  0.2252 -0.1683  0.5238
  660MOL0     C89006  10.483   3.139   1.816 -0.3355  0.1866  0.1491
  660MOL0     C89007  10.429   2.997   1.857 -0.4566 -0.2171  0.0082
  660MOL0     C89008  10.518   2.939   1.969  0.0787  0.0149  0.0535
  660MOL0     C89009  10.457   2.806   2.017  0.3111 -0.5123 -0.0019
  660MOL0    Cl89010  10.457   2.663   1.914  0.0822  0.2413 -0.3026
  660MOL0     C89011  10.527   3.789   1.404  0.4613 -0.6983 -0.2368
  660MOL0     C89012  10.532   3.917   1.348 -0.2476  0.1105 -0.0744
  660MOL0     O89013  10.553   4.144   1.171  0.2713  0.5686 -0.2848
  660MOL0     C89014  10.492   4.427   1.152  0.1885  0.3764  0.0209
  660MOL0     C89015  10.431   4.546   1.116 -0.1832 -1.0508 -0.2918
  660MOL0     N89016  10.373   4.880   0.677 -0.2146 -0.0477 -0.0452
  660MOL0     N89017  10.374   4.931   0.565  0.3873 -0.0328 -0.6309
  660MOL0     C89018  10.404   6.124  -0.036  0.7670 -0.0435  0.3121
  660MOL0     C89019  10.481   6.238  -0.036 -0.4172  0.1556 -0.0131
  660MOL0     C89020  10.880   6.464   0.007 -0.5776 -0.2408  0.0934
  660MOL0     C89021  10.819   6.560  -0.079 -0.4424 -0.9977 -0.3258
  660MOL0     C89022  10.897   6.670  -0.128 -0.3539  0.5958 -0.2151
  660MOL0     C89023  11.029   6.693  -0.085  0.7171  0.6823  0.7034
  660MOL0     O89024  11.095   6.798  -0.148  0.0696 -0.7143  0.2862
  660MOL0     C89025  11.234   6.795  -0.138 -0.8928 -0.1428  0.0071
  660MOL0     C89026  11.294   6.824   0.003 -0.6119 -0.2262  0.7823
  660MOL0     C89027  11.358   6.976   0.012  0.4485  0.0648 -0.2941
  660MOL0     C89028  11.414   7.011   0.155  0.1041  0.3086  0.9766
  660MOL0     C89029  11.310   7.052   0.253 -0.0054 -0.1967  0.2117
  660MOL0     C89030  11.226   7.074   0.333  0.7366 -0.6922  0.0795
  660MOL0     C89031  11.088   6.594  -0.006 -0.9485 -0.8173  0.6218
  660MOL0     C89032  11.017   6.484   0.037 -0.0220 -1.7964 -0.5919
  660MOL0     H89033  10.669   6.177   0.229 -1.3467  0.3528  1.1992
  660MOL0     H89034  10.503   5.980   0.255 -1.2476  1.6268  0.3221
  660MOL0     H89035  10.388   5.792   0.199  2.1436  1.6989 -2.3781
  660MOL0     H89036  10.271   5.903   0.267 -2.1227 -1.5742 -0.0452
  660MOL0     H89037  10.083   5.835   0.169  2.1588  3.0658 -1.0190
  660MOL0     H89038  10.166   5.719   0.053  2.2712 -2.8278  1.3419
  660MOL0     H89039  10.165   5.662   0.352 -1.1366  0.4623  0.2549
  660MOL0     H89040  10.049   5.593   0.236 -2.3851  5.6903 -1.1285
  660MOL0     H89041  10.209   5.458   0.132 -1.9409 -1.0925  1.6585
  660MOL0     H89042  10.340   5.557   0.182 -2.5204  1.1302 -2.3878
  660MOL0     H89043  10.288   5.482   0.430  2.4679  0.8514 -0.6946
  660MOL0     H89044  10.174   5.375   0.361  0.5357  0.6222 -0.8688
  660MOL0     H89045  10.370   5.274   0.238  1.2357 -0.8994 -0.0845
  660MOL0     H89046  10.471   5.392   0.315  1.1637  0.1267 -0.7862
  660MOL0     H89047  10.477   5.185   0.449 -1.5056 -3.5642 -2.4160
  660MOL0     H89048  10.361   5.294   0.544 -3.9542 -1.8466  1.2625
  660MOL0     H89049  10.267   5.071   0.356  0.4433  2.4842 -2.2478
  660MOL0     H89050  10.180   5.185   0.452  2.0447  1.3179  1.2319
  660MOL0     H89051  10.126   5.108   0.698 -0.5648 -0.0124  0.8505
  660MOL0     H89052  10.286   4.809   0.891 -0.2737  0.3140 -5.6710
  660MOL0     H89053  10.309   4.971   0.965 -1.1038  0.3879  0.7371
  660MOL0     H89054  10.052   4.860   0.881 -1.0857  1.1329  0.0127
  660MOL0     H89055  10.071   5.026   0.938 -0.5794  0.5681 -0.2200
  660MOL0     H89056   9.982   4.909   1.110 -0.6653  0.2790 -0.6604
  660MOL0     H89057  10.141   4.955   1.169 -0.4020  2.1924 -0.1605
  660MOL0     H89058  10.046   4.681   1.083  1.5660 -1.8518 -0.4261
  660MOL0     H89059  10.111   4.734   1.245 -1.3483 -1.7364  0.0815
  660MOL0     H89060  10.106   4.484   1.177  0.2148 -0.4416  0.6520
  660MOL0     H89061  10.088   4.223   1.167 -1.2641  0.2584  0.7271
  660MOL0     H89062  10.221   4.130   1.233 -2.6334 -1.5070  0.7122
  660MOL0     H89063  10.133   4.240   1.342  0.2517  0.3995  0.1120
  660MOL0     H89064  10.329   4.085   1.574  1.7204  0.6832  0.2748
  660MOL0     H89065  10.339   3.859   1.684  1.1840 -0.3316  0.1313
  660MOL0     H89066  10.418   3.549   1.384 -3.7063 -1.7174  0.8771
  660MOL0     H89067  10.563   3.517   1.483  0.6754  2.6867 -1.1923
  660MOL0     H89068  10.278   3.427   1.593  0.9617 -0.2889  2.0544
  660MOL0     H89069  10.335   3.337   1.458  0.0125 -1.2567  1.5065
  660MOL0     H89070  10.502   3.405   1.708 -1.7387 -2.1308  2.6172
  660MOL0     H89071  10.560   3.304   1.582  1.9740  1.2564  3.1108
  660MOL0     H89072  10.306   3.241   1.758  1.3583  2.8756  1.2386
  660MOL0     H89073  10.360   3.144   1.634 -1.5269  2.2919 -1.0057
  660MOL0     H89074  10.486   3.202   1.906 -4.0733 -0.1980  0.6725
  660MOL0     H89075  10.580   3.124   1.766 -0.3223 -1.1024  0.5276
  660MOL0     H89076  10.332   3.017   1.902  0.0742  0.4682  0.8820
  660MOL0     H89077  10.425   2.943   1.762 -0.5255 -1.8021  0.8789
  660MOL0     H89078  10.545   3.007   2.050  2.1004  1.6587 -1.8679
  660MOL0     H89079  10.614   2.917   1.920  0.2148  0.9284 -0.1028
  660MOL0     H89080  10.349   2.818   2.026  0.1330 -1.8159 -0.2160
  660MOL0     H89081  10.501   2.781   2.114 -1.8393 -2.4632  0.5424
  660MOL0     H89082  10.594   3.718   1.358 -0.1964 -1.6738  0.2645
  660MOL0     H89083  10.586   3.939   1.256 -0.9720  1.6511 -0.1646
  660MOL0     H89084  10.598   4.418   1.131  0.0315  1.5849 -1.4287
  660MOL0     H89085  10.494   4.631   1.093 -2.2839 -0.4419 -4.8070
  660MOL0     H89086  10.342   6.104  -0.123 -0.1013 -0.5290  1.0354
  660MOL0     H89087  10.452   6.300  -0.120  1.0031 -1.6015 -1.9164
  660MOL0     H89088  10.720   6.540  -0.117 -1.0299 -1.2823  1.2699
  660MOL0     H89089  10.867   6.738  -0.207  0.3263 -2.2100 -3.1076
  660MOL0     H89090  11.268   6.703  -0.187 -0.9188  0.7696 -1.8286
  660MOL0     H89091  11.265   6.872  -0.209 -4.2372  1.4437  0.0863
  660MOL0     H89092  11.372   6.751   0.025  0.6042  1.6087  3.0221
  660MOL0     H89093  11.219   6.818   0.082  0.7948 -2.0717  2.0503
  660MOL0     H89094  11.279   7.048  -0.009 -0.3601 -0.8141 -0.3660
  660MOL0     H89095  11.439   6.976  -0.061 -0.8788 -2.3608 -1.9257
  660MOL0     H89096  11.503   7.074   0.148  0.0141  0.3495  0.0583
  660MOL0     H89097  11.467   6.923   0.193 -0.2322  0.5183  1.9722
  660MOL0     H89098  11.151   7.097   0.405  1.2939  1.3639  0.0647
  660MOL0     H89099  11.191   6.590   0.030 -0.8068 -0.4850  0.2569
  660MOL0     H89100  11.066   6.417   0.107 -0.3516  0.1380  1.6417
  661MOL0     O89101   4.473   5.712   8.943  0.2444  0.1232  0.4435
  661MOL0     C89102   4.488   5.683   8.826 -0.7377  1.0116 -0.3822
  661MOL0     O89103   4.392   5.656   8.732 -0.3063 -0.3456 -0.1545
  661MOL0     C89104   4.259   5.677   8.764  0.4071  0.8118 -0.0015
  661MOL0     C89105   4.189   5.617   8.871 -0.3336 -0.1150 -0.0060
  661MOL0     C89106   4.048   5.627   8.887  0.1604 -0.1175 -0.2642
  661MOL0     C89107   3.973   5.703   8.796 -0.6359  0.3260 -0.7940
  661MOL0     O89108   3.839   5.703   8.814  0.5750  0.2653 -0.9757
  661MOL0     C89109   3.759   5.780   8.721  0.3356 -0.2447 -0.1644
  661MOL0     C89110   3.616   5.802   8.761 -0.2432 -0.7541 -0.6861
  661MOL0     C89111   3.531   5.677   8.741  0.2482  1.3032 -0.7661
  661MOL0     C89112   3.388   5.734   8.737 -0.1351 -0.6456 -0.0126
  661MOL0     C89113   3.294   5.612   8.708  0.5914 -0.3369 -0.3045
  661MOL0     C89114   3.150   5.659   8.698  0.1530 -0.2429  0.0292
  661MOL0     C89115   3.057   5.541   8.731  0.5347 -0.7906  0.1485
  661MOL0     C89116   2.921   5.596   8.756 -0.4071 -0.0893  0.3854
  661MOL0     N89117   2.815   5.495   8.735  0.4145 -0.1452  0.2933
  661MOL0     C89118   2.757   5.393   8.813  0.1785 -0.9935 -0.6122
  661MOL0     C89119   2.636   5.366   8.760 -0.5102 -0.4289  0.9282
  661MOL0     C89120   2.551   5.261   8.830  0.2245  0.4792 -0.8991
  661MOL0     C89121   2.411   5.263   8.771 -0.9369  0.4806  0.3445
  661MOL0     C89122   2.327   5.144   8.818  0.7985 -0.0746  0.0192
  661MOL0     C89123   2.179   5.164   8.779 -0.1340 -0.3097  0.2366
  661MOL0     O89124   2.113   5.044   8.832  0.1466 -0.3624 -0.2464
  661MOL0     C89125   1.999   4.996   8.780  0.0178 -0.6027 -1.1555
  661MOL0     C89126   1.905   5.090   8.743 -0.8319  0.5946 -0.9571
  661MOL0     C89127   1.781   5.057   8.707  0.1638 -0.2948 -0.0886
  661MOL0     C89128   1.685   5.163   8.667 -0.0188 -0.9266 -0.0845
  661MOL0     C89129   1.748   4.916   8.694 -0.0804 -0.9234 -0.6272
  661MOL0     C89130   1.617   4.860   8.670  1.1364 -0.3956  1.0461
  661MOL0     O89131   1.522   4.942   8.610  0.3277 -0.2356 -0.0722
  661MOL0     C89132   1.391   4.911   8.579  0.1252 -0.5175  0.1142
  661MOL0     C89133   1.362   4.837   8.466 -0.6296 -0.2983  0.6740
  661MOL0     C89134   1.223   4.800   8.430 -0.1810 -0.0187  0.3677
  661MOL0     C89135   1.116   4.863   8.510 -1.1343  0.4144 -0.7360
  661MOL0     O89136   0.986   4.829   8.487 -0.2962 -0.1085 -0.5814
  661MOL0     C89137   0.949   4.775   8.361 -0.0095 -0.0374 -0.4150
  661MOL0     C89138   0.797   4.730   8.353  0.4532  0.8469 -0.6820
  661MOL0     C89139   0.783   4.598   8.422  0.6784  0.0339  0.0578
  661MOL0     C89140   0.726   4.616   8.571 -0.1437 -1.0884  1.1483
  661MOL0     C89141   0.691   4.488   8.641  0.0470  0.7854 -0.0907
  661MOL0     C89142   0.821   4.411   8.665  1.1937  0.0804 -0.2219
  661MOL0     C89143   0.800   4.293   8.765  0.3144 -0.5725 -0.0372
  661MOL0     C89144   0.736   4.167   8.697 -0.9519  0.6332  0.0489
  661MOL0    Cl89145   0.737   4.037   8.822 -0.4845  0.0151  0.3796
  661MOL0     C89146   1.151   4.938   8.620  0.3757  0.6825  0.4207
  661MOL0     C89147   1.285   4.966   8.650 -0.4375 -0.4822  0.1453
  661MOL0     O89148   1.598   4.735   8.682 -0.3293  0.1720 -0.2315
  661MOL0     C89149   1.843   4.820   8.732  0.0630 -0.8389  0.6844
  661MOL0     C89150   1.969   4.862   8.778  0.9323  0.7650  0.7531
  661MOL0     N89151   2.619   5.452   8.652 -0.1120  0.7818  0.1224
  661MOL0     N89152   2.722   5.523   8.640  0.0040 -0.0900  0.6762
  661MOL0     C89153   4.040   5.764   8.685 -0.2225 -0.8121 -0.0731
  661MOL0     C89154   4.177   5.752   8.671  0.5540 -0.2832  0.5436
  661MOL0     C89155   4.624   5.663   8.784  0.1684  0.1025 -0.2544
  661MOL0     C89156   4.733   5.741   8.832  0.4381 -0.5498 -1.7761
  661MOL0     C89157   4.860   5.745   8.771  0.0480 -0.8181  0.4798
  661MOL0     C89158   4.893   5.651   8.676 -0.3892  0.2456  0.2500
  661MOL0     O89159   5.019   5.656   8.618  0.4745  0.3079  0.3232
  661MOL0     C89160   5.044   5.767   8.532 -0.0145 -0.1680  0.7010
  661MOL0     C89161   5.010   5.729   8.380 -0.1148 -0.5527  0.5349
  661MOL0     C89162   5.111   5.619   8.329 -0.2814 -0.2826  0.2008
  661MOL0     C89163   5.258   5.671   8.309  0.0143 -0.3456 -0.3064
  661MOL0     C89164   5.259   5.807   8.253  0.1313 -0.2585  0.1128
  661MOL0     C89165   5.242   5.913   8.186 -0.3587  0.0945 -1.1485
  661MOL0     C89166   4.795   5.558   8.650  0.0039  0.5096  0.1472
  661MOL0     C89167   4.664   5.566   8.692  0.1092 -1.1783  0.5639
  661MOL0     H89168   4.245   5.551   8.937 -0.8581 -1.1108 -0.5387
  661MOL0     H89169   3.993   5.582   8.968  0.6245  1.0505  0.7175
  661MOL0     H89170   3.789   5.885   8.722 -2.3855  0.5890 -0.1627
  661MOL0     H89171   3.757   5.727   8.625  2.4623 -1.7002  0.5168
  661MOL0     H89172   3.609   5.823   8.868  1.0857  1.3598 -0.9616
  661MOL0     H89173   3.568   5.888   8.712 -1.0004 -1.1636 -0.6818
  661MOL0     H89174   3.549   5.615   8.653 -0.6226  1.5970 -1.1641
  661MOL0     H89175   3.540   5.611   8.829 -0.8903  1.3548 -0.5950
  661MOL0     H89176   3.361   5.793   8.826 -0.1655  2.1440 -1.7330
  661MOL0     H89177   3.365   5.806   8.658 -1.4012 -1.4548 -0.4195
  661MOL0     H89178   3.323   5.562   8.615  0.1196  1.3185 -1.3795
  661MOL0     H89179   3.303   5.544   8.793  0.1902  1.0920  0.9144
  661MOL0     H89180   3.145   5.742   8.769  0.4646 -1.2179  1.2091
  661MOL0     H89181   3.133   5.687   8.593  1.5539 -1.6465 -0.6294
  661MOL0     H89182   3.053   5.474   8.645  0.8169  0.0114 -0.5100
  661MOL0     H89183   3.097   5.492   8.820  0.9434 -0.5482  0.1052
  661MOL0     H89184   2.902   5.681   8.691  1.0268  0.1980  0.3087
  661MOL0     H89185   2.910   5.637   8.857 -1.9298 -1.3959  0.7984
  661MOL0     H89186   2.793   5.348   8.905  2.4422  2.5516  0.4353
  661MOL0     H89187   2.597   5.162   8.821  1.2329  1.0698 -3.0256
  661MOL0     H89188   2.538   5.312   8.926 -0.0584  2.0238 -1.7261
  661MOL0     H89189   2.423   5.264   8.663  1.5834  0.1118  0.5666
  661MOL0     H89190   2.370   5.357   8.808  2.4147  1.9350  0.7028
  661MOL0     H89191   2.331   5.135   8.927  1.2632 -1.1342 -0.0668
  661MOL0     H89192   2.372   5.051   8.782  1.3876  0.9380 -2.0574
  661MOL0     H89193   2.169   5.177   8.671  0.5785  3.9979  0.4983
  661MOL0     H89194   2.144   5.260   8.816  0.8474  1.0863 -2.1958
  661MOL0     H89195   1.930   5.195   8.743 -2.7686  1.0984 -0.9139
  661MOL0     H89196   1.728   5.259   8.696  2.1607 -2.1383  0.9823
  661MOL0     H89197   1.676   5.155   8.558  0.9478  0.1033 -0.2646
  661MOL0     H89198   1.588   5.159   8.716  0.9197 -1.6146  1.8436
  661MOL0     H89199   1.450   4.808   8.409 -1.7459  0.3009 -1.4726
  661MOL0     H89200   1.209   4.723   8.355  0.1637  1.3023 -1.1166
  661MOL0     H89201   0.966   4.857   8.291  0.7035 -2.2350 -2.9870
  661MOL0     H89202   1.017   4.695   8.328  0.2935  1.4904 -3.8334
  661MOL0     H89203   0.742   4.818   8.388  1.9660  2.4851 -2.1854
  661MOL0     H89204   0.770   4.711   8.249  1.0339  1.5119 -0.9627
  661MOL0     H89205   0.876   4.541   8.419  0.2004 -0.7412 -0.4611
  661MOL0     H89206   0.706   4.540   8.371 -1.0047  2.7106 -0.6445
  661MOL0     H89207   0.802   4.677   8.621  0.5017  2.4392 -3.4099
  661MOL0     H89208   0.634   4.674   8.564 -0.4473 -1.6051  0.7431
  661MOL0     H89209   0.627   4.427   8.577 -0.5522  1.5284 -0.2176
  661MOL0     H89210   0.646   4.508   8.739 -1.3553  0.8434 -0.7237
  661MOL0     H89211   0.871   4.367   8.578  2.4444 -0.0750  0.5634
  661MOL0     H89212   0.896   4.478   8.707  0.3641  1.6716 -1.1438
  661MOL0     H89213   0.740   4.328   8.849 -1.0439 -1.1234 -0.7624
  661MOL0     H89214   0.899   4.270   8.805 -0.1001  0.4200  1.6357
  661MOL0     H89215   0.778   4.135   8.602  1.8156 -1.4269  1.8246
  661MOL0     H89216   0.630   4.178   8.671 -0.8207  0.7886 -0.4174
  661MOL0     H89217   1.074   4.972   8.689 -0.4960 -3.0168  1.4668
  661MOL0     H89218   1.297   5.018   8.744  0.0918  0.9880 -0.7048
  661MOL0     H89219   1.828   4.712   8.724  0.3935 -0.9159  1.0693
  661MOL0     H89220   2.047   4.788   8.795 -1.0264 -2.4691 -2.7702
  661MOL0     H89221   3.982   5.819   8.611 -0.3500 -0.3222  0.3841
  661MOL0     H89222   4.216   5.796   8.580  0.9248  4.0870  2.5613
  661MOL0     H89223   4.705   5.817   8.905  2.2507  0.6327 -2.2581
  661MOL0     H89224   4.938   5.816   8.796 -0.6643 -0.5021  1.8783
  661MOL0     H89225   4.992   5.861   8.554  1.5471  0.6829  0.9176
  661MOL0     H89226   5.148   5.799   8.546 -0.4717  1.0709  1.4541
  661MOL0     H89227   5.011   5.811   8.307 -0.4506 -2.3588 -1.6105
  661MOL0     H89228   4.907   5.692   8.383 -0.8854  1.2695 -1.0589
  661MOL0     H89229   5.081   5.574   8.234 -0.6352 -0.2496  0.2952
  661MOL0     H89230   5.110   5.548   8.413  0.0282  0.8215  1.1755
  661MOL0     H89231   5.308   5.596   8.246 -1.1318 -0.1239 -1.5228
  661MOL0     H89232   5.306   5.684   8.407 -2.7634  2.5295  0.8446
  661MOL0     H89233   5.239   5.991   8.113  0.7930  0.1415 -1.1604
  661MOL0     H89234   4.823   5.482   8.578 -0.1352  2.0614 -1.6250
  661MOL0     H89235   4.598   5.502   8.636  0.7793 -0.8855 -0.6015
  662MOL0     O89236   7.408  10.013   8.756 -0.6128 -0.3678  0.6286
  662MOL0     C89237   7.393   9.923   8.839  0.0120 -0.0040  0.0079
  662MOL0     O89238   7.279   9.881   8.896 -0.4417  0.4384 -0.3915
  662MOL0     C89239   7.174   9.885   8.805  0.7170 -0.6123 -0.3164
  662MOL0     C89240   7.154   9.768   8.735  0.0889  0.7546 -0.0306
  662MOL0     C89241   7.053   9.752   8.645 -0.2550  0.0271  0.3191
  662MOL0     C89242   6.965   9.860   8.619 -0.3690 -0.9371 -0.1128
  662MOL0     O89243   6.858   9.873   8.531 -1.5068  0.6443  0.0523
  662MOL0     C89244   6.822   9.769   8.441  0.6939 -0.0624  1.0115
  662MOL0     C89245   6.738   9.834   8.321 -0.1168  0.7243  1.1327
  662MOL0     C89246   6.790   9.961   8.263  0.0512  0.3520  0.1127
  662MOL0     C89247   6.768   9.962   8.108  0.1901  0.5438  0.2596
  662MOL0     C89248   6.772  10.105   8.051  0.0596  0.0274  0.3013
  662MOL0     C89249   6.641  10.180   8.065  0.9840 -0.1828 -0.2561
  662MOL0     C89250   6.607  10.310   7.988 -0.5148  0.0340 -0.1624
  662MOL0     C89251   6.614  10.292   7.833 -0.8530  0.7322 -0.2093
  662MOL0     N89252   6.528  10.196   7.768 -0.2076  0.3977  0.2929
  662MOL0     C89253   6.392  10.195   7.781  0.5034  0.1136 -0.8860
  662MOL0     C89254   6.356  10.073   7.747  0.5404  0.2729 -0.0185
  662MOL0     C89255   6.211  10.009   7.752  0.3063  0.1674  0.2004
  662MOL0     C89256   6.107  10.082   7.662  0.0061  0.9255 -0.4413
  662MOL0     C89257   6.106  10.036   7.521  0.1786 -0.5925 -0.1349
  662MOL0     C89258   6.073   9.889   7.500  0.3743 -0.0064  0.0444
  662MOL0     O89259   6.033   9.851   7.369 -0.3703  0.7418 -0.6447
  662MOL0     C89260   6.121   9.874   7.265 -0.0425  0.1185  0.8111
  662MOL0     C89261   6.258   9.897   7.278  0.0076 -0.5933  0.1675
  662MOL0     C89262   6.348   9.903   7.167 -0.1001  0.1644  1.1968
  662MOL0     C89263   6.497   9.937   7.200 -0.3430  0.1699  0.1135
  662MOL0     C89264   6.307   9.871   7.035  0.3222  0.0912  0.9767
  662MOL0     C89265   6.395   9.895   6.911 -0.0385  0.0847 -0.1833
  662MOL0     O89266   6.311   9.903   6.801 -0.2166  0.0821 -0.9348
  662MOL0     C89267   6.355   9.907   6.673 -0.3474 -0.0519 -0.7516
  662MOL0     C89268   6.485   9.887   6.629 -0.2664  1.3978  0.3766
  662MOL0     C89269   6.514   9.895   6.490 -0.7406  0.4089  0.1858
  662MOL0     C89270   6.418   9.941   6.398 -0.4848  0.1937  0.4308
  662MOL0     O89271   6.465   9.979   6.276  0.6811 -0.3191 -0.3363
  662MOL0     C89272   6.371   9.980   6.165  0.2515 -0.9718 -0.2673
  662MOL0     C89273   6.446   9.992   6.033 -0.7248  0.1804  0.3184
  662MOL0     C89274   6.528  10.117   6.013  0.2446 -0.1951 -0.0279
  662MOL0     C89275   6.629  10.105   5.897  0.6104 -0.1739 -0.2369
  662MOL0     C89276   6.721  10.232   5.875 -0.2384 -0.1504 -0.2981
  662MOL0     C89277   6.821  10.202   5.780 -0.2834  0.2020  0.1933
  662MOL0     C89278   6.911  10.327   5.758  0.1155 -0.4527  0.6582
  662MOL0     C89279   7.031  10.319   5.666 -0.0834  0.0944  0.3015
  662MOL0    Cl89280   6.992  10.249   5.511  0.3053  0.4761 -0.4450
  662MOL0     C89281   6.291   9.961   6.442  0.3838 -0.3380  0.0532
  662MOL0     C89282   6.259   9.950   6.579  0.0269 -0.3972  0.5179
  662MOL0     O89283   6.515   9.933   6.916 -0.0787  1.1271  0.2325
  662MOL0     C89284   6.173   9.835   7.032  0.1289  0.5988 -0.4679
  662MOL0     C89285   6.081   9.835   7.138  0.1385 -1.2511 -0.4353
  662MOL0     N89286   6.469  10.005   7.701  0.8692 -0.1275  0.2393
  662MOL0     N89287   6.572  10.074   7.727 -0.3246 -0.1169  0.4492
  662MOL0     C89288   6.986   9.979   8.690  0.3445 -0.4716 -0.2892
  662MOL0     C89289   7.086   9.991   8.789 -0.1790 -0.3789 -0.2684
  662MOL0     C89290   7.510   9.859   8.899  0.1120  0.7361 -0.0443
  662MOL0     C89291   7.621   9.938   8.918  0.4175  0.0465  0.4013
  662MOL0     C89292   7.734   9.881   8.979  0.6418 -0.0980 -0.4308
  662MOL0     C89293   7.725   9.751   9.048 -0.7557  0.2154  0.5793
  662MOL0     O89294   7.824   9.697   9.120 -0.6092 -0.3100  0.1159
  662MOL0     C89295   7.955   9.685   9.046 -0.5862 -0.7081 -0.0135
  662MOL0     C89296   8.058   9.609   9.123  0.0649 -0.5005 -0.3507
  662MOL0     C89297   8.129   9.682   9.239 -0.2938 -0.1860  0.7290
  662MOL0     C89298   8.206   9.812   9.192  0.4306 -0.6720  0.0100
  662MOL0     C89299   8.243   9.888   9.312  0.2825  0.1219 -0.5471
  662MOL0     C89300   8.285   9.958   9.404 -0.3936 -0.1676  0.3801
  662MOL0     C89301   7.606   9.674   9.027 -0.4081 -0.4569  0.2488
  662MOL0     C89302   7.503   9.731   8.951  0.0628  0.1920  0.3605
  662MOL0     H89303   7.224   9.686   8.744  1.2801  1.8119  0.5765
  662MOL0     H89304   7.043   9.656   8.595  4.1778 -0.6083  0.2240
  662MOL0     H89305   6.908   9.717   8.398  0.0663 -2.2968  2.2704
  662MOL0     H89306   6.768   9.696   8.502 -2.1928  0.1282 -1.1070
  662MOL0     H89307   6.719   9.756   8.247 -0.9509  0.6374  1.4308
  662MOL0     H89308   6.645   9.864   8.370  0.6814 -0.8943  3.8171
  662MOL0     H89309   6.736  10.044   8.310  1.2732  1.3497 -0.1702
  662MOL0     H89310   6.896   9.984   8.277  0.3297 -1.2086  0.7815
  662MOL0     H89311   6.858   9.914   8.069 -2.0241 -2.4745 -1.5247
  662MOL0     H89312   6.680   9.907   8.075 -0.6906  2.3641 -0.6024
  662MOL0     H89313   6.842  10.173   8.102  0.1515  3.2431 -3.5866
  662MOL0     H89314   6.804  10.089   7.947  1.0524 -3.2847  1.0006
  662MOL0     H89315   6.562  10.111   8.034 -0.2009 -0.7022  3.3669
  662MOL0     H89316   6.636  10.193   8.174  2.5360 -0.9872 -0.0556
  662MOL0     H89317   6.506  10.340   8.016 -0.4681 -1.0377  1.2815
  662MOL0     H89318   6.684  10.385   8.007 -0.1397  0.4405 -2.8425
  662MOL0     H89319   6.716  10.262   7.807 -0.3629  1.9199  0.3043
  662MOL0     H89320   6.601  10.386   7.778  1.6607  1.0121 -0.4403
  662MOL0     H89321   6.331  10.274   7.822 -0.1107  0.3672 -2.2460
  662MOL0     H89322   6.214   9.902   7.728 -1.8179  0.1523 -0.1653
  662MOL0     H89323   6.176  10.031   7.853  2.6333  2.5564  0.5987
  662MOL0     H89324   6.120  10.191   7.663 -1.0804  1.0722  0.7753
  662MOL0     H89325   6.012  10.062   7.713  1.1118 -1.9615  0.7140
  662MOL0     H89326   6.192  10.069   7.463 -0.6690  1.0782 -0.5305
  662MOL0     H89327   6.026  10.090   7.469 -2.3092 -2.5689  1.4326
  662MOL0     H89328   6.000   9.869   7.579 -0.4181  3.0421  0.2254
  662MOL0     H89329   6.156   9.824   7.529 -0.3694 -0.7958  0.4479
  662MOL0     H89330   6.310   9.909   7.372  2.6793 -1.7004 -1.0495
  662MOL0     H89331   6.505   9.936   7.309 -1.6199  0.5192  0.2246
  662MOL0     H89332   6.558   9.852   7.168  1.0248  0.4851  1.7795
  662MOL0     H89333   6.529  10.035   7.163 -0.8590  0.3944  0.2582
  662MOL0     H89334   6.570   9.845   6.680 -0.7240 -0.4410 -0.2823
  662MOL0     H89335   6.616   9.893   6.452 -0.8906  1.8824 -0.3508
  662MOL0     H89336   6.315   9.886   6.171  0.9568 -1.3733  0.1932
  662MOL0     H89337   6.302  10.062   6.186  0.9105 -0.8091  1.4412
  662MOL0     H89338   6.509   9.903   6.023 -0.2718  0.3079  1.8420
  662MOL0     H89339   6.370   9.995   5.953 -0.6750  1.2491  0.2992
  662MOL0     H89340   6.588  10.132   6.103  3.4033  0.0843 -2.0110
  662MOL0     H89341   6.460  10.203   6.010  2.3684  1.6489  1.6948
  662MOL0     H89342   6.695  10.019   5.911 -1.5348 -2.2090 -1.7642
  662MOL0     H89343   6.567  10.086   5.809  0.2144  0.8784 -0.1967
  662MOL0     H89344   6.778  10.255   5.965  1.9995  0.4878 -1.7874
  662MOL0     H89345   6.665  10.315   5.831 -0.6565  0.2264  0.9185
  662MOL0     H89346   6.875  10.114   5.815  0.1054  0.4699  0.2840
  662MOL0     H89347   6.780  10.172   5.684  0.4355 -1.6867  0.4395
  662MOL0     H89348   6.946  10.355   5.858  0.0419 -1.2539  0.9189
  662MOL0     H89349   6.849  10.405   5.715 -0.8786  0.4577  3.5358
  662MOL0     H89350   7.098  10.251   5.720  1.8479  3.7070  2.9392
  662MOL0     H89351   7.087  10.412   5.653  1.7881 -0.8516  1.2211
  662MOL0     H89352   6.215  10.004   6.378  0.9215  0.2778 -0.1831
  662MOL0     H89353   6.155   9.965   6.606 -0.7288  2.3505 -3.0943
  662MOL0     H89354   6.114   9.810   6.944  1.8039  0.1434 -1.5130
  662MOL0     H89355   5.980   9.803   7.116  0.0470  0.7293 -3.3426
  662MOL0     H89356   6.928  10.070   8.677 -0.2113 -0.9333 -1.1496
  662MOL0     H89357   7.111  10.077   8.851  4.0718 -0.8498 -1.0657
  662MOL0     H89358   7.642  10.030   8.863  2.8887  0.6468  2.1725
  662MOL0     H89359   7.822   9.944   8.987 -1.6024  3.7132 -2.3065
  662MOL0     H89360   7.934   9.633   8.952  3.0228 -0.6784 -0.9827
  662MOL0     H89361   7.988   9.787   9.025  0.1570 -0.4714  2.0941
  662MOL0     H89362   8.126   9.570   9.047 -0.5283 -0.7844 -0.7396
  662MOL0     H89363   8.023   9.526   9.185  2.7677 -0.7689  0.9591
  662MOL0     H89364   8.195   9.614   9.293  1.2339 -1.0775 -2.0120
  662MOL0     H89365   8.056   9.724   9.309 -1.5285 -2.1440  0.6837
  662MOL0     H89366   8.145   9.884   9.137  0.7439  1.5462  2.3892
  662MOL0     H89367   8.288   9.792   9.122 -0.8397 -2.3391 -1.0962
  662MOL0     H89368   8.310  10.016   9.490  3.4987  1.6723 -1.6937
  662MOL0     H89369   7.591   9.572   9.062 -0.8774 -0.3925  0.2396
  662MOL0     H89370   7.418   9.665   8.938  0.3170 -0.1489  0.3936
  663MOL0     O89371   7.334   0.884  11.308  0.0168 -0.6702  0.4177
  663MOL0     C89372   7.348   0.974  11.229 -0.4651 -0.5429  0.9492
  663MOL0     O89373   7.260   1.086  11.216 -0.6591  0.0870  0.1245
  663MOL0     C89374   7.133   1.087  11.267  0.3761  0.1421 -0.2693
  663MOL0     C89375   7.081   1.217  11.285  0.2333  0.4327 -0.0083
  663MOL0     C89376   6.944   1.238  11.310  0.7853  1.2216  0.0480
  663MOL0     C89377   6.846   1.127  11.321 -0.6126  0.9454 -0.0672
  663MOL0     O89378   6.710   1.142  11.349 -0.1617 -0.7014 -1.3979
  663MOL0     C89379   6.667   1.252  11.433  0.4524 -0.5982 -0.3290
  663MOL0     C89380   6.519   1.265  11.417  0.3572 -0.2575  0.4430
  663MOL0     C89381   6.425   1.138  11.440 -0.1478 -0.1481  0.5540
  663MOL0     C89382   6.396   1.134  11.593  0.1398 -0.0190  0.1626
  663MOL0     C89383   6.282   1.222  11.654  1.6494 -0.3516  0.1552
  663MOL0     C89384   6.234   1.184  11.801 -0.7885 -0.2376  0.5394
  663MOL0     C89385   6.157   1.053  11.792  0.2791 -0.3908 -0.3684
  663MOL0     C89386   6.078   1.035  11.924  0.2065 -0.5095  0.1596
  663MOL0     N89387   6.157   1.058  12.040  0.4073 -0.5808  0.4382
  663MOL0     C89388   6.235   0.963  12.096 -0.1211  0.3306 -0.6648
  663MOL0     C89389   6.286   1.018  12.213  0.2390  1.6779 -0.6765
  663MOL0     C89390   6.374   0.952  12.322  0.2166  0.0980  0.6496
  663MOL0     C89391   6.505   1.018  12.326  0.4417  0.2521 -0.1760
  663MOL0     C89392   6.614   0.960  12.224 -0.5120  0.1598 -0.1528
  663MOL0     C89393   6.578   0.956  12.075  0.3610 -0.6946  0.4695
  663MOL0     O89394   6.506   0.839  12.044 -0.6767 -0.5160  0.4935
  663MOL0     C89395   6.501   0.788  11.917  0.4026 -0.3898 -0.4331
  663MOL0     C89396   6.588   0.825  11.818  0.2889 -0.7045 -1.1106
  663MOL0     C89397   6.579   0.783  11.681 -0.8704  0.6539 -1.3569
  663MOL0     C89398   6.664   0.838  11.575 -0.2485 -0.0812 -0.7965
  663MOL0     C89399   6.464   0.702  11.648 -0.0047  1.2607 -0.2403
  663MOL0     C89400   6.419   0.660  11.511  0.4061  0.6556  0.3501
  663MOL0     O89401   6.462   0.724  11.401 -0.0435  0.1351  0.3236
  663MOL0     C89402   6.409   0.698  11.275  0.7047 -0.4984 -0.5631
  663MOL0     C89403   6.493   0.669  11.164  0.3851  0.0715  0.3084
  663MOL0     C89404   6.441   0.640  11.040 -0.5555 -0.7131 -0.2202
  663MOL0     C89405   6.304   0.645  11.020 -0.1943 -0.0444 -0.2163
  663MOL0     O89406   6.252   0.632  10.894 -0.2673 -0.7045  1.2369
  663MOL0     C89407   6.254   0.495  10.855  0.3361  0.6006  0.0504
  663MOL0     C89408   6.135   0.469  10.755  0.3864  0.5530  0.5729
  663MOL0     C89409   6.118   0.326  10.707  0.1858  0.3875  0.2014
  663MOL0     C89410   6.004   0.288  10.618 -1.0274 -0.9492 -0.8166
  663MOL0     C89411   5.991   0.377  10.491 -0.1485 -0.6865  0.7539
  663MOL0     C89412   5.896   0.320  10.387  0.7834  0.4099  0.5067
  663MOL0     C89413   5.750   0.289  10.449  0.2744  0.2541  0.1172
  663MOL0     C89414   5.643   0.260  10.341  0.0188 -0.6960  0.1187
  663MOL0    Cl89415   5.499   0.212  10.436  0.0710  0.2206  0.2155
  663MOL0     C89416   6.219   0.686  11.117  0.2128  0.2748 -0.5280
  663MOL0     C89417   6.267   0.706  11.247  1.2325  0.6990 -0.0120
  663MOL0     O89418   6.337   0.568  11.517  0.0805 -0.5947  0.4063
  663MOL0     C89419   6.387   0.649  11.759  0.9514 -0.4177 -0.2157
  663MOL0     C89420   6.405   0.694  11.889 -0.5199 -0.4908 -0.7210
  663MOL0     N89421   6.237   1.145  12.210  0.6356 -0.6906  1.1461
  663MOL0     N89422   6.181   1.171  12.108 -0.2619  0.1645 -0.1005
  663MOL0     C89423   6.904   0.994  11.304  0.2843 -0.6477 -0.3386
  663MOL0     C89424   7.038   0.984  11.277  0.0851 -0.0373  0.2105
  663MOL0     C89425   7.471   0.967  11.143 -0.2209 -0.3146 -0.4887
  663MOL0     C89426   7.488   1.053  11.035  0.3681 -0.1923 -0.8743
  663MOL0     C89427   7.586   1.041  10.941 -0.4848 -1.1819 -0.0566
  663MOL0     C89428   7.686   0.949  10.960 -1.1141 -0.4523  1.0546
  663MOL0     O89429   7.790   0.939  10.860  0.8811  0.2166 -0.3729
  663MOL0     C89430   7.924   0.958  10.907  1.0624 -0.0121 -0.2051
  663MOL0     C89431   8.020   0.938  10.794 -0.7023 -0.0357 -0.1639
  663MOL0     C89432   8.028   0.792  10.745 -0.1418  0.9721 -0.8708
  663MOL0     C89433   8.122   0.777  10.624 -0.2587 -0.7439 -0.8889
  663MOL0     C89434   8.259   0.827  10.651 -0.7903 -0.5733  0.6746
  663MOL0     C89435   8.369   0.877  10.666  0.2063  0.1296  0.6762
  663MOL0     C89436   7.667   0.858  11.066 -0.0344  0.1576 -0.2549
  663MOL0     C89437   7.563   0.868  11.159  0.2424  0.4923 -0.7016
  663MOL0     H89438   7.152   1.299  11.286 -0.3188  1.0595 -2.8104
  663MOL0     H89439   6.911   1.341  11.324  0.6828  1.4749 -1.7667
  663MOL0     H89440   6.695   1.241  11.538 -1.6755  0.9211  0.4750
  663MOL0     H89441   6.715   1.341  11.391  5.1513 -2.7503 -0.1911
  663MOL0     H89442   6.492   1.341  11.492  0.6474  1.4054 -1.0732
  663MOL0     H89443   6.502   1.300  11.315  1.6012  0.8931  0.6031
  663MOL0     H89444   6.346   1.161  11.368  1.8678  0.0363 -1.7356
  663MOL0     H89445   6.475   1.046  11.411  0.0929  0.0141  0.4471
  663MOL0     H89446   6.386   1.030  11.624 -2.2389 -0.0064 -0.3862
  663MOL0     H89447   6.490   1.159  11.643  0.9775 -1.9841 -0.3431
  663MOL0     H89448   6.324   1.323  11.656  3.2552 -0.9098 -1.7901
  663MOL0     H89449   6.198   1.236  11.585  1.4363 -0.6758  0.3445
  663MOL0     H89450   6.322   1.177  11.865 -0.6583 -2.2042  0.1847
  663MOL0     H89451   6.169   1.264  11.837  0.1521 -0.2671  2.4257
  663MOL0     H89452   6.096   1.041  11.702  1.7783 -1.5291 -1.2983
  663MOL0     H89453   6.237   0.978  11.793  2.4247  1.7737  0.4284
  663MOL0     H89454   6.031   0.936  11.924 -2.1053  0.4625  2.7312
  663MOL0     H89455   6.005   1.116  11.926 -0.4475 -1.0834 -0.2326
  663MOL0     H89456   6.253   0.861  12.064 -1.1465  0.6486 -2.4202
  663MOL0     H89457   6.327   0.978  12.418 -2.8031 -0.9362 -0.4409
  663MOL0     H89458   6.382   0.846  12.297 -1.6424 -0.3804  1.8725
  663MOL0     H89459   6.544   1.011  12.428 -1.2086 -1.8352  0.3811
  663MOL0     H89460   6.498   1.126  12.310 -1.6024  0.8547  3.6032
  663MOL0     H89461   6.651   0.861  12.252  1.5855  0.9115 -0.0948
  663MOL0     H89462   6.697   1.030  12.237  0.8414 -1.2837 -0.7885
  663MOL0     H89463   6.671   0.969  12.019  0.0108 -0.1161  0.0055
  663MOL0     H89464   6.512   1.039  12.048  2.2584  0.2072 -1.7506
  663MOL0     H89465   6.662   0.904  11.831 -1.1014  0.7087 -1.3367
  663MOL0     H89466   6.673   0.757  11.501 -0.8299 -0.3475 -0.5888
  663MOL0     H89467   6.618   0.930  11.537 -1.4294  0.4840  1.7959
  663MOL0     H89468   6.766   0.864  11.603 -0.3851 -0.0852 -0.2831
  663MOL0     H89469   6.600   0.662  11.181  0.2754  1.7796  2.0700
  663MOL0     H89470   6.505   0.623  10.954 -0.5589  4.5768 -1.6136
  663MOL0     H89471   6.349   0.479  10.804  0.4569 -1.0245  0.7218
  663MOL0     H89472   6.245   0.434  10.945 -0.3294  2.1230  1.0509
  663MOL0     H89473   6.036   0.494  10.794 -0.1831  1.4139 -1.2852
  663MOL0     H89474   6.136   0.530  10.664 -3.8828 -0.1285 -0.1348
  663MOL0     H89475   6.127   0.254  10.789  2.3556  0.2816 -0.0667
  663MOL0     H89476   6.206   0.299  10.646  0.4259 -0.1947  0.7935
  663MOL0     H89477   6.019   0.184  10.588 -0.6839 -1.4453  0.9735
  663MOL0     H89478   5.908   0.306  10.666 -1.4283  2.5524 -2.6479
  663MOL0     H89479   6.090   0.379  10.443 -1.0202 -0.6813 -1.1415
  663MOL0     H89480   5.966   0.480  10.519 -1.9267 -0.6419 -0.8046
  663MOL0     H89481   5.889   0.384  10.298 -3.2449  0.5159  0.6856
  663MOL0     H89482   5.945   0.233  10.342 -0.9953  0.0477 -0.8871
  663MOL0     H89483   5.718   0.381  10.499  1.7891  0.6254  0.4741
  663MOL0     H89484   5.750   0.202  10.515 -1.1381 -0.0003 -0.1863
  663MOL0     H89485   5.692   0.182  10.283  1.7912  1.2276 -1.1507
  663MOL0     H89486   5.623   0.336  10.265  0.7932 -1.2626 -0.6722
  663MOL0     H89487   6.112   0.677  11.100  0.3973 -2.5598 -0.5154
  663MOL0     H89488   6.206   0.728  11.334  1.2477 -3.3871  1.2268
  663MOL0     H89489   6.298   0.586  11.760 -0.1265  0.8724  3.3976
  663MOL0     H89490   6.335   0.655  11.962  0.0160 -0.7574 -0.3405
  663MOL0     H89491   6.832   0.913  11.313 -0.4926  0.0805  0.1582
  663MOL0     H89492   7.075   0.884  11.262  0.6098 -0.1786  2.2054
  663MOL0     H89493   7.422   1.138  11.023  0.9031  0.4634  0.6634
  663MOL0     H89494   7.591   1.109  10.856 -1.9946 -1.7000 -0.6018
  663MOL0     H89495   7.940   1.054  10.956 -1.5015  0.3853 -0.0284
  663MOL0     H89496   7.938   0.880  10.982 -0.1059  0.7925  0.8738
  663MOL0     H89497   8.122   0.969  10.819 -0.7718 -0.0317  0.1143
  663MOL0     H89498   7.997   1.001  10.707 -0.6483 -0.4596 -0.4908
  663MOL0     H89499   7.927   0.764  10.711  0.6149 -0.3070 -2.1605
  663MOL0     H89500   8.062   0.727  10.826 -2.5002 -0.3108 -0.8172
  663MOL0     H89501   8.086   0.837  10.540  1.5580 -0.4061 -1.4497
  663MOL0     H89502   8.127   0.671  10.596 -0.1311 -1.5720  1.9705
  663MOL0     H89503   8.471   0.899  10.688 -0.0482  1.2937  0.7864
  663MOL0     H89504   7.742   0.781  11.080 -2.0071 -1.3011  4.1443
  663MOL0     H89505   7.567   0.796  11.241  0.9732  0.9141 -0.3602
  664MOL0     O89506   5.216  11.158  11.242  0.1081 -0.3173 -0.2178
  664MOL0     C89507   5.295  11.166  11.148  0.1807 -0.0121  0.2025
  664MOL0     O89508   5.426  11.209  11.159 -0.6908  0.5095  0.2415
  664MOL0     C89509   5.475  11.240  11.286  0.2098  0.9917  0.3724
  664MOL0     C89510   5.491  11.375  11.317  0.1711  0.4436  0.6384
  664MOL0     C89511   5.528  11.408  11.452  0.0990 -0.1058 -1.3671
  664MOL0     C89512   5.553  11.312  11.546 -0.5996  0.6448  0.6275
  664MOL0     O89513   5.582  11.362  11.672 -0.1340 -0.1179 -0.5420
  664MOL0     C89514   5.678  11.300  11.753 -0.6688  0.4449 -0.3871
  664MOL0     C89515   5.747  11.408  11.851  0.6316  0.1073 -0.1252
  664MOL0     C89516   5.790  11.532  11.768  0.2997 -0.0672 -0.3949
  664MOL0     C89517   5.911  11.498  11.679 -0.5138 -0.4753 -0.0433
  664MOL0     C89518   5.955  11.622  11.597 -0.1522  0.6382 -0.6576
  664MOL0     C89519   6.079  11.608  11.513 -0.8408  0.2700  0.7420
  664MOL0     C89520   6.132  11.741  11.450 -0.4438  0.4569 -0.1512
  664MOL0     C89521   6.025  11.816  11.374 -0.2590 -0.0664  0.7889
  664MOL0     N89522   5.989  11.755  11.238 -0.3190  0.6424 -0.1874
  664MOL0     C89523   5.910  11.643  11.225  0.2695  0.7272 -0.4950
  664MOL0     C89524   5.899  11.622  11.090  0.4391  0.0319  0.2134
  664MOL0     C89525   5.808  11.523  11.023  0.2417 -0.0916 -0.3514
  664MOL0     C89526   5.796  11.521  10.868  0.3471  0.2759 -0.6359
  664MOL0     C89527   5.704  11.414  10.807 -0.1332  0.4649 -0.2667
  664MOL0     C89528   5.561  11.420  10.871 -0.2942 -0.0568  0.5587
  664MOL0     O89529   5.486  11.366  10.765  0.8002  0.4970  0.9377
  664MOL0     C89530   5.349  11.366  10.765  0.7386  0.0677  0.2171
  664MOL0     C89531   5.277  11.422  10.872  1.0179 -0.4842  0.0044
  664MOL0     C89532   5.132  11.417  10.875 -0.7479  0.1736 -0.1232
  664MOL0     C89533   5.072  11.459  11.008 -0.3069  1.2616  0.3316
  664MOL0     C89534   5.067  11.372  10.757  0.3693 -0.4832  0.4695
  664MOL0     C89535   4.926  11.372  10.745 -0.1723 -0.5902 -0.4051
  664MOL0     O89536   4.856  11.323  10.844 -0.2939 -0.7415 -0.1707
  664MOL0     C89537   4.726  11.296  10.846 -0.3023  0.4891 -0.4493
  664MOL0     C89538   4.626  11.320  10.745 -0.6301 -0.4384 -0.4021
  664MOL0     C89539   4.494  11.295  10.773 -0.4790 -0.7507 -0.6290
  664MOL0     C89540   4.453  11.258  10.904  1.3788 -0.3491  1.7522
  664MOL0     O89541   4.321  11.265  10.937  0.3666 -0.7274 -0.1387
  664MOL0     C89542   4.240  11.179  10.852  0.5187 -0.0122 -0.7243
  664MOL0     C89543   4.144  11.107  10.948 -1.0485  0.4941 -0.4884
  664MOL0     C89544   4.048  11.213  11.006  0.3593 -0.0074 -0.2262
  664MOL0     C89545   3.919  11.143  11.055 -0.0907 -0.9412 -0.4396
  664MOL0     C89546   3.844  11.060  10.952 -1.0741  0.4709 -0.2361
  664MOL0     C89547   3.700  11.020  11.003 -0.0980 -0.3489 -0.1504
  664MOL0     C89548   3.615  10.976  10.887 -0.6449  0.3113  1.1175
  664MOL0     C89549   3.638  10.833  10.843 -0.0756 -1.0527  0.3310
  664MOL0    Cl89550   3.604  10.810  10.669  0.1695  0.1688  0.2353
  664MOL0     C89551   4.550  11.244  10.996  0.2210  0.4118  1.0576
  664MOL0     C89552   4.685  11.253  10.972  0.4567 -0.4768 -0.5946
  664MOL0     O89553   4.879  11.438  10.652 -0.0913 -0.7574 -0.1847
  664MOL0     C89554   5.138  11.325  10.644 -0.5315  0.6183  0.8735
  664MOL0     C89555   5.283  11.324  10.647  0.7163 -0.5561  0.1226
  664MOL0     N89556   5.949  11.736  11.039 -0.1277  0.3614 -0.5609
  664MOL0     N89557   6.009  11.819  11.120 -0.2407  0.0461  0.9034
  664MOL0     C89558   5.557  11.180  11.508  0.0548 -0.1749 -0.1706
  664MOL0     C89559   5.508  11.139  11.386 -0.2584  0.3685 -0.5283
  664MOL0     C89560   5.249  11.101  11.024 -0.5544  0.1126  0.0658
  664MOL0     C89561   5.352  11.057  10.938  0.9881 -0.5960  0.6158
  664MOL0     C89562   5.306  11.003  10.817 -0.4370  0.8972 -0.9246
  664MOL0     C89563   5.174  10.979  10.783  0.1383 -0.1160 -0.0551
  664MOL0     O89564   5.126  10.916  10.673  0.1798 -0.2236  0.2474
  664MOL0     C89565   5.218  10.904  10.563 -0.3516  0.7018 -0.2165
  664MOL0     C89566   5.129  10.856  10.454  0.3749  0.4917  0.3759
  664MOL0     C89567   5.085  10.972  10.362  0.7318  0.5362  0.5089
  664MOL0     C89568   4.982  10.941  10.253  0.9567  0.1555  0.1855
  664MOL0     C89569   4.837  10.943  10.302 -1.2069  0.3080  0.3223
  664MOL0     C89570   4.727  10.944  10.352 -0.8222  1.6104  0.2955
  664MOL0     C89571   5.075  11.016  10.878 -0.1230  0.7704 -0.1310
  664MOL0     C89572   5.114  11.081  10.996  1.0738  0.0242  0.6693
  664MOL0     H89573   5.474  11.453  11.244 -2.5722  0.6642  1.4189
  664MOL0     H89574   5.537  11.508  11.492  0.5794  0.5475 -3.0435
  664MOL0     H89575   5.629  11.221  11.811  1.4210  0.2706  1.2574
  664MOL0     H89576   5.760  11.254  11.697 -0.0296  2.3506 -1.0853
  664MOL0     H89577   5.669  11.433  11.924  1.4074 -3.6637  2.2908
  664MOL0     H89578   5.829  11.372  11.915  1.2052  0.8076 -0.4483
  664MOL0     H89579   5.706  11.566  11.706  1.5066 -2.1387 -3.3687
  664MOL0     H89580   5.810  11.610  11.842  0.1412 -1.5097  1.2293
  664MOL0     H89581   5.998  11.489  11.744  1.0145  3.8126 -1.1242
  664MOL0     H89582   5.899  11.406  11.620  2.4867 -0.1146 -1.3865
  664MOL0     H89583   5.866  11.656  11.544 -0.6497  0.2232 -0.1004
  664MOL0     H89584   5.974  11.705  11.666 -1.2664 -0.0192  0.4869
  664MOL0     H89585   6.160  11.565  11.572 -0.5003  1.2991  1.0468
  664MOL0     H89586   6.070  11.535  11.432  1.1596 -1.3652  1.9050
  664MOL0     H89587   6.173  11.798  11.533 -0.5451 -0.6731  0.6924
  664MOL0     H89588   6.208  11.720  11.374  0.2597 -0.8075  0.8608
  664MOL0     H89589   6.071  11.913  11.355  1.7896 -1.1054  0.2464
  664MOL0     H89590   5.937  11.834  11.437  0.0507  1.8460  0.7312
  664MOL0     H89591   5.886  11.566  11.298  2.5410  0.6139  0.2242
  664MOL0     H89592   5.825  11.420  11.054  1.7782  0.6726  1.5438
  664MOL0     H89593   5.709  11.541  11.067 -0.6506  2.5547 -3.0908
  664MOL0     H89594   5.895  11.488  10.835 -0.0921 -0.7054 -0.9981
  664MOL0     H89595   5.770  11.619  10.828 -1.1616  0.9462  1.7431
  664MOL0     H89596   5.756  11.319  10.825 -0.0294  0.0816 -2.3209
  664MOL0     H89597   5.697  11.445  10.702 -3.1045  2.3715  0.3904
  664MOL0     H89598   5.535  11.523  10.899  1.4645  0.6982 -0.4094
  664MOL0     H89599   5.543  11.352  10.955 -0.4682  0.7384  1.1744
  664MOL0     H89600   5.328  11.462  10.959  2.6170  2.2211 -2.0077
  664MOL0     H89601   5.033  11.561  11.007  2.1609  2.3035  1.7649
  664MOL0     H89602   4.987  11.391  11.020  1.6641 -2.3370 -3.6366
  664MOL0     H89603   5.147  11.444  11.086  2.8821 -0.0888 -2.7303
  664MOL0     H89604   4.661  11.355  10.648 -2.0656  0.4164 -0.6375
  664MOL0     H89605   4.414  11.314  10.702  1.5391  1.2370 -2.5034
  664MOL0     H89606   4.177  11.229  10.777 -2.1056 -3.1613 -0.8911
  664MOL0     H89607   4.300  11.098  10.809  0.0133 -1.6174  1.4529
  664MOL0     H89608   4.098  11.042  10.874  0.4817  0.6897 -1.6602
  664MOL0     H89609   4.197  11.049  11.024 -2.3201 -0.5201 -0.3425
  664MOL0     H89610   4.020  11.279  10.923  0.1156 -0.0310 -0.1629
  664MOL0     H89611   4.107  11.260  11.085 -0.4406 -3.2114  2.5346
  664MOL0     H89612   3.948  11.078  11.138  1.7834 -3.7243 -3.0764
  664MOL0     H89613   3.863  11.229  11.094  1.8076  0.4868 -0.6788
  664MOL0     H89614   3.902  10.972  10.925 -2.6290 -0.7267  0.1960
  664MOL0     H89615   3.829  11.116  10.859 -0.1063 -1.4812 -1.6218
  664MOL0     H89616   3.711  10.953  11.089 -2.2882  0.5510  0.8976
  664MOL0     H89617   3.648  11.108  11.043  0.9224 -0.2249  0.9557
  664MOL0     H89618   3.638  11.048  10.808 -0.9141  0.5521  1.2570
  664MOL0     H89619   3.509  10.989  10.910 -0.6492  1.0129  0.7441
  664MOL0     H89620   3.575  10.770  10.905 -0.1057  0.0237  1.4198
  664MOL0     H89621   3.745  10.810  10.855  0.1816 -0.8734 -1.3232
  664MOL0     H89622   4.523  11.218  11.098  1.8293 -4.0554  0.5374
  664MOL0     H89623   4.750  11.236  11.057 -0.8500 -0.1428  0.5152
  664MOL0     H89624   5.075  11.290  10.563 -0.1056 -0.2191  0.8939
  664MOL0     H89625   5.346  11.304  10.561  0.1114 -1.6868 -0.0776
  664MOL0     H89626   5.595  11.096  11.565 -0.5931 -1.1491 -1.1485
  664MOL0     H89627   5.495  11.034  11.360 -0.7644  0.2480  0.1841
  664MOL0     H89628   5.459  11.071  10.950  1.5686  1.1161 -4.1784
  664MOL0     H89629   5.386  10.984  10.746  0.4042  1.2229 -0.0926
  664MOL0     H89630   5.273  10.994  10.536 -0.4905  1.3431  1.5463
  664MOL0     H89631   5.287  10.819  10.573  1.8429  2.4584  0.4625
  664MOL0     H89632   5.044  10.805  10.501  0.8552 -1.0157 -0.3062
  664MOL0     H89633   5.183  10.778  10.400  0.5585  1.2464 -0.5430
  664MOL0     H89634   5.175  11.016  10.318  0.9594 -2.0497 -1.8844
  664MOL0     H89635   5.041  11.040  10.436 -0.6183  0.3954 -0.1473
  664MOL0     H89636   5.002  10.851  10.194 -0.6780  0.8484 -1.5291
  664MOL0     H89637   4.999  11.013  10.173  1.8940  0.5182  0.6880
  664MOL0     H89638   4.634  10.946  10.405 -0.9032  1.9520  0.1398
  664MOL0     H89639   4.971  11.003  10.851  0.2837  1.9427 -2.6433
  664MOL0     H89640   5.035  11.102  11.068  0.5527 -2.4984  0.9209
  665MOL0     O89641   5.334   7.516  10.925  0.6629 -0.2494 -0.0603
  665MOL0     C89642   5.269   7.530  10.825  0.6225 -0.1338  0.9770
  665MOL0     O89643   5.302   7.624  10.726  0.4157  0.2282  0.3592
  665MOL0     C89644   5.409   7.699  10.747 -0.1612 -0.0752  0.0317
  665MOL0     C89645   5.409   7.804  10.835 -0.2758  0.4191 -0.4211
  665MOL0     C89646   5.528   7.869  10.868  0.1564  0.6873 -0.5696
  665MOL0     C89647   5.641   7.838  10.799 -0.6290  0.1388  0.5973
  665MOL0     O89648   5.759   7.900  10.803  0.3233  0.1672  0.2024
  665MOL0     C89649   5.804   7.960  10.921  0.0533 -0.0715 -0.1030
  665MOL0     C89650   5.952   7.977  10.916 -0.5273 -0.9013 -0.0000
  665MOL0     C89651   6.032   7.854  10.954 -0.0895 -0.6294  0.0615
  665MOL0     C89652   6.066   7.834  11.109  0.0061  1.0931  0.0897
  665MOL0     C89653   6.118   7.957  11.189  0.7783  0.0934  0.1518
  665MOL0     C89654   6.270   7.979  11.172 -0.5941 -0.6937  0.0339
  665MOL0     C89655   6.359   7.876  11.239 -0.9770  0.1776  0.1404
  665MOL0     C89656   6.504   7.917  11.222  0.6625  0.4848  1.1824
  665MOL0     N89657   6.595   7.811  11.252  0.3166  0.1555 -1.0712
  665MOL0     C89658   6.638   7.714  11.160  0.2340  0.0977 -0.8822
  665MOL0     C89659   6.727   7.644  11.235 -0.6132  0.0134  0.6837
  665MOL0     C89660   6.801   7.529  11.174  0.2247 -0.9417  0.1012
  665MOL0     C89661   6.950   7.564  11.168 -1.2972  0.4330 -0.4485
  665MOL0     C89662   6.974   7.658  11.051  0.4297 -0.1071  0.0843
  665MOL0     C89663   7.130   7.704  11.045  0.3381  0.2843 -0.5853
  665MOL0     O89664   7.151   7.783  10.930 -0.3235 -0.4183  0.3060
  665MOL0     C89665   7.283   7.766  10.883 -0.3319 -0.6653 -0.5801
  665MOL0     C89666   7.308   7.719  10.754  0.1239 -0.1758  0.3776
  665MOL0     C89667   7.438   7.707  10.705  0.0855 -0.1212 -0.0284
  665MOL0     C89668   7.447   7.642  10.563  0.5273 -0.7276 -0.4405
  665MOL0     C89669   7.547   7.753  10.776  0.5032 -0.6873 -0.2191
  665MOL0     C89670   7.684   7.760  10.718  0.3263 -0.3060 -0.0044
  665MOL0     O89671   7.768   7.830  10.796  0.0743 -0.5257  0.0047
  665MOL0     C89672   7.886   7.881  10.740  1.1809  0.2746  0.0912
  665MOL0     C89673   7.882   7.992  10.649 -0.1114 -0.0955  0.2608
  665MOL0     C89674   8.010   8.036  10.600  0.3370 -0.1118  0.2283
  665MOL0     C89675   8.129   7.982  10.637  0.7198  0.6486 -1.0992
  665MOL0     O89676   8.243   8.040  10.594  0.4250 -0.4924  0.0172
  665MOL0     C89677   8.367   7.967  10.573  0.3223  0.2811 -0.0023
  665MOL0     C89678   8.455   8.079  10.512  0.1541 -0.7078  0.0333
  665MOL0     C89679   8.604   8.040  10.498 -0.1746  0.7922  0.5050
  665MOL0     C89680   8.670   8.005  10.631  0.0172 -0.2507  0.3817
  665MOL0     C89681   8.821   8.005  10.642 -0.4199 -0.4265 -0.3862
  665MOL0     C89682   8.887   7.901  10.550 -0.0175 -0.2457 -0.0103
  665MOL0     C89683   8.842   7.759  10.577 -1.3499  0.4354 -0.7540
  665MOL0     C89684   8.920   7.654  10.490 -0.8383  0.0292  0.3618
  665MOL0    Cl89685   9.089   7.631  10.534 -0.2817 -0.1184 -0.1221
  665MOL0     C89686   8.129   7.880  10.730 -1.1131  0.2087  0.2625
  665MOL0     C89687   8.010   7.828  10.783 -0.6243  0.2289  0.0422
  665MOL0     O89688   7.711   7.697  10.615 -0.2647  0.0003  0.2662
  665MOL0     C89689   7.520   7.808  10.906 -0.1962 -0.1730 -0.0999
  665MOL0     C89690   7.390   7.806  10.960  0.1860 -0.3422 -0.4134
  665MOL0     N89691   6.732   7.689  11.365  0.1357 -0.0669  0.0842
  665MOL0     N89692   6.647   7.785  11.379 -0.1773  0.4778  0.3306
  665MOL0     C89693   5.635   7.740  10.697  0.0977 -0.4321  0.5326
  665MOL0     C89694   5.520   7.665  10.677 -0.3207  0.7096 -0.7608
  665MOL0     C89695   5.149   7.444  10.794 -0.0645 -0.0485 -0.4311
  665MOL0     C89696   5.062   7.467  10.685 -0.3571 -0.2810 -0.0012
  665MOL0     C89697   4.961   7.373  10.655  0.0817 -0.3320  0.2139
  665MOL0     C89698   4.953   7.252  10.717 -0.0493  0.0493  0.3919
  665MOL0     O89699   4.863   7.164  10.667 -0.7129  0.1985 -0.1754
  665MOL0     C89700   4.840   7.039  10.734 -0.0000 -0.8888  0.4050
  665MOL0     C89701   4.757   7.061  10.862 -0.4442 -0.2754 -1.1446
  665MOL0     C89702   4.721   6.928  10.936 -0.1983 -0.6352 -0.3387
  665MOL0     C89703   4.820   6.808  10.938  0.3160  0.0650  0.0593
  665MOL0     C89704   4.956   6.824  10.988 -0.2463 -0.1017  0.2395
  665MOL0     C89705   5.063   6.847  11.030 -0.3472  0.2409  0.8479
  665MOL0     C89706   5.042   7.222  10.821 -0.1398 -0.0138  0.1510
  665MOL0     C89707   5.135   7.316  10.858 -0.1210  0.1079  0.0654
  665MOL0     H89708   5.327   7.855  10.885  1.1872  3.0138 -0.5105
  665MOL0     H89709   5.538   7.954  10.934  0.0848 -0.1548  0.5628
  665MOL0     H89710   5.764   8.062  10.929  2.7620  1.0399  0.5763
  665MOL0     H89711   5.764   7.918  11.014 -0.4473  1.1083  0.2323
  665MOL0     H89712   5.976   8.006  10.814 -2.8257  2.1035  0.1533
  665MOL0     H89713   5.983   8.057  10.984  0.5928  1.2186 -2.8419
  665MOL0     H89714   5.985   7.761  10.922 -0.2807 -0.8755  1.0170
  665MOL0     H89715   6.131   7.863  10.907  0.7406  1.6130  1.9959
  665MOL0     H89716   5.980   7.784  11.156  0.0986  2.3320  1.6650
  665MOL0     H89717   6.139   7.754  11.125 -1.4704 -0.2464  0.4076
  665MOL0     H89718   6.050   8.040  11.171 -2.5192 -2.5999 -1.0261
  665MOL0     H89719   6.109   7.934  11.295 -1.8584  1.5445  0.3283
  665MOL0     H89720   6.293   7.969  11.066 -0.9552  0.4550 -0.1677
  665MOL0     H89721   6.288   8.081  11.208 -0.4685 -0.9032  0.5699
  665MOL0     H89722   6.355   7.878  11.349 -2.0309  2.1517  0.1174
  665MOL0     H89723   6.345   7.771  11.210 -0.6085 -0.1143  0.9684
  665MOL0     H89724   6.526   8.010  11.274 -0.1511  2.4726 -1.7910
  665MOL0     H89725   6.515   7.947  11.117  0.2953  2.1184  1.5835
  665MOL0     H89726   6.626   7.711  11.053 -0.8025  1.5606 -0.8397
  665MOL0     H89727   6.782   7.437  11.230 -0.5274 -1.3563 -0.8015
  665MOL0     H89728   6.758   7.504  11.076 -0.0529 -1.1357  0.2698
  665MOL0     H89729   7.010   7.476  11.144 -0.5838  0.9059 -0.4345
  665MOL0     H89730   6.987   7.618  11.255 -0.2401  0.4911 -0.9212
  665MOL0     H89731   6.907   7.744  11.044 -1.5412 -1.7477 -4.3340
  665MOL0     H89732   6.940   7.609  10.960  0.0036 -2.5424  1.4662
  665MOL0     H89733   7.191   7.613  11.039 -2.6025 -1.7784 -1.7621
  665MOL0     H89734   7.159   7.753  11.138  3.7027 -2.2273 -0.1320
  665MOL0     H89735   7.225   7.677  10.697  2.2936  0.2691 -3.4196
  665MOL0     H89736   7.357   7.589  10.531  1.1501 -1.4705 -0.9884
  665MOL0     H89737   7.466   7.727  10.496 -1.5085 -0.4931 -0.8091
  665MOL0     H89738   7.523   7.565  10.551  0.9560 -0.0740 -2.2810
  665MOL0     H89739   7.786   8.036  10.625  0.9667  1.7073 -0.9942
  665MOL0     H89740   8.015   8.120  10.532  2.1013 -1.0461 -0.8835
  665MOL0     H89741   8.413   7.932  10.666  4.0352 -0.8087 -2.0273
  665MOL0     H89742   8.359   7.887  10.499  1.2480  0.3749 -0.2139
  665MOL0     H89743   8.417   8.104  10.413 -1.0944 -2.2109  0.0926
  665MOL0     H89744   8.457   8.171  10.570  2.3590 -1.0655  0.6336
  665MOL0     H89745   8.672   8.115  10.457  1.6563 -1.7639 -1.4210
  665MOL0     H89746   8.621   7.950  10.438  1.7460  1.1854  0.4171
  665MOL0     H89747   8.639   8.088  10.695 -2.8826 -0.4088 -0.6737
  665MOL0     H89748   8.632   7.908  10.661 -1.7319  0.2603 -0.0939
  665MOL0     H89749   8.860   8.002  10.745  0.2803 -0.3898 -0.6482
  665MOL0     H89750   8.846   8.105  10.607 -2.0301  0.6074  1.2404
  665MOL0     H89751   8.874   7.929  10.445  0.4313 -0.5819 -0.1587
  665MOL0     H89752   8.993   7.906  10.575  0.1862 -3.9357  0.4363
  665MOL0     H89753   8.737   7.748  10.551 -0.9825 -1.4882 -1.5685
  665MOL0     H89754   8.852   7.736  10.683  0.5458 -0.1873 -1.0164
  665MOL0     H89755   8.916   7.677  10.383  1.4242  0.1480  0.2501
  665MOL0     H89756   8.872   7.557  10.511 -4.1641  1.8132  1.7553
  665MOL0     H89757   8.222   7.847  10.774 -0.1614  0.6183 -1.3937
  665MOL0     H89758   8.005   7.744  10.852  0.5238 -1.0319 -1.3703
  665MOL0     H89759   7.597   7.862  10.961 -2.2512  0.5880  2.2063
  665MOL0     H89760   7.356   7.835  11.059 -1.4261  0.4072 -1.1490
  665MOL0     H89761   5.717   7.750  10.627 -1.0157  3.0876 -0.4781
  665MOL0     H89762   5.510   7.585  10.604 -1.1175 -0.2969  0.4157
  665MOL0     H89763   5.077   7.551  10.618  0.5133  1.4920  2.2848
  665MOL0     H89764   4.890   7.380  10.573 -1.9321 -1.2730  1.7882
  665MOL0     H89765   4.794   6.973  10.659  2.1217  0.9061 -2.7239
  665MOL0     H89766   4.928   6.989  10.774  0.4670 -2.6842 -2.5789
  665MOL0     H89767   4.670   7.123  10.839  0.0206  0.2965 -1.3995
  665MOL0     H89768   4.806   7.136  10.925  2.7861 -1.1654 -2.3544
  665MOL0     H89769   4.628   6.890  10.894 -0.4420  0.5227 -0.8993
  665MOL0     H89770   4.689   6.960  11.036  1.0816 -0.5318  0.0627
  665MOL0     H89771   4.840   6.769  10.838 -0.1941 -0.9721  0.3496
  665MOL0     H89772   4.777   6.720  10.987 -2.5168  0.7462 -1.0206
  665MOL0     H89773   5.147   6.865  11.094  0.3567  1.2809 -0.3323
  665MOL0     H89774   5.047   7.129  10.877 -2.5846 -0.2093  0.1398
  665MOL0     H89775   5.204   7.278  10.933 -1.6068 -0.5456  1.1565
  666MOL0     O89776  10.664  11.065   5.376 -0.0926  0.5431 -0.2955
  666MOL0     C89777  10.684  11.185   5.384  0.6178 -0.1070 -0.1004
  666MOL0     O89778  10.588  11.283   5.403 -0.0933 -0.4019 -0.5155
  666MOL0     C89779  10.453  11.280   5.388 -0.2121  0.1332 -0.8149
  666MOL0     C89780  10.378  11.163   5.398 -0.2446  0.4716 -0.8938
  666MOL0     C89781  10.240  11.164   5.401  0.3562 -0.1036  0.3275
  666MOL0     C89782  10.176  11.286   5.390 -0.4601 -0.6255 -0.0908
  666MOL0     O89783  10.048  11.307   5.365  0.0989  0.1645 -0.8924
  666MOL0     C89784   9.955  11.191   5.401 -0.2761 -0.8309 -0.5374
  666MOL0     C89785   9.817  11.218   5.339 -0.5402 -0.1299 -1.2879
  666MOL0     C89786   9.716  11.103   5.373  0.0682  0.2093 -0.4147
  666MOL0     C89787   9.579  11.113   5.309  0.1833  0.0088 -0.3073
  666MOL0     C89788   9.503  11.240   5.337 -0.4542 -0.4367  0.0410
  666MOL0     C89789   9.481  11.278   5.483 -0.1349  0.2521  0.6898
  666MOL0     C89790   9.341  11.239   5.535 -0.7530 -0.8119 -0.8803
  666MOL0     C89791   9.295  11.309   5.666 -0.3035 -0.0577 -0.1290
  666MOL0     N89792   9.200  11.223   5.731  0.2367 -0.5720  0.3249
  666MOL0     C89793   9.221  11.103   5.790  1.3102 -0.2406 -0.5912
  666MOL0     C89794   9.109  11.061   5.848  0.3356  0.3050 -0.0521
  666MOL0     C89795   9.088  10.932   5.932  0.8595  0.6857  0.2037
  666MOL0     C89796   9.003  10.843   5.839  1.0800 -0.2802 -0.0226
  666MOL0     C89797   8.953  10.712   5.909 -0.2317  0.0316  0.2644
  666MOL0     C89798   8.863  10.731   6.036  0.2533 -0.2667  0.2995
  666MOL0     O89799   8.738  10.767   5.993  0.4170 -0.8446  0.1304
  666MOL0     C89800   8.638  10.669   5.993  0.2093 -0.8282  1.1803
  666MOL0     C89801   8.627  10.559   6.077 -0.7201 -0.0533 -0.0222
  666MOL0     C89802   8.507  10.477   6.084 -1.1492 -0.6328 -0.5023
  666MOL0     C89803   8.504  10.349   6.169 -0.4473  0.2446 -0.7992
  666MOL0     C89804   8.393  10.520   6.006 -0.2518 -0.3399  1.0320
  666MOL0     C89805   8.270  10.447   5.984 -0.0581 -1.0151 -0.0781
  666MOL0     O89806   8.188  10.497   5.892 -0.8184 -0.2171  0.6588
  666MOL0     C89807   8.071  10.424   5.865 -1.1139 -0.5711  0.6397
  666MOL0     C89808   8.065  10.287   5.865 -0.3913  0.1297 -0.3420
  666MOL0     C89809   7.944  10.220   5.877  0.4156  0.2467 -0.9267
  666MOL0     C89810   7.821  10.286   5.867  1.0835 -0.5829 -0.2340
  666MOL0     O89811   7.698  10.218   5.853  0.5205 -0.9265  0.0866
  666MOL0     C89812   7.685  10.077   5.884  0.2290  0.5738 -0.0767
  666MOL0     C89813   7.690   9.981   5.752 -1.1007 -0.4141  0.0676
  666MOL0     C89814   7.589  10.020   5.639  0.7089 -0.8511 -0.4247
  666MOL0     C89815   7.584   9.933   5.517 -0.6577  0.1581  0.3093
  666MOL0     C89816   7.554  10.015   5.389  0.0147 -0.2141 -0.2611
  666MOL0     C89817   7.547   9.929   5.264 -0.2957 -0.2283  0.3603
  666MOL0     C89818   7.540   9.996   5.131 -0.0814  0.3930  0.4571
  666MOL0     C89819   7.528   9.894   5.022  0.3899  0.0898 -0.6062
  666MOL0    Cl89820   7.474  10.001   4.881 -0.0476  0.1056  0.2821
  666MOL0     C89821   7.827  10.423   5.838 -0.0810  0.1555  0.3233
  666MOL0     C89822   7.951  10.495   5.847 -0.3636 -0.7052 -0.8836
  666MOL0     O89823   8.236  10.369   6.075 -0.4999 -0.7614 -0.0530
  666MOL0     C89824   8.412  10.627   5.912 -0.2314 -0.7032  0.3417
  666MOL0     C89825   8.527  10.697   5.908  0.3416 -0.9408 -0.8090
  666MOL0     N89826   9.010  11.156   5.815 -0.5476  0.9773 -0.1816
  666MOL0     N89827   9.064  11.250   5.750 -0.0824 -0.0539 -0.2744
  666MOL0     C89828  10.252  11.399   5.377 -0.7718 -0.9187 -0.2955
  666MOL0     C89829  10.390  11.409   5.372 -0.0792  0.6134  0.9772
  666MOL0     C89830  10.828  11.228   5.386 -0.5725 -0.5436 -0.0915
  666MOL0     C89831  10.866  11.362   5.422 -0.5167  0.0384 -1.6548
  666MOL0     C89832  10.999  11.400   5.421 -0.8652  0.4797 -0.1107
  666MOL0     C89833  11.100  11.314   5.380  0.2034  0.5693 -0.5239
  666MOL0     O89834  11.231  11.339   5.390 -0.2929  0.4727 -0.0891
  666MOL0     C89835  11.283  11.469   5.380  0.4205 -0.2140  0.0162
  666MOL0     C89836  11.436  11.476   5.382  0.6444 -0.3099 -0.5693
  666MOL0     C89837  11.508  11.385   5.281  0.0413  1.1367  0.3637
  666MOL0     C89838  11.653  11.426   5.271  0.3663 -0.2837  0.6821
  666MOL0     C89839  11.733  11.373   5.378  0.4547 -0.2204  0.1174
  666MOL0     C89840  11.809  11.324   5.455  0.4137  0.2403  0.7274
  666MOL0     C89841  11.073  11.178   5.346  0.8592 -0.9044  1.3440
  666MOL0     C89842  10.935  11.142   5.340 -0.2803 -0.4158 -0.1963
  666MOL0     H89843  10.423  11.064   5.408  0.8086  0.8840 -1.4275
  666MOL0     H89844  10.205  11.061   5.411  2.5488 -0.8095  1.4451
  666MOL0     H89845   9.988  11.088   5.382  1.0747 -1.0739  2.5226
  666MOL0     H89846   9.939  11.191   5.510  0.9004  0.7914 -0.3169
  666MOL0     H89847   9.776  11.315   5.370 -0.0253 -0.7202  1.5327
  666MOL0     H89848   9.828  11.227   5.230 -2.5702  3.0342 -1.3708
  666MOL0     H89849   9.755  11.007   5.340 -2.0653 -0.2886 -1.7212
  666MOL0     H89850   9.698  11.095   5.481 -0.1260  1.1384 -0.3688
  666MOL0     H89851   9.594  11.110   5.201 -0.8585 -1.6048 -0.4453
  666MOL0     H89852   9.522  11.026   5.345  0.6365 -0.1114  0.1328
  666MOL0     H89853   9.568  11.311   5.286  0.4735 -1.1742  0.1742
  666MOL0     H89854   9.408  11.229   5.283  0.3358 -1.0183 -1.2713
  666MOL0     H89855   9.560  11.241   5.549 -0.1093  1.8591  1.6161
  666MOL0     H89856   9.499  11.386   5.481 -1.2051  0.4517  1.4637
  666MOL0     H89857   9.268  11.274   5.462  0.2208  3.5769 -0.0509
  666MOL0     H89858   9.341  11.131   5.548 -0.1268 -1.1747 -3.4729
  666MOL0     H89859   9.254  11.408   5.642  0.5285  0.6861  1.3989
  666MOL0     H89860   9.384  11.328   5.727 -0.3452  0.2933 -0.1716
  666MOL0     H89861   9.323  11.064   5.793  2.3279  1.5067 -4.9539
  666MOL0     H89862   9.182  10.880   5.950 -0.0765 -0.9134  0.6426
  666MOL0     H89863   9.039  10.956   6.027  0.8858  0.5331  0.2547
  666MOL0     H89864   9.071  10.818   5.757  1.0676  1.1290 -0.4932
  666MOL0     H89865   8.918  10.900   5.799 -0.1352 -2.0023  0.0077
  666MOL0     H89866   9.034  10.649   5.947 -0.1761 -1.1616 -1.7039
  666MOL0     H89867   8.904  10.650   5.833  1.2986  0.1450 -0.8513
  666MOL0     H89868   8.893  10.812   6.103 -4.3478 -0.1963  2.6873
  666MOL0     H89869   8.862  10.634   6.087 -0.5114 -0.7515 -0.5949
  666MOL0     H89870   8.709  10.535   6.145 -2.2957  0.6128  2.2271
  666MOL0     H89871   8.410  10.321   6.218  0.7661  1.5399  2.5867
  666MOL0     H89872   8.539  10.269   6.104  2.5279  0.5014  0.3641
  666MOL0     H89873   8.573  10.361   6.253 -0.6922 -1.7401 -0.2705
  666MOL0     H89874   8.160  10.234   5.858 -0.8968 -0.7430 -0.7390
  666MOL0     H89875   7.940  10.112   5.892  0.8218  0.4047  0.5603
  666MOL0     H89876   7.755  10.040   5.958  0.0205 -1.2705 -0.7368
  666MOL0     H89877   7.583  10.067   5.922 -0.3357  3.1711 -0.7611
  666MOL0     H89878   7.791   9.996   5.711 -0.6189 -0.0239  1.3463
  666MOL0     H89879   7.682   9.877   5.785 -0.4540  0.4730  3.4989
  666MOL0     H89880   7.620  10.118   5.600  0.7557 -0.1484  1.2971
  666MOL0     H89881   7.488  10.016   5.681  0.7036  1.1229 -0.1389
  666MOL0     H89882   7.680   9.881   5.505 -0.4291  1.1398 -3.2661
  666MOL0     H89883   7.512   9.851   5.531  0.1907 -0.3615  1.9846
  666MOL0     H89884   7.631  10.091   5.372  0.2626 -0.7471 -1.6722
  666MOL0     H89885   7.460  10.071   5.399  0.6915  0.9270 -0.1127
  666MOL0     H89886   7.622   9.850   5.258 -1.3593 -1.3999  1.7206
  666MOL0     H89887   7.456   9.869   5.278  0.5935 -1.4360  1.1676
  666MOL0     H89888   7.628  10.056   5.107  0.8338 -1.2134 -0.4082
  666MOL0     H89889   7.453  10.062   5.139 -0.6776 -0.5482  2.2367
  666MOL0     H89890   7.452   9.820   5.048  0.9273  0.1806  1.4156
  666MOL0     H89891   7.622   9.846   4.994 -0.1774 -0.8464 -0.9491
  666MOL0     H89892   7.735  10.480   5.831  0.1084  0.4439  0.0886
  666MOL0     H89893   7.955  10.602   5.860 -1.3325 -0.9742  2.6315
  666MOL0     H89894   8.342  10.637   5.829 -0.5156 -0.7397  0.5776
  666MOL0     H89895   8.531  10.777   5.835  1.1593  0.1654  0.4009
  666MOL0     H89896  10.208  11.499   5.376 -2.7152 -1.5114  3.7326
  666MOL0     H89897  10.448  11.500   5.361  0.7123  0.3084  2.3725
  666MOL0     H89898  10.787  11.422   5.466  0.9086  0.1590  0.9396
  666MOL0     H89899  11.027  11.493   5.469 -0.6438  0.9089 -1.0458
  666MOL0     H89900  11.242  11.513   5.289 -1.4467 -0.2933  0.7745
  666MOL0     H89901  11.238  11.532   5.458 -2.5266  0.7786 -2.2713
  666MOL0     H89902  11.472  11.464   5.485  0.8865 -1.2622 -0.7602
  666MOL0     H89903  11.452  11.584   5.369 -1.6555  0.4505  2.0510
  666MOL0     H89904  11.463  11.386   5.182  0.8783 -0.1566 -0.0661
  666MOL0     H89905  11.503  11.283   5.320 -1.2999  0.3641 -1.6827
  666MOL0     H89906  11.658  11.535   5.273  0.3974 -0.1614 -2.0400
  666MOL0     H89907  11.697  11.397   5.175 -2.5228  0.6320 -1.0661
  666MOL0     H89908  11.881  11.304   5.531  1.1221  0.5305  0.1419
  666MOL0     H89909  11.153  11.111   5.317  0.3933 -1.0008  0.2677
  666MOL0     H89910  10.920  11.039   5.310  0.3842 -1.6828  3.2485
  667MOL0     O89911   9.078  10.313   1.621 -0.5868 -0.0122 -0.4949
  667MOL0     C89912   9.015  10.208   1.641 -0.4213  0.1245 -0.1896
  667MOL0     O89913   9.062  10.095   1.703 -0.0960 -0.4599  0.0079
  667MOL0     C89914   9.185  10.092   1.752  0.6589  0.0812  0.3497
  667MOL0     C89915   9.255  10.194   1.814  0.7947 -0.6938 -0.8433
  667MOL0     C89916   9.372  10.160   1.885  0.6184 -0.3739  0.0095
  667MOL0     C89917   9.413  10.022   1.890 -0.0354  0.2897 -0.3354
  667MOL0     O89918   9.521   9.995   1.957 -0.4285  0.3697  0.2227
  667MOL0     C89919   9.536   9.884   2.051 -0.3145 -0.2963  0.0119
  667MOL0     C89920   9.650   9.791   2.008  0.3520  0.0914 -0.0551
  667MOL0     C89921   9.753   9.868   1.928 -0.0748 -0.4607 -1.2683
  667MOL0     C89922   9.873   9.776   1.903 -0.2307  0.1209 -1.4012
  667MOL0     C89923   9.972   9.809   2.018 -0.4787 -0.5019 -0.8132
  667MOL0     C89924  10.064   9.693   2.058 -0.4514  0.1830 -0.2315
  667MOL0     C89925  10.143   9.621   1.945  0.4886 -0.1945  1.0887
  667MOL0     C89926  10.240   9.515   2.003  0.1565  0.7060 -0.6561
  667MOL0     N89927  10.334   9.461   1.903 -0.3508  0.2714  0.1971
  667MOL0     C89928  10.457   9.409   1.934  0.1154  1.3212  0.2947
  667MOL0     C89929  10.489   9.349   1.811  0.2804  0.8343 -0.4735
  667MOL0     C89930  10.607   9.260   1.784 -0.3384 -0.3587 -0.5059
  667MOL0     C89931  10.568   9.145   1.690  0.7723  0.5069 -0.0134
  667MOL0     C89932  10.652   9.017   1.694  0.5360  0.4232 -0.2363
  667MOL0     C89933  10.759   9.015   1.586  0.2888  0.0309  0.1762
  667MOL0     O89934  10.839   9.128   1.601  1.0396  0.1311  0.1730
  667MOL0     C89935  10.911   9.171   1.494 -0.6539  0.7791  0.0412
  667MOL0     C89936  10.951   9.300   1.488  0.7152 -0.4884 -0.0168
  667MOL0     C89937  11.031   9.354   1.388 -0.4327  0.4003  1.1365
  667MOL0     C89938  11.085   9.490   1.419  0.6158 -0.2080  0.1214
  667MOL0     C89939  11.044   9.285   1.272  0.0650 -0.1878 -0.5534
  667MOL0     C89940  11.116   9.336   1.156 -0.5435 -0.4801 -0.1523
  667MOL0     O89941  11.168   9.241   1.064 -0.0822  0.7048 -0.1738
  667MOL0     C89942  11.228   9.280   0.957  0.0551 -0.8983  0.1969
  667MOL0     C89943  11.354   9.341   0.952  0.7664  1.0150 -0.6613
  667MOL0     C89944  11.414   9.376   0.832  0.3163 -0.2939  0.4659
  667MOL0     C89945  11.343   9.360   0.713  0.7539  0.0351 -1.1075
  667MOL0     O89946  11.398   9.393   0.600 -0.0433  0.6502  0.2980
  667MOL0     C89947  11.424   9.539   0.571  0.4425  1.1816 -1.0994
  667MOL0     C89948  11.292   9.611   0.556  0.3517  0.1831 -0.0238
  667MOL0     C89949  11.314   9.766   0.541  0.2315 -0.2013  0.6918
  667MOL0     C89950  11.368   9.837   0.655  0.1676  0.6651  0.1775
  667MOL0     C89951  11.408   9.982   0.626 -0.9755 -0.3561 -0.7425
  667MOL0     C89952  11.440  10.062   0.749 -0.0535  0.7409 -0.1201
  667MOL0     C89953  11.539  10.177   0.727  0.9425 -0.3215 -0.5120
  667MOL0     C89954  11.678  10.121   0.692  0.6663  0.6002 -0.0212
  667MOL0    Cl89955  11.808  10.249   0.707  0.1021 -0.0012  0.2093
  667MOL0     C89956  11.210   9.307   0.717 -0.6291  1.6870  0.2438
  667MOL0     C89957  11.151   9.268   0.839  0.2397  0.4649  0.4054
  667MOL0     O89958  11.142   9.456   1.146  0.6691 -0.7146 -0.6946
  667MOL0     C89959  11.003   9.152   1.270  0.5065 -0.4207 -0.0602
  667MOL0     C89960  10.939   9.094   1.384 -0.4463 -0.5898 -0.0968
  667MOL0     N89961  10.393   9.379   1.717 -0.0279 -0.3712  0.9151
  667MOL0     N89962  10.297   9.430   1.782 -0.2352 -0.0576 -0.2515
  667MOL0     C89963   9.350   9.931   1.812 -0.6837  0.5386  0.9604
  667MOL0     C89964   9.242   9.966   1.736 -0.6185  0.7877  0.0228
  667MOL0     C89965   8.871  10.210   1.593  0.3683 -0.7707 -0.8588
  667MOL0     C89966   8.801  10.318   1.542  0.4801 -0.2372  0.2078
  667MOL0     C89967   8.664  10.320   1.513 -0.0077 -0.4574 -0.6830
  667MOL0     C89968   8.596  10.198   1.534 -0.4864 -0.6008 -0.0105
  667MOL0     O89969   8.469  10.202   1.498  1.2709  0.1348  0.2521
  667MOL0     C89970   8.438  10.122   1.385  0.6930 -0.0292  0.2066
  667MOL0     C89971   8.291  10.151   1.339  0.2832  0.9530 -1.0285
  667MOL0     C89972   8.269  10.106   1.192 -0.2480  0.1020  0.3614
  667MOL0     C89973   8.304   9.966   1.156  0.3674  0.1398 -1.2403
  667MOL0     C89974   8.214   9.912   1.048 -0.3440 -0.0751  0.4776
  667MOL0     C89975   8.165   9.870   0.943  0.2161  0.0888 -0.1176
  667MOL0     C89976   8.662  10.083   1.579 -0.3995 -0.9453 -0.5408
  667MOL0     C89977   8.797  10.083   1.606  0.6869 -0.2741  0.6111
  667MOL0     H89978   9.202  10.288   1.812  0.0994 -1.0484 -4.2078
  667MOL0     H89979   9.428  10.228   1.949 -0.1403 -3.0702  3.9109
  667MOL0     H89980   9.551   9.928   2.150 -2.3876  2.9168 -0.9486
  667MOL0     H89981   9.447   9.821   2.053 -1.5519  1.3862  0.8821
  667MOL0     H89982   9.695   9.760   2.103  2.7233  1.1448 -0.7581
  667MOL0     H89983   9.625   9.697   1.958 -2.5459  0.2906  0.8615
  667MOL0     H89984   9.705   9.884   1.831 -1.1930 -0.4507 -0.7318
  667MOL0     H89985   9.783   9.960   1.979 -1.6683  0.3490 -1.7255
  667MOL0     H89986   9.827   9.677   1.892 -2.8416  1.3787 -2.5185
  667MOL0     H89987   9.924   9.797   1.809 -0.8682  2.1527 -1.3369
  667MOL0     H89988  10.040   9.888   1.986 -0.8625  1.0877  2.0571
  667MOL0     H89989   9.933   9.856   2.108  2.9451  1.3213 -0.1267
  667MOL0     H89990  10.134   9.723   2.137 -1.1095 -0.8902  0.7988
  667MOL0     H89991   9.996   9.621   2.105  0.4967 -2.1029 -2.1546
  667MOL0     H89992  10.070   9.577   1.877  0.1738  2.0113 -0.0680
  667MOL0     H89993  10.205   9.696   1.897  2.5251 -1.3673  1.7553
  667MOL0     H89994  10.177   9.429   2.024  1.2336 -0.7065 -2.8819
  667MOL0     H89995  10.291   9.563   2.087  1.4027  1.0535 -1.5640
  667MOL0     H89996  10.512   9.400   2.027  0.4599 -0.0573 -0.0106
  667MOL0     H89997  10.676   9.322   1.725  0.8922  0.1207  1.3446
  667MOL0     H89998  10.648   9.230   1.881  1.0878  2.3715 -0.1612
  667MOL0     H89999  10.574   9.198   1.595 -0.4803  0.9100  0.1056
  667MOL0     H90000  10.461   9.122   1.690  1.2707 -2.1603  0.6212
  667MOL0     H90001  10.591   8.927   1.683  1.1641  0.1378 -1.5170
  667MOL0     H90002  10.715   9.009   1.784  2.3896 -0.4002 -1.5516
  667MOL0     H90003  10.713   9.023   1.487 -0.8407  1.9201  0.8044
  667MOL0     H90004  10.817   8.923   1.575 -1.6675 -1.1587 -0.7962
  667MOL0     H90005  10.932   9.380   1.559  3.6443  0.4648 -0.1762
  667MOL0     H90006  11.187   9.507   1.384  0.3962  3.3437  0.8078
  667MOL0     H90007  11.028   9.578   1.387  0.2586  0.0493  1.4022
  667MOL0     H90008  11.089   9.500   1.528  0.4162  1.6792 -0.0045
  667MOL0     H90009  11.403   9.373   1.043 -0.6652 -0.5674  0.7332
  667MOL0     H90010  11.506   9.434   0.821 -1.5059  2.3367 -2.6226
  667MOL0     H90011  11.485   9.584   0.650  3.1083 -1.7902 -1.2572
  667MOL0     H90012  11.472   9.543   0.472  0.3249 -0.6581 -1.2731
  667MOL0     H90013  11.246   9.582   0.461  1.0346 -0.1727 -0.2509
  667MOL0     H90014  11.216   9.602   0.634 -3.0938 -0.0365 -3.1112
  667MOL0     H90015  11.220   9.820   0.523  1.0303  1.0113  0.0686
  667MOL0     H90016  11.379   9.797   0.459 -3.5200 -0.5187 -2.7367
  667MOL0     H90017  11.301   9.836   0.741  3.0391  1.3632  2.5499
  667MOL0     H90018  11.452   9.774   0.685 -1.3405 -0.9457  1.2154
  667MOL0     H90019  11.327  10.024   0.566 -0.3197  0.2689 -1.1992
  667MOL0     H90020  11.495   9.979   0.561 -0.4876  2.0125 -0.2699
  667MOL0     H90021  11.350  10.096   0.800  1.5364 -1.3638  4.8008
  667MOL0     H90022  11.486   9.993   0.821  0.7556 -0.8780 -2.0617
  667MOL0     H90023  11.536  10.230   0.823 -2.3093 -0.4372 -0.4425
  667MOL0     H90024  11.497  10.245   0.652  2.1853  0.3010 -0.6576
  667MOL0     H90025  11.686  10.084   0.590  2.5121  0.0540  0.2926
  667MOL0     H90026  11.708  10.042   0.761 -1.0277  0.4512  0.6143
  667MOL0     H90027  11.156   9.296   0.623  0.9348  0.6684 -0.5734
  667MOL0     H90028  11.049   9.231   0.840  0.6716 -1.4067 -3.7258
  667MOL0     H90029  11.012   9.090   1.182  1.6198  0.8034 -0.8475
  667MOL0     H90030  10.922   8.988   1.398  1.3908 -1.0184 -0.8495
  667MOL0     H90031   9.385   9.828   1.810 -1.0430  0.4180 -1.4936
  667MOL0     H90032   9.188   9.896   1.674  1.9120 -1.8949  0.6433
  667MOL0     H90033   8.844  10.416   1.527 -1.1282  0.5013  0.2055
  667MOL0     H90034   8.626  10.417   1.484 -0.4306 -0.3220  0.2895
  667MOL0     H90035   8.508  10.143   1.304 -0.7954 -2.1474 -1.7629
  667MOL0     H90036   8.450  10.015   1.407  0.1341 -0.1611 -0.0990
  667MOL0     H90037   8.271  10.258   1.355  0.8036  0.8341  0.5936
  667MOL0     H90038   8.226  10.093   1.405  2.0452  0.1200  0.0543
  667MOL0     H90039   8.331  10.172   1.130 -2.1126  0.2339 -1.4315
  667MOL0     H90040   8.167  10.121   1.156 -0.1084 -1.7977 -0.9965
  667MOL0     H90041   8.290   9.902   1.244  1.0047 -1.2527 -2.1231
  667MOL0     H90042   8.403   9.944   1.115  0.6071  0.3510 -0.7912
  667MOL0     H90043   8.136   9.837   0.845  1.4728 -1.8788  0.1308
  667MOL0     H90044   8.604   9.991   1.580  0.5441 -1.5539 -0.2264
  667MOL0     H90045   8.852   9.991   1.626  1.9673 -0.0924 -1.6689
  668MOL0     O90046   9.080   7.528  10.949  0.2999 -0.7869 -0.0370
  668MOL0     C90047   9.061   7.651  10.962  0.7005 -0.8867 -0.2711
  668MOL0     O90048   8.937   7.707  10.985  0.1086  0.4591  0.1627
  668MOL0     C90049   8.820   7.628  10.996 -0.2644  0.0295  0.1129
  668MOL0     C90050   8.778   7.514  10.928 -0.3190  0.1247  0.5631
  668MOL0     C90051   8.664   7.438  10.960  0.1163  0.7066 -0.3596
  668MOL0     C90052   8.574   7.487  11.050 -0.1629 -0.4757  0.1678
  668MOL0     O90053   8.451   7.431  11.077  0.3044  0.0042  1.3119
  668MOL0     C90054   8.372   7.376  10.968 -0.0189  0.2157  0.1651
  668MOL0     C90055   8.332   7.225  10.977  0.1341  0.4235 -0.0932
  668MOL0     C90056   8.238   7.190  10.868  1.0175  0.2517 -0.7127
  668MOL0     C90057   8.197   7.035  10.856  0.4895 -0.0059  0.5254
  668MOL0     C90058   8.073   7.024  10.777  0.6631  0.5238 -0.3212
  668MOL0     C90059   7.955   7.026  10.873 -0.4162 -0.0850 -0.0776
  668MOL0     C90060   7.819   7.026  10.803  0.1413  1.5290 -0.0744
  668MOL0     C90061   7.794   6.919  10.699  0.5578 -0.1781  0.4646
  668MOL0     N90062   7.788   6.789  10.769  0.4917  0.2398 -0.5473
  668MOL0     C90063   7.693   6.754  10.855 -0.1623 -0.0899  0.0442
  668MOL0     C90064   7.742   6.640  10.909  0.1066 -0.2916  0.5054
  668MOL0     C90065   7.662   6.554  11.004  0.0389  1.5759  0.2778
  668MOL0     C90066   7.643   6.409  10.969  0.6530 -0.5675 -0.0147
  668MOL0     C90067   7.606   6.333  11.100 -0.5011  0.3036  0.3236
  668MOL0     C90068   7.516   6.208  11.072 -0.5635  0.1135  0.4453
  668MOL0     O90069   7.465   6.156  11.193 -0.6118 -0.7058  0.2072
  668MOL0     C90070   7.404   6.037  11.194  0.4506 -0.6815  0.2050
  668MOL0     C90071   7.280   6.022  11.246 -0.2401  0.0082  0.3369
  668MOL0     C90072   7.205   5.908  11.223 -0.6861 -1.3313 -0.4466
  668MOL0     C90073   7.079   5.912  11.296  1.2672 -0.0746  0.2334
  668MOL0     C90074   7.250   5.801  11.142  0.1822 -0.3534  0.1976
  668MOL0     C90075   7.176   5.674  11.114  0.2583  0.0780 -0.0246
  668MOL0     O90076   7.237   5.561  11.042 -0.0836 -0.3797 -0.1972
  668MOL0     C90077   7.183   5.440  11.070 -0.1054 -0.7045  0.3963
  668MOL0     C90078   7.072   5.406  11.000  0.4224 -0.7211  1.0871
  668MOL0     C90079   7.004   5.294  11.022 -0.2787 -0.5836  0.4221
  668MOL0     C90080   7.045   5.201  11.116 -0.0828 -0.9051 -0.3149
  668MOL0     O90081   6.985   5.081  11.119  0.3415  0.2387 -0.3770
  668MOL0     C90082   7.006   4.991  11.231  0.3898  0.7564  0.8698
  668MOL0     C90083   6.884   4.890  11.234  0.5424  0.2076  0.9312
  668MOL0     C90084   6.906   4.756  11.290  0.4932  1.0013 -0.0335
  668MOL0     C90085   6.871   4.742  11.445  0.3499 -0.7635  0.8598
  668MOL0     C90086   6.913   4.611  11.497  0.1516  0.2041 -0.0609
  668MOL0     C90087   6.835   4.484  11.439  0.4410  0.0660 -0.2334
  668MOL0     C90088   6.683   4.495  11.465  0.3057  0.9156  0.5169
  668MOL0     C90089   6.602   4.526  11.334  0.7213 -0.2648  0.3887
  668MOL0    Cl90090   6.618   4.395  11.204 -0.1907 -0.2432  0.6789
  668MOL0     C90091   7.158   5.227  11.188  0.5998 -0.5170  0.3772
  668MOL0     C90092   7.235   5.350  11.163 -1.1571  0.5912  0.0846
  668MOL0     O90093   7.068   5.667  11.163 -0.4882 -0.1045  0.1155
  668MOL0     C90094   7.375   5.818  11.083 -0.4851 -0.7189 -0.2772
  668MOL0     C90095   7.454   5.930  11.111 -0.0808 -0.0621  0.1856
  668MOL0     N90096   7.869   6.618  10.856  0.4026 -0.3578 -0.0282
  668MOL0     N90097   7.895   6.711  10.777  0.7119 -0.3962  0.5063
  668MOL0     C90098   8.607   7.617  11.100 -0.5726 -0.4466 -0.5763
  668MOL0     C90099   8.724   7.682  11.079 -1.0002  1.0051 -0.5304
  668MOL0     C90100   9.180   7.741  10.972  0.8891 -0.4427 -0.1025
  668MOL0     C90101   9.154   7.881  10.978 -0.3788 -0.3298  0.0007
  668MOL0     C90102   9.269   7.965  10.994  0.5309  0.0215  0.6227
  668MOL0     C90103   9.405   7.919  10.988  1.0020  0.5378  0.2318
  668MOL0     O90104   9.507   8.012  10.982  0.1548 -0.8187  0.6173
  668MOL0     C90105   9.629   7.991  11.058 -0.3805 -0.5552  0.0272
  668MOL0     C90106   9.651   8.106  11.139 -0.8052  0.1083 -0.2567
  668MOL0     C90107   9.644   8.243  11.064 -0.4050 -0.4259 -1.1081
  668MOL0     C90108   9.709   8.363  11.144 -0.7871 -0.1563 -0.0386
  668MOL0     C90109   9.695   8.364  11.285 -0.4928  0.2701  0.4854
  668MOL0     C90110   9.684   8.370  11.410 -0.0139  1.0387  0.6080
  668MOL0     C90111   9.427   7.782  10.981 -1.1600 -0.4120  0.3520
  668MOL0     C90112   9.313   7.689  10.983  0.7096  0.1913 -0.1816
  668MOL0     H90113   8.847   7.475  10.854 -2.1820 -1.9128 -0.1876
  668MOL0     H90114   8.657   7.342  10.910 -1.3143 -0.4336  1.8574
  668MOL0     H90115   8.276   7.430  10.973 -2.3332 -3.2450 -2.3195
  668MOL0     H90116   8.416   7.381  10.868  3.4003 -0.6325  1.4870
  668MOL0     H90117   8.430   7.176  10.988 -0.3611 -0.4726  0.4347
  668MOL0     H90118   8.275   7.216  11.070 -0.0535 -1.3851 -0.3606
  668MOL0     H90119   8.149   7.253  10.878  1.9787  1.6401 -0.6706
  668MOL0     H90120   8.268   7.216  10.766  1.3284  0.4916 -0.5597
  668MOL0     H90121   8.285   6.983  10.817  2.1579  1.6079  1.9357
  668MOL0     H90122   8.191   6.983  10.952  2.0535  0.9052  1.1651
  668MOL0     H90123   8.062   7.105  10.705 -1.3096 -0.2067 -0.8896
  668MOL0     H90124   8.054   6.933  10.720  1.0860  0.7079 -0.7606
  668MOL0     H90125   7.958   6.948  10.949  3.5559  1.1551  1.2934
  668MOL0     H90126   7.957   7.120  10.929 -0.2358  0.2185 -0.5759
  668MOL0     H90127   7.747   7.017  10.886 -0.3666 -0.1163 -0.6511
  668MOL0     H90128   7.803   7.129  10.769 -1.8973  0.9054 -1.1874
  668MOL0     H90129   7.866   6.919  10.618 -2.6972 -0.0346 -2.6835
  668MOL0     H90130   7.692   6.926  10.660 -1.2801 -1.9806  4.3532
  668MOL0     H90131   7.596   6.801  10.865  0.3693  1.8305 -2.6351
  668MOL0     H90132   7.720   6.567  11.097  0.6143 -2.3123  0.6049
  668MOL0     H90133   7.563   6.599  11.010  0.0311  1.4184  1.7696
  668MOL0     H90134   7.734   6.362  10.930  1.6754  0.2113  1.3451
  668MOL0     H90135   7.565   6.402  10.893  1.2536  3.3870 -1.1821
  668MOL0     H90136   7.544   6.392  11.168 -1.5249  0.3643 -0.6410
  668MOL0     H90137   7.698   6.295  11.146  0.5774  2.8892  0.5016
  668MOL0     H90138   7.580   6.133  11.025 -2.0238 -1.0906  0.2926
  668MOL0     H90139   7.441   6.239  10.999  2.6182  1.9342 -2.3680
  668MOL0     H90140   7.247   6.104  11.310  0.2779  1.6449 -1.4022
  668MOL0     H90141   6.996   5.907  11.225  1.1744 -0.7728  0.3822
  668MOL0     H90142   7.073   5.825  11.363 -4.2146  0.7571  1.3215
  668MOL0     H90143   7.068   6.000  11.360  3.8951 -0.2886  1.1135
  668MOL0     H90144   7.027   5.480  10.934  1.1588 -0.3662  0.9749
  668MOL0     H90145   6.918   5.290  10.956 -0.6827  1.9263  0.6842
  668MOL0     H90146   7.103   4.942  11.222  0.6934  1.3403  0.8925
  668MOL0     H90147   7.016   5.057  11.319  0.9507 -1.2160  2.3534
  668MOL0     H90148   6.793   4.936  11.275 -0.0386  2.0816 -2.1178
  668MOL0     H90149   6.864   4.882  11.127  1.4644  1.0762  0.6839
  668MOL0     H90150   7.011   4.729  11.277 -0.0508 -0.6243 -1.4347
  668MOL0     H90151   6.843   4.693  11.226  0.3819  1.4297 -0.3479
  668MOL0     H90152   6.933   4.815  11.499  1.2331  0.4267 -1.5768
  668MOL0     H90153   6.767   4.773  11.459  0.7112  0.9626  0.0236
  668MOL0     H90154   6.899   4.623  11.605  1.3873 -0.1537  0.1496
  668MOL0     H90155   7.018   4.604  11.466  0.3533 -0.4476  0.7419
  668MOL0     H90156   6.850   4.460  11.333  2.3993 -1.4153  0.3103
  668MOL0     H90157   6.882   4.400  11.491  1.8736  0.2851 -1.1228
  668MOL0     H90158   6.664   4.571  11.541 -1.1819 -2.2594  3.6297
  668MOL0     H90159   6.650   4.402  11.514 -1.3540  1.5919  0.7524
  668MOL0     H90160   6.645   4.618  11.294  1.3643 -1.0219 -0.6999
  668MOL0     H90161   6.495   4.540  11.353  0.2793 -0.8103 -1.5392
  668MOL0     H90162   7.201   5.160  11.262  0.4401 -0.4788  0.5077
  668MOL0     H90163   7.327   5.367  11.217 -0.3331  0.0651 -1.1261
  668MOL0     H90164   7.424   5.745  11.019  1.2222 -0.4710  0.6734
  668MOL0     H90165   7.554   5.926  11.070 -0.0663 -2.7923  0.2672
  668MOL0     H90166   8.542   7.668  11.170 -2.2002 -3.2522  0.0998
  668MOL0     H90167   8.754   7.779  11.117  1.6215  0.6312 -1.4423
  668MOL0     H90168   9.053   7.920  10.989 -1.3229 -2.2571 -1.2463
  668MOL0     H90169   9.249   8.071  10.994 -1.1212 -0.2528  1.2394
  668MOL0     H90170   9.622   7.907  11.129 -3.0072 -0.0739  0.4500
  668MOL0     H90171   9.710   7.969  10.988  0.5208 -4.4189  1.9722
  668MOL0     H90172   9.743   8.093  11.197 -1.0318 -0.6848 -0.0665
  668MOL0     H90173   9.574   8.106  11.217  0.0986 -2.6507  0.7520
  668MOL0     H90174   9.535   8.250  11.056 -0.8636 -3.5534  0.7630
  668MOL0     H90175   9.685   8.241  10.962  0.0041 -0.8685 -0.9411
  668MOL0     H90176   9.664   8.456  11.107 -1.3079 -0.4065 -0.0294
  668MOL0     H90177   9.817   8.370  11.126 -1.0004  0.8625 -1.0010
  668MOL0     H90178   9.676   8.370  11.517 -1.0742  0.2722  0.5335
  668MOL0     H90179   9.530   7.748  10.979 -1.3986 -1.1507  0.5301
  668MOL0     H90180   9.322   7.581  10.971  0.2042  0.0527  0.5863
  669MOL0     O90181  11.240  10.800   8.339 -0.8657 -0.1787 -0.3298
  669MOL0     C90182  11.202  10.762   8.450  0.0701  0.9654 -0.3236
  669MOL0     O90183  11.104  10.813   8.534 -0.1127  0.6481  0.3443
  669MOL0     C90184  11.028  10.913   8.487 -0.9862 -0.5023 -0.1583
  669MOL0     C90185  10.932  10.896   8.390  0.1442 -0.5100 -0.2756
  669MOL0     C90186  10.869  11.013   8.354 -0.0076 -0.0318  0.1026
  669MOL0     C90187  10.900  11.140   8.390  0.6087  0.0743  0.0621
  669MOL0     O90188  10.831  11.237   8.321  0.4130 -0.4360 -0.1062
  669MOL0     C90189  10.875  11.371   8.330  0.5305  0.7745  0.0379
  669MOL0     C90190  10.786  11.453   8.233  0.3875 -0.2600 -0.3518
  669MOL0     C90191  10.654  11.400   8.200 -0.1606  0.9377  0.6598
  669MOL0     C90192  10.604  11.482   8.091  0.4233 -0.3023 -0.0161
  669MOL0     C90193  10.464  11.445   8.048  0.1512 -0.2621 -0.0782
  669MOL0     C90194  10.435  11.517   7.907 -0.3341  0.4747  0.5525
  669MOL0     C90195  10.300  11.465   7.851  0.6609  1.4012  0.7099
  669MOL0     C90196  10.234  11.566   7.760  0.4273 -0.8968  0.4706
  669MOL0     N90197  10.107  11.510   7.709 -0.1301 -0.0569 -0.1568
  669MOL0     C90198  10.039  11.567   7.607 -0.7129  0.8875  0.2731
  669MOL0     C90199   9.928  11.494   7.592 -0.1385 -0.8209 -0.4996
  669MOL0     C90200   9.830  11.519   7.492  0.0104  0.6559 -0.4319
  669MOL0     C90201   9.701  11.581   7.547 -0.3100  0.0243 -0.1544
  669MOL0     C90202   9.583  11.575   7.437  0.3605  0.5105  0.4885
  669MOL0     C90203   9.448  11.608   7.493  0.4717 -0.4160 -0.0614
  669MOL0     O90204   9.344  11.658   7.396  0.3033  0.6121 -0.2553
  669MOL0     C90205   9.273  11.569   7.328  0.9944 -0.0196 -0.1238
  669MOL0     C90206   9.200  11.463   7.398 -0.5265  0.1352  0.9614
  669MOL0     C90207   9.122  11.376   7.327 -0.4917  0.5618  0.1286
  669MOL0     C90208   9.055  11.277   7.414  0.2548  0.1474  0.2746
  669MOL0     C90209   9.102  11.388   7.186 -0.6410  0.7276  0.5415
  669MOL0     C90210   9.032  11.289   7.097  0.1856  0.4373 -0.3675
  669MOL0     O90211   8.964  11.182   7.155 -0.9556  0.1512 -0.0687
  669MOL0     C90212   8.880  11.131   7.056  0.0099 -0.9325 -0.1945
  669MOL0     C90213   8.901  11.005   7.015  0.1348 -0.2179  0.5827
  669MOL0     C90214   8.797  10.935   6.942  0.5319 -0.0904 -0.1875
  669MOL0     C90215   8.680  11.006   6.897  1.3157 -0.0287 -0.7842
  669MOL0     O90216   8.579  10.940   6.828  0.2250 -0.3881 -0.8210
  669MOL0     C90217   8.475  11.023   6.777  0.1665 -0.1404  0.0993
  669MOL0     C90218   8.395  10.948   6.674  0.4816 -0.7701  0.3961
  669MOL0     C90219   8.286  11.027   6.597  0.4991 -0.8476  0.3925
  669MOL0     C90220   8.194  10.924   6.515 -1.0051  0.5401 -0.2030
  669MOL0     C90221   8.046  10.937   6.538 -0.6540  0.3085 -0.9356
  669MOL0     C90222   7.958  10.835   6.462  0.0799 -0.6871  0.1849
  669MOL0     C90223   7.808  10.876   6.477 -0.1172 -0.2912 -0.9823
  669MOL0     C90224   7.712  10.788   6.379 -1.2718  0.2497 -0.2602
  669MOL0    Cl90225   7.543  10.811   6.427  0.2603 -0.0816 -0.0917
  669MOL0     C90226   8.658  11.138   6.940  0.0015  0.0633 -0.4475
  669MOL0     C90227   8.759  11.193   7.026  0.5962  0.4015 -0.5224
  669MOL0     O90228   9.045  11.306   6.975  0.1661  0.1547 -0.3041
  669MOL0     C90229   9.182  11.489   7.117 -0.2749 -0.5442  1.3101
  669MOL0     C90230   9.267  11.575   7.186  0.2895 -0.1157  0.5546
  669MOL0     N90231   9.925  11.409   7.697  0.0958  0.0224 -0.0997
  669MOL0     N90232  10.022  11.430   7.780  0.2003  0.0938  0.6479
  669MOL0     C90233  11.008  11.153   8.477 -0.5522  0.9726  0.3020
  669MOL0     C90234  11.063  11.039   8.530 -0.1718  0.0021 -0.3910
  669MOL0     C90235  11.285  10.657   8.509  0.4231 -0.5226 -0.0420
  669MOL0     C90236  11.237  10.592   8.625 -0.2743  0.7471  0.5341
  669MOL0     C90237  11.316  10.500   8.692 -0.8075  0.1306 -0.5951
  669MOL0     C90238  11.437  10.460   8.645  0.0205  0.1763  0.8373
  669MOL0     O90239  11.521  10.361   8.710 -0.0621  0.1089 -0.0962
  669MOL0     C90240  11.635  10.424   8.764 -0.3612 -0.2481  0.9219
  669MOL0     C90241  11.768  10.351   8.757  0.1699  0.4314 -0.3827
  669MOL0     C90242  11.766  10.210   8.843 -0.0724  0.1619  0.0547
  669MOL0     C90243  11.912  10.167   8.862  0.0021 -0.1096 -0.2902
  669MOL0     C90244  11.967  10.116   8.735 -0.0197  0.3615  0.1574
  669MOL0     C90245  12.023  10.063   8.645 -0.3129  0.6583  0.3319
  669MOL0     C90246  11.475  10.502   8.513  0.6999 -0.1891  0.0950
  669MOL0     C90247  11.394  10.602   8.442  0.2780 -0.2118 -0.6889
  669MOL0     H90248  10.913  10.803   8.338  3.0980 -0.9762 -0.6735
  669MOL0     H90249  10.797  10.999   8.274  1.2931 -0.8503 -0.9423
  669MOL0     H90250  10.879  11.408   8.433 -1.2823 -0.8742  0.7604
  669MOL0     H90251  10.977  11.383   8.292  0.4268 -0.6556 -0.7449
  669MOL0     H90252  10.757  11.547   8.280  0.6689 -0.3574  0.0243
  669MOL0     H90253  10.836  11.463   8.136 -1.8459  1.0232 -1.4353
  669MOL0     H90254  10.661  11.296   8.167  0.5951  1.8385 -2.3414
  669MOL0     H90255  10.586  11.393   8.285  1.2096 -1.0062  1.6827
  669MOL0     H90256  10.613  11.584   8.131  2.0101 -1.4045  2.6956
  669MOL0     H90257  10.662  11.472   7.999 -2.7459  1.4453 -2.4345
  669MOL0     H90258  10.456  11.340   8.019 -0.5596 -0.1054 -0.4845
  669MOL0     H90259  10.393  11.480   8.124  1.0548  1.0426  0.1945
  669MOL0     H90260  10.433  11.626   7.900  1.5627  0.4697 -0.6380
  669MOL0     H90261  10.512  11.488   7.835 -1.2668  2.2183 -1.2733
  669MOL0     H90262  10.321  11.376   7.792 -1.6951  0.8513  0.6214
  669MOL0     H90263  10.231  11.440   7.933  0.7341 -4.6369 -0.6343
  669MOL0     H90264  10.291  11.604   7.674  0.8978  0.6062  1.3998
  669MOL0     H90265  10.215  11.658   7.816  2.6152 -0.1155  0.0265
  669MOL0     H90266  10.071  11.646   7.539 -0.8758  1.4939  0.8831
  669MOL0     H90267   9.871  11.581   7.412 -0.8541 -0.7121 -1.9998
  669MOL0     H90268   9.799  11.425   7.445  0.8809 -0.6271  1.4554
  669MOL0     H90269   9.725  11.685   7.570  0.7589 -0.5799  1.7206
  669MOL0     H90270   9.676  11.525   7.638 -2.5813  1.7992  0.4129
  669MOL0     H90271   9.580  11.471   7.403  0.4053 -0.2646  2.7026
  669MOL0     H90272   9.592  11.634   7.345 -0.8599  0.9824  0.6497
  669MOL0     H90273   9.468  11.677   7.576 -0.7951 -0.4794  0.3026
  669MOL0     H90274   9.406  11.520   7.542  0.4846 -1.1272 -1.2916
  669MOL0     H90275   9.191  11.453   7.505 -2.5095  3.5573  1.2700
  669MOL0     H90276   8.950  11.304   7.428  0.3084 -0.6484  2.6767
  669MOL0     H90277   9.057  11.178   7.369  0.8466  0.1531  0.2798
  669MOL0     H90278   9.099  11.258   7.512 -0.3754 -0.4330  0.4475
  669MOL0     H90279   8.999  10.966   7.037 -0.2085 -1.6230 -0.2194
  669MOL0     H90280   8.802  10.829   6.917  3.0845 -0.5416  1.8364
  669MOL0     H90281   8.407  11.052   6.857  0.4808 -1.3784  0.8277
  669MOL0     H90282   8.533  11.101   6.726  2.1554 -1.1837  0.6410
  669MOL0     H90283   8.457  10.905   6.595 -1.6089 -2.5830 -0.3648
  669MOL0     H90284   8.339  10.871   6.728  2.6179 -1.1491  2.1972
  669MOL0     H90285   8.324  11.101   6.526 -0.6896  1.8859  2.4230
  669MOL0     H90286   8.223  11.073   6.673  0.2256  1.2896 -1.0470
  669MOL0     H90287   8.231  10.936   6.413  2.2495  1.3278  0.9373
  669MOL0     H90288   8.215  10.819   6.541  0.2062  0.1255 -2.5747
  669MOL0     H90289   8.034  11.043   6.513  0.9983  0.4595 -1.2188
  669MOL0     H90290   8.024  10.924   6.644  1.4380 -0.7267 -0.5802
  669MOL0     H90291   7.984  10.838   6.356 -3.0726  0.2355 -0.6895
  669MOL0     H90292   7.990  10.738   6.501  1.0624 -0.4445 -0.0034
  669MOL0     H90293   7.785  10.976   6.438 -2.5917 -0.5290 -0.2925
  669MOL0     H90294   7.778  10.876   6.582 -0.2351  2.5170 -0.9475
  669MOL0     H90295   7.753  10.690   6.405  1.9604  1.7745  0.8697
  669MOL0     H90296   7.731  10.804   6.273  1.0216 -1.7554 -0.2367
  669MOL0     H90297   8.579  11.203   6.902  0.7564 -1.1304 -4.4812
  669MOL0     H90298   8.768  11.293   7.067  0.5710  0.1016  0.2364
  669MOL0     H90299   9.174  11.500   7.010 -1.8969 -3.1142  1.0941
  669MOL0     H90300   9.316  11.646   7.121  0.5706  0.8482  1.7653
  669MOL0     H90301  11.051  11.245   8.515  0.1803 -0.2589  2.6640
  669MOL0     H90302  11.136  11.032   8.610 -3.3060 -1.5649  2.6056
  669MOL0     H90303  11.141  10.608   8.674  0.2213  0.3736  1.6609
  669MOL0     H90304  11.274  10.451   8.778 -0.4162 -2.7729 -1.9502
  669MOL0     H90305  11.655  10.522   8.719  0.5741 -0.6208  0.4994
  669MOL0     H90306  11.616  10.447   8.870 -1.2084  0.8162  0.5669
  669MOL0     H90307  11.843  10.418   8.801 -0.4083 -0.2303  1.7334
  669MOL0     H90308  11.798  10.332   8.654  1.1959  1.7599 -0.3599
  669MOL0     H90309  11.713  10.139   8.780  2.4996 -1.1411 -0.7951
  669MOL0     H90310  11.725  10.233   8.942  0.8599  1.5739  0.1500
  669MOL0     H90311  11.930  10.080   8.926  0.6935  0.5326  0.4072
  669MOL0     H90312  11.979  10.244   8.900 -0.0515  0.4178 -1.2399
  669MOL0     H90313  12.066  10.022   8.555 -3.1574  1.6844 -1.6289
  669MOL0     H90314  11.553  10.454   8.453  0.1520 -2.2039  0.9213
  669MOL0     H90315  11.417  10.642   8.344  1.9875 -0.6829 -0.5138
  670MOL0     O90316   0.396   3.094   9.657  0.1116 -0.3136 -0.1178
  670MOL0     C90317   0.359   3.211   9.650 -0.7147 -0.0764 -0.0958
  670MOL0     O90318   0.231   3.259   9.630  0.5916  0.0447 -0.5959
  670MOL0     C90319   0.124   3.169   9.655  1.4951 -0.6292 -1.0989
  670MOL0     C90320   0.030   3.196   9.760  0.0340 -0.4133  0.2039
  670MOL0     C90321  -0.076   3.109   9.777  1.4140  0.4759 -0.0408
  670MOL0     C90322  -0.086   2.980   9.715  0.6610 -0.2946  0.1585
  670MOL0     O90323  -0.192   2.896   9.733  0.2742 -0.1674 -0.7560
  670MOL0     C90324  -0.245   2.874   9.868 -0.4021  0.0255 -0.4794
  670MOL0     C90325  -0.145   2.818   9.971 -0.1019 -0.4912 -0.4522
  670MOL0     C90326  -0.210   2.803  10.108 -0.2457 -1.1328 -0.3897
  670MOL0     C90327  -0.107   2.819  10.229  0.0316  0.4912 -0.0346
  670MOL0     C90328  -0.186   2.814  10.363  0.2254  0.0912 -0.0003
  670MOL0     C90329  -0.100   2.822  10.490 -1.0675 -0.3302 -0.0838
  670MOL0     C90330  -0.182   2.830  10.620 -0.9637 -0.3260  0.2943
  670MOL0     C90331  -0.079   2.841  10.738 -0.8144  0.6417 -0.1124
  670MOL0     N90332  -0.129   2.817  10.876 -0.9174  0.3180  0.7447
  670MOL0     C90333  -0.225   2.882  10.953  0.2851  0.4111  0.2343
  670MOL0     C90334  -0.222   2.829  11.075  0.7444  0.3397  0.2525
  670MOL0     C90335  -0.312   2.861  11.196 -1.1259  0.4385  0.2457
  670MOL0     C90336  -0.457   2.890  11.147  0.0339  0.5757 -0.2481
  670MOL0     C90337  -0.544   2.953  11.255  0.5282 -0.2825 -0.8908
  670MOL0     C90338  -0.601   2.848  11.352 -0.2101  0.2307  0.2210
  670MOL0     O90339  -0.688   2.731  11.309  0.1270  0.0065 -1.1821
  670MOL0     C90340  -0.799   2.736  11.234 -0.3970 -1.0735  1.0148
  670MOL0     C90341  -0.861   2.855  11.193  0.2082  0.0309  0.5718
  670MOL0     C90342  -0.983   2.864  11.126 -1.2515  0.9695  0.2040
  670MOL0     C90343  -1.017   2.998  11.071  0.2353 -0.0368  0.2434
  670MOL0     C90344  -1.049   2.744  11.082  0.3018  0.4141  0.3385
  670MOL0     C90345  -1.174   2.749  10.992  0.7083  0.6583 -0.2205
  670MOL0     O90346  -1.174   2.645  10.906 -0.1667  0.0595  0.5885
  670MOL0     C90347  -1.267   2.605  10.812  0.5304  0.9794  0.0464
  670MOL0     C90348  -1.401   2.636  10.828 -0.1386  0.1460 -0.4815
  670MOL0     C90349  -1.509   2.594  10.738  0.5500 -0.2559 -0.3671
  670MOL0     C90350  -1.475   2.506  10.630 -0.0471 -0.4869 -0.4811
  670MOL0     O90351  -1.583   2.469  10.558  0.1580  0.4390 -0.4903
  670MOL0     C90352  -1.591   2.519  10.422  0.1636  0.6220 -0.8735
  670MOL0     C90353  -1.715   2.478  10.350 -0.6316 -0.3495 -0.4857
  670MOL0     C90354  -1.843   2.563  10.398 -0.5581 -0.1907  0.1057
  670MOL0     C90355  -1.943   2.472  10.482 -1.1668 -0.1511  0.1298
  670MOL0     C90356  -2.070   2.548  10.506 -0.4838 -0.3044 -0.1669
  670MOL0     C90357  -2.162   2.488  10.607  0.2783 -0.9311  0.3921
  670MOL0     C90358  -2.274   2.590  10.615 -0.6607 -0.3962 -0.2404
  670MOL0     C90359  -2.402   2.576  10.527  0.4678  0.1195 -0.3638
  670MOL0    Cl90360  -2.469   2.414  10.565  0.1345 -0.2970  0.7009
  670MOL0     C90361  -1.338   2.452  10.631 -0.4456 -0.1819  0.3818
  670MOL0     C90362  -1.243   2.505  10.711 -0.2384 -0.0555 -0.0946
  670MOL0     O90363  -1.258   2.839  10.993 -0.5106  0.6331  0.4460
  670MOL0     C90364  -0.995   2.619  11.130  0.2125 -0.1762 -0.0875
  670MOL0     C90365  -0.869   2.617  11.198 -0.0087  0.5573 -1.4151
  670MOL0     N90366  -0.133   2.728  11.069 -0.5562 -0.1701 -0.5513
  670MOL0     N90367  -0.070   2.723  10.956 -0.4051  0.1155 -0.4215
  670MOL0     C90368   0.003   2.950   9.623 -0.1535 -0.3954 -0.0956
  670MOL0     C90369   0.111   3.043   9.583  0.4652  0.1017 -0.3454
  670MOL0     C90370   0.465   3.307   9.649  0.0401  0.1644 -0.3418
  670MOL0     C90371   0.605   3.264   9.633  1.0135 -0.4364  0.1108
  670MOL0     C90372   0.703   3.358   9.660  0.7136  0.3264  0.9830
  670MOL0     C90373   0.674   3.479   9.712 -0.5289  0.4318 -0.3982
  670MOL0     O90374   0.770   3.571   9.748 -0.5517  0.3284  0.4566
  670MOL0     C90375   0.905   3.543   9.745 -0.8242 -0.6103  0.0527
  670MOL0     C90376   0.952   3.616   9.876 -0.2767  0.4564 -0.0365
  670MOL0     C90377   1.100   3.597   9.899  0.7352  0.2176 -1.1112
  670MOL0     C90378   1.196   3.633   9.784 -0.2043 -0.0993 -1.0254
  670MOL0     C90379   1.334   3.605   9.816 -0.5034 -0.2329 -0.9777
  670MOL0     C90380   1.453   3.574   9.845 -0.1776 -0.2078  0.5450
  670MOL0     C90381   0.539   3.518   9.739  0.5206 -0.1629 -0.6495
  670MOL0     C90382   0.438   3.426   9.704  0.0868  0.0882  0.9568
  670MOL0     H90383   0.031   3.288   9.817 -1.3231 -0.5952  0.5679
  670MOL0     H90384  -0.152   3.138   9.848  0.8086  0.7028 -0.7620
  670MOL0     H90385  -0.277   2.973   9.900  0.9714 -1.0394  5.1198
  670MOL0     H90386  -0.327   2.801   9.874  0.0717 -0.3903  1.8437
  670MOL0     H90387  -0.108   2.718   9.947  1.9903  0.4023 -1.1709
  670MOL0     H90388  -0.058   2.885   9.975 -0.2072 -0.0364 -3.2583
  670MOL0     H90389  -0.295   2.872  10.116 -1.1376 -2.2183 -0.2695
  670MOL0     H90390  -0.256   2.704  10.103  0.3626 -1.4082 -0.5707
  670MOL0     H90391  -0.027   2.744  10.218 -0.1256  0.3812 -0.4478
  670MOL0     H90392  -0.057   2.916  10.226 -0.2219  0.5985 -2.0751
  670MOL0     H90393  -0.264   2.891  10.370 -1.9256 -1.4912 -3.7874
  670MOL0     H90394  -0.249   2.725  10.369 -1.4684  1.1617 -0.9939
  670MOL0     H90395  -0.035   2.735  10.500  2.0217  1.7940 -0.1678
  670MOL0     H90396  -0.051   2.919  10.479 -3.5554  1.1743  1.0796
  670MOL0     H90397  -0.251   2.915  10.625 -1.6019 -0.8336  0.2284
  670MOL0     H90398  -0.245   2.743  10.640 -3.6955  1.3459 -0.5155
  670MOL0     H90399  -0.018   2.932  10.737 -0.8730  0.6969  0.6348
  670MOL0     H90400  -0.013   2.757  10.714  0.4174  1.7762 -0.8239
  670MOL0     H90401  -0.280   2.969  10.920 -0.0857  0.3541  0.6928
  670MOL0     H90402  -0.326   2.770  11.254 -0.3856  1.8990  2.8569
  670MOL0     H90403  -0.269   2.942  11.254  0.6474  1.2353 -2.0188
  670MOL0     H90404  -0.499   2.795  11.112  2.1466 -0.0920 -1.1674
  670MOL0     H90405  -0.451   2.960  11.064  1.5897  0.2760 -0.4264
  670MOL0     H90406  -0.620   3.011  11.203  1.3560  1.2724 -0.4063
  670MOL0     H90407  -0.494   3.031  11.312 -0.1401 -0.5064  0.0363
  670MOL0     H90408  -0.653   2.901  11.432 -0.2407 -1.8085  1.6392
  670MOL0     H90409  -0.514   2.799  11.397 -0.4859 -3.2942 -2.6068
  670MOL0     H90410  -0.822   2.956  11.204 -2.7569  1.6103 -1.9180
  670MOL0     H90411  -1.123   3.021  11.083  0.1364  0.3964 -1.2455
  670MOL0     H90412  -0.965   3.084  11.114  1.0074 -1.7135  2.9093
  670MOL0     H90413  -0.991   3.006  10.965  0.9413 -0.7564  0.3513
  670MOL0     H90414  -1.428   2.710  10.902 -0.2041 -0.3879  0.0410
  670MOL0     H90415  -1.613   2.623  10.756  1.1615  0.6750  2.0854
  670MOL0     H90416  -1.597   2.628  10.422 -3.0470  0.6201  1.9053
  670MOL0     H90417  -1.498   2.489  10.372  0.8039  1.8155 -0.4257
  670MOL0     H90418  -1.699   2.487  10.243  6.5063  2.4935  0.2846
  670MOL0     H90419  -1.737   2.377  10.384  2.3906 -0.5523  1.2236
  670MOL0     H90420  -1.894   2.603  10.310 -2.4300 -0.1109  1.1674
  670MOL0     H90421  -1.828   2.656  10.455 -3.7793  0.9039 -0.6038
  670MOL0     H90422  -1.950   2.374  10.434  3.1799 -0.1241 -0.9674
  670MOL0     H90423  -1.889   2.452  10.575  1.2197 -3.5914 -1.7533
  670MOL0     H90424  -2.118   2.552  10.408 -2.1548 -0.4096  0.6167
  670MOL0     H90425  -2.035   2.646  10.541 -1.0422 -0.0760 -0.2500
  670MOL0     H90426  -2.199   2.389  10.578  0.7396 -1.6485  2.1101
  670MOL0     H90427  -2.110   2.473  10.702  5.0504 -1.0199 -1.9051
  670MOL0     H90428  -2.238   2.693  10.603 -0.5910 -0.2440  1.1052
  670MOL0     H90429  -2.309   2.595  10.719  2.0694 -0.5598  0.7846
  670MOL0     H90430  -2.369   2.583  10.423  2.2984 -1.5325  0.0406
  670MOL0     H90431  -2.477   2.655  10.538  1.0609  0.3699  2.8668
  670MOL0     H90432  -1.328   2.363  10.569 -3.5741 -0.7208  0.5122
  670MOL0     H90433  -1.141   2.470  10.722  0.4820  2.5273  3.0750
  670MOL0     H90434  -1.041   2.523  11.106  0.7926 -0.2082 -1.1440
  670MOL0     H90435  -0.824   2.525  11.233  0.1897  0.7829 -1.0697
  670MOL0     H90436  -0.000   2.853   9.573  1.0242  0.1172 -1.2385
  670MOL0     H90437   0.184   3.011   9.509 -1.0496 -0.0154 -1.8474
  670MOL0     H90438   0.628   3.171   9.582  1.0139  1.0079 -2.7427
  670MOL0     H90439   0.805   3.330   9.637  0.0749 -2.4922  1.2782
  670MOL0     H90440   0.928   3.437   9.753  1.8154 -0.2936 -2.1443
  670MOL0     H90441   0.958   3.578   9.656  0.9100 -0.6752  1.0133
  670MOL0     H90442   0.898   3.567   9.957 -2.8535 -0.6582 -2.2602
  670MOL0     H90443   0.928   3.721   9.856 -0.0281  0.4439 -0.4281
  670MOL0     H90444   1.121   3.501   9.946  0.2052  0.0295 -1.2515
  670MOL0     H90445   1.126   3.673   9.973  3.3600 -1.2748 -0.3833
  670MOL0     H90446   1.190   3.740   9.762 -1.0875  0.3628  1.2173
  670MOL0     H90447   1.154   3.579   9.700 -1.3775  0.4704 -0.8219
  670MOL0     H90448   1.553   3.549   9.874  0.6418 -2.7755 -3.6166
  670MOL0     H90449   0.525   3.623   9.764  2.0442 -0.0760 -0.0596
  670MOL0     H90450   0.335   3.458   9.717 -0.6143 -1.6348  0.0325
  671MOL0     O90451   0.059   6.302   6.601 -0.1974  0.1223  0.1229
  671MOL0     C90452   0.109   6.326   6.708  0.7698  0.0888 -0.6498
  671MOL0     O90453   0.078   6.435   6.790 -0.1307  0.2734  0.1036
  671MOL0     C90454  -0.013   6.528   6.738  0.4911  0.7796 -0.7543
  671MOL0     C90455   0.022   6.667   6.730  0.6153  0.2465 -0.0523
  671MOL0     C90456  -0.083   6.753   6.698  0.0887 -0.4383  1.3756
  671MOL0     C90457  -0.210   6.717   6.655  0.0453  0.5608 -0.5432
  671MOL0     O90458  -0.322   6.787   6.607 -0.1866 -0.4378  0.3384
  671MOL0     C90459  -0.313   6.937   6.605  0.3731 -0.1566  0.2541
  671MOL0     C90460  -0.458   6.992   6.566 -0.2583  0.1294  0.1248
  671MOL0     C90461  -0.567   6.924   6.654  0.2935 -0.0210  0.2303
  671MOL0     C90462  -0.710   6.988   6.637  0.3982  0.4909 -0.2198
  671MOL0     C90463  -0.761   6.982   6.489 -0.3229  0.2381  0.2527
  671MOL0     C90464  -0.909   7.001   6.489  0.9501 -0.4521  0.1844
  671MOL0     C90465  -0.970   7.031   6.346  0.9133  1.0249  0.4876
  671MOL0     C90466  -0.987   7.178   6.319  0.6052 -0.3460  0.0251
  671MOL0     N90467  -1.016   7.195   6.172 -0.3949 -0.4819  1.0241
  671MOL0     C90468  -1.144   7.187   6.115  0.1046  0.1148  0.0889
  671MOL0     C90469  -1.118   7.209   5.988 -0.0334 -0.7323 -0.4733
  671MOL0     C90470  -1.229   7.209   5.887 -0.5816 -0.1553  0.2733
  671MOL0     C90471  -1.311   7.333   5.933  0.9084 -0.3851  0.1959
  671MOL0     C90472  -1.434   7.363   5.836 -0.7073 -0.6800  0.5853
  671MOL0     C90473  -1.545   7.265   5.830 -0.1838 -0.3258  0.1788
  671MOL0     O90474  -1.645   7.328   5.755 -0.1969 -1.2449 -0.6926
  671MOL0     C90475  -1.753   7.254   5.709  0.2634 -0.8698  0.9433
  671MOL0     C90476  -1.831   7.318   5.619  0.0451  0.2963  0.3468
  671MOL0     C90477  -1.945   7.264   5.555  0.7238  0.5546  0.3329
  671MOL0     C90478  -2.036   7.365   5.479 -0.2887 -0.0592 -0.5120
  671MOL0     C90479  -1.976   7.129   5.595  0.5426  0.5025  0.6438
  671MOL0     C90480  -2.083   7.050   5.522  0.3485 -1.0657 -0.2636
  671MOL0     O90481  -2.154   7.099   5.418 -0.2066 -0.0249 -0.5764
  671MOL0     C90482  -2.274   7.044   5.379  0.2642  0.1086 -0.2269
  671MOL0     C90483  -2.287   6.999   5.243  0.7282 -0.5244 -0.4195
  671MOL0     C90484  -2.404   6.930   5.203 -0.8435 -0.4757  0.1141
  671MOL0     C90485  -2.505   6.903   5.294 -0.5198 -0.6231  0.6061
  671MOL0     O90486  -2.613   6.824   5.269 -0.7276  0.2288  0.1005
  671MOL0     C90487  -2.612   6.728   5.169  0.8248  0.1249  0.8999
  671MOL0     C90488  -2.719   6.757   5.065  0.1650 -1.0125 -0.7217
  671MOL0     C90489  -2.855   6.782   5.130  0.1087  0.0880 -0.9389
  671MOL0     C90490  -2.975   6.760   5.031 -0.0687 -0.1628 -0.0276
  671MOL0     C90491  -3.105   6.809   5.086  0.4004 -1.1767 -0.5695
  671MOL0     C90492  -3.218   6.793   4.987  0.3572  0.0800 -0.7403
  671MOL0     C90493  -3.276   6.650   4.990 -0.5765 -0.1269  0.3766
  671MOL0     C90494  -3.359   6.630   4.860 -0.5349 -0.6728  0.8301
  671MOL0    Cl90495  -3.439   6.479   4.863  0.0823 -0.0614 -0.2188
  671MOL0     C90496  -2.490   6.953   5.427  0.3952 -0.7178  0.4500
  671MOL0     C90497  -2.386   7.033   5.467 -0.1846  0.2073 -0.1796
  671MOL0     O90498  -2.105   6.940   5.566 -0.1691 -0.5312 -0.5590
  671MOL0     C90499  -1.896   7.061   5.689 -0.1990 -0.6974 -0.1476
  671MOL0     C90500  -1.784   7.123   5.746 -0.2234 -1.0122  0.3921
  671MOL0     N90501  -0.979   7.235   5.971 -0.6998  0.4759 -0.6073
  671MOL0     N90502  -0.921   7.208   6.076  0.2876 -0.5287 -1.2180
  671MOL0     C90503  -0.242   6.584   6.663 -0.2515  0.0475 -0.7491
  671MOL0     C90504  -0.141   6.486   6.699  0.7484 -0.0618 -0.0040
  671MOL0     C90505   0.198   6.223   6.764 -0.4499 -0.4454  0.7197
  671MOL0     C90506   0.253   6.232   6.892  0.1188 -0.2506 -0.2315
  671MOL0     C90507   0.307   6.115   6.943 -0.4099  0.4080 -0.5186
  671MOL0     C90508   0.329   5.998   6.874  0.8786  0.0020 -0.6927
  671MOL0     O90509   0.389   5.898   6.945 -0.4595 -0.0634  0.1819
  671MOL0     C90510   0.436   5.790   6.864 -0.6015 -0.3231 -0.1356
  671MOL0     C90511   0.514   5.694   6.960  0.5310  0.0481  1.9329
  671MOL0     C90512   0.627   5.771   7.023 -0.1883 -0.1623 -1.2994
  671MOL0     C90513   0.722   5.690   7.109 -0.3002 -0.2056  0.4189
  671MOL0     C90514   0.856   5.678   7.041 -1.3542 -0.1771 -0.8788
  671MOL0     C90515   0.959   5.670   6.982  0.5498  0.2022 -0.4432
  671MOL0     C90516   0.278   5.994   6.747  0.1674 -0.3037  0.2810
  671MOL0     C90517   0.213   6.096   6.695 -0.6111  0.0607  0.7627
  671MOL0     H90518   0.109   6.725   6.762  0.9715  0.5524 -1.5188
  671MOL0     H90519  -0.047   6.855   6.686  1.7555 -1.1562 -0.2059
  671MOL0     H90520  -0.261   6.963   6.697  4.3249  1.9248 -2.2957
  671MOL0     H90521  -0.236   6.972   6.536  1.3747  2.8408  2.6737
  671MOL0     H90522  -0.456   7.100   6.585 -1.6584 -0.0149  1.2079
  671MOL0     H90523  -0.469   6.963   6.461 -1.1785  1.6686 -0.2290
  671MOL0     H90524  -0.569   6.819   6.623  3.0185 -0.0909  0.0433
  671MOL0     H90525  -0.541   6.921   6.761 -2.4180 -0.4517  0.9448
  671MOL0     H90526  -0.786   6.940   6.699 -1.0688  0.9696 -1.5740
  671MOL0     H90527  -0.718   7.092   6.671 -1.4283  1.6764 -3.7555
  671MOL0     H90528  -0.711   7.067   6.441  2.0055 -0.3700  1.4607
  671MOL0     H90529  -0.730   6.890   6.440  0.1371  1.3505 -1.6387
  671MOL0     H90530  -0.958   6.908   6.520 -1.5183  0.9329  0.6127
  671MOL0     H90531  -0.945   7.080   6.555 -3.3359 -0.6863 -1.5785
  671MOL0     H90532  -0.909   6.979   6.272  0.4392  0.0111  0.7927
  671MOL0     H90533  -1.061   6.974   6.328  0.2869  1.4782  2.0293
  671MOL0     H90534  -0.895   7.232   6.344  0.8610 -0.0492 -1.4974
  671MOL0     H90535  -1.069   7.215   6.381  1.9714  0.9443  1.1313
  671MOL0     H90536  -1.241   7.167   6.158  0.4156 -1.6738  0.0574
  671MOL0     H90537  -1.182   7.241   5.794 -0.0226  1.2098  0.9902
  671MOL0     H90538  -1.279   7.112   5.881 -1.6106  0.3805  0.0476
  671MOL0     H90539  -1.247   7.420   5.949  0.7848 -0.4988  1.3425
  671MOL0     H90540  -1.358   7.311   6.029  1.6283 -0.3559  0.5632
  671MOL0     H90541  -1.378   7.362   5.741  1.2269 -1.9104  1.6537
  671MOL0     H90542  -1.468   7.464   5.858  0.8410  0.4956 -1.9676
  671MOL0     H90543  -1.574   7.241   5.933 -2.0643 -3.3376 -0.9383
  671MOL0     H90544  -1.512   7.175   5.777  1.8402  0.4319  0.0276
  671MOL0     H90545  -1.807   7.421   5.594  0.0359  0.0375 -0.7649
  671MOL0     H90546  -2.140   7.334   5.464 -0.0261  0.0823 -3.2514
  671MOL0     H90547  -2.042   7.464   5.524  3.6623  0.8607 -1.5973
  671MOL0     H90548  -1.994   7.377   5.378 -2.0014  5.3331 -0.8999
  671MOL0     H90549  -2.210   7.029   5.173  1.5991 -0.7823  0.3979
  671MOL0     H90550  -2.408   6.881   5.107 -1.3883 -2.1452  0.9421
  671MOL0     H90551  -2.514   6.707   5.124  0.8088  0.3983  0.7357
  671MOL0     H90552  -2.643   6.631   5.210  2.1431 -0.5888  0.2716
  671MOL0     H90553  -2.697   6.848   5.010  3.6356  1.0077  3.4513
  671MOL0     H90554  -2.727   6.674   4.994  1.0368 -2.5361  0.8494
  671MOL0     H90555  -2.857   6.884   5.169 -1.1064  0.1434 -1.0936
  671MOL0     H90556  -2.864   6.709   5.210 -1.9449 -1.9577 -2.8913
  671MOL0     H90557  -2.961   6.814   4.937 -3.3006  3.4782  1.3369
  671MOL0     H90558  -2.979   6.652   5.013  3.1493 -0.2949 -0.5187
  671MOL0     H90559  -3.101   6.918   5.081 -1.0321 -1.0941 -0.1435
  671MOL0     H90560  -3.123   6.774   5.188  2.6608 -0.2487  0.2269
  671MOL0     H90561  -3.297   6.863   5.013  0.3311 -0.0336 -0.5097
  671MOL0     H90562  -3.170   6.822   4.893 -0.1218  1.2925 -0.6239
  671MOL0     H90563  -3.325   6.636   5.086  1.8435  0.2759  1.7578
  671MOL0     H90564  -3.193   6.578   4.988 -1.1580 -0.8013 -1.1116
  671MOL0     H90565  -3.288   6.631   4.776 -2.6521  1.6515 -1.1229
  671MOL0     H90566  -3.428   6.715   4.853 -2.1010 -1.9502 -0.0243
  671MOL0     H90567  -2.564   6.939   5.506  1.3340  1.2984  1.7804
  671MOL0     H90568  -2.371   7.060   5.571  2.1129  0.0572 -0.4044
  671MOL0     H90569  -1.930   6.967   5.730 -3.1065  1.1109  2.0271
  671MOL0     H90570  -1.732   7.068   5.824  1.4395  0.4207  0.3515
  671MOL0     H90571  -0.347   6.561   6.652 -0.0422 -1.2265 -0.3223
  671MOL0     H90572  -0.181   6.385   6.699 -0.2312  0.2705  2.0268
  671MOL0     H90573   0.247   6.325   6.947 -1.9945 -1.4512  1.7309
  671MOL0     H90574   0.326   6.109   7.049 -0.1887 -0.4179 -0.6025
  671MOL0     H90575   0.350   5.739   6.819  0.3632 -0.2018 -2.2822
  671MOL0     H90576   0.501   5.821   6.781 -1.7865 -1.8737 -1.7249
  671MOL0     H90577   0.555   5.621   6.890  1.0192  2.1494 -0.1144
  671MOL0     H90578   0.447   5.648   7.033  0.3079 -1.5782  0.7770
  671MOL0     H90579   0.581   5.834   7.100  0.0296 -3.3313  1.7139
  671MOL0     H90580   0.687   5.831   6.954 -0.9927  0.5271 -1.4174
  671MOL0     H90581   0.676   5.591   7.109 -0.8992  0.0019 -1.9622
  671MOL0     H90582   0.735   5.743   7.204 -1.9108 -0.3278  0.7226
  671MOL0     H90583   1.052   5.657   6.930  0.6621 -1.4742  0.0952
  671MOL0     H90584   0.284   5.899   6.696 -1.7238  0.4930 -1.5575
  671MOL0     H90585   0.165   6.085   6.598  1.7937 -1.4752 -0.3597
  672MOL0     O90586   5.779   6.534   2.063  0.7597 -0.2887 -0.3516
  672MOL0     C90587   5.749   6.464   1.969  0.6228  0.0150 -0.0063
  672MOL0     O90588   5.621   6.446   1.921 -0.2190 -0.2839 -0.4396
  672MOL0     C90589   5.523   6.501   1.999 -0.1609  0.5860 -0.0866
  672MOL0     C90590   5.454   6.613   1.954 -0.2806 -0.3649  0.1211
  672MOL0     C90591   5.353   6.672   2.041 -0.6496 -0.1308 -1.0431
  672MOL0     C90592   5.316   6.614   2.163 -0.2592  0.3476 -0.2912
  672MOL0     O90593   5.214   6.679   2.230  0.0491  0.3562  0.1284
  672MOL0     C90594   5.168   6.599   2.344 -0.2190  0.2776 -0.2773
  672MOL0     C90595   5.050   6.670   2.399  0.2436  0.4665 -0.5480
  672MOL0     C90596   4.922   6.631   2.312 -0.1783 -0.4956 -0.8634
  672MOL0     C90597   4.870   6.748   2.231  0.4900 -0.6267 -1.1446
  672MOL0     C90598   4.756   6.719   2.137 -0.0301  0.6833 -0.1267
  672MOL0     C90599   4.634   6.716   2.219  1.1690 -0.1545  0.8868
  672MOL0     C90600   4.509   6.726   2.120 -0.1958 -0.0246 -0.7778
  672MOL0     C90601   4.431   6.590   2.112  0.0553 -0.2997  0.1332
  672MOL0     N90602   4.314   6.615   2.023 -0.7911  0.3934  0.0876
  672MOL0     C90603   4.201   6.681   2.064 -0.4155 -0.6139  0.3464
  672MOL0     C90604   4.105   6.634   1.974 -0.5451 -0.9617  0.3847
  672MOL0     C90605   3.968   6.691   1.977 -0.0689 -0.8391 -0.0089
  672MOL0     C90606   3.869   6.562   1.976 -0.1082 -0.8067  1.8575
  672MOL0     C90607   3.719   6.595   2.005  0.3454 -0.3241  0.7684
  672MOL0     C90608   3.668   6.710   1.919 -0.2605 -0.1670  0.7684
  672MOL0     O90609   3.527   6.724   1.936  0.0500  0.1548 -0.2326
  672MOL0     C90610   3.461   6.755   1.819  0.4657 -0.7190  0.4536
  672MOL0     C90611   3.342   6.684   1.797 -0.6023  0.3641 -0.8973
  672MOL0     C90612   3.259   6.685   1.691  1.2254 -0.2866  0.4903
  672MOL0     C90613   3.141   6.591   1.682  0.1010  0.7076 -0.0952
  672MOL0     C90614   3.298   6.776   1.587  0.2125 -0.0676 -0.0124
  672MOL0     C90615   3.224   6.796   1.457 -0.4353  0.7654  0.4331
  672MOL0     O90616   3.306   6.847   1.361  0.2081  0.5104  0.0162
  672MOL0     C90617   3.237   6.907   1.263 -0.0273  0.1058  0.8433
  672MOL0     C90618   3.137   7.000   1.264  0.1683 -0.3880  0.0702
  672MOL0     C90619   3.082   7.056   1.148 -0.9665  0.0571 -0.0818
  672MOL0     C90620   3.154   7.024   1.024 -0.2841 -1.0596  0.3597
  672MOL0     O90621   3.094   7.082   0.915 -0.4786  0.0185  1.2969
  672MOL0     C90622   3.152   7.055   0.785 -0.0383  0.3535 -0.1262
  672MOL0     C90623   3.077   7.121   0.674 -0.2809 -0.0435 -0.7162
  672MOL0     C90624   2.940   7.055   0.658  0.4973 -0.5712 -0.1945
  672MOL0     C90625   2.886   7.088   0.515  0.0641  0.4758  0.5743
  672MOL0     C90626   2.752   7.024   0.482 -1.1796  0.5972 -0.8876
  672MOL0     C90627   2.774   6.877   0.446  0.4615  0.3546  0.4720
  672MOL0     C90628   2.645   6.799   0.464 -0.4953  0.5283  0.2799
  672MOL0     C90629   2.680   6.651   0.464  0.6795  1.0321 -0.0785
  672MOL0    Cl90630   2.547   6.535   0.432  0.4216  0.2445  0.1145
  672MOL0     C90631   3.257   6.932   1.021 -0.5167  0.6566 -0.8700
  672MOL0     C90632   3.293   6.872   1.136  0.6292 -0.0775 -0.3597
  672MOL0     O90633   3.103   6.775   1.446 -0.1235 -0.0204 -0.2508
  672MOL0     C90634   3.428   6.834   1.603  0.6939 -0.5434  0.7312
  672MOL0     C90635   3.511   6.832   1.714 -0.3996  0.5645  0.4332
  672MOL0     N90636   4.161   6.527   1.900  0.5101  0.4109 -0.7412
  672MOL0     N90637   4.290   6.523   1.918  0.6975  0.6409 -0.8754
  672MOL0     C90638   5.383   6.497   2.190  0.1329 -0.2633 -0.7574
  672MOL0     C90639   5.483   6.438   2.117 -0.1244  0.3170  1.4488
  672MOL0     C90640   5.858   6.431   1.873 -0.2740 -0.3046 -0.2155
  672MOL0     C90641   5.832   6.381   1.742  0.0069 -0.0556 -0.0728
  672MOL0     C90642   5.938   6.351   1.656 -0.2875  0.2161  0.6752
  672MOL0     C90643   6.068   6.369   1.691 -0.3436  1.1975 -0.7429
  672MOL0     O90644   6.162   6.322   1.609 -0.2248  1.2050 -0.1909
  672MOL0     C90645   6.138   6.291   1.474  0.1732  0.2367  0.1638
  672MOL0     C90646   6.275   6.252   1.405  0.2662  0.2516  0.3901
  672MOL0     C90647   6.243   6.230   1.264 -0.2861 -0.2024 -0.1376
  672MOL0     C90648   6.361   6.171   1.184  0.0165 -0.7796  0.7237
  672MOL0     C90649   6.479   6.259   1.181  0.3972  0.2991  0.2212
  672MOL0     C90650   6.582   6.326   1.189 -0.4339  0.7705  0.1564
  672MOL0     C90651   6.103   6.421   1.808 -0.0271 -0.0030 -0.2549
  672MOL0     C90652   5.998   6.450   1.903 -0.0640 -0.4747 -0.3080
  672MOL0     H90653   5.481   6.652   1.856 -0.3639 -4.0172 -1.5204
  672MOL0     H90654   5.293   6.754   2.003 -0.0903 -0.4957 -2.8014
  672MOL0     H90655   5.139   6.500   2.309  2.0669  0.2900 -2.5278
  672MOL0     H90656   5.235   6.593   2.431 -1.7189  1.2540  1.0045
  672MOL0     H90657   5.033   6.621   2.495  1.1235 -2.1305 -1.6285
  672MOL0     H90658   5.078   6.775   2.406  2.3780  0.0010 -1.2854
  672MOL0     H90659   4.942   6.546   2.247  1.7870  0.0259 -1.0038
  672MOL0     H90660   4.850   6.592   2.385 -0.5257 -0.6000 -1.2597
  672MOL0     H90661   4.839   6.836   2.289  3.1885 -1.5272  1.9463
  672MOL0     H90662   4.953   6.775   2.166  1.5304  4.3469  1.7280
  672MOL0     H90663   4.756   6.791   2.055  0.8062 -0.4927 -1.1997
  672MOL0     H90664   4.760   6.617   2.097 -2.5557  1.2888 -2.2426
  672MOL0     H90665   4.630   6.620   2.272 -1.2636  1.0884  3.2040
  672MOL0     H90666   4.642   6.796   2.292 -0.0294 -1.2779  2.3315
  672MOL0     H90667   4.438   6.802   2.152 -0.7030 -1.0003  0.5526
  672MOL0     H90668   4.543   6.751   2.019 -1.1377 -1.2868 -1.4355
  672MOL0     H90669   4.378   6.557   2.202 -0.3541  0.0091  0.0047
  672MOL0     H90670   4.494   6.514   2.066  0.0802  0.9703 -2.0489
  672MOL0     H90671   4.194   6.766   2.131 -1.7663  0.7626 -1.4419
  672MOL0     H90672   3.942   6.754   2.062  2.6105 -2.0703  1.8718
  672MOL0     H90673   3.968   6.750   1.885  0.8918 -3.3509 -1.7575
  672MOL0     H90674   3.907   6.484   2.042  0.5218 -1.9107  0.2515
  672MOL0     H90675   3.882   6.510   1.880  0.3015 -1.2855  2.1732
  672MOL0     H90676   3.714   6.624   2.111  0.1503  1.5134  0.2837
  672MOL0     H90677   3.658   6.504   2.006  0.3216 -0.3253 -0.2705
  672MOL0     H90678   3.695   6.698   1.814 -0.6409 -0.3605  0.6908
  672MOL0     H90679   3.716   6.805   1.948  1.4949 -1.5774  2.8264
  672MOL0     H90680   3.320   6.612   1.875  1.0509  0.9467  0.1581
  672MOL0     H90681   3.053   6.635   1.728  0.3141 -0.9713  2.0817
  672MOL0     H90682   3.124   6.563   1.578  0.9632 -0.9272  0.1606
  672MOL0     H90683   3.164   6.502   1.742 -1.2011  2.5842  3.4425
  672MOL0     H90684   3.098   7.022   1.363 -3.5638  0.1167 -1.3487
  672MOL0     H90685   3.008   7.136   1.155 -0.2394  0.8573 -1.1421
  672MOL0     H90686   3.259   7.079   0.792 -0.3618  1.7360  0.4783
  672MOL0     H90687   3.145   6.949   0.759 -0.7204  0.6090 -1.0565
  672MOL0     H90688   3.076   7.230   0.682 -2.2923 -0.1434  2.4915
  672MOL0     H90689   3.135   7.089   0.587  2.1316 -1.0530  1.1418
  672MOL0     H90690   2.866   7.106   0.720 -0.6517 -1.6324 -0.6346
  672MOL0     H90691   2.932   6.947   0.677 -0.5585 -1.2723 -3.8510
  672MOL0     H90692   2.882   7.197   0.508 -0.3512  0.3961 -0.5470
  672MOL0     H90693   2.960   7.057   0.441  1.9917  3.8819  0.8500
  672MOL0     H90694   2.698   7.070   0.399 -3.6047 -1.1434 -0.3690
  672MOL0     H90695   2.687   7.049   0.567 -1.4329 -1.0878 -0.5402
  672MOL0     H90696   2.803   6.871   0.340  0.8142 -0.8307  0.6208
  672MOL0     H90697   2.854   6.843   0.513  1.6182  4.6282  1.5573
  672MOL0     H90698   2.586   6.815   0.373 -0.5576 -0.2974  0.1680
  672MOL0     H90699   2.590   6.827   0.554  0.2616  1.0242  0.6001
  672MOL0     H90700   2.712   6.626   0.566  0.3982 -3.3717 -0.8766
  672MOL0     H90701   2.766   6.627   0.401  2.6304 -1.8557  3.2622
  672MOL0     H90702   3.321   6.903   0.938  3.4151 -1.1759  2.4239
  672MOL0     H90703   3.364   6.791   1.122  0.6192 -0.4388  1.3772
  672MOL0     H90704   3.473   6.894   1.524 -1.7303  1.8136  0.9651
  672MOL0     H90705   3.607   6.882   1.711 -0.3548  0.4978  0.7834
  672MOL0     H90706   5.357   6.441   2.280 -1.1609 -0.6335 -1.3486
  672MOL0     H90707   5.540   6.347   2.131  0.6420  0.6195  0.3919
  672MOL0     H90708   5.729   6.381   1.706  0.2937 -0.6045 -0.9149
  672MOL0     H90709   5.913   6.317   1.556  0.5333 -1.1490  0.9143
  672MOL0     H90710   6.086   6.199   1.448  1.6209 -0.3065 -0.9619
  672MOL0     H90711   6.079   6.365   1.419 -0.2058 -0.3591 -0.2434
  672MOL0     H90712   6.312   6.160   1.451 -2.9517 -1.4975 -0.2753
  672MOL0     H90713   6.354   6.328   1.410  1.7399 -1.2346  0.8417
  672MOL0     H90714   6.224   6.329   1.221 -1.3049 -0.8099 -1.1308
  672MOL0     H90715   6.152   6.174   1.240 -1.5532  1.6196  0.1874
  672MOL0     H90716   6.335   6.157   1.078 -1.2000  2.6470  0.4565
  672MOL0     H90717   6.394   6.079   1.232 -2.9727 -1.8127  0.9861
  672MOL0     H90718   6.661   6.390   1.222  0.8787 -0.8296  0.2691
  672MOL0     H90719   6.204   6.433   1.844  0.4870 -1.7280 -1.0460
  672MOL0     H90720   6.031   6.482   2.001  0.4813 -0.5527 -0.4577
  673MOL0     O90721  10.616   8.413   3.256 -0.4318 -0.3252  0.5911
  673MOL0     C90722  10.548   8.451   3.348 -0.1782 -0.4052  0.0722
  673MOL0     O90723  10.597   8.488   3.469 -1.1654 -0.6532 -0.3503
  673MOL0     C90724  10.736   8.487   3.482 -0.8518 -1.2628 -0.8107
  673MOL0     C90725  10.803   8.372   3.526 -0.7356  0.0583 -0.0521
  673MOL0     C90726  10.943   8.376   3.540  0.7589  0.3456  0.3057
  673MOL0     C90727  11.013   8.497   3.518 -0.0580  0.4282  0.1553
  673MOL0     O90728  11.148   8.488   3.548 -0.0902  0.1036  0.7258
  673MOL0     C90729  11.233   8.600   3.509  0.8786 -0.4533  0.6640
  673MOL0     C90730  11.380   8.570   3.537 -0.2076 -0.4818 -0.4736
  673MOL0     C90731  11.441   8.456   3.463 -0.8221 -0.0810 -0.0108
  673MOL0     C90732  11.450   8.474   3.313 -0.4274  0.5325  0.2824
  673MOL0     C90733  11.519   8.599   3.261 -1.0305 -0.5389 -0.0616
  673MOL0     C90734  11.663   8.615   3.313  0.3469  0.0511 -0.0646
  673MOL0     C90735  11.770   8.533   3.233 -0.1890 -1.3440 -0.1091
  673MOL0     C90736  11.905   8.549   3.310 -0.1034  0.0436  0.5790
  673MOL0     N90737  11.964   8.677   3.313  0.0271 -0.6467  0.5709
  673MOL0     C90738  12.041   8.724   3.208  0.5417 -0.4818  0.0176
  673MOL0     C90739  12.042   8.860   3.221 -0.4952 -0.5798 -0.0952
  673MOL0     C90740  12.084   8.955   3.118 -0.2955 -0.0800  0.3194
  673MOL0     C90741  12.231   8.992   3.107  0.5824 -0.4436 -0.7804
  673MOL0     C90742  12.266   9.059   2.976  0.2217 -0.3999 -0.5151
  673MOL0     C90743  12.242   8.992   2.841 -0.0066  0.4260  0.2065
  673MOL0     O90744  12.266   9.065   2.721  0.3204 -0.0893 -0.4778
  673MOL0     C90745  12.260   9.007   2.595 -0.9126  0.4122  0.2812
  673MOL0     C90746  12.245   9.083   2.477  1.2128  0.4562  0.1657
  673MOL0     C90747  12.262   9.032   2.345 -0.1017  0.0881  0.6037
  673MOL0     C90748  12.266   9.124   2.236  0.5859  0.0658 -0.1882
  673MOL0     C90749  12.287   8.892   2.336 -0.7454  0.5109 -0.0609
  673MOL0     C90750  12.292   8.826   2.206  0.4655  0.0269  0.4245
  673MOL0     O90751  12.175   8.772   2.156  0.9133  0.5292  0.2067
  673MOL0     C90752  12.165   8.746   2.017 -0.6961 -0.2988 -0.8018
  673MOL0     C90753  12.204   8.630   1.948  0.6565 -1.1384 -0.3094
  673MOL0     C90754  12.199   8.617   1.814  0.6629 -0.4093  0.0245
  673MOL0     C90755  12.145   8.709   1.728 -0.4140 -0.0771 -0.6680
  673MOL0     O90756  12.139   8.693   1.585 -0.2575  0.1725 -1.1309
  673MOL0     C90757  12.070   8.789   1.502  0.7513  1.2909  0.6122
  673MOL0     C90758  12.036   8.740   1.358  1.2757 -1.2653  0.1566
  673MOL0     C90759  12.138   8.655   1.292  0.0697 -0.0483  0.6578
  673MOL0     C90760  12.104   8.609   1.143 -0.6276 -0.3407 -0.2109
  673MOL0     C90761  12.208   8.507   1.095  0.3566  0.9876 -0.5845
  673MOL0     C90762  12.165   8.447   0.960  0.6772  0.7627 -0.2578
  673MOL0     C90763  12.283   8.442   0.866  0.5032 -1.2408  0.7809
  673MOL0     C90764  12.262   8.563   0.769  0.2353  0.9117 -0.0529
  673MOL0    Cl90765  12.402   8.562   0.652  0.1845 -0.1250  0.2247
  673MOL0     C90766  12.103   8.831   1.794 -0.4507 -0.8738  0.3170
  673MOL0     C90767  12.111   8.847   1.932 -0.6070 -0.1590 -0.6775
  673MOL0     O90768  12.404   8.836   2.149  0.9052  0.7692  0.2691
  673MOL0     C90769  12.314   8.813   2.450  1.3101 -0.2550 -1.1779
  673MOL0     C90770  12.287   8.868   2.577 -0.2305 -0.1789 -0.1280
  673MOL0     N90771  11.969   8.893   3.330 -0.7078 -0.1977 -0.5827
  673MOL0     N90772  11.931   8.787   3.385  0.2644 -0.4999 -0.0548
  673MOL0     C90773  10.943   8.606   3.476 -0.2764  1.0267 -0.7217
  673MOL0     C90774  10.802   8.604   3.469 -0.2723  0.7870  1.3379
  673MOL0     C90775  10.404   8.452   3.343 -0.0383  0.1399  0.4589
  673MOL0     C90776  10.339   8.446   3.218  0.6649 -0.3923 -0.1451
  673MOL0     C90777  10.199   8.453   3.214 -0.8089 -0.6377  0.7823
  673MOL0     C90778  10.122   8.444   3.322 -0.1848 -0.5906 -0.4453
  673MOL0     O90779   9.990   8.420   3.297  0.2784  0.1358  0.4211
  673MOL0     C90780   9.903   8.384   3.404  0.8135 -0.9684  0.1567
  673MOL0     C90781   9.775   8.326   3.353 -0.6222 -0.4833  0.6558
  673MOL0     C90782   9.702   8.426   3.265 -0.0747 -0.3055  0.4206
  673MOL0     C90783   9.570   8.369   3.228  0.5701  0.2345 -0.0691
  673MOL0     C90784   9.482   8.454   3.141 -0.9731  0.0443 -0.1614
  673MOL0     C90785   9.392   8.512   3.085  0.0450 -0.0072 -0.1006
  673MOL0     C90786  10.186   8.467   3.448 -0.6324 -1.1712  0.5900
  673MOL0     C90787  10.328   8.471   3.459  1.2834 -0.0664 -0.0881
  673MOL0     H90788  10.749   8.281   3.548 -2.0294  1.3108  2.3177
  673MOL0     H90789  10.992   8.285   3.574  2.0778  0.9153  0.0018
  673MOL0     H90790  11.226   8.621   3.402  2.6608 -1.5146  0.2910
  673MOL0     H90791  11.194   8.682   3.569 -2.6869  0.2248 -2.1962
  673MOL0     H90792  11.444   8.655   3.515  0.8160 -0.8938  0.7949
  673MOL0     H90793  11.387   8.551   3.644 -0.4666 -1.9021 -0.6818
  673MOL0     H90794  11.537   8.433   3.509  0.3046  2.3705 -0.9433
  673MOL0     H90795  11.378   8.367   3.473  0.0125 -0.9003 -1.6478
  673MOL0     H90796  11.500   8.386   3.272 -2.3674  0.3640 -1.9943
  673MOL0     H90797  11.348   8.469   3.271  0.2602 -0.4165 -1.3857
  673MOL0     H90798  11.512   8.590   3.152 -0.5607 -4.2350  0.0885
  673MOL0     H90799  11.471   8.695   3.282  1.7279  0.6277  1.4402
  673MOL0     H90800  11.689   8.721   3.314  1.2831 -0.1471 -1.0790
  673MOL0     H90801  11.667   8.587   3.418  1.3242 -0.8229 -0.3195
  673MOL0     H90802  11.748   8.426   3.233  0.6866 -1.5349  0.3823
  673MOL0     H90803  11.776   8.564   3.128 -0.4820 -2.1743 -0.3817
  673MOL0     H90804  11.976   8.473   3.275 -0.2128  0.5117 -0.6868
  673MOL0     H90805  11.880   8.511   3.410 -0.1268 -1.0552  0.1648
  673MOL0     H90806  12.082   8.668   3.124  1.0778 -1.0488  0.6478
  673MOL0     H90807  12.058   8.909   3.022 -0.0351  0.2368  0.0962
  673MOL0     H90808  12.032   9.050   3.131  1.9862  1.7715 -2.6339
  673MOL0     H90809  12.296   8.905   3.122  0.7080 -0.0378  1.3466
  673MOL0     H90810  12.243   9.062   3.191  0.0675 -0.1664 -0.9314
  673MOL0     H90811  12.369   9.094   2.993 -0.7532  2.4946  0.0283
  673MOL0     H90812  12.216   9.156   2.965 -0.7770 -0.9506 -0.8508
  673MOL0     H90813  12.133   8.983   2.828 -0.5801  6.1110 -1.5611
  673MOL0     H90814  12.295   8.896   2.844  0.8735  0.8744 -0.5269
  673MOL0     H90815  12.217   9.187   2.490  2.4476  1.3952 -3.5508
  673MOL0     H90816  12.360   9.117   2.181  0.3175 -0.5271 -0.5814
  673MOL0     H90817  12.185   9.113   2.163 -0.4071  0.7020  0.7812
  673MOL0     H90818  12.262   9.223   2.282 -0.0623 -0.1966  0.3379
  673MOL0     H90819  12.240   8.547   2.009  0.0774  0.0813  1.8171
  673MOL0     H90820  12.227   8.520   1.774 -2.2706 -1.1992 -0.3899
  673MOL0     H90821  11.991   8.838   1.560  0.8242  0.5577  1.3422
  673MOL0     H90822  12.136   8.875   1.486  4.6623 -1.7395 -1.1574
  673MOL0     H90823  11.942   8.686   1.373  1.4463 -1.4461  0.6044
  673MOL0     H90824  12.022   8.830   1.297  3.3401 -1.1658 -0.2329
  673MOL0     H90825  12.153   8.558   1.339  0.1521 -0.9150 -1.0616
  673MOL0     H90826  12.239   8.697   1.291 -0.2931  1.2017  3.9263
  673MOL0     H90827  12.004   8.567   1.157  0.1711 -1.4115  3.1684
  673MOL0     H90828  12.094   8.694   1.074  0.0462  1.4275  1.7614
  673MOL0     H90829  12.236   8.425   1.162  3.4413  2.4427  0.1028
  673MOL0     H90830  12.299   8.567   1.096  0.5741  0.6589 -0.2465
  673MOL0     H90831  12.131   8.346   0.984  0.6729  0.9938  0.7392
  673MOL0     H90832  12.074   8.498   0.927 -1.7922 -1.7717  2.1079
  673MOL0     H90833  12.285   8.344   0.817 -2.2824 -0.8442 -0.3029
  673MOL0     H90834  12.378   8.448   0.919  1.4645  3.3201 -1.0320
  673MOL0     H90835  12.245   8.664   0.807 -1.5768  1.8793 -3.0827
  673MOL0     H90836  12.168   8.551   0.714  0.5147  1.8071 -0.7461
  673MOL0     H90837  12.074   8.912   1.727  0.4563 -0.9150 -0.1422
  673MOL0     H90838  12.088   8.941   1.980  2.4482 -0.3727  1.5239
  673MOL0     H90839  12.346   8.709   2.441  0.4800 -0.8761  1.9297
  673MOL0     H90840  12.308   8.805   2.663 -2.3095 -2.2777 -1.0373
  673MOL0     H90841  10.987   8.705   3.484  2.3571 -0.2011  1.9611
  673MOL0     H90842  10.742   8.686   3.431 -1.8588 -2.8797 -6.0123
  673MOL0     H90843  10.383   8.425   3.121 -0.1971 -5.0661  0.2351
  673MOL0     H90844  10.165   8.443   3.112  0.3827 -0.1304  0.3237
  673MOL0     H90845   9.955   8.306   3.460 -1.5768 -1.7589  1.4456
  673MOL0     H90846   9.879   8.462   3.477  1.5125 -0.5385 -0.0715
  673MOL0     H90847   9.715   8.296   3.439  0.9369 -0.1624  1.8979
  673MOL0     H90848   9.795   8.234   3.297  1.0420  1.1768 -1.7006
  673MOL0     H90849   9.753   8.443   3.170  0.8883  1.3537  1.1906
  673MOL0     H90850   9.693   8.522   3.315 -1.2520 -0.4097  0.4487
  673MOL0     H90851   9.517   8.348   3.321  0.0233 -1.3143 -0.7068
  673MOL0     H90852   9.577   8.267   3.190  1.7464  0.0447  0.5885
  673MOL0     H90853   9.326   8.583   3.040 -1.8008 -1.6725 -0.1477
  673MOL0     H90854  10.122   8.492   3.532 -0.1587  0.4613  0.4857
  673MOL0     H90855  10.369   8.476   3.559 -1.0383  1.0111  0.8563
  674MOL0     O90856   5.290   4.683   2.523  0.0772 -0.2096 -0.4948
  674MOL0     C90857   5.335   4.725   2.632 -0.6175 -0.2891  0.1452
  674MOL0     O90858   5.274   4.719   2.750 -0.2536  0.3738 -0.5298
  674MOL0     C90859   5.150   4.669   2.762  0.5239  0.0224  0.6991
  674MOL0     C90860   5.128   4.591   2.875  0.2849 -0.8219  0.0562
  674MOL0     C90861   5.002   4.558   2.913  0.4624 -0.2267  0.4060
  674MOL0     C90862   4.890   4.599   2.837  1.2134  0.1886  0.7975
  674MOL0     O90863   4.753   4.599   2.871  0.3172  0.0814  0.1033
  674MOL0     C90864   4.716   4.518   2.985 -1.5332  0.5226 -0.2210
  674MOL0     C90865   4.565   4.512   2.990  0.4570 -0.4682  0.1466
  674MOL0     C90866   4.515   4.656   2.993  1.1026 -0.7372  0.3362
  674MOL0     C90867   4.363   4.650   3.012 -0.2470  0.4227 -0.2945
  674MOL0     C90868   4.310   4.787   2.986  0.3590  0.0949  0.9703
  674MOL0     C90869   4.171   4.818   3.057  0.0953 -0.5994 -0.1606
  674MOL0     C90870   4.051   4.764   2.985  0.4713 -0.7265  0.5765
  674MOL0     C90871   4.025   4.806   2.838 -1.0002  0.4013  0.6549
  674MOL0     N90872   4.050   4.950   2.822  1.2152  0.5308  0.5130
  674MOL0     C90873   3.959   5.046   2.857 -0.0779 -0.0518 -0.4172
  674MOL0     C90874   4.018   5.161   2.832 -0.4748  0.1765  0.3031
  674MOL0     C90875   3.960   5.299   2.842  0.6231 -0.3128  0.2000
  674MOL0     C90876   3.800   5.299   2.807  0.1102 -0.3767 -0.1646
  674MOL0     C90877   3.730   5.423   2.881 -0.7996 -0.3304 -0.0311
  674MOL0     C90878   3.790   5.557   2.845 -0.6677 -0.8879  1.7735
  674MOL0     O90879   3.729   5.668   2.914 -0.5291  0.1128  0.0107
  674MOL0     C90880   3.609   5.710   2.870 -0.6686 -0.3761  0.0701
  674MOL0     C90881   3.598   5.787   2.753 -0.0049  0.7823 -0.0649
  674MOL0     C90882   3.473   5.846   2.718  0.6549  0.8947 -0.5770
  674MOL0     C90883   3.480   5.919   2.590 -0.2278 -0.3775  0.1281
  674MOL0     C90884   3.355   5.817   2.792  0.5554 -0.7746  0.3986
  674MOL0     C90885   3.211   5.869   2.769 -0.4943 -0.0378 -0.2192
  674MOL0     O90886   3.201   5.965   2.677  0.4998 -0.0895  0.3071
  674MOL0     C90887   3.098   6.055   2.671 -0.1146  0.2377  0.3411
  674MOL0     C90888   3.120   6.156   2.574  0.4217 -0.4117  0.0399
  674MOL0     C90889   3.016   6.244   2.545 -0.3901  0.5264  0.1467
  674MOL0     C90890   2.891   6.235   2.610 -0.0002 -0.0338  0.3350
  674MOL0     O90891   2.797   6.325   2.566  0.1242 -0.6392  0.3685
  674MOL0     C90892   2.656   6.301   2.584  0.1604  1.0971 -0.0793
  674MOL0     C90893   2.592   6.416   2.659  0.3044  0.0754 -0.1732
  674MOL0     C90894   2.450   6.376   2.709  0.5796 -0.2711 -0.2893
  674MOL0     C90895   2.365   6.495   2.735 -0.6529  0.0148 -0.3312
  674MOL0     C90896   2.224   6.472   2.683 -0.2316 -0.5180 -0.0206
  674MOL0     C90897   2.141   6.603   2.700 -0.1374 -0.2730  0.0030
  674MOL0     C90898   2.008   6.612   2.616  0.2348 -1.1925  0.3286
  674MOL0     C90899   1.941   6.747   2.626  0.5385  0.4100 -0.2591
  674MOL0    Cl90900   1.779   6.715   2.545 -0.0818 -0.0811  0.1055
  674MOL0     C90901   2.874   6.133   2.700 -0.4499  1.0309  0.2965
  674MOL0     C90902   2.975   6.040   2.729 -0.3357 -0.1911  0.7381
  674MOL0     O90903   3.121   5.812   2.834  0.3351  0.0413 -0.3868
  674MOL0     C90904   3.371   5.715   2.900  0.0085  0.4980  0.1231
  674MOL0     C90905   3.496   5.686   2.939  0.6285 -0.2546 -0.5875
  674MOL0     N90906   4.148   5.135   2.782 -0.2773  0.4324 -0.5533
  674MOL0     N90907   4.160   5.009   2.776 -0.0143  0.0798  0.2081
  674MOL0     C90908   4.906   4.682   2.726  0.1204  0.0900  1.2236
  674MOL0     C90909   5.041   4.719   2.685  0.0660  0.8804 -0.2245
  674MOL0     C90910   5.473   4.775   2.637 -0.2146 -0.3737 -0.6126
  674MOL0     C90911   5.544   4.821   2.524  0.1525  0.0154  0.4832
  674MOL0     C90912   5.669   4.882   2.531  0.1986 -0.6185  0.0171
  674MOL0     C90913   5.732   4.909   2.658 -0.6446 -1.0128  0.9971
  674MOL0     O90914   5.852   4.985   2.663  0.1741 -0.5897  0.4376
  674MOL0     C90915   5.957   4.959   2.759  0.7725  0.0928  0.1524
  674MOL0     C90916   6.063   5.068   2.783  0.4584  0.9796  0.1293
  674MOL0     C90917   6.134   5.049   2.912 -0.5587  0.5647  0.0919
  674MOL0     C90918   6.224   4.922   2.929 -0.0818  0.4791 -1.4293
  674MOL0     C90919   6.345   4.918   2.840  0.7643 -0.7158 -0.1512
  674MOL0     C90920   6.436   4.909   2.762  1.1880  0.1023 -0.6694
  674MOL0     C90921   5.669   4.871   2.773 -0.1785  0.4351 -0.4754
  674MOL0     C90922   5.548   4.797   2.761 -0.3047  0.5891  0.6811
  674MOL0     H90923   5.213   4.567   2.939 -0.1121 -2.9456 -0.1359
  674MOL0     H90924   4.985   4.507   3.008 -1.9164  1.6280  1.0788
  674MOL0     H90925   4.753   4.415   2.984  0.3207  1.0545  2.7149
  674MOL0     H90926   4.758   4.572   3.070  1.5511 -0.4917 -0.9725
  674MOL0     H90927   4.526   4.454   2.906 -0.4409 -1.6368  1.3446
  674MOL0     H90928   4.530   4.453   3.075 -0.3547 -1.6766 -0.9731
  674MOL0     H90929   4.568   4.720   3.064  0.9903 -0.1563 -0.0984
  674MOL0     H90930   4.528   4.694   2.891 -1.5080  0.2127  0.2660
  674MOL0     H90931   4.311   4.582   2.944  1.5967 -0.2254 -1.1134
  674MOL0     H90932   4.346   4.616   3.115 -0.7139 -0.7736 -0.7460
  674MOL0     H90933   4.383   4.866   3.008 -0.8070  2.0050 -1.4629
  674MOL0     H90934   4.295   4.802   2.879 -0.8006  0.6265  1.1845
  674MOL0     H90935   4.171   4.794   3.164 -0.1289 -0.2650 -0.0838
  674MOL0     H90936   4.161   4.927   3.064 -4.0480 -0.9209  1.2836
  674MOL0     H90937   4.064   4.655   2.982  2.5197 -0.4984 -1.6864
  674MOL0     H90938   3.963   4.785   3.047 -0.6818 -2.9902 -0.1722
  674MOL0     H90939   3.926   4.766   2.812  0.4060 -2.9477 -0.0890
  674MOL0     H90940   4.106   4.757   2.782  1.0273  0.5485  3.2855
  674MOL0     H90941   3.855   5.024   2.880 -0.2690 -0.2201 -1.4247
  674MOL0     H90942   3.966   5.344   2.942 -0.3185  0.8770 -0.2444
  674MOL0     H90943   4.010   5.370   2.776 -2.5192  0.9469 -1.0520
  674MOL0     H90944   3.742   5.214   2.843 -1.0665  1.1967  1.8406
  674MOL0     H90945   3.765   5.308   2.704 -1.5748  0.4662  0.4440
  674MOL0     H90946   3.745   5.411   2.989 -0.3702  3.5385  0.4949
  674MOL0     H90947   3.622   5.414   2.869 -1.0906  1.4071  0.8600
  674MOL0     H90948   3.813   5.569   2.739  2.1190  3.9391  2.6394
  674MOL0     H90949   3.894   5.557   2.878  0.1872 -0.9980 -0.7048
  674MOL0     H90950   3.683   5.812   2.690 -0.8134  0.2475 -1.4264
  674MOL0     H90951   3.402   5.886   2.521 -1.2584 -0.3422  1.2346
  674MOL0     H90952   3.471   6.028   2.599  5.1727  0.5235 -1.6509
  674MOL0     H90953   3.577   5.913   2.539 -0.2279 -2.9483  0.2991
  674MOL0     H90954   3.219   6.162   2.531 -0.3866 -1.7186 -2.1413
  674MOL0     H90955   3.041   6.323   2.474 -0.6529 -0.6354 -1.2975
  674MOL0     H90956   2.599   6.294   2.491 -1.5765 -1.0270  1.0503
  674MOL0     H90957   2.642   6.202   2.627 -1.7570  0.8201 -1.2111
  674MOL0     H90958   2.664   6.439   2.738  0.7316 -2.1425  0.1295
  674MOL0     H90959   2.590   6.502   2.591 -2.3298  0.6714  0.5183
  674MOL0     H90960   2.458   6.309   2.795 -0.1898 -1.1919 -0.9240
  674MOL0     H90961   2.394   6.307   2.645  0.9452  0.6586 -1.6565
  674MOL0     H90962   2.368   6.512   2.843 -0.2471 -2.5007  0.1352
  674MOL0     H90963   2.398   6.576   2.670 -0.0768 -1.2864 -1.7475
  674MOL0     H90964   2.176   6.407   2.757  0.5510  1.0947  2.0008
  674MOL0     H90965   2.215   6.433   2.581  3.7898  1.4356 -1.3361
  674MOL0     H90966   2.115   6.612   2.806  0.3349 -0.5024  0.1418
  674MOL0     H90967   2.208   6.686   2.675 -0.5301  0.4163  1.1459
  674MOL0     H90968   1.933   6.540   2.649  1.1283 -2.0955  0.4432
  674MOL0     H90969   2.032   6.598   2.510 -2.9641  0.4907 -0.7421
  674MOL0     H90970   2.004   6.817   2.571  0.6441 -1.6629 -3.0319
  674MOL0     H90971   1.914   6.773   2.729 -1.5459 -1.7700 -0.1566
  674MOL0     H90972   2.789   6.115   2.764  1.4407 -3.6156  1.8751
  674MOL0     H90973   2.950   5.957   2.794 -0.4195 -2.3244 -1.8236
  674MOL0     H90974   3.288   5.696   2.967 -0.4490  2.1009  0.0753
  674MOL0     H90975   3.514   5.628   3.029  0.7841 -1.2594 -1.2480
  674MOL0     H90976   4.818   4.734   2.688 -1.3128 -0.8769  3.0659
  674MOL0     H90977   5.059   4.764   2.588 -3.7692  1.1059 -1.0153
  674MOL0     H90978   5.503   4.783   2.431  1.9601 -0.1987 -0.2634
  674MOL0     H90979   5.723   4.905   2.439  0.2185  2.0198  0.6000
  674MOL0     H90980   5.914   4.945   2.859 -1.0964  0.9114 -0.4817
  674MOL0     H90981   5.993   4.857   2.745 -1.8921 -0.7119 -1.7055
  674MOL0     H90982   6.006   5.162   2.779  0.9553  1.3164  0.7264
  674MOL0     H90983   6.126   5.060   2.694 -1.1687 -0.1345 -0.9663
  674MOL0     H90984   6.059   5.054   2.992 -0.1806 -0.0495  0.4930
  674MOL0     H90985   6.194   5.140   2.927  0.4818 -0.2431  1.0127
  674MOL0     H90986   6.158   4.839   2.902 -0.0744  0.4289 -1.2906
  674MOL0     H90987   6.254   4.925   3.034 -1.2956  1.7749 -1.0821
  674MOL0     H90988   6.522   4.903   2.699  1.7841  2.4662 -0.1931
  674MOL0     H90989   5.722   4.888   2.867 -0.9593 -0.7465  0.2106
  674MOL0     H90990   5.493   4.758   2.846 -0.0145 -0.7556  0.2787
  675MOL0     O90991   2.753   2.442   3.768 -0.5926 -0.0409 -0.0783
  675MOL0     C90992   2.749   2.338   3.828  0.3702  0.1258  0.1298
  675MOL0     O90993   2.661   2.304   3.920  1.2111  0.7926 -0.2958
  675MOL0     C90994   2.547   2.361   3.970  0.0571 -0.6080  0.6578
  675MOL0     C90995   2.488   2.279   4.061  0.0642 -0.3263 -0.9533
  675MOL0     C90996   2.370   2.318   4.120  0.3653  0.4106  0.0707
  675MOL0     C90997   2.305   2.433   4.082 -1.0207 -0.3142  0.1689
  675MOL0     O90998   2.193   2.479   4.139  0.5335 -0.3781  0.0167
  675MOL0     C90999   2.086   2.377   4.142  0.0329  0.6006  0.3070
  675MOL0     C91000   1.966   2.432   4.224 -0.0498  0.3520  0.4600
  675MOL0     C91001   1.864   2.327   4.222  0.0690  0.5663 -0.2984
  675MOL0     C91002   1.754   2.338   4.332 -0.2688 -0.3676 -0.0736
  675MOL0     C91003   1.681   2.208   4.382 -0.3318  0.8592  0.3207
  675MOL0     C91004   1.763   2.143   4.498 -0.5088 -0.4913 -0.1748
  675MOL0     C91005   1.684   2.028   4.561 -0.8374 -0.9372  0.3460
  675MOL0     C91006   1.566   2.061   4.643  0.4441  0.2901  0.7018
  675MOL0     N91007   1.601   2.148   4.754 -0.8298 -0.1287  0.1565
  675MOL0     C91008   1.591   2.288   4.758  0.6179 -0.0896  0.6140
  675MOL0     C91009   1.642   2.316   4.886  0.0846  0.4383  0.5560
  675MOL0     C91010   1.688   2.453   4.920 -0.4028 -0.4710  0.4081
  675MOL0     C91011   1.603   2.525   5.031  0.3000  0.3341 -0.5255
  675MOL0     C91012   1.460   2.555   4.984  0.4679  0.9868  0.3804
  675MOL0     C91013   1.388   2.639   5.096 -0.7055  1.0920  0.0586
  675MOL0     O91014   1.376   2.557   5.215 -0.1684 -0.5455 -0.1327
  675MOL0     C91015   1.282   2.456   5.209  0.1136 -1.4150 -0.5881
  675MOL0     C91016   1.274   2.386   5.323  0.3502 -0.0471  0.3397
  675MOL0     C91017   1.189   2.276   5.347 -0.0392  0.4318 -0.3212
  675MOL0     C91018   1.202   2.213   5.488 -0.5174 -0.4646  0.1555
  675MOL0     C91019   1.098   2.238   5.251 -0.6019  0.8006 -0.0491
  675MOL0     C91020   0.993   2.135   5.258 -0.6128  0.2930 -0.6150
  675MOL0     O91021   0.913   2.116   5.141  0.3584  0.3756  0.0215
  675MOL0     C91022   0.801   2.039   5.137 -0.0619  0.0979 -0.0584
  675MOL0     C91023   0.747   1.995   5.019  0.2549  0.4561  0.2750
  675MOL0     C91024   0.632   1.924   5.011 -0.6913  0.0709 -0.4101
  675MOL0     C91025   0.562   1.905   5.135  0.8862  0.1450  0.7588
  675MOL0     O91026   0.452   1.816   5.136 -0.4660  0.1852 -0.5136
  675MOL0     C91027   0.327   1.874   5.174 -0.5868  0.3598 -0.1969
  675MOL0     C91028   0.224   1.777   5.116  0.3098  0.5082 -1.2919
  675MOL0     C91029   0.081   1.831   5.137  0.1253 -0.1890 -0.8147
  675MOL0     C91030  -0.005   1.757   5.038  0.5665  0.5092  0.4706
  675MOL0     C91031  -0.155   1.801   5.048 -0.2772 -0.8438 -0.6552
  675MOL0     C91032  -0.259   1.739   4.949 -0.0438  0.0700  0.3006
  675MOL0     C91033  -0.398   1.799   4.962 -0.1506  0.2988  0.3960
  675MOL0     C91034  -0.490   1.702   4.900 -0.2147  0.6356 -0.0960
  675MOL0    Cl91035  -0.515   1.553   4.996 -0.0902 -0.1070  0.1711
  675MOL0     C91036   0.605   1.954   5.258 -0.5086 -0.1854 -0.7194
  675MOL0     C91037   0.724   2.017   5.250  0.7707 -0.0115 -0.3191
  675MOL0     O91038   0.979   2.073   5.364  1.1482  0.3411  0.8274
  675MOL0     C91039   1.102   2.311   5.133 -0.0568 -0.4989 -0.3162
  675MOL0     C91040   1.193   2.414   5.114 -0.0516  0.0859 -0.5391
  675MOL0     N91041   1.686   2.207   4.952 -0.0028 -0.3725 -0.3291
  675MOL0     N91042   1.652   2.100   4.880 -0.1894 -0.1435  0.2055
  675MOL0     C91043   2.363   2.513   3.978  0.5190  0.2341 -0.1462
  675MOL0     C91044   2.488   2.477   3.925  1.3338  0.4616  0.5295
  675MOL0     C91045   2.847   2.235   3.786 -0.0448  0.0394 -0.2809
  675MOL0     C91046   2.949   2.273   3.697 -0.2595  0.0414  0.3270
  675MOL0     C91047   3.044   2.173   3.668 -0.4104  0.2264  0.2113
  675MOL0     C91048   3.042   2.045   3.714  0.6110  0.3368 -0.5347
  675MOL0     O91049   3.158   1.963   3.703 -0.1883 -0.4500 -0.4503
  675MOL0     C91050   3.139   1.817   3.705 -0.6019 -0.1750  0.1029
  675MOL0     C91051   3.129   1.768   3.554 -0.2850 -0.2033 -0.6501
  675MOL0     C91052   3.232   1.829   3.455 -0.3430  0.0892  0.2606
  675MOL0     C91053   3.368   1.756   3.458  0.4267  0.6102 -0.1795
  675MOL0     C91054   3.363   1.623   3.402  0.5568  0.2288 -0.1257
  675MOL0     C91055   3.336   1.506   3.368  0.7983  0.3515 -0.2929
  675MOL0     C91056   2.932   2.008   3.796  0.5826  0.1329 -0.2483
  675MOL0     C91057   2.834   2.102   3.832  0.7298  0.2665 -0.6337
  675MOL0     H91058   2.543   2.188   4.084  1.8661  1.6365  3.7718
  675MOL0     H91059   2.322   2.255   4.193  2.8660 -0.6127  0.9663
  675MOL0     H91060   2.060   2.348   4.039 -2.1883  3.8328 -0.2150
  675MOL0     H91061   2.126   2.295   4.202  3.3219  0.9318 -1.1886
  675MOL0     H91062   2.000   2.450   4.326  0.7962 -0.3385  0.3128
  675MOL0     H91063   1.923   2.528   4.196 -5.0116 -1.2616  1.5028
  675MOL0     H91064   1.815   2.322   4.124 -0.3856  0.5539 -0.0746
  675MOL0     H91065   1.916   2.232   4.238  0.1078  1.0238  2.9359
  675MOL0     H91066   1.811   2.369   4.420 -0.3308  0.1929 -0.2334
  675MOL0     H91067   1.683   2.416   4.306 -2.1659 -2.4204 -1.4511
  675MOL0     H91068   1.580   2.235   4.415 -0.7472 -1.0154  0.6931
  675MOL0     H91069   1.682   2.133   4.303  2.6066  0.1880  0.9114
  675MOL0     H91070   1.860   2.120   4.454 -0.3279  2.9324 -1.9295
  675MOL0     H91071   1.785   2.219   4.574 -1.6109 -0.6694  0.3421
  675MOL0     H91072   1.645   1.957   4.488 -0.8983 -1.7814  1.1847
  675MOL0     H91073   1.746   1.959   4.618 -1.2642  0.4636  2.6647
  675MOL0     H91074   1.530   1.966   4.683  1.6038 -0.0312  1.0346
  675MOL0     H91075   1.489   2.095   4.574  2.8881 -2.2119 -3.7009
  675MOL0     H91076   1.557   2.361   4.685  1.3395  1.7012  1.9785
  675MOL0     H91077   1.791   2.453   4.956 -1.4596 -0.3380  3.7340
  675MOL0     H91078   1.682   2.515   4.830  0.7721  0.4434  0.9333
  675MOL0     H91079   1.652   2.621   5.053  0.9804  0.1478 -1.1987
  675MOL0     H91080   1.601   2.464   5.122  3.3421  3.6403  2.0637
  675MOL0     H91081   1.414   2.458   4.963  2.2071  0.3979 -0.9914
  675MOL0     H91082   1.465   2.617   4.893 -0.1208 -1.2659 -1.2642
  675MOL0     H91083   1.288   2.670   5.062 -0.1045  1.1334 -1.8039
  675MOL0     H91084   1.452   2.726   5.115  0.4099  0.3077 -0.0084
  675MOL0     H91085   1.339   2.433   5.396 -0.6959  3.8676 -1.0212
  675MOL0     H91086   1.205   2.106   5.465 -0.9814 -0.6177  0.7977
  675MOL0     H91087   1.304   2.228   5.524  0.4427 -0.6883 -2.2964
  675MOL0     H91088   1.121   2.229   5.559  0.6675  2.4133  1.0054
  675MOL0     H91089   0.795   2.002   4.922 -0.9768 -0.1701 -0.4077
  675MOL0     H91090   0.595   1.883   4.917 -1.4936 -0.5184  0.1504
  675MOL0     H91091   0.332   1.880   5.283  1.2139  1.7746 -0.3133
  675MOL0     H91092   0.311   1.972   5.127  2.0601  0.7318 -0.4509
  675MOL0     H91093   0.248   1.770   5.010  2.0818 -2.4560 -0.8131
  675MOL0     H91094   0.230   1.678   5.161  1.2354 -0.1941 -2.8847
  675MOL0     H91095   0.090   1.939   5.121  4.8308 -0.1200  0.7484
  675MOL0     H91096   0.055   1.811   5.241  0.8777  2.1732 -0.1016
  675MOL0     H91097   0.016   1.768   4.931 -0.2494  3.6141  0.5415
  675MOL0     H91098   0.002   1.650   5.063  1.1063  0.6666  0.9921
  675MOL0     H91099  -0.159   1.910   5.046 -0.3296 -0.6763  2.5829
  675MOL0     H91100  -0.182   1.769   5.149 -1.0157  0.8261 -0.2843
  675MOL0     H91101  -0.213   1.755   4.852 -1.9089 -0.2436 -0.6785
  675MOL0     H91102  -0.272   1.631   4.949  1.5677 -0.1468 -0.6966
  675MOL0     H91103  -0.404   1.897   4.915  1.4477 -0.1037 -0.7175
  675MOL0     H91104  -0.430   1.802   5.067 -1.5144  0.0011  0.0133
  675MOL0     H91105  -0.447   1.675   4.803  1.2996 -1.2643  1.0423
  675MOL0     H91106  -0.590   1.745   4.890 -0.0570  1.7129  2.3597
  675MOL0     H91107   0.564   1.929   5.356 -0.1274  0.4828 -0.3804
  675MOL0     H91108   0.746   2.056   5.349 -2.4762  2.8540 -0.5325
  675MOL0     H91109   1.041   2.283   5.047  1.4334 -2.3599 -0.8321
  675MOL0     H91110   1.191   2.470   5.021 -1.2587 -0.8728 -1.1261
  675MOL0     H91111   2.314   2.607   3.955 -2.4788 -1.6254 -1.8802
  675MOL0     H91112   2.541   2.535   3.850 -0.9397  2.5107  0.3823
  675MOL0     H91113   2.967   2.372   3.657  2.4707  0.2522  1.8055
  675MOL0     H91114   3.131   2.187   3.605 -1.3916 -3.5150 -2.3152
  675MOL0     H91115   3.233   1.779   3.746 -2.1402 -1.6033  2.5848
  675MOL0     H91116   3.066   1.765   3.768  3.1142  0.3801  5.5759
  675MOL0     H91117   3.029   1.789   3.514 -0.1430  1.3728 -0.2522
  675MOL0     H91118   3.142   1.660   3.556 -0.6071 -0.3521 -3.3867
  675MOL0     H91119   3.248   1.936   3.467  3.8050 -0.3703  0.0992
  675MOL0     H91120   3.181   1.808   3.360  1.2643 -2.3415 -0.1586
  675MOL0     H91121   3.422   1.752   3.554  1.6040 -2.1850 -0.8263
  675MOL0     H91122   3.444   1.810   3.401  2.1656 -0.6646  0.8352
  675MOL0     H91123   3.322   1.408   3.328  1.0087  0.2565 -0.1367
  675MOL0     H91124   2.918   1.908   3.835  1.3652  0.5096  1.0652
  675MOL0     H91125   2.749   2.074   3.893  2.9705 -0.1790  2.5271
  676MOL0     O91126  11.178   3.383   4.688  0.7467 -0.4918  0.0681
  676MOL0     C91127  11.199   3.505   4.658 -0.0278  0.6380 -1.0269
  676MOL0     O91128  11.121   3.613   4.700 -0.0968 -0.5202  0.2883
  676MOL0     C91129  11.018   3.598   4.785  0.6879 -0.1189 -0.2046
  676MOL0     C91130  11.045   3.573   4.927 -0.0916 -0.0446  0.3766
  676MOL0     C91131  10.945   3.561   5.020  0.0824 -0.0925 -0.0696
  676MOL0     C91132  10.808   3.580   4.982  0.0771 -0.0362  0.7579
  676MOL0     O91133  10.718   3.584   5.082 -0.7597  0.2508 -0.0941
  676MOL0     C91134  10.601   3.510   5.045  0.3552 -0.4325  0.0739
  676MOL0     C91135  10.488   3.518   5.152 -0.0339  0.2770 -0.1881
  676MOL0     C91136  10.436   3.659   5.194  0.2379 -0.3106 -0.2021
  676MOL0     C91137  10.347   3.653   5.321  0.5935  0.3330 -0.9034
  676MOL0     C91138  10.299   3.777   5.393  0.1472 -1.1573  0.6244
  676MOL0     C91139  10.227   3.745   5.525 -0.0277 -0.0097  0.9548
  676MOL0     C91140  10.174   3.874   5.587  0.7917  1.1073 -0.5095
  676MOL0     C91141  10.101   3.856   5.723  0.2072  0.4087  0.4957
  676MOL0     N91142   9.976   3.788   5.710 -0.5157  0.5220  0.2759
  676MOL0     C91143   9.863   3.845   5.661  0.0022 -0.6257 -0.0785
  676MOL0     C91144   9.776   3.730   5.645  0.9359  0.0576 -0.3224
  676MOL0     C91145   9.639   3.715   5.593 -0.1711 -0.4822  0.1726
  676MOL0     C91146   9.644   3.654   5.456 -0.1269 -0.2364 -0.5266
  676MOL0     C91147   9.719   3.517   5.437  0.1500 -1.0407 -0.0554
  676MOL0     C91148   9.679   3.404   5.536 -0.0014 -0.2439 -0.4780
  676MOL0     O91149   9.703   3.279   5.479  0.4993 -0.4280 -0.6749
  676MOL0     C91150   9.832   3.237   5.449 -0.2694 -0.2172  0.2963
  676MOL0     C91151   9.946   3.291   5.508 -1.0339  0.2748  0.1751
  676MOL0     C91152  10.075   3.270   5.456  0.0042  0.3930  0.5401
  676MOL0     C91153  10.185   3.342   5.525 -0.3282 -0.2823  0.5062
  676MOL0     C91154  10.096   3.193   5.343  0.3540 -0.3603 -0.1780
  676MOL0     C91155  10.222   3.154   5.286 -1.2955 -0.4858  0.0185
  676MOL0     O91156  10.232   3.141   5.154 -0.2567  0.4308  0.6424
  676MOL0     C91157  10.323   3.053   5.104 -0.6620  0.1534 -0.1641
  676MOL0     C91158  10.432   3.109   5.035  1.3434  0.0088 -0.3352
  676MOL0     C91159  10.533   3.029   4.993  0.5956 -0.3387  0.1555
  676MOL0     C91160  10.513   2.886   5.010 -0.2658 -1.3383  0.6233
  676MOL0     O91161  10.610   2.811   4.948 -0.7420 -0.2554  0.2140
  676MOL0     C91162  10.613   2.672   4.965 -0.4703 -0.5810  0.4235
  676MOL0     C91163  10.733   2.608   4.892 -0.9838 -0.3956 -0.1893
  676MOL0     C91164  10.752   2.455   4.901  0.2433  0.5065  0.3983
  676MOL0     C91165  10.642   2.382   4.822 -0.6394 -0.1877  0.5371
  676MOL0     C91166  10.642   2.232   4.846  0.0262  0.7245  1.4397
  676MOL0     C91167  10.768   2.158   4.783 -0.5205  0.5937 -0.3422
  676MOL0     C91168  10.780   2.165   4.641  0.4983 -1.0164 -0.3274
  676MOL0     C91169  10.847   2.036   4.589 -0.2089  0.4934  0.0137
  676MOL0    Cl91170  11.007   2.011   4.657  0.5666 -0.1424  0.5555
  676MOL0     C91171  10.405   2.827   5.079 -0.1319  0.4610  0.6008
  676MOL0     C91172  10.311   2.917   5.130 -0.1279  0.0952 -0.2125
  676MOL0     O91173  10.312   3.135   5.366  0.2314 -0.1261  0.0306
  676MOL0     C91174   9.979   3.152   5.276  0.1393  0.1319 -0.2235
  676MOL0     C91175   9.846   3.174   5.327 -0.2006 -0.3880  0.3745
  676MOL0     N91176   9.840   3.621   5.693 -0.3388 -0.4449  0.2199
  676MOL0     N91177   9.952   3.662   5.740 -0.5682 -0.1011  0.4893
  676MOL0     C91178  10.776   3.599   4.843  0.3168 -0.8356  0.5608
  676MOL0     C91179  10.881   3.612   4.746  0.1618  0.0469 -0.8744
  676MOL0     C91180  11.312   3.529   4.570 -0.2218  0.1904 -0.1010
  676MOL0     C91181  11.361   3.656   4.545  0.7953 -0.3782 -0.4191
  676MOL0     C91182  11.467   3.679   4.466  0.9688 -0.8810  0.7075
  676MOL0     C91183  11.539   3.575   4.415  0.3697  0.8962  0.2846
  676MOL0     O91184  11.646   3.614   4.342  0.4152 -0.4189  0.3659
  676MOL0     C91185  11.702   3.521   4.247  0.1298 -0.1018 -0.1876
  676MOL0     C91186  11.817   3.445   4.314 -0.1883 -0.1168  1.1888
  676MOL0     C91187  11.910   3.385   4.206 -1.8748  1.1808  1.0726
  676MOL0     C91188  11.998   3.267   4.254  0.5540 -0.4599 -0.5082
  676MOL0     C91189  12.084   3.226   4.139 -0.7814 -0.4710 -0.0000
  676MOL0     C91190  12.144   3.187   4.043  0.4226 -0.7906 -0.0232
  676MOL0     C91191  11.501   3.446   4.438 -0.1165  0.2072 -0.7568
  676MOL0     C91192  11.386   3.422   4.513 -0.2204  0.1596 -0.0579
  676MOL0     H91193  11.141   3.554   4.974  0.6945  1.1302 -0.7018
  676MOL0     H91194  10.973   3.541   5.123 -0.9662  0.7154  0.3902
  676MOL0     H91195  10.553   3.553   4.957 -1.9039  0.8784  1.8125
  676MOL0     H91196  10.639   3.408   5.030  0.6243 -0.6467  1.9769
  676MOL0     H91197  10.407   3.450   5.123 -1.0554  1.4656 -0.1631
  676MOL0     H91198  10.532   3.470   5.240  1.0162 -0.7184 -1.2126
  676MOL0     H91199  10.517   3.729   5.212  1.5313 -2.5288  4.3592
  676MOL0     H91200  10.371   3.690   5.112 -0.4529  1.6230  1.0039
  676MOL0     H91201  10.255   3.602   5.291 -0.9807  2.5221 -0.0908
  676MOL0     H91202  10.395   3.596   5.401  1.1335  2.1951  0.1622
  676MOL0     H91203  10.388   3.834   5.420 -0.8861  2.0264 -1.8938
  676MOL0     H91204  10.243   3.835   5.319  1.3028 -0.3990  0.3120
  676MOL0     H91205  10.136   3.686   5.510 -1.3313  1.7184  1.6416
  676MOL0     H91206  10.296   3.690   5.589  1.1483 -0.5296 -0.6829
  676MOL0     H91207  10.256   3.942   5.609 -1.4787  3.7185  0.4726
  676MOL0     H91208  10.116   3.928   5.512 -1.8548 -1.3093 -0.4030
  676MOL0     H91209  10.083   3.953   5.771 -1.1530 -1.3412  3.7998
  676MOL0     H91210  10.158   3.795   5.793 -0.0732 -0.4648 -0.0224
  676MOL0     H91211   9.845   3.950   5.639  1.1882  0.2796  2.8177
  676MOL0     H91212   9.580   3.655   5.663 -0.1763 -0.0660  0.5379
  676MOL0     H91213   9.589   3.812   5.602 -0.1801 -0.5081  0.4140
  676MOL0     H91214   9.691   3.712   5.376 -1.0987  0.3354 -0.7008
  676MOL0     H91215   9.540   3.637   5.429  0.0831  2.3355 -3.4684
  676MOL0     H91216   9.827   3.532   5.439  0.0504 -0.1865 -0.6016
  676MOL0     H91217   9.703   3.475   5.337  0.0963  2.6374 -1.7741
  676MOL0     H91218   9.573   3.403   5.565  1.1123 -0.2646  4.5682
  676MOL0     H91219   9.734   3.414   5.630 -2.6953  1.5895  1.0558
  676MOL0     H91220   9.938   3.348   5.599  0.3673  1.4897 -0.4283
  676MOL0     H91221  10.234   3.272   5.593  2.0397  0.7507 -0.0354
  676MOL0     H91222  10.268   3.370   5.459  1.7218  0.9701  3.4289
  676MOL0     H91223  10.139   3.432   5.566 -1.9808 -0.6924 -0.3630
  676MOL0     H91224  10.435   3.213   5.007  1.9232  0.2453  0.5629
  676MOL0     H91225  10.612   3.070   4.931  0.5114  1.0993  0.9743
  676MOL0     H91226  10.607   2.635   5.067 -1.3296 -0.1085  0.5531
  676MOL0     H91227  10.518   2.635   4.925 -1.7721  2.2840  0.5863
  676MOL0     H91228  10.714   2.636   4.788  2.1105 -0.0650 -0.7712
  676MOL0     H91229  10.826   2.661   4.915 -1.2402  1.0178 -2.1499
  676MOL0     H91230  10.762   2.430   5.007  3.6776  0.0100  0.0636
  676MOL0     H91231  10.852   2.432   4.865  0.8708 -1.8087  3.2502
  676MOL0     H91232  10.550   2.427   4.859 -1.3747 -0.0626 -1.3767
  676MOL0     H91233  10.651   2.410   4.717 -0.1861  0.9665  0.8670
  676MOL0     H91234  10.561   2.184   4.790 -1.1571  1.7898  2.2141
  676MOL0     H91235  10.638   2.206   4.952  0.4058 -1.6493  0.9419
  676MOL0     H91236  10.859   2.197   4.830 -0.9613  0.0571  1.0235
  676MOL0     H91237  10.767   2.054   4.817  5.5944  0.5099  0.7662
  676MOL0     H91238  10.843   2.250   4.615  1.0748 -0.9755  1.1750
  676MOL0     H91239  10.682   2.193   4.599  0.2420  1.1056  1.5031
  676MOL0     H91240  10.854   2.037   4.480  1.3886  1.2708  0.0983
  676MOL0     H91241  10.787   1.946   4.610  3.9726 -2.4820  0.5082
  676MOL0     H91242  10.385   2.721   5.079  0.3859  0.3103  3.0690
  676MOL0     H91243  10.218   2.883   5.174  0.7620 -2.0250  0.1603
  676MOL0     H91244   9.996   3.100   5.183 -1.1439 -1.7332  0.5343
  676MOL0     H91245   9.757   3.153   5.269 -0.3221  1.3028 -0.1014
  676MOL0     H91246  10.677   3.622   4.806  0.9829  0.9830 -0.2514
  676MOL0     H91247  10.875   3.656   4.647  6.1475  2.9336 -0.4103
  676MOL0     H91248  11.315   3.740   4.596 -0.5434 -0.6540 -1.1408
  676MOL0     H91249  11.502   3.780   4.447  2.6977 -1.5443  0.2256
  676MOL0     H91250  11.634   3.452   4.197  2.1275 -2.4161  0.0919
  676MOL0     H91251  11.742   3.584   4.168  0.0679 -0.0366 -0.1667
  676MOL0     H91252  11.778   3.366   4.378 -2.2322  0.3225  0.5589
  676MOL0     H91253  11.882   3.510   4.373 -1.2001  3.6783 -1.5026
  676MOL0     H91254  11.979   3.460   4.166 -1.3196  0.5013  0.7201
  676MOL0     H91255  11.850   3.353   4.120 -1.7089  3.5971 -0.0114
  676MOL0     H91256  11.943   3.184   4.300 -2.9912  1.3163 -1.1914
  676MOL0     H91257  12.058   3.305   4.338  0.5975 -1.7486  0.0635
  676MOL0     H91258  12.184   3.168   3.945 -0.5775 -2.0173 -0.2117
  676MOL0     H91259  11.565   3.367   4.400  0.3886  0.1046  0.2724
  676MOL0     H91260  11.346   3.321   4.525 -1.9768  0.9040  0.6844
  677MOL0     O91261   5.241  10.348   2.069  0.2062 -0.5316 -0.2575
  677MOL0     C91262   5.156  10.357   1.983 -0.0494  0.7088 -0.0528
  677MOL0     O91263   5.170  10.303   1.853 -0.2305  0.1458 -0.0803
  677MOL0     C91264   5.282  10.226   1.832  0.5139  0.0859 -0.5211
  677MOL0     C91265   5.262  10.085   1.814 -0.4305  0.4133 -1.0344
  677MOL0     C91266   5.371  10.004   1.793  0.0945  0.2407 -0.6103
  677MOL0     C91267   5.499  10.064   1.775  0.0722  0.2416  0.2743
  677MOL0     O91268   5.605   9.980   1.769  0.3827  0.2884 -0.5449
  677MOL0     C91269   5.618   9.879   1.871  0.1862  0.9662 -0.0858
  677MOL0     C91270   5.756   9.813   1.880  0.2825 -0.2005  0.2052
  677MOL0     C91271   5.788   9.712   1.771  1.3481  0.0063 -0.9120
  677MOL0     C91272   5.849   9.765   1.635  0.9226 -1.1429  0.4123
  677MOL0     C91273   5.899   9.654   1.544  0.9394  0.1955  0.1436
  677MOL0     C91274   6.030   9.603   1.586 -0.8238 -0.0135  0.0826
  677MOL0     C91275   6.039   9.460   1.539 -0.1093  0.3069  1.5880
  677MOL0     C91276   5.992   9.364   1.651 -0.3199 -0.3973  0.4566
  677MOL0     N91277   5.964   9.241   1.583 -0.1886  0.6610 -0.0617
  677MOL0     C91278   6.051   9.154   1.519 -0.4540  0.3788  0.6488
  677MOL0     C91279   5.980   9.046   1.480 -0.6857  1.2270  0.6848
  677MOL0     C91280   6.037   8.936   1.384 -0.2763  0.9358 -0.4421
  677MOL0     C91281   6.176   8.874   1.427 -0.7748  0.2660 -0.0441
  677MOL0     C91282   6.166   8.796   1.559 -0.0348 -0.3162 -0.2723
  677MOL0     C91283   6.312   8.761   1.616 -0.5614 -0.8830  1.0171
  677MOL0     O91284   6.383   8.670   1.530  0.4230 -0.9142  0.0461
  677MOL0     C91285   6.521   8.676   1.522  0.4856  0.2995  0.5065
  677MOL0     C91286   6.584   8.615   1.415  0.5431  0.0439 -0.2180
  677MOL0     C91287   6.715   8.612   1.388 -1.1514  0.8055  0.5550
  677MOL0     C91288   6.769   8.540   1.265 -0.3706  0.4236 -0.4648
  677MOL0     C91289   6.802   8.661   1.490 -0.5128  0.5209  0.4607
  677MOL0     C91290   6.949   8.642   1.486  0.1287  0.6728  0.6160
  677MOL0     O91291   7.001   8.590   1.594  0.1907 -0.8933 -0.8022
  677MOL0     C91292   7.133   8.589   1.612 -0.2873  0.3567 -0.3362
  677MOL0     C91293   7.183   8.671   1.712 -0.6962  0.0894  0.0606
  677MOL0     C91294   7.320   8.674   1.726 -1.0566 -0.5028  0.8335
  677MOL0     C91295   7.408   8.588   1.656 -0.0006  0.9903  0.8998
  677MOL0     O91296   7.541   8.593   1.660 -0.0750 -0.1764 -0.2049
  677MOL0     C91297   7.613   8.712   1.706 -0.4713  0.0399 -0.1789
  677MOL0     C91298   7.748   8.664   1.741  0.3746 -0.1749  0.6459
  677MOL0     C91299   7.827   8.778   1.809 -0.2432 -0.2694  0.0764
  677MOL0     C91300   7.976   8.725   1.834  0.7502 -0.1473  0.3616
  677MOL0     C91301   8.074   8.825   1.906  0.1062  1.0792  0.2758
  677MOL0     C91302   8.227   8.786   1.889  0.1773  0.8308  0.2116
  677MOL0     C91303   8.317   8.875   1.973 -0.5396  0.4232 -0.2414
  677MOL0     C91304   8.472   8.840   1.944 -0.5048 -0.6620  0.7342
  677MOL0    Cl91305   8.523   8.892   1.777 -0.1192 -0.1267 -0.2757
  677MOL0     C91306   7.355   8.500   1.565  0.1907  0.2722 -0.0079
  677MOL0     C91307   7.215   8.498   1.533  0.3115  0.8599  0.2595
  677MOL0     O91308   7.005   8.669   1.381  0.2198 -0.3455 -0.3933
  677MOL0     C91309   6.751   8.725   1.592  0.2474 -0.0202 -0.7126
  677MOL0     C91310   6.607   8.748   1.605 -0.3661  0.2793  0.0875
  677MOL0     N91311   5.856   9.058   1.527  0.1590 -0.1191  0.6064
  677MOL0     N91312   5.845   9.180   1.580 -0.5199 -0.7816 -0.6160
  677MOL0     C91313   5.509  10.203   1.766  0.3988  0.0874 -0.2545
  677MOL0     C91314   5.404  10.288   1.810 -0.2855  0.2572  1.2194
  677MOL0     C91315   5.034  10.428   2.016  0.8783 -0.1715 -0.3071
  677MOL0     C91316   4.906  10.370   2.001  1.6473  0.6703  1.0487
  677MOL0     C91317   4.788  10.435   2.037 -0.4955 -0.2647 -0.2483
  677MOL0     C91318   4.790  10.554   2.109 -0.5058 -0.7636  1.1267
  677MOL0     O91319   4.668  10.608   2.130  0.2599 -0.3881 -0.3026
  677MOL0     C91320   4.668  10.747   2.162  0.3849  0.0021  0.8337
  677MOL0     C91321   4.540  10.804   2.111 -0.2068 -0.0416 -0.4043
  677MOL0     C91322   4.505  10.927   2.183 -0.9085 -1.1176  0.8282
  677MOL0     C91323   4.593  11.042   2.140 -0.2530  0.0378 -0.1244
  677MOL0     C91324   4.537  11.175   2.184  0.0666  0.4983 -0.4885
  677MOL0     C91325   4.491  11.282   2.215  0.2821 -0.0871  0.5607
  677MOL0     C91326   4.918  10.610   2.132  1.2816  0.8476 -1.2103
  677MOL0     C91327   5.040  10.550   2.092  0.5731  0.3246  0.4671
  677MOL0     H91328   5.162  10.041   1.817 -1.2509  2.2022  1.3724
  677MOL0     H91329   5.368   9.896   1.784 -2.1722  0.3405 -1.7004
  677MOL0     H91330   5.616   9.942   1.961  1.8048  0.5506  0.2747
  677MOL0     H91331   5.539   9.806   1.889  0.6047  0.8308  1.3062
  677MOL0     H91332   5.836   9.888   1.885 -0.7827  1.0000 -0.2173
  677MOL0     H91333   5.768   9.764   1.977 -0.6068  1.3705  1.1462
  677MOL0     H91334   5.859   9.636   1.805  0.2168 -1.6569 -2.1665
  677MOL0     H91335   5.696   9.655   1.757  0.7018 -0.6270  4.1308
  677MOL0     H91336   5.773   9.826   1.586  0.1129 -1.7438  0.8901
  677MOL0     H91337   5.939   9.825   1.649  0.7774 -1.0271  0.8772
  677MOL0     H91338   5.820   9.578   1.549  0.1659  0.9081 -0.7741
  677MOL0     H91339   5.890   9.675   1.437 -4.4597  1.2093  0.5032
  677MOL0     H91340   6.115   9.645   1.532 -1.4897 -0.5004 -1.3930
  677MOL0     H91341   6.054   9.611   1.692  1.0570 -0.3630 -0.2720
  677MOL0     H91342   5.988   9.453   1.442  0.8387  2.9016  0.8158
  677MOL0     H91343   6.144   9.444   1.514 -0.3362  0.6436  0.3422
  677MOL0     H91344   5.899   9.402   1.692  0.5058 -0.4020  2.4327
  677MOL0     H91345   6.066   9.359   1.732 -0.3713  1.0782  0.6222
  677MOL0     H91346   6.157   9.165   1.498 -0.1637 -1.1166  1.2380
  677MOL0     H91347   5.960   8.858   1.373 -0.1859  0.5750  1.2429
  677MOL0     H91348   6.050   8.978   1.284 -0.2252  2.7393  0.2826
  677MOL0     H91349   6.241   8.961   1.439  0.6905 -0.6507 -0.9625
  677MOL0     H91350   6.217   8.817   1.343  3.0116  3.2940 -0.5646
  677MOL0     H91351   6.119   8.698   1.549  0.7236 -0.5637 -1.8618
  677MOL0     H91352   6.130   8.860   1.639  2.0332  1.0108 -0.3162
  677MOL0     H91353   6.296   8.715   1.714 -1.2284 -0.1017  1.2854
  677MOL0     H91354   6.364   8.856   1.632 -2.5505  0.5702 -0.6674
  677MOL0     H91355   6.519   8.569   1.342 -0.3727  0.3106  0.4078
  677MOL0     H91356   6.842   8.463   1.289  1.6653  2.9179  2.1134
  677MOL0     H91357   6.681   8.502   1.211 -0.8132  1.8139 -0.7850
  677MOL0     H91358   6.819   8.618   1.207  1.0730  3.0780  3.8619
  677MOL0     H91359   7.125   8.742   1.771  0.8432  2.0654 -0.6958
  677MOL0     H91360   7.361   8.747   1.795 -2.4213  0.5529  0.5547
  677MOL0     H91361   7.611   8.794   1.633  1.2945 -0.2850 -0.6301
  677MOL0     H91362   7.566   8.754   1.795  3.3002  2.1115  1.0375
  677MOL0     H91363   7.758   8.565   1.787  0.7628 -1.2818 -1.6707
  677MOL0     H91364   7.791   8.653   1.641  0.3177 -0.9459  0.6960
  677MOL0     H91365   7.775   8.812   1.900 -0.1706  0.0601 -0.0053
  677MOL0     H91366   7.824   8.864   1.742  2.1690 -0.5910 -0.5102
  677MOL0     H91367   7.957   8.631   1.885  2.7875 -1.2427 -0.7532
  677MOL0     H91368   8.014   8.721   1.731  2.4223 -0.3534  0.9601
  677MOL0     H91369   8.039   8.823   2.010 -1.2037  1.4374 -0.1418
  677MOL0     H91370   8.055   8.924   1.863 -2.4409 -0.8129 -3.5788
  677MOL0     H91371   8.249   8.684   1.923 -2.9199  0.2608  0.8483
  677MOL0     H91372   8.244   8.792   1.782 -0.3824 -5.1243 -0.5616
  677MOL0     H91373   8.307   8.875   2.082  2.6776 -0.7196  0.1605
  677MOL0     H91374   8.307   8.980   1.944  0.4130  0.4634 -0.4408
  677MOL0     H91375   8.481   8.731   1.958 -0.3225 -0.8244 -0.4919
  677MOL0     H91376   8.544   8.884   2.013  2.9494 -4.0015 -0.3580
  677MOL0     H91377   7.416   8.432   1.506 -1.6009  0.3751 -2.1037
  677MOL0     H91378   7.178   8.429   1.458  3.8817 -0.9030 -0.0760
  677MOL0     H91379   6.813   8.768   1.671 -0.8845 -1.4909  1.0653
  677MOL0     H91380   6.573   8.792   1.697 -2.1058 -1.4880  0.3670
  677MOL0     H91381   5.608  10.243   1.749 -0.0920  1.0778 -0.8799
  677MOL0     H91382   5.417  10.395   1.816 -1.9532  0.4994  1.0135
  677MOL0     H91383   4.895  10.285   1.934  1.7937  2.6793 -1.7202
  677MOL0     H91384   4.697  10.401   1.989 -0.1188  0.7368 -1.7327
  677MOL0     H91385   4.673  10.743   2.271  0.3133 -0.1381  0.8317
  677MOL0     H91386   4.748  10.808   2.119  0.5715 -1.3404 -0.8366
  677MOL0     H91387   4.462  10.729   2.121 -0.4365  0.3865  1.1435
  677MOL0     H91388   4.553  10.827   2.004  2.5665  0.8521  0.0506
  677MOL0     H91389   4.527  10.927   2.290  3.5395  0.7726  0.1684
  677MOL0     H91390   4.400  10.951   2.166 -0.4591  1.3112  1.0807
  677MOL0     H91391   4.598  11.050   2.031  2.9325  2.0998  0.0197
  677MOL0     H91392   4.692  11.033   2.185 -1.6513  3.4394  4.3552
  677MOL0     H91393   4.457  11.371   2.263  2.6019  0.2779  1.6568
  677MOL0     H91394   4.936  10.700   2.190 -2.6263  0.0890  1.5682
  677MOL0     H91395   5.139  10.590   2.113  0.2325 -0.1399  3.2154
  678MOL0     O91396   2.547   0.511   8.176  0.8934 -0.2249  0.2320
  678MOL0     C91397   2.616   0.447   8.247 -0.5751 -1.1359 -0.8576
  678MOL0     O91398   2.672   0.491   8.363  0.2022 -0.5269 -0.3108
  678MOL0     C91399   2.669   0.624   8.396  0.1573 -0.4032 -0.3828
  678MOL0     C91400   2.661   0.735   8.310 -0.1636 -0.0679 -0.2620
  678MOL0     C91401   2.648   0.862   8.369 -0.6050 -0.3411 -0.4647
  678MOL0     C91402   2.648   0.884   8.509  0.8838 -0.1799  0.6668
  678MOL0     O91403   2.660   1.009   8.562  0.0020 -0.0540 -0.0257
  678MOL0     C91404   2.574   1.033   8.677  0.3391 -0.0030 -0.1105
  678MOL0     C91405   2.557   1.193   8.660 -0.6221 -0.7050 -0.4204
  678MOL0     C91406   2.423   1.258   8.719 -0.2837 -0.3565  0.2462
  678MOL0     C91407   2.298   1.195   8.648  0.3849  0.3469  1.4715
  678MOL0     C91408   2.166   1.248   8.687  0.1269  0.2966 -0.4666
  678MOL0     C91409   2.132   1.211   8.835 -0.1345  0.4846  0.1533
  678MOL0     C91410   2.001   1.280   8.868  0.6630 -0.5554  1.0794
  678MOL0     C91411   2.022   1.422   8.927  0.1380  0.4365 -0.4681
  678MOL0     N91412   1.905   1.477   8.988  0.7321 -0.4704 -0.1323
  678MOL0     C91413   1.850   1.442   9.111 -0.5154 -0.6039 -0.8101
  678MOL0     C91414   1.739   1.518   9.130 -0.1167  0.6675  0.4367
  678MOL0     C91415   1.629   1.526   9.233 -0.8906  0.7534  0.4285
  678MOL0     C91416   1.646   1.630   9.344 -0.0443 -0.6932 -0.1447
  678MOL0     C91417   1.534   1.649   9.446  0.4736 -0.2506 -0.1424
  678MOL0     C91418   1.399   1.716   9.383 -1.3759 -0.0358  0.3245
  678MOL0     O91419   1.436   1.828   9.303  0.3314 -0.4586 -0.1188
  678MOL0     C91420   1.334   1.881   9.235  0.8399  0.3996  0.2512
  678MOL0     C91421   1.378   1.988   9.149 -0.2482 -0.4646 -0.5285
  678MOL0     C91422   1.289   2.057   9.063  0.9600 -0.1120 -1.1749
  678MOL0     C91423   1.339   2.160   8.964  0.0073 -0.6249 -0.4553
  678MOL0     C91424   1.149   2.022   9.082  0.0356 -0.6844 -0.0902
  678MOL0     C91425   1.045   2.109   9.014 -0.6379  0.6207 -0.4872
  678MOL0     O91426   0.934   2.035   8.989 -0.1758 -0.2091  0.5675
  678MOL0     C91427   0.816   2.101   8.965  0.0794 -0.0909 -0.8916
  678MOL0     C91428   0.808   2.212   8.881  0.5096 -0.0426  0.6492
  678MOL0     C91429   0.684   2.280   8.861  0.0561 -0.4803  0.6836
  678MOL0     C91430   0.566   2.243   8.924  0.4486 -0.5234  0.2229
  678MOL0     O91431   0.449   2.309   8.923  0.1762 -0.3953  0.0848
  678MOL0     C91432   0.423   2.401   8.820 -0.3982 -0.7418 -0.1057
  678MOL0     C91433   0.269   2.396   8.824  0.5023 -1.1720  0.7568
  678MOL0     C91434   0.207   2.504   8.739  0.2701  0.4715 -0.4156
  678MOL0     C91435   0.056   2.481   8.739  1.1873  0.7740  0.0482
  678MOL0     C91436  -0.032   2.575   8.652 -0.3207 -0.0665 -0.0467
  678MOL0     C91437  -0.057   2.531   8.507 -0.1089  0.7154  0.0581
  678MOL0     C91438  -0.136   2.402   8.496  0.3344 -0.1634  0.0406
  678MOL0     C91439  -0.185   2.362   8.355  0.7695  0.3166  0.0001
  678MOL0    Cl91440  -0.046   2.380   8.234 -0.1527  0.3448 -0.0277
  678MOL0     C91441   0.573   2.124   9.007 -0.5233  0.4109 -0.0262
  678MOL0     C91442   0.694   2.050   9.021 -0.3738  0.2860 -0.6198
  678MOL0     O91443   1.063   2.229   9.006 -0.5757  0.7181  0.0490
  678MOL0     C91444   1.104   1.918   9.169 -0.2579  0.6334 -0.3820
  678MOL0     C91445   1.203   1.848   9.243  0.5840  0.1333 -0.5730
  678MOL0     N91446   1.734   1.593   9.009  0.5458  0.2007  0.4053
  678MOL0     N91447   1.828   1.564   8.921  0.0552  0.0630 -0.2349
  678MOL0     C91448   2.666   0.771   8.588 -0.2445  1.0082  0.2274
  678MOL0     C91449   2.665   0.647   8.534  0.1812  0.0630 -0.4349
  678MOL0     C91450   2.615   0.298   8.226 -0.9532  0.1230  0.1237
  678MOL0     C91451   2.591   0.246   8.101 -0.2953 -0.3493 -0.3190
  678MOL0     C91452   2.591   0.110   8.073  0.0332  0.8268 -0.0524
  678MOL0     C91453   2.617   0.015   8.175  0.1877 -0.4087  0.0147
  678MOL0     O91454   2.633  -0.113   8.134  0.4412 -0.5571 -0.0097
  678MOL0     C91455   2.720  -0.196   8.210  0.2576  0.9221  0.1092
  678MOL0     C91456   2.689  -0.340   8.172 -0.2565  0.3303 -0.2805
  678MOL0     C91457   2.793  -0.441   8.222  0.1494 -0.2806 -0.1952
  678MOL0     C91458   2.924  -0.438   8.140 -0.2601 -0.0325 -0.0450
  678MOL0     C91459   3.014  -0.543   8.189  0.3140  0.0175 -0.9162
  678MOL0     C91460   3.082  -0.640   8.246  0.7977 -0.0034  1.0701
  678MOL0     C91461   2.632   0.071   8.306  0.0693  0.1566  0.1722
  678MOL0     C91462   2.641   0.210   8.332 -0.1419 -0.1650 -1.0610
  678MOL0     H91463   2.677   0.718   8.204 -0.2805  1.4934 -0.5525
  678MOL0     H91464   2.647   0.947   8.301 -0.6895 -0.6875 -0.8990
  678MOL0     H91465   2.476   0.984   8.683  0.6275 -0.8626 -1.7106
  678MOL0     H91466   2.635   1.014   8.765  1.0601  2.8618  0.1035
  678MOL0     H91467   2.641   1.240   8.711 -2.4901  1.5543  0.7886
  678MOL0     H91468   2.557   1.218   8.554  2.2002  1.3093 -0.0751
  678MOL0     H91469   2.424   1.254   8.828  0.3104  3.8288  0.5971
  678MOL0     H91470   2.421   1.367   8.706  0.8252 -0.1371  1.5540
  678MOL0     H91471   2.309   1.216   8.541 -3.1197  0.5512  1.0358
  678MOL0     H91472   2.286   1.086   8.656 -2.3729  0.4340 -0.0445
  678MOL0     H91473   2.167   1.354   8.661  1.5608  0.4458  0.1268
  678MOL0     H91474   2.096   1.187   8.629 -1.7427 -0.0431  1.9670
  678MOL0     H91475   2.118   1.103   8.837 -0.8081  0.5680  0.2608
  678MOL0     H91476   2.210   1.236   8.908  1.4140 -2.1280 -0.4762
  678MOL0     H91477   1.940   1.289   8.777  1.9862 -2.6630 -0.0957
  678MOL0     H91478   1.947   1.208   8.930  0.4117 -4.2410 -2.8881
  678MOL0     H91479   2.067   1.479   8.845  2.1408 -1.2958 -0.6493
  678MOL0     H91480   2.092   1.417   9.010 -1.3874  0.2070  0.8549
  678MOL0     H91481   1.894   1.382   9.189 -1.5148 -0.7124 -0.3108
  678MOL0     H91482   1.535   1.549   9.183 -1.7075 -3.3129 -0.2877
  678MOL0     H91483   1.627   1.427   9.281 -0.4794  1.2433  1.4988
  678MOL0     H91484   1.658   1.721   9.284 -1.8726 -1.2577 -1.4453
  678MOL0     H91485   1.739   1.608   9.399  1.0966 -1.1751 -2.1610
  678MOL0     H91486   1.574   1.715   9.524 -0.9595  3.3196 -2.1663
  678MOL0     H91487   1.513   1.551   9.489  1.0666  0.6668  2.4168
  678MOL0     H91488   1.324   1.746   9.456 -2.2595  0.3205 -0.7099
  678MOL0     H91489   1.351   1.641   9.319  2.1717 -0.1405 -2.5743
  678MOL0     H91490   1.485   2.007   9.149 -0.2181 -0.5729  0.5689
  678MOL0     H91491   1.445   2.182   8.974 -0.3957  2.9562 -2.5016
  678MOL0     H91492   1.315   2.137   8.860  2.0919  0.2751 -1.1944
  678MOL0     H91493   1.298   2.258   8.990  0.7790 -0.0195 -1.4715
  678MOL0     H91494   0.895   2.250   8.830  0.7537 -0.2573  0.9025
  678MOL0     H91495   0.674   2.363   8.791 -1.6840 -1.0978  0.1278
  678MOL0     H91496   0.473   2.497   8.834 -2.7221  0.9530 -2.4115
  678MOL0     H91497   0.461   2.357   8.727 -0.0734 -1.8545  0.5303
  678MOL0     H91498   0.230   2.301   8.786 -0.1574 -0.4243 -0.5279
  678MOL0     H91499   0.235   2.403   8.928 -0.7541  0.6931  0.2884
  678MOL0     H91500   0.249   2.487   8.639 -0.6065 -1.9412 -0.4300
  678MOL0     H91501   0.236   2.607   8.765  1.7497  0.2056 -0.9276
  678MOL0     H91502   0.030   2.375   8.724 -0.9223  1.1766  0.5945
  678MOL0     H91503   0.016   2.501   8.839 -2.9745  1.9304 -1.6396
  678MOL0     H91504   0.025   2.668   8.646  0.3404 -0.0697  3.8453
  678MOL0     H91505  -0.131   2.588   8.699 -1.2796  2.7262 -2.4988
  678MOL0     H91506  -0.108   2.601   8.440  2.0539  0.5542 -1.8630
  678MOL0     H91507   0.044   2.514   8.470 -0.2612  0.0873 -0.0920
  678MOL0     H91508  -0.222   2.382   8.560  1.7834 -2.5559  1.4034
  678MOL0     H91509  -0.074   2.318   8.527 -1.9581 -2.3626 -0.9175
  678MOL0     H91510  -0.263   2.433   8.326 -0.1378 -1.7022 -2.9252
  678MOL0     H91511  -0.216   2.257   8.362  2.7726 -0.3352 -0.1954
  678MOL0     H91512   0.482   2.086   9.053  0.3586  1.1297  2.5067
  678MOL0     H91513   0.696   1.958   9.078  0.3086 -0.3516 -1.6273
  678MOL0     H91514   0.998   1.894   9.163  0.0002 -0.9305  0.7700
  678MOL0     H91515   1.175   1.767   9.309  0.6321  0.2500 -0.4080
  678MOL0     H91516   2.670   0.781   8.696  0.0336  1.8658  0.1516
  678MOL0     H91517   2.671   0.562   8.601 -0.5215 -0.2470 -0.7593
  678MOL0     H91518   2.591   0.313   8.016  2.5049 -1.7905 -1.5998
  678MOL0     H91519   2.587   0.070   7.972 -0.6124  2.0632 -0.5339
  678MOL0     H91520   2.824  -0.175   8.181 -0.8478  1.5287 -4.0806
  678MOL0     H91521   2.699  -0.183   8.316 -1.8894  0.8139 -0.2618
  678MOL0     H91522   2.706  -0.351   8.064 -3.4755  0.6672 -0.8995
  678MOL0     H91523   2.585  -0.367   8.189 -0.2530  0.4898  0.0062
  678MOL0     H91524   2.749  -0.539   8.205  0.7342 -0.1971 -2.4398
  678MOL0     H91525   2.809  -0.411   8.326  0.2965 -1.5751  0.1660
  678MOL0     H91526   2.982  -0.345   8.145 -0.0620 -0.1770  0.4948
  678MOL0     H91527   2.898  -0.459   8.036  0.6212  2.7737 -0.9184
  678MOL0     H91528   3.139  -0.718   8.292  0.1656 -1.0110  0.1703
  678MOL0     H91529   2.645   0.006   8.391  1.0345 -0.6961 -0.5937
  678MOL0     H91530   2.655   0.246   8.433 -3.2955 -0.8891 -0.2366
  679MOL0     O91531   4.933   6.078   8.803  0.1983 -0.8368  0.3998
  679MOL0     C91532   4.913   6.115   8.688 -0.3354 -0.0478 -0.2789
  679MOL0     O91533   4.792   6.126   8.627  0.0467 -0.4423  0.1801
  679MOL0     C91534   4.682   6.115   8.707  0.0530  0.3630 -0.1765
  679MOL0     C91535   4.653   6.207   8.801  0.3857  0.2593 -0.5184
  679MOL0     C91536   4.541   6.197   8.892 -0.2666  0.3706  0.2442
  679MOL0     C91537   4.461   6.084   8.883 -0.0971 -0.3537  0.0539
  679MOL0     O91538   4.366   6.046   8.957  0.2637  0.5217 -0.5992
  679MOL0     C91539   4.387   6.059   9.097 -0.2404 -0.4516  0.1789
  679MOL0     C91540   4.249   6.026   9.152 -0.8730  0.2620 -0.7092
  679MOL0     C91541   4.127   6.113   9.125  0.6290  0.3690  0.7454
  679MOL0     C91542   4.004   6.026   9.104 -0.5832  0.6071  0.4522
  679MOL0     C91543   3.889   6.121   9.078 -0.1765 -0.1859 -0.6789
  679MOL0     C91544   3.769   6.046   9.025 -0.4641  0.4496  0.2406
  679MOL0     C91545   3.639   6.132   9.002  0.0173  0.7442 -0.3506
  679MOL0     C91546   3.531   6.132   9.103  0.6102 -0.2179  0.5490
  679MOL0     N91547   3.480   5.996   9.130 -0.3814 -0.1992  0.6664
  679MOL0     C91548   3.373   5.936   9.071 -0.1316 -0.7076  0.2777
  679MOL0     C91549   3.358   5.809   9.130  0.8477 -0.3040  0.1961
  679MOL0     C91550   3.270   5.705   9.086 -0.0069  0.2697 -0.3791
  679MOL0     C91551   3.131   5.746   9.065  0.6506  0.2518 -0.1893
  679MOL0     C91552   3.079   5.824   9.183  1.3350  0.0682  0.0423
  679MOL0     C91553   2.930   5.863   9.146  0.1628 -0.6970 -0.5324
  679MOL0     O91554   2.856   5.747   9.110  0.0204 -0.5330  0.5363
  679MOL0     C91555   2.728   5.760   9.062  0.0625  0.1036  0.3121
  679MOL0     C91556   2.659   5.878   9.032 -0.2997 -0.5655  0.3270
  679MOL0     C91557   2.535   5.879   8.964  0.7519  0.0808 -0.1605
  679MOL0     C91558   2.482   6.013   8.918  0.3067  0.3846 -0.4546
  679MOL0     C91559   2.469   5.756   8.931  0.2270 -0.3819  0.3620
  679MOL0     C91560   2.342   5.751   8.846  0.9657  0.8941  0.1981
  679MOL0     O91561   2.265   5.643   8.873  0.0984 -0.0357  0.2858
  679MOL0     C91562   2.191   5.578   8.773  0.3049  0.4058 -0.3549
  679MOL0     C91563   2.075   5.510   8.806  0.2976 -0.0617 -0.6527
  679MOL0     C91564   1.994   5.445   8.718 -0.4553  0.4032 -0.6086
  679MOL0     C91565   2.035   5.432   8.586  0.1176 -0.3995  0.1091
  679MOL0     O91566   1.949   5.382   8.496  1.4077  0.2399  0.3457
  679MOL0     C91567   1.933   5.424   8.360  0.4077 -0.8494  0.8463
  679MOL0     C91568   1.804   5.491   8.332  0.6652 -0.3468  0.8130
  679MOL0     C91569   1.686   5.386   8.340  0.3522 -0.0866 -0.0363
  679MOL0     C91570   1.691   5.293   8.215 -0.4405  0.1929  0.0188
  679MOL0     C91571   1.583   5.189   8.229 -0.6981 -1.0660  0.4696
  679MOL0     C91572   1.580   5.098   8.106  0.0720 -0.0722 -0.4379
  679MOL0     C91573   1.459   5.010   8.085 -0.0042 -0.2557  0.8449
  679MOL0     C91574   1.328   5.089   8.050 -0.0012 -0.6491 -0.1966
  679MOL0    Cl91575   1.195   4.974   8.035  0.1921 -0.0127  0.4311
  679MOL0     C91576   2.159   5.479   8.548  0.3226 -0.3371 -0.4665
  679MOL0     C91577   2.235   5.556   8.645  0.3744 -0.2255  0.4561
  679MOL0     O91578   2.298   5.841   8.774 -0.3760  0.0869 -0.3256
  679MOL0     C91579   2.528   5.635   8.973  0.6341 -0.4840 -0.2077
  679MOL0     C91580   2.657   5.638   9.024 -1.2140 -0.2297 -0.4668
  679MOL0     N91581   3.461   5.804   9.215 -0.3556  1.4582 -0.5475
  679MOL0     N91582   3.532   5.909   9.226 -0.3277 -0.1272  0.0471
  679MOL0     C91583   4.473   5.999   8.777 -0.5007  0.0372 -0.1298
  679MOL0     C91584   4.584   6.011   8.683 -0.8095  0.1859  0.1854
  679MOL0     C91585   5.028   6.153   8.594  0.2067 -0.1762  0.0605
  679MOL0     C91586   5.157   6.200   8.643 -0.1838  0.4377  0.3857
  679MOL0     C91587   5.260   6.224   8.553  0.4645 -0.9806 -0.2715
  679MOL0     C91588   5.234   6.207   8.412 -0.7173  0.5765  0.2243
  679MOL0     O91589   5.331   6.238   8.322  0.4052  0.3481 -0.5254
  679MOL0     C91590   5.462   6.192   8.354  0.5649  0.1101  0.4211
  679MOL0     C91591   5.540   6.141   8.231 -0.6863  1.6317  0.6517
  679MOL0     C91592   5.679   6.080   8.272  0.3799 -0.3896 -0.7427
  679MOL0     C91593   5.770   6.064   8.160 -0.4523 -0.0194  1.1312
  679MOL0     C91594   5.895   6.000   8.202 -0.9652  0.9400  1.1206
  679MOL0     C91595   5.991   5.934   8.229 -0.8537  0.1638  0.0338
  679MOL0     C91596   5.109   6.165   8.368  0.5074 -0.3245 -0.1820
  679MOL0     C91597   5.007   6.139   8.455  0.0590  0.1616 -0.5218
  679MOL0     H91598   4.713   6.298   8.801 -1.5653  1.6939 -3.0270
  679MOL0     H91599   4.511   6.278   8.958 -1.5768  2.2294 -2.4119
  679MOL0     H91600   4.466   5.993   9.135 -1.5302 -2.1683 -0.0110
  679MOL0     H91601   4.400   6.162   9.131 -2.9328 -0.9732  3.2954
  679MOL0     H91602   4.227   5.923   9.122  2.2116 -1.4757  2.2706
  679MOL0     H91603   4.263   6.018   9.260  1.5259  0.0132 -1.0029
  679MOL0     H91604   4.107   6.181   9.208 -0.9189  0.3544  0.4183
  679MOL0     H91605   4.141   6.162   9.028 -2.9937 -1.4218 -0.8976
  679MOL0     H91606   4.014   5.973   9.008  0.7493  1.8598 -0.1523
  679MOL0     H91607   4.001   5.952   9.185 -1.1135 -0.3558 -0.4143
  679MOL0     H91608   3.884   6.197   9.156  2.1537  0.3219 -0.9290
  679MOL0     H91609   3.914   6.188   8.995 -2.4520  0.7682 -0.6660
  679MOL0     H91610   3.795   5.996   8.931 -0.2879  0.4375  0.2934
  679MOL0     H91611   3.747   5.966   9.097 -1.2891  1.2391  0.8941
  679MOL0     H91612   3.672   6.236   8.990  2.1490  0.1917  0.1991
  679MOL0     H91613   3.596   6.085   8.913  1.7384 -2.4913  0.3716
  679MOL0     H91614   3.441   6.187   9.072 -0.2638 -1.6984  0.3509
  679MOL0     H91615   3.576   6.181   9.190  2.4976  1.0001 -1.0510
  679MOL0     H91616   3.321   5.980   8.986 -0.4995 -0.5611  0.5789
  679MOL0     H91617   3.311   5.661   8.995  0.6977 -0.1958  0.1540
  679MOL0     H91618   3.288   5.628   9.162  0.2136 -1.6350 -2.2640
  679MOL0     H91619   3.073   5.655   9.048  1.1693  0.0630 -1.0092
  679MOL0     H91620   3.116   5.812   8.979  2.3308 -1.0376 -1.5512
  679MOL0     H91621   3.133   5.915   9.210 -0.6451  1.3566 -0.1065
  679MOL0     H91622   3.071   5.758   9.269 -0.9969  0.7427  0.4065
  679MOL0     H91623   2.934   5.945   9.073 -0.3853 -1.6560 -1.6739
  679MOL0     H91624   2.876   5.896   9.235 -0.0464 -1.6411 -0.3011
  679MOL0     H91625   2.696   5.975   9.063 -2.0757 -0.5507  2.6662
  679MOL0     H91626   2.534   6.092   8.973 -1.1867  0.3813  1.0677
  679MOL0     H91627   2.509   6.019   8.812  0.6342  2.5527 -0.2850
  679MOL0     H91628   2.376   6.037   8.922 -0.2218 -1.6584 -0.9474
  679MOL0     H91629   2.041   5.524   8.907  0.4306 -0.6941 -0.5171
  679MOL0     H91630   1.903   5.404   8.761  0.2269  1.1097  1.6544
  679MOL0     H91631   2.004   5.504   8.338  1.6620 -1.6692  1.7733
  679MOL0     H91632   1.951   5.340   8.291 -0.3172  0.4506 -1.0159
  679MOL0     H91633   1.774   5.567   8.403 -0.6468 -0.1420  0.0744
  679MOL0     H91634   1.822   5.534   8.233  1.5826 -1.3153  0.5308
  679MOL0     H91635   1.591   5.440   8.344 -0.5142 -1.6265  1.4493
  679MOL0     H91636   1.695   5.319   8.426  5.2511  1.0601  0.6065
  679MOL0     H91637   1.668   5.358   8.130  0.4995  0.1649 -0.2623
  679MOL0     H91638   1.787   5.246   8.195  0.0076  0.5516  1.2224
  679MOL0     H91639   1.493   5.251   8.236 -0.8233 -1.1196 -0.5624
  679MOL0     H91640   1.583   5.128   8.320 -2.3857 -1.9041 -0.0487
  679MOL0     H91641   1.608   5.153   8.016  1.2320  1.1003  0.5949
  679MOL0     H91642   1.666   5.034   8.128  0.9958  1.4658  0.5765
  679MOL0     H91643   1.444   4.947   8.173  0.5754 -3.5722 -1.2792
  679MOL0     H91644   1.476   4.947   7.998 -0.2676  0.3636  0.3386
  679MOL0     H91645   1.333   5.142   7.954 -1.9859 -1.8534 -1.0309
  679MOL0     H91646   1.314   5.154   8.138 -0.1051  0.1895 -0.8183
  679MOL0     H91647   2.179   5.469   8.442 -2.9031  2.9088 -1.5894
  679MOL0     H91648   2.330   5.602   8.618 -0.7583  0.4639 -2.7898
  679MOL0     H91649   2.476   5.541   8.958 -2.6012  1.3282 -1.3144
  679MOL0     H91650   2.705   5.545   9.051  1.5190  0.4567 -2.4874
  679MOL0     H91651   4.400   5.922   8.756  1.5017 -1.6933 -1.1271
  679MOL0     H91652   4.602   5.939   8.604  0.3408 -2.5714  2.7591
  679MOL0     H91653   5.171   6.211   8.750  3.2094  1.7476 -0.0659
  679MOL0     H91654   5.354   6.249   8.600 -0.8920  2.5954  0.8257
  679MOL0     H91655   5.522   6.280   8.384 -2.2867  2.8101 -1.1990
  679MOL0     H91656   5.462   6.122   8.438 -1.4870  0.9624  1.1984
  679MOL0     H91657   5.546   6.224   8.160  1.9318 -0.2082 -1.4535
  679MOL0     H91658   5.496   6.057   8.177 -0.2641  1.5549  0.4261
  679MOL0     H91659   5.664   5.986   8.325 -0.1710 -0.8590 -1.6990
  679MOL0     H91660   5.726   6.145   8.346  1.3777 -1.2335 -0.6207
  679MOL0     H91661   5.794   6.158   8.110 -0.3826 -1.0268 -0.8425
  679MOL0     H91662   5.713   6.004   8.088 -2.9518  1.5071  1.7169
  679MOL0     H91663   6.076   5.871   8.244 -0.6259  0.7947  1.5811
  679MOL0     H91664   5.096   6.138   8.264 -0.3990  0.4999 -0.3069
  679MOL0     H91665   4.916   6.096   8.416 -0.5138  0.4119  0.5060
  680MOL0     O91666   4.303  11.260   8.669  0.0986  0.0380  0.4496
  680MOL0     C91667   4.375  11.265   8.568 -1.2636  1.1531  0.5077
  680MOL0     O91668   4.397  11.384   8.502 -0.0888  0.4234 -0.1410
  680MOL0     C91669   4.339  11.492   8.553 -0.3707 -0.7614 -0.1966
  680MOL0     C91670   4.238  11.557   8.479 -0.3536  0.2821 -0.2333
  680MOL0     C91671   4.194  11.681   8.535 -0.2488 -0.1623  1.1509
  680MOL0     C91672   4.243  11.734   8.659 -0.4229  0.0163  0.4333
  680MOL0     O91673   4.186  11.830   8.739  0.9179  0.0365  0.4395
  680MOL0     C91674   4.047  11.856   8.707 -0.8679  0.0899 -0.4954
  680MOL0     C91675   3.974  11.906   8.844  0.5247  0.9578 -0.2251
  680MOL0     C91676   3.864  12.009   8.817  0.0318  0.2092  0.2575
  680MOL0     C91677   3.737  11.956   8.740 -0.8451  0.7190  0.0618
  680MOL0     C91678   3.606  12.039   8.734 -0.7753  0.5640 -0.1487
  680MOL0     C91679   3.548  12.080   8.872 -0.8852 -0.3569 -1.2432
  680MOL0     C91680   3.403  12.141   8.867 -0.4369 -0.7066  0.6643
  680MOL0     C91681   3.334  12.185   9.005  0.1806  0.3413  0.0947
  680MOL0     N91682   3.300  12.067   9.088 -0.3472  0.4059 -0.3549
  680MOL0     C91683   3.213  11.981   9.048 -0.4423 -1.2283  0.1107
  680MOL0     C91684   3.163  11.925   9.164  0.0643 -0.1796  0.5293
  680MOL0     C91685   3.049  11.833   9.179  0.5346 -0.4467 -1.2026
  680MOL0     C91686   3.088  11.678   9.186  0.1723 -0.0820  0.0494
  680MOL0     C91687   3.196  11.654   9.291 -0.2209 -0.4530  0.6606
  680MOL0     C91688   3.146  11.685   9.436 -0.6382 -0.1550 -0.1081
  680MOL0     O91689   3.225  11.604   9.525  0.1006 -0.4123  1.3006
  680MOL0     C91690   3.351  11.636   9.559 -0.1084 -0.4384  0.5263
  680MOL0     C91691   3.419  11.535   9.630  0.6110  0.2113  0.0935
  680MOL0     C91692   3.557  11.543   9.655  0.3890 -0.2615  0.2611
  680MOL0     C91693   3.632  11.434   9.724 -0.1269  0.0994  0.2969
  680MOL0     C91694   3.628  11.661   9.623 -0.1021 -0.6898  0.0677
  680MOL0     C91695   3.774  11.675   9.619  0.3042  0.8018  0.3679
  680MOL0     O91696   3.826  11.768   9.704 -1.1468 -0.3026 -0.1745
  680MOL0     C91697   3.954  11.755   9.746  0.2997 -0.7545  0.4062
  680MOL0     C91698   4.060  11.763   9.650  0.5487  0.5931 -0.3719
  680MOL0     C91699   4.193  11.726   9.682  0.1804  0.6840 -0.2810
  680MOL0     C91700   4.225  11.675   9.808 -0.5544 -0.7454 -0.1536
  680MOL0     O91701   4.348  11.621   9.820  0.5155 -0.2967 -0.1442
  680MOL0     C91702   4.376  11.553   9.941 -0.5655 -0.8067  0.2485
  680MOL0     C91703   4.530  11.540   9.962 -0.8090  0.8475 -0.1185
  680MOL0     C91704   4.614  11.655   9.904 -0.1719 -0.3140  0.4034
  680MOL0     C91705   4.771  11.629   9.894 -0.1120 -0.0034 -0.0936
  680MOL0     C91706   4.805  11.569   9.758 -0.4774  0.6986 -0.4646
  680MOL0     C91707   4.957  11.564   9.756  0.1073  0.4709 -0.6802
  680MOL0     C91708   5.010  11.513   9.630 -0.0572  0.0544  0.5920
  680MOL0     C91709   5.143  11.452   9.636  0.2661  0.6575 -0.2121
  680MOL0    Cl91710   5.268  11.564   9.697  0.3168  0.2457  0.0107
  680MOL0     C91711   4.115  11.675   9.904 -0.1702 -0.0832  0.1321
  680MOL0     C91712   3.990  11.722   9.878 -0.1958  0.4114  0.1446
  680MOL0     O91713   3.840  11.585   9.554 -0.4534 -0.5079 -0.5928
  680MOL0     C91714   3.555  11.764   9.568  0.5143 -0.0293 -0.0687
  680MOL0     C91715   3.420  11.761   9.538 -0.6849  0.6589  0.4657
  680MOL0     N91716   3.254  11.966   9.264  0.7626  0.0707 -0.1916
  680MOL0     N91717   3.345  12.034   9.215  0.1600 -0.4618 -0.3333
  680MOL0     C91718   4.343  11.669   8.730 -0.3891  0.1270  0.4910
  680MOL0     C91719   4.387  11.551   8.674  0.1482  0.5466  0.2841
  680MOL0     C91720   4.408  11.135   8.497 -0.7006 -0.4529 -1.1732
  680MOL0     C91721   4.338  11.016   8.523 -0.0895  0.3749  0.0763
  680MOL0     C91722   4.373  10.899   8.456  0.1078  0.1183  0.1658
  680MOL0     C91723   4.478  10.898   8.367  0.4602 -0.0146  1.4068
  680MOL0     O91724   4.487  10.778   8.297  0.2832  0.4355  0.6136
  680MOL0     C91725   4.609  10.750   8.229 -0.2795  0.0917 -0.6125
  680MOL0     C91726   4.728  10.753   8.328 -0.7088 -0.0873  0.8259
  680MOL0     C91727   4.837  10.668   8.264 -0.2631  0.5487  1.1933
  680MOL0     C91728   4.976  10.705   8.322  0.0987 -0.1764  0.1689
  680MOL0     C91729   5.094  10.650   8.254  0.1733  0.1910  0.2868
  680MOL0     C91730   5.179  10.576   8.208 -0.2341  0.1421  0.1567
  680MOL0     C91731   4.541  11.016   8.326  0.0736  1.0495  0.8227
  680MOL0     C91732   4.510  11.132   8.404 -0.7958  1.0539  0.2739
  680MOL0     H91733   4.198  11.525   8.383  0.8889  1.4324 -1.1731
  680MOL0     H91734   4.108  11.719   8.481  0.8713 -3.2833 -3.3854
  680MOL0     H91735   4.034  11.916   8.617  0.4506  1.1461 -0.0217
  680MOL0     H91736   4.010  11.755   8.690  3.8566 -1.9869  0.0386
  680MOL0     H91737   3.952  11.822   8.911 -1.9888  0.8535 -1.0750
  680MOL0     H91738   4.056  11.959   8.893  3.4015 -0.8817 -2.7332
  680MOL0     H91739   3.843  12.038   8.921 -1.8662  1.8983 -0.5335
  680MOL0     H91740   3.908  12.097   8.769  1.9755 -1.8531 -2.0009
  680MOL0     H91741   3.762  11.952   8.634  0.9040 -0.6935  0.4781
  680MOL0     H91742   3.712  11.858   8.780 -1.3950  1.2469  1.0527
  680MOL0     H91743   3.619  12.127   8.672 -3.4206  1.9074  1.0250
  680MOL0     H91744   3.533  11.973   8.686  0.1697 -0.5722 -0.0618
  680MOL0     H91745   3.539  11.993   8.937 -0.7903  0.4615 -0.1158
  680MOL0     H91746   3.609  12.157   8.918 -0.7633 -0.6344 -0.9432
  680MOL0     H91747   3.418  12.231   8.807 -1.2167 -2.3514 -2.1669
  680MOL0     H91748   3.344  12.079   8.799  1.1436  0.1653 -1.6251
  680MOL0     H91749   3.236  12.226   8.979 -0.0247  1.2679  2.1873
  680MOL0     H91750   3.393  12.261   9.057  0.9706  0.4349 -0.8883
  680MOL0     H91751   3.155  11.996   8.957 -0.8062  2.8163  0.8318
  680MOL0     H91752   3.006  11.850   9.278 -0.6529 -1.5616 -1.5032
  680MOL0     H91753   2.971  11.854   9.106  0.4644  1.1699 -0.6992
  680MOL0     H91754   3.115  11.638   9.088  0.8889 -1.2849  0.7117
  680MOL0     H91755   2.999  11.630   9.227 -0.4111  1.4200  0.6081
  680MOL0     H91756   3.281  11.720   9.270  0.0850 -1.5640 -1.9500
  680MOL0     H91757   3.242  11.555   9.281  2.1996  0.5557  0.9143
  680MOL0     H91758   3.042  11.654   9.449  0.4216 -3.6869  1.0986
  680MOL0     H91759   3.160  11.790   9.461  3.5361  0.0083 -2.2299
  680MOL0     H91760   3.355  11.459   9.673  0.4803  0.3989  0.2309
  680MOL0     H91761   3.687  11.483   9.805 -1.1319  1.0911  0.3934
  680MOL0     H91762   3.563  11.359   9.765  1.0968 -1.7716 -0.8861
  680MOL0     H91763   3.701  11.388   9.652  2.2267  3.7852 -0.0704
  680MOL0     H91764   4.022  11.790   9.551 -2.5063  1.5023  0.9256
  680MOL0     H91765   4.268  11.722   9.603 -0.7677  0.4873 -1.1915
  680MOL0     H91766   4.334  11.608  10.026 -0.0745  3.6342 -2.0647
  680MOL0     H91767   4.326  11.456   9.947  0.9423 -1.5205  3.6053
  680MOL0     H91768   4.535  11.522  10.070 -4.0178 -2.0972 -0.2708
  680MOL0     H91769   4.564  11.444   9.922  0.8905  1.2621  0.2542
  680MOL0     H91770   4.599  11.745   9.963 -3.2375  0.1300 -0.8536
  680MOL0     H91771   4.575  11.689   9.807  1.2560  0.2151 -0.0087
  680MOL0     H91772   4.809  11.732   9.895 -3.2007  1.2732  1.1434
  680MOL0     H91773   4.817  11.577   9.979 -1.8342  0.6278  1.3127
  680MOL0     H91774   4.772  11.639   9.681  1.7490  2.7316  0.3121
  680MOL0     H91775   4.753  11.474   9.741 -2.0115  1.4460 -0.1381
  680MOL0     H91776   4.993  11.668   9.758  0.9859  0.2071 -1.5659
  680MOL0     H91777   5.000  11.506   9.837  1.3166  2.8639  0.5023
  680MOL0     H91778   4.997  11.590   9.553 -2.8905 -0.1775  0.7389
  680MOL0     H91779   4.951  11.436   9.579  0.9933 -2.4798  2.9364
  680MOL0     H91780   5.160  11.428   9.530  0.5565  0.2234 -0.0711
  680MOL0     H91781   5.162  11.358   9.688  3.4409  0.9508 -0.5856
  680MOL0     H91782   4.132  11.623   9.998  0.6468  1.8625  1.1175
  680MOL0     H91783   3.920  11.718   9.962  2.3821  1.9742  2.5500
  680MOL0     H91784   3.607  11.852   9.530 -1.7660  1.0866 -0.8330
  680MOL0     H91785   3.362  11.841   9.493 -0.0472  0.9414  0.1352
  680MOL0     H91786   4.371  11.695   8.832 -1.8542 -0.8371  1.1760
  680MOL0     H91787   4.475  11.507   8.721  0.3538  1.5369  0.8521
  680MOL0     H91788   4.271  11.006   8.607  1.2468 -1.3235  0.9933
  680MOL0     H91789   4.333  10.799   8.470 -0.2019  0.3150  0.7281
  680MOL0     H91790   4.603  10.654   8.177  4.4414 -2.1840  2.3879
  680MOL0     H91791   4.627  10.826   8.153 -1.6395  1.1853  0.1043
  680MOL0     H91792   4.709  10.709   8.427  3.4132  0.2991  1.9675
  680MOL0     H91793   4.762  10.854   8.354  0.3113 -0.0809 -0.4450
  680MOL0     H91794   4.838  10.673   8.155  0.7052 -0.8190  1.1037
  680MOL0     H91795   4.802  10.568   8.294 -0.8958 -0.3687 -2.1998
  680MOL0     H91796   4.987  10.677   8.427  2.6165  0.8408  0.2391
  680MOL0     H91797   4.988  10.814   8.326  4.5639 -0.5118  0.3541
  680MOL0     H91798   5.261  10.519   8.170 -2.9567 -3.2049 -1.1864
  680MOL0     H91799   4.616  11.022   8.249 -0.2390  1.6792  0.5641
  680MOL0     H91800   4.565  11.222   8.377  2.4673 -0.5746  0.9407
  681MOL0     O91801   4.267   2.897   4.777 -0.2065 -0.6707  0.0690
  681MOL0     C91802   4.356   2.816   4.818 -0.0974 -0.2770  0.9233
  681MOL0     O91803   4.330   2.715   4.914  0.0643 -0.4130 -0.0534
  681MOL0     C91804   4.198   2.699   4.954 -0.0719  0.5229  0.3294
  681MOL0     C91805   4.122   2.791   5.027  0.1467 -0.2825 -0.2815
  681MOL0     C91806   3.989   2.766   5.058 -0.0925 -0.1268 -0.2388
  681MOL0     C91807   3.928   2.644   5.036  0.3378 -0.2150 -0.2061
  681MOL0     O91808   3.795   2.635   5.066 -0.0038  0.2859  0.3591
  681MOL0     C91809   3.729   2.509   5.069 -0.5074  0.3621  0.4473
  681MOL0     C91810   3.582   2.525   5.076 -0.0249  0.0864 -0.1656
  681MOL0     C91811   3.554   2.610   5.197  0.2565 -0.6697 -0.2403
  681MOL0     C91812   3.402   2.593   5.245  0.6169 -1.2162  0.3090
  681MOL0     C91813   3.390   2.658   5.383 -0.1437  0.3948 -0.1395
  681MOL0     C91814   3.241   2.691   5.428  0.1759  0.5274  0.0120
  681MOL0     C91815   3.198   2.825   5.370  0.2763  0.0072 -0.5123
  681MOL0     C91816   3.042   2.839   5.370  0.0477  0.8909 -0.4589
  681MOL0     N91817   2.999   2.969   5.314 -0.8209 -0.2185  0.0681
  681MOL0     C91818   2.969   3.002   5.179 -0.2456 -1.0031 -1.0049
  681MOL0     C91819   2.964   3.139   5.177 -0.3934  0.0369 -0.4796
  681MOL0     C91820   2.926   3.225   5.057  0.0130  0.9146 -0.5385
  681MOL0     C91821   2.779   3.277   5.056  0.2082  0.9802 -0.1821
  681MOL0     C91822   2.704   3.216   4.926 -0.0937 -0.4926 -0.0520
  681MOL0     C91823   2.551   3.189   4.923 -0.2178  0.0408 -0.2571
  681MOL0     O91824   2.512   3.078   5.008 -0.3075  0.3353  0.2392
  681MOL0     C91825   2.379   3.061   5.032  0.2836 -0.6411 -0.2179
  681MOL0     C91826   2.348   2.936   5.080 -0.9924  0.3341 -0.5346
  681MOL0     C91827   2.223   2.880   5.082  0.7216 -1.0578 -0.0245
  681MOL0     C91828   2.199   2.736   5.136  0.2290  0.1605  0.1655
  681MOL0     C91829   2.116   2.971   5.037  0.3133 -0.1379 -0.0723
  681MOL0     C91830   1.972   2.937   5.007 -0.2169  0.5201 -1.2707
  681MOL0     O91831   1.886   3.035   4.964 -0.4365  0.3387  0.0576
  681MOL0     C91832   1.756   3.015   4.930 -0.8651 -0.6676 -0.2181
  681MOL0     C91833   1.663   3.089   4.987  0.2208  0.0182  0.0283
  681MOL0     C91834   1.529   3.077   4.959  0.2376  0.0591 -0.1165
  681MOL0     C91835   1.496   2.984   4.854 -0.4618  0.3999 -0.2590
  681MOL0     O91836   1.372   2.962   4.807 -0.0480  0.1605  0.6248
  681MOL0     C91837   1.270   2.945   4.905 -0.2724 -0.1854 -1.6302
  681MOL0     C91838   1.171   3.065   4.892  0.6202 -0.8683 -0.7655
  681MOL0     C91839   1.044   3.057   4.974  0.9683 -0.3574  0.9087
  681MOL0     C91840   0.961   3.190   4.977  0.6807 -0.8244 -0.5630
  681MOL0     C91841   0.823   3.151   5.050  0.7559  0.0188 -0.1909
  681MOL0     C91842   0.717   3.256   5.022 -0.4533  0.0898 -0.2659
  681MOL0     C91843   0.587   3.228   5.096  0.2073 -0.5216 -0.0279
  681MOL0     C91844   0.598   3.283   5.244  0.6250  0.5530  0.8071
  681MOL0    Cl91845   0.419   3.261   5.297 -0.1819 -0.1279  0.6382
  681MOL0     C91846   1.595   2.909   4.794 -0.3053  0.0001 -0.1495
  681MOL0     C91847   1.728   2.941   4.819  0.3031  0.5858 -0.8001
  681MOL0     O91848   1.943   2.816   5.021 -0.7053  0.2143  0.0073
  681MOL0     C91849   2.149   3.107   5.014  0.3675 -0.2557 -0.3403
  681MOL0     C91850   2.275   3.147   5.012 -0.8367 -0.1977  1.2003
  681MOL0     N91851   2.986   3.185   5.309 -0.1645  0.1302 -0.1083
  681MOL0     N91852   3.011   3.091   5.379 -0.3808  1.1947 -1.3720
  681MOL0     C91853   4.009   2.552   4.963  0.7841  0.6475 -0.5692
  681MOL0     C91854   4.139   2.580   4.912 -0.3807 -0.5094  0.1814
  681MOL0     C91855   4.491   2.826   4.759  0.1541  0.7985  0.4067
  681MOL0     C91856   4.509   2.908   4.646 -0.2820 -0.4490 -0.5100
  681MOL0     C91857   4.641   2.925   4.589  0.1399  0.1052 -0.0765
  681MOL0     C91858   4.744   2.842   4.632 -0.4016 -0.3625  0.5328
  681MOL0     O91859   4.869   2.827   4.579 -0.3546  0.5370 -0.3766
  681MOL0     C91860   4.905   2.911   4.475  0.4783 -0.0120  0.7442
  681MOL0     C91861   5.058   2.896   4.453 -0.7386 -0.2058 -0.0622
  681MOL0     C91862   5.126   3.019   4.401  0.5224  0.4679  0.0442
  681MOL0     C91863   5.266   2.978   4.349 -0.5512  0.3005 -0.6823
  681MOL0     C91864   5.362   3.080   4.361 -1.0485 -0.8152  0.0989
  681MOL0     C91865   5.446   3.172   4.372 -0.5172  0.2417  0.0929
  681MOL0     C91866   4.722   2.753   4.740  0.4337  0.2652 -0.3875
  681MOL0     C91867   4.596   2.741   4.798 -0.6168 -0.1043  0.4955
  681MOL0     H91868   4.158   2.890   5.051 -3.7185  1.2894 -0.1195
  681MOL0     H91869   3.931   2.833   5.121 -1.6399 -1.1698 -0.5048
  681MOL0     H91870   3.743   2.447   4.979 -0.8347  1.6581 -0.5244
  681MOL0     H91871   3.768   2.462   5.160 -2.2744 -0.4018  0.8599
  681MOL0     H91872   3.549   2.576   4.985 -0.6081 -0.8909 -0.5110
  681MOL0     H91873   3.526   2.432   5.081 -3.0225  1.6470 -1.8913
  681MOL0     H91874   3.612   2.566   5.279 -2.3162  0.5994  2.4536
  681MOL0     H91875   3.582   2.716   5.190  1.3389 -1.0223 -1.5056
  681MOL0     H91876   3.334   2.644   5.177  0.3339 -0.9080  0.8234
  681MOL0     H91877   3.366   2.489   5.249 -2.7875 -0.1139  2.1358
  681MOL0     H91878   3.433   2.595   5.462 -0.8165  0.7462  0.5237
  681MOL0     H91879   3.455   2.745   5.379 -0.6240  0.8183  0.7923
  681MOL0     H91880   3.168   2.624   5.381 -1.1156  3.1755 -2.0157
  681MOL0     H91881   3.231   2.694   5.537  0.1679 -0.0971  0.0348
  681MOL0     H91882   3.243   2.910   5.423  0.7511 -0.4128 -0.2432
  681MOL0     H91883   3.228   2.841   5.266  1.7720  1.5799  0.1051
  681MOL0     H91884   2.997   2.832   5.470  0.4417  0.5560 -0.3080
  681MOL0     H91885   2.995   2.766   5.304 -1.1637 -1.3190  2.6190
  681MOL0     H91886   2.952   2.934   5.095  1.6507 -2.9361  0.0817
  681MOL0     H91887   2.999   3.307   5.046  0.7304  0.2724 -0.6422
  681MOL0     H91888   2.936   3.155   4.974 -2.2178  0.1789 -0.2412
  681MOL0     H91889   2.786   3.385   5.038 -0.0356  0.9111 -0.7141
  681MOL0     H91890   2.723   3.261   5.148 -0.2506 -0.2232 -0.6602
  681MOL0     H91891   2.752   3.119   4.912  1.1151 -0.0508  0.8668
  681MOL0     H91892   2.737   3.277   4.842  0.0682  0.0588  0.4048
  681MOL0     H91893   2.510   3.174   4.822 -0.7607 -0.3655  0.0184
  681MOL0     H91894   2.504   3.281   4.958  1.1248 -0.0803  2.0460
  681MOL0     H91895   2.434   2.873   5.102 -1.0828  1.3356  3.3576
  681MOL0     H91896   2.134   2.732   5.224  2.2896  0.1595  1.7808
  681MOL0     H91897   2.176   2.659   5.061 -1.0823  0.1591  0.5425
  681MOL0     H91898   2.299   2.719   5.178 -0.0377  3.5907  2.6140
  681MOL0     H91899   1.689   3.153   5.071 -2.1328 -0.4298  1.1992
  681MOL0     H91900   1.462   3.143   5.013  0.3708 -0.1864  0.3592
  681MOL0     H91901   1.210   2.858   4.878 -0.0020 -1.5744  1.6876
  681MOL0     H91902   1.309   2.936   5.007 -0.2140 -0.8430 -1.7046
  681MOL0     H91903   1.220   3.158   4.923  0.1935 -0.6826 -0.6456
  681MOL0     H91904   1.143   3.086   4.789  0.3473 -4.4483 -1.5468
  681MOL0     H91905   1.047   3.021   5.078  1.4768 -0.3966  0.8842
  681MOL0     H91906   0.982   2.992   4.911  3.4801 -1.1021 -0.9466
  681MOL0     H91907   1.009   3.275   5.026 -1.4308 -0.3099  0.7605
  681MOL0     H91908   0.947   3.228   4.875  0.9825 -0.2070 -0.3782
  681MOL0     H91909   0.838   3.152   5.159 -0.2221  0.7134 -0.0496
  681MOL0     H91910   0.784   3.056   5.011 -2.6024  1.5374 -0.9039
  681MOL0     H91911   0.753   3.356   5.044  1.7862 -0.5292 -0.8479
  681MOL0     H91912   0.695   3.242   4.915 -0.5911 -1.9050 -0.0247
  681MOL0     H91913   0.569   3.121   5.107  0.3770 -0.3448  2.3134
  681MOL0     H91914   0.507   3.276   5.039 -0.0393 -2.7015 -1.6393
  681MOL0     H91915   0.627   3.388   5.252 -0.2565  0.6819  2.8029
  681MOL0     H91916   0.668   3.228   5.307  2.1730  1.8911  0.3219
  681MOL0     H91917   1.576   2.836   4.716  0.5750 -0.7157  0.2713
  681MOL0     H91918   1.810   2.901   4.760  0.2546  0.3452 -0.7047
  681MOL0     H91919   2.073   3.184   5.004  0.2998 -0.3747 -0.7435
  681MOL0     H91920   2.291   3.250   4.981  0.6278 -0.3148  1.4679
  681MOL0     H91921   3.967   2.458   4.928  1.6267 -0.8890  2.2387
  681MOL0     H91922   4.201   2.516   4.850  1.0160  2.1201 -1.3151
  681MOL0     H91923   4.439   2.986   4.618  0.3771 -0.1869 -1.4731
  681MOL0     H91924   4.653   2.998   4.509  0.0455  2.0988  1.6361
  681MOL0     H91925   4.853   2.880   4.384  0.2112 -0.3689  1.0136
  681MOL0     H91926   4.890   3.014   4.507 -1.6273  0.8020 -2.4294
  681MOL0     H91927   5.081   2.817   4.381  1.9501 -2.9941  3.4721
  681MOL0     H91928   5.114   2.874   4.545  0.8504 -2.7276 -1.5121
  681MOL0     H91929   5.135   3.096   4.478 -1.2332  0.5337  0.2408
  681MOL0     H91930   5.067   3.071   4.325  1.6285  0.8384 -0.5808
  681MOL0     H91931   5.263   2.954   4.242 -0.7797 -0.2206 -0.5646
  681MOL0     H91932   5.304   2.894   4.408 -0.9732  1.8611  1.9617
  681MOL0     H91933   5.513   3.255   4.383 -0.5586  0.0665  2.0935
  681MOL0     H91934   4.801   2.696   4.788 -0.8803  0.3328  1.9813
  681MOL0     H91935   4.575   2.695   4.894 -2.5919  2.2623  1.3265
  682MOL0     O91936   7.314   7.095   0.014 -0.4019 -0.4253  0.2115
  682MOL0     C91937   7.380   7.200   0.025 -0.0195  0.0748 -0.6159
  682MOL0     O91938   7.334   7.319   0.074  0.2983 -0.1216  0.4576
  682MOL0     C91939   7.201   7.325   0.120  0.2687 -0.8504  0.3076
  682MOL0     C91940   7.107   7.400   0.047  0.2125  0.4625  0.5453
  682MOL0     C91941   6.982   7.422   0.107 -0.2346 -0.5593  0.3962
  682MOL0     C91942   6.947   7.362   0.232  0.1561  0.1066  0.7335
  682MOL0     O91943   6.813   7.367   0.271  0.1740  0.3868  0.6009
  682MOL0     C91944   6.725   7.447   0.194  0.6903 -0.5371 -0.3819
  682MOL0     C91945   6.593   7.457   0.263  0.4408 -0.4172 -0.0261
  682MOL0     C91946   6.481   7.525   0.168 -0.2249  0.2084 -0.4407
  682MOL0     C91947   6.433   7.437   0.055 -0.2026 -0.6150 -0.0312
  682MOL0     C91948   6.323   7.508  -0.035 -0.3288 -0.7371  0.3466
  682MOL0     C91949   6.250   7.411  -0.138  0.2255  0.0685 -0.5489
  682MOL0     C91950   6.348   7.343  -0.238  0.1112  0.2833 -0.4131
  682MOL0     C91951   6.430   7.419  -0.330 -0.0170  0.9737  0.0042
  682MOL0     N91952   6.362   7.501  -0.429  1.0712 -0.2069  0.0858
  682MOL0     C91953   6.261   7.460  -0.510  0.5631 -0.1268 -0.5067
  682MOL0     C91954   6.228   7.556  -0.596  0.1912  0.1486  0.3788
  682MOL0     C91955   6.129   7.563  -0.710 -0.0966  0.3773  0.2113
  682MOL0     C91956   5.995   7.497  -0.674  0.3218  0.6377 -0.3780
  682MOL0     C91957   5.917   7.503  -0.798  0.2645  0.1001  0.3811
  682MOL0     C91958   5.963   7.409  -0.913  0.2141  0.1417  0.3893
  682MOL0     O91959   5.891   7.440  -1.032  0.0456  0.1153  0.2447
  682MOL0     C91960   5.745   7.425  -1.031 -0.4549 -0.0638  0.4669
  682MOL0     C91961   5.678   7.529  -1.085  0.9507 -0.3117  0.5351
  682MOL0     C91962   5.540   7.534  -1.110  0.0536 -1.4445 -0.2247
  682MOL0     C91963   5.488   7.663  -1.176 -0.1467  0.5266 -0.3162
  682MOL0     C91964   5.473   7.414  -1.094  0.8523 -0.9781  0.3302
  682MOL0     C91965   5.326   7.398  -1.119  0.0410  0.1896 -0.5290
  682MOL0     O91966   5.270   7.268  -1.103 -0.1835  0.0597  0.8652
  682MOL0     C91967   5.145   7.257  -1.154  0.4090  0.0734  0.3131
  682MOL0     C91968   5.124   7.195  -1.273  0.2801 -0.6420  0.5532
  682MOL0     C91969   4.997   7.183  -1.327 -0.1358  0.4147  1.2545
  682MOL0     C91970   4.885   7.219  -1.260 -0.1768  0.0583 -0.3194
  682MOL0     O91971   4.763   7.186  -1.307  0.7069 -0.9407  0.1950
  682MOL0     C91972   4.735   7.051  -1.359  0.5640 -0.6960  0.0058
  682MOL0     C91973   4.595   7.050  -1.410  0.6655 -0.0107  1.0894
  682MOL0     C91974   4.540   7.154  -1.513 -0.0804  1.0869 -0.2865
  682MOL0     C91975   4.557   7.105  -1.655  0.2019 -0.0581  0.0712
  682MOL0     C91976   4.543   7.205  -1.767  0.3130 -0.3352 -0.8087
  682MOL0     C91977   4.401   7.270  -1.763 -0.8278 -0.7178  0.1057
  682MOL0     C91978   4.403   7.407  -1.717  1.3314  0.4361 -0.2159
  682MOL0     C91979   4.259   7.437  -1.649 -0.7370 -0.8101  0.2893
  682MOL0    Cl91980   4.229   7.331  -1.504 -0.0177  0.3118 -0.4170
  682MOL0     C91981   4.901   7.262  -1.124  0.1244  0.5093 -0.1173
  682MOL0     C91982   5.031   7.285  -1.075 -0.6001 -0.7789  0.0251
  682MOL0     O91983   5.265   7.494  -1.158 -0.7202 -0.2027  0.7882
  682MOL0     C91984   5.541   7.302  -1.042 -0.0321  0.9616 -0.7621
  682MOL0     C91985   5.678   7.306  -1.001  0.5432 -0.1673 -0.1895
  682MOL0     N91986   6.317   7.658  -0.563  0.6091  0.4672  0.8851
  682MOL0     N91987   6.395   7.622  -0.463 -0.2225 -0.7689  0.0502
  682MOL0     C91988   7.043   7.303   0.309  1.0188  0.7632  0.9281
  682MOL0     C91989   7.170   7.285   0.252 -0.3783  0.2406  0.1879
  682MOL0     C91990   7.522   7.201  -0.017  0.3609 -0.1744 -0.7436
  682MOL0     C91991   7.618   7.299   0.021  0.3580  0.5263 -0.1626
  682MOL0     C91992   7.745   7.301  -0.036 -0.1792  0.4405 -0.3249
  682MOL0     C91993   7.785   7.200  -0.122 -0.9222  0.3931 -0.5828
  682MOL0     O91994   7.908   7.205  -0.192  0.2890  0.9281 -0.7370
  682MOL0     C91995   8.022   7.183  -0.107 -0.0385 -1.3222  0.3899
  682MOL0     C91996   8.030   7.039  -0.044 -0.5213  0.7586  0.4617
  682MOL0     C91997   7.981   7.042   0.094  0.2965  0.0751 -0.3059
  682MOL0     C91998   7.947   6.899   0.148 -0.2615 -0.5420  0.2866
  682MOL0     C91999   7.808   6.858   0.123 -0.4726 -0.6712 -0.3913
  682MOL0     C92000   7.696   6.822   0.120 -0.0610 -0.1134 -0.5907
  682MOL0     C92001   7.694   7.096  -0.144 -0.3313 -0.1618  0.1449
  682MOL0     C92002   7.565   7.102  -0.103  0.3464  0.7579  0.2693
  682MOL0     H92003   7.139   7.429  -0.053 -0.0581  1.8132  0.8233
  682MOL0     H92004   6.910   7.468   0.039 -3.3296  1.5430  4.6075
  682MOL0     H92005   6.751   7.554   0.190 -2.1477  0.2354 -0.1202
  682MOL0     H92006   6.704   7.408   0.094 -1.4886  0.0862 -0.2213
  682MOL0     H92007   6.550   7.360   0.290  0.2723 -0.4554 -0.4182
  682MOL0     H92008   6.613   7.522   0.349 -3.8855  1.5260 -0.2040
  682MOL0     H92009   6.388   7.556   0.218 -0.3924 -2.3770  0.9969
  682MOL0     H92010   6.519   7.617   0.123  1.4747 -0.4666 -0.4536
  682MOL0     H92011   6.517   7.414  -0.011  0.5480  0.7285  0.4366
  682MOL0     H92012   6.386   7.344   0.089  0.5783 -0.9692  0.1071
  682MOL0     H92013   6.245   7.548   0.030  0.9147  0.3388  1.2431
  682MOL0     H92014   6.361   7.594  -0.091  1.0423 -0.7417  1.2079
  682MOL0     H92015   6.199   7.332  -0.082 -0.4805 -0.8160 -2.3640
  682MOL0     H92016   6.162   7.460  -0.180 -0.6438  1.8547  2.9269
  682MOL0     H92017   6.418   7.278  -0.185  0.6079  0.1766 -1.1895
  682MOL0     H92018   6.287   7.279  -0.303 -0.5993  0.5233  0.0037
  682MOL0     H92019   6.487   7.363  -0.405 -0.5963  2.8388 -1.9252
  682MOL0     H92020   6.502   7.480  -0.274 -1.0066  1.5082  0.7321
  682MOL0     H92021   6.216   7.362  -0.499  0.9428 -0.2004  0.5830
  682MOL0     H92022   6.108   7.670  -0.719  1.5325  1.1254  3.5719
  682MOL0     H92023   6.175   7.527  -0.802 -1.8589  2.6320 -1.6828
  682MOL0     H92024   5.950   7.552  -0.591 -0.8875 -1.7249  0.6503
  682MOL0     H92025   5.999   7.391  -0.648 -0.1615  0.9283  0.9659
  682MOL0     H92026   5.910   7.607  -0.830  2.8233  0.1846 -0.0543
  682MOL0     H92027   5.812   7.475  -0.786 -0.6190  2.4139 -1.1925
  682MOL0     H92028   5.928   7.310  -0.882  0.6990  0.0990  0.7983
  682MOL0     H92029   6.070   7.410  -0.932  0.2791  1.4375  0.7153
  682MOL0     H92030   5.736   7.620  -1.096  1.3275 -0.4481  1.2882
  682MOL0     H92031   5.413   7.708  -1.111 -0.3366  0.3141 -0.3876
  682MOL0     H92032   5.578   7.725  -1.185 -0.2172  0.8538  0.9966
  682MOL0     H92033   5.457   7.641  -1.278  2.2888 -1.8823 -0.6516
  682MOL0     H92034   5.212   7.182  -1.336 -2.5227  0.3344 -4.0097
  682MOL0     H92035   4.983   7.132  -1.421  0.5349 -1.7328  2.2489
  682MOL0     H92036   4.801   7.035  -1.445  0.1689  0.2334 -0.4895
  682MOL0     H92037   4.760   6.973  -1.288  0.7055  0.6940  1.5417
  682MOL0     H92038   4.580   6.950  -1.452  1.9938  0.2423 -0.1137
  682MOL0     H92039   4.533   7.039  -1.321  0.9868 -2.9464  1.0445
  682MOL0     H92040   4.598   7.246  -1.501 -0.6203  1.6671 -1.8561
  682MOL0     H92041   4.438   7.178  -1.482 -0.0309 -0.3178  1.1037
  682MOL0     H92042   4.657   7.064  -1.673  0.3793  0.0340  0.8133
  682MOL0     H92043   4.475   7.033  -1.658 -2.5026  2.7741 -0.0535
  682MOL0     H92044   4.552   7.159  -1.866  0.6425 -3.0059  0.3718
  682MOL0     H92045   4.614   7.288  -1.755  1.3787 -1.3298  0.0788
  682MOL0     H92046   4.384   7.270  -1.871 -0.1268 -0.2793 -0.0130
  682MOL0     H92047   4.324   7.203  -1.722 -2.2419 -0.6278 -2.2256
  682MOL0     H92048   4.415   7.474  -1.802  0.3150  0.1078 -0.6348
  682MOL0     H92049   4.472   7.426  -1.634 -0.8873  2.9986  1.2368
  682MOL0     H92050   4.181   7.422  -1.725  0.1082 -4.2742 -0.0693
  682MOL0     H92051   4.247   7.542  -1.622 -0.7142 -1.0266  1.1660
  682MOL0     H92052   4.805   7.277  -1.077 -0.3802  1.2014 -1.3221
  682MOL0     H92053   5.038   7.316  -0.971 -1.3099  1.5182 -0.5363
  682MOL0     H92054   5.492   7.205  -1.035  1.6920  0.0646 -0.7249
  682MOL0     H92055   5.738   7.222  -0.968 -0.8723 -2.5098 -3.0969
  682MOL0     H92056   7.020   7.264   0.407  1.1951 -2.2813 -0.1352
  682MOL0     H92057   7.242   7.245   0.324 -2.0519 -1.7763  0.8446
  682MOL0     H92058   7.580   7.379   0.083 -0.6011  0.3919 -0.5650
  682MOL0     H92059   7.803   7.391  -0.025 -1.6341  1.5131 -0.9936
  682MOL0     H92060   8.109   7.201  -0.171 -0.7699  1.4979  0.0569
  682MOL0     H92061   8.025   7.267  -0.037 -2.0329  0.6513 -1.7007
  682MOL0     H92062   8.134   7.008  -0.059 -0.4381  1.2904 -0.0911
  682MOL0     H92063   7.962   6.982  -0.107 -1.3021  1.7352  0.4004
  682MOL0     H92064   7.887   7.099   0.090 -1.8254 -3.2093 -2.2412
  682MOL0     H92065   8.052   7.092   0.159 -2.4721 -0.3100  3.3063
  682MOL0     H92066   7.974   6.882   0.253 -1.1532 -2.5515  0.2272
  682MOL0     H92067   8.014   6.836   0.089 -1.7695 -1.3256 -0.6715
  682MOL0     H92068   7.596   6.785   0.136  0.2314 -0.9559 -0.6659
  682MOL0     H92069   7.725   7.017  -0.212 -1.6130 -0.8055  0.2858
  682MOL0     H92070   7.493   7.026  -0.129  1.5669 -0.2593 -0.1970
  683MOL0     O92071   4.827   0.439  10.168 -0.7466 -0.1358 -0.5619
  683MOL0     C92072   4.833   0.562  10.145 -0.3722  0.3999 -0.9511
  683MOL0     O92073   4.731   0.643  10.118 -0.5609 -0.3773 -0.0217
  683MOL0     C92074   4.601   0.594  10.118 -0.5498 -0.9812 -0.0359
  683MOL0     C92075   4.514   0.636  10.013  0.3042  0.2710  0.1567
  683MOL0     C92076   4.373   0.609  10.012 -0.2975 -0.4133 -0.2815
  683MOL0     C92077   4.322   0.541  10.123 -0.3896  0.9526 -0.7026
  683MOL0     O92078   4.194   0.497  10.127  0.5803  0.6054  0.5435
  683MOL0     C92079   4.093   0.577  10.059  0.5198  0.8761  0.0158
  683MOL0     C92080   3.956   0.548  10.135  0.4811 -0.2901  0.2479
  683MOL0     C92081   3.966   0.614  10.272 -0.2027 -0.8817  0.4926
  683MOL0     C92082   3.835   0.588  10.344 -1.5183  0.4163  0.2606
  683MOL0     C92083   3.822   0.653  10.484  0.2462  0.3787  0.3169
  683MOL0     C92084   3.695   0.584  10.549 -0.2560 -1.1569  0.1470
  683MOL0     C92085   3.674   0.658  10.685 -0.8675 -0.0411  0.3655
  683MOL0     C92086   3.542   0.625  10.760  0.3639 -1.0401 -0.2951
  683MOL0     N92087   3.432   0.690  10.688 -0.2017 -0.3672 -0.1934
  683MOL0     C92088   3.365   0.636  10.580  0.7867 -0.3449 -1.4386
  683MOL0     C92089   3.248   0.699  10.576 -0.7117  0.1080 -0.4243
  683MOL0     C92090   3.143   0.682  10.472  0.5341 -0.9972  0.1603
  683MOL0     C92091   3.026   0.641  10.553 -0.9839 -0.1131  0.3739
  683MOL0     C92092   2.900   0.645  10.464  0.2789 -0.9605  0.8309
  683MOL0     C92093   2.787   0.587  10.543  0.2327  0.0193 -0.1434
  683MOL0     O92094   2.783   0.443  10.534 -0.0793 -0.3200 -0.4276
  683MOL0     C92095   2.726   0.389  10.647 -0.2030  0.1749 -0.3675
  683MOL0     C92096   2.597   0.418  10.695  0.7112  0.8768  0.1707
  683MOL0     C92097   2.544   0.355  10.810  0.6951 -0.5239 -1.6074
  683MOL0     C92098   2.403   0.390  10.848 -0.1256 -0.1272 -1.0685
  683MOL0     C92099   2.628   0.262  10.880 -0.1773 -0.0999 -0.0871
  683MOL0     C92100   2.608   0.192  11.007  0.3584  1.0271  0.3569
  683MOL0     O92101   2.710   0.187  11.096 -0.3952  0.2261  0.1552
  683MOL0     C92102   2.682   0.131  11.215 -0.3076 -0.6025 -0.5930
  683MOL0     C92103   2.687   0.211  11.330  1.0624  0.5508  0.7872
  683MOL0     C92104   2.656   0.146  11.451 -0.5376 -0.0036  0.7226
  683MOL0     C92105   2.618   0.006  11.455 -0.8161 -0.1943 -0.6876
  683MOL0     O92106   2.558  -0.036  11.570 -0.5541 -0.2672 -0.3318
  683MOL0     C92107   2.565  -0.179  11.605 -0.4876  0.1687  0.0612
  683MOL0     C92108   2.548  -0.188  11.759  0.0504 -0.7215 -0.1086
  683MOL0     C92109   2.528  -0.332  11.813 -0.2630 -0.5103 -0.0170
  683MOL0     C92110   2.443  -0.332  11.948 -0.8238  0.5420  0.0830
  683MOL0     C92111   2.416  -0.483  11.988 -0.6827 -0.8571  0.6789
  683MOL0     C92112   2.301  -0.499  12.085 -0.5451  0.2153  0.4032
  683MOL0     C92113   2.336  -0.450  12.221 -0.0737  0.4775  0.5275
  683MOL0     C92114   2.221  -0.455  12.325  0.1821  0.0352 -0.3623
  683MOL0    Cl92115   2.127  -0.608  12.317  0.1460 -0.3422 -0.7329
  683MOL0     C92116   2.623  -0.073  11.338  0.5790 -0.5374 -0.7424
  683MOL0     C92117   2.660  -0.009  11.217 -0.1315  0.1844  0.5789
  683MOL0     O92118   2.500   0.131  11.015  0.0079  0.7233 -0.0806
  683MOL0     C92119   2.760   0.242  10.836 -0.9114  0.8259  0.2411
  683MOL0     C92120   2.809   0.301  10.721 -0.4637  0.0784 -0.5492
  683MOL0     N92121   3.240   0.786  10.677  0.7609 -0.8970  0.2709
  683MOL0     N92122   3.352   0.787  10.742  0.7467 -0.3789  0.5769
  683MOL0     C92123   4.409   0.496  10.226  0.9510  0.0467  0.4776
  683MOL0     C92124   4.543   0.531  10.224 -0.4391  0.7376  0.3847
  683MOL0     C92125   4.966   0.624  10.157  0.7308  0.1352  0.2499
  683MOL0     C92126   4.998   0.750  10.107 -0.2233  0.3638  0.9866
  683MOL0     C92127   5.114   0.819  10.145  0.2416 -0.3825  0.2211
  683MOL0     C92128   5.203   0.764  10.238  0.0696  0.4151  0.0142
  683MOL0     O92129   5.324   0.827  10.270 -0.1260  0.0721 -0.4933
  683MOL0     C92130   5.336   0.870  10.404  0.0556 -0.1093 -0.9710
  683MOL0     C92131   5.461   0.951  10.440  0.7892  0.3819  0.4143
  683MOL0     C92132   5.461   0.966  10.591  0.8221 -0.0575  0.5394
  683MOL0     C92133   5.501   1.106  10.631 -0.4792  0.3835 -0.2569
  683MOL0     C92134   5.618   1.157  10.554  0.0860 -0.0768  0.2262
  683MOL0     C92135   5.721   1.179  10.495  0.7562  0.4779 -0.5122
  683MOL0     C92136   5.178   0.642  10.288  0.1675  1.1419 -1.3459
  683MOL0     C92137   5.060   0.573  10.253  0.3975 -0.1204  0.1966
  683MOL0     H92138   4.565   0.698   9.940 -0.3280  0.6909  0.0663
  683MOL0     H92139   4.315   0.607   9.920  1.4332  1.1854 -1.4888
  683MOL0     H92140   4.111   0.685  10.055 -2.1526  1.3469 -1.0067
  683MOL0     H92141   4.089   0.560   9.951 -0.0162 -0.3466  0.2122
  683MOL0     H92142   3.890   0.595  10.061  1.3603 -1.9199 -1.6799
  683MOL0     H92143   3.931   0.442  10.139 -0.8773  0.0312  0.5873
  683MOL0     H92144   4.048   0.565  10.326  0.4454 -0.0814  0.2498
  683MOL0     H92145   3.983   0.721  10.262 -0.6856 -0.6114  2.1874
  683MOL0     H92146   3.758   0.622  10.275  0.5588  0.2510 -2.3061
  683MOL0     H92147   3.817   0.480  10.342 -0.1512  0.1420  1.0739
  683MOL0     H92148   3.900   0.628  10.556 -0.9472 -2.5561  0.7428
  683MOL0     H92149   3.814   0.761  10.476  0.0454  0.2423 -2.2668
  683MOL0     H92150   3.617   0.609  10.477  1.5502  1.1430 -1.1358
  683MOL0     H92151   3.704   0.476  10.566  1.7300 -0.6769  2.7602
  683MOL0     H92152   3.755   0.621  10.749  0.9589 -2.0391 -2.8376
  683MOL0     H92153   3.680   0.766  10.669 -0.8898  0.7764  4.7304
  683MOL0     H92154   3.544   0.665  10.862  1.8285  1.4759 -1.2205
  683MOL0     H92155   3.517   0.519  10.770  0.7956 -0.9592  2.8165
  683MOL0     H92156   3.405   0.569  10.504  4.3257 -0.4787  0.3134
  683MOL0     H92157   3.128   0.785  10.439  1.8512 -0.3281  1.5107
  683MOL0     H92158   3.170   0.607  10.396  0.3935  1.8164 -2.8684
  683MOL0     H92159   3.007   0.714  10.632  1.4991  2.8553 -1.5499
  683MOL0     H92160   3.033   0.542  10.598 -2.3665  0.2896  1.5647
  683MOL0     H92161   2.925   0.579  10.380  1.4510  0.2083  0.2304
  683MOL0     H92162   2.884   0.750  10.436  0.1843 -1.2784 -0.3636
  683MOL0     H92163   2.693   0.627  10.504  0.5755  0.0165 -1.0058
  683MOL0     H92164   2.800   0.620  10.647  0.8340  1.2098 -0.5796
  683MOL0     H92165   2.532   0.479  10.634  1.3301  0.3230 -1.0809
  683MOL0     H92166   2.321   0.351  10.787 -2.7706 -1.6856  3.0631
  683MOL0     H92167   2.382   0.371  10.953 -0.6411  2.4717 -0.6310
  683MOL0     H92168   2.388   0.498  10.845  2.0949  0.2389 -0.5771
  683MOL0     H92169   2.715   0.316  11.327 -1.5893  1.3950  2.1598
  683MOL0     H92170   2.654   0.208  11.540  2.5975 -1.0932  1.6780
  683MOL0     H92171   2.476  -0.222  11.557 -0.7120  0.8513 -0.1349
  683MOL0     H92172   2.659  -0.230  11.580 -1.4539 -2.7676  1.8753
  683MOL0     H92173   2.637  -0.142  11.801 -0.6517  2.4564 -1.8376
  683MOL0     H92174   2.462  -0.125  11.783  1.4965  1.5471 -0.6072
  683MOL0     H92175   2.628  -0.375  11.816 -0.6549 -1.3816  1.4884
  683MOL0     H92176   2.482  -0.391  11.734  0.1370  0.8293 -1.3093
  683MOL0     H92177   2.494  -0.281  12.029  0.1618  1.4247 -1.0519
  683MOL0     H92178   2.351  -0.275  11.931 -2.1853 -1.1053  1.4938
  683MOL0     H92179   2.502  -0.549  11.995  0.4065  0.3379 -0.6633
  683MOL0     H92180   2.361  -0.529  11.905 -2.7624 -1.4809  2.3132
  683MOL0     H92181   2.211  -0.451  12.046 -0.2066  0.9815  0.5589
  683MOL0     H92182   2.286  -0.608  12.083 -1.3283  0.2901 -2.4839
  683MOL0     H92183   2.378  -0.349  12.228 -0.1701  0.5633 -0.0502
  683MOL0     H92184   2.399  -0.534  12.251  0.6816  1.4574  1.7724
  683MOL0     H92185   2.153  -0.378  12.288 -2.0219 -2.2058 -1.2873
  683MOL0     H92186   2.255  -0.438  12.428 -0.1587 -2.0607  0.1469
  683MOL0     H92187   2.615  -0.180  11.350  0.6705 -0.3406  1.4552
  683MOL0     H92188   2.669  -0.073  11.130 -0.4941  1.3058 -0.3121
  683MOL0     H92189   2.830   0.179  10.890 -0.9067  0.8336  0.2443
  683MOL0     H92190   2.915   0.305  10.696 -1.0804  0.3767 -3.5714
  683MOL0     H92191   4.370   0.453  10.318  0.4872  3.8025  2.2650
  683MOL0     H92192   4.611   0.522  10.308 -0.1616  3.5115  0.5428
  683MOL0     H92193   4.934   0.790  10.028  0.4044 -0.1339  0.2084
  683MOL0     H92194   5.121   0.919  10.104 -3.7455 -0.0912 -0.2164
  683MOL0     H92195   5.252   0.935  10.432 -1.8877 -2.2467 -1.4537
  683MOL0     H92196   5.338   0.793  10.481  0.0358  1.1770  0.3685
  683MOL0     H92197   5.461   1.048  10.390  0.9727  0.8981  1.3917
  683MOL0     H92198   5.550   0.894  10.411 -0.3531 -0.8868 -0.7820
  683MOL0     H92199   5.523   0.895  10.646  1.0262 -0.9846 -0.8343
  683MOL0     H92200   5.362   0.946  10.633  0.7475 -0.2570  0.2735
  683MOL0     H92201   5.530   1.106  10.737  0.4686  0.5024 -0.5080
  683MOL0     H92202   5.420   1.179  10.620 -1.1670 -0.2838  0.2317
  683MOL0     H92203   5.811   1.192  10.438  0.2249  2.8715 -0.9122
  683MOL0     H92204   5.244   0.593  10.359 -0.8466  3.5176  1.4125
  683MOL0     H92205   5.037   0.485  10.312 -1.2789 -1.1894 -1.9001
  684MOL0     O92206   9.110   5.306   7.145  0.0293 -0.2528 -0.2044
  684MOL0     C92207   9.178   5.200   7.147  0.7815 -0.3851  1.1243
  684MOL0     O92208   9.125   5.076   7.170  0.0634 -0.1578  0.0770
  684MOL0     C92209   8.987   5.074   7.167  0.7104 -0.0403 -0.1599
  684MOL0     C92210   8.921   5.108   7.281  0.7446  0.2834  0.2444
  684MOL0     C92211   8.788   5.117   7.280  1.1113 -0.1201 -1.0905
  684MOL0     C92212   8.707   5.092   7.168  0.5035  0.8637 -0.5124
  684MOL0     O92213   8.571   5.101   7.186 -0.3380 -0.3369 -0.6090
  684MOL0     C92214   8.469   5.079   7.085  0.0824 -0.5072 -0.1684
  684MOL0     C92215   8.344   5.059   7.170  1.0844  0.0885  0.2084
  684MOL0     C92216   8.250   4.994   7.069 -0.6554 -0.8539 -0.2608
  684MOL0     C92217   8.120   4.953   7.138  0.3660 -0.2503 -0.9996
  684MOL0     C92218   8.029   4.899   7.028  0.1923  0.1347  0.8023
  684MOL0     C92219   7.899   4.847   7.095 -0.2519 -0.2289 -0.3342
  684MOL0     C92220   7.807   4.964   7.141 -0.2140  0.6511  0.5644
  684MOL0     C92221   7.753   5.044   7.011 -0.5055 -0.2036 -1.4746
  684MOL0     N92222   7.633   5.128   7.043  0.4002  0.2546 -0.0202
  684MOL0     C92223   7.512   5.126   6.973  0.0299 -0.2065 -0.1308
  684MOL0     C92224   7.436   5.207   7.060 -0.8284 -0.3533  0.9874
  684MOL0     C92225   7.295   5.246   7.033 -0.4905  0.1211  0.1550
  684MOL0     C92226   7.197   5.180   7.133  0.1290  0.1201 -0.1373
  684MOL0     C92227   7.042   5.202   7.106  0.0935 -0.4001 -0.2905
  684MOL0     C92228   6.965   5.192   7.238 -0.0319 -0.8673  0.4135
  684MOL0     O92229   6.822   5.185   7.212 -1.0562 -0.3979  0.1674
  684MOL0     C92230   6.740   5.218   7.314 -0.2223  0.2592 -0.4025
  684MOL0     C92231   6.763   5.218   7.455 -0.1324 -0.3269  0.9328
  684MOL0     C92232   6.659   5.255   7.547  0.3619  0.2252  0.7579
  684MOL0     C92233   6.688   5.259   7.691  0.3557 -0.0497 -0.3141
  684MOL0     C92234   6.521   5.285   7.501  0.0574  0.3789  0.0473
  684MOL0     C92235   6.401   5.321   7.583  0.0576 -0.1644 -0.0648
  684MOL0     O92236   6.284   5.349   7.523 -0.3325 -0.1857 -0.0387
  684MOL0     C92237   6.180   5.415   7.589  0.0028  0.2810 -0.4393
  684MOL0     C92238   6.197   5.514   7.692 -0.2373  0.4207  0.1155
  684MOL0     C92239   6.089   5.579   7.749 -0.7117  0.9132  0.3597
  684MOL0     C92240   5.961   5.556   7.716  0.1419  1.5993 -1.0613
  684MOL0     O92241   5.861   5.633   7.780 -0.8385  0.0764 -0.2152
  684MOL0     C92242   5.744   5.570   7.833 -0.8013  0.3647  0.4719
  684MOL0     C92243   5.659   5.674   7.914 -0.2715  0.1116 -0.4745
  684MOL0     C92244   5.527   5.630   7.975  0.9175 -0.2318 -0.2595
  684MOL0     C92245   5.422   5.600   7.870  0.9835  0.5285 -0.1687
  684MOL0     C92246   5.314   5.511   7.921 -0.4898  0.1013 -0.0586
  684MOL0     C92247   5.358   5.366   7.902 -0.3215 -0.4707 -0.4377
  684MOL0     C92248   5.247   5.269   7.934 -0.5366 -0.4219 -0.4809
  684MOL0     C92249   5.309   5.134   7.964  0.2903  0.4369  0.3620
  684MOL0    Cl92250   5.387   5.134   8.132 -0.4852 -0.1653  0.0816
  684MOL0     C92251   5.941   5.465   7.610  0.1970 -0.3189  0.0783
  684MOL0     C92252   6.046   5.404   7.542  0.6632 -0.6734 -0.5506
  684MOL0     O92253   6.414   5.316   7.702  0.0248  0.9765  0.1531
  684MOL0     C92254   6.506   5.290   7.359 -0.1135  0.3881 -0.1199
  684MOL0     C92255   6.611   5.250   7.277  0.3018 -0.0728 -0.5711
  684MOL0     N92256   7.512   5.256   7.162 -0.5209 -0.1727  0.1871
  684MOL0     N92257   7.635   5.216   7.144 -0.4747  0.0977 -0.4791
  684MOL0     C92258   8.766   5.046   7.054 -0.7887  0.0151 -0.0123
  684MOL0     C92259   8.909   5.030   7.055 -0.7561 -0.3780  0.0691
  684MOL0     C92260   9.319   5.225   7.137  0.4056 -0.6461 -0.1730
  684MOL0     C92261   9.374   5.313   7.036 -0.6471  0.3275  0.5277
  684MOL0     C92262   9.508   5.329   7.030 -1.4257 -0.9833 -0.4228
  684MOL0     C92263   9.601   5.271   7.129  0.3616  0.2042  0.0486
  684MOL0     O92264   9.738   5.286   7.127 -0.1821 -1.3167  0.3324
  684MOL0     C92265   9.807   5.321   7.002  0.0612  0.1923 -0.1198
  684MOL0     C92266   9.930   5.225   6.985 -0.5152  0.9077 -0.7399
  684MOL0     C92267   9.884   5.071   6.977 -1.2960 -0.1145 -0.0493
  684MOL0     C92268  10.010   4.991   6.942 -0.2832  0.3142 -0.1414
  684MOL0     C92269  10.092   4.954   7.060  0.6822 -0.0428 -0.3509
  684MOL0     C92270  10.143   4.941   7.172  0.5491  0.0059 -0.7026
  684MOL0     C92271   9.544   5.196   7.230 -0.1601  0.8728 -0.7293
  684MOL0     C92272   9.403   5.170   7.236  0.3965 -0.1976  0.3243
  684MOL0     H92273   8.970   5.144   7.371  0.6577  1.2811 -0.0954
  684MOL0     H92274   8.756   5.152   7.378  2.8832 -0.2363 -0.4312
  684MOL0     H92275   8.460   5.168   7.021 -0.5972 -1.4077 -1.3722
  684MOL0     H92276   8.505   5.001   7.018 -2.7185 -2.6995  0.6985
  684MOL0     H92277   8.356   5.001   7.262  2.0084  2.4418  1.6647
  684MOL0     H92278   8.306   5.154   7.207  2.1153  0.4916  0.2623
  684MOL0     H92279   8.224   5.077   7.003  2.5805  3.6401  3.4520
  684MOL0     H92280   8.294   4.911   7.014  1.5770  1.5589 -2.3891
  684MOL0     H92281   8.133   4.877   7.215  2.1833  0.9715 -0.0282
  684MOL0     H92282   8.077   5.046   7.177  0.3041  0.8847 -3.5669
  684MOL0     H92283   8.009   4.979   6.956  0.0756  0.0295  0.7168
  684MOL0     H92284   8.073   4.810   6.981  0.8646  1.1658 -0.5896
  684MOL0     H92285   7.832   4.785   7.035 -1.2460 -0.0175  0.5321
  684MOL0     H92286   7.936   4.784   7.177  1.7027  0.8920 -0.2974
  684MOL0     H92287   7.723   4.916   7.191 -0.6268 -0.2795 -0.9548
  684MOL0     H92288   7.848   5.029   7.218  0.0711 -1.2741  2.1111
  684MOL0     H92289   7.729   4.967   6.937 -0.2360 -2.1093  0.3496
  684MOL0     H92290   7.824   5.117   6.973 -1.2391  1.9034  0.9128
  684MOL0     H92291   7.483   5.075   6.882 -2.7673  1.1611 -0.1207
  684MOL0     H92292   7.288   5.355   7.030 -1.4094  0.0543 -1.2849
  684MOL0     H92293   7.265   5.206   6.936 -2.4583 -1.1896  1.2377
  684MOL0     H92294   7.210   5.233   7.228 -1.2724  0.0738  0.0909
  684MOL0     H92295   7.228   5.076   7.141 -1.0235 -0.1253  1.7630
  684MOL0     H92296   7.001   5.131   7.033  0.4520 -1.1752  0.2561
  684MOL0     H92297   7.035   5.305   7.069  2.3798 -0.5933 -1.4539
  684MOL0     H92298   6.987   5.279   7.301 -2.0946 -1.9771  2.8457
  684MOL0     H92299   7.002   5.105   7.291  0.4004 -0.8585  0.1334
  684MOL0     H92300   6.855   5.177   7.493  1.5823  0.4455 -2.0774
  684MOL0     H92301   6.660   5.361   7.719 -2.1334 -0.6846 -0.2628
  684MOL0     H92302   6.621   5.196   7.751 -2.1137  2.9966  0.3593
  684MOL0     H92303   6.788   5.224   7.718  0.4047  1.0714  1.0776
  684MOL0     H92304   6.297   5.546   7.718 -0.8396  2.8216 -0.2854
  684MOL0     H92305   6.126   5.654   7.818  0.6534 -1.5818  2.5247
  684MOL0     H92306   5.679   5.531   7.754 -0.5916 -0.3787  0.6613
  684MOL0     H92307   5.773   5.490   7.901 -0.9062  0.5196  0.6999
  684MOL0     H92308   5.717   5.719   7.994  0.2297 -1.7376  0.2503
  684MOL0     H92309   5.628   5.747   7.838 -2.8716  2.1291  2.2935
  684MOL0     H92310   5.474   5.708   8.030  0.3492 -0.6576 -0.1885
  684MOL0     H92311   5.541   5.547   8.044 -1.9645  0.2638  1.0739
  684MOL0     H92312   5.376   5.694   7.837 -0.6370 -0.1457  0.1076
  684MOL0     H92313   5.473   5.555   7.785  2.4841  0.2069  0.8638
  684MOL0     H92314   5.222   5.525   7.863 -1.3587 -0.5055  1.1402
  684MOL0     H92315   5.301   5.541   8.025 -1.5279 -1.1262  0.1794
  684MOL0     H92316   5.387   5.345   7.799 -1.2740  0.0204 -0.8195
  684MOL0     H92317   5.445   5.350   7.967 -1.9131 -1.2127  1.6204
  684MOL0     H92318   5.179   5.268   7.849 -0.7530  2.4508 -0.4189
  684MOL0     H92319   5.197   5.311   8.022  1.4227 -0.8912  0.9204
  684MOL0     H92320   5.386   5.099   7.895  1.5981  2.0276  0.9342
  684MOL0     H92321   5.226   5.063   7.961  1.8283 -1.4106 -2.0207
  684MOL0     H92322   5.838   5.460   7.575 -0.2602  1.2069  1.0999
  684MOL0     H92323   6.029   5.348   7.450 -0.1390 -2.4854  0.6417
  684MOL0     H92324   6.409   5.317   7.319 -1.3475 -0.3322  2.1959
  684MOL0     H92325   6.593   5.229   7.172  0.2837 -0.7910 -0.4274
  684MOL0     H92326   8.721   5.014   6.961  2.7171 -0.3200 -1.7672
  684MOL0     H92327   8.958   5.000   6.963 -0.3612  2.1176 -0.6028
  684MOL0     H92328   9.309   5.354   6.959 -2.7026 -2.1296  0.8245
  684MOL0     H92329   9.545   5.388   6.947 -0.5117 -1.4787 -0.3822
  684MOL0     H92330   9.736   5.305   6.920 -0.6135 -1.0687  0.6835
  684MOL0     H92331   9.826   5.428   6.990 -2.1543  0.5571 -0.7125
  684MOL0     H92332  10.006   5.240   7.062  0.4004 -1.8462 -1.0216
  684MOL0     H92333   9.980   5.241   6.889  1.7687 -0.2200  0.1871
  684MOL0     H92334   9.805   5.063   6.902 -0.9722 -2.7512 -0.2143
  684MOL0     H92335   9.848   5.036   7.075  0.0498 -3.6804 -0.6733
  684MOL0     H92336  10.071   5.043   6.867  1.5435  2.0820  2.3882
  684MOL0     H92337   9.970   4.898   6.900  1.4974 -0.5599  0.0065
  684MOL0     H92338  10.177   4.937   7.273  0.5254  0.5821 -0.6687
  684MOL0     H92339   9.619   5.144   7.290  0.3857  2.3925 -0.0278
  684MOL0     H92340   9.368   5.106   7.316  2.0879 -0.9407  0.5161
  685MOL0     O92341   5.358  10.239   1.359  1.1858 -0.4209 -0.3836
  685MOL0     C92342   5.330  10.115   1.378 -0.8083 -1.3113  0.7233
  685MOL0     O92343   5.420  10.020   1.356  0.3114  0.3584  0.5798
  685MOL0     C92344   5.531  10.054   1.293 -0.2604 -0.4381 -0.6880
  685MOL0     C92345   5.525  10.118   1.165 -0.3167  0.4381  0.6363
  685MOL0     C92346   5.645  10.178   1.112  0.6691 -0.2491 -0.5111
  685MOL0     C92347   5.764  10.175   1.181 -0.5073 -0.1156 -0.9618
  685MOL0     O92348   5.883  10.229   1.145 -0.7342 -0.1711  0.4118
  685MOL0     C92349   5.872  10.321   1.034  0.3384  0.5762 -0.6550
  685MOL0     C92350   6.016  10.352   1.009  0.5250 -0.2216  0.0965
  685MOL0     C92351   6.036  10.435   0.884  0.4851  0.0196  0.1251
  685MOL0     C92352   6.184  10.466   0.851  0.5376  0.9668  0.1809
  685MOL0     C92353   6.189  10.538   0.709  0.5101  0.9866 -0.3285
  685MOL0     C92354   6.330  10.591   0.678  0.3394 -0.6840 -0.4920
  685MOL0     C92355   6.351  10.670   0.546  0.5270  0.4337 -0.7322
  685MOL0     C92356   6.463  10.618   0.452 -0.5339  0.4224 -0.2547
  685MOL0     N92357   6.464  10.662   0.320 -0.2480 -0.1250 -0.2499
  685MOL0     C92358   6.376  10.617   0.219  0.5126  0.3922 -0.2399
  685MOL0     C92359   6.407  10.683   0.110 -0.2632 -0.4922 -0.3872
  685MOL0     C92360   6.333  10.671  -0.017  0.3115  0.4983  0.2985
  685MOL0     C92361   6.360  10.781  -0.119  0.6997 -0.7899  0.6359
  685MOL0     C92362   6.277  10.766  -0.251 -0.5035 -0.3207 -0.0087
  685MOL0     C92363   6.320  10.648  -0.339  0.0946  1.3424  0.2939
  685MOL0     O92364   6.343  10.707  -0.467  0.2003  0.0681  0.3447
  685MOL0     C92365   6.248  10.691  -0.570  0.1366  0.1270 -0.2637
  685MOL0     C92366   6.121  10.638  -0.554  0.4260 -0.5173 -0.4545
  685MOL0     C92367   6.028  10.625  -0.657 -0.2731  0.0262 -0.1051
  685MOL0     C92368   5.885  10.588  -0.620  0.4210  0.7200 -0.3105
  685MOL0     C92369   6.071  10.663  -0.789  1.1158 -0.3569 -0.2119
  685MOL0     C92370   5.986  10.661  -0.907  0.6357 -0.6485  0.9085
  685MOL0     O92371   6.023  10.725  -1.029  0.7065  0.5443 -0.2373
  685MOL0     C92372   5.967  10.661  -1.144 -0.5328  0.5154 -0.0391
  685MOL0     C92373   5.872  10.722  -1.227 -0.3738 -0.0682 -0.1791
  685MOL0     C92374   5.831  10.677  -1.354  0.3588  2.3619  0.4551
  685MOL0     C92375   5.885  10.553  -1.398 -0.8395  0.0425 -0.1830
  685MOL0     O92376   5.850  10.505  -1.524  0.3801  0.4471 -0.7023
  685MOL0     C92377   5.864  10.369  -1.557 -0.2595 -0.8122 -0.0862
  685MOL0     C92378   6.003  10.362  -1.627 -2.3023 -0.4576  0.2598
  685MOL0     C92379   5.991  10.425  -1.774 -0.3389  0.9283 -0.5750
  685MOL0     C92380   6.135  10.435  -1.836  0.5068  0.5385 -0.9154
  685MOL0     C92381   6.130  10.515  -1.964  0.2928  0.3682 -0.6188
  685MOL0     C92382   6.249  10.519  -2.056 -0.2977 -0.3528  0.4630
  685MOL0     C92383   6.361  10.627  -2.012  0.4002 -0.4353 -0.6280
  685MOL0     C92384   6.306  10.768  -2.008 -0.5798 -0.0739  0.3456
  685MOL0    Cl92385   6.232  10.805  -2.155  0.9161 -0.1581  0.0164
  685MOL0     C92386   5.967  10.479  -1.312  0.0069  0.2770 -0.5985
  685MOL0     C92387   6.007  10.530  -1.187  0.3863  0.4425 -0.3088
  685MOL0     O92388   5.889  10.587  -0.905  0.4502  0.0118 -0.2896
  685MOL0     C92389   6.190  10.734  -0.806 -0.1616  0.8838  0.3586
  685MOL0     C92390   6.276  10.736  -0.697  0.4012 -0.2035 -0.2978
  685MOL0     N92391   6.519  10.768   0.135  0.7300 -0.4222  0.7505
  685MOL0     N92392   6.550  10.739   0.253 -0.9621 -0.7378  0.6455
  685MOL0     C92393   5.765  10.117   1.302  0.0157  0.9323  0.5499
  685MOL0     C92394   5.656  10.057   1.371 -0.5510 -0.4112  0.4583
  685MOL0     C92395   5.203  10.071   1.442  0.2425 -0.6750 -0.3088
  685MOL0     C92396   5.171   9.938   1.464 -0.8234  1.1372  0.4707
  685MOL0     C92397   5.046   9.895   1.505 -0.3891 -0.3785 -0.7339
  685MOL0     C92398   4.954   9.986   1.566  0.2679 -0.1569 -0.2725
  685MOL0     O92399   4.843   9.934   1.629 -0.2382  0.1067 -0.6939
  685MOL0     C92400   4.735  10.010   1.686 -0.0191 -0.2649  0.0040
  685MOL0     C92401   4.747  10.067   1.823 -0.6723  0.4845 -0.2031
  685MOL0     C92402   4.775   9.969   1.944 -0.1896  1.6520  0.3723
  685MOL0     C92403   4.766  10.032   2.081  0.4305 -0.6943  0.3438
  685MOL0     C92404   4.631  10.073   2.124 -0.2885  1.0142 -0.1863
  685MOL0     C92405   4.522  10.092   2.166  0.1292  1.4406  0.2965
  685MOL0     C92406   4.998  10.122   1.564 -0.0531  0.3912  1.0433
  685MOL0     C92407   5.113  10.167   1.502  1.1569  0.3968  0.1775
  685MOL0     H92408   5.433  10.120   1.108 -1.5141 -0.7400  2.4070
  685MOL0     H92409   5.648  10.210   1.008  0.7785  0.4127 -0.3124
  685MOL0     H92410   5.832  10.276   0.942  1.6099  1.8031 -1.8610
  685MOL0     H92411   5.806  10.401   1.068 -2.5819 -0.5119 -3.3010
  685MOL0     H92412   6.049  10.410   1.095 -0.1763 -1.7623  1.4603
  685MOL0     H92413   6.075  10.260   1.007  2.3029  0.8655  0.6593
  685MOL0     H92414   5.994  10.372   0.805  0.6464 -0.0304  0.0785
  685MOL0     H92415   5.972  10.522   0.900  0.5941 -0.0480  0.9592
  685MOL0     H92416   6.214  10.529   0.935  3.1613 -2.1691  1.8273
  685MOL0     H92417   6.237  10.371   0.865 -1.0846 -0.0283 -0.1822
  685MOL0     H92418   6.169  10.474   0.622 -1.9276  0.2223  0.7080
  685MOL0     H92419   6.121  10.622   0.693 -1.7569 -1.1872 -3.2252
  685MOL0     H92420   6.343  10.659   0.762 -2.6404 -1.1314  0.4309
  685MOL0     H92421   6.400  10.507   0.684 -1.5544 -2.4362 -1.6290
  685MOL0     H92422   6.261  10.657   0.485  2.4882 -3.2284 -3.1914
  685MOL0     H92423   6.363  10.777   0.569 -0.1786  0.6211 -1.2105
  685MOL0     H92424   6.453  10.509   0.454  2.5358  0.0753  0.3850
  685MOL0     H92425   6.560  10.646   0.493 -0.4964  1.4855 -1.0331
  685MOL0     H92426   6.294  10.547   0.234  2.2024 -1.6035 -0.0031
  685MOL0     H92427   6.369  10.577  -0.061 -0.4255 -0.0723  0.8976
  685MOL0     H92428   6.227  10.654  -0.000  0.2724  0.3659 -0.0727
  685MOL0     H92429   6.468  10.788  -0.132  1.1670  1.9276  4.3179
  685MOL0     H92430   6.326  10.877  -0.079  0.6719 -0.6608  0.3078
  685MOL0     H92431   6.271  10.861  -0.305 -0.0500 -0.8067 -0.9328
  685MOL0     H92432   6.177  10.738  -0.216  0.6269 -1.6023  2.4169
  685MOL0     H92433   6.242  10.572  -0.337  1.2106  0.1662  0.1873
  685MOL0     H92434   6.413  10.599  -0.308 -1.9033 -1.9931  1.4590
  685MOL0     H92435   6.083  10.625  -0.453 -0.3147 -1.8334 -0.8715
  685MOL0     H92436   5.819  10.669  -0.653 -0.7970  0.0412  0.3850
  685MOL0     H92437   5.858  10.496  -0.672  3.6364 -0.0628 -0.7728
  685MOL0     H92438   5.874  10.566  -0.513 -0.9969 -0.4042 -0.6579
  685MOL0     H92439   5.839  10.818  -1.188 -0.6648 -0.5382  0.7484
  685MOL0     H92440   5.761  10.732  -1.416 -2.7693 -2.8174 -1.2929
  685MOL0     H92441   5.852  10.297  -1.475  2.0906 -0.3221  0.7782
  685MOL0     H92442   5.799  10.356  -1.644  0.9890  1.2162 -1.4034
  685MOL0     H92443   6.082  10.421  -1.579 -2.5050  0.7487 -0.8400
  685MOL0     H92444   6.035  10.257  -1.630 -4.3169 -1.0955 -0.3803
  685MOL0     H92445   5.958  10.529  -1.764  1.0258  1.2745  0.7598
  685MOL0     H92446   5.916  10.373  -1.834 -1.1756 -0.0537  1.2218
  685MOL0     H92447   6.192  10.502  -1.772 -3.3547  1.6276  1.7466
  685MOL0     H92448   6.183  10.337  -1.845 -2.1983 -1.2981  2.1564
  685MOL0     H92449   6.089  10.615  -1.946 -2.7065 -0.5103 -1.9417
  685MOL0     H92450   6.057  10.457  -2.022 -2.2906  4.1676 -1.5587
  685MOL0     H92451   6.290  10.418  -2.062 -0.5792 -0.6323  2.5590
  685MOL0     H92452   6.203  10.525  -2.155 -2.6827 -2.4083  1.3532
  685MOL0     H92453   6.433  10.624  -2.095 -1.8200 -2.2552 -2.6462
  685MOL0     H92454   6.405  10.604  -1.915  1.7117  0.6820 -0.9206
  685MOL0     H92455   6.380  10.845  -1.983 -3.0554  1.8064  2.3911
  685MOL0     H92456   6.229  10.784  -1.932  0.1728  1.4910  0.8163
  685MOL0     H92457   6.002  10.379  -1.335  0.6940  0.4404 -0.2867
  685MOL0     H92458   6.066  10.464  -1.124  0.6401  0.5517 -0.4317
  685MOL0     H92459   6.212  10.774  -0.904  1.9541 -0.1488  0.3541
  685MOL0     H92460   6.381  10.762  -0.707  0.3299 -0.2686 -1.4155
  685MOL0     H92461   5.862  10.116   1.350  0.6009  1.2401 -0.5871
  685MOL0     H92462   5.665  10.015   1.470 -0.2438  0.6478  0.8878
  685MOL0     H92463   5.238   9.857   1.439 -1.7745  0.7505 -0.9200
  685MOL0     H92464   5.017   9.790   1.499 -2.0175 -0.2030  2.3046
  685MOL0     H92465   4.720  10.094   1.617  1.6991  0.3169  0.2748
  685MOL0     H92466   4.647   9.946   1.685 -0.0373 -0.2455 -0.8543
  685MOL0     H92467   4.653  10.119   1.846 -2.0045 -1.6380 -0.5575
  685MOL0     H92468   4.836  10.130   1.820 -0.5137  0.2442 -0.6392
  685MOL0     H92469   4.870   9.919   1.924 -1.5448  0.0743 -2.7090
  685MOL0     H92470   4.698   9.892   1.953 -1.6480  3.2205  2.3558
  685MOL0     H92471   4.829  10.122   2.092 -1.9311  0.9895  0.8947
  685MOL0     H92472   4.810   9.965   2.155  2.6721  1.2002  0.8797
  685MOL0     H92473   4.430  10.092   2.221 -0.4436 -2.6188 -0.3614
  685MOL0     H92474   4.935  10.190   1.621  1.6860  0.1069  3.4440
  685MOL0     H92475   5.129  10.274   1.504 -2.2581  1.0093  1.2718
  686MOL0     O92476   4.328   0.488   7.261 -0.3093 -0.0256 -0.8510
  686MOL0     C92477   4.305   0.373   7.234 -0.2974  0.6293  0.6079
  686MOL0     O92478   4.397   0.276   7.222  0.9396  0.2470  0.2274
  686MOL0     C92479   4.527   0.306   7.182  1.7121 -0.5058  0.1934
  686MOL0     C92480   4.627   0.214   7.223  0.4490  0.1217 -0.3607
  686MOL0     C92481   4.755   0.228   7.189  0.2441  0.0831 -0.0992
  686MOL0     C92482   4.793   0.345   7.126 -0.0537 -0.3177  0.2113
  686MOL0     O92483   4.922   0.375   7.094  0.3055 -0.7248  0.9290
  686MOL0     C92484   5.032   0.302   7.141  0.2640 -0.1183 -0.1315
  686MOL0     C92485   5.157   0.351   7.070 -0.3724 -0.4778 -0.3544
  686MOL0     C92486   5.170   0.281   6.935  0.3368 -0.2989  0.3830
  686MOL0     C92487   5.302   0.324   6.872  0.4543  0.4936 -1.0579
  686MOL0     C92488   5.332   0.240   6.747  0.2800 -0.4550 -0.1720
  686MOL0     C92489   5.336   0.088   6.765  0.5383 -0.1927 -0.3758
  686MOL0     C92490   5.361   0.019   6.628  0.1723  0.6767  0.4470
  686MOL0     C92491   5.510   0.015   6.597 -0.6340  0.2925  1.0975
  686MOL0     N92492   5.559  -0.052   6.466  1.0849 -0.4865 -0.6517
  686MOL0     C92493   5.600  -0.180   6.449  0.6879  0.5395 -0.1820
  686MOL0     C92494   5.649  -0.177   6.316 -0.4709 -0.0259 -0.0474
  686MOL0     C92495   5.727  -0.291   6.251 -0.1041  0.5054  0.2711
  686MOL0     C92496   5.787  -0.401   6.343  0.9076  0.5457  0.3582
  686MOL0     C92497   5.682  -0.495   6.402  0.5034  0.8394 -0.2421
  686MOL0     C92498   5.730  -0.563   6.527  0.7495  0.3164 -0.1643
  686MOL0     O92499   5.616  -0.629   6.590 -0.7938 -1.1914 -0.0105
  686MOL0     C92500   5.529  -0.565   6.668  0.1607 -0.2635  0.4749
  686MOL0     C92501   5.561  -0.458   6.757 -0.8559 -1.0834 -0.3071
  686MOL0     C92502   5.462  -0.387   6.819  0.1001 -0.7008 -0.2582
  686MOL0     C92503   5.515  -0.273   6.902 -0.6008 -0.5087  0.0005
  686MOL0     C92504   5.327  -0.416   6.798  0.6117 -0.7369 -0.0564
  686MOL0     C92505   5.213  -0.345   6.864  0.1661 -0.0417  0.6974
  686MOL0     O92506   5.081  -0.363   6.796 -0.2948  0.2147 -0.4306
  686MOL0     C92507   4.960  -0.317   6.849 -0.2501 -0.5696  0.2072
  686MOL0     C92508   4.912  -0.355   6.971  0.1241 -0.3542  0.0299
  686MOL0     C92509   4.779  -0.321   7.004 -0.5067 -0.7358 -0.5477
  686MOL0     C92510   4.703  -0.234   6.927 -0.5149 -0.1441  0.0250
  686MOL0     O92511   4.568  -0.231   6.963  0.1359 -0.7916 -0.0750
  686MOL0     C92512   4.507  -0.102   6.939  0.6187 -0.2760 -0.2169
  686MOL0     C92513   4.359  -0.134   6.915 -0.5997 -0.5277  0.7531
  686MOL0     C92514   4.274  -0.162   7.041  0.4062  0.5875  0.1916
  686MOL0     C92515   4.121  -0.177   7.009 -0.6592 -0.1169 -0.3599
  686MOL0     C92516   4.044  -0.216   7.142  0.0879 -0.7296  0.4089
  686MOL0     C92517   3.891  -0.171   7.139 -0.2411  0.0011 -0.0789
  686MOL0     C92518   3.811  -0.238   7.031 -0.0711 -0.0932  0.8652
  686MOL0     C92519   3.667  -0.192   7.036 -0.7819  0.7984  0.4616
  686MOL0    Cl92520   3.604  -0.272   7.180  0.5308  0.2665 -0.2960
  686MOL0     C92521   4.758  -0.194   6.797  0.2808  0.2688 -1.4563
  686MOL0     C92522   4.881  -0.240   6.761  0.0730  1.1724  0.3258
  686MOL0     O92523   5.231  -0.293   6.974 -0.0168 -0.2082 -0.0657
  686MOL0     C92524   5.297  -0.529   6.718  0.3504  0.5117 -0.5193
  686MOL0     C92525   5.397  -0.599   6.655 -0.1123  0.1672 -0.8031
  686MOL0     N92526   5.638  -0.051   6.261 -0.0534 -0.8526  0.0984
  686MOL0     N92527   5.570   0.015   6.347 -1.0779  0.0191 -0.3874
  686MOL0     C92528   4.696   0.436   7.072  0.8541  0.0464 -0.0665
  686MOL0     C92529   4.562   0.425   7.116 -0.6676  0.3865  0.4748
  686MOL0     C92530   4.169   0.340   7.234  0.8474  0.0512  0.5610
  686MOL0     C92531   4.114   0.213   7.258  0.0191  0.2172 -0.0640
  686MOL0     C92532   3.980   0.183   7.252  1.3835  0.2532  0.5727
  686MOL0     C92533   3.890   0.289   7.230  0.1391  0.8733  0.1885
  686MOL0     O92534   3.752   0.270   7.222  0.3301  0.2906 -0.4669
  686MOL0     C92535   3.698   0.137   7.245  0.9732  0.3415 -0.3464
  686MOL0     C92536   3.556   0.154   7.298 -0.2226 -0.2961  0.8417
  686MOL0     C92537   3.564   0.165   7.453 -0.2540 -0.8114  0.2520
  686MOL0     C92538   3.425   0.156   7.525  0.1274 -0.2932 -0.3883
  686MOL0     C92539   3.356   0.029   7.504 -0.0537  0.5777 -0.1736
  686MOL0     C92540   3.306  -0.081   7.482 -0.3101 -0.3449 -0.6577
  686MOL0     C92541   3.926   0.420   7.203 -0.4779 -0.3230 -0.0745
  686MOL0     C92542   4.072   0.452   7.202 -1.0939 -0.0988 -0.5200
  686MOL0     H92543   4.593   0.126   7.275  2.4714  0.4877  1.7284
  686MOL0     H92544   4.840   0.171   7.223  1.1174  1.2378 -0.2789
  686MOL0     H92545   5.042   0.299   7.250 -1.7757  0.2984  0.1111
  686MOL0     H92546   5.017   0.199   7.109 -2.3577  0.7453 -2.1021
  686MOL0     H92547   5.150   0.457   7.044 -1.5311 -0.8915 -1.8928
  686MOL0     H92548   5.250   0.339   7.126 -0.9490  1.8423  1.1976
  686MOL0     H92549   5.160   0.174   6.955  2.2014 -0.8443 -1.2862
  686MOL0     H92550   5.084   0.308   6.873 -0.1266 -1.0537  0.6772
  686MOL0     H92551   5.306   0.431   6.853  0.6672  1.0652  1.7711
  686MOL0     H92552   5.376   0.305   6.951 -1.2292  0.0689  0.4732
  686MOL0     H92553   5.258   0.259   6.670 -0.2413  0.8134  0.6096
  686MOL0     H92554   5.427   0.269   6.701  0.2777  0.6841  0.5015
  686MOL0     H92555   5.401   0.062   6.849  0.1462  2.7283  0.9397
  686MOL0     H92556   5.235   0.060   6.799  1.3657 -1.9969  0.7375
  686MOL0     H92557   5.338  -0.087   6.637 -0.6723  0.7926 -0.2490
  686MOL0     H92558   5.304   0.068   6.549  1.2258  2.1326  0.5484
  686MOL0     H92559   5.550  -0.026   6.690 -1.7131 -1.3044  0.8985
  686MOL0     H92560   5.546   0.118   6.595 -0.8036  0.3464  0.2560
  686MOL0     H92561   5.617  -0.258   6.523 -0.7601 -0.6637 -1.0584
  686MOL0     H92562   5.678  -0.345   6.169 -1.0529  2.7386 -0.7261
  686MOL0     H92563   5.820  -0.252   6.208  0.0513 -1.7170 -1.5990
  686MOL0     H92564   5.846  -0.355   6.423  0.8608 -1.4704  1.6111
  686MOL0     H92565   5.854  -0.467   6.288  0.3241  2.0644 -2.3733
  686MOL0     H92566   5.640  -0.571   6.335 -2.5991 -0.6337  2.9856
  686MOL0     H92567   5.593  -0.436   6.429 -0.0943 -0.2731  0.3016
  686MOL0     H92568   5.786  -0.497   6.594  4.1941 -2.4016 -0.0840
  686MOL0     H92569   5.804  -0.640   6.504 -2.1067 -3.0603  0.9532
  686MOL0     H92570   5.662  -0.434   6.788 -0.9482 -0.9835 -0.0826
  686MOL0     H92571   5.609  -0.232   6.864 -1.4286 -0.2361 -1.8503
  686MOL0     H92572   5.445  -0.189   6.888  0.1798 -0.1220 -1.9094
  686MOL0     H92573   5.537  -0.308   7.003  0.1504 -5.3132 -1.5555
  686MOL0     H92574   4.976  -0.411   7.037 -0.0713  1.1962  1.6041
  686MOL0     H92575   4.738  -0.354   7.098 -0.3165 -1.7780 -0.8191
  686MOL0     H92576   4.527  -0.066   7.040  0.1778 -1.1472  0.1886
  686MOL0     H92577   4.550  -0.035   6.864  0.5363 -0.5751 -0.5371
  686MOL0     H92578   4.323  -0.055   6.848  2.5760 -0.0929 -0.6237
  686MOL0     H92579   4.347  -0.214   6.842 -2.7371 -0.3444  0.8372
  686MOL0     H92580   4.278  -0.068   7.097  2.2589  1.4429 -1.2738
  686MOL0     H92581   4.322  -0.250   7.086  1.3125  2.2210  2.6121
  686MOL0     H92582   4.077  -0.084   6.970  0.5653  0.1519 -1.1725
  686MOL0     H92583   4.111  -0.261   6.940  0.9998 -0.7115  0.0704
  686MOL0     H92584   4.093  -0.170   7.228 -0.1529  0.2752  0.0158
  686MOL0     H92585   4.042  -0.324   7.161 -2.9424 -0.6305  1.2169
  686MOL0     H92586   3.848  -0.194   7.237 -3.7771 -0.0267 -1.4787
  686MOL0     H92587   3.886  -0.062   7.126  2.6019  0.3994  1.3731
  686MOL0     H92588   3.825  -0.346   7.037 -1.2354 -0.2749  0.4345
  686MOL0     H92589   3.846  -0.197   6.935 -1.8858 -1.3470 -0.4086
  686MOL0     H92590   3.603  -0.227   6.954  0.9568  0.3361 -0.7460
  686MOL0     H92591   3.667  -0.083   7.045 -0.2050  0.7951  0.5581
  686MOL0     H92592   4.700  -0.130   6.732  0.8539  1.4320 -0.8696
  686MOL0     H92593   4.910  -0.206   6.662  1.0656 -0.4965 -0.0031
  686MOL0     H92594   5.197  -0.558   6.689  0.5211  0.9292 -1.5554
  686MOL0     H92595   5.376  -0.683   6.590 -0.9621 -1.3657  1.3496
  686MOL0     H92596   4.735   0.515   7.009  2.7237  0.9493  2.0855
  686MOL0     H92597   4.494   0.507   7.097 -0.0204  1.2754  1.9091
  686MOL0     H92598   4.188   0.139   7.286 -1.3473 -0.3288  2.4636
  686MOL0     H92599   3.952   0.079   7.264 -0.2858  0.1804 -2.8618
  686MOL0     H92600   3.696   0.082   7.150  0.7110  2.1072 -1.4095
  686MOL0     H92601   3.751   0.067   7.309  0.6919  0.5474  0.1120
  686MOL0     H92602   3.492   0.071   7.266 -0.2180  0.9069 -2.6983
  686MOL0     H92603   3.507   0.243   7.256 -2.2031 -0.3344  2.8394
  686MOL0     H92604   3.618   0.259   7.471  0.0454 -0.9944  0.3258
  686MOL0     H92605   3.632   0.098   7.508  0.7831  0.1777  0.2142
  686MOL0     H92606   3.359   0.236   7.489  1.0174  0.4889 -0.3112
  686MOL0     H92607   3.441   0.162   7.633  0.1254 -2.4386 -0.2360
  686MOL0     H92608   3.294  -0.185   7.458  1.5284 -1.2838  1.9521
  686MOL0     H92609   3.844   0.488   7.184  0.6590  1.0470 -0.2034
  686MOL0     H92610   4.106   0.554   7.194  1.3203 -0.6189  1.8150
  687MOL0     O92611   1.285   3.918   2.919  0.0940  0.1942 -0.1529
  687MOL0     C92612   1.321   3.979   2.820  0.1561  0.2502 -0.5063
  687MOL0     O92613   1.252   4.074   2.752 -0.5797  0.4824 -0.0070
  687MOL0     C92614   1.125   4.109   2.791 -0.1070 -0.4220  0.5011
  687MOL0     C92615   1.087   4.118   2.923  0.0775 -0.1988 -0.0270
  687MOL0     C92616   0.964   4.170   2.960 -1.0829  0.3860 -0.3627
  687MOL0     C92617   0.879   4.225   2.868 -0.2577 -0.5224  0.3124
  687MOL0     O92618   0.756   4.282   2.894  0.2262 -0.1305 -0.1194
  687MOL0     C92619   0.715   4.293   3.038  0.6509 -0.4049 -0.3711
  687MOL0     C92620   0.574   4.349   3.039 -0.7647 -0.2965  0.7046
  687MOL0     C92621   0.524   4.353   3.178 -0.3765 -0.0523 -0.2389
  687MOL0     C92622   0.373   4.366   3.177  0.5142 -0.6141 -0.5353
  687MOL0     C92623   0.303   4.408   3.307  0.1068 -0.3320 -0.4065
  687MOL0     C92624   0.327   4.560   3.344 -0.3042  0.0263  0.8118
  687MOL0     C92625   0.270   4.590   3.478  0.4887  0.0197 -0.4128
  687MOL0     C92626   0.262   4.742   3.492 -0.2580 -0.3489  0.0752
  687MOL0     N92627   0.235   4.782   3.632 -1.1468 -0.3545  0.0709
  687MOL0     C92628   0.335   4.767   3.731 -0.5075 -0.5472 -0.5232
  687MOL0     C92629   0.300   4.844   3.837 -0.2344 -0.5484 -0.6218
  687MOL0     C92630   0.365   4.899   3.965  0.1678 -0.2291 -0.1241
  687MOL0     C92631   0.338   4.798   4.075  0.3523 -0.3829 -0.0352
  687MOL0     C92632   0.336   4.870   4.216  0.0862  0.1993  0.6227
  687MOL0     C92633   0.315   4.767   4.329 -0.2771  0.2799 -1.1204
  687MOL0     O92634   0.249   4.815   4.443  0.4216 -0.1598 -0.6536
  687MOL0     C92635   0.243   4.736   4.555 -0.8999 -0.7398 -0.1686
  687MOL0     C92636   0.193   4.793   4.678 -0.2072 -0.3793  0.4276
  687MOL0     C92637   0.186   4.719   4.794  0.5814 -0.3742  0.3340
  687MOL0     C92638   0.127   4.776   4.921 -0.7180  0.7278 -0.6903
  687MOL0     C92639   0.227   4.586   4.794 -0.4814 -0.2127  0.4901
  687MOL0     C92640   0.219   4.495   4.903  0.1272  0.1280  0.1076
  687MOL0     O92641   0.205   4.361   4.867 -0.0152  0.5436 -0.3281
  687MOL0     C92642   0.177   4.288   4.967  0.7379  0.5033 -0.0065
  687MOL0     C92643   0.052   4.318   5.023 -0.1385 -0.4777 -0.1976
  687MOL0     C92644   0.000   4.238   5.132  0.5767  0.0458  0.2332
  687MOL0     C92645   0.069   4.120   5.168  0.4247 -0.1547  0.2755
  687MOL0     O92646   0.002   4.045   5.263 -0.5729 -0.6607 -0.4514
  687MOL0     C92647   0.031   3.906   5.286 -0.1424 -0.2197  1.0275
  687MOL0     C92648  -0.048   3.856   5.398 -0.4219 -0.2825 -1.0946
  687MOL0     C92649  -0.182   3.806   5.347  0.1245 -0.5316  0.8749
  687MOL0     C92650  -0.272   3.735   5.459  0.4295 -0.3954 -0.6113
  687MOL0     C92651  -0.422   3.717   5.414 -0.8135  0.5511 -0.3779
  687MOL0     C92652  -0.509   3.616   5.485 -0.4865 -0.3453  0.5148
  687MOL0     C92653  -0.537   3.657   5.638  0.1816 -0.0779  0.9279
  687MOL0     C92654  -0.625   3.552   5.696  0.9561  1.1929 -0.4889
  687MOL0    Cl92655  -0.797   3.576   5.632  0.1933  0.1795 -0.1329
  687MOL0     C92656   0.189   4.089   5.103 -1.3167 -0.0902  0.1359
  687MOL0     C92657   0.241   4.169   4.999 -0.1888  0.1198 -1.5222
  687MOL0     O92658   0.232   4.533   5.015 -0.8018 -0.0771  0.0308
  687MOL0     C92659   0.277   4.534   4.675  0.6821  0.0182  0.6049
  687MOL0     C92660   0.298   4.611   4.562 -0.1971  0.6513 -0.6851
  687MOL0     N92661   0.176   4.894   3.805  0.1285  0.5798  0.3942
  687MOL0     N92662   0.140   4.862   3.680 -0.8523  0.3123 -0.1218
  687MOL0     C92663   0.916   4.210   2.730  0.2739 -0.8843 -0.5822
  687MOL0     C92664   1.038   4.159   2.689 -0.0929  0.5127  0.3256
  687MOL0     C92665   1.455   3.962   2.765 -0.4465 -0.6200  0.8054
  687MOL0     C92666   1.526   4.076   2.724 -0.4513 -0.5153  0.8058
  687MOL0     C92667   1.653   4.066   2.670  0.5326  0.7047  0.7414
  687MOL0     C92668   1.719   3.941   2.676 -0.6223 -0.3180  0.3470
  687MOL0     O92669   1.848   3.918   2.628  0.2854  0.0360 -0.3424
  687MOL0     C92670   1.887   3.983   2.508  0.2300  0.7136  0.0192
  687MOL0     C92671   1.995   3.907   2.439 -0.3397 -0.1863  1.3121
  687MOL0     C92672   2.045   3.982   2.313 -0.7817  0.2165 -0.4091
  687MOL0     C92673   2.111   3.877   2.219 -0.1195  0.0497 -0.6822
  687MOL0     C92674   2.255   3.861   2.247  0.1567 -0.0180  0.7757
  687MOL0     C92675   2.378   3.849   2.268 -0.7186 -0.6288  0.7167
  687MOL0     C92676   1.653   3.832   2.740  0.0650  0.7213 -0.5832
  687MOL0     C92677   1.529   3.846   2.795 -0.1942  0.9833 -0.3505
  687MOL0     H92678   1.158   4.085   2.998  1.7320  1.1120 -0.9510
  687MOL0     H92679   0.944   4.147   3.064 -2.3791 -1.4594 -0.9729
  687MOL0     H92680   0.729   4.196   3.085  1.3662  0.0829  0.4524
  687MOL0     H92681   0.775   4.367   3.092 -0.5697 -0.1676  0.7115
  687MOL0     H92682   0.577   4.447   2.990  1.5830 -0.5221  0.3052
  687MOL0     H92683   0.511   4.285   2.976 -3.4098  1.5023  1.3573
  687MOL0     H92684   0.547   4.255   3.221  2.1112  0.7374  0.4215
  687MOL0     H92685   0.585   4.432   3.222 -0.1406 -0.0625 -0.5429
  687MOL0     H92686   0.330   4.432   3.101 -0.1226  1.4189  1.4579
  687MOL0     H92687   0.332   4.265   3.162  3.1446 -2.3599  2.6508
  687MOL0     H92688   0.193   4.406   3.308  0.1077 -0.1558  0.1725
  687MOL0     H92689   0.345   4.356   3.393 -0.0699  1.2195  0.6565
  687MOL0     H92690   0.436   4.571   3.343 -0.2983  0.3690  2.5671
  687MOL0     H92691   0.286   4.628   3.268  2.2280 -0.5406 -1.2154
  687MOL0     H92692   0.168   4.552   3.467  0.1479  1.2747 -1.7842
  687MOL0     H92693   0.310   4.538   3.566 -0.6912  1.3717  0.9869
  687MOL0     H92694   0.172   4.762   3.433 -2.4306  0.8502  3.4596
  687MOL0     H92695   0.343   4.804   3.453 -2.7263  0.7256 -3.9137
  687MOL0     H92696   0.427   4.712   3.718  0.5768  0.0798  3.2975
  687MOL0     H92697   0.473   4.912   3.954  0.3537 -1.2131  0.4296
  687MOL0     H92698   0.323   4.996   3.991  0.8096 -0.3557  1.4465
  687MOL0     H92699   0.412   4.717   4.078 -0.3648 -1.0415  0.2552
  687MOL0     H92700   0.243   4.746   4.062 -0.4187  0.9650  0.1319
  687MOL0     H92701   0.248   4.935   4.212 -0.8741 -1.0771  0.1095
  687MOL0     H92702   0.425   4.932   4.222  0.5233 -0.5275  2.3998
  687MOL0     H92703   0.418   4.742   4.355  0.1433  2.6695 -0.2775
  687MOL0     H92704   0.255   4.681   4.297 -2.0691  0.6083  1.1422
  687MOL0     H92705   0.181   4.901   4.676  0.7874 -0.2468 -2.1756
  687MOL0     H92706   0.203   4.807   4.992 -1.3054 -0.1258  0.3418
  687MOL0     H92707   0.072   4.868   4.901  2.5242  2.7696 -0.8888
  687MOL0     H92708   0.054   4.719   4.979 -0.3488  0.8687 -0.0773
  687MOL0     H92709   0.011   4.418   5.009 -0.9163 -0.1368  3.5340
  687MOL0     H92710  -0.089   4.267   5.187 -0.5913 -1.0278 -1.0321
  687MOL0     H92711   0.012   3.852   5.192 -1.8527 -0.0402  1.2418
  687MOL0     H92712   0.133   3.892   5.323  0.0247  0.3590  0.8178
  687MOL0     H92713  -0.001   3.769   5.444 -2.4069  0.0155  1.7347
  687MOL0     H92714  -0.059   3.934   5.474 -0.3846  0.6478 -2.0259
  687MOL0     H92715  -0.169   3.748   5.255  1.9989 -1.2886  1.5743
  687MOL0     H92716  -0.242   3.890   5.311  1.7848 -0.1142 -1.0953
  687MOL0     H92717  -0.223   3.639   5.478  0.9270  0.1571  1.1989
  687MOL0     H92718  -0.268   3.788   5.555 -0.1482 -1.0186 -0.2386
  687MOL0     H92719  -0.426   3.691   5.308 -0.1298  2.4483 -0.9148
  687MOL0     H92720  -0.475   3.813   5.415 -2.7617 -0.3998 -2.7520
  687MOL0     H92721  -0.607   3.603   5.439 -1.9373 -0.6403  3.4393
  687MOL0     H92722  -0.450   3.526   5.465  0.7508  0.6148 -0.3125
  687MOL0     H92723  -0.588   3.753   5.649 -1.9435 -1.0340 -0.1271
  687MOL0     H92724  -0.440   3.668   5.687  0.7166  1.1619 -0.3579
  687MOL0     H92725  -0.620   3.566   5.804  0.4311 -0.6539 -0.1947
  687MOL0     H92726  -0.582   3.457   5.664  1.6938  1.7148 -1.0887
  687MOL0     H92727   0.238   3.996   5.128 -0.7327 -0.2475 -1.4717
  687MOL0     H92728   0.339   4.146   4.958  2.2113  5.1064  0.6016
  687MOL0     H92729   0.309   4.431   4.670  0.3374 -0.0644 -0.0226
  687MOL0     H92730   0.357   4.561   4.485 -0.7913  1.7253 -1.8759
  687MOL0     H92731   0.855   4.242   2.647  3.1124 -2.5985 -3.5722
  687MOL0     H92732   1.061   4.145   2.584 -2.6615 -4.0753  0.1302
  687MOL0     H92733   1.471   4.169   2.719  0.0478 -0.2696 -0.6394
  687MOL0     H92734   1.701   4.148   2.616 -2.3364  1.1474 -1.4155
  687MOL0     H92735   1.799   3.982   2.443 -0.4447 -0.4535  0.9151
  687MOL0     H92736   1.913   4.087   2.529  0.4752  0.3920  1.4181
  687MOL0     H92737   1.948   3.816   2.401  0.8848 -0.7940  1.1833
  687MOL0     H92738   2.081   3.880   2.501 -1.2171 -1.7260  1.9314
  687MOL0     H92739   2.125   4.050   2.344  0.4678 -1.1970 -0.4380
  687MOL0     H92740   1.957   4.030   2.268  0.2809  0.6668 -2.1152
  687MOL0     H92741   2.119   3.919   2.119  2.6681 -0.0228 -0.5577
  687MOL0     H92742   2.058   3.781   2.216  0.4005 -0.3022  0.6343
  687MOL0     H92743   2.483   3.853   2.290 -1.0978  0.5184  2.5039
  687MOL0     H92744   1.710   3.741   2.751 -1.0440  0.2513  2.2191
  687MOL0     H92745   1.490   3.761   2.851  0.5682 -0.0382 -1.3397
  688MOL0     O92746   5.806   8.225   2.042  0.2525  0.0831  0.3965
  688MOL0     C92747   5.848   8.230   2.159 -0.3652 -0.0999 -0.6703
  688MOL0     O92748   5.788   8.288   2.267  0.3217 -0.1632 -0.0836
  688MOL0     C92749   5.669   8.348   2.260  0.3671 -0.6095 -0.0845
  688MOL0     C92750   5.565   8.315   2.173  0.7079 -0.1102 -0.3819
  688MOL0     C92751   5.433   8.373   2.183  1.0217 -0.7703 -0.3835
  688MOL0     C92752   5.416   8.477   2.274  0.4727 -0.2057  0.5230
  688MOL0     O92753   5.282   8.525   2.275 -0.1853 -0.7937 -0.0060
  688MOL0     C92754   5.246   8.623   2.381 -0.3113 -0.5063 -0.1834
  688MOL0     C92755   5.125   8.705   2.321  1.1035 -0.1067 -0.0659
  688MOL0     C92756   5.056   8.774   2.437 -0.1117 -0.7508  0.2485
  688MOL0     C92757   4.947   8.869   2.373 -0.9697 -0.7319  0.3838
  688MOL0     C92758   4.860   8.939   2.474 -0.0879 -0.0830  0.3456
  688MOL0     C92759   4.753   9.016   2.400  0.2644  0.3377  0.5766
  688MOL0     C92760   4.678   9.090   2.505 -0.4356 -0.0490 -0.8562
  688MOL0     C92761   4.552   9.159   2.448 -0.0922 -0.3575 -0.1808
  688MOL0     N92762   4.435   9.141   2.531  0.4878  0.0950  0.2542
  688MOL0     C92763   4.376   9.032   2.571  0.2340 -0.2114 -0.3440
  688MOL0     C92764   4.273   9.065   2.654 -0.0074  0.1431 -0.0925
  688MOL0     C92765   4.169   8.990   2.718 -0.0115 -0.3495 -0.7479
  688MOL0     C92766   4.035   9.022   2.665  0.9640 -0.1642  0.3621
  688MOL0     C92767   3.921   8.960   2.746 -0.0034  0.4749 -0.3921
  688MOL0     C92768   3.784   9.028   2.721 -0.1327 -0.6545  0.9061
  688MOL0     O92769   3.752   9.007   2.581 -1.3458  0.4729 -0.4972
  688MOL0     C92770   3.631   8.995   2.527  0.6844  0.1924  0.4756
  688MOL0     C92771   3.632   9.014   2.386 -0.0494  0.5077  0.4174
  688MOL0     C92772   3.513   8.996   2.314 -0.3304 -0.4018  0.8751
  688MOL0     C92773   3.533   9.024   2.164  1.1239  0.1356  0.6803
  688MOL0     C92774   3.388   8.964   2.380 -0.3191 -0.4190  0.4753
  688MOL0     C92775   3.268   8.913   2.307  0.4524 -0.5630 -0.4786
  688MOL0     O92776   3.286   8.850   2.184 -0.0533 -0.6602 -0.6270
  688MOL0     C92777   3.171   8.780   2.134 -0.1246 -0.1182 -0.1446
  688MOL0     C92778   3.139   8.797   2.003 -0.8720 -0.3744  0.9567
  688MOL0     C92779   3.050   8.711   1.939  0.0167 -0.6555 -0.3779
  688MOL0     C92780   2.983   8.619   2.013 -0.1672 -0.9568  1.0767
  688MOL0     O92781   2.890   8.543   1.946  0.6610  0.1745  0.4979
  688MOL0     C92782   2.819   8.439   2.016  0.4606  1.4038 -0.1321
  688MOL0     C92783   2.727   8.368   1.925 -0.7072  0.3804  0.6771
  688MOL0     C92784   2.662   8.251   1.999  0.6691  0.0124  0.2808
  688MOL0     C92785   2.563   8.158   1.924  0.7407 -1.0782  0.4220
  688MOL0     C92786   2.517   8.035   1.987 -0.3034 -0.5379 -0.3346
  688MOL0     C92787   2.397   7.965   1.909 -0.1846 -0.6502 -1.2156
  688MOL0     C92788   2.455   7.893   1.789  0.4153 -0.3089 -1.1150
  688MOL0     C92789   2.538   7.772   1.839  0.4079 -0.0363 -0.4512
  688MOL0    Cl92790   2.449   7.676   1.957 -0.0599 -0.1614 -0.2804
  688MOL0     C92791   3.010   8.598   2.148  0.1350 -0.1681 -0.1417
  688MOL0     C92792   3.107   8.684   2.212 -0.1547  0.2024 -0.1593
  688MOL0     O92793   3.161   8.922   2.371  0.1410 -1.2072  0.3640
  688MOL0     C92794   3.388   8.943   2.517 -0.5085 -0.4339 -0.0003
  688MOL0     C92795   3.505   8.966   2.588 -0.2540 -0.9824  1.1307
  688MOL0     N92796   4.267   9.200   2.651 -0.8609  0.5035  0.4851
  688MOL0     N92797   4.367   9.247   2.583  0.7224  0.7656  0.2629
  688MOL0     C92798   5.525   8.522   2.357  0.6542 -0.1036 -0.4501
  688MOL0     C92799   5.649   8.453   2.347 -0.5570  0.3925 -0.8117
  688MOL0     C92800   5.992   8.176   2.183 -0.5315 -0.1839 -0.1963
  688MOL0     C92801   6.046   8.175   2.316 -0.0354 -0.7952 -0.2478
  688MOL0     C92802   6.182   8.130   2.335  0.1543 -1.2107 -0.3040
  688MOL0     C92803   6.246   8.072   2.228 -0.0980  0.4378 -1.2561
  688MOL0     O92804   6.369   8.016   2.245  0.1955  0.4313 -0.8755
  688MOL0     C92805   6.450   8.060   2.358  1.1477 -0.5884  0.4830
  688MOL0     C92806   6.498   8.210   2.342 -0.2734 -0.3971  0.2698
  688MOL0     C92807   6.544   8.230   2.199 -0.0041  0.3926 -0.1768
  688MOL0     C92808   6.546   8.381   2.157  1.0975 -0.7157 -0.2140
  688MOL0     C92809   6.647   8.454   2.242 -0.7265  0.0754 -0.9963
  688MOL0     C92810   6.740   8.515   2.304  0.5594 -0.5908  0.2278
  688MOL0     C92811   6.206   8.081   2.104  0.0443  0.4598 -0.1283
  688MOL0     C92812   6.081   8.138   2.075  0.0622  0.6894  0.0080
  688MOL0     H92813   5.574   8.243   2.093 -0.3461  1.0026 -1.5502
  688MOL0     H92814   5.348   8.341   2.124 -1.0008 -0.5958  2.2343
  688MOL0     H92815   5.222   8.564   2.469  0.5690  1.2500  1.3019
  688MOL0     H92816   5.320   8.696   2.415 -0.4667 -1.0034  1.2694
  688MOL0     H92817   5.161   8.775   2.244  0.7651 -1.0461 -1.1054
  688MOL0     H92818   5.048   8.640   2.278  0.1756  0.0201  1.3603
  688MOL0     H92819   4.992   8.700   2.486  1.3511 -3.0164 -1.1244
  688MOL0     H92820   5.121   8.835   2.500 -0.7135  0.0421  0.1270
  688MOL0     H92821   4.995   8.947   2.314 -0.8054  0.9504  2.6011
  688MOL0     H92822   4.888   8.806   2.306  0.1791  0.7198 -2.1266
  688MOL0     H92823   4.820   8.870   2.548  0.3172 -0.6070  0.0836
  688MOL0     H92824   4.920   9.019   2.519  1.8539  1.2095 -3.9248
  688MOL0     H92825   4.788   9.069   2.311  0.0607 -1.9537 -0.9727
  688MOL0     H92826   4.686   8.942   2.356  0.7265  0.2526 -0.0097
  688MOL0     H92827   4.640   9.027   2.586 -0.5607  1.1203  0.0097
  688MOL0     H92828   4.744   9.155   2.563 -1.0000  0.8246 -1.1737
  688MOL0     H92829   4.537   9.136   2.342  0.2319  1.3355 -0.6243
  688MOL0     H92830   4.574   9.267   2.453  0.7137 -0.5601  1.6859
  688MOL0     H92831   4.409   8.934   2.539  2.2149  0.8348 -1.6289
  688MOL0     H92832   4.193   8.883   2.718 -0.3162 -0.4472  0.8313
  688MOL0     H92833   4.174   9.026   2.821  1.9737  0.0761 -0.9672
  688MOL0     H92834   4.026   9.004   2.558  1.7933  1.1643  0.0516
  688MOL0     H92835   4.020   9.130   2.663 -0.5586 -0.3135 -3.2240
  688MOL0     H92836   3.951   8.956   2.851 -1.1921 -1.1500 -0.0755
  688MOL0     H92837   3.894   8.858   2.716 -1.5354  1.1054 -1.2772
  688MOL0     H92838   3.781   9.136   2.742 -2.2465 -0.3640 -0.5067
  688MOL0     H92839   3.709   8.991   2.791 -1.2815  1.7432  1.0623
  688MOL0     H92840   3.732   9.021   2.345  0.5383  0.9848  1.8509
  688MOL0     H92841   3.621   8.969   2.130  0.8840 -0.0920  0.4157
  688MOL0     H92842   3.449   9.000   2.097  3.0321 -0.6121 -1.5931
  688MOL0     H92843   3.542   9.130   2.139 -1.9229  0.1890 -0.6648
  688MOL0     H92844   3.188   8.877   1.948  2.6714 -0.2415  3.9510
  688MOL0     H92845   3.025   8.725   1.834  0.3462  1.8417 -0.1808
  688MOL0     H92846   2.879   8.361   2.064 -1.2857  1.4206  2.2563
  688MOL0     H92847   2.744   8.478   2.085 -0.2242  2.5716 -1.4873
  688MOL0     H92848   2.642   8.427   1.889 -1.6650  1.6109  4.5167
  688MOL0     H92849   2.782   8.320   1.844 -2.8550 -4.5904  1.8414
  688MOL0     H92850   2.600   8.286   2.083 -0.4839 -2.2097  0.4347
  688MOL0     H92851   2.733   8.186   2.050  1.4439  1.4259  1.0671
  688MOL0     H92852   2.475   8.203   1.876  1.0426 -2.1569 -1.2119
  688MOL0     H92853   2.608   8.135   1.827 -2.7576 -2.6771 -1.0090
  688MOL0     H92854   2.471   8.072   2.079  1.6061 -0.1880  0.5527
  688MOL0     H92855   2.603   7.969   2.004  0.5788  0.6047 -0.1825
  688MOL0     H92856   2.350   7.895   1.978  0.6476 -2.6001 -2.5287
  688MOL0     H92857   2.329   8.045   1.879 -0.3867 -0.2385  0.2845
  688MOL0     H92858   2.515   7.972   1.741 -2.2465  3.0390  0.5924
  688MOL0     H92859   2.376   7.849   1.728 -0.5165  0.9427 -0.8496
  688MOL0     H92860   2.638   7.800   1.873  1.8958 -3.0399 -2.0039
  688MOL0     H92861   2.561   7.702   1.758 -2.3479 -0.8137 -0.6781
  688MOL0     H92862   2.951   8.534   2.213 -1.8580  1.5135 -0.1725
  688MOL0     H92863   3.141   8.665   2.313  2.3467 -1.2182 -1.1766
  688MOL0     H92864   3.307   8.893   2.570 -0.0366 -2.2952 -0.9500
  688MOL0     H92865   3.488   8.957   2.695 -2.4342  1.1628  1.0488
  688MOL0     H92866   5.496   8.596   2.431 -4.2353 -1.2652 -0.8651
  688MOL0     H92867   5.717   8.466   2.431 -2.2152 -1.0245  0.8391
  688MOL0     H92868   5.995   8.202   2.408  0.6152 -2.0274  0.5031
  688MOL0     H92869   6.214   8.129   2.438  1.5388 -4.5739 -0.6368
  688MOL0     H92870   6.397   8.043   2.452  0.7962  0.3524  0.4680
  688MOL0     H92871   6.541   8.000   2.366  0.9692 -1.0198 -0.5363
  688MOL0     H92872   6.583   8.226   2.408 -0.9345 -0.4106  1.1476
  688MOL0     H92873   6.420   8.282   2.366  1.5647  0.5711  3.9547
  688MOL0     H92874   6.472   8.195   2.125 -0.7123  1.9986 -0.3006
  688MOL0     H92875   6.639   8.177   2.184 -1.8138 -2.8851 -0.9698
  688MOL0     H92876   6.445   8.413   2.180  1.7021  0.4883  0.8673
  688MOL0     H92877   6.560   8.388   2.049  0.4127 -1.3008 -0.3498
  688MOL0     H92878   6.817   8.577   2.344 -0.2000 -2.7768  6.1250
  688MOL0     H92879   6.261   8.044   2.019  0.8476 -0.5342  0.8074
  688MOL0     H92880   6.043   8.156   1.975  1.3046  2.3472 -0.2129
  689MOL0     O92881   6.360   8.669   8.870 -0.4492 -0.3495  0.2264
  689MOL0     C92882   6.308   8.557   8.868  0.1633  0.0602 -0.1516
  689MOL0     O92883   6.370   8.445   8.824 -0.1423 -0.3138 -0.2798
  689MOL0     C92884   6.498   8.459   8.782  0.5984 -0.3465  0.9733
  689MOL0     C92885   6.599   8.527   8.846 -1.0786 -0.3006  0.2036
  689MOL0     C92886   6.726   8.546   8.783 -0.5855  0.5945 -0.8893
  689MOL0     C92887   6.755   8.468   8.664 -0.6179 -0.1613 -0.3966
  689MOL0     O92888   6.879   8.476   8.599  0.4075 -0.2380 -0.5422
  689MOL0     C92889   6.965   8.584   8.637  0.7589  0.1538  0.4170
  689MOL0     C92890   7.104   8.561   8.581 -0.1343 -0.0939  1.1854
  689MOL0     C92891   7.213   8.679   8.563  0.7572  0.2606 -0.1306
  689MOL0     C92892   7.269   8.735   8.692  0.6342  0.2679  0.6682
  689MOL0     C92893   7.366   8.858   8.664  0.8887 -0.2978  0.1719
  689MOL0     C92894   7.318   8.963   8.558 -0.1301  0.0346 -0.4135
  689MOL0     C92895   7.183   9.033   8.610 -0.3043  0.2120  0.6547
  689MOL0     C92896   7.213   9.136   8.724 -1.1956  0.0365 -0.6907
  689MOL0     N92897   7.097   9.202   8.769 -0.0577  0.7854 -0.9715
  689MOL0     C92898   7.057   9.331   8.761  1.1048  0.2565  0.3538
  689MOL0     C92899   6.930   9.331   8.816 -0.5180 -0.2632  1.1172
  689MOL0     C92900   6.854   9.452   8.854 -0.6315  0.7240  0.0126
  689MOL0     C92901   6.935   9.553   8.935 -0.7142  0.0315 -0.1843
  689MOL0     C92902   6.894   9.697   8.924  0.2051  0.2978  0.5765
  689MOL0     C92903   6.779   9.729   9.014  0.0492 -0.6401 -0.0312
  689MOL0     O92904   6.647   9.690   8.953 -0.1932  0.1258 -0.2528
  689MOL0     C92905   6.571   9.778   8.875 -0.6626 -0.3168 -0.8035
  689MOL0     C92906   6.633   9.893   8.821  0.0402  0.9104 -0.2097
  689MOL0     C92907   6.561   9.984   8.751  0.1853  0.8427  0.1669
  689MOL0     C92908   6.621  10.115   8.722  0.2280 -0.0046  0.2532
  689MOL0     C92909   6.428   9.945   8.706  0.1365  0.2313 -0.3910
  689MOL0     C92910   6.344  10.050   8.637 -0.0108  0.1691  0.4562
  689MOL0     O92911   6.224  10.072   8.692 -0.6077  0.0591 -0.6156
  689MOL0     C92912   6.133  10.169   8.641  0.1290 -0.9781 -0.5885
  689MOL0     C92913   6.119  10.215   8.506 -0.5208  0.6265  0.2368
  689MOL0     C92914   6.024  10.309   8.464 -0.3969  0.2375 -0.1325
  689MOL0     C92915   5.947  10.370   8.566  0.3122 -0.7597 -0.3191
  689MOL0     O92916   5.846  10.453   8.520 -0.0911 -0.1551 -0.7398
  689MOL0     C92917   5.891  10.586   8.515  0.2148  0.4965  0.1209
  689MOL0     C92918   5.821  10.675   8.412  0.3077 -0.1580 -0.1192
  689MOL0     C92919   5.875  10.821   8.410  0.1716  0.8512 -0.2838
  689MOL0     C92920   5.854  10.885   8.270 -0.1849 -0.2892  0.0526
  689MOL0     C92921   5.884  11.027   8.287 -0.5555 -0.7375 -0.3188
  689MOL0     C92922   6.033  11.055   8.294 -0.3017  0.1629  0.2192
  689MOL0     C92923   6.110  10.981   8.179 -0.6570 -0.3034  0.5478
  689MOL0     C92924   6.226  11.062   8.149  0.8391  0.5776 -0.3813
  689MOL0    Cl92925   6.338  11.102   8.285  0.4035 -0.6403  0.3041
  689MOL0     C92926   5.955  10.338   8.703 -0.3220  1.0039  0.1786
  689MOL0     C92927   6.049  10.228   8.738 -0.7570 -0.1876 -0.0149
  689MOL0     O92928   6.389  10.105   8.535  0.2394  0.6076 -0.1201
  689MOL0     C92929   6.376   9.821   8.748 -0.2462 -0.3144  0.2284
  689MOL0     C92930   6.444   9.740   8.836  0.3526  0.5139 -0.0322
  689MOL0     N92931   6.898   9.199   8.859 -0.6142  0.3570  0.5067
  689MOL0     N92932   7.007   9.130   8.842  0.3891  0.1098 -0.1222
  689MOL0     C92933   6.664   8.379   8.614  0.3113  0.6429 -0.3378
  689MOL0     C92934   6.530   8.382   8.671 -0.3879  0.7226 -0.1360
  689MOL0     C92935   6.176   8.533   8.919  0.4416  0.3484  1.2968
  689MOL0     C92936   6.098   8.638   8.977 -0.0480 -0.3294  0.0804
  689MOL0     C92937   5.971   8.606   9.031  0.5748  0.9117 -0.8137
  689MOL0     C92938   5.900   8.483   9.025 -1.0342 -0.3315  0.3626
  689MOL0     O92939   5.779   8.457   9.072  0.3328 -0.0331 -0.4284
  689MOL0     C92940   5.701   8.569   9.118  0.0094  0.7387 -1.0371
  689MOL0     C92941   5.562   8.517   9.160  0.0792  0.2657 -0.5864
  689MOL0     C92942   5.556   8.401   9.270 -0.3778 -0.0079  0.1846
  689MOL0     C92943   5.405   8.369   9.319  0.3468  0.7851  0.8964
  689MOL0     C92944   5.331   8.482   9.376 -0.0780 -0.2026  0.1269
  689MOL0     C92945   5.259   8.575   9.399 -0.6732 -0.0825 -0.3535
  689MOL0     C92946   5.978   8.382   8.967 -0.3401 -0.2878  0.7716
  689MOL0     C92947   6.111   8.408   8.913  0.5546  0.5035  0.7560
  689MOL0     H92948   6.574   8.579   8.938 -2.5848  0.0205 -0.3646
  689MOL0     H92949   6.791   8.626   8.815 -0.6420  0.7612 -1.1927
  689MOL0     H92950   6.921   8.677   8.600 -0.1289  0.9718  3.2909
  689MOL0     H92951   6.983   8.594   8.744 -0.2853  1.0979  0.5187
  689MOL0     H92952   7.152   8.477   8.633  3.2396 -0.4296 -2.0754
  689MOL0     H92953   7.092   8.535   8.475  0.7700  0.2891  0.9830
  689MOL0     H92954   7.297   8.644   8.503  2.0217 -1.5594  2.5421
  689MOL0     H92955   7.169   8.756   8.499  2.0179 -0.7394 -2.3278
  689MOL0     H92956   7.193   8.772   8.762  2.0325 -2.1198  3.7323
  689MOL0     H92957   7.308   8.653   8.754 -0.2516 -0.5473  0.1743
  689MOL0     H92958   7.388   8.923   8.749 -3.0704  2.8533 -0.9034
  689MOL0     H92959   7.462   8.808   8.644  1.6488 -0.7910  4.2071
  689MOL0     H92960   7.397   9.037   8.546  2.2972 -2.7207 -2.9918
  689MOL0     H92961   7.311   8.908   8.464 -0.2099  0.5162 -0.6914
  689MOL0     H92962   7.134   9.090   8.530 -1.0683 -1.6932 -0.2897
  689MOL0     H92963   7.112   8.956   8.642 -1.0571  0.3961 -0.4829
  689MOL0     H92964   7.273   9.216   8.680  1.2825 -1.5424 -0.3577
  689MOL0     H92965   7.277   9.096   8.803  0.8532 -1.0789 -2.7725
  689MOL0     H92966   7.099   9.423   8.721 -2.3561  1.6257 -0.5178
  689MOL0     H92967   6.833   9.507   8.762  0.3803  0.3245 -0.4778
  689MOL0     H92968   6.765   9.425   8.911 -0.9203  0.5579 -0.5093
  689MOL0     H92969   7.041   9.548   8.911 -1.2106 -3.6317 -2.4344
  689MOL0     H92970   6.938   9.528   9.042  1.3716  1.6906  0.2087
  689MOL0     H92971   6.864   9.735   8.825 -0.2099 -2.8266 -0.5994
  689MOL0     H92972   6.984   9.746   8.962 -0.7590  0.6837  2.5025
  689MOL0     H92973   6.790   9.834   9.044 -1.8860 -0.0487 -1.2457
  689MOL0     H92974   6.795   9.670   9.105 -0.6860  1.0354  1.2403
  689MOL0     H92975   6.733   9.915   8.856  0.1589 -1.7246  1.3029
  689MOL0     H92976   6.661  10.137   8.623  2.6291  1.1538  1.3794
  689MOL0     H92977   6.557  10.196   8.758  1.0176 -0.2419  2.3186
  689MOL0     H92978   6.713  10.127   8.781  1.0878 -1.9682 -0.6131
  689MOL0     H92979   6.191  10.177   8.435  2.0626  3.1976  1.2588
  689MOL0     H92980   6.025  10.345   8.361  1.6086 -0.4385 -0.3788
  689MOL0     H92981   5.887  10.643   8.609 -1.2156 -0.5890  0.7565
  689MOL0     H92982   5.994  10.587   8.479  0.7261  3.2920  1.3843
  689MOL0     H92983   5.838  10.622   8.317  2.4314 -2.3019  1.3211
  689MOL0     H92984   5.714  10.680   8.431  0.6674  2.1920  1.7531
  689MOL0     H92985   5.983  10.815   8.426 -0.0211 -0.8922  0.5289
  689MOL0     H92986   5.832  10.875   8.495  1.7502  0.0829  1.0512
  689MOL0     H92987   5.907  10.828   8.193 -0.0310  0.3965 -0.3529
  689MOL0     H92988   5.747  10.885   8.245  0.2046  0.6082 -1.8031
  689MOL0     H92989   5.835  11.085   8.365  1.5832  0.6721  0.0500
  689MOL0     H92990   5.846  11.069   8.193 -2.2310 -1.2034  0.1287
  689MOL0     H92991   6.042  11.163   8.278 -0.9531  0.0682 -0.8387
  689MOL0     H92992   6.061  11.028   8.397 -2.2389 -1.7265  0.3307
  689MOL0     H92993   6.049  10.971   8.089 -1.3896  0.0600  0.9887
  689MOL0     H92994   6.140  10.878   8.199 -0.0197 -0.7094 -2.1532
  689MOL0     H92995   6.179  11.153   8.110  0.6098 -0.8762 -3.9026
  689MOL0     H92996   6.283  11.019   8.066  3.1784 -1.1319  1.9623
  689MOL0     H92997   5.889  10.379   8.779 -0.3530 -1.4428  1.5792
  689MOL0     H92998   6.050  10.193   8.841  0.3243 -2.6087 -0.7718
  689MOL0     H92999   6.277   9.798   8.709 -2.7012  0.4572  5.2461
  689MOL0     H93000   6.402   9.645   8.865 -1.3836  0.9205 -1.0645
  689MOL0     H93001   6.669   8.319   8.524  0.6517  1.2170 -0.7064
  689MOL0     H93002   6.454   8.322   8.621  0.1494  0.5711 -0.7873
  689MOL0     H93003   6.132   8.741   8.982  1.7662 -0.8922 -0.1235
  689MOL0     H93004   5.918   8.687   9.080 -3.2810 -2.1039  0.4996
  689MOL0     H93005   5.749   8.614   9.205 -1.6615  0.8705 -0.1415
  689MOL0     H93006   5.691   8.656   9.051  0.0930  0.3692 -1.5383
  689MOL0     H93007   5.509   8.487   9.070 -2.0935  1.2861  0.2796
  689MOL0     H93008   5.513   8.601   9.209 -1.4014 -1.4408  1.0579
  689MOL0     H93009   5.622   8.430   9.353 -2.8877  1.6992  1.7434
  689MOL0     H93010   5.588   8.316   9.210 -3.6356 -0.6630 -0.8057
  689MOL0     H93011   5.414   8.294   9.399  0.2579 -1.0059 -0.7090
  689MOL0     H93012   5.344   8.324   9.240 -2.6407  1.6341  2.5265
  689MOL0     H93013   5.191   8.653   9.427  2.6037  3.0607 -0.4311
  689MOL0     H93014   5.944   8.279   8.953  1.0346 -0.3989 -2.8918
  689MOL0     H93015   6.163   8.319   8.881  0.3945  0.9573 -0.8737
  690MOL0     O93016   6.551   2.962   4.827  0.3803  0.6929  0.0784
  690MOL0     C93017   6.608   2.852   4.813  0.5797  0.1580 -0.0287
  690MOL0     O93018   6.544   2.731   4.840 -0.3125 -0.5499 -0.5501
  690MOL0     C93019   6.410   2.734   4.889 -0.7338 -0.8430 -0.6285
  690MOL0     C93020   6.300   2.779   4.814  0.0919 -0.0319  0.4511
  690MOL0     C93021   6.166   2.786   4.864 -0.7052  0.2277 -0.0938
  690MOL0     C93022   6.147   2.762   5.003  0.0441  0.5116 -0.4492
  690MOL0     O93023   6.031   2.790   5.067  0.4781 -0.3767  0.8603
  690MOL0     C93024   5.903   2.811   4.998 -0.2230 -0.3804  0.2368
  690MOL0     C93025   5.787   2.836   5.097  0.6108 -0.7245  0.2034
  690MOL0     C93026   5.723   2.704   5.139 -0.4486  0.3383 -0.1592
  690MOL0     C93027   5.581   2.710   5.201  0.7047  0.5064  0.3296
  690MOL0     C93028   5.543   2.580   5.272  0.0231  0.0358  0.4211
  690MOL0     C93029   5.402   2.588   5.339  0.2891 -0.2863  0.3272
  690MOL0     C93030   5.287   2.579   5.235 -0.3883 -0.2217 -0.5228
  690MOL0     C93031   5.309   2.482   5.119  0.0345 -0.8670 -0.1393
  690MOL0     N93032   5.180   2.458   5.050 -0.3540  0.6699 -0.1884
  690MOL0     C93033   5.103   2.351   5.053  0.5095 -0.0340  0.5670
  690MOL0     C93034   5.003   2.379   4.963  0.7137 -0.9084  0.2622
  690MOL0     C93035   4.891   2.290   4.922  0.7673 -1.1062  0.0607
  690MOL0     C93036   4.760   2.326   4.994 -0.0170 -0.1710  0.3991
  690MOL0     C93037   4.662   2.225   4.946  0.1126  0.0835  0.3712
  690MOL0     C93038   4.573   2.266   4.834 -0.1907 -0.0617  0.6538
  690MOL0     O93039   4.506   2.160   4.766 -0.8673  0.2108 -0.8754
  690MOL0     C93040   4.366   2.157   4.793  0.0248  0.4881  1.2241
  690MOL0     C93041   4.305   2.028   4.804  0.1361  0.4744  0.8012
  690MOL0     C93042   4.172   2.011   4.822 -0.4069 -0.0825 -0.0782
  690MOL0     C93043   4.123   1.866   4.848  0.3465 -0.5378 -0.0284
  690MOL0     C93044   4.081   2.114   4.812 -0.4172  0.1898 -0.0613
  690MOL0     C93045   3.935   2.090   4.839  0.2493  0.2511 -0.0282
  690MOL0     O93046   3.865   1.994   4.777  0.1618 -0.4839 -0.0881
  690MOL0     C93047   3.738   1.979   4.822 -0.3387 -0.0927 -0.0866
  690MOL0     C93048   3.631   2.058   4.777 -0.3152 -0.0698  0.0546
  690MOL0     C93049   3.498   2.041   4.827  0.1869  0.2319 -0.9774
  690MOL0     C93050   3.469   1.935   4.919  0.1006  1.1419 -0.4427
  690MOL0     O93051   3.348   1.907   4.982 -0.5078  0.0750  0.4980
  690MOL0     C93052   3.229   1.983   4.938 -0.3421 -0.0403  0.0298
  690MOL0     C93053   3.129   1.887   4.986  0.3493  0.2259 -1.0069
  690MOL0     C93054   2.983   1.929   4.943 -0.6673  0.8004  0.3920
  690MOL0     C93055   2.885   1.816   4.941 -0.1484 -0.6490  0.7677
  690MOL0     C93056   2.732   1.845   4.918  0.0091 -0.7570 -0.5987
  690MOL0     C93057   2.686   1.965   5.005 -0.0101 -0.6311 -0.0964
  690MOL0     C93058   2.528   1.968   5.015 -0.9203 -0.1721  0.0596
  690MOL0     C93059   2.481   2.074   5.115  0.1881 -0.4568  0.0978
  690MOL0    Cl93060   2.524   2.044   5.293 -0.0166 -0.0926 -0.1416
  690MOL0     C93061   3.578   1.853   4.956 -0.0268  0.1495 -0.6383
  690MOL0     C93062   3.713   1.879   4.913 -0.8077  0.5098  0.0535
  690MOL0     O93063   3.880   2.190   4.895  0.0384  1.1631 -0.6659
  690MOL0     C93064   4.136   2.236   4.772  0.6233  0.5065  0.2451
  690MOL0     C93065   4.281   2.263   4.770  0.5277  0.1206 -0.7646
  690MOL0     N93066   5.024   2.507   4.911  1.2697 -0.0083 -0.2889
  690MOL0     N93067   5.135   2.544   4.959 -0.2890  0.9552  0.0215
  690MOL0     C93068   6.255   2.713   5.078 -0.0809 -0.2440 -0.9346
  690MOL0     C93069   6.385   2.700   5.022 -0.4677  0.4926  0.0789
  690MOL0     C93070   6.748   2.862   4.763 -0.2730  0.3803 -0.2516
  690MOL0     C93071   6.814   2.743   4.733 -0.1628 -0.3795 -0.5702
  690MOL0     C93072   6.937   2.752   4.683 -0.0432  0.6795  0.6063
  690MOL0     C93073   7.013   2.871   4.664  0.5002  0.9013 -0.0907
  690MOL0     O93074   7.148   2.868   4.629  1.4734  0.2205  0.1413
  690MOL0     C93075   7.217   2.987   4.656 -0.0361  0.3553  0.1858
  690MOL0     C93076   7.366   2.955   4.651 -0.5457 -0.0403 -0.4489
  690MOL0     C93077   7.422   2.930   4.513  0.8673  0.2354 -0.3593
  690MOL0     C93078   7.576   2.916   4.540 -0.0204  0.7838  0.1375
  690MOL0     C93079   7.638   2.891   4.408  0.6838  1.5751  0.0201
  690MOL0     C93080   7.685   2.879   4.289 -0.0641 -0.3409 -0.0477
  690MOL0     C93081   6.943   2.986   4.689  0.3987 -0.7610  0.8914
  690MOL0     C93082   6.818   2.985   4.747  0.5324  0.2064  0.1072
  690MOL0     H93083   6.314   2.793   4.707  5.3534 -0.1621  0.8485
  690MOL0     H93084   6.083   2.809   4.797 -1.1793 -4.0151 -1.2622
  690MOL0     H93085   5.896   2.892   4.925 -4.2523  1.4116  2.3082
  690MOL0     H93086   5.890   2.711   4.955 -0.2780 -0.9077  1.4355
  690MOL0     H93087   5.828   2.885   5.185 -0.0479 -1.8469  1.1654
  690MOL0     H93088   5.704   2.891   5.051 -1.1941 -2.9029  0.6934
  690MOL0     H93089   5.702   2.647   5.048 -3.3767  1.4867 -0.3181
  690MOL0     H93090   5.790   2.650   5.206 -0.5045  1.0488  0.4813
  690MOL0     H93091   5.569   2.787   5.278 -0.4747  0.9346 -0.2636
  690MOL0     H93092   5.503   2.721   5.125 -2.0138  0.2015  2.9022
  690MOL0     H93093   5.550   2.498   5.200 -0.6419  0.0746  0.3049
  690MOL0     H93094   5.618   2.552   5.347 -0.1804 -1.7580  0.0057
  690MOL0     H93095   5.392   2.505   5.409  2.4643  0.1856  1.2929
  690MOL0     H93096   5.393   2.686   5.386  6.1748  0.9839 -0.3156
  690MOL0     H93097   5.194   2.544   5.282  0.7169 -2.0716  0.3692
  690MOL0     H93098   5.264   2.679   5.197 -0.9970 -0.0620  0.2362
  690MOL0     H93099   5.348   2.388   5.158 -1.5942 -0.9095  1.5604
  690MOL0     H93100   5.376   2.526   5.045 -2.0020  3.6797  0.3669
  690MOL0     H93101   5.110   2.252   5.096  0.6502 -0.1819  0.2096
  690MOL0     H93102   4.884   2.290   4.813 -0.4164  3.2947 -0.0563
  690MOL0     H93103   4.925   2.196   4.965  1.3917 -0.7187  0.4421
  690MOL0     H93104   4.730   2.429   4.972 -2.2298 -0.7664  0.4435
  690MOL0     H93105   4.779   2.313   5.101  1.5111 -1.1124  0.0524
  690MOL0     H93106   4.595   2.179   5.020  1.2179 -0.5008  1.0437
  690MOL0     H93107   4.714   2.141   4.898 -2.3935  0.3043 -3.1546
  690MOL0     H93108   4.628   2.328   4.763 -1.1703 -0.3207 -0.3634
  690MOL0     H93109   4.504   2.335   4.885  0.4977  0.1866  1.2638
  690MOL0     H93110   4.365   1.938   4.811 -0.8113 -0.4551 -1.8611
  690MOL0     H93111   4.060   1.837   4.764  1.2111 -1.0098 -0.5297
  690MOL0     H93112   4.201   1.789   4.842 -0.0444 -0.8818 -0.7766
  690MOL0     H93113   4.062   1.860   4.938  1.7197 -0.2253  0.9588
  690MOL0     H93114   3.651   2.133   4.701  0.8684 -1.8901 -1.5044
  690MOL0     H93115   3.411   2.099   4.797 -0.6024  0.0751  0.8701
  690MOL0     H93116   3.211   2.084   4.976 -1.9386  0.0538 -0.8836
  690MOL0     H93117   3.218   1.991   4.829  2.7078 -3.1585 -0.6854
  690MOL0     H93118   3.140   1.789   4.939 -0.1764  0.8237 -2.4186
  690MOL0     H93119   3.127   1.873   5.095 -2.6482 -1.0353 -1.1159
  690MOL0     H93120   2.987   1.958   4.838 -0.8744  0.1441  0.2045
  690MOL0     H93121   2.958   2.013   5.010  0.6967  0.1247  1.8318
  690MOL0     H93122   2.913   1.751   4.857 -3.1942 -0.9171 -0.1478
  690MOL0     H93123   2.901   1.766   5.037 -1.0396 -3.8322 -0.6081
  690MOL0     H93124   2.678   1.762   4.964 -1.6674  1.0750  0.8927
  690MOL0     H93125   2.700   1.864   4.815  3.1620  0.3782 -1.5028
  690MOL0     H93126   2.716   1.941   5.107  1.6945  1.6132  0.0062
  690MOL0     H93127   2.736   2.055   4.968 -2.2326 -0.7619 -3.8616
  690MOL0     H93128   2.502   1.866   5.044  2.6163 -1.3479 -0.3820
  690MOL0     H93129   2.488   1.990   4.916 -0.0071 -5.4345 -1.7862
  690MOL0     H93130   2.372   2.083   5.112  0.3811  2.7294 -1.7351
  690MOL0     H93131   2.504   2.178   5.089 -1.2003 -0.2199 -0.2989
  690MOL0     H93132   3.571   1.762   5.015 -1.1820  0.7973  0.2706
  690MOL0     H93133   3.790   1.812   4.948 -1.8024 -0.3548  0.6571
  690MOL0     H93134   4.069   2.316   4.745 -0.4188 -0.0424  1.1128
  690MOL0     H93135   4.319   2.357   4.732 -1.7639  1.0668 -0.8904
  690MOL0     H93136   6.233   2.676   5.178  0.4165  0.0488 -0.7136
  690MOL0     H93137   6.469   2.660   5.078  0.5817 -1.0553 -2.4438
  690MOL0     H93138   6.773   2.650   4.771 -0.3791  0.5688  1.6751
  690MOL0     H93139   6.988   2.662   4.650 -0.1048  0.4686  1.0758
  690MOL0     H93140   7.207   3.063   4.578 -0.5825 -0.5891 -0.6757
  690MOL0     H93141   7.188   3.044   4.745 -2.1749 -0.0879 -0.1789
  690MOL0     H93142   7.385   2.867   4.714 -0.4323  1.2087  1.3201
  690MOL0     H93143   7.415   3.035   4.706 -1.7023 -0.2093  0.8903
  690MOL0     H93144   7.407   3.024   4.459  1.7884  1.2604  1.0954
  690MOL0     H93145   7.377   2.844   4.464  0.3533  2.0130 -3.2625
  690MOL0     H93146   7.598   2.828   4.602 -0.1824 -0.1047 -1.0343
  690MOL0     H93147   7.621   3.009   4.577  3.5502 -0.4762 -0.6238
  690MOL0     H93148   7.710   2.851   4.189  1.7492 -0.6917  0.4766
  690MOL0     H93149   6.975   3.090   4.685 -1.4978 -0.1637 -0.2383
  690MOL0     H93150   6.762   3.077   4.760 -1.3953 -0.9759  0.5867
  691MOL0     O93151   6.203   2.694   7.665 -0.1057  0.0459 -0.4796
  691MOL0     C93152   6.212   2.623   7.569 -0.8116  0.5836 -0.0939
  691MOL0     O93153   6.317   2.616   7.492 -0.7854 -0.1344 -0.3252
  691MOL0     C93154   6.436   2.673   7.530  0.5695  0.3138 -0.8729
  691MOL0     C93155   6.508   2.651   7.645  0.8408  0.7975 -0.2349
  691MOL0     C93156   6.631   2.704   7.669  0.0045  0.4553  1.3717
  691MOL0     C93157   6.688   2.805   7.587 -0.0636  0.6384  1.1425
  691MOL0     O93158   6.804   2.856   7.630  0.1313  0.6277  0.5467
  691MOL0     C93159   6.890   2.911   7.535 -0.7083 -0.9967  0.5833
  691MOL0     C93160   6.866   3.060   7.506  0.3137  0.1145  0.2660
  691MOL0     C93161   6.948   3.121   7.388 -0.7191 -0.6642 -0.7685
  691MOL0     C93162   7.100   3.129   7.420 -1.1897 -0.3176  0.8429
  691MOL0     C93163   7.175   3.191   7.305  0.0225 -0.4168  0.0400
  691MOL0     C93164   7.317   3.230   7.363 -0.5197 -0.8514 -0.1525
  691MOL0     C93165   7.413   3.274   7.249  1.0755  0.4519 -0.5336
  691MOL0     C93166   7.561   3.280   7.287 -0.1653 -0.7898  0.5404
  691MOL0     N93167   7.611   3.401   7.357 -0.0583  0.0506 -1.2575
  691MOL0     C93168   7.677   3.497   7.288  0.4846  0.4308  0.5839
  691MOL0     C93169   7.761   3.558   7.365 -0.0434 -0.3292  0.8517
  691MOL0     C93170   7.853   3.670   7.316 -0.4115 -0.1086  0.3176
  691MOL0     C93171   7.761   3.789   7.315 -0.2216  0.4586  0.0419
  691MOL0     C93172   7.840   3.922   7.295 -0.2151  0.5905 -0.2459
  691MOL0     C93173   7.738   4.028   7.252 -1.0598 -0.8170 -0.0887
  691MOL0     O93174   7.641   4.051   7.355 -0.2765  0.3960 -0.9467
  691MOL0     C93175   7.523   4.113   7.328 -0.0428 -0.5862 -0.1174
  691MOL0     C93176   7.495   4.171   7.204  0.2670  0.1069 -0.1740
  691MOL0     C93177   7.370   4.219   7.168  0.8356  0.3635 -0.1389
  691MOL0     C93178   7.359   4.290   7.040 -0.3042  0.2778  0.3305
  691MOL0     C93179   7.262   4.211   7.266  0.9486 -0.4070  0.7051
  691MOL0     C93180   7.120   4.256   7.245 -0.8094 -0.1111 -0.5872
  691MOL0     O93181   7.038   4.261   7.357 -0.1264  0.6440  0.2681
  691MOL0     C93182   6.901   4.298   7.348 -0.2792  0.3293 -0.6227
  691MOL0     C93183   6.816   4.257   7.244 -0.5094  0.7720 -0.5367
  691MOL0     C93184   6.684   4.285   7.258  0.1268  0.8191  0.2875
  691MOL0     C93185   6.629   4.342   7.375  0.3617 -1.2102 -0.7450
  691MOL0     O93186   6.490   4.349   7.365  0.4806 -0.4362 -0.6319
  691MOL0     C93187   6.415   4.349   7.486 -0.5902  0.3922  0.4141
  691MOL0     C93188   6.269   4.341   7.462  1.3315  0.0806  0.4662
  691MOL0     C93189   6.209   4.439   7.367  0.5497 -0.6082 -0.4526
  691MOL0     C93190   6.051   4.438   7.375  0.2594  0.9187 -1.0609
  691MOL0     C93191   5.993   4.545   7.287  0.0901 -0.3448 -0.1315
  691MOL0     C93192   5.849   4.565   7.324  0.2126  0.2558  0.5671
  691MOL0     C93193   5.776   4.646   7.226 -0.5573 -0.0212  1.2994
  691MOL0     C93194   5.629   4.622   7.248  0.4590 -0.1257  0.5834
  691MOL0    Cl93195   5.570   4.727   7.381 -0.1729 -0.1105 -0.3606
  691MOL0     C93196   6.709   4.384   7.484  0.2673 -0.6638 -0.2632
  691MOL0     C93197   6.850   4.368   7.465 -0.1701  0.2390 -0.0363
  691MOL0     O93198   7.085   4.272   7.131 -0.1745  0.2309  0.5681
  691MOL0     C93199   7.292   4.147   7.384 -0.4698  0.3475  0.3788
  691MOL0     C93200   7.419   4.091   7.419 -0.1218 -0.4164  0.1940
  691MOL0     N93201   7.764   3.489   7.484  0.6268 -0.7388  1.3537
  691MOL0     N93202   7.669   3.402   7.487  0.4300 -0.4826  1.1161
  691MOL0     C93203   6.623   2.828   7.465  1.2262  0.9830 -0.1147
  691MOL0     C93204   6.496   2.761   7.442  0.0129  0.2126  0.0433
  691MOL0     C93205   6.088   2.546   7.531 -0.0368  0.9332  0.3303
  691MOL0     C93206   6.000   2.512   7.629  0.2853  0.9330  0.0507
  691MOL0     C93207   5.893   2.429   7.605  0.2053 -0.0518  1.0539
  691MOL0     C93208   5.874   2.371   7.475  0.9315 -0.6836  0.1751
  691MOL0     O93209   5.774   2.277   7.455  0.2875 -0.6985 -0.3007
  691MOL0     C93210   5.694   2.233   7.561  0.2842 -0.3048 -0.3067
  691MOL0     C93211   5.588   2.131   7.506 -0.9320 -0.3032 -0.6274
  691MOL0     C93212   5.486   2.193   7.404  0.8209 -0.6169  0.4651
  691MOL0     C93213   5.380   2.089   7.356  0.2540 -0.1998  0.5330
  691MOL0     C93214   5.438   1.991   7.257  0.4201 -0.3459 -0.4004
  691MOL0     C93215   5.502   1.924   7.185 -0.5926  0.7790  0.0586
  691MOL0     C93216   5.967   2.398   7.379  0.3421  0.6816  0.0371
  691MOL0     C93217   6.077   2.484   7.407 -0.4519  0.5499  0.5141
  691MOL0     H93218   6.466   2.581   7.716  2.0429 -1.4111 -1.5886
  691MOL0     H93219   6.679   2.681   7.763 -3.5534 -1.1501  3.0021
  691MOL0     H93220   6.990   2.910   7.579 -1.2129 -0.5336  1.8133
  691MOL0     H93221   6.886   2.866   7.435  0.7116  2.2157 -1.0541
  691MOL0     H93222   6.762   3.073   7.475  1.0687 -1.1303 -3.3121
  691MOL0     H93223   6.890   3.111   7.600  1.3142  1.1700 -0.5453
  691MOL0     H93224   6.929   3.067   7.295  0.6258 -0.0371 -1.4338
  691MOL0     H93225   6.909   3.222   7.379  0.5272  0.0598  1.3749
  691MOL0     H93226   7.120   3.192   7.507  0.0702  0.7719 -0.1918
  691MOL0     H93227   7.132   3.029   7.449 -0.5080 -0.1824  0.5692
  691MOL0     H93228   7.161   3.122   7.221  0.9161 -0.7911  0.1872
  691MOL0     H93229   7.127   3.286   7.277 -0.8044 -1.5942 -2.9352
  691MOL0     H93230   7.301   3.306   7.440  1.6019  0.1368 -0.6205
  691MOL0     H93231   7.369   3.148   7.412  2.0695  0.0624 -1.2068
  691MOL0     H93232   7.405   3.198   7.170  2.6230  0.5189 -0.7890
  691MOL0     H93233   7.383   3.372   7.211 -0.3805  1.1428  2.1554
  691MOL0     H93234   7.621   3.268   7.196  0.9862  2.5640  0.7027
  691MOL0     H93235   7.590   3.192   7.346  1.4384 -1.7805 -1.6029
  691MOL0     H93236   7.665   3.516   7.181  0.2383 -0.5090  0.4405
  691MOL0     H93237   7.947   3.680   7.373  0.0777 -2.9561  0.1330
  691MOL0     H93238   7.884   3.658   7.212 -0.6029  3.9713 -0.3618
  691MOL0     H93239   7.705   3.793   7.409  3.9950  0.9841  2.8666
  691MOL0     H93240   7.697   3.760   7.232  0.6027 -0.7381 -0.1988
  691MOL0     H93241   7.921   3.919   7.221  0.5806 -2.6386  0.6155
  691MOL0     H93242   7.882   3.951   7.392 -0.0101  2.3288 -0.8075
  691MOL0     H93243   7.701   3.982   7.160  0.6882 -0.6819 -0.9034
  691MOL0     H93244   7.781   4.126   7.229 -1.5441 -0.4437  0.5678
  691MOL0     H93245   7.571   4.163   7.127  1.0647  0.9006  0.5134
  691MOL0     H93246   7.457   4.309   6.995 -1.0211  1.4457 -0.8164
  691MOL0     H93247   7.308   4.229   6.964 -0.5328 -2.2744  2.4014
  691MOL0     H93248   7.317   4.389   7.060 -2.8169 -0.5926 -0.2749
  691MOL0     H93249   6.859   4.208   7.157  1.4438 -3.3846  2.4134
  691MOL0     H93250   6.618   4.254   7.178  1.4341  0.9553 -0.8848
  691MOL0     H93251   6.446   4.276   7.561  1.2468  3.8146  3.3114
  691MOL0     H93252   6.433   4.444   7.537  2.1586  0.1249  0.1069
  691MOL0     H93253   6.242   4.239   7.433  1.6961  0.1479 -0.1312
  691MOL0     H93254   6.221   4.358   7.559 -4.7723  0.3303 -2.0850
  691MOL0     H93255   6.232   4.421   7.261 -0.7730 -0.9617 -0.7021
  691MOL0     H93256   6.240   4.540   7.392  0.6847 -0.9146  0.6666
  691MOL0     H93257   6.007   4.340   7.356  2.1140 -0.5316  1.4457
  691MOL0     H93258   6.024   4.464   7.478  1.1494  1.8082 -1.0278
  691MOL0     H93259   6.009   4.529   7.180 -1.3860  2.5856 -0.9048
  691MOL0     H93260   6.039   4.643   7.302  4.5711 -1.7391 -2.9060
  691MOL0     H93261   5.813   4.462   7.310 -1.3887  1.0465 -1.6069
  691MOL0     H93262   5.836   4.604   7.426  1.8654 -0.3325  1.0392
  691MOL0     H93263   5.810   4.604   7.131 -0.3276 -2.5681  2.4117
  691MOL0     H93264   5.798   4.752   7.241  3.0767  0.0648 -2.5991
  691MOL0     H93265   5.610   4.517   7.274  0.4326 -0.2634  0.0149
  691MOL0     H93266   5.585   4.635   7.149  2.1205  1.6428  0.0074
  691MOL0     H93267   6.679   4.446   7.568 -1.2874  1.2064 -2.0569
  691MOL0     H93268   6.914   4.394   7.548  0.4123  1.3268 -0.7989
  691MOL0     H93269   7.233   4.114   7.469  2.3504 -5.7223  0.4614
  691MOL0     H93270   7.438   4.043   7.515  0.7413  0.2428  0.3666
  691MOL0     H93271   6.655   2.907   7.397  0.6240  1.5965  0.3073
  691MOL0     H93272   6.452   2.801   7.351  2.9901  0.4636 -1.4304
  691MOL0     H93273   6.005   2.565   7.723  0.4955  2.3675 -0.7362
  691MOL0     H93274   5.834   2.403   7.693 -1.7970 -3.1929 -1.0063
  691MOL0     H93275   5.754   2.181   7.637  1.4116 -2.6463 -2.6065
  691MOL0     H93276   5.651   2.321   7.608 -3.1480 -1.8925 -0.2144
  691MOL0     H93277   5.522   2.102   7.588 -0.2595  4.0575  1.7752
  691MOL0     H93278   5.638   2.044   7.463  1.0476 -0.9630  2.6690
  691MOL0     H93279   5.528   2.239   7.314 -2.7666  1.9471 -0.0947
  691MOL0     H93280   5.436   2.274   7.458 -0.2171 -1.4399  0.7704
  691MOL0     H93281   5.298   2.146   7.311 -0.0150  2.2620  3.7829
  691MOL0     H93282   5.335   2.040   7.443 -3.6137 -0.1923 -1.2249
  691MOL0     H93283   5.545   1.858   7.113 -1.6048  2.4578 -2.2297
  691MOL0     H93284   5.951   2.344   7.286  0.1679 -0.0398  0.4790
  691MOL0     H93285   6.163   2.495   7.342  0.5011  1.2035  1.8289
  692MOL0     O93286   4.173   7.265   2.588 -0.1233  0.1867  0.4621
  692MOL0     C93287   4.060   7.244   2.632  0.0500  0.7338  0.6385
  692MOL0     O93288   3.949   7.313   2.602  0.1751  0.1042  0.0252
  692MOL0     C93289   3.960   7.420   2.523  0.3101  0.3247  0.4576
  692MOL0     C93290   3.850   7.454   2.435  0.3133 -1.1208  0.0529
  692MOL0     C93291   3.844   7.589   2.389 -0.2497  0.6931  0.4105
  692MOL0     C93292   3.935   7.688   2.421 -0.7701 -0.2151 -0.7169
  692MOL0     O93293   3.926   7.814   2.385  0.6427  0.0730  0.1424
  692MOL0     C93294   3.897   7.905   2.489 -0.1340 -0.1785  0.2240
  692MOL0     C93295   3.789   8.005   2.446  0.7006  0.8329 -0.1406
  692MOL0     C93296   3.826   8.102   2.340 -0.0241 -0.0411  0.1813
  692MOL0     C93297   3.700   8.191   2.303 -0.3143  1.0115  0.2584
  692MOL0     C93298   3.577   8.113   2.247 -0.0333  0.3656  0.0726
  692MOL0     C93299   3.603   7.995   2.156 -0.0470  0.6095  1.3048
  692MOL0     C93300   3.470   7.945   2.102 -0.3110  0.3280 -0.5887
  692MOL0     C93301   3.486   7.812   2.022 -0.3122  0.1063  0.0668
  692MOL0     N93302   3.507   7.689   2.091 -0.3326  0.5403  0.2682
  692MOL0     C93303   3.420   7.641   2.195  0.3560  0.0408 -0.0668
  692MOL0     C93304   3.461   7.511   2.215  0.1462  0.4364  0.5364
  692MOL0     C93305   3.416   7.412   2.318 -0.1060 -0.1998  0.3633
  692MOL0     C93306   3.284   7.370   2.290 -0.3241  0.6181  0.0838
  692MOL0     C93307   3.203   7.271   2.381 -0.2022 -0.0972  0.4834
  692MOL0     C93308   3.064   7.241   2.327  0.4697  0.6431 -0.0264
  692MOL0     O93309   3.006   7.120   2.374 -0.6294 -0.0554  0.4196
  692MOL0     C93310   2.889   7.087   2.309  0.3701 -0.2651  0.1793
  692MOL0     C93311   2.835   6.955   2.315  0.4311  0.4385  0.1393
  692MOL0     C93312   2.722   6.911   2.246  0.3332  0.3263 -0.0611
  692MOL0     C93313   2.689   6.763   2.258 -0.7898 -0.8725 -0.2790
  692MOL0     C93314   2.636   7.003   2.172 -0.0181 -0.6700 -0.1733
  692MOL0     C93315   2.521   6.957   2.098 -0.6643  0.3536 -0.4755
  692MOL0     O93316   2.489   7.033   1.982  0.8253 -0.4016 -0.0931
  692MOL0     C93317   2.440   6.960   1.877  0.2165  0.3565 -0.0246
  692MOL0     C93318   2.502   6.848   1.826 -0.7516 -0.6279  0.1803
  692MOL0     C93319   2.436   6.768   1.736 -0.4535 -0.6930 -0.9236
  692MOL0     C93320   2.301   6.783   1.703  0.0575 -0.6844  0.2916
  692MOL0     O93321   2.251   6.684   1.619  0.8091 -1.0365  0.0642
  692MOL0     C93322   2.120   6.710   1.561 -0.4381 -0.1106 -0.5190
  692MOL0     C93323   2.073   6.576   1.513  0.9988 -0.5592 -0.0789
  692MOL0     C93324   1.927   6.587   1.461  0.8974  0.6887  0.3645
  692MOL0     C93325   1.822   6.568   1.578  0.6968  0.9431  0.4829
  692MOL0     C93326   1.687   6.599   1.526  0.1741 -0.0412 -0.0790
  692MOL0     C93327   1.623   6.476   1.466  0.0017  0.6487  0.0593
  692MOL0     C93328   1.487   6.517   1.395  0.3573 -0.2487 -1.5770
  692MOL0     C93329   1.398   6.404   1.339  0.5348  0.7581 -0.7762
  692MOL0    Cl93330   1.353   6.295   1.469  0.1012 -0.3504  0.0451
  692MOL0     C93331   2.234   6.891   1.759  0.0216 -0.4467 -0.0640
  692MOL0     C93332   2.307   6.982   1.839 -0.5674  1.3103 -0.3368
  692MOL0     O93333   2.467   6.847   2.119 -0.5394  0.2531 -0.5151
  692MOL0     C93334   2.695   7.130   2.166  0.4669  0.6091 -0.6179
  692MOL0     C93335   2.813   7.175   2.232  0.6806 -0.6517 -0.0108
  692MOL0     N93336   3.564   7.485   2.124  0.2595 -0.1639  0.2513
  692MOL0     N93337   3.580   7.582   2.045  1.0223  0.2319 -0.2218
  692MOL0     C93338   4.036   7.653   2.513 -0.8386 -1.0195 -0.5083
  692MOL0     C93339   4.054   7.523   2.567  0.2712 -0.4200  0.3235
  692MOL0     C93340   4.035   7.119   2.702 -0.3004  0.2744 -0.7113
  692MOL0     C93341   3.902   7.080   2.730 -0.0404  0.3396 -0.8069
  692MOL0     C93342   3.875   6.970   2.815  0.7368  0.0554 -1.0406
  692MOL0     C93343   3.976   6.891   2.867 -0.3096  0.4988 -0.7879
  692MOL0     O93344   3.953   6.775   2.943  1.0864 -0.4898 -0.2488
  692MOL0     C93345   4.061   6.693   2.998  0.3141 -1.1070  0.3612
  692MOL0     C93346   4.023   6.550   3.032  0.3301 -0.7258  0.5485
  692MOL0     C93347   3.912   6.554   3.139  0.6373  0.1819 -0.3054
  692MOL0     C93348   3.891   6.412   3.181  0.3998  0.9457  0.3646
  692MOL0     C93349   3.744   6.397   3.225  0.3552  0.4369  0.1603
  692MOL0     C93350   3.626   6.389   3.256 -0.0040  0.9632  0.1185
  692MOL0     C93351   4.110   6.933   2.844  0.0285 -1.5207  0.1061
  692MOL0     C93352   4.139   7.042   2.762 -0.2451  0.2841 -0.3224
  692MOL0     H93353   3.774   7.382   2.408  1.2586 -1.4324 -2.0320
  692MOL0     H93354   3.763   7.621   2.324  0.2367 -1.7470 -1.5446
  692MOL0     H93355   3.859   7.853   2.578  0.8939 -0.1797  0.6865
  692MOL0     H93356   3.980   7.969   2.520 -1.1338  0.4584  1.7388
  692MOL0     H93357   3.714   7.934   2.411  1.0202 -0.2724  1.2865
  692MOL0     H93358   3.750   8.068   2.526 -0.3833  1.7132 -1.3308
  692MOL0     H93359   3.901   8.172   2.379 -2.7952  2.7737  0.8873
  692MOL0     H93360   3.845   8.059   2.242 -0.8363  0.1081 -0.0468
  692MOL0     H93361   3.666   8.258   2.382 -1.9544 -1.1902  1.5269
  692MOL0     H93362   3.728   8.259   2.222 -0.1444 -0.4684 -0.9780
  692MOL0     H93363   3.510   8.075   2.325  0.0621  1.6041  0.7863
  692MOL0     H93364   3.518   8.189   2.193  3.2027  2.2547 -1.0744
  692MOL0     H93365   3.670   8.011   2.071 -0.0146 -0.1688  1.1751
  692MOL0     H93366   3.653   7.913   2.208  1.4451 -0.7335 -1.9572
  692MOL0     H93367   3.393   7.925   2.177 -2.0183  4.0487 -1.0875
  692MOL0     H93368   3.441   8.022   2.029 -0.2261  0.3688 -0.5801
  692MOL0     H93369   3.575   7.827   1.961  0.9480 -0.8454  1.6014
  692MOL0     H93370   3.401   7.795   1.954  0.1673 -0.3186 -0.4334
  692MOL0     H93371   3.346   7.690   2.257 -0.6552 -1.9865  0.4250
  692MOL0     H93372   3.487   7.328   2.317 -0.3939 -0.4440 -0.2142
  692MOL0     H93373   3.430   7.457   2.417 -0.2281 -0.8903  0.6969
  692MOL0     H93374   3.300   7.321   2.193  0.2441 -0.2416  0.5947
  692MOL0     H93375   3.229   7.462   2.272 -2.2606 -0.7207 -1.3824
  692MOL0     H93376   3.197   7.305   2.485  0.9387  0.7029  0.3033
  692MOL0     H93377   3.262   7.179   2.372 -0.8920 -0.3238 -3.2210
  692MOL0     H93378   3.076   7.231   2.219  0.9066  1.8931 -0.1047
  692MOL0     H93379   3.000   7.326   2.352 -0.5371  0.2523 -1.1442
  692MOL0     H93380   2.886   6.877   2.371 -1.3003 -0.2401  0.8470
  692MOL0     H93381   2.591   6.764   2.307 -1.0722 -0.6626 -0.8433
  692MOL0     H93382   2.675   6.720   2.159  1.8244  1.4176 -1.7760
  692MOL0     H93383   2.752   6.709   2.330 -1.4513 -0.2936  0.7621
  692MOL0     H93384   2.591   6.818   1.881 -0.7442  0.7851  1.0051
  692MOL0     H93385   2.492   6.686   1.693 -0.3070 -0.8952 -0.3518
  692MOL0     H93386   2.057   6.737   1.647 -0.6000 -0.9719 -0.3622
  692MOL0     H93387   2.116   6.787   1.484 -0.5146  1.6016  1.1156
  692MOL0     H93388   2.135   6.538   1.431 -1.5793 -1.6175 -1.6524
  692MOL0     H93389   2.071   6.509   1.599  2.5880  0.7244  0.9986
  692MOL0     H93390   1.904   6.496   1.404 -1.1184  0.8826  0.7859
  692MOL0     H93391   1.906   6.672   1.395 -2.4699  0.8243  1.4458
  692MOL0     H93392   1.822   6.475   1.634  1.8898 -1.0685 -2.5842
  692MOL0     H93393   1.841   6.642   1.656 -1.8704  1.6821  0.5127
  692MOL0     H93394   1.686   6.673   1.445  0.7095  2.1917  1.8534
  692MOL0     H93395   1.628   6.642   1.608  0.7704  0.7441 -0.0511
  692MOL0     H93396   1.691   6.455   1.383  2.4178  2.5400  1.4151
  692MOL0     H93397   1.608   6.385   1.525  0.8979  0.9157  0.7358
  692MOL0     H93398   1.507   6.583   1.310 -0.1674  4.8126  1.7693
  692MOL0     H93399   1.426   6.565   1.472  0.4559 -4.5458  1.5405
  692MOL0     H93400   1.434   6.349   1.252  0.2661  2.7881 -2.2452
  692MOL0     H93401   1.299   6.442   1.311  0.5869  0.1714 -1.7826
  692MOL0     H93402   2.126   6.901   1.751 -0.1261 -1.7574  0.1561
  692MOL0     H93403   2.252   7.062   1.887  0.7101  1.2441  1.3155
  692MOL0     H93404   2.636   7.209   2.123  0.2107  1.3823  1.0664
  692MOL0     H93405   2.840   7.280   2.222 -1.0615 -0.0519  1.1614
  692MOL0     H93406   4.087   7.736   2.560 -1.9069 -0.1566 -0.8335
  692MOL0     H93407   4.112   7.504   2.656 -2.0473 -2.5471  1.5076
  692MOL0     H93408   3.820   7.145   2.700  0.6269  0.6167 -2.1299
  692MOL0     H93409   3.770   6.948   2.832  0.7313  0.9712  0.2412
  692MOL0     H93410   4.131   6.677   2.916  2.0557  0.8010  1.3760
  692MOL0     H93411   4.107   6.744   3.084 -1.6870  0.8094  0.4008
  692MOL0     H93412   4.112   6.493   3.060  1.1569 -0.5104 -1.4623
  692MOL0     H93413   3.984   6.503   2.941 -1.5581  0.2189  0.8106
  692MOL0     H93414   3.820   6.604   3.107  0.5767  1.2650  1.4589
  692MOL0     H93415   3.950   6.610   3.225 -2.4591 -1.4244  2.2978
  692MOL0     H93416   3.958   6.389   3.265 -1.0889 -1.5558  0.9962
  692MOL0     H93417   3.917   6.341   3.102  1.8836  2.6656 -0.7659
  692MOL0     H93418   3.531   6.372   3.303  0.6854 -2.3549  0.5211
  692MOL0     H93419   4.193   6.874   2.882 -0.9033 -1.7531  1.8685
  692MOL0     H93420   4.239   7.072   2.732 -0.0550 -0.9339 -0.9934
  693MOL0     O93421   3.890   8.802   3.155  0.4231  0.1500 -0.0037
  693MOL0     C93422   3.929   8.747   3.048  0.7572  0.2819  0.4874
  693MOL0     O93423   3.854   8.682   2.965  0.0446 -0.0051  0.0286
  693MOL0     C93424   3.717   8.699   2.962  0.2247  0.6325  0.0717
  693MOL0     C93425   3.643   8.617   2.877 -0.7303  0.5676  1.1437
  693MOL0     C93426   3.504   8.627   2.853  0.2120 -1.0717 -0.5539
  693MOL0     C93427   3.429   8.729   2.907  0.0334 -0.6697  0.3825
  693MOL0     O93428   3.292   8.727   2.892 -0.3092  0.6503  1.1832
  693MOL0     C93429   3.231   8.858   2.884 -0.0040  0.9673  0.1734
  693MOL0     C93430   3.113   8.842   2.782  0.5874  0.5225  0.7410
  693MOL0     C93431   3.037   8.974   2.742  1.7925  0.6465  0.4890
  693MOL0     C93432   2.891   8.941   2.703  0.2347 -0.6824  0.6714
  693MOL0     C93433   2.901   8.858   2.573 -0.5882 -0.0180  0.6281
  693MOL0     C93434   2.754   8.833   2.510 -0.5812 -0.1638  0.4845
  693MOL0     C93435   2.638   8.826   2.609 -0.0717  0.2992  0.1217
  693MOL0     C93436   2.514   8.763   2.534 -0.7468  0.8714 -0.4989
  693MOL0     N93437   2.396   8.777   2.621 -0.0556  0.0184 -0.2504
  693MOL0     C93438   2.317   8.887   2.637 -0.7524  0.8791  0.6463
  693MOL0     C93439   2.245   8.864   2.748  0.1454 -0.8993  0.4721
  693MOL0     C93440   2.153   8.967   2.812 -0.1932  0.0444 -0.2421
  693MOL0     C93441   2.241   9.075   2.874  0.8363 -0.2734 -1.1935
  693MOL0     C93442   2.284   9.190   2.787  0.0443 -0.2022 -0.3702
  693MOL0     C93443   2.165   9.252   2.717  0.5966  0.5096 -0.3619
  693MOL0     O93444   2.110   9.198   2.594  0.0756  0.5777 -0.3430
  693MOL0     C93445   2.176   9.229   2.477 -0.2067 -0.4428  0.0774
  693MOL0     C93446   2.102   9.195   2.358 -0.1196  0.7987  0.0566
  693MOL0     C93447   2.148   9.235   2.224  0.6227 -0.3199 -0.5104
  693MOL0     C93448   2.056   9.198   2.107  0.0295  0.0894  0.6490
  693MOL0     C93449   2.278   9.292   2.215 -0.3562 -0.8447  1.1086
  693MOL0     C93450   2.344   9.322   2.090 -0.3138 -0.0867  0.5621
  693MOL0     O93451   2.280   9.275   1.975  0.1698  0.1998  0.0226
  693MOL0     C93452   2.327   9.323   1.857 -0.0678  1.0647  0.4746
  693MOL0     C93453   2.297   9.448   1.799  0.6432 -0.0417 -0.1005
  693MOL0     C93454   2.344   9.488   1.676  0.0968  0.9960 -0.6296
  693MOL0     C93455   2.421   9.401   1.595 -0.0086 -0.0082 -0.4616
  693MOL0     O93456   2.470   9.438   1.468  0.3229 -0.2399  0.3012
  693MOL0     C93457   2.506   9.575   1.460  0.1003 -0.3470  0.2119
  693MOL0     C93458   2.610   9.593   1.349  0.4384 -0.3044 -0.3662
  693MOL0     C93459   2.749   9.565   1.402 -1.2301 -0.9216  0.1629
  693MOL0     C93460   2.865   9.609   1.304 -0.1887 -0.4847 -1.4352
  693MOL0     C93461   3.005   9.560   1.348 -0.8294  1.0941 -0.2297
  693MOL0     C93462   3.008   9.412   1.308 -0.3821 -0.3314  0.4510
  693MOL0     C93463   3.151   9.352   1.310  0.3219 -0.4588  0.1483
  693MOL0     C93464   3.178   9.227   1.226 -0.7433 -0.5600  0.2003
  693MOL0    Cl93465   3.036   9.132   1.181  0.0351 -0.0164 -0.7846
  693MOL0     C93466   2.450   9.271   1.648 -0.6606  0.1415  0.3078
  693MOL0     C93467   2.399   9.231   1.770  0.6794 -0.1919 -0.4935
  693MOL0     O93468   2.442   9.388   2.095  0.1656  0.1833  0.5082
  693MOL0     C93469   2.354   9.320   2.337  0.2029 -0.1502 -0.4416
  693MOL0     C93470   2.301   9.289   2.459  0.1080 -0.0736 -0.0655
  693MOL0     N93471   2.254   8.734   2.783  0.1147 -0.1184 -0.2423
  693MOL0     N93472   2.351   8.686   2.713  0.1734  0.2979  0.3167
  693MOL0     C93473   3.503   8.823   2.984 -0.2134 -0.1338 -1.5601
  693MOL0     C93474   3.639   8.799   3.022 -0.4068  0.2514 -0.1883
  693MOL0     C93475   4.072   8.750   3.016 -0.5043 -0.3861  0.6174
  693MOL0     C93476   4.122   8.684   2.902 -0.5063  0.3187 -0.0599
  693MOL0     C93477   4.258   8.695   2.855 -0.0118 -0.5776 -0.4004
  693MOL0     C93478   4.350   8.786   2.926  0.8503 -0.3351  0.0529
  693MOL0     O93479   4.474   8.811   2.879 -0.4224  0.6460  0.9655
  693MOL0     C93480   4.539   8.707   2.798 -0.4856 -0.7794 -0.1186
  693MOL0     C93481   4.585   8.576   2.869 -0.0718 -0.4775  0.1322
  693MOL0     C93482   4.672   8.585   2.995  0.5093  0.1175  0.1324
  693MOL0     C93483   4.805   8.666   2.978  0.7297 -0.1198 -0.5790
  693MOL0     C93484   4.908   8.620   2.889  0.5638  0.6850  0.0799
  693MOL0     C93485   4.981   8.584   2.795  0.4436  0.3028  0.0638
  693MOL0     C93486   4.300   8.839   3.043  0.3776  0.1304 -1.5158
  693MOL0     C93487   4.164   8.832   3.083  0.3790  0.2327 -0.3323
  693MOL0     H93488   3.694   8.534   2.829  0.6120  1.8277  0.2817
  693MOL0     H93489   3.456   8.546   2.799  1.6796 -0.1134 -3.5216
  693MOL0     H93490   3.206   8.886   2.986  0.7220  1.0149  0.3434
  693MOL0     H93491   3.301   8.928   2.837 -1.7975  2.9082  0.2484
  693MOL0     H93492   3.152   8.792   2.693  1.3623  2.9532 -0.3775
  693MOL0     H93493   3.049   8.778   2.842 -0.3606  1.5260  0.8340
  693MOL0     H93494   3.029   9.041   2.828 -2.5967  1.9659 -0.6655
  693MOL0     H93495   3.083   9.025   2.657 -0.0336  1.9897  0.2534
  693MOL0     H93496   2.830   8.905   2.787 -3.1509  0.4597 -1.1243
  693MOL0     H93497   2.845   9.037   2.679 -1.7142 -1.5187  0.9037
  693MOL0     H93498   2.960   8.913   2.499 -0.0868 -0.2449  0.8592
  693MOL0     H93499   2.965   8.773   2.596  1.7466  1.6571  0.7205
  693MOL0     H93500   2.729   8.918   2.445 -0.1938  0.8009  1.5506
  693MOL0     H93501   2.763   8.745   2.446  0.3263  0.4959 -0.3375
  693MOL0     H93502   2.666   8.775   2.702 -0.3478  3.1311  1.8730
  693MOL0     H93503   2.611   8.928   2.637 -1.5546 -0.7170  2.7716
  693MOL0     H93504   2.532   8.659   2.505  1.2032  1.2973 -0.9825
  693MOL0     H93505   2.500   8.825   2.445 -0.0284  0.7166 -0.7276
  693MOL0     H93506   2.337   8.976   2.579  3.9731 -0.6187 -0.4438
  693MOL0     H93507   2.077   9.005   2.743 -0.8907 -1.0783 -0.1247
  693MOL0     H93508   2.092   8.916   2.887  1.1363  2.6371  2.8293
  693MOL0     H93509   2.329   9.025   2.915 -0.1357 -1.3036 -0.3049
  693MOL0     H93510   2.191   9.121   2.960  2.6139 -0.1449 -0.1822
  693MOL0     H93511   2.354   9.145   2.716 -0.7713 -3.5060  0.7703
  693MOL0     H93512   2.341   9.260   2.849 -1.8152  0.8390  0.2654
  693MOL0     H93513   2.186   9.357   2.695  2.3075  0.1781 -0.4691
  693MOL0     H93514   2.080   9.265   2.785 -0.8818  2.5197 -2.4419
  693MOL0     H93515   2.009   9.139   2.364 -0.0123  0.5257 -0.6676
  693MOL0     H93516   2.112   9.133   2.040 -0.7152  0.9211 -0.8437
  693MOL0     H93517   1.969   9.140   2.139  2.3212 -4.1181 -0.1577
  693MOL0     H93518   2.021   9.288   2.054  0.0276 -0.0591  0.3946
  693MOL0     H93519   2.235   9.517   1.854 -5.1375 -0.8516 -4.6170
  693MOL0     H93520   2.322   9.583   1.629 -1.7048 -0.1734 -2.2994
  693MOL0     H93521   2.414   9.630   1.438  1.1552  2.3055  1.9175
  693MOL0     H93522   2.545   9.617   1.553  2.6826 -3.2436  0.5927
  693MOL0     H93523   2.586   9.522   1.269  0.9005  0.1012 -0.8808
  693MOL0     H93524   2.606   9.697   1.314  3.1380  0.8714  2.3136
  693MOL0     H93525   2.768   9.459   1.426 -1.4998 -1.8637 -3.2597
  693MOL0     H93526   2.757   9.628   1.491  0.3193 -1.4236  0.4178
  693MOL0     H93527   2.856   9.605   1.195  0.9193 -1.1399 -1.5166
  693MOL0     H93528   2.866   9.714   1.336  0.5232  0.0480 -3.0597
  693MOL0     H93529   3.017   9.563   1.457  1.1863 -3.3020 -0.0837
  693MOL0     H93530   3.090   9.607   1.298  0.1368 -0.1932  0.1179
  693MOL0     H93531   2.948   9.340   1.365  0.6329 -0.8504  0.8958
  693MOL0     H93532   2.977   9.408   1.202 -1.0997  1.3894  0.5677
  693MOL0     H93533   3.188   9.338   1.412 -1.6925 -2.7853  0.6618
  693MOL0     H93534   3.208   9.436   1.269 -1.0771  0.8492  0.7718
  693MOL0     H93535   3.239   9.148   1.271 -0.7319 -1.0900 -0.7039
  693MOL0     H93536   3.236   9.255   1.138 -1.6928 -0.9590 -0.5778
  693MOL0     H93537   2.507   9.200   1.587  0.5165  1.1838  0.1490
  693MOL0     H93538   2.417   9.128   1.802  1.6561  0.5573  1.5055
  693MOL0     H93539   2.455   9.360   2.329 -0.0865  0.3135 -2.2075
  693MOL0     H93540   2.363   9.301   2.547 -3.3471  0.8696  2.4860
  693MOL0     H93541   3.464   8.912   3.032  1.6483  0.8570 -1.8070
  693MOL0     H93542   3.676   8.868   3.097  2.4976 -1.6984  0.3124
  693MOL0     H93543   4.057   8.621   2.842  1.8965 -1.1001 -1.3035
  693MOL0     H93544   4.286   8.640   2.766 -3.6838 -2.5135 -0.5643
  693MOL0     H93545   4.489   8.682   2.704  0.5016 -0.5948 -0.6926
  693MOL0     H93546   4.626   8.763   2.763 -0.3844 -0.1682  1.0338
  693MOL0     H93547   4.651   8.522   2.800  2.1827  1.3802  0.6959
  693MOL0     H93548   4.494   8.518   2.888 -1.1026  1.1196  0.2743
  693MOL0     H93549   4.694   8.484   3.029 -1.4611 -0.2413  0.4302
  693MOL0     H93550   4.613   8.631   3.074  1.4644  2.1324 -0.2611
  693MOL0     H93551   4.856   8.670   3.075 -0.0451 -2.4243 -0.0180
  693MOL0     H93552   4.781   8.771   2.957  1.1898  0.0996 -0.0383
  693MOL0     H93553   5.052   8.560   2.718 -1.4258 -1.9479 -1.0451
  693MOL0     H93554   4.371   8.897   3.101 -0.4376 -1.2896  1.0928
  693MOL0     H93555   4.136   8.889   3.171 -3.1766 -0.7289 -0.6770
  694MOL0     O93556   7.669   8.366  10.281  0.4891 -0.3304  0.1627
  694MOL0     C93557   7.753   8.282  10.292  0.6126  0.0341  0.6962
  694MOL0     O93558   7.728   8.154  10.328  0.2084  0.6458 -0.3881
  694MOL0     C93559   7.597   8.123  10.344  0.3319  0.5726 -0.1506
  694MOL0     C93560   7.550   8.003  10.282 -0.5874  0.1589 -1.1265
  694MOL0     C93561   7.416   7.956  10.296  0.3550 -0.5625 -0.2373
  694MOL0     C93562   7.323   8.031  10.370 -0.2826  0.2824  0.3866
  694MOL0     O93563   7.195   8.000  10.402 -0.4609  0.5049 -0.5816
  694MOL0     C93564   7.195   7.905  10.509  0.2512 -0.0112 -0.2883
  694MOL0     C93565   7.049   7.888  10.559 -0.4976  1.0238  0.4346
  694MOL0     C93566   6.981   8.007  10.620 -0.3355  0.8607  0.3168
  694MOL0     C93567   6.842   8.034  10.572 -0.1746  0.0875 -0.0881
  694MOL0     C93568   6.777   8.159  10.622  0.5435 -0.4522  0.2453
  694MOL0     C93569   6.779   8.289  10.534 -0.1559  0.1628  0.2620
  694MOL0     C93570   6.903   8.363  10.506  0.2492 -0.2023 -1.0642
  694MOL0     C93571   6.958   8.419  10.638  0.1774  0.4141  0.1167
  694MOL0     N93572   6.884   8.528  10.701 -0.3953  1.3775  0.1413
  694MOL0     C93573   6.921   8.597  10.816 -1.0850  0.1089 -0.1942
  694MOL0     C93574   6.843   8.703  10.820  0.4492 -0.1137  0.3159
  694MOL0     C93575   6.835   8.789  10.939  0.6557  0.1840 -0.6434
  694MOL0     C93576   6.699   8.838  10.995 -0.3406 -0.0235 -0.8174
  694MOL0     C93577   6.615   8.727  11.062 -0.2715 -0.1183  0.1841
  694MOL0     C93578   6.552   8.607  10.983  0.3816 -0.3718 -0.6440
  694MOL0     O93579   6.494   8.512  11.079  0.3423 -0.1294  0.2933
  694MOL0     C93580   6.368   8.541  11.137 -0.7765  0.7224 -1.6268
  694MOL0     C93581   6.326   8.449  11.238 -0.9075 -0.8875  0.4416
  694MOL0     C93582   6.209   8.451  11.309  0.2612 -0.3010 -0.8972
  694MOL0     C93583   6.179   8.338  11.397 -1.0526 -0.4120  0.5494
  694MOL0     C93584   6.142   8.572  11.290 -0.4004  0.4181 -0.0800
  694MOL0     C93585   6.025   8.594  11.370 -0.0981  0.3026  0.6840
  694MOL0     O93586   6.006   8.522  11.485  0.4549 -0.3606 -0.3871
  694MOL0     C93587   5.894   8.559  11.561 -1.1368  0.5565 -0.3584
  694MOL0     C93588   5.841   8.685  11.578 -0.2172  0.0169  0.2732
  694MOL0     C93589   5.721   8.712  11.652 -0.9262  0.3865 -0.3346
  694MOL0     C93590   5.659   8.614  11.721  0.8208  0.5860  0.5039
  694MOL0     O93591   5.538   8.651  11.780 -0.4420 -0.0906  0.1943
  694MOL0     C93592   5.417   8.570  11.766 -0.2603  0.9050 -0.0845
  694MOL0     C93593   5.421   8.471  11.878  0.2191  0.0698 -0.4423
  694MOL0     C93594   5.390   8.544  12.014 -0.0187  0.1064 -0.4612
  694MOL0     C93595   5.406   8.460  12.143  0.7488  0.1549 -0.6752
  694MOL0     C93596   5.535   8.501  12.217 -0.1300 -0.0017  0.1111
  694MOL0     C93597   5.656   8.425  12.170  0.7900  0.2676  0.3344
  694MOL0     C93598   5.782   8.493  12.209  0.1810  0.1692  0.7448
  694MOL0     C93599   5.908   8.410  12.162  0.4667 -0.5059 -0.3524
  694MOL0    Cl93600   5.924   8.401  11.984 -0.2888 -0.0345 -0.0168
  694MOL0     C93601   5.703   8.477  11.704 -0.7570  0.8843 -0.2952
  694MOL0     C93602   5.822   8.456  11.624 -0.0776  0.3367  0.0588
  694MOL0     O93603   5.942   8.666  11.316 -0.0525 -0.3181  0.2783
  694MOL0     C93604   6.177   8.667  11.184 -0.0719 -0.7106  0.6482
  694MOL0     C93605   6.289   8.651  11.107 -1.4493 -0.1349 -0.1321
  694MOL0     N93606   6.741   8.689  10.727 -0.5491  0.0610 -0.1203
  694MOL0     N93607   6.776   8.590  10.648  0.1861 -0.2218  0.0333
  694MOL0     C93608   7.368   8.152  10.428  0.2316  0.3435 -0.1596
  694MOL0     C93609   7.501   8.192  10.417  0.7952  0.0775 -0.3056
  694MOL0     C93610   7.895   8.307  10.279 -0.3471 -0.7806  0.5886
  694MOL0     C93611   7.939   8.433  10.276  1.0152 -0.3037 -0.3417
  694MOL0     C93612   8.079   8.455  10.291  0.3587 -0.3689  0.4001
  694MOL0     C93613   8.173   8.352  10.292  0.8369  0.3507 -0.6485
  694MOL0     O93614   8.307   8.386  10.315 -0.1891  0.3045  0.1808
  694MOL0     C93615   8.385   8.401  10.199 -0.6937  0.2798  0.7774
  694MOL0     C93616   8.529   8.380  10.245  0.0831 -0.3379 -0.3103
  694MOL0     C93617   8.639   8.394  10.134 -0.1452  1.2825 -0.4625
  694MOL0     C93618   8.788   8.361  10.170  0.3713 -0.0827  0.3975
  694MOL0     C93619   8.871   8.478  10.203  0.1501 -0.5332  0.5077
  694MOL0     C93620   8.931   8.586  10.223  0.1754 -0.0183 -0.0772
  694MOL0     C93621   8.128   8.226  10.276 -0.0379  0.0956 -0.2558
  694MOL0     C93622   7.991   8.201  10.279 -0.9999 -0.2244 -1.0118
  694MOL0     H93623   7.623   7.944  10.227  0.7283  0.7419 -0.0757
  694MOL0     H93624   7.391   7.860  10.251  1.2406 -0.6863 -0.4746
  694MOL0     H93625   7.235   7.810  10.472 -0.3062 -0.1526 -0.5330
  694MOL0     H93626   7.264   7.917  10.593 -1.1164  0.4383  0.7911
  694MOL0     H93627   6.995   7.856  10.470 -0.1346 -0.8028  0.8261
  694MOL0     H93628   7.058   7.805  10.630  0.9176  1.1679  0.4583
  694MOL0     H93629   6.985   8.006  10.730  0.0063  4.7024  0.4725
  694MOL0     H93630   7.031   8.101  10.595  0.4351  0.4676  0.3453
  694MOL0     H93631   6.835   8.029  10.463 -3.1157 -2.6916  0.0663
  694MOL0     H93632   6.798   7.938  10.600  2.5995 -1.0823  0.5875
  694MOL0     H93633   6.672   8.131  10.633  0.6925 -0.5040  1.7932
  694MOL0     H93634   6.819   8.184  10.720 -1.5052  1.8802  0.6430
  694MOL0     H93635   6.745   8.242  10.441  1.4815 -1.0371  0.2307
  694MOL0     H93636   6.696   8.350  10.570 -3.3053 -2.0591 -2.5651
  694MOL0     H93637   6.973   8.288  10.467  1.8703 -0.0693  1.3170
  694MOL0     H93638   6.894   8.444  10.433 -3.6272  0.2072 -0.3315
  694MOL0     H93639   7.053   8.461  10.602  0.9048 -0.8947  0.4444
  694MOL0     H93640   6.981   8.333  10.702  1.3299 -0.1621 -1.0370
  694MOL0     H93641   6.981   8.562  10.899 -1.4037 -2.5228 -1.0077
  694MOL0     H93642   6.877   8.733  11.022 -0.8840  1.7730  1.3341
  694MOL0     H93643   6.908   8.870  10.928 -0.2686  1.7858  3.3301
  694MOL0     H93644   6.635   8.896  10.927 -3.6616 -2.0742  0.3652
  694MOL0     H93645   6.730   8.903  11.078  5.1649 -1.2387 -1.4874
  694MOL0     H93646   6.544   8.773  11.131  1.1286 -0.5853  2.0368
  694MOL0     H93647   6.677   8.679  11.139  0.4177  0.4368 -0.0084
  694MOL0     H93648   6.626   8.558  10.918  0.3852 -0.7074 -0.3880
  694MOL0     H93649   6.475   8.650  10.918 -0.9448  0.4851  1.3911
  694MOL0     H93650   6.388   8.365  11.266 -0.9589 -1.1047 -0.0854
  694MOL0     H93651   6.239   8.249  11.375  2.0859  0.8054  3.2613
  694MOL0     H93652   6.218   8.369  11.494 -1.9151  0.1733  0.7219
  694MOL0     H93653   6.077   8.300  11.406 -0.4980 -2.0930  0.2513
  694MOL0     H93654   5.892   8.770  11.534 -0.1551  0.1321  0.5680
  694MOL0     H93655   5.683   8.813  11.663 -3.0042 -0.1492 -1.9159
  694MOL0     H93656   5.334   8.641  11.774 -0.6311  0.3032  2.5511
  694MOL0     H93657   5.429   8.513  11.674  0.0753 -0.8065  0.9611
  694MOL0     H93658   5.342   8.401  11.852  0.0385 -0.6420  1.8059
  694MOL0     H93659   5.516   8.418  11.878  1.2623  1.8552  0.7333
  694MOL0     H93660   5.286   8.578  12.013 -0.5981 -1.2860  2.1112
  694MOL0     H93661   5.457   8.630  12.020 -1.4758  1.4697 -2.6105
  694MOL0     H93662   5.330   8.497  12.213  2.6196  0.8172  1.0963
  694MOL0     H93663   5.392   8.352  12.134 -2.4005  0.4214 -0.0154
  694MOL0     H93664   5.523   8.465  12.320 -0.7982 -1.3123 -0.3973
  694MOL0     H93665   5.551   8.609  12.216  2.4780 -0.2858  1.1905
  694MOL0     H93666   5.650   8.320  12.200 -1.0137  0.7647  1.9316
  694MOL0     H93667   5.646   8.424  12.061 -2.3195 -0.0431  0.5289
  694MOL0     H93668   5.782   8.498  12.318  1.5882 -1.1671  0.8489
  694MOL0     H93669   5.789   8.587  12.153 -2.8636 -1.7029 -3.2901
  694MOL0     H93670   5.908   8.308  12.203  0.3833 -2.4211 -4.5776
  694MOL0     H93671   5.996   8.473  12.182  0.2478 -0.6773  1.2795
  694MOL0     H93672   5.647   8.393  11.743 -2.0186  1.2160 -1.3433
  694MOL0     H93673   5.842   8.350  11.609 -0.8038 -0.0416  1.5508
  694MOL0     H93674   6.106   8.745  11.156  0.4516 -0.0607  1.1061
  694MOL0     H93675   6.309   8.729  11.034  0.6120 -1.3824 -1.0001
  694MOL0     H93676   7.296   8.218  10.476  1.7590  0.3916  2.2564
  694MOL0     H93677   7.531   8.281  10.471  1.8052  0.0729 -0.8340
  694MOL0     H93678   7.866   8.514  10.283  2.0921  0.7071 -0.5359
  694MOL0     H93679   8.104   8.560  10.300 -0.4814 -0.1324  0.0813
  694MOL0     H93680   8.372   8.312  10.138  0.3488  0.2712  0.5509
  694MOL0     H93681   8.374   8.497  10.148  3.1536 -0.2948 -1.5030
  694MOL0     H93682   8.534   8.279  10.288  1.2158 -0.0405  0.2820
  694MOL0     H93683   8.558   8.457  10.317  1.4407  2.3687 -3.4969
  694MOL0     H93684   8.620   8.500  10.113  1.1538  1.6410  0.1164
  694MOL0     H93685   8.613   8.332  10.047 -1.5879 -1.6030  1.8368
  694MOL0     H93686   8.837   8.307  10.089 -2.5636 -1.5268 -0.5517
  694MOL0     H93687   8.797   8.300  10.261  3.5001 -2.5095 -1.3342
  694MOL0     H93688   8.986   8.669  10.263  0.2312  0.6252 -1.4379
  694MOL0     H93689   8.196   8.143  10.260 -2.4437 -1.7620 -1.5445
  694MOL0     H93690   7.963   8.096  10.285  0.6688 -0.6438  0.0400
  695MOL0     O93691   1.624   5.207   1.724 -0.1247 -0.1669 -0.9232
  695MOL0     C93692   1.565   5.235   1.618 -0.5612 -0.3313  0.0040
  695MOL0     O93693   1.616   5.235   1.492  0.6472 -0.4814 -0.1037
  695MOL0     C93694   1.743   5.195   1.483 -1.0814  0.6609 -0.8324
  695MOL0     C93695   1.781   5.066   1.534 -0.6464  0.5405  1.1512
  695MOL0     C93696   1.912   5.020   1.517 -0.4370  0.2844 -0.8925
  695MOL0     C93697   1.993   5.081   1.424 -0.3917  0.1994 -0.5442
  695MOL0     O93698   2.118   5.038   1.389  0.6954 -0.4334  0.1534
  695MOL0     C93699   2.176   4.914   1.449 -0.3317 -0.2875  0.3554
  695MOL0     C93700   2.311   4.872   1.370  0.4320 -0.4616 -0.6858
  695MOL0     C93701   2.338   4.731   1.421  0.3825  0.7306  1.2112
  695MOL0     C93702   2.492   4.692   1.392 -0.6898  0.2132  0.3138
  695MOL0     C93703   2.511   4.536   1.395 -0.1552  0.8356  0.3708
  695MOL0     C93704   2.445   4.480   1.521  0.0092 -0.3875 -0.0917
  695MOL0     C93705   2.455   4.325   1.535 -0.9846  0.0521  0.0495
  695MOL0     C93706   2.601   4.280   1.553  0.0816  0.3438 -0.2567
  695MOL0     N93707   2.678   4.364   1.649 -0.1548  0.1487  0.7366
  695MOL0     C93708   2.648   4.365   1.783 -0.3440 -0.4526 -0.3645
  695MOL0     C93709   2.731   4.467   1.816 -0.2508 -0.3513  0.2732
  695MOL0     C93710   2.746   4.532   1.958  0.5596 -0.5243 -0.8362
  695MOL0     C93711   2.746   4.425   2.071  0.4121 -0.6154  0.1354
  695MOL0     C93712   2.785   4.487   2.203  0.6874 -0.1592  0.9827
  695MOL0     C93713   2.789   4.382   2.312  0.7157  0.7406  0.6600
  695MOL0     O93714   2.816   4.445   2.437  0.3955 -1.1205  0.5794
  695MOL0     C93715   2.946   4.463   2.479 -0.3256 -0.0432  0.6277
  695MOL0     C93716   2.959   4.567   2.563 -0.7216  0.8887  0.0507
  695MOL0     C93717   3.088   4.602   2.617  0.0896  0.3109 -0.3041
  695MOL0     C93718   3.081   4.713   2.722  0.2757  0.3791  0.7296
  695MOL0     C93719   3.201   4.540   2.581  0.4404  0.2588 -0.6130
  695MOL0     C93720   3.338   4.570   2.624 -0.0965  0.1636 -0.3425
  695MOL0     O93721   3.433   4.484   2.604  0.0119 -0.3589  0.6329
  695MOL0     C93722   3.567   4.503   2.620  0.2414  0.4142  0.6096
  695MOL0     C93723   3.647   4.470   2.516 -1.0497  0.8830 -0.2406
  695MOL0     C93724   3.791   4.469   2.531  0.4546  0.3599 -1.0072
  695MOL0     C93725   3.845   4.514   2.657 -0.3262  1.1600 -0.4650
  695MOL0     O93726   3.982   4.545   2.676  0.1005  0.4916  0.8412
  695MOL0     C93727   4.068   4.522   2.564  0.1089  0.3431 -0.3274
  695MOL0     C93728   4.202   4.572   2.602  0.1657  0.5588  0.6305
  695MOL0     C93729   4.310   4.554   2.496  0.4423  0.0554 -0.2693
  695MOL0     C93730   4.442   4.609   2.542  0.1535  0.3383 -0.0806
  695MOL0     C93731   4.429   4.762   2.577  0.0332  0.3083 -0.2495
  695MOL0     C93732   4.558   4.833   2.588 -0.3865 -0.3996 -0.0146
  695MOL0     C93733   4.562   4.950   2.481  0.1382 -0.2927 -0.0510
  695MOL0     C93734   4.576   4.904   2.337  0.9845 -0.5099  0.0018
  695MOL0    Cl93735   4.721   4.813   2.291 -0.2504  0.4210 -0.1770
  695MOL0     C93736   3.762   4.526   2.760  0.6989 -0.2636 -0.2760
  695MOL0     C93737   3.619   4.523   2.745 -0.7285  0.1959 -0.6846
  695MOL0     O93738   3.362   4.682   2.672 -0.2192  0.0553  0.9838
  695MOL0     C93739   3.184   4.419   2.501  0.9609 -1.0893  0.4538
  695MOL0     C93740   3.064   4.387   2.443  0.3905 -0.3970 -0.4656
  695MOL0     N93741   2.809   4.510   1.711 -0.0048 -0.4152 -0.2160
  695MOL0     N93742   2.781   4.449   1.613  0.8343 -0.1042  0.8642
  695MOL0     C93743   1.951   5.205   1.371  0.1926 -0.8130 -0.5844
  695MOL0     C93744   1.833   5.265   1.402 -0.1980  0.7629  0.6853
  695MOL0     C93745   1.425   5.287   1.629 -0.2426 -0.2707  0.0725
  695MOL0     C93746   1.346   5.271   1.523  1.1210 -0.3432 -0.0077
  695MOL0     C93747   1.211   5.321   1.532  0.4148  0.8361 -0.7827
  695MOL0     C93748   1.161   5.382   1.645  0.5415 -0.0906 -0.3519
  695MOL0     O93749   1.033   5.428   1.660 -0.1335 -0.1336  0.3398
  695MOL0     C93750   0.918   5.362   1.592 -0.5120  0.3235 -0.2513
  695MOL0     C93751   0.910   5.206   1.643  0.1198 -0.0402 -0.1099
  695MOL0     C93752   0.863   5.215   1.789 -0.8451 -1.1055  0.0152
  695MOL0     C93753   0.848   5.082   1.864  0.0293 -0.4054 -0.1050
  695MOL0     C93754   0.813   5.116   2.009 -0.2854  0.6118  0.2009
  695MOL0     C93755   0.792   5.133   2.131 -0.0488 -1.3908 -0.7888
  695MOL0     C93756   1.249   5.390   1.754  1.4485 -0.4828  0.5527
  695MOL0     C93757   1.375   5.338   1.748 -0.2213  0.7824  0.1969
  695MOL0     H93758   1.715   4.999   1.589 -1.1396 -1.0332 -1.2120
  695MOL0     H93759   1.929   4.927   1.569 -1.9155  0.6047  0.2356
  695MOL0     H93760   2.205   4.929   1.554  1.8466 -0.7122 -0.1252
  695MOL0     H93761   2.102   4.834   1.446 -0.6522 -0.0123  0.7679
  695MOL0     H93762   2.303   4.868   1.261  1.4068  1.0664 -0.8518
  695MOL0     H93763   2.388   4.942   1.405 -1.6945  0.9483  1.4755
  695MOL0     H93764   2.300   4.704   1.519 -0.6506 -1.4409  0.2856
  695MOL0     H93765   2.282   4.674   1.346  1.1910 -0.1201  1.2434
  695MOL0     H93766   2.530   4.724   1.294  2.8623  0.5800  1.6733
  695MOL0     H93767   2.559   4.734   1.468  0.1265 -2.7558  1.3647
  695MOL0     H93768   2.474   4.487   1.304 -1.5808  0.5994  1.0422
  695MOL0     H93769   2.615   4.500   1.393 -0.8481 -1.3188 -0.5609
  695MOL0     H93770   2.499   4.525   1.604 -0.6503  0.9229 -0.3326
  695MOL0     H93771   2.338   4.505   1.515  0.5090  1.6254 -3.3366
  695MOL0     H93772   2.396   4.289   1.620  0.2062 -2.9925 -0.2920
  695MOL0     H93773   2.402   4.288   1.446 -0.4204  1.3194 -0.8453
  695MOL0     H93774   2.648   4.285   1.454  2.2110  0.4023  0.6934
  695MOL0     H93775   2.608   4.176   1.586 -2.8075 -0.3690 -1.5846
  695MOL0     H93776   2.577   4.313   1.847 -1.4476  1.3091 -0.0833
  695MOL0     H93777   2.833   4.596   1.972  0.1817  0.6830 -3.4204
  695MOL0     H93778   2.660   4.599   1.965 -0.4220 -1.9126  1.9855
  695MOL0     H93779   2.808   4.341   2.039  0.6215 -0.3001 -0.3118
  695MOL0     H93780   2.647   4.381   2.087 -1.0841  2.5593  0.3833
  695MOL0     H93781   2.727   4.576   2.231 -0.9197 -0.7396 -0.3153
  695MOL0     H93782   2.891   4.514   2.198  0.2951  1.4190  0.6439
  695MOL0     H93783   2.862   4.306   2.282 -1.6882 -1.4543 -0.0003
  695MOL0     H93784   2.695   4.327   2.327  1.0017  0.3748  1.1436
  695MOL0     H93785   2.870   4.619   2.598 -1.6595 -0.3935 -0.3239
  695MOL0     H93786   3.152   4.792   2.694  1.5504 -1.3795 -1.2890
  695MOL0     H93787   2.984   4.764   2.720 -0.0245 -0.2069 -0.4148
  695MOL0     H93788   3.100   4.662   2.817  2.5870 -1.7772 -0.7732
  695MOL0     H93789   3.589   4.446   2.427  0.8415  1.2515 -1.6402
  695MOL0     H93790   3.851   4.436   2.447  1.1303  0.9230 -0.7582
  695MOL0     H93791   4.066   4.418   2.531  0.9927  0.1883  0.0640
  695MOL0     H93792   4.032   4.584   2.481 -0.4599  1.5445  0.7841
  695MOL0     H93793   4.191   4.678   2.625 -2.1102  0.4191  0.4033
  695MOL0     H93794   4.234   4.524   2.696  2.1581  0.3008 -0.1249
  695MOL0     H93795   4.283   4.592   2.397 -1.8589 -1.1258 -0.1591
  695MOL0     H93796   4.324   4.447   2.481  0.9758  0.0539  0.1921
  695MOL0     H93797   4.476   4.560   2.634 -1.2772  0.4945  0.5637
  695MOL0     H93798   4.515   4.581   2.466 -1.5959 -4.4312 -0.2907
  695MOL0     H93799   4.377   4.767   2.673 -0.6158  0.2488 -0.5911
  695MOL0     H93800   4.358   4.808   2.508 -0.9050 -1.6885 -0.6938
  695MOL0     H93801   4.569   4.880   2.686  2.9484  0.5586 -0.6970
  695MOL0     H93802   4.651   4.779   2.567  1.2972  1.8895  1.0622
  695MOL0     H93803   4.635   5.026   2.511  0.0654 -0.9891  2.0474
  695MOL0     H93804   4.470   5.007   2.493  0.8007  0.8890 -0.3868
  695MOL0     H93805   4.592   4.992   2.274  1.1444 -0.3064  0.3253
  695MOL0     H93806   4.484   4.857   2.300 -0.3845  2.8755 -1.3480
  695MOL0     H93807   3.788   4.559   2.861 -1.1593 -0.7983  0.4126
  695MOL0     H93808   3.556   4.531   2.832 -1.4904 -1.6297 -1.0316
  695MOL0     H93809   3.265   4.362   2.455  1.4815 -2.1703  2.5588
  695MOL0     H93810   3.051   4.305   2.374  0.5750  1.4824 -2.8925
  695MOL0     H93811   2.015   5.260   1.302  0.7277 -1.2409 -0.4376
  695MOL0     H93812   1.811   5.346   1.334  0.0645 -0.3660 -0.8012
  695MOL0     H93813   1.383   5.226   1.432  0.6146  1.4833 -1.1629
  695MOL0     H93814   1.148   5.301   1.446 -0.1838 -2.1080  0.2168
  695MOL0     H93815   0.826   5.419   1.603  0.9674  3.1068 -1.1689
  695MOL0     H93816   0.925   5.357   1.482 -2.6743 -2.3593 -0.3858
  695MOL0     H93817   1.010   5.160   1.644  0.5960  0.9690  0.8165
  695MOL0     H93818   0.840   5.145   1.585 -1.5813  1.3638  0.4008
  695MOL0     H93819   0.765   5.262   1.776  0.3616  1.0819 -1.9721
  695MOL0     H93820   0.929   5.287   1.839 -2.1632  1.4677 -1.6798
  695MOL0     H93821   0.944   5.031   1.859  2.9162  4.3570  0.5014
  695MOL0     H93822   0.770   5.020   1.818  2.9054 -3.9329 -0.6235
  695MOL0     H93823   0.779   5.167   2.232  0.5578  2.5918 -1.8503
  695MOL0     H93824   1.203   5.439   1.840  1.1186 -4.3385  2.7833
  695MOL0     H93825   1.440   5.350   1.834  1.6795 -0.3438 -1.0111
  696MOL0     O93826   1.197  10.645   4.850 -0.0772  0.6786 -0.1009
  696MOL0     C93827   1.302  10.595   4.802 -0.6101  0.0417 -0.0257
  696MOL0     O93828   1.309  10.496   4.705  0.6534  0.0676 -0.8373
  696MOL0     C93829   1.188  10.447   4.665  0.3141  1.0462 -0.4215
  696MOL0     C93830   1.111  10.355   4.744  0.0235  0.2822  0.0323
  696MOL0     C93831   0.993  10.305   4.689  0.3448 -0.2982 -0.9108
  696MOL0     C93832   0.954  10.344   4.565 -0.0622 -0.3278  1.2431
  696MOL0     O93833   0.834  10.293   4.526  0.4263  0.0751  1.0848
  696MOL0     C93834   0.773  10.346   4.410  0.4285  0.6346 -0.4241
  696MOL0     C93835   0.639  10.272   4.396 -0.1335 -0.8603  0.1180
  696MOL0     C93836   0.545  10.328   4.288  0.4105 -1.1822 -0.4108
  696MOL0     C93837   0.428  10.223   4.259 -0.7505 -0.6641  0.0391
  696MOL0     C93838   0.316  10.279   4.180 -0.5694 -0.1687  1.5669
  696MOL0     C93839   0.384  10.302   4.040  0.0327  0.5625 -0.4221
  696MOL0     C93840   0.273  10.333   3.938 -0.7000  0.4405  0.2485
  696MOL0     C93841   0.328  10.356   3.789  1.5989  0.3609  0.0985
  696MOL0     N93842   0.208  10.381   3.709 -0.5542  0.1392  0.0834
  696MOL0     C93843   0.126  10.281   3.652 -0.0486  0.5314  0.2946
  696MOL0     C93844   0.061  10.342   3.554 -0.8392 -0.4621 -0.7215
  696MOL0     C93845  -0.040  10.287   3.459 -0.4343  0.2823  0.4617
  696MOL0     C93846  -0.180  10.330   3.471 -1.3175  1.0694  0.2309
  696MOL0     C93847  -0.212  10.482   3.443 -1.3327  0.0606  0.0579
  696MOL0     C93848  -0.364  10.510   3.441  1.2074 -0.1301  0.4577
  696MOL0     O93849  -0.413  10.489   3.574 -0.0791 -0.1575  0.0401
  696MOL0     C93850  -0.546  10.531   3.595 -1.0475  0.3715 -0.1008
  696MOL0     C93851  -0.640  10.584   3.495  1.4758  0.6459  0.6247
  696MOL0     C93852  -0.778  10.617   3.530 -0.4078  0.0450 -1.0548
  696MOL0     C93853  -0.883  10.667   3.422 -0.2510  0.1600  0.1122
  696MOL0     C93854  -0.814  10.605   3.667  0.5324 -0.9920 -0.7535
  696MOL0     C93855  -0.948  10.643   3.712  0.4219  0.5573  0.6416
  696MOL0     O93856  -1.046  10.613   3.631 -0.6253 -0.2668  0.4203
  696MOL0     C93857  -1.173  10.676   3.634 -0.0724  0.6563 -1.3867
  696MOL0     C93858  -1.264  10.614   3.544  0.2615  0.3802  0.4500
  696MOL0     C93859  -1.398  10.651   3.540  0.3909  0.7161  0.4098
  696MOL0     C93860  -1.441  10.755   3.614 -0.3281  0.4487 -0.4365
  696MOL0     O93861  -1.577  10.774   3.613 -0.0613  0.0396 -0.5031
  696MOL0     C93862  -1.639  10.857   3.703 -0.2209 -0.2935 -0.3097
  696MOL0     C93863  -1.790  10.857   3.682  0.4373 -0.1271  0.0506
  696MOL0     C93864  -1.865  10.906   3.800 -0.0276 -0.6078  0.3005
  696MOL0     C93865  -2.020  10.895   3.767  0.4658 -0.0025  0.0042
  696MOL0     C93866  -2.110  10.948   3.881 -0.3061  0.9918  0.1864
  696MOL0     C93867  -2.076  11.094   3.916 -0.1397  0.5967 -0.1137
  696MOL0     C93868  -2.164  11.149   4.027  0.0578  1.1560 -0.2304
  696MOL0     C93869  -2.166  11.304   4.038  0.5701 -0.5961 -0.0960
  696MOL0    Cl93870  -2.275  11.354   4.170  0.2643  0.2808  0.3769
  696MOL0     C93871  -1.347  10.824   3.697 -0.3840 -0.5896  0.9685
  696MOL0     C93872  -1.215  10.792   3.697  0.3237  0.2973 -0.9949
  696MOL0     O93873  -0.960  10.696   3.823 -0.6705 -0.5977  0.2012
  696MOL0     C93874  -0.715  10.563   3.759  1.2183 -0.4784  0.2550
  696MOL0     C93875  -0.587  10.532   3.723  0.0765  0.0736 -0.0306
  696MOL0     N93876   0.111  10.475   3.552  0.4170  0.7501 -0.8689
  696MOL0     N93877   0.195  10.488   3.643 -0.3506  0.6845 -0.2572
  696MOL0     C93878   1.028  10.437   4.493  0.3388 -0.3710  0.0452
  696MOL0     C93879   1.140  10.493   4.543 -0.3195 -0.6042 -0.7745
  696MOL0     C93880   1.428  10.646   4.857  0.2485 -0.4198  1.2515
  696MOL0     C93881   1.430  10.769   4.927  0.0459  0.3853  0.6712
  696MOL0     C93882   1.543  10.822   4.984  0.0552 -0.4566 -0.3994
  696MOL0     C93883   1.663  10.757   4.976 -1.3807  0.7018  0.2822
  696MOL0     O93884   1.784  10.804   5.030  0.3570  0.2769 -0.3635
  696MOL0     C93885   1.793  10.916   5.120  0.5358  0.6630  0.1881
  696MOL0     C93886   1.934  10.965   5.121 -0.6713  0.2754  0.1630
  696MOL0     C93887   2.028  10.855   5.184 -0.1213  0.4495 -0.1796
  696MOL0     C93888   2.168  10.899   5.214 -0.0601  0.1440 -0.6273
  696MOL0     C93889   2.253  10.798   5.272 -1.0030  0.6309 -0.8100
  696MOL0     C93890   2.316  10.708   5.325 -0.0846 -0.2690  0.8850
  696MOL0     C93891   1.669  10.633   4.911 -0.0496  0.6259  1.1686
  696MOL0     C93892   1.553  10.579   4.846  0.3871  0.8341  0.4240
  696MOL0     H93893   1.149  10.326   4.842 -0.2574 -0.5193 -0.0874
  696MOL0     H93894   0.924  10.239   4.740 -1.7951  2.5701  0.1297
  696MOL0     H93895   0.734  10.446   4.432  0.3790  1.0141 -2.1493
  696MOL0     H93896   0.842  10.342   4.326  1.7101 -2.0494  0.6119
  696MOL0     H93897   0.661  10.166   4.383 -0.7553 -1.2251  1.8691
  696MOL0     H93898   0.592  10.285   4.494  0.0575  2.3061 -0.0938
  696MOL0     H93899   0.501  10.424   4.319 -0.8775 -2.0311  0.5074
  696MOL0     H93900   0.607  10.339   4.198  2.1572  0.1180  0.8728
  696MOL0     H93901   0.476  10.140   4.206 -0.2560  0.6693 -1.6669
  696MOL0     H93902   0.387  10.191   4.355  2.5001 -3.4865  0.6983
  696MOL0     H93903   0.231  10.210   4.173 -1.3027  0.8246  0.2071
  696MOL0     H93904   0.283  10.374   4.222 -1.7582  1.7608 -3.0360
  696MOL0     H93905   0.453  10.387   4.035  1.2250 -0.4299 -2.0069
  696MOL0     H93906   0.429  10.210   4.001 -4.2682 -0.8640 -2.7447
  696MOL0     H93907   0.222  10.237   3.927 -2.2350  1.1982  0.4798
  696MOL0     H93908   0.210  10.411   3.981 -0.4973  0.0109  1.3766
  696MOL0     H93909   0.373  10.264   3.749  0.6416  1.4525 -3.9748
  696MOL0     H93910   0.402  10.436   3.779  1.4229  0.7300  1.4941
  696MOL0     H93911   0.123  10.174   3.670 -4.4816  0.7859  2.5628
  696MOL0     H93912  -0.018  10.322   3.358 -1.8517  0.4589  0.1895
  696MOL0     H93913  -0.033  10.178   3.455  2.4559  0.3922  0.2742
  696MOL0     H93914  -0.203  10.314   3.577 -0.2148  0.8694  0.4596
  696MOL0     H93915  -0.244  10.264   3.411  0.1617 -0.5289  0.3142
  696MOL0     H93916  -0.154  10.526   3.361  0.6932 -1.7516  0.4366
  696MOL0     H93917  -0.180  10.538   3.531 -2.6000 -1.4695  1.5717
  696MOL0     H93918  -0.405  10.434   3.373  1.3899 -0.8626  1.1527
  696MOL0     H93919  -0.381  10.610   3.399  1.3395 -0.2279  0.1674
  696MOL0     H93920  -0.613  10.591   3.390 -0.2013  0.7282  0.1692
  696MOL0     H93921  -0.933  10.582   3.375  0.1931 -0.5646  0.8944
  696MOL0     H93922  -0.954  10.742   3.458  0.4807 -0.4366  3.1614
  696MOL0     H93923  -0.838  10.719   3.337 -0.8703  2.2402  0.9889
  696MOL0     H93924  -1.228  10.515   3.519 -2.5120 -2.4139  5.6894
  696MOL0     H93925  -1.476  10.592   3.493 -1.1593  0.8847  2.5899
  696MOL0     H93926  -1.615  10.815   3.802  1.0053 -2.4467 -1.4373
  696MOL0     H93927  -1.607  10.961   3.694  1.6851 -1.0026 -3.0737
  696MOL0     H93928  -1.828  10.916   3.598 -1.6250 -1.9539 -0.3845
  696MOL0     H93929  -1.828  10.756   3.665 -2.4755  0.4267  2.3766
  696MOL0     H93930  -1.843  11.011   3.821  1.5061 -0.7438 -0.4917
  696MOL0     H93931  -1.841  10.838   3.882  1.1340 -1.3402 -0.6210
  696MOL0     H93932  -2.062  10.959   3.688 -0.0584  1.2905  1.2876
  696MOL0     H93933  -2.045  10.790   3.749 -0.2631  0.6201 -3.4307
  696MOL0     H93934  -2.087  10.889   3.971  0.1858  0.9946  0.0668
  696MOL0     H93935  -2.215  10.933   3.855 -0.2360 -2.4150  1.3564
  696MOL0     H93936  -1.975  11.097   3.959 -0.5469 -2.3837  1.2585
  696MOL0     H93937  -2.069  11.157   3.826  0.2917  2.5214  1.1859
  696MOL0     H93938  -2.126  11.110   4.122 -0.1956 -0.3694 -0.7223
  696MOL0     H93939  -2.265  11.109   4.015  0.5135  0.5142 -2.4476
  696MOL0     H93940  -2.204  11.358   3.951  3.6787  0.3564 -1.0027
  696MOL0     H93941  -2.061  11.333   4.049  1.2152 -2.3386 -1.1545
  696MOL0     H93942  -1.373  10.913   3.754 -3.1427 -1.0986  0.6282
  696MOL0     H93943  -1.143  10.849   3.756  0.8729  0.0882 -1.4497
  696MOL0     H93944  -0.747  10.556   3.863 -0.7040 -0.8351 -0.3088
  696MOL0     H93945  -0.515  10.506   3.801  1.3981 -0.8359 -1.5015
  696MOL0     H93946   0.995  10.473   4.396  0.5914 -0.3835 -0.0459
  696MOL0     H93947   1.214  10.552   4.489  1.5394 -3.0145 -1.0477
  696MOL0     H93948   1.349  10.839   4.913  1.5253  1.4548 -4.3304
  696MOL0     H93949   1.548  10.929   5.005 -0.7995 -0.9572  3.0188
  696MOL0     H93950   1.732  11.004   5.099 -1.2477 -0.4460  0.5325
  696MOL0     H93951   1.759  10.886   5.219 -1.5658 -1.9903 -1.1956
  696MOL0     H93952   1.941  11.061   5.172 -3.9106  1.1278 -0.7602
  696MOL0     H93953   1.970  10.982   5.019 -0.5409 -0.9617 -0.0191
  696MOL0     H93954   2.031  10.773   5.112 -2.2097 -0.2587  0.4875
  696MOL0     H93955   1.988  10.809   5.274  0.8707 -0.6653 -0.2879
  696MOL0     H93956   2.163  10.972   5.296 -1.3003  0.6413 -1.1206
  696MOL0     H93957   2.220  10.933   5.124 -0.9797  1.0075 -0.8619
  696MOL0     H93958   2.372  10.625   5.364  1.2654  0.6457  0.9663
  696MOL0     H93959   1.762  10.578   4.910 -1.3164 -1.7155  2.5139
  696MOL0     H93960   1.565  10.485   4.794 -1.3800 -0.6992  2.6070
  697MOL0     O93961   3.074   6.944   9.555  0.3844  0.2474 -0.3199
  697MOL0     C93962   3.156   6.954   9.465 -0.3702 -0.0989 -0.4673
  697MOL0     O93963   3.132   6.996   9.339  1.0303  0.2616 -0.3208
  697MOL0     C93964   3.003   7.034   9.314  0.3714 -0.6600 -0.0159
  697MOL0     C93965   2.890   6.949   9.315  0.0527  0.2612 -0.5317
  697MOL0     C93966   2.767   7.000   9.269  1.0186  0.6196 -0.0936
  697MOL0     C93967   2.746   7.135   9.225  0.9257 -0.5389 -1.3440
  697MOL0     O93968   2.625   7.190   9.193  0.1965  0.0540  0.5360
  697MOL0     C93969   2.535   7.107   9.121 -0.3924  0.5497 -0.1957
  697MOL0     C93970   2.565   7.119   8.971  0.4839  0.3556 -0.2971
  697MOL0     C93971   2.556   7.258   8.912 -0.1547 -0.8094 -0.5562
  697MOL0     C93972   2.566   7.258   8.762 -0.1521  0.4433  0.3752
  697MOL0     C93973   2.529   7.389   8.693 -0.0677 -0.8075 -0.3442
  697MOL0     C93974   2.378   7.431   8.718  0.5837 -0.1502  0.9166
  697MOL0     C93975   2.269   7.329   8.714  0.3122  0.1019  1.1232
  697MOL0     C93976   2.141   7.414   8.737  0.8240  0.2537 -0.1147
  697MOL0     N93977   2.023   7.344   8.697 -0.0048  0.9859 -0.2032
  697MOL0     C93978   1.975   7.338   8.569  0.5540  0.1155  0.0094
  697MOL0     C93979   1.854   7.269   8.582 -0.3643  0.2982  0.3144
  697MOL0     C93980   1.758   7.234   8.467 -0.1014  0.0382 -0.6252
  697MOL0     C93981   1.605   7.251   8.507 -0.0183  0.1441 -0.1467
  697MOL0     C93982   1.561   7.402   8.523 -0.0406 -0.0397  0.4789
  697MOL0     C93983   1.414   7.422   8.571  0.6970 -0.6204  1.0606
  697MOL0     O93984   1.352   7.519   8.489  0.2641  1.0292  0.7440
  697MOL0     C93985   1.215   7.538   8.480 -0.3099 -0.2280  0.9630
  697MOL0     C93986   1.180   7.659   8.414 -0.5974 -0.0634  0.2312
  697MOL0     C93987   1.046   7.702   8.393  0.2248  0.2005 -0.0369
  697MOL0     C93988   1.024   7.829   8.317  1.0344  0.6929 -0.1297
  697MOL0     C93989   0.940   7.618   8.442 -0.4364  0.5068 -0.2845
  697MOL0     C93990   0.800   7.645   8.418  0.5611  0.4178  0.2264
  697MOL0     O93991   0.721   7.634   8.536 -0.0880 -0.6716 -0.2685
  697MOL0     C93992   0.588   7.683   8.514  0.0194 -0.3205 -0.6006
  697MOL0     C93993   0.476   7.599   8.530 -1.0946 -0.1814 -0.5255
  697MOL0     C93994   0.348   7.647   8.516  0.5374 -0.1369 -0.0522
  697MOL0     C93995   0.328   7.789   8.495  0.6021  0.3611 -0.0376
  697MOL0     O93996   0.206   7.847   8.481  0.1313 -0.2058  1.0658
  697MOL0     C93997   0.088   7.775   8.512  0.7272  0.3431  1.2638
  697MOL0     C93998  -0.039   7.863   8.500 -0.6590 -0.2714  0.6153
  697MOL0     C93999  -0.040   7.938   8.368 -0.5224  0.3237 -0.3245
  697MOL0     C94000  -0.164   8.036   8.368  0.0616 -0.2391  0.5477
  697MOL0     C94001  -0.179   8.099   8.228 -0.3465 -0.4689  0.3594
  697MOL0     C94002  -0.276   8.219   8.227 -0.3865  0.6283  0.2350
  697MOL0     C94003  -0.305   8.288   8.092 -0.6772  0.8873  0.2439
  697MOL0     C94004  -0.190   8.306   7.994 -0.4673  0.0034  0.4038
  697MOL0    Cl94005  -0.053   8.397   8.067 -0.0264 -0.1100  0.6588
  697MOL0     C94006   0.439   7.875   8.469 -0.4501  0.4874  0.6278
  697MOL0     C94007   0.573   7.822   8.487  1.1631 -0.9853  0.5755
  697MOL0     O94008   0.754   7.666   8.300  0.0182  0.0535 -0.4176
  697MOL0     C94009   0.977   7.499   8.518 -0.5265 -0.0520 -0.1085
  697MOL0     C94010   1.108   7.463   8.542  0.1691 -0.1855 -1.3578
  697MOL0     N94011   1.836   7.233   8.712  0.6508  0.3640 -0.5080
  697MOL0     N94012   1.935   7.281   8.777  0.1806  0.5172  0.3810
  697MOL0     C94013   2.863   7.217   9.205 -0.8075  1.0153  0.4058
  697MOL0     C94014   2.988   7.165   9.250  0.0477 -0.1730  1.0525
  697MOL0     C94015   3.295   6.951   9.505 -0.0086 -0.1563  1.6946
  697MOL0     C94016   3.346   6.861   9.606 -0.6302 -0.4963  0.2830
  697MOL0     C94017   3.488   6.871   9.644  0.4521  0.8890  0.3894
  697MOL0     C94018   3.566   6.962   9.586 -0.0460 -1.0622  0.1085
  697MOL0     O94019   3.702   6.979   9.610 -0.2033 -0.5907  0.8743
  697MOL0     C94020   3.782   6.872   9.654  0.6630  0.7096  0.2185
  697MOL0     C94021   3.926   6.879   9.599  0.2673  0.1667 -0.0245
  697MOL0     C94022   3.993   7.006   9.665  0.3872 -0.3643 -0.1823
  697MOL0     C94023   4.066   6.971   9.800 -0.1518 -0.8084  0.1847
  697MOL0     C94024   4.161   6.863   9.773  0.0217  0.0954 -0.3748
  697MOL0     C94025   4.240   6.776   9.741 -0.2890  1.0572 -0.7192
  697MOL0     C94026   3.507   7.056   9.502 -0.3153 -0.4094  0.1732
  697MOL0     C94027   3.378   7.053   9.457  0.4284  0.3758 -1.0039
  697MOL0     H94028   2.898   6.850   9.359  4.5543 -0.5786 -2.6405
  697MOL0     H94029   2.692   6.922   9.275  3.3143 -1.6415  1.1684
  697MOL0     H94030   2.530   7.000   9.145 -0.1801  0.0230 -2.3068
  697MOL0     H94031   2.434   7.140   9.148  0.4430  0.3123  3.9108
  697MOL0     H94032   2.664   7.073   8.964  1.1717  2.0041 -2.2824
  697MOL0     H94033   2.485   7.062   8.922  2.1450 -0.0245 -2.7384
  697MOL0     H94034   2.458   7.294   8.946  0.9107 -0.8522  2.9657
  697MOL0     H94035   2.631   7.327   8.951 -0.7254  0.1295 -1.0882
  697MOL0     H94036   2.669   7.231   8.737 -0.5776  0.6536 -1.7717
  697MOL0     H94037   2.504   7.176   8.725  3.5089 -3.0606  1.2114
  697MOL0     H94038   2.594   7.475   8.711 -1.0528 -0.3536  1.2822
  697MOL0     H94039   2.524   7.372   8.585 -0.6536  0.5713 -0.5645
  697MOL0     H94040   2.379   7.479   8.817  2.1845  3.3812 -0.5994
  697MOL0     H94041   2.366   7.510   8.644 -0.4386 -2.0477 -1.0345
  697MOL0     H94042   2.279   7.272   8.622  2.6589  1.3732  0.5151
  697MOL0     H94043   2.275   7.254   8.793  0.8865 -4.1082 -2.5666
  697MOL0     H94044   2.135   7.501   8.671  0.2457 -1.4108 -2.3900
  697MOL0     H94045   2.126   7.447   8.840 -1.2842 -0.6079 -0.0930
  697MOL0     H94046   2.021   7.365   8.475  1.1530 -3.2824 -0.8320
  697MOL0     H94047   1.778   7.305   8.386  0.2001  3.0348  1.8937
  697MOL0     H94048   1.781   7.131   8.439 -1.4133 -1.1415  2.2126
  697MOL0     H94049   1.593   7.205   8.606 -3.3123 -0.3586 -0.6731
  697MOL0     H94050   1.538   7.195   8.442 -1.2529  0.4003  0.8528
  697MOL0     H94051   1.565   7.448   8.424 -1.9449 -0.9691 -0.0890
  697MOL0     H94052   1.623   7.468   8.585 -1.5013  0.8651  1.0405
  697MOL0     H94053   1.414   7.457   8.675 -0.7032  0.3478  0.7579
  697MOL0     H94054   1.367   7.323   8.565 -0.9240 -0.0731  3.4571
  697MOL0     H94055   1.266   7.704   8.365  0.6174 -1.6155  0.8637
  697MOL0     H94056   0.985   7.901   8.389 -0.5431 -1.8602  1.7335
  697MOL0     H94057   1.112   7.878   8.273  2.1375 -0.9360  0.1555
  697MOL0     H94058   0.955   7.822   8.233  2.1926  0.6224 -1.1113
  697MOL0     H94059   0.496   7.494   8.549  2.5060  0.4835  0.1227
  697MOL0     H94060   0.255   7.594   8.529 -0.3855  1.7399  1.4247
  697MOL0     H94061   0.087   7.694   8.438  4.0583  1.9118 -0.7565
  697MOL0     H94062   0.096   7.726   8.609  1.6284  2.3599  2.2689
  697MOL0     H94063  -0.119   7.789   8.496  0.2345 -1.5418  3.5068
  697MOL0     H94064  -0.052   7.935   8.581 -0.2397  0.5449 -0.0213
  697MOL0     H94065  -0.053   7.863   8.290 -2.1703 -0.9864  1.1445
  697MOL0     H94066   0.052   7.996   8.356 -1.2023  2.1108  2.1781
  697MOL0     H94067  -0.261   7.992   8.392 -2.5357  5.0170  1.2932
  697MOL0     H94068  -0.159   8.109   8.450  0.6159  3.5397 -2.5421
  697MOL0     H94069  -0.208   8.025   8.152 -1.1095 -1.3199  1.4518
  697MOL0     H94070  -0.079   8.135   8.203 -0.4218  0.8395  1.8327
  697MOL0     H94071  -0.375   8.184   8.258 -0.1416 -1.5083 -1.1806
  697MOL0     H94072  -0.248   8.293   8.302 -0.2787  0.3388  0.4813
  697MOL0     H94073  -0.360   8.383   8.098  0.0600  1.2985  0.5215
  697MOL0     H94074  -0.378   8.224   8.042 -1.1293 -0.6163  2.6656
  697MOL0     H94075  -0.220   8.355   7.901 -0.0553  1.0636  0.8200
  697MOL0     H94076  -0.150   8.205   7.976  1.5464  0.7182  0.5894
  697MOL0     H94077   0.431   7.981   8.446  1.2335  0.7418  1.0398
  697MOL0     H94078   0.661   7.884   8.478  0.2847  0.1958 -0.3073
  697MOL0     H94079   0.898   7.440   8.564 -1.3527  1.0982  0.0066
  697MOL0     H94080   1.110   7.372   8.601 -0.6416  1.5733  1.6230
  697MOL0     H94081   2.861   7.310   9.150 -1.1207  1.5253  1.2649
  697MOL0     H94082   3.077   7.225   9.234 -1.1662  1.5310  0.4742
  697MOL0     H94083   3.282   6.786   9.651 -1.4298  0.3012  0.4954
  697MOL0     H94084   3.532   6.810   9.721 -0.0277 -2.3021 -1.6665
  697MOL0     H94085   3.783   6.873   9.763  0.4330 -1.2418  0.2588
  697MOL0     H94086   3.744   6.776   9.618  3.0205 -0.5018  0.7400
  697MOL0     H94087   3.913   6.903   9.493  0.0097  0.5503  0.0912
  697MOL0     H94088   3.986   6.789   9.615  0.3496 -0.1228 -1.8458
  697MOL0     H94089   3.925   7.092   9.671  0.1403 -0.6214  0.8019
  697MOL0     H94090   4.073   7.029   9.593  1.8266  1.5236  1.8744
  697MOL0     H94091   4.005   6.959   9.890  0.6319 -0.6094  0.7580
  697MOL0     H94092   4.135   7.052   9.828 -0.0736 -0.8173  0.0198
  697MOL0     H94093   4.318   6.713   9.702 -0.6577 -0.8070  1.3663
  697MOL0     H94094   3.551   7.155   9.489 -1.9971  0.5456  1.3520
  697MOL0     H94095   3.348   7.138   9.396  1.1962  1.1034 -0.3988
  698MOL0     O94096   2.943  10.303   5.942 -0.5091  0.4749  0.4449
  698MOL0     C94097   3.033  10.230   5.984  0.3313  0.6226 -0.0640
  698MOL0     O94098   3.026  10.094   6.005 -0.1423 -0.0664 -0.0506
  698MOL0     C94099   2.921  10.009   5.986 -0.1520 -0.2704  0.2760
  698MOL0     C94100   2.788  10.047   5.987 -0.3924 -0.1378  0.6641
  698MOL0     C94101   2.687   9.956   5.970 -1.4026 -0.1247  0.5665
  698MOL0     C94102   2.716   9.826   5.936 -0.3661 -0.9249 -0.8871
  698MOL0     O94103   2.618   9.738   5.918  0.2732 -0.2592  1.1107
  698MOL0     C94104   2.640   9.599   5.881 -0.7454 -0.5568 -0.5537
  698MOL0     C94105   2.519   9.557   5.805  0.2832 -0.5778  0.4051
  698MOL0     C94106   2.412   9.531   5.905  0.8259  0.6567  1.0821
  698MOL0     C94107   2.290   9.450   5.850 -0.2355 -0.2430  0.6538
  698MOL0     C94108   2.187   9.399   5.956 -0.4190  0.1258  0.4516
  698MOL0     C94109   2.251   9.342   6.083  0.5689  0.0521  1.2669
  698MOL0     C94110   2.140   9.297   6.178  1.2253  0.6470  0.1855
  698MOL0     C94111   2.193   9.199   6.284  0.5241  0.3618  0.1206
  698MOL0     N94112   2.086   9.125   6.368  0.1239  0.0313 -0.2291
  698MOL0     C94113   2.011   9.015   6.339  0.1039  0.0352 -0.0696
  698MOL0     C94114   1.909   9.019   6.427  0.2173  0.2898  0.1780
  698MOL0     C94115   1.786   8.921   6.438 -0.0454 -0.2122  0.1454
  698MOL0     C94116   1.830   8.773   6.440  0.3086 -0.8141  0.0517
  698MOL0     C94117   1.714   8.686   6.480  0.7356 -0.5602 -0.3193
  698MOL0     C94118   1.748   8.535   6.456  0.0859 -0.6351  0.3949
  698MOL0     O94119   1.766   8.502   6.317 -0.4978  0.0998 -0.1108
  698MOL0     C94120   1.678   8.487   6.221  0.8551  0.8263 -0.1645
  698MOL0     C94121   1.722   8.442   6.101 -0.2056  0.5222 -0.6496
  698MOL0     C94122   1.637   8.393   6.001 -0.4044 -0.5967 -0.2719
  698MOL0     C94123   1.703   8.319   5.879  0.5203 -0.7031 -0.9592
  698MOL0     C94124   1.493   8.407   6.015 -0.6603  0.8360 -0.0650
  698MOL0     C94125   1.396   8.380   5.906 -0.5275  0.2105  0.3600
  698MOL0     O94126   1.267   8.358   5.939  0.5483 -0.0283  0.2342
  698MOL0     C94127   1.176   8.341   5.839  0.4245 -0.5485  0.5934
  698MOL0     C94128   1.106   8.221   5.835  0.3905 -0.7696  0.2839
  698MOL0     C94129   1.016   8.198   5.731  0.0523  0.6087 -1.4260
  698MOL0     C94130   0.993   8.296   5.633  0.6042  0.6243 -0.0405
  698MOL0     O94131   0.906   8.275   5.529  0.6076 -0.6645 -0.2759
  698MOL0     C94132   0.956   8.179   5.439  0.6977 -0.3140 -0.0762
  698MOL0     C94133   0.873   8.158   5.310 -0.3633 -0.2707  1.1872
  698MOL0     C94134   0.721   8.175   5.337  0.5403 -0.1678 -0.0039
  698MOL0     C94135   0.640   8.138   5.211 -0.0144  0.1574 -0.6068
  698MOL0     C94136   0.497   8.089   5.242 -0.2171 -0.7794 -0.0503
  698MOL0     C94137   0.436   8.028   5.113  0.1872  0.0028 -0.4809
  698MOL0     C94138   0.280   7.999   5.127 -0.7750  0.5787 -0.2384
  698MOL0     C94139   0.243   7.960   4.983 -0.9721 -0.0907 -0.5060
  698MOL0    Cl94140   0.065   7.933   4.974  0.1431 -0.1589  0.0227
  698MOL0     C94141   1.051   8.419   5.646  0.1773  0.1682  0.1379
  698MOL0     C94142   1.140   8.437   5.746  0.8792 -1.2667  0.2311
  698MOL0     O94143   1.437   8.404   5.794 -0.3998  0.4586  0.1699
  698MOL0     C94144   1.444   8.452   6.138  0.3057 -0.8031  1.0520
  698MOL0     C94145   1.533   8.486   6.241  0.3338  0.3635  0.7767
  698MOL0     N94146   1.931   9.117   6.513  0.3832  0.6229 -0.1570
  698MOL0     N94147   2.026   9.186   6.474 -0.2544  0.1372 -0.2701
  698MOL0     C94148   2.853   9.777   5.952  0.1268 -0.5682  0.4814
  698MOL0     C94149   2.951   9.871   5.971  0.6436  0.3390  0.1318
  698MOL0     C94150   3.164  10.290   6.018 -0.1882 -0.0796  0.8172
  698MOL0     C94151   3.177  10.429   6.025  0.0260 -0.9472  0.3393
  698MOL0     C94152   3.297  10.488   6.063 -0.3601  0.5627 -0.8061
  698MOL0     C94153   3.410  10.404   6.091 -0.4160 -0.1811 -0.0864
  698MOL0     O94154   3.514  10.475   6.137  0.2354  0.5435 -0.0601
  698MOL0     C94155   3.619  10.424   6.216  0.4459  0.5010 -0.2153
  698MOL0     C94156   3.727  10.377   6.119  0.6528  0.0398 -0.0877
  698MOL0     C94157   3.867  10.408   6.188 -0.0419  0.9577 -0.8844
  698MOL0     C94158   3.979  10.324   6.128  0.4662 -0.1073 -0.2983
  698MOL0     C94159   4.005  10.354   5.987 -0.0886 -0.0003  0.2878
  698MOL0     C94160   4.018  10.383   5.873  0.6117  0.6282 -0.2268
  698MOL0     C94161   3.405  10.263   6.071 -0.9962 -0.3618 -0.0479
  698MOL0     C94162   3.283  10.204   6.042 -0.5972 -0.3990 -0.1543
  698MOL0     H94163   2.758  10.151   6.000 -2.2444 -0.1985 -2.2265
  698MOL0     H94164   2.582   9.984   5.980 -1.8355 -2.0514  2.3470
  698MOL0     H94165   2.732   9.589   5.823 -1.4554 -0.1975 -1.8009
  698MOL0     H94166   2.658   9.536   5.968  4.4864  0.2859 -0.7104
  698MOL0     H94167   2.499   9.635   5.731  3.2880 -2.3009 -2.5085
  698MOL0     H94168   2.541   9.471   5.742  1.6762  0.0227  0.0393
  698MOL0     H94169   2.459   9.466   5.979  1.3522  0.4073  0.5412
  698MOL0     H94170   2.384   9.621   5.961  0.4498  0.2574  1.5453
  698MOL0     H94171   2.245   9.506   5.767  1.5171  0.3888  0.0869
  698MOL0     H94172   2.326   9.355   5.809  1.7715  0.6817  0.1055
  698MOL0     H94173   2.127   9.486   5.982  1.5138  1.1401  1.7554
  698MOL0     H94174   2.123   9.324   5.908  0.0734 -0.2657  0.3914
  698MOL0     H94175   2.311   9.253   6.060 -2.0647 -1.6369  0.4656
  698MOL0     H94176   2.324   9.416   6.118 -0.1013  0.8467  1.0010
  698MOL0     H94177   2.103   9.390   6.222 -1.0207  0.9421 -2.1055
  698MOL0     H94178   2.075   9.239   6.112 -0.1427  0.7601  1.3828
  698MOL0     H94179   2.257   9.261   6.348 -2.4479  1.9856  1.7622
  698MOL0     H94180   2.255   9.120   6.241 -2.0761 -2.5773  1.3904
  698MOL0     H94181   2.029   8.943   6.260  0.3336  1.4653 -1.3526
  698MOL0     H94182   1.723   8.958   6.519 -0.1429  2.4122 -1.0212
  698MOL0     H94183   1.723   8.931   6.350 -1.5063 -0.3632  1.1460
  698MOL0     H94184   1.923   8.758   6.496  1.1315  0.7956 -0.7984
  698MOL0     H94185   1.861   8.752   6.338  0.0293  1.5875 -0.5984
  698MOL0     H94186   1.623   8.729   6.438  1.2907  0.5069 -0.4753
  698MOL0     H94187   1.697   8.696   6.588 -0.8480  0.2028 -0.6081
  698MOL0     H94188   1.673   8.481   6.514  0.8808 -1.9349  0.2416
  698MOL0     H94189   1.843   8.521   6.509 -0.0447 -0.1384  0.7680
  698MOL0     H94190   1.829   8.426   6.088 -0.4177 -0.8679 -0.8903
  698MOL0     H94191   1.631   8.253   5.828 -1.8235  1.4270 -0.6222
  698MOL0     H94192   1.722   8.404   5.812  0.4486 -1.4016 -1.8796
  698MOL0     H94193   1.799   8.269   5.891  0.7587  0.4783  4.2725
  698MOL0     H94194   1.115   8.160   5.924  0.1233  0.1583  0.9579
  698MOL0     H94195   0.947   8.116   5.746 -0.6081  1.6112  1.6332
  698MOL0     H94196   1.056   8.198   5.398 -0.2822  0.8870 -2.0896
  698MOL0     H94197   0.953   8.077   5.477 -0.3850 -0.6779 -1.0929
  698MOL0     H94198   0.914   8.230   5.238 -0.1320 -1.7283 -0.1921
  698MOL0     H94199   0.876   8.055   5.274 -1.5920  0.3627 -0.8684
  698MOL0     H94200   0.694   8.275   5.371  0.0257 -0.6887  1.1753
  698MOL0     H94201   0.688   8.115   5.423  1.0860 -0.2852  0.1271
  698MOL0     H94202   0.632   8.224   5.144  0.6413  0.1435 -0.7120
  698MOL0     H94203   0.680   8.053   5.154 -2.5545 -0.0032 -2.3251
  698MOL0     H94204   0.437   8.178   5.264  0.8601  0.8060 -2.9072
  698MOL0     H94205   0.502   8.014   5.321  1.0433 -1.5405 -0.8170
  698MOL0     H94206   0.439   8.094   5.026 -4.0093 -0.4539 -1.2050
  698MOL0     H94207   0.487   7.932   5.097 -0.3750 -0.1233 -1.6665
  698MOL0     H94208   0.215   8.080   5.159 -0.4992 -0.2387  2.6336
  698MOL0     H94209   0.272   7.912   5.192 -1.4122  0.6527 -0.2209
  698MOL0     H94210   0.291   7.865   4.958  0.7629  0.6410 -0.1358
  698MOL0     H94211   0.287   8.038   4.919  0.9213  1.2550  2.2302
  698MOL0     H94212   1.017   8.487   5.569  0.5741 -1.3528 -1.4601
  698MOL0     H94213   1.189   8.533   5.756 -3.0627  1.1116 -1.2891
  698MOL0     H94214   1.339   8.437   6.163  0.5807 -3.0911  0.9910
  698MOL0     H94215   1.502   8.487   6.345  2.4668  0.4305  1.4651
  698MOL0     H94216   2.884   9.673   5.960  0.2357 -0.8942 -2.8435
  698MOL0     H94217   3.052   9.840   5.994 -0.3209 -1.0139  2.9892
  698MOL0     H94218   3.097  10.502   6.013  1.3973  0.5358 -0.0984
  698MOL0     H94219   3.307  10.596   6.071 -0.0652  0.4538  0.5104
  698MOL0     H94220   3.656  10.505   6.279 -0.3962  0.7661 -0.0526
  698MOL0     H94221   3.591  10.336   6.274 -0.3416 -0.1792 -1.5788
  698MOL0     H94222   3.727  10.444   6.032  2.4673  3.5870  2.4135
  698MOL0     H94223   3.715  10.272   6.092  0.6066  0.1251 -0.4075
  698MOL0     H94224   3.870  10.373   6.292  0.3496 -4.6770 -2.4584
  698MOL0     H94225   3.893  10.515   6.186 -1.3966  1.3147 -0.5066
  698MOL0     H94226   3.954  10.217   6.133 -1.4835  0.1364 -2.7660
  698MOL0     H94227   4.069  10.346   6.185 -0.5437  3.1617  0.2767
  698MOL0     H94228   4.033  10.410   5.770  0.6604  0.4918 -0.2550
  698MOL0     H94229   3.495  10.205   6.086 -0.6749  0.5623  1.8729
  698MOL0     H94230   3.279  10.096   6.033  1.2833 -0.6817  1.6659
  699MOL0     O94231   1.704   3.954   7.366  0.0135 -0.1167  0.0437
  699MOL0     C94232   1.707   3.828   7.351  0.2691 -0.1258  0.4366
  699MOL0     O94233   1.628   3.746   7.273  0.0901 -0.2892 -0.3949
  699MOL0     C94234   1.577   3.791   7.157 -0.8739 -0.4845 -0.4029
  699MOL0     C94235   1.625   3.900   7.086  0.5877  0.6749  1.5691
  699MOL0     C94236   1.553   3.936   6.972 -1.2808  0.4024  0.0570
  699MOL0     C94237   1.446   3.863   6.919  1.1508 -0.2134  1.0732
  699MOL0     O94238   1.388   3.903   6.801  0.3876 -0.4026  0.7676
  699MOL0     C94239   1.243   3.903   6.783  0.7977 -0.1144 -0.3722
  699MOL0     C94240   1.196   4.013   6.696  0.4604  0.3765 -0.1195
  699MOL0     C94241   1.038   4.017   6.716  0.3238 -0.1600 -0.1008
  699MOL0     C94242   0.983   4.129   6.628 -1.0500 -0.1302 -0.2936
  699MOL0     C94243   0.844   4.143   6.620 -0.1430 -0.3250  0.3477
  699MOL0     C94244   0.792   4.211   6.490  0.3545  0.2501 -0.4504
  699MOL0     C94245   0.635   4.230   6.484  0.1741 -0.6588 -0.1874
  699MOL0     C94246   0.572   4.103   6.451  0.1988  0.1216 -1.0322
  699MOL0     N94247   0.433   4.111   6.478 -0.2751  0.1710 -0.1181
  699MOL0     C94248   0.328   4.125   6.387  0.1825  0.1594  0.3353
  699MOL0     C94249   0.215   4.123   6.462  0.2278  0.2420  0.1039
  699MOL0     C94250   0.079   4.153   6.408 -0.2328  0.7893  0.4177
  699MOL0     C94251   0.058   4.299   6.362 -0.2515 -1.0668 -0.0600
  699MOL0     C94252   0.139   4.365   6.247  1.2010  0.1263  0.4738
  699MOL0     C94253   0.133   4.296   6.111 -0.4365  0.1379  0.3905
  699MOL0     O94254   0.230   4.190   6.086 -0.5436 -0.1838  0.1841
  699MOL0     C94255   0.363   4.219   6.065 -0.4707  0.8158 -0.6458
  699MOL0     C94256   0.450   4.118   6.041  0.9557  0.5308 -0.1128
  699MOL0     C94257   0.588   4.138   6.049  0.4406  0.1755  0.2026
  699MOL0     C94258   0.668   4.008   6.058  0.3009 -0.2271 -1.1782
  699MOL0     C94259   0.635   4.274   6.048  0.1171  0.1091  0.4300
  699MOL0     C94260   0.783   4.316   6.033  0.4373  0.5554  0.4678
  699MOL0     O94261   0.814   4.442   6.069  0.8756  0.2639 -0.3108
  699MOL0     C94262   0.938   4.493   6.058  1.0835  1.3758  0.5888
  699MOL0     C94263   1.046   4.437   6.124 -0.1682 -0.2073  0.0982
  699MOL0     C94264   1.173   4.497   6.108 -0.1038 -0.0153  0.4671
  699MOL0     C94265   1.189   4.612   6.032 -0.5975 -0.1330 -0.4159
  699MOL0     O94266   1.325   4.650   6.012  0.6628 -0.2346  0.2132
  699MOL0     C94267   1.367   4.783   6.068  0.4517  0.3944 -0.1042
  699MOL0     C94268   1.497   4.836   6.006  0.5046  0.1665 -0.1188
  699MOL0     C94269   1.492   4.836   5.852  0.4286  0.2291 -0.5634
  699MOL0     C94270   1.578   4.950   5.794 -0.3650  0.2492  0.4519
  699MOL0     C94271   1.590   4.941   5.639 -0.4088 -1.3913  0.2882
  699MOL0     C94272   1.645   5.069   5.586  0.4092 -0.9548  0.8912
  699MOL0     C94273   1.708   5.073   5.442  0.6130  0.2559 -0.0257
  699MOL0     C94274   1.597   5.105   5.337  0.4248 -0.5891 -0.0607
  699MOL0    Cl94275   1.476   4.962   5.321  0.3302  0.1574 -0.2704
  699MOL0     C94276   1.081   4.680   5.987 -0.4385 -0.0340 -0.5809
  699MOL0     C94277   0.956   4.619   5.993  0.0530  0.6218  0.8274
  699MOL0     O94278   0.857   4.229   5.999 -0.1450 -0.5425 -1.5035
  699MOL0     C94279   0.542   4.371   6.068 -0.2176 -0.6873 -0.4457
  699MOL0     C94280   0.409   4.346   6.077 -0.2980 -0.2018 -1.4638
  699MOL0     N94281   0.247   4.104   6.591 -0.8216  0.6331  0.3429
  699MOL0     N94282   0.375   4.093   6.597  1.0314 -0.0644 -0.2022
  699MOL0     C94283   1.395   3.756   6.994  1.0187  0.1491 -0.3527
  699MOL0     C94284   1.462   3.718   7.110  0.1633  0.6469 -0.4667
  699MOL0     C94285   1.806   3.748   7.429 -0.4991  0.7237 -0.2224
  699MOL0     C94286   1.808   3.611   7.408  0.5773  0.4773 -0.4392
  699MOL0     C94287   1.886   3.524   7.488  0.7652  0.2222  0.0283
  699MOL0     C94288   1.969   3.573   7.591 -1.5400  0.2014 -0.8780
  699MOL0     O94289   2.062   3.503   7.678  0.3591 -0.4046  0.8716
  699MOL0     C94290   2.096   3.368   7.646  0.2003 -0.5901 -0.1944
  699MOL0     C94291   2.201   3.317   7.742 -0.5830 -0.1368  0.2072
  699MOL0     C94292   2.225   3.155   7.742  0.4610 -0.2995 -0.6854
  699MOL0     C94293   2.298   3.106   7.616  0.0320 -0.2254  0.2945
  699MOL0     C94294   2.340   2.967   7.625 -0.3810 -0.2314 -0.5084
  699MOL0     C94295   2.379   2.852   7.616  0.4430 -0.6960  0.0895
  699MOL0     C94296   1.965   3.711   7.612  0.5594 -0.1675 -0.1121
  699MOL0     C94297   1.880   3.802   7.534  0.2495  0.7177 -0.2559
  699MOL0     H94298   1.709   3.965   7.108  1.1737  1.3088 -1.9738
  699MOL0     H94299   1.595   4.016   6.912  2.6800 -1.5485 -0.1028
  699MOL0     H94300   1.206   3.810   6.739  2.3338 -0.1925 -1.5918
  699MOL0     H94301   1.206   3.916   6.885  1.8713  0.9958 -0.0993
  699MOL0     H94302   1.235   4.113   6.718  2.5509  0.0012 -1.8252
  699MOL0     H94303   1.222   3.986   6.594 -2.4876  0.3818 -0.9553
  699MOL0     H94304   0.985   3.928   6.681  0.0423  1.1665 -3.4314
  699MOL0     H94305   1.015   4.045   6.819 -1.3484  1.7947 -0.9217
  699MOL0     H94306   1.030   4.226   6.646 -2.3212  0.1786  1.6290
  699MOL0     H94307   0.996   4.098   6.524 -1.8801  3.1909 -1.5347
  699MOL0     H94308   0.791   4.048   6.629  0.5624 -0.5918  1.9281
  699MOL0     H94309   0.819   4.211   6.703  0.5596 -2.4114  2.3764
  699MOL0     H94310   0.836   4.311   6.481  0.3385  0.3348  0.4010
  699MOL0     H94311   0.828   4.157   6.402  0.9542  2.4027 -1.6115
  699MOL0     H94312   0.603   4.284   6.573 -0.9471 -1.2233 -0.2284
  699MOL0     H94313   0.604   4.307   6.413  2.5064  1.4761  0.9550
  699MOL0     H94314   0.610   4.023   6.514 -1.5279 -0.3258 -0.5072
  699MOL0     H94315   0.585   4.082   6.344 -0.7905 -0.6228 -1.0168
  699MOL0     H94316   0.341   4.123   6.279 -0.4492  0.5672  0.2430
  699MOL0     H94317   0.056   4.079   6.331 -0.6732  1.7079 -0.3424
  699MOL0     H94318   0.015   4.134   6.495  0.6039 -2.0237  0.5273
  699MOL0     H94319   0.079   4.358   6.452 -2.4271  0.7937 -0.6563
  699MOL0     H94320  -0.049   4.308   6.340  0.0343  1.2614 -0.7438
  699MOL0     H94321   0.240   4.380   6.287  0.5003  1.9989  1.7072
  699MOL0     H94322   0.093   4.463   6.233 -1.8972 -1.2903  0.0778
  699MOL0     H94323   0.151   4.363   6.026 -1.6325 -0.2870 -0.2396
  699MOL0     H94324   0.035   4.247   6.103 -0.1547 -0.2182 -1.3700
  699MOL0     H94325   0.400   4.022   6.038 -2.1628  2.0261  0.3132
  699MOL0     H94326   0.736   4.002   5.972  1.0210  1.6280 -0.7837
  699MOL0     H94327   0.728   4.011   6.149 -0.5141 -0.7282 -0.6185
  699MOL0     H94328   0.601   3.922   6.056 -2.6232  1.9004 -2.2664
  699MOL0     H94329   1.044   4.350   6.190  0.6873  0.8448  1.5631
  699MOL0     H94330   1.253   4.454   6.166  1.8398 -1.6070 -3.0475
  699MOL0     H94331   1.284   4.852   6.046 -0.2770 -0.8863 -1.5916
  699MOL0     H94332   1.372   4.783   6.177 -0.6860  3.2962  0.0563
  699MOL0     H94333   1.505   4.936   6.048 -2.9421  0.1782  0.8472
  699MOL0     H94334   1.580   4.773   6.039  2.9750  1.5812 -3.0942
  699MOL0     H94335   1.389   4.849   5.816 -0.3014 -1.7610  0.6410
  699MOL0     H94336   1.523   4.735   5.822 -1.2714 -0.7879  0.9047
  699MOL0     H94337   1.536   5.048   5.820 -2.2792 -0.0077 -1.4701
  699MOL0     H94338   1.683   4.940   5.825 -0.1968  1.0979  0.1830
  699MOL0     H94339   1.488   4.923   5.605  0.5512 -1.3185 -2.9647
  699MOL0     H94340   1.648   4.858   5.597 -2.0958 -0.9202 -3.3543
  699MOL0     H94341   1.570   5.147   5.602 -1.0228 -2.2745  0.7973
  699MOL0     H94342   1.732   5.102   5.643  0.5197  3.1761 -1.2279
  699MOL0     H94343   1.761   4.979   5.419  0.8076 -0.5538  3.2823
  699MOL0     H94344   1.773   5.161   5.433  0.7192  0.0636 -1.3292
  699MOL0     H94345   1.645   5.153   5.251  3.6008 -0.4563  1.6343
  699MOL0     H94346   1.543   5.185   5.389 -0.6321 -1.7396  0.6547
  699MOL0     H94347   1.082   4.774   5.931  0.2846 -0.7318 -1.7964
  699MOL0     H94348   0.877   4.674   5.942 -0.1663  0.7708  1.3204
  699MOL0     H94349   0.583   4.471   6.080  0.9447 -1.1089 -0.7026
  699MOL0     H94350   0.350   4.435   6.098 -0.5426 -1.1198  2.3938
  699MOL0     H94351   1.318   3.692   6.952 -0.0764  0.1553  1.5279
  699MOL0     H94352   1.418   3.634   7.163  0.7638  1.6896  1.8193
  699MOL0     H94353   1.752   3.556   7.333 -0.0737  0.1705  0.2576
  699MOL0     H94354   1.882   3.418   7.468 -0.3284 -0.3716  2.9611
  699MOL0     H94355   2.004   3.310   7.647 -2.4765  3.1667 -2.7723
  699MOL0     H94356   2.139   3.356   7.546  0.3638 -1.1007 -0.0682
  699MOL0     H94357   2.161   3.361   7.834  0.0226  1.3077 -0.1880
  699MOL0     H94358   2.302   3.356   7.722 -0.1458 -1.9880 -1.6082
  699MOL0     H94359   2.127   3.107   7.737 -0.3960  1.4744 -2.9728
  699MOL0     H94360   2.283   3.128   7.830 -1.1071  1.3811  0.9612
  699MOL0     H94361   2.381   3.168   7.582  0.6648 -0.9453  0.5176
  699MOL0     H94362   2.228   3.123   7.533  2.1192 -1.6962 -1.8649
  699MOL0     H94363   2.380   2.745   7.616  2.3473 -0.7278  1.0776
  699MOL0     H94364   2.017   3.762   7.693  1.3277  1.6608 -1.6887
  699MOL0     H94365   1.889   3.908   7.556 -4.1754  1.3625 -0.6319
  700MOL0     O94366   4.366   4.361   1.583  0.4738  0.3137  0.8824
  700MOL0     C94367   4.386   4.468   1.625  0.1580  0.1671 -0.3092
  700MOL0     O94368   4.289   4.560   1.677 -0.6456  0.5770  0.4867
  700MOL0     C94369   4.156   4.526   1.657  0.0827  0.1236 -0.2519
  700MOL0     C94370   4.069   4.516   1.765 -0.8348  0.5968  0.5354
  700MOL0     C94371   3.935   4.488   1.753  0.0369 -0.5586  0.4904
  700MOL0     C94372   3.881   4.473   1.624  0.6464  0.0188  0.6009
  700MOL0     O94373   3.746   4.460   1.619 -0.4416  0.1180  0.0696
  700MOL0     C94374   3.688   4.462   1.487  0.1717 -0.1488  0.3465
  700MOL0     C94375   3.534   4.479   1.499  0.7033  0.1332 -0.1014
  700MOL0     C94376   3.463   4.517   1.371  0.1280  0.4622 -0.0218
  700MOL0     C94377   3.315   4.547   1.391 -0.5164 -0.0175  0.1128
  700MOL0     C94378   3.259   4.636   1.274  0.0925 -0.4946  0.4258
  700MOL0     C94379   3.100   4.645   1.267  0.4570  0.0594 -0.5009
  700MOL0     C94380   3.030   4.651   1.404  0.1688 -0.8964 -0.3016
  700MOL0     C94381   2.875   4.668   1.404 -0.7905 -0.6810  0.7046
  700MOL0     N94382   2.833   4.793   1.333  0.6164  0.8319 -0.0650
  700MOL0     C94383   2.820   4.823   1.200  0.1905  0.8096 -0.6436
  700MOL0     C94384   2.788   4.956   1.206 -0.0001 -0.1979  0.2445
  700MOL0     C94385   2.764   5.040   1.084  1.0678  0.3184  0.1008
  700MOL0     C94386   2.637   5.130   1.105  0.8217 -0.3981  0.0400
  700MOL0     C94387   2.506   5.051   1.075  1.2684 -0.2017  0.2406
  700MOL0     C94388   2.371   5.131   1.089 -0.2565  0.0004  0.5435
  700MOL0     O94389   2.358   5.235   0.988  0.7067 -0.6049  0.4898
  700MOL0     C94390   2.249   5.321   0.992  0.4735 -0.5372  0.8048
  700MOL0     C94391   2.241   5.437   0.917  0.7890  0.5564 -0.2440
  700MOL0     C94392   2.127   5.522   0.908 -0.8949  0.7043 -0.2168
  700MOL0     C94393   2.137   5.632   0.795  0.3921 -0.2426  0.8617
  700MOL0     C94394   2.005   5.496   0.975  0.1657 -0.8801  0.9108
  700MOL0     C94395   1.881   5.574   0.976  0.8712  0.0488  0.4259
  700MOL0     O94396   1.887   5.703   0.925  0.3185  0.7579  0.0159
  700MOL0     C94397   1.764   5.752   0.889 -1.4632  1.3589  0.0606
  700MOL0     C94398   1.683   5.812   0.985  0.2614  0.2244  0.4239
  700MOL0     C94399   1.562   5.873   0.946  0.3957  0.5657  0.3073
  700MOL0     C94400   1.530   5.871   0.811  1.2913 -0.6847 -0.0107
  700MOL0     O94401   1.415   5.928   0.758 -0.4679  0.2871  0.4558
  700MOL0     C94402   1.369   6.051   0.817 -0.2675 -0.1984  0.1153
  700MOL0     C94403   1.261   6.093   0.721 -1.1142 -0.4392 -0.9633
  700MOL0     C94404   1.182   6.204   0.771  0.4467  0.5796 -0.0940
  700MOL0     C94405   1.099   6.248   0.654 -0.0162 -0.4235  1.3323
  700MOL0     C94406   1.005   6.356   0.720 -0.7944 -0.4824  0.1295
  700MOL0     C94407   0.965   6.474   0.628  0.2199 -0.7995 -0.0663
  700MOL0     C94408   1.077   6.564   0.578 -0.0235 -0.4556  0.5859
  700MOL0     C94409   1.033   6.686   0.488 -0.0930  0.3093 -0.3181
  700MOL0    Cl94410   1.026   6.641   0.322 -0.1292  0.0975  0.1607
  700MOL0     C94411   1.609   5.801   0.715 -0.3646 -0.6904 -1.0441
  700MOL0     C94412   1.733   5.753   0.752  0.4670 -0.1800  0.0608
  700MOL0     O94413   1.786   5.527   1.038 -0.3088  0.3956  0.4652
  700MOL0     C94414   2.021   5.376   1.054  0.9636  0.4769  0.4069
  700MOL0     C94415   2.131   5.292   1.059 -0.7440  0.2716 -0.1772
  700MOL0     N94416   2.790   4.999   1.332 -0.3788 -0.5448  0.3626
  700MOL0     N94417   2.801   4.898   1.408  0.0192 -0.2001 -0.6404
  700MOL0     C94418   3.974   4.477   1.510  0.5485 -0.0178 -0.1358
  700MOL0     C94419   4.105   4.512   1.525 -0.6311  0.3474 -0.4503
  700MOL0     C94420   4.530   4.500   1.628 -0.0734  0.4388  0.4545
  700MOL0     C94421   4.575   4.602   1.719  0.4334 -0.3694  0.4119
  700MOL0     C94422   4.703   4.663   1.702 -0.9919  0.1636 -0.5940
  700MOL0     C94423   4.797   4.605   1.613  0.9909  0.6420  0.3951
  700MOL0     O94424   4.933   4.646   1.603  0.2315  0.3311  0.0670
  700MOL0     C94425   4.982   4.744   1.694 -0.7907  0.0904 -0.2272
  700MOL0     C94426   5.120   4.799   1.657  0.1983  0.8262 -0.3589
  700MOL0     C94427   5.186   4.855   1.780  0.0372 -0.3952  0.3637
  700MOL0     C94428   5.324   4.897   1.742 -0.2944 -1.3630 -0.7537
  700MOL0     C94429   5.419   4.788   1.735  0.0615 -0.3321  0.3207
  700MOL0     C94430   5.499   4.700   1.750 -0.0265  0.3534  0.0938
  700MOL0     C94431   4.751   4.495   1.530 -0.5338  0.4083 -0.0962
  700MOL0     C94432   4.618   4.452   1.539  0.1638 -1.1108  0.7798
  700MOL0     H94433   4.110   4.542   1.862 -0.4433  0.7276  0.3368
  700MOL0     H94434   3.868   4.489   1.838 -0.7333  0.4667 -0.0998
  700MOL0     H94435   3.721   4.552   1.436  0.9942 -1.3730 -1.3762
  700MOL0     H94436   3.717   4.375   1.427  4.8013  3.1002 -2.7919
  700MOL0     H94437   3.498   4.382   1.534  0.1927  0.7828  1.2259
  700MOL0     H94438   3.518   4.558   1.572  0.7563 -1.7605  2.0731
  700MOL0     H94439   3.519   4.601   1.329  2.4584 -0.9155  0.1908
  700MOL0     H94440   3.477   4.445   1.290  0.8424  1.3410 -0.7022
  700MOL0     H94441   3.267   4.449   1.393  1.0267 -0.8649 -1.5356
  700MOL0     H94442   3.297   4.593   1.489 -2.8758  2.4466 -1.3458
  700MOL0     H94443   3.299   4.738   1.273 -0.3111 -0.2391 -3.2278
  700MOL0     H94444   3.295   4.584   1.185 -0.7577  1.6262 -1.2484
  700MOL0     H94445   3.056   4.733   1.220  0.9457  1.0893  0.9192
  700MOL0     H94446   3.073   4.554   1.212 -2.0361 -0.1855  0.9675
  700MOL0     H94447   3.043   4.552   1.449 -3.1178 -2.2663 -1.9855
  700MOL0     H94448   3.090   4.726   1.456  0.6630 -2.5385  1.6283
  700MOL0     H94449   2.822   4.686   1.499 -1.0535  0.7010  0.3160
  700MOL0     H94450   2.827   4.582   1.357 -0.5288  0.0446 -0.9398
  700MOL0     H94451   2.831   4.758   1.114 -1.4030 -0.3632 -0.0021
  700MOL0     H94452   2.855   5.092   1.054  1.4122  0.7971  1.8753
  700MOL0     H94453   2.759   4.977   0.994  0.9027  2.9639 -1.8776
  700MOL0     H94454   2.649   5.215   1.036 -0.9039  0.5109  0.7896
  700MOL0     H94455   2.630   5.157   1.210 -2.1894 -2.7662  0.5615
  700MOL0     H94456   2.498   4.978   1.156  4.9828 -0.0045  0.9621
  700MOL0     H94457   2.507   5.008   0.975  1.6392  1.2118 -0.3906
  700MOL0     H94458   2.349   5.175   1.187 -2.7513 -0.5916  0.3015
  700MOL0     H94459   2.299   5.050   1.078  3.5232 -4.3164  3.3975
  700MOL0     H94460   2.322   5.464   0.849  0.9893  1.5307  0.3558
  700MOL0     H94461   2.059   5.600   0.725  0.4663  2.7266 -0.7474
  700MOL0     H94462   2.127   5.738   0.820  4.1673  0.9307 -1.6924
  700MOL0     H94463   2.230   5.625   0.738  1.4318 -0.8815  2.5860
  700MOL0     H94464   1.720   5.802   1.086  1.9935  0.8144 -0.1147
  700MOL0     H94465   1.494   5.919   1.017 -1.3813 -1.1443 -0.1874
  700MOL0     H94466   1.321   6.044   0.916  0.0678  1.0517  0.3812
  700MOL0     H94467   1.451   6.123   0.819 -0.4318  0.0153 -0.8466
  700MOL0     H94468   1.303   6.111   0.621 -3.1453  2.7335 -1.3826
  700MOL0     H94469   1.197   6.005   0.710 -1.2894 -0.5407  0.6806
  700MOL0     H94470   1.245   6.281   0.817 -0.7685  2.0859 -0.8788
  700MOL0     H94471   1.118   6.164   0.850  2.1675 -0.2503  0.9307
  700MOL0     H94472   1.158   6.280   0.568 -0.1323 -0.4265  1.2509
  700MOL0     H94473   1.040   6.167   0.610 -0.5801  1.0923 -0.8270
  700MOL0     H94474   1.054   6.401   0.807  0.3147 -1.3967 -0.0061
  700MOL0     H94475   0.909   6.314   0.751 -0.2598  0.4745  3.5089
  700MOL0     H94476   0.915   6.439   0.537  0.7287 -0.2731 -0.5607
  700MOL0     H94477   0.886   6.523   0.684 -1.0248 -2.8297  0.0614
  700MOL0     H94478   1.143   6.506   0.513 -1.4800 -2.3646  0.6962
  700MOL0     H94479   1.142   6.586   0.663  0.6430  0.0523 -0.0429
  700MOL0     H94480   1.106   6.764   0.512  0.7724 -0.9204  1.3078
  700MOL0     H94481   0.932   6.724   0.505 -0.2262 -0.0217 -0.3658
  700MOL0     H94482   1.581   5.783   0.612  1.9468 -1.9659 -1.5175
  700MOL0     H94483   1.801   5.719   0.675  1.8722 -2.9847  2.3084
  700MOL0     H94484   1.950   5.320   1.115  0.2985  1.1033  0.2231
  700MOL0     H94485   2.133   5.198   1.114 -1.5833  0.5617  0.3794
  700MOL0     H94486   3.952   4.466   1.404 -3.3402  2.2923  0.2434
  700MOL0     H94487   4.173   4.524   1.442  1.0136 -1.8952  0.4616
  700MOL0     H94488   4.497   4.633   1.788 -1.6086 -0.8358 -1.5512
  700MOL0     H94489   4.733   4.744   1.768 -1.3365 -0.5512  0.4563
  700MOL0     H94490   4.918   4.833   1.699  0.3256  0.9088 -0.1813
  700MOL0     H94491   4.973   4.702   1.795 -1.7932  3.3737  1.1849
  700MOL0     H94492   5.106   4.882   1.587  0.9941  0.8813 -0.4635
  700MOL0     H94493   5.171   4.719   1.604 -1.2462  0.5750 -1.4224
  700MOL0     H94494   5.195   4.790   1.867  1.2646 -2.7746 -1.4314
  700MOL0     H94495   5.130   4.948   1.797  0.0310 -0.4895  0.8821
  700MOL0     H94496   5.354   4.974   1.814 -1.0626 -1.8794  0.1321
  700MOL0     H94497   5.325   4.932   1.638  0.7194 -3.9414 -1.6954
  700MOL0     H94498   5.577   4.634   1.784 -0.8179 -1.4669 -1.4468
  700MOL0     H94499   4.827   4.447   1.470  0.0508  2.4610 -1.1018
  700MOL0     H94500   4.582   4.370   1.477 -0.7646 -0.6809  0.7350
  701MOL0     O94501   3.493   6.478  11.141  0.0911 -0.1666  0.5491
  701MOL0     C94502   3.544   6.370  11.141 -0.0975  0.0536  0.0254
  701MOL0     O94503   3.473   6.254  11.156  0.0893 -0.6737 -0.0488
  701MOL0     C94504   3.342   6.252  11.127  0.4943  0.6653 -0.4247
  701MOL0     C94505   3.271   6.167  11.217  0.9101  0.7150 -0.5362
  701MOL0     C94506   3.132   6.142  11.198 -0.1682 -0.1037 -0.3772
  701MOL0     C94507   3.063   6.207  11.096 -0.1034 -0.3043  0.1767
  701MOL0     O94508   2.933   6.169  11.094 -0.9795 -0.4296  0.3465
  701MOL0     C94509   2.834   6.239  11.014 -0.8743  0.1506 -0.2562
  701MOL0     C94510   2.699   6.243  11.088 -0.4819  0.1951  0.1934
  701MOL0     C94511   2.684   6.366  11.168 -0.6048 -0.0483  0.1218
  701MOL0     C94512   2.547   6.389  11.229 -1.0323  0.4621  0.7010
  701MOL0     C94513   2.573   6.464  11.357 -0.3649  0.0183 -0.2302
  701MOL0     C94514   2.515   6.596  11.363 -0.5485  0.0428  0.8675
  701MOL0     C94515   2.507   6.656  11.505 -0.6367  0.2873 -0.0823
  701MOL0     C94516   2.461   6.802  11.508  0.1361 -0.1113  0.0959
  701MOL0     N94517   2.519   6.900  11.412 -0.7433 -0.1101 -0.3871
  701MOL0     C94518   2.644   6.951  11.430  0.7531 -0.4857 -0.1141
  701MOL0     C94519   2.664   7.042  11.328  0.4254  0.3621 -0.5515
  701MOL0     C94520   2.764   7.143  11.319  0.0936 -0.0063  0.9186
  701MOL0     C94521   2.735   7.248  11.424 -0.2973  0.3656  0.2402
  701MOL0     C94522   2.867   7.304  11.481 -0.0583 -0.3242 -0.7073
  701MOL0     C94523   2.925   7.237  11.606  0.2283  0.0171  0.0931
  701MOL0     O94524   2.977   7.111  11.560 -0.6018 -0.0976 -0.4964
  701MOL0     C94525   3.113   7.095  11.588  0.0515  0.0190 -0.0492
  701MOL0     C94526   3.182   7.148  11.694  0.1197  1.0036 -0.5596
  701MOL0     C94527   3.315   7.120  11.713 -0.0869 -0.1335  0.4569
  701MOL0     C94528   3.385   7.181  11.831 -0.2802  0.0187 -0.0882
  701MOL0     C94529   3.378   7.026  11.632  0.4086 -0.3373  0.3926
  701MOL0     C94530   3.526   6.979  11.642  0.1526 -0.3125  0.6964
  701MOL0     O94531   3.558   6.868  11.571 -0.5235  0.1480  0.2578
  701MOL0     C94532   3.688   6.813  11.565 -0.2263 -0.1937 -0.0739
  701MOL0     C94533   3.802   6.886  11.560 -0.6321  0.3633  0.8910
  701MOL0     C94534   3.927   6.828  11.542 -0.0231 -0.0799  0.6282
  701MOL0     C94535   3.944   6.690  11.543  0.0398 -0.5501 -0.7493
  701MOL0     O94536   4.070   6.646  11.519 -0.0601 -0.2401  0.4967
  701MOL0     C94537   4.102   6.508  11.523 -0.2938 -0.5870 -0.5182
  701MOL0     C94538   4.247   6.486  11.490 -0.2092  0.3922 -0.3894
  701MOL0     C94539   4.266   6.337  11.515 -0.7701 -0.0749 -0.8101
  701MOL0     C94540   4.410   6.310  11.450 -0.9268  0.1247  0.5351
  701MOL0     C94541   4.447   6.173  11.502 -0.3736  0.4157  0.2097
  701MOL0     C94542   4.584   6.127  11.454  0.0409  0.8819  0.6752
  701MOL0     C94543   4.704   6.181  11.538 -0.3377 -0.7724 -0.3526
  701MOL0     C94544   4.837   6.120  11.490  0.3443 -0.6676 -0.2232
  701MOL0    Cl94545   4.877   6.118  11.313 -0.2195 -0.5165  0.5073
  701MOL0     C94546   3.833   6.616  11.569  0.5814  0.4277 -0.8669
  701MOL0     C94547   3.709   6.676  11.583 -0.2025 -0.0035 -0.9344
  701MOL0     O94548   3.612   7.049  11.699  0.6043 -0.1938 -0.1905
  701MOL0     C94549   3.310   6.968  11.529  0.6543  0.1768  0.1806
  701MOL0     C94550   3.182   7.008  11.493  0.2466  0.1631 -0.1063
  701MOL0     N94551   2.558   7.026  11.245  0.9727  0.5884  0.6012
  701MOL0     N94552   2.467   6.948  11.295 -0.7080 -0.0880 -0.5985
  701MOL0     C94553   3.130   6.290  11.010  0.9864  0.7528  0.3844
  701MOL0     C94554   3.276   6.314  11.029  0.6019  0.0377  0.1055
  701MOL0     C94555   3.690   6.370  11.141  0.1347 -0.1767  0.9575
  701MOL0     C94556   3.762   6.492  11.153 -0.4331  0.3039 -0.8470
  701MOL0     C94557   3.902   6.498  11.154  0.4404  0.7080 -0.9627
  701MOL0     C94558   3.968   6.378  11.147 -0.7663 -0.0510 -0.2181
  701MOL0     O94559   4.100   6.382  11.159 -0.2450 -0.6904 -0.1097
  701MOL0     C94560   4.172   6.303  11.066 -1.1611  0.3227  0.9089
  701MOL0     C94561   4.263   6.400  10.985 -0.1445  0.3168 -0.2004
  701MOL0     C94562   4.340   6.499  11.063  0.3446  1.3007 -2.1753
  701MOL0     C94563   4.434   6.595  10.993 -0.3762 -0.3158 -0.2653
  701MOL0     C94564   4.376   6.729  10.968  0.1616  0.4063 -0.0143
  701MOL0     C94565   4.320   6.830  10.944 -0.8759 -0.4760 -0.0620
  701MOL0     C94566   3.900   6.254  11.145 -0.5095 -0.3755  0.8541
  701MOL0     C94567   3.765   6.254  11.130  0.3902  0.4001 -0.4472
  701MOL0     H94568   3.320   6.136  11.308 -1.3280  2.1032  1.2437
  701MOL0     H94569   3.090   6.077  11.275  1.5826 -0.0605  0.6593
  701MOL0     H94570   2.874   6.339  10.998  1.8649 -0.9031 -0.5041
  701MOL0     H94571   2.823   6.185  10.919  0.5174 -1.0741  0.2470
  701MOL0     H94572   2.619   6.243  11.013 -1.0403 -0.6341  0.7654
  701MOL0     H94573   2.694   6.151  11.147  0.1791 -0.3848 -0.6361
  701MOL0     H94574   2.773   6.380  11.229 -2.1237  0.7397  2.2763
  701MOL0     H94575   2.695   6.456  11.106  3.7208  0.6784  1.5999
  701MOL0     H94576   2.482   6.443  11.159  1.4436  3.3472  0.4289
  701MOL0     H94577   2.518   6.288  11.258 -1.1545  0.4446  0.5213
  701MOL0     H94578   2.533   6.403  11.438 -0.4068 -2.8140 -2.2316
  701MOL0     H94579   2.679   6.485  11.376 -0.4232  1.0658 -0.9562
  701MOL0     H94580   2.583   6.660  11.307 -1.7288  0.8553  0.3219
  701MOL0     H94581   2.416   6.602  11.316 -2.8221  1.5356  5.2495
  701MOL0     H94582   2.423   6.605  11.553  0.1040  1.3081  2.4950
  701MOL0     H94583   2.601   6.646  11.560  1.4139  1.0165 -3.2369
  701MOL0     H94584   2.502   6.844  11.600  0.2734 -2.0857  0.9933
  701MOL0     H94585   2.351   6.801  11.511  0.0799  0.9636 -1.0332
  701MOL0     H94586   2.706   6.948  11.518 -1.1193  0.5841  1.3141
  701MOL0     H94587   2.867   7.108  11.323  1.6116  4.0751  2.8679
  701MOL0     H94588   2.763   7.196  11.223  1.4965 -0.5518  0.5833
  701MOL0     H94589   2.687   7.202  11.510 -0.1948 -1.6826 -0.7247
  701MOL0     H94590   2.677   7.330  11.380  0.8184  1.6020  1.0052
  701MOL0     H94591   2.832   7.400  11.519  0.2070  0.0410 -1.3793
  701MOL0     H94592   2.941   7.323  11.403 -1.9707 -3.0322 -3.4258
  701MOL0     H94593   2.845   7.211  11.677  2.5452 -2.5802  1.9979
  701MOL0     H94594   2.998   7.309  11.645  0.9397  0.0163 -1.2012
  701MOL0     H94595   3.141   7.222  11.762 -3.0496  0.0924 -1.3090
  701MOL0     H94596   3.454   7.259  11.797  0.5031  0.2656  1.9074
  701MOL0     H94597   3.306   7.217  11.897 -1.5118 -3.4780  0.5256
  701MOL0     H94598   3.441   7.107  11.890  1.3572  1.3437  0.1096
  701MOL0     H94599   3.786   6.991  11.541 -5.3522  0.0326  1.7562
  701MOL0     H94600   4.022   6.873  11.518  1.1624 -2.8455 -0.1948
  701MOL0     H94601   4.084   6.460  11.620  0.6556  0.0804  0.0079
  701MOL0     H94602   4.033   6.464  11.451  0.6148 -0.3846 -1.5405
  701MOL0     H94603   4.264   6.523  11.389  4.1694  1.4090  0.5280
  701MOL0     H94604   4.319   6.539  11.552 -0.8912 -1.1776  1.8907
  701MOL0     H94605   4.195   6.275  11.459 -0.5344 -0.0448 -1.1451
  701MOL0     H94606   4.261   6.305  11.620 -1.2457  1.8120 -0.2143
  701MOL0     H94607   4.399   6.322  11.341  0.1828 -0.4689  0.3373
  701MOL0     H94608   4.481   6.390  11.472  0.5473 -0.0195 -3.0036
  701MOL0     H94609   4.375   6.092  11.487  0.3391 -0.2682  0.3754
  701MOL0     H94610   4.452   6.176  11.611  0.3670  0.7604  0.1734
  701MOL0     H94611   4.582   6.018  11.456  2.4096  0.7929  2.9820
  701MOL0     H94612   4.588   6.154  11.348 -3.0094 -1.0841 -0.0788
  701MOL0     H94613   4.684   6.173  11.645 -0.8204  0.3093 -0.3557
  701MOL0     H94614   4.694   6.288  11.518 -0.0286 -1.1307 -2.7301
  701MOL0     H94615   4.828   6.022  11.538 -4.4635 -0.1713  0.3973
  701MOL0     H94616   4.913   6.186  11.534 -2.6552  1.7180  1.8201
  701MOL0     H94617   3.847   6.509  11.567  1.4892  0.5151 -0.0731
  701MOL0     H94618   3.617   6.618  11.589 -0.5598  0.5099 -1.3832
  701MOL0     H94619   3.351   6.891  11.465  0.2810  0.9664 -1.0261
  701MOL0     H94620   3.123   6.967  11.412  0.7652 -0.2087 -0.3012
  701MOL0     H94621   3.080   6.339  10.927 -1.5851  0.9184  1.9270
  701MOL0     H94622   3.329   6.380  10.962 -0.3185  0.6256 -0.0700
  701MOL0     H94623   3.710   6.587  11.153  0.2796  0.7177 -2.3493
  701MOL0     H94624   3.957   6.592  11.152 -2.3211  2.4692  0.3289
  701MOL0     H94625   4.235   6.236  11.124  1.5680  1.2641 -0.7289
  701MOL0     H94626   4.125   6.237  10.993  2.4196  0.4403 -1.7988
  701MOL0     H94627   4.203   6.452  10.910  2.1425  1.5563 -1.2753
  701MOL0     H94628   4.340   6.335  10.943 -0.6847 -2.0505  2.1482
  701MOL0     H94629   4.391   6.426  11.127 -5.1691 -1.8507 -0.7490
  701MOL0     H94630   4.283   6.560  11.134  3.9886  1.8665  0.5949
  701MOL0     H94631   4.475   6.566  10.896  1.8562 -0.8128  0.7678
  701MOL0     H94632   4.524   6.609  11.053 -0.3027 -0.2321 -0.3939
  701MOL0     H94633   4.271   6.923  10.923 -0.3578 -0.0561  0.5301
  701MOL0     H94634   3.963   6.165  11.150  2.4796  1.5091 -0.1168
  701MOL0     H94635   3.703   6.165  11.127 -0.5883  1.0741 -1.2267
  702MOL0     O94636   1.345   5.464   2.429  0.7524  0.3459  0.0672
  702MOL0     C94637   1.344   5.440   2.305  0.2152  0.5923 -1.0474
  702MOL0     O94638   1.231   5.434   2.217 -0.1777  0.3969 -0.4022
  702MOL0     C94639   1.101   5.472   2.257 -0.6773 -0.2035  1.4346
  702MOL0     C94640   1.076   5.565   2.357  0.4883  1.0317 -0.2228
  702MOL0     C94641   0.948   5.605   2.381  0.1353 -0.7324 -1.1610
  702MOL0     C94642   0.839   5.566   2.305  0.6072  0.2650  0.3851
  702MOL0     O94643   0.717   5.622   2.323 -0.2619 -0.7818 -0.1223
  702MOL0     C94644   0.603   5.593   2.238 -0.1980 -0.5448  0.0040
  702MOL0     C94645   0.485   5.683   2.281  0.1962  0.8635 -0.0834
  702MOL0     C94646   0.508   5.834   2.264 -0.9244 -0.0681  0.2077
  702MOL0     C94647   0.510   5.872   2.120 -0.1371  0.1057 -0.5932
  702MOL0     C94648   0.566   6.021   2.112 -0.2546 -0.3035  0.7114
  702MOL0     C94649   0.584   6.063   1.963 -0.5644 -0.1287 -0.2379
  702MOL0     C94650   0.576   6.214   1.951  0.1386 -0.9263 -0.5414
  702MOL0     C94651   0.537   6.242   1.808  0.7431 -0.6752  0.2055
  702MOL0     N94652   0.648   6.232   1.718  0.8294 -0.1566  0.0346
  702MOL0     C94653   0.754   6.307   1.741 -1.4459  0.4065 -0.0487
  702MOL0     C94654   0.845   6.267   1.643 -0.1692  0.3920  0.1625
  702MOL0     C94655   0.983   6.325   1.610  0.7781  0.5099 -0.2768
  702MOL0     C94656   0.960   6.462   1.555 -0.3022 -0.3676 -0.7374
  702MOL0     C94657   1.085   6.506   1.477  0.3157  0.6923 -0.4841
  702MOL0     C94658   1.068   6.644   1.408  0.2257 -0.5719 -0.3584
  702MOL0     O94659   1.141   6.746   1.478 -0.5320  0.4262  0.1131
  702MOL0     C94660   1.120   6.877   1.460  0.1244  0.9176  0.7004
  702MOL0     C94661   1.194   6.958   1.548 -0.4170  0.0834  0.5003
  702MOL0     C94662   1.189   7.096   1.534 -0.5661  0.3892  0.2765
  702MOL0     C94663   1.287   7.176   1.618 -0.5645  0.7728  1.2426
  702MOL0     C94664   1.090   7.153   1.446  1.0332  0.0341 -0.0465
  702MOL0     C94665   1.067   7.303   1.417  0.1132 -0.3744 -0.0916
  702MOL0     O94666   0.967   7.335   1.335 -0.1514 -0.7220  0.0833
  702MOL0     C94667   0.917   7.468   1.339  0.2993  0.3414  0.9496
  702MOL0     C94668   0.975   7.571   1.267  0.2342 -0.5880  0.8463
  702MOL0     C94669   0.910   7.692   1.256 -0.2128 -0.1043 -0.4292
  702MOL0     C94670   0.779   7.706   1.303 -0.7027  0.3407 -0.3191
  702MOL0     O94671   0.713   7.827   1.311  0.2146  0.1088 -0.3991
  702MOL0     C94672   0.680   7.879   1.181 -0.6589 -0.3554 -0.1462
  702MOL0     C94673   0.661   8.032   1.193 -1.6808  1.9864 -0.3570
  702MOL0     C94674   0.534   8.079   1.254 -0.5633 -0.6270  0.9138
  702MOL0     C94675   0.503   8.228   1.247  0.4133  0.2179 -0.2320
  702MOL0     C94676   0.376   8.262   1.319  0.1788 -0.8435  0.5247
  702MOL0     C94677   0.355   8.416   1.305 -0.1173  1.2370 -0.1877
  702MOL0     C94678   0.229   8.451   1.388  0.0136  0.5673 -0.8627
  702MOL0     C94679   0.242   8.593   1.434 -0.2200 -0.1634  0.3745
  702MOL0    Cl94680   0.089   8.648   1.512  0.3094 -0.0269 -0.1347
  702MOL0     C94681   0.718   7.605   1.367  0.8904  0.4138 -0.2510
  702MOL0     C94682   0.793   7.482   1.390 -0.1866  0.2087  0.5878
  702MOL0     O94683   1.135   7.387   1.473  0.1195  0.4658 -0.0204
  702MOL0     C94684   1.015   7.068   1.359 -1.0462  0.1622  0.2280
  702MOL0     C94685   1.040   6.926   1.364  0.9557 -0.2966  0.1816
  702MOL0     N94686   0.787   6.162   1.573 -0.6628  0.3848 -1.0587
  702MOL0     N94687   0.665   6.143   1.614 -0.4866 -0.3623  0.6027
  702MOL0     C94688   0.871   5.477   2.202 -0.1168 -1.6790  0.6969
  702MOL0     C94689   0.994   5.420   2.187  0.6328 -0.7889  0.5556
  702MOL0     C94690   1.483   5.421   2.257 -1.0658 -0.3540 -0.0875
  702MOL0     C94691   1.593   5.445   2.340  0.1082 -0.0451  0.0174
  702MOL0     C94692   1.724   5.411   2.299  0.4614  0.8298  0.1443
  702MOL0     C94693   1.746   5.377   2.163 -0.7099 -0.1467 -0.7233
  702MOL0     O94694   1.878   5.342   2.125  0.0309 -0.4513  0.6078
  702MOL0     C94695   1.982   5.427   2.177 -0.4535  0.0255  0.2993
  702MOL0     C94696   2.085   5.359   2.273 -0.0602 -0.1227 -0.4872
  702MOL0     C94697   2.214   5.319   2.211  0.4029  0.7346  0.4589
  702MOL0     C94698   2.214   5.207   2.112  0.8693 -0.9422 -0.0160
  702MOL0     C94699   2.192   5.087   2.188  0.1401 -0.2290  1.0181
  702MOL0     C94700   2.180   4.975   2.239  0.6408  0.2164  0.3942
  702MOL0     C94701   1.637   5.363   2.071  0.5471  0.1056 -0.5910
  702MOL0     C94702   1.513   5.404   2.118 -1.3041 -0.5256  0.6234
  702MOL0     H94703   1.160   5.606   2.412  2.9808  0.8450 -3.6081
  702MOL0     H94704   0.932   5.679   2.458 -0.7280 -2.2255  0.1588
  702MOL0     H94705   0.641   5.606   2.137  3.4025  0.8849  1.3844
  702MOL0     H94706   0.572   5.488   2.250 -0.6614 -0.6288 -1.7235
  702MOL0     H94707   0.395   5.647   2.229 -0.3557 -2.3424  2.7930
  702MOL0     H94708   0.460   5.673   2.387 -1.5268 -0.7920 -0.5844
  702MOL0     H94709   0.430   5.892   2.314  0.1685  0.5644  1.2175
  702MOL0     H94710   0.611   5.852   2.296 -0.2666 -1.9916 -0.6413
  702MOL0     H94711   0.575   5.804   2.064 -1.9256 -2.9201  0.7514
  702MOL0     H94712   0.414   5.871   2.068  1.3759  2.8728 -3.8285
  702MOL0     H94713   0.505   6.091   2.171  1.3735 -0.5291  2.7735
  702MOL0     H94714   0.657   6.022   2.173 -0.9771  1.9057  1.8849
  702MOL0     H94715   0.681   6.021   1.933 -0.6670 -0.1565 -0.5328
  702MOL0     H94716   0.507   6.022   1.896 -1.8736  2.5986 -0.5193
  702MOL0     H94717   0.498   6.245   2.021  0.3603 -1.6110  0.0114
  702MOL0     H94718   0.664   6.264   1.993 -1.7608  0.7054  1.6999
  702MOL0     H94719   0.505   6.347   1.808  3.7161  0.3307 -0.3647
  702MOL0     H94720   0.453   6.182   1.771 -0.9896  0.8985  1.3852
  702MOL0     H94721   0.769   6.385   1.815 -0.4193  0.5357 -0.3803
  702MOL0     H94722   1.031   6.331   1.708  1.0809 -1.8258 -0.2455
  702MOL0     H94723   1.036   6.259   1.541  2.5453  0.6526  0.9004
  702MOL0     H94724   0.947   6.541   1.630  5.1977  0.8168 -0.6783
  702MOL0     H94725   0.878   6.468   1.483 -0.9749  2.9698  0.1141
  702MOL0     H94726   1.088   6.428   1.400 -2.7626  0.5850 -0.6013
  702MOL0     H94727   1.177   6.502   1.536 -0.5601 -1.0368  0.8361
  702MOL0     H94728   0.964   6.674   1.394  0.2653 -0.1315  0.2450
  702MOL0     H94729   1.109   6.626   1.308  0.6170 -1.9452  0.0259
  702MOL0     H94730   1.251   6.919   1.632 -1.4246 -0.1622  1.0944
  702MOL0     H94731   1.351   7.107   1.675  1.4068  0.3422 -1.3213
  702MOL0     H94732   1.352   7.238   1.556  1.5874 -2.8321 -0.4770
  702MOL0     H94733   1.232   7.242   1.685 -0.3681  0.7000  1.4809
  702MOL0     H94734   1.078   7.562   1.236 -0.0436 -2.3116  0.3265
  702MOL0     H94735   0.965   7.775   1.213 -0.5826  1.7458  2.3876
  702MOL0     H94736   0.763   7.859   1.112 -0.5451  0.0493 -0.1304
  702MOL0     H94737   0.584   7.835   1.152 -2.4485  0.7155  3.6178
  702MOL0     H94738   0.751   8.072   1.240 -0.4851 -0.7654 -0.1481
  702MOL0     H94739   0.655   8.061   1.088  0.2244 -3.1499 -2.2195
  702MOL0     H94740   0.529   8.049   1.360  0.2360  0.5323  1.3001
  702MOL0     H94741   0.457   8.024   1.199  1.1168 -0.8245 -1.4045
  702MOL0     H94742   0.589   8.291   1.274  0.3431 -0.4916  1.9172
  702MOL0     H94743   0.485   8.253   1.142 -3.4491 -0.4771  0.1193
  702MOL0     H94744   0.374   8.233   1.425  1.1443 -0.7960  0.5608
  702MOL0     H94745   0.297   8.216   1.258  0.2147 -0.4227  0.1625
  702MOL0     H94746   0.445   8.464   1.346  2.8412  0.0119 -4.5848
  702MOL0     H94747   0.339   8.449   1.202  0.4384 -0.2472 -0.7821
  702MOL0     H94748   0.213   8.387   1.476 -1.1707  0.7707 -0.9072
  702MOL0     H94749   0.134   8.444   1.333 -1.7884  1.7366  1.8853
  702MOL0     H94750   0.264   8.655   1.347  2.1529 -2.5092 -0.8106
  702MOL0     H94751   0.320   8.597   1.510 -1.3115  0.6718  1.5060
  702MOL0     H94752   0.616   7.611   1.405  0.7802  2.3281 -0.7679
  702MOL0     H94753   0.751   7.398   1.446  0.0223  1.5367  2.8653
  702MOL0     H94754   0.948   7.113   1.287 -2.6168  0.1520  1.6158
  702MOL0     H94755   0.989   6.865   1.290 -0.9946  1.3837  0.0437
  702MOL0     H94756   0.796   5.459   2.126  0.5919  3.2520 -1.6068
  702MOL0     H94757   1.018   5.353   2.106 -1.4870 -1.7414  0.6488
  702MOL0     H94758   1.574   5.475   2.442 -1.0376  0.7595 -0.4155
  702MOL0     H94759   1.808   5.414   2.368 -0.3543  0.0772  1.2026
  702MOL0     H94760   2.045   5.461   2.094  2.2958 -1.6342  1.5685
  702MOL0     H94761   1.937   5.515   2.225  0.2810  0.3896  0.3337
  702MOL0     H94762   2.042   5.275   2.330 -2.4560  1.3689  0.0547
  702MOL0     H94763   2.117   5.438   2.342  1.1591 -0.9826 -0.0339
  702MOL0     H94764   2.300   5.304   2.278  1.3989 -0.7882 -1.0613
  702MOL0     H94765   2.251   5.407   2.157  1.3803  0.7955  1.1824
  702MOL0     H94766   2.313   5.207   2.067  1.3674  1.7650  0.9263
  702MOL0     H94767   2.139   5.226   2.035 -0.1210 -1.3847  0.8155
  702MOL0     H94768   2.146   4.886   2.289  0.0799  0.7291  0.9501
  702MOL0     H94769   1.652   5.315   1.974  1.4521 -0.9140  0.0374
  702MOL0     H94770   1.424   5.411   2.056 -1.2629  0.1619  0.6310
  703MOL0     O94771   1.068   8.011   1.149  0.8510 -0.6343 -0.6121
  703MOL0     C94772   1.167   8.069   1.193 -0.5505  0.5834  0.2455
  703MOL0     O94773   1.293   8.019   1.186 -0.1336  0.3906 -0.0885
  703MOL0     C94774   1.328   7.885   1.151 -0.0960 -0.2612 -0.4421
  703MOL0     C94775   1.455   7.843   1.196  0.0097  0.1925 -0.5902
  703MOL0     C94776   1.509   7.715   1.171 -0.5266 -0.8317  0.4802
  703MOL0     C94777   1.437   7.628   1.094 -0.2605 -0.1691  0.5858
  703MOL0     O94778   1.482   7.499   1.083 -0.4114 -0.3578 -0.1161
  703MOL0     C94779   1.408   7.389   1.027 -0.2414 -0.4483  0.7353
  703MOL0     C94780   1.477   7.255   1.043  0.1742  0.0672  0.0030
  703MOL0     C94781   1.433   7.186   1.173 -0.2830 -0.4682  0.3424
  703MOL0     C94782   1.545   7.083   1.204  0.3996  0.0187 -0.0513
  703MOL0     C94783   1.501   6.997   1.322 -0.3842  0.2011 -1.4350
  703MOL0     C94784   1.613   6.944   1.415  0.5670  0.7690  0.1007
  703MOL0     C94785   1.695   7.053   1.493  0.3135 -0.3352 -0.0757
  703MOL0     C94786   1.802   6.974   1.575  0.0463  0.0895 -0.2390
  703MOL0     N94787   1.888   7.067   1.657 -0.4778  0.3181 -0.1827
  703MOL0     C94788   1.990   7.145   1.606  0.5423 -0.2576  0.0851
  703MOL0     C94789   2.051   7.202   1.709 -0.7883 -0.5291  0.0002
  703MOL0     C94790   2.178   7.282   1.699 -1.0772 -0.4932 -0.7543
  703MOL0     C94791   2.162   7.431   1.700 -0.2010 -0.4691  0.7111
  703MOL0     C94792   2.135   7.482   1.844 -0.0036 -0.1697 -0.0882
  703MOL0     C94793   2.123   7.641   1.853 -0.1071 -0.0118  0.2327
  703MOL0     O94794   1.992   7.681   1.836 -0.0906 -0.3267 -0.2601
  703MOL0     C94795   1.956   7.812   1.828 -0.0508 -0.6604  0.4383
  703MOL0     C94796   1.845   7.844   1.760 -0.0476 -0.2719 -0.3672
  703MOL0     C94797   1.805   7.980   1.747 -0.7059  0.5847 -0.8742
  703MOL0     C94798   1.673   8.011   1.682  0.2966  0.5257 -0.4336
  703MOL0     C94799   1.884   8.086   1.795  0.6780 -0.3096 -0.7640
  703MOL0     C94800   1.866   8.235   1.767 -0.1628 -0.0380 -0.2750
  703MOL0     O94801   1.778   8.272   1.669  0.5740  0.7406 -0.0353
  703MOL0     C94802   1.777   8.384   1.601 -0.2409  0.1966  0.8878
  703MOL0     C94803   1.875   8.489   1.618 -0.2880  0.7378  0.7344
  703MOL0     C94804   1.873   8.593   1.524 -0.1925 -0.5985 -0.2032
  703MOL0     C94805   1.778   8.608   1.431  0.3089 -0.2926 -0.6273
  703MOL0     O94806   1.764   8.726   1.357  0.0481  0.6525  0.5465
  703MOL0     C94807   1.826   8.721   1.221 -0.5958  0.6045  0.1376
  703MOL0     C94808   1.788   8.835   1.131  0.3768 -0.2018  0.2718
  703MOL0     C94809   1.797   8.970   1.195 -0.0982  0.6787 -0.2623
  703MOL0     C94810   1.790   9.102   1.107  0.4526 -0.4273 -0.4566
  703MOL0     C94811   1.809   9.235   1.175 -0.1236  0.1893  0.6994
  703MOL0     C94812   1.690   9.284   1.255  0.3063  0.4243  0.1660
  703MOL0     C94813   1.558   9.290   1.184  0.5690  0.1899 -0.5327
  703MOL0     C94814   1.449   9.346   1.280  0.3178 -0.2944  0.7185
  703MOL0    Cl94815   1.301   9.349   1.190 -0.7501 -0.3313 -0.3181
  703MOL0     C94816   1.688   8.508   1.417 -0.2025 -0.3544 -1.0290
  703MOL0     C94817   1.688   8.396   1.493 -0.2520  0.1991  0.5803
  703MOL0     O94818   1.933   8.304   1.843  0.6038 -0.3452  0.4354
  703MOL0     C94819   1.999   8.049   1.870 -0.2081  0.2061 -0.6396
  703MOL0     C94820   2.031   7.913   1.886 -0.7502 -0.0063 -0.1792
  703MOL0     N94821   1.994   7.155   1.824 -0.4684  0.1239 -0.4600
  703MOL0     N94822   1.911   7.065   1.795  0.3237  0.7707  0.2898
  703MOL0     C94823   1.311   7.669   1.049 -0.6516 -0.2714  0.2724
  703MOL0     C94824   1.251   7.791   1.082  0.0542  0.4553  0.5158
  703MOL0     C94825   1.152   8.195   1.259 -0.6272 -0.1630  0.4211
  703MOL0     C94826   1.270   8.269   1.275  0.7624  0.8211 -0.5549
  703MOL0     C94827   1.257   8.393   1.344  0.7615  0.9005 -0.6802
  703MOL0     C94828   1.131   8.437   1.399  0.7501 -0.9499 -0.4040
  703MOL0     O94829   1.133   8.560   1.460 -0.3637  0.1091 -0.6134
  703MOL0     C94830   1.035   8.595   1.568 -0.0152  1.0534 -0.4782
  703MOL0     C94831   1.063   8.741   1.589  0.9537 -0.3432  0.3912
  703MOL0     C94832   1.028   8.833   1.469 -0.6985  0.5517  0.0930
  703MOL0     C94833   1.124   8.958   1.456 -0.9169 -0.3650  0.2640
  703MOL0     C94834   1.252   8.919   1.400 -0.2695  0.2505 -0.0291
  703MOL0     C94835   1.354   8.864   1.365 -0.5329 -0.2931 -1.4191
  703MOL0     C94836   1.017   8.357   1.379  0.9061  0.4469  0.2961
  703MOL0     C94837   1.031   8.240   1.309 -0.5430  0.4293  0.7363
  703MOL0     H94838   1.506   7.923   1.248 -2.4921  0.4573  1.6805
  703MOL0     H94839   1.608   7.676   1.192  0.7507  0.9060 -1.7324
  703MOL0     H94840   1.304   7.382   1.061 -0.3868  1.9966  0.9793
  703MOL0     H94841   1.407   7.417   0.921  1.8473  0.2653  0.8616
  703MOL0     H94842   1.442   7.198   0.957 -0.9975 -1.2942  1.3096
  703MOL0     H94843   1.584   7.275   1.043  0.2244  0.4025  3.2836
  703MOL0     H94844   1.429   7.258   1.256 -0.9175  0.5633 -0.5513
  703MOL0     H94845   1.332   7.144   1.166  0.1619 -1.2603 -1.8475
  703MOL0     H94846   1.557   7.012   1.122 -0.4351 -4.7245  3.5535
  703MOL0     H94847   1.630   7.149   1.223  1.6394 -1.8884  1.2489
  703MOL0     H94848   1.432   7.053   1.387  1.1630 -1.4760  1.8508
  703MOL0     H94849   1.439   6.913   1.290  1.0566 -1.6656  0.3927
  703MOL0     H94850   1.579   6.867   1.484 -2.0718 -0.3050 -2.2265
  703MOL0     H94851   1.664   6.874   1.348 -1.2912  0.0714 -0.6392
  703MOL0     H94852   1.747   7.121   1.425  0.1009  1.4214  1.4330
  703MOL0     H94853   1.631   7.106   1.564  3.7786  2.4375  1.2791
  703MOL0     H94854   1.879   6.928   1.512  0.2700 -2.3528  1.6980
  703MOL0     H94855   1.757   6.900   1.641  3.9846 -1.6675  0.7601
  703MOL0     H94856   2.017   7.161   1.502  0.7816  0.0239  0.1900
  703MOL0     H94857   2.232   7.264   1.792 -3.6037 -0.4000  0.8309
  703MOL0     H94858   2.237   7.257   1.611  0.3478  0.2874 -0.0535
  703MOL0     H94859   2.085   7.451   1.626  2.7199 -0.9993 -2.7376
  703MOL0     H94860   2.257   7.477   1.670 -0.6147 -1.6042 -2.7315
  703MOL0     H94861   2.220   7.451   1.907 -0.7562 -0.4783  0.7999
  703MOL0     H94862   2.044   7.443   1.891  1.4463  0.2140  3.3825
  703MOL0     H94863   2.184   7.686   1.774 -0.6287 -1.3190 -0.9526
  703MOL0     H94864   2.156   7.661   1.955 -1.7043 -1.7999  1.1534
  703MOL0     H94865   1.787   7.768   1.710  0.9453 -1.9463  0.9287
  703MOL0     H94866   1.698   8.046   1.582 -3.6605  1.5904 -1.2330
  703MOL0     H94867   1.604   7.926   1.682 -4.1379  3.7752  0.4002
  703MOL0     H94868   1.610   8.081   1.739 -2.5290 -1.7680 -0.5210
  703MOL0     H94869   1.949   8.483   1.697 -1.0904  0.5384  1.4935
  703MOL0     H94870   1.950   8.671   1.522  2.0086 -2.6638 -0.5536
  703MOL0     H94871   1.935   8.715   1.225 -0.7101 -1.2467  1.6818
  703MOL0     H94872   1.790   8.632   1.169  0.2407 -0.5020  1.4105
  703MOL0     H94873   1.833   8.832   1.032  3.1355 -1.8951  1.4747
  703MOL0     H94874   1.684   8.814   1.105  0.4465 -2.0705  1.3409
  703MOL0     H94875   1.896   8.984   1.240 -0.6116  2.0399  0.5256
  703MOL0     H94876   1.726   8.988   1.276  2.1062  2.1816  1.5000
  703MOL0     H94877   1.869   9.099   1.031  1.7230  1.2207  0.7533
  703MOL0     H94878   1.695   9.102   1.051  0.8276 -1.1817 -1.1198
  703MOL0     H94879   1.822   9.305   1.092 -0.2521  0.8418  1.2277
  703MOL0     H94880   1.897   9.231   1.240  0.2004 -0.7771  0.2253
  703MOL0     H94881   1.680   9.208   1.332  0.8080 -1.3678 -1.4636
  703MOL0     H94882   1.729   9.379   1.293 -0.6176  1.3954 -1.1981
  703MOL0     H94883   1.527   9.187   1.161  3.0088 -0.7522  0.0310
  703MOL0     H94884   1.575   9.347   1.092 -1.3301  2.0301  0.1842
  703MOL0     H94885   1.475   9.448   1.307  0.5046 -0.3752  0.8470
  703MOL0     H94886   1.434   9.292   1.374  1.3104  1.4399  1.9240
  703MOL0     H94887   1.608   8.537   1.350 -0.5172  1.7131  0.1516
  703MOL0     H94888   1.626   8.311   1.466 -2.4274  2.5428 -2.5549
  703MOL0     H94889   2.077   8.117   1.903 -0.9749  0.0880  1.5791
  703MOL0     H94890   2.109   7.884   1.955 -3.1557 -1.2292  2.2344
  703MOL0     H94891   1.259   7.606   0.977  0.0954  0.7632 -1.2164
  703MOL0     H94892   1.156   7.817   1.036 -0.6370 -1.3043  0.8528
  703MOL0     H94893   1.365   8.236   1.235  1.3448  1.3113  0.3774
  703MOL0     H94894   1.344   8.457   1.351 -1.1747  3.6707 -0.0468
  703MOL0     H94895   0.932   8.572   1.538 -0.9025  0.3854  2.7207
  703MOL0     H94896   1.054   8.540   1.660  1.4648 -1.6401 -2.2416
  703MOL0     H94897   1.170   8.750   1.613  0.7679 -0.0789  1.1564
  703MOL0     H94898   1.008   8.772   1.678 -0.4976 -1.6799  0.0118
  703MOL0     H94899   0.923   8.864   1.472 -0.4670  1.6037 -1.5410
  703MOL0     H94900   1.034   8.768   1.381 -2.6013 -0.9652  0.9884
  703MOL0     H94901   1.149   8.996   1.556 -1.8024  1.0523 -0.0142
  703MOL0     H94902   1.073   9.029   1.390  1.2717 -1.3115 -2.5936
  703MOL0     H94903   1.451   8.827   1.339 -0.4544 -0.5224 -0.8092
  703MOL0     H94904   0.919   8.384   1.417  0.8691 -3.3742  3.5022
  703MOL0     H94905   0.943   8.181   1.288  1.0606 -1.7608 -0.2008
  704MOL0     O94906   0.931   7.325   6.038  0.9844 -0.5196 -0.1343
  704MOL0     C94907   0.983   7.301   5.937 -0.6226  0.1715  0.3968
  704MOL0     O94908   0.916   7.265   5.826  0.0865 -0.0070 -0.0630
  704MOL0     C94909   0.781   7.247   5.831 -0.0923 -0.1728 -0.5583
  704MOL0     C94910   0.688   7.355   5.834  0.0078  0.3882  0.2063
  704MOL0     C94911   0.556   7.327   5.860  0.5766 -0.4685  0.1491
  704MOL0     C94912   0.510   7.204   5.895  0.0303 -0.7239 -0.3438
  704MOL0     O94913   0.377   7.177   5.932 -0.8220 -0.6421 -0.5684
  704MOL0     C94914   0.301   7.104   5.838  0.3156  0.0978 -1.1686
  704MOL0     C94915   0.162   7.153   5.853 -0.7957 -0.4407 -0.1591
  704MOL0     C94916   0.068   7.076   5.764 -0.5948  0.0495  0.3764
  704MOL0     C94917  -0.077   7.127   5.776 -0.0825  0.6265 -0.7997
  704MOL0     C94918  -0.127   7.105   5.926 -0.3241  0.7764  0.9002
  704MOL0     C94919  -0.279   7.120   5.913 -0.4289  0.0437 -0.3337
  704MOL0     C94920  -0.355   7.087   6.043 -0.0813 -1.5973  0.0963
  704MOL0     C94921  -0.408   6.944   6.060  0.7474  0.2579 -0.3171
  704MOL0     N94922  -0.503   6.911   5.945  0.5688  0.0070 -1.0779
  704MOL0     C94923  -0.632   6.952   5.940  0.2179  0.4935 -1.0938
  704MOL0     C94924  -0.676   6.901   5.818 -0.4636  0.0762 -0.9002
  704MOL0     C94925  -0.819   6.910   5.756  0.1629  0.3355 -0.2108
  704MOL0     C94926  -0.796   6.958   5.608  0.2633  0.2966 -0.0518
  704MOL0     C94927  -0.928   7.001   5.536  0.0364  0.2337 -0.2554
  704MOL0     C94928  -0.888   7.061   5.401 -0.6549 -0.2080  0.1082
  704MOL0     O94929  -1.000   7.086   5.314 -0.1684  0.2237 -0.2783
  704MOL0     C94930  -1.073   7.201   5.344  1.1008 -0.2000  0.6376
  704MOL0     C94931  -1.034   7.325   5.316  0.5350 -0.6833 -0.3457
  704MOL0     C94932  -1.112   7.437   5.361  0.9220 -0.2183  1.2372
  704MOL0     C94933  -1.061   7.573   5.334 -0.1012  0.0077  0.1318
  704MOL0     C94934  -1.242   7.420   5.424 -0.3841  0.9923 -0.4234
  704MOL0     C94935  -1.336   7.526   5.462 -0.0794 -0.3891 -0.1964
  704MOL0     O94936  -1.461   7.493   5.510 -0.2826  0.5417 -0.0521
  704MOL0     C94937  -1.554   7.590   5.544  0.0502  0.6716  0.4921
  704MOL0     C94938  -1.541   7.693   5.634 -0.4835  0.6499  0.4082
  704MOL0     C94939  -1.638   7.799   5.642 -0.1986  0.6857 -1.0455
  704MOL0     C94940  -1.757   7.799   5.562  0.2848 -0.2627  0.1906
  704MOL0     O94941  -1.858   7.889   5.583  0.0520 -0.1210 -0.0900
  704MOL0     C94942  -1.823   8.017   5.533  0.3693 -0.4624  0.1996
  704MOL0     C94943  -1.947   8.112   5.538 -0.0223  0.4423  0.0368
  704MOL0     C94944  -2.048   8.072   5.440 -0.0902  0.2584 -0.0742
  704MOL0     C94945  -2.178   8.153   5.458  1.0358 -0.9050  0.5045
  704MOL0     C94946  -2.263   8.148   5.328 -1.1231  0.1345 -0.4936
  704MOL0     C94947  -2.408   8.158   5.364  0.1265  0.2840  0.4158
  704MOL0     C94948  -2.496   8.154   5.243  0.6767  0.9453 -0.4237
  704MOL0     C94949  -2.511   8.019   5.180  0.1831  0.1852  0.1494
  704MOL0    Cl94950  -2.596   8.031   5.021  0.4094  0.2162  0.2959
  704MOL0     C94951  -1.770   7.689   5.470  0.1032 -0.2381  0.0379
  704MOL0     C94952  -1.670   7.584   5.467  0.0343 -0.4256 -0.4332
  704MOL0     O94953  -1.301   7.645   5.455  1.3497  0.3902  0.3190
  704MOL0     C94954  -1.272   7.288   5.465  0.0679 -1.1687 -0.6106
  704MOL0     C94955  -1.189   7.183   5.423  0.0401  0.1745  0.3269
  704MOL0     N94956  -0.570   6.834   5.757  0.3930 -0.0616 -0.8428
  704MOL0     N94957  -0.469   6.839   5.842  0.8610  0.8141 -0.3856
  704MOL0     C94958   0.603   7.097   5.898  0.2365 -0.3608 -0.1205
  704MOL0     C94959   0.733   7.114   5.853  0.0412 -1.1815 -0.6090
  704MOL0     C94960   1.130   7.333   5.942  0.0088 -0.7124  0.6263
  704MOL0     C94961   1.204   7.377   6.054  0.5693 -0.4393  0.0193
  704MOL0     C94962   1.338   7.415   6.048  0.1880  0.4020  0.3487
  704MOL0     C94963   1.403   7.399   5.935  0.0806  0.2230 -0.2328
  704MOL0     O94964   1.546   7.418   5.933 -0.0934 -0.1131 -0.0702
  704MOL0     C94965   1.609   7.490   6.047 -0.7172 -0.3781  0.6154
  704MOL0     C94966   1.755   7.504   6.007 -1.3900  0.3443  0.4489
  704MOL0     C94967   1.822   7.365   6.000 -0.2648  0.4639 -0.0111
  704MOL0     C94968   1.966   7.367   5.946  0.4908 -0.2431 -0.0053
  704MOL0     C94969   2.033   7.236   5.923  0.3114  0.4771 -0.2511
  704MOL0     C94970   2.067   7.118   5.910  0.7569  0.1829  0.1154
  704MOL0     C94971   1.344   7.334   5.830 -0.9875 -0.1043  0.2469
  704MOL0     C94972   1.207   7.313   5.829  0.0087 -0.2018 -0.5444
  704MOL0     H94973   0.707   7.460   5.811  0.8798 -0.1366 -1.7189
  704MOL0     H94974   0.484   7.408   5.868 -0.1551 -0.0911 -5.5996
  704MOL0     H94975   0.336   7.130   5.737  3.4133  2.1399  0.2626
  704MOL0     H94976   0.313   6.999   5.867 -0.4158  0.2913 -0.1158
  704MOL0     H94977   0.131   7.141   5.957  2.3495  1.8780  1.2027
  704MOL0     H94978   0.158   7.259   5.830  0.9973 -0.1580  0.6497
  704MOL0     H94979   0.094   7.103   5.661  0.3693 -0.5743  0.4358
  704MOL0     H94980   0.083   6.970   5.783  1.5024  0.0455 -0.9496
  704MOL0     H94981  -0.093   7.233   5.750  3.7737  1.6888  0.4318
  704MOL0     H94982  -0.139   7.057   5.721 -1.2245 -1.3062  2.6408
  704MOL0     H94983  -0.099   7.019   5.987  1.7454  0.3165 -0.6022
  704MOL0     H94984  -0.103   7.195   5.984 -2.7730  2.8883 -1.1273
  704MOL0     H94985  -0.306   7.218   5.875  1.1829  0.2137 -1.0955
  704MOL0     H94986  -0.321   7.051   5.839  1.0408 -1.5879  0.2881
  704MOL0     H94987  -0.286   7.097   6.127 -0.2972 -0.2940  0.1411
  704MOL0     H94988  -0.443   7.151   6.053  1.5405  0.5153  2.3055
  704MOL0     H94989  -0.446   6.924   6.161 -1.5668 -2.8741 -1.6138
  704MOL0     H94990  -0.326   6.871   6.050  0.7609 -0.2061  2.4394
  704MOL0     H94991  -0.689   7.019   6.005  0.8788  0.7423 -0.7626
  704MOL0     H94992  -0.874   6.816   5.748  0.2366  0.2026  0.7117
  704MOL0     H94993  -0.872   6.987   5.813 -0.9682  1.1325 -2.2350
  704MOL0     H94994  -0.737   6.875   5.566  1.9973  1.4306  0.0685
  704MOL0     H94995  -0.726   7.042   5.613  2.1444 -1.2654  3.8744
  704MOL0     H94996  -0.972   7.079   5.598 -1.6007 -2.8674  2.8271
  704MOL0     H94997  -0.994   6.915   5.524 -1.9241  1.6206  0.1280
  704MOL0     H94998  -0.826   6.992   5.343  0.4727 -0.3487  1.4381
  704MOL0     H94999  -0.830   7.152   5.416  2.9590 -2.1044 -1.1949
  704MOL0     H95000  -0.940   7.342   5.266  1.2621  0.7190  1.3864
  704MOL0     H95001  -1.108   7.619   5.247  1.1313  1.2413  0.0850
  704MOL0     H95002  -1.067   7.647   5.414  0.3851  1.6346 -1.2520
  704MOL0     H95003  -0.959   7.557   5.297 -0.5120 -3.2190  0.1631
  704MOL0     H95004  -1.449   7.704   5.690  0.4525 -2.3651 -0.3431
  704MOL0     H95005  -1.644   7.869   5.725 -2.5093  1.7139 -2.0004
  704MOL0     H95006  -1.745   8.053   5.601 -0.4017  3.2681 -0.6425
  704MOL0     H95007  -1.790   8.013   5.429 -0.8083 -4.7684 -0.1699
  704MOL0     H95008  -1.992   8.125   5.637 -2.1867 -1.3961 -0.6285
  704MOL0     H95009  -1.933   8.215   5.506  0.3095  0.7159  1.0110
  704MOL0     H95010  -2.078   7.968   5.457 -2.7486  1.0389  0.4682
  704MOL0     H95011  -2.002   8.096   5.344  0.1721 -2.0772 -0.6114
  704MOL0     H95012  -2.243   8.103   5.530 -1.2795  1.8580  0.5218
  704MOL0     H95013  -2.155   8.252   5.498  1.3061 -1.6654  2.3023
  704MOL0     H95014  -2.248   8.061   5.263  1.7318 -0.4022  0.7272
  704MOL0     H95015  -2.217   8.232   5.274 -0.3919  0.2342  0.2551
  704MOL0     H95016  -2.439   8.081   5.435  1.5838 -0.7288 -0.0012
  704MOL0     H95017  -2.429   8.253   5.414  2.9206  1.3443 -0.2265
  704MOL0     H95018  -2.471   8.230   5.168 -0.6971  0.3213 -1.5653
  704MOL0     H95019  -2.596   8.188   5.273  0.8563 -0.1791  1.6258
  704MOL0     H95020  -2.560   7.942   5.241 -1.4455 -0.2183 -1.6001
  704MOL0     H95021  -2.407   7.990   5.165 -0.4038 -1.0052 -1.9398
  704MOL0     H95022  -1.860   7.688   5.410  1.3249 -0.4008 -1.8924
  704MOL0     H95023  -1.677   7.504   5.394 -0.9128 -1.5183  0.7957
  704MOL0     H95024  -1.369   7.262   5.506 -0.6384  1.2698 -0.5433
  704MOL0     H95025  -1.210   7.080   5.448  0.1968  0.3891  1.3882
  704MOL0     H95026   0.568   6.999   5.930  0.8902 -1.6830 -3.0279
  704MOL0     H95027   0.802   7.030   5.859 -1.0533 -1.9758  2.0850
  704MOL0     H95028   1.149   7.389   6.147  0.6339  1.2726 -0.1327
  704MOL0     H95029   1.394   7.445   6.136  1.0506  0.0766 -0.0696
  704MOL0     H95030   1.565   7.588   6.067  1.2310 -0.2007  5.4128
  704MOL0     H95031   1.622   7.434   6.140  0.0470 -0.2390  0.6025
  704MOL0     H95032   1.812   7.569   6.075 -0.8631  0.3622  0.0006
  704MOL0     H95033   1.755   7.551   5.909  1.3292 -1.2092 -0.4096
  704MOL0     H95034   1.760   7.293   5.947  0.7105  1.0381 -2.0439
  704MOL0     H95035   1.828   7.334   6.105  1.7927 -0.7946 -0.4456
  704MOL0     H95036   2.037   7.422   6.009 -2.7733  2.2049  1.8266
  704MOL0     H95037   1.957   7.413   5.847 -0.0444 -1.5277 -0.5706
  704MOL0     H95038   2.092   7.014   5.903 -0.7318 -0.0875 -3.0582
  704MOL0     H95039   1.411   7.303   5.751  0.6960  0.8893  1.2247
  704MOL0     H95040   1.175   7.261   5.740  1.8190  0.3569 -1.5822
  705MOL0     O95041   8.500   5.371   3.122  0.2834 -0.5580  0.7403
  705MOL0     C95042   8.500   5.273   3.195  0.4032 -0.2749  0.5361
  705MOL0     O95043   8.597   5.198   3.255 -0.0172 -0.3196  1.1496
  705MOL0     C95044   8.724   5.254   3.255 -0.3455  0.8653 -0.4883
  705MOL0     C95045   8.753   5.337   3.354  0.1059  0.9429 -0.1567
  705MOL0     C95046   8.886   5.376   3.372  0.8598  0.0626 -0.6943
  705MOL0     C95047   8.982   5.342   3.283 -0.7902  0.3764  0.1827
  705MOL0     O95048   9.112   5.387   3.298  0.6503  0.0996  0.2610
  705MOL0     C95049   9.172   5.350   3.414  0.1060 -0.2145 -0.1027
  705MOL0     C95050   9.316   5.409   3.410 -0.5225 -0.2387  0.6751
  705MOL0     C95051   9.335   5.567   3.431  0.3845  0.1132  0.3982
  705MOL0     C95052   9.480   5.613   3.417  0.0937 -0.6785  0.3310
  705MOL0     C95053   9.519   5.633   3.268 -0.1249  0.6288  0.8531
  705MOL0     C95054   9.468   5.759   3.220  0.9638  0.0862 -0.3542
  705MOL0     C95055   9.522   5.798   3.076 -1.0702  0.3436 -0.7180
  705MOL0     C95056   9.500   5.946   3.044 -0.2034  0.3386  0.7020
  705MOL0     N95057   9.590   5.972   2.928  0.2333  0.4630  0.4165
  705MOL0     C95058   9.723   6.007   2.931 -0.3418  0.3868  0.6002
  705MOL0     C95059   9.750   6.043   2.800 -0.1061 -1.2600 -0.3791
  705MOL0     C95060   9.889   6.092   2.759 -0.0430  0.9962 -0.0925
  705MOL0     C95061   9.985   5.976   2.745  0.3713 -0.5080  0.1860
  705MOL0     C95062  10.131   6.023   2.717  0.5377  0.3191 -0.0133
  705MOL0     C95063  10.200   5.926   2.625  0.4385  0.6177 -0.9090
  705MOL0     O95064  10.232   5.805   2.696 -0.4843  0.2730 -0.2881
  705MOL0     C95065  10.343   5.803   2.780  0.1110 -0.5233 -0.8651
  705MOL0     C95066  10.434   5.912   2.793 -0.3320  0.3229 -0.7324
  705MOL0     C95067  10.535   5.925   2.889  0.2963  0.8002 -0.0863
  705MOL0     C95068  10.619   6.052   2.883 -0.4557  1.0722 -1.6169
  705MOL0     C95069  10.563   5.815   2.972 -0.7054 -0.9681  0.1678
  705MOL0     C95070  10.675   5.813   3.070 -0.2638 -0.7751  0.2388
  705MOL0     O95071  10.654   5.881   3.191 -0.5257  0.0160  0.4458
  705MOL0     C95072  10.768   5.901   3.275  0.1856 -0.5937  0.9150
  705MOL0     C95073  10.867   5.811   3.303  0.4420  0.7331  0.3303
  705MOL0     C95074  10.974   5.838   3.384 -0.0419  0.5441 -0.1711
  705MOL0     C95075  10.991   5.973   3.427 -0.2545  0.8426 -0.3402
  705MOL0     O95076  11.099   6.006   3.495  0.5701  0.1537 -0.0438
  705MOL0     C95077  11.127   5.927   3.611 -0.1434  0.1145 -0.3733
  705MOL0     C95078  11.226   6.002   3.697 -0.0986 -0.1868 -0.9746
  705MOL0     C95079  11.202   6.153   3.713  0.0480  0.5371  0.1290
  705MOL0     C95080  11.324   6.224   3.767  0.0843 -0.0524 -0.5462
  705MOL0     C95081  11.300   6.372   3.792  0.0415  0.3078 -0.0669
  705MOL0     C95082  11.408   6.445   3.871  1.2397  0.7238 -0.3517
  705MOL0     C95083  11.381   6.597   3.875  0.4324 -0.2996  0.7337
  705MOL0     C95084  11.478   6.665   3.973  0.7287 -0.1898 -0.0578
  705MOL0    Cl95085  11.497   6.837   3.942 -0.0254 -0.4564  0.4352
  705MOL0     C95086  10.886   6.062   3.413  0.5208 -1.2239  0.0874
  705MOL0     C95087  10.773   6.025   3.339 -0.1221 -0.2919  0.5594
  705MOL0     O95088  10.784   5.762   3.027  0.4568  0.0455 -0.5675
  705MOL0     C95089  10.469   5.709   2.968  0.0403  0.1992 -0.3871
  705MOL0     C95090  10.371   5.701   2.872 -0.7395  0.2293  0.3860
  705MOL0     N95091   9.647   5.997   2.725  0.5032  0.1404  0.3256
  705MOL0     N95092   9.551   5.959   2.800 -0.6554  0.1795  0.2921
  705MOL0     C95093   8.951   5.259   3.170  0.4673  0.2536 -0.2582
  705MOL0     C95094   8.816   5.220   3.158 -0.1537 -0.4757  0.1597
  705MOL0     C95095   8.371   5.211   3.182 -0.5730  0.2256  0.9586
  705MOL0     C95096   8.366   5.072   3.149 -0.0416 -0.7424  0.5621
  705MOL0     C95097   8.247   5.012   3.141 -0.0752  1.2966  0.8295
  705MOL0     C95098   8.130   5.085   3.173  0.0400  0.8170  0.5766
  705MOL0     O95099   8.009   5.023   3.168 -0.4812 -0.1966 -0.1002
  705MOL0     C95100   7.970   4.985   3.301  0.5274  0.3059 -0.1845
  705MOL0     C95101   7.981   4.837   3.324  0.1701  0.5479  0.9539
  705MOL0     C95102   7.904   4.790   3.448 -0.7096  0.1042  0.0296
  705MOL0     C95103   7.927   4.639   3.470  0.8151  1.2774 -0.6247
  705MOL0     C95104   7.842   4.597   3.590  0.1571 -0.2905  1.1099
  705MOL0     C95105   7.779   4.551   3.684 -0.1395  0.6233 -0.4772
  705MOL0     C95106   8.136   5.220   3.197  0.2575 -0.7179 -1.0163
  705MOL0     C95107   8.255   5.284   3.209 -0.2892 -0.1449 -0.4499
  705MOL0     H95108   8.677   5.366   3.425 -0.2317 -1.0357  0.3359
  705MOL0     H95109   8.890   5.442   3.459 -1.7688  0.1876 -0.6035
  705MOL0     H95110   9.121   5.369   3.509 -0.1456 -2.3027  0.2267
  705MOL0     H95111   9.181   5.242   3.408  1.5611 -0.1100 -0.1933
  705MOL0     H95112   9.375   5.354   3.484  0.5885 -0.8342 -0.6213
  705MOL0     H95113   9.358   5.385   3.312  1.3739 -1.5646  1.7553
  705MOL0     H95114   9.274   5.624   3.360 -0.1282 -2.2494 -1.1918
  705MOL0     H95115   9.319   5.601   3.533  3.0094 -2.6880  1.9091
  705MOL0     H95116   9.492   5.710   3.465  1.9725  0.5318 -2.2982
  705MOL0     H95117   9.535   5.543   3.480 -0.7486 -1.0896  0.6214
  705MOL0     H95118   9.629   5.635   3.263 -0.0416  3.7639  1.8673
  705MOL0     H95119   9.484   5.547   3.210  1.4483 -1.2880  2.5617
  705MOL0     H95120   9.359   5.758   3.210  0.9528  1.5636 -0.7126
  705MOL0     H95121   9.488   5.841   3.290 -1.6215  0.9597 -0.5390
  705MOL0     H95122   9.629   5.779   3.085 -1.0685 -0.3787 -1.9511
  705MOL0     H95123   9.484   5.719   3.010  0.1335 -1.8853  1.1291
  705MOL0     H95124   9.525   6.005   3.132  0.4823  1.3664 -0.1640
  705MOL0     H95125   9.395   5.961   3.018  0.4707  1.4608 -1.6354
  705MOL0     H95126   9.783   6.004   3.021  0.4730  0.8328  0.0900
  705MOL0     H95127   9.875   6.157   2.672  0.7722  3.8018  1.7451
  705MOL0     H95128   9.935   6.159   2.831  0.9794  0.3360 -0.1111
  705MOL0     H95129   9.945   5.910   2.667 -0.1659  1.4236 -1.2555
  705MOL0     H95130   9.982   5.926   2.842  1.1346  0.3305  0.6568
  705MOL0     H95131  10.173   6.015   2.817 -2.0776 -1.8917  1.0512
  705MOL0     H95132  10.144   6.122   2.674 -3.2764  1.4319  1.0569
  705MOL0     H95133  10.300   5.961   2.596  1.6825 -2.2084 -0.3954
  705MOL0     H95134  10.158   5.912   2.525  3.3917 -0.2165 -2.1620
  705MOL0     H95135  10.419   6.005   2.738 -0.7498  0.8175  0.1981
  705MOL0     H95136  10.554   6.138   2.904 -0.8162  0.1464  1.4913
  705MOL0     H95137  10.690   6.055   2.966 -3.1206 -1.0566  0.9450
  705MOL0     H95138  10.674   6.071   2.790  0.7453  0.3416 -1.0681
  705MOL0     H95139  10.868   5.720   3.243 -0.4624  1.1587 -0.3653
  705MOL0     H95140  11.058   5.769   3.387  0.3253  0.8289 -2.1809
  705MOL0     H95141  11.039   5.902   3.670  0.2724  0.6068  0.4874
  705MOL0     H95142  11.171   5.830   3.584 -0.2511 -1.1878  3.5326
  705MOL0     H95143  11.239   5.955   3.795  0.0690 -0.8075 -1.2910
  705MOL0     H95144  11.329   5.989   3.664  0.3280 -1.0842  0.5974
  705MOL0     H95145  11.110   6.163   3.772  0.6302 -0.2828  1.2095
  705MOL0     H95146  11.175   6.189   3.613  2.8585  0.3490 -0.7822
  705MOL0     H95147  11.359   6.169   3.854  0.2063  0.9376  0.0437
  705MOL0     H95148  11.413   6.221   3.704  1.5075 -1.0336  1.4054
  705MOL0     H95149  11.216   6.392   3.859  1.7306 -3.2320  3.5599
  705MOL0     H95150  11.288   6.425   3.697 -0.9821 -0.0199 -0.1287
  705MOL0     H95151  11.392   6.403   3.971 -1.3109 -0.8744 -1.3222
  705MOL0     H95152  11.506   6.408   3.839  1.2928 -0.8101  1.3961
  705MOL0     H95153  11.280   6.626   3.905  0.7192  2.3319 -0.5983
  705MOL0     H95154  11.385   6.636   3.773  0.3179 -1.0197  0.4438
  705MOL0     H95155  11.579   6.622   3.968  1.0378  0.5622 -0.5291
  705MOL0     H95156  11.447   6.652   4.077 -0.8283  2.1744 -0.1417
  705MOL0     H95157  10.912   6.164   3.440  3.1045 -1.3807 -1.3711
  705MOL0     H95158  10.704   6.107   3.321  0.5237  0.7956  2.7284
  705MOL0     H95159  10.490   5.624   3.033  0.7151 -0.7414 -1.7788
  705MOL0     H95160  10.315   5.608   2.860  0.6528 -0.7543  1.2344
  705MOL0     H95161   9.030   5.232   3.100 -1.0517  0.5806 -2.2027
  705MOL0     H95162   8.785   5.171   3.066 -2.7597 -1.0475  1.2587
  705MOL0     H95163   8.457   5.023   3.116 -0.7846 -0.8666 -1.4364
  705MOL0     H95164   8.252   4.916   3.092 -1.2628  0.6483  1.9159
  705MOL0     H95165   8.029   5.039   3.376 -0.3977  0.5730  0.3650
  705MOL0     H95166   7.864   5.009   3.314  0.4809  0.1402 -0.2670
  705MOL0     H95167   8.086   4.806   3.316  0.0054 -0.7973  3.2162
  705MOL0     H95168   7.929   4.797   3.236  3.7986 -0.5430 -0.9241
  705MOL0     H95169   7.800   4.822   3.440 -1.1940 -1.3192  0.3356
  705MOL0     H95170   7.947   4.847   3.531 -1.4496 -1.3180  1.4402
  705MOL0     H95171   8.033   4.620   3.487  0.2310  0.1353  2.1971
  705MOL0     H95172   7.898   4.578   3.383 -0.7369 -0.5009  1.0467
  705MOL0     H95173   7.709   4.543   3.764 -1.6614  1.3201 -1.6761
  705MOL0     H95174   8.047   5.281   3.208  0.9641 -0.0530  1.7926
  705MOL0     H95175   8.261   5.388   3.240 -1.0095 -0.1323 -0.3296
  706MOL0     O95176   2.287   8.896  10.796  0.4000  0.3576  0.5394
  706MOL0     C95177   2.293   8.987  10.713 -1.2734  0.5213 -0.2165
  706MOL0     O95178   2.198   9.083  10.693 -0.5620 -0.0288 -0.4630
  706MOL0     C95179   2.072   9.065  10.743 -0.4799  0.4196 -0.0950
  706MOL0     C95180   2.013   9.159  10.836 -0.1218 -0.0063  0.0329
  706MOL0     C95181   1.880   9.138  10.873 -0.5021 -0.9301 -0.1024
  706MOL0     C95182   1.805   9.039  10.824 -0.1934 -0.1288  1.2621
  706MOL0     O95183   1.676   9.010  10.846  0.1824 -0.2746 -0.8746
  706MOL0     C95184   1.613   9.080  10.949  0.1968  1.0607  0.1548
  706MOL0     C95185   1.488   9.006  11.010 -0.0825 -0.2200 -0.1594
  706MOL0     C95186   1.530   8.901  11.113 -0.2525 -0.4279  0.2892
  706MOL0     C95187   1.436   8.781  11.132 -0.4422 -0.1616 -0.2957
  706MOL0     C95188   1.495   8.665  11.221 -0.2423  0.3990  0.6045
  706MOL0     C95189   1.401   8.535  11.195 -0.4594 -0.7663  0.5520
  706MOL0     C95190   1.423   8.416  11.295 -0.2170 -0.5080 -0.2555
  706MOL0     C95191   1.347   8.290  11.256  0.1945 -0.2246  0.2030
  706MOL0     N95192   1.202   8.314  11.274 -0.9628  0.6580  0.2749
  706MOL0     C95193   1.145   8.295  11.391 -0.0425 -1.0702 -0.9583
  706MOL0     C95194   1.016   8.299  11.363  0.5323 -0.5082  0.7156
  706MOL0     C95195   0.906   8.272  11.466  0.3784 -0.1750  0.5805
  706MOL0     C95196   0.801   8.375  11.471  0.4438 -0.8586 -1.2395
  706MOL0     C95197   0.841   8.490  11.572 -1.0128 -0.4067  0.3294
  706MOL0     C95198   0.914   8.458  11.699  0.7577  0.0906 -0.1445
  706MOL0     O95199   0.838   8.365  11.780 -0.1635  0.3205  0.3911
  706MOL0     C95200   0.737   8.402  11.869 -0.1024  0.8528  1.0675
  706MOL0     C95201   0.679   8.535  11.886 -0.4481  0.5333  0.6580
  706MOL0     C95202   0.565   8.546  11.965  0.7854  0.5846 -0.6974
  706MOL0     C95203   0.506   8.680  11.983 -0.6442 -0.4085  0.2204
  706MOL0     C95204   0.497   8.427  12.018 -0.3296  0.3379  0.9380
  706MOL0     C95205   0.366   8.433  12.102 -1.0741  0.7413 -0.1654
  706MOL0     O95206   0.310   8.317  12.141 -1.0567  0.8940 -0.0732
  706MOL0     C95207   0.218   8.292  12.236 -0.4991 -0.4568 -0.5189
  706MOL0     C95208   0.196   8.378  12.343 -0.1358 -0.2616  0.4207
  706MOL0     C95209   0.097   8.344  12.430 -0.6379  0.0621 -0.6525
  706MOL0     C95210   0.021   8.225  12.420 -0.3346  0.8107  0.7505
  706MOL0     O95211  -0.059   8.169  12.516  0.3249 -0.0719  0.3172
  706MOL0     C95212  -0.024   8.201  12.654  0.0058 -0.6824  0.3630
  706MOL0     C95213  -0.090   8.091  12.738 -0.2527 -0.2226 -0.7741
  706MOL0     C95214  -0.032   8.077  12.876  0.4850 -0.8904  0.5329
  706MOL0     C95215   0.074   7.972  12.877  0.1873  0.1248 -0.4958
  706MOL0     C95216   0.141   7.967  13.015  0.2595 -0.3890  0.2382
  706MOL0     C95217   0.236   7.851  13.045 -0.4473 -0.3152  0.0451
  706MOL0     C95218   0.352   7.848  12.949  0.5388  0.6303 -0.4106
  706MOL0     C95219   0.460   7.742  13.006 -0.1036 -0.4188 -0.9233
  706MOL0    Cl95220   0.397   7.573  12.977 -0.2794 -0.3376 -0.2573
  706MOL0     C95221   0.029   8.148  12.309  0.2394 -0.4101 -0.2108
  706MOL0     C95222   0.131   8.178  12.219  0.4668 -0.2537 -0.1038
  706MOL0     O95223   0.321   8.538  12.136 -0.6753 -0.4963 -0.3467
  706MOL0     C95224   0.556   8.303  12.000 -0.8397 -0.2210 -0.2508
  706MOL0     C95225   0.681   8.291  11.923  0.0346  0.7565 -0.2442
  706MOL0     N95226   0.989   8.333  11.228 -0.3168  0.3928 -1.0097
  706MOL0     N95227   1.107   8.340  11.179  0.0438 -0.1824  0.2187
  706MOL0     C95228   1.860   8.951  10.728  0.3450 -0.0768 -0.1360
  706MOL0     C95229   1.991   8.971  10.684 -1.1376  0.2247  0.2406
  706MOL0     C95230   2.427   8.984  10.648 -0.4216  0.2870  0.8300
  706MOL0     C95231   2.460   9.093  10.562 -1.2188 -0.2513  0.3892
  706MOL0     C95232   2.585   9.083  10.490  0.0286 -1.1069 -0.4225
  706MOL0     C95233   2.673   8.978  10.522  0.7613 -0.1481 -0.0996
  706MOL0     O95234   2.801   8.954  10.480 -0.4219 -0.1313  0.4648
  706MOL0     C95235   2.833   9.010  10.351  0.4187  0.2648 -0.1841
  706MOL0     C95236   2.902   9.144  10.348  0.4980 -1.4317  0.5549
  706MOL0     C95237   2.937   9.177  10.198 -0.0659 -0.1000 -0.3714
  706MOL0     C95238   3.042   9.090  10.136 -1.2003 -0.8707  0.5113
  706MOL0     C95239   3.089   9.155  10.003 -0.6105  0.6052  0.0380
  706MOL0     C95240   3.124   9.187   9.894 -0.5785  0.2450  0.6067
  706MOL0     C95241   2.643   8.881  10.619  0.5543 -0.3845  0.5856
  706MOL0     C95242   2.512   8.874  10.676  0.3673  0.7290 -0.3638
  706MOL0     H95243   2.073   9.239  10.878 -0.7893  1.6154 -1.9191
  706MOL0     H95244   1.845   9.204  10.952 -0.4331 -1.8688  0.7312
  706MOL0     H95245   1.682   9.109  11.029  4.5476 -0.8867 -2.5196
  706MOL0     H95246   1.576   9.174  10.906  0.3815  2.0470  2.0230
  706MOL0     H95247   1.446   9.089  11.068  1.7292 -0.4060  1.5591
  706MOL0     H95248   1.415   8.969  10.938 -2.3096  2.4448  0.5405
  706MOL0     H95249   1.624   8.859  11.077  0.1206 -3.2793  3.9691
  706MOL0     H95250   1.542   8.941  11.214  2.5247 -2.8507  1.0452
  706MOL0     H95251   1.340   8.814  11.174  0.2649  1.5228  0.1111
  706MOL0     H95252   1.404   8.739  11.036 -0.7182 -1.0642  0.1801
  706MOL0     H95253   1.590   8.636  11.174 -1.8236  0.8198 -3.2947
  706MOL0     H95254   1.504   8.687  11.327 -1.8380 -0.3939  0.9295
  706MOL0     H95255   1.298   8.569  11.211 -0.2884  1.1224 -1.8005
  706MOL0     H95256   1.414   8.489  11.097  0.6443 -2.1647  1.3219
  706MOL0     H95257   1.528   8.384  11.298 -0.0289  0.1486  0.3585
  706MOL0     H95258   1.385   8.442  11.394  1.0210 -0.5711  0.2582
  706MOL0     H95259   1.378   8.207  11.320  1.3462 -2.4580 -2.9992
  706MOL0     H95260   1.369   8.272  11.150 -2.7693  1.6103 -0.8431
  706MOL0     H95261   1.196   8.272  11.483 -0.9519 -0.6213 -0.3302
  706MOL0     H95262   0.855   8.178  11.444 -1.4316  1.0962 -1.0006
  706MOL0     H95263   0.948   8.253  11.565  0.7351  1.5172  0.7791
  706MOL0     H95264   0.713   8.330  11.516  0.5524  0.8159  0.8136
  706MOL0     H95265   0.777   8.397  11.366 -1.5305  1.1344 -0.4500
  706MOL0     H95266   0.753   8.549  11.601  0.3532  2.8777 -1.6284
  706MOL0     H95267   0.901   8.558  11.511 -3.2276  1.0181 -0.3865
  706MOL0     H95268   0.923   8.553  11.752  2.8036 -0.7710  1.2203
  706MOL0     H95269   1.016   8.422  11.679  2.1726  3.8684 -0.4924
  706MOL0     H95270   0.723   8.615  11.827  2.0697 -1.6361 -0.5979
  706MOL0     H95271   0.511   8.698  12.091  0.4227 -0.4170  0.1857
  706MOL0     H95272   0.560   8.758  11.928  0.4213 -1.4247 -0.2228
  706MOL0     H95273   0.400   8.676  11.958 -1.3333  0.0854  2.8274
  706MOL0     H95274   0.248   8.468  12.375 -0.2143 -0.0742  0.0347
  706MOL0     H95275   0.058   8.404  12.511 -0.6495 -0.3673 -0.3349
  706MOL0     H95276   0.084   8.206  12.670 -0.3901  2.6960  3.4429
  706MOL0     H95277  -0.055   8.303  12.683  1.5517  0.4879 -1.8314
  706MOL0     H95278  -0.196   8.115  12.752 -0.3332 -1.0833  0.2525
  706MOL0     H95279  -0.091   7.996  12.683 -6.4508 -0.0150 -1.7231
  706MOL0     H95280  -0.116   8.063  12.945  0.3494  1.0696  0.8116
  706MOL0     H95281   0.003   8.174  12.913 -1.3151  0.6913 -1.6215
  706MOL0     H95282   0.017   7.880  12.865  2.1006 -1.0311 -1.2702
  706MOL0     H95283   0.150   7.976  12.798 -0.6798 -1.2219 -1.4263
  706MOL0     H95284   0.063   7.978  13.091  1.7042  3.0261  1.3916
  706MOL0     H95285   0.188   8.066  13.018 -0.2896 -0.1350  3.0115
  706MOL0     H95286   0.279   7.861  13.146  0.0374 -2.2789  0.0709
  706MOL0     H95287   0.162   7.771  13.039 -1.7019  0.7703  0.5735
  706MOL0     H95288   0.393   7.949  12.943  1.2038  0.4004  0.1574
  706MOL0     H95289   0.307   7.813  12.856 -2.5326 -4.6294  2.5046
  706MOL0     H95290   0.476   7.759  13.113  0.6570 -1.0098 -0.9289
  706MOL0     H95291   0.556   7.757  12.955 -0.8400  4.4358 -1.3235
  706MOL0     H95292  -0.024   8.054  12.297 -0.7223  0.1774 -0.6345
  706MOL0     H95293   0.146   8.106  12.138 -0.9156 -1.6669  0.8242
  706MOL0     H95294   0.506   8.208  12.018  0.2170 -1.4123 -3.0278
  706MOL0     H95295   0.735   8.199  11.902 -2.0283 -0.6844  0.3667
  706MOL0     H95296   1.791   8.873  10.698 -1.1157  0.9628  0.3583
  706MOL0     H95297   2.047   8.916  10.608 -0.4333  2.6927 -1.1394
  706MOL0     H95298   2.390   9.173  10.541 -0.8009  0.4093  1.4474
  706MOL0     H95299   2.602   9.169  10.426 -3.8195  1.1840  1.2962
  706MOL0     H95300   2.908   8.936  10.319 -2.8959 -3.3162 -0.4192
  706MOL0     H95301   2.755   9.011  10.275  0.1358  0.8424  0.1100
  706MOL0     H95302   2.995   9.150  10.406  0.8168  2.3795 -0.0967
  706MOL0     H95303   2.835   9.216  10.396  2.0590 -1.7074  3.3694
  706MOL0     H95304   2.974   9.279  10.212 -1.2078  0.5764 -2.0594
  706MOL0     H95305   2.847   9.174  10.136 -0.3906  1.3483 -0.0070
  706MOL0     H95306   3.008   8.990  10.110  1.8249 -1.5855 -1.1622
  706MOL0     H95307   3.123   9.086  10.209  0.2309  0.6724 -0.9156
  706MOL0     H95308   3.148   9.210   9.792  0.4492  0.4724  0.8933
  706MOL0     H95309   2.720   8.809  10.644  0.8319 -0.7272 -1.1158
  706MOL0     H95310   2.484   8.793  10.742 -1.3945  1.3661 -0.2749
  707MOL0     O95311   0.371   5.038   5.962 -0.3671 -0.2194 -0.2246
  707MOL0     C95312   0.373   4.920   5.924 -1.2175 -0.0671  0.0058
  707MOL0     O95313   0.482   4.849   5.869  0.0530 -0.4159  0.1125
  707MOL0     C95314   0.613   4.905   5.858  1.1851 -0.0764  0.7621
  707MOL0     C95315   0.665   5.012   5.927  0.3861  0.3782  0.0797
  707MOL0     C95316   0.788   5.069   5.904 -0.7624 -0.0257  0.1179
  707MOL0     C95317   0.880   5.002   5.819  0.4613 -1.0999  0.0146
  707MOL0     O95318   1.015   5.025   5.801  0.3111 -0.6189 -0.4084
  707MOL0     C95319   1.079   5.149   5.852  0.8882  0.3258 -0.1673
  707MOL0     C95320   1.199   5.182   5.763 -0.0817 -0.1856  0.3963
  707MOL0     C95321   1.168   5.260   5.627 -0.4654 -0.4349 -0.4130
  707MOL0     C95322   1.079   5.191   5.521 -1.1286 -0.1046 -1.1609
  707MOL0     C95323   1.036   5.306   5.412 -0.0532  0.4656  0.1162
  707MOL0     C95324   1.150   5.389   5.348 -0.0816  0.5839 -0.2821
  707MOL0     C95325   1.253   5.301   5.272 -0.1314  0.4654 -1.2682
  707MOL0     C95326   1.231   5.310   5.120 -0.6373  0.4576  0.1529
  707MOL0     N95327   1.353   5.302   5.042 -0.4135 -0.1423 -0.4512
  707MOL0     C95328   1.362   5.268   4.911 -0.0481 -0.8970 -0.8295
  707MOL0     C95329   1.488   5.218   4.896 -0.1891  0.2805 -1.4222
  707MOL0     C95330   1.540   5.156   4.769  0.2587  0.4520  0.0277
  707MOL0     C95331   1.557   5.007   4.795  0.6446  0.4109 -0.5423
  707MOL0     C95332   1.415   4.941   4.790 -0.2309 -0.9782 -0.0010
  707MOL0     C95333   1.418   4.790   4.795 -0.4686 -0.3505 -0.2206
  707MOL0     O95334   1.491   4.749   4.678  0.2016  0.0916  0.6077
  707MOL0     C95335   1.561   4.633   4.691 -0.6318 -0.0317 -0.2198
  707MOL0     C95336   1.501   4.512   4.650 -0.0444 -0.2635  0.7847
  707MOL0     C95337   1.566   4.387   4.638 -0.0709 -0.2086  0.4528
  707MOL0     C95338   1.487   4.264   4.596  0.0023 -0.1402 -0.0538
  707MOL0     C95339   1.714   4.386   4.663  0.3662  0.1299 -0.1793
  707MOL0     C95340   1.797   4.267   4.662  0.4749  0.3879 -0.2964
  707MOL0     O95341   1.895   4.264   4.761  0.1577 -0.2298  0.7311
  707MOL0     C95342   2.003   4.189   4.737 -0.7475  0.3036  0.6148
  707MOL0     C95343   2.065   4.189   4.612  0.5771  0.8081  0.4886
  707MOL0     C95344   2.174   4.107   4.584  0.7787 -0.5051  0.2383
  707MOL0     C95345   2.243   4.049   4.689  0.2936 -0.2406 -0.3013
  707MOL0     O95346   2.351   3.975   4.682 -0.7319  0.6244  0.3669
  707MOL0     C95347   2.437   3.983   4.562  0.8811 -0.3658  0.8893
  707MOL0     C95348   2.504   4.120   4.555 -0.4677  0.3068 -0.5557
  707MOL0     C95349   2.573   4.127   4.417 -0.0424 -0.7420  0.8666
  707MOL0     C95350   2.622   4.274   4.384 -0.0556 -0.2949  0.5104
  707MOL0     C95351   2.652   4.300   4.233  0.9025  0.3083  0.2332
  707MOL0     C95352   2.749   4.203   4.168  0.8421  0.3279 -0.2060
  707MOL0     C95353   2.852   4.273   4.070  1.0728 -0.0510 -0.1628
  707MOL0     C95354   2.793   4.277   3.937 -1.3635 -0.0363 -0.1946
  707MOL0    Cl95355   2.911   4.335   3.816 -0.0078  0.0883 -0.1826
  707MOL0     C95356   2.187   4.049   4.814 -0.0122  0.1618 -0.5787
  707MOL0     C95357   2.065   4.116   4.838 -0.5488  0.8890 -0.1397
  707MOL0     O95358   1.783   4.179   4.576  1.1854  0.5105 -0.0648
  707MOL0     C95359   1.773   4.509   4.701  0.3716  0.0898 -0.0494
  707MOL0     C95360   1.699   4.628   4.723  0.2968  0.9096  0.2652
  707MOL0     N95361   1.559   5.229   5.017  0.5899 -0.3239  0.1673
  707MOL0     N95362   1.482   5.290   5.096 -0.3909 -0.2456 -0.1336
  707MOL0     C95363   0.833   4.890   5.748  0.3860  0.3548  0.5294
  707MOL0     C95364   0.703   4.847   5.768 -0.3487  0.0976  0.0518
  707MOL0     C95365   0.243   4.847   5.931  0.1156 -0.0228  0.2092
  707MOL0     C95366   0.129   4.920   5.936  0.3293  0.2359 -0.3581
  707MOL0     C95367   0.016   4.846   5.927  0.0710  1.2086  0.0313
  707MOL0     C95368   0.003   4.704   5.899  0.3054 -0.1318 -0.2139
  707MOL0     O95369  -0.114   4.621   5.899  0.2914 -0.1307 -1.7005
  707MOL0     C95370  -0.199   4.646   6.011 -0.1073 -0.1366 -0.0130
  707MOL0     C95371  -0.310   4.537   6.027 -0.6524 -0.0718  0.1620
  707MOL0     C95372  -0.241   4.417   6.087 -0.1921  0.2488  0.1305
  707MOL0     C95373  -0.354   4.329   6.125 -0.1437  0.1454 -0.7234
  707MOL0     C95374  -0.401   4.368   6.261  1.0945 -0.0903 -0.1442
  707MOL0     C95375  -0.434   4.374   6.377  0.2825  0.4270 -0.8114
  707MOL0     C95376   0.120   4.637   5.891  0.3231 -0.5307 -0.0670
  707MOL0     C95377   0.242   4.706   5.909 -0.0477 -0.0308 -0.1948
  707MOL0     H95378   0.614   5.059   6.010  1.2958  2.8699 -0.6957
  707MOL0     H95379   0.826   5.152   5.962  1.0507 -0.1500 -0.8174
  707MOL0     H95380   1.007   5.231   5.839  0.6379 -0.2716 -3.4355
  707MOL0     H95381   1.111   5.131   5.955 -0.6795 -2.9414 -0.1110
  707MOL0     H95382   1.257   5.247   5.829  0.9987 -0.2668 -0.4424
  707MOL0     H95383   1.265   5.099   5.735  1.5997  0.2327  2.8219
  707MOL0     H95384   1.118   5.355   5.651 -1.4175 -0.8856 -0.5622
  707MOL0     H95385   1.266   5.290   5.587 -0.0021 -0.0660  0.9455
  707MOL0     H95386   1.122   5.100   5.479  0.6748  0.3637 -0.4377
  707MOL0     H95387   0.985   5.167   5.571 -0.1877  0.2955  0.9255
  707MOL0     H95388   0.976   5.268   5.328 -0.4239  2.4772 -0.5695
  707MOL0     H95389   0.964   5.373   5.458 -1.0321  1.0011 -2.0802
  707MOL0     H95390   1.100   5.457   5.277 -0.8946  0.3747  0.0751
  707MOL0     H95391   1.194   5.451   5.426 -1.7422 -0.4013  1.5324
  707MOL0     H95392   1.350   5.345   5.298 -0.7119  0.4729  1.0984
  707MOL0     H95393   1.235   5.195   5.291 -1.7588  0.6161 -1.7631
  707MOL0     H95394   1.189   5.408   5.097  1.6118  2.3697  3.4278
  707MOL0     H95395   1.169   5.225   5.090  2.4854 -2.3812  1.1971
  707MOL0     H95396   1.282   5.270   4.837 -0.9486  1.6509  0.1107
  707MOL0     H95397   1.483   5.174   4.677  3.5238  2.8238 -1.7750
  707MOL0     H95398   1.634   5.205   4.742  1.5904 -1.8412  0.2823
  707MOL0     H95399   1.597   4.993   4.896 -3.9687 -0.8366  1.3747
  707MOL0     H95400   1.621   4.973   4.713 -0.7289 -0.9548 -1.0906
  707MOL0     H95401   1.380   4.973   4.692  0.6972 -0.6402 -0.2332
  707MOL0     H95402   1.350   4.974   4.871  0.2040 -1.0395  0.3798
  707MOL0     H95403   1.318   4.747   4.785 -0.6730  0.4120 -1.8254
  707MOL0     H95404   1.461   4.761   4.891  1.0932 -0.8785 -1.0372
  707MOL0     H95405   1.399   4.511   4.613 -0.2178 -0.7286  1.2592
  707MOL0     H95406   1.541   4.238   4.505  0.4678  1.2635 -0.1951
  707MOL0     H95407   1.472   4.186   4.671  1.9878  2.1433  2.9763
  707MOL0     H95408   1.384   4.295   4.575 -0.0431 -0.6200 -0.5574
  707MOL0     H95409   2.025   4.254   4.535  4.1835  0.9197 -1.5420
  707MOL0     H95410   2.225   4.115   4.488  0.3101  5.0683  0.1021
  707MOL0     H95411   2.520   3.911   4.559  1.8650  0.7681 -0.5031
  707MOL0     H95412   2.377   3.963   4.473  1.4796 -0.9623  0.6054
  707MOL0     H95413   2.431   4.198   4.575 -1.5449 -0.9190  0.5047
  707MOL0     H95414   2.573   4.126   4.640 -2.9713 -1.6241  1.8088
  707MOL0     H95415   2.502   4.099   4.338  1.3561 -1.0154 -0.3350
  707MOL0     H95416   2.662   4.064   4.422 -0.0649 -0.8680 -0.2021
  707MOL0     H95417   2.544   4.335   4.432 -1.0383  1.3532 -2.9064
  707MOL0     H95418   2.710   4.291   4.447 -0.2336  1.6235  0.3010
  707MOL0     H95419   2.699   4.399   4.229  3.4528 -0.8271 -2.5260
  707MOL0     H95420   2.556   4.297   4.182  1.6176  2.5028 -1.4536
  707MOL0     H95421   2.807   4.159   4.249 -2.5492 -0.4086  2.0420
  707MOL0     H95422   2.689   4.125   4.119  0.9542  0.9870 -1.4291
  707MOL0     H95423   2.942   4.212   4.078  1.3913  0.5717  1.4599
  707MOL0     H95424   2.865   4.372   4.113  0.6578 -0.6532  1.4198
  707MOL0     H95425   2.707   4.344   3.936  0.8135  3.0440  1.3151
  707MOL0     H95426   2.764   4.174   3.911 -1.7433 -0.4116  1.5834
  707MOL0     H95427   2.244   4.001   4.893 -2.6175  2.3576  2.9203
  707MOL0     H95428   2.012   4.110   4.933 -3.1844 -1.7929 -1.6035
  707MOL0     H95429   1.880   4.503   4.719  0.4291  1.3264  0.1443
  707MOL0     H95430   1.744   4.721   4.756 -0.9982  1.7266 -0.2086
  707MOL0     H95431   0.902   4.838   5.683  0.3115  1.1103 -0.1770
  707MOL0     H95432   0.652   4.763   5.723 -3.0711 -0.2185  3.3096
  707MOL0     H95433   0.109   5.027   5.942 -2.7505  0.0974 -4.3554
  707MOL0     H95434  -0.082   4.893   5.931 -0.3717  0.2610  1.7921
  707MOL0     H95435  -0.134   4.653   6.099 -0.6469 -2.2592  0.5900
  707MOL0     H95436  -0.249   4.742   5.999  1.7432  0.6867 -1.9170
  707MOL0     H95437  -0.353   4.527   5.926 -1.7625  1.1364  0.4825
  707MOL0     H95438  -0.384   4.577   6.096  0.6730  3.2669 -0.1660
  707MOL0     H95439  -0.175   4.444   6.170  0.5756  0.8761 -0.6629
  707MOL0     H95440  -0.187   4.352   6.018  1.4083 -2.6264  3.7324
  707MOL0     H95441  -0.313   4.230   6.146  0.4210  0.8974  2.0567
  707MOL0     H95442  -0.435   4.325   6.051 -0.5861  0.9596 -0.2980
  707MOL0     H95443  -0.467   4.366   6.478 -1.8368 -1.3625 -1.5837
  707MOL0     H95444   0.117   4.532   5.865 -2.4076 -0.0663 -2.0504
  707MOL0     H95445   0.336   4.653   5.902  0.5980  1.1036 -0.1832
  708MOL0     O95446   0.167   0.278   5.598 -0.2572 -0.3405 -0.1689
  708MOL0     C95447   0.205   0.187   5.670 -0.5931  0.3543  0.7516
  708MOL0     O95448   0.119   0.100   5.738  0.7908 -0.5817  0.9587
  708MOL0     C95449  -0.017   0.110   5.738 -0.5452  0.0617  0.6227
  708MOL0     C95450  -0.087   0.232   5.733 -0.2976  1.0685 -0.2341
  708MOL0     C95451  -0.226   0.229   5.741  0.2524  0.3857 -0.5219
  708MOL0     C95452  -0.309   0.110   5.740  0.0590 -0.4720 -0.2615
  708MOL0     O95453  -0.448   0.110   5.716  0.4052  0.3203 -0.2188
  708MOL0     C95454  -0.530  -0.011   5.760 -0.5215 -1.1967  0.2602
  708MOL0     C95455  -0.669   0.047   5.768 -0.1532  0.3916  0.1244
  708MOL0     C95456  -0.771  -0.060   5.797 -0.2442 -0.0216 -1.0697
  708MOL0     C95457  -0.914  -0.010   5.755  0.2170 -0.5723  0.0736
  708MOL0     C95458  -1.036  -0.085   5.812  0.3468  0.0283 -0.1993
  708MOL0     C95459  -1.158  -0.026   5.754  0.4509 -1.0944  0.4217
  708MOL0     C95460  -1.290  -0.059   5.812  0.7763 -0.0214 -1.1912
  708MOL0     C95461  -1.394   0.036   5.769  0.9837  0.0012  0.1523
  708MOL0     N95462  -1.532  -0.018   5.793  0.3330  0.0746 -1.0968
  708MOL0     C95463  -1.585  -0.027   5.920 -0.4194 -0.3272  0.5776
  708MOL0     C95464  -1.696  -0.096   5.896  0.6577 -0.1367  0.2205
  708MOL0     C95465  -1.811  -0.128   5.990  0.4752  1.0705 -0.0372
  708MOL0     C95466  -1.759  -0.183   6.124 -0.0072 -0.8933  0.5229
  708MOL0     C95467  -1.885  -0.207   6.212 -0.7442  0.4740  0.4929
  708MOL0     C95468  -1.968  -0.080   6.246 -0.2464 -0.6313 -0.0743
  708MOL0     O95469  -2.061  -0.056   6.147  0.5924  0.2641  0.8139
  708MOL0     C95470  -2.163   0.034   6.147 -0.7779 -0.6370  0.8772
  708MOL0     C95471  -2.157   0.154   6.218  0.5179  0.0158 -0.3766
  708MOL0     C95472  -2.266   0.248   6.212  0.5700 -0.4598  0.1709
  708MOL0     C95473  -2.262   0.367   6.308 -0.4161  0.4260  0.1026
  708MOL0     C95474  -2.379   0.222   6.125 -1.0120 -0.0016  0.7286
  708MOL0     C95475  -2.489   0.319   6.094 -0.2692 -0.0722  0.8366
  708MOL0     O95476  -2.558   0.310   5.971 -0.5982  0.4788  0.6444
  708MOL0     C95477  -2.667   0.395   5.944  0.2626 -0.5978  0.2601
  708MOL0     C95478  -2.683   0.492   5.845 -0.3669 -0.4455  0.2864
  708MOL0     C95479  -2.800   0.562   5.812  0.6474 -0.0063  0.5549
  708MOL0     C95480  -2.906   0.553   5.901 -0.2352  0.7422 -0.4736
  708MOL0     O95481  -3.017   0.635   5.889 -0.3692  0.4247  1.0416
  708MOL0     C95482  -3.060   0.701   6.012 -0.3744 -0.2726  0.8564
  708MOL0     C95483  -3.166   0.805   5.961 -0.0170 -0.5499 -0.3323
  708MOL0     C95484  -3.242   0.886   6.070  0.5249 -0.9961  0.3956
  708MOL0     C95485  -3.149   0.992   6.145 -0.2420  0.9201  0.4854
  708MOL0     C95486  -3.227   1.099   6.224  0.2660  0.8078  0.9129
  708MOL0     C95487  -3.119   1.197   6.272 -1.0474 -0.9795  0.3699
  708MOL0     C95488  -3.181   1.329   6.317  0.2271 -0.3402 -0.4916
  708MOL0     C95489  -3.090   1.405   6.415 -0.4317  0.7344 -0.3479
  708MOL0    Cl95490  -3.089   1.580   6.393  0.1301 -0.0321  0.4713
  708MOL0     C95491  -2.902   0.461   6.008  0.3627  0.1339 -0.8159
  708MOL0     C95492  -2.785   0.385   6.022 -0.1783 -1.0250  0.1416
  708MOL0     O95493  -2.512   0.407   6.174 -0.0555 -0.3299 -0.3552
  708MOL0     C95494  -2.370   0.102   6.047  0.6245 -0.9096  0.5772
  708MOL0     C95495  -2.273  -0.000   6.075 -0.9938 -0.2477  0.9604
  708MOL0     N95496  -1.704  -0.138   5.764  0.3939 -0.0065  0.5756
  708MOL0     N95497  -1.611  -0.078   5.698  0.4523  0.4779  0.8699
  708MOL0     C95498  -0.230  -0.005   5.746 -0.6076  0.5253 -0.5237
  708MOL0     C95499  -0.090  -0.009   5.760  0.1865 -0.2991  1.0924
  708MOL0     C95500   0.345   0.178   5.706 -0.3893  0.0408 -0.0113
  708MOL0     C95501   0.449   0.272   5.662  0.2715  0.1617  0.0883
  708MOL0     C95502   0.578   0.264   5.712  0.2155 -0.6951 -0.4975
  708MOL0     C95503   0.619   0.168   5.795 -0.5085 -0.0743 -0.0791
  708MOL0     O95504   0.753   0.164   5.840  0.7132  0.5130 -0.0099
  708MOL0     C95505   0.815   0.059   5.919  0.0852 -0.1704 -0.2590
  708MOL0     C95506   0.951   0.123   5.962 -0.1570  0.4016 -0.1442
  708MOL0     C95507   1.058   0.118   5.847 -0.1263  0.7641 -0.5378
  708MOL0     C95508   1.171   0.019   5.875  0.1799  0.6496  0.3692
  708MOL0     C95509   1.244   0.064   5.996 -0.2128 -0.1942 -0.3620
  708MOL0     C95510   1.300   0.088   6.098 -0.2777  0.7547  0.0250
  708MOL0     C95511   0.529   0.064   5.818 -0.7342 -0.1782 -0.6151
  708MOL0     C95512   0.396   0.068   5.774  0.1424 -0.4306  0.2697
  708MOL0     H95513  -0.040   0.329   5.745  2.4795 -0.4053  2.0098
  708MOL0     H95514  -0.266   0.329   5.728  1.0806  1.1624  2.1363
  708MOL0     H95515  -0.521  -0.082   5.678 -1.6344  1.1733 -2.0572
  708MOL0     H95516  -0.509  -0.053   5.859 -6.2506 -0.7401  2.0278
  708MOL0     H95517  -0.669   0.117   5.852  3.6460 -2.1595  2.6202
  708MOL0     H95518  -0.689   0.099   5.674  0.3875 -1.1559 -0.8861
  708MOL0     H95519  -0.748  -0.151   5.742  2.2561  0.7148 -1.3807
  708MOL0     H95520  -0.771  -0.084   5.904 -3.5904 -1.3316 -1.2388
  708MOL0     H95521  -0.924   0.094   5.787 -0.4829 -0.6542  0.1438
  708MOL0     H95522  -0.916  -0.015   5.646  1.1782 -2.8133  0.1087
  708MOL0     H95523  -1.029  -0.190   5.781  1.4829  0.3045 -0.9650
  708MOL0     H95524  -1.020  -0.079   5.920 -0.3396  0.9116 -0.1377
  708MOL0     H95525  -1.151   0.083   5.757  0.7580 -1.1369  2.6663
  708MOL0     H95526  -1.168  -0.048   5.647  2.0315 -1.1404  0.2691
  708MOL0     H95527  -1.314  -0.162   5.783 -2.3312  0.6403 -1.3508
  708MOL0     H95528  -1.291  -0.055   5.921  2.7149 -2.9428 -0.9584
  708MOL0     H95529  -1.389   0.063   5.663 -1.5182  3.0961  0.6618
  708MOL0     H95530  -1.375   0.130   5.821 -0.2388  1.2833 -1.5862
  708MOL0     H95531  -1.540   0.017   6.009 -2.0121  0.0279  1.2577
  708MOL0     H95532  -1.860  -0.032   6.009  0.6554  1.8052 -2.7643
  708MOL0     H95533  -1.886  -0.195   5.947 -1.8678  1.4395  3.0987
  708MOL0     H95534  -1.688  -0.112   6.168  0.0464  0.3604 -1.4762
  708MOL0     H95535  -1.697  -0.273   6.113  3.0203  1.0992 -0.0268
  708MOL0     H95536  -1.845  -0.244   6.307  0.3064 -0.7627 -0.3845
  708MOL0     H95537  -1.952  -0.280   6.166 -0.3831 -0.0660  0.8165
  708MOL0     H95538  -1.900   0.005   6.256 -0.0630 -0.7967  0.0652
  708MOL0     H95539  -2.022  -0.102   6.338 -0.4740 -2.0650 -0.5314
  708MOL0     H95540  -2.073   0.182   6.280  0.0567 -0.5899  0.5629
  708MOL0     H95541  -2.274   0.462   6.255 -0.0622  0.2203 -0.3538
  708MOL0     H95542  -2.332   0.363   6.392 -0.8228  6.2847  0.4669
  708MOL0     H95543  -2.163   0.387   6.350  0.1845 -2.4790  0.2179
  708MOL0     H95544  -2.591   0.503   5.788 -0.3496  0.6642  0.5034
  708MOL0     H95545  -2.813   0.628   5.726 -0.0171  3.0466  2.8331
  708MOL0     H95546  -3.118   0.652   6.090  0.2769 -0.7182  1.0722
  708MOL0     H95547  -2.978   0.752   6.064 -0.4139  2.8223 -1.7987
  708MOL0     H95548  -3.121   0.875   5.890  1.3093  0.6472  1.5740
  708MOL0     H95549  -3.243   0.755   5.902 -0.0922 -0.4117 -0.3496
  708MOL0     H95550  -3.283   0.826   6.152 -0.2683 -1.3207 -0.2193
  708MOL0     H95551  -3.321   0.941   6.017 -1.1335 -1.0167  2.7033
  708MOL0     H95552  -3.080   0.940   6.212 -0.3763 -3.2144 -2.2558
  708MOL0     H95553  -3.087   1.034   6.065 -0.1417  0.0668  0.1121
  708MOL0     H95554  -3.274   1.061   6.315 -0.1552  1.9942  1.2016
  708MOL0     H95555  -3.297   1.132   6.147  0.6547 -0.1037  0.1386
  708MOL0     H95556  -3.063   1.140   6.346  1.3186 -3.1283 -2.8072
  708MOL0     H95557  -3.049   1.225   6.193 -1.1099 -1.8324  0.0092
  708MOL0     H95558  -3.277   1.316   6.367  1.7244 -1.1988  2.3566
  708MOL0     H95559  -3.188   1.401   6.234  3.6394  2.6279  1.5226
  708MOL0     H95560  -2.986   1.374   6.402 -0.0807 -0.1633  3.3327
  708MOL0     H95561  -3.118   1.384   6.519  1.2261  0.9325  0.1651
  708MOL0     H95562  -2.988   0.446   6.072  1.8026  2.0765  1.7824
  708MOL0     H95563  -2.791   0.299   6.087  0.5691 -2.5385 -1.6987
  708MOL0     H95564  -2.445   0.064   5.979 -0.6652  1.1071  0.8083
  708MOL0     H95565  -2.273  -0.089   6.013  0.0111  1.4195 -1.6070
  708MOL0     H95566  -0.291  -0.095   5.742 -1.5855  1.0786  0.9656
  708MOL0     H95567  -0.044  -0.106   5.777  3.6135  0.9157 -0.2820
  708MOL0     H95568   0.431   0.359   5.599  2.5103 -0.3295 -1.3373
  708MOL0     H95569   0.654   0.332   5.676  0.8115 -0.5760  0.9349
  708MOL0     H95570   0.753   0.034   6.006  1.2467  3.0831  1.7040
  708MOL0     H95571   0.827  -0.030   5.857  0.4838 -0.4878  0.2644
  708MOL0     H95572   0.991   0.062   6.043 -1.4688 -1.6280 -0.9387
  708MOL0     H95573   0.930   0.221   6.007 -2.6016  0.6393 -1.6165
  708MOL0     H95574   1.096   0.220   5.837  1.7823  0.0547 -0.9301
  708MOL0     H95575   1.008   0.083   5.755 -0.4564 -1.8035  0.5270
  708MOL0     H95576   1.236   0.011   5.787 -1.4709  1.8005 -1.0230
  708MOL0     H95577   1.140  -0.083   5.897 -3.4789  0.7544 -3.1770
  708MOL0     H95578   1.350   0.099   6.193 -1.3679  0.4722  0.6421
  708MOL0     H95579   0.560  -0.018   5.881 -2.0329 -0.5189 -0.4043
  708MOL0     H95580   0.332  -0.017   5.793  1.2126 -0.9272  1.8750
  709MOL0     O95581   6.082   3.637   8.278  0.0606 -1.2313  1.0712
  709MOL0     C95582   6.181   3.680   8.332 -0.3919  0.5060  0.0278
  709MOL0     O95583   6.182   3.781   8.430 -0.3344 -0.7376 -0.5875
  709MOL0     C95584   6.076   3.870   8.436 -0.4835  0.4306  0.1937
  709MOL0     C95585   6.112   4.003   8.428  0.2120 -0.3754  0.0563
  709MOL0     C95586   6.018   4.099   8.431  0.9216 -1.2983  0.0477
  709MOL0     C95587   5.884   4.065   8.434  0.0416 -0.8010 -0.2606
  709MOL0     O95588   5.789   4.166   8.423 -0.6008 -0.2082  0.3339
  709MOL0     C95589   5.660   4.149   8.488  0.0228  0.7227 -0.0146
  709MOL0     C95590   5.571   4.074   8.395 -0.5572  0.0199  0.2026
  709MOL0     C95591   5.450   4.005   8.455 -0.2529 -0.8401 -0.6035
  709MOL0     C95592   5.353   4.101   8.512  0.0689  0.7152  0.7205
  709MOL0     C95593   5.230   4.039   8.580 -0.1320 -0.1040  0.5204
  709MOL0     C95594   5.132   4.158   8.609 -0.4500 -0.2384 -0.3506
  709MOL0     C95595   5.015   4.114   8.698 -0.1027 -0.2166  1.3140
  709MOL0     C95596   4.909   4.055   8.616  0.6650 -1.5545 -1.1921
  709MOL0     N95597   4.791   4.043   8.704 -0.2225 -0.2055 -0.1679
  709MOL0     C95598   4.689   4.134   8.728 -1.3034 -0.7277  0.5247
  709MOL0     C95599   4.600   4.066   8.805 -0.0295  0.2225  0.8147
  709MOL0     C95600   4.484   4.121   8.887  0.7618  0.3706  0.1322
  709MOL0     C95601   4.399   4.018   8.959  0.0762  0.3598 -0.2736
  709MOL0     C95602   4.312   4.085   9.062 -0.0327 -0.0950  0.3290
  709MOL0     C95603   4.208   3.992   9.122 -0.1876 -0.2753 -0.0647
  709MOL0     O95604   4.103   3.981   9.021  0.6029  0.9153  0.5521
  709MOL0     C95605   3.967   3.974   9.055 -0.5220 -0.7599 -0.1578
  709MOL0     C95606   3.924   3.951   9.191  0.0489 -1.3665  0.6139
  709MOL0     C95607   3.793   3.971   9.228 -0.4053 -0.1004 -0.2857
  709MOL0     C95608   3.760   3.946   9.375  0.2291  0.1080  0.0380
  709MOL0     C95609   3.690   4.006   9.135 -0.3580 -0.3692  1.0109
  709MOL0     C95610   3.547   4.048   9.156 -0.7586 -0.6289 -0.5030
  709MOL0     O95611   3.464   4.041   9.047 -1.0164  0.2674  0.4662
  709MOL0     C95612   3.329   4.044   9.071  0.7871 -0.0575 -0.6620
  709MOL0     C95613   3.246   3.939   9.014 -0.5821 -0.3811 -0.0362
  709MOL0     C95614   3.103   3.959   9.023 -0.1836  1.1013  0.6149
  709MOL0     C95615   3.049   4.052   9.105  0.2377 -0.0193 -0.3415
  709MOL0     O95616   2.915   4.073   9.136  0.1412  0.3751  0.6759
  709MOL0     C95617   2.823   3.964   9.142  0.4209  0.2403 -0.1589
  709MOL0     C95618   2.859   3.878   9.269  0.1020  0.1989 -0.2109
  709MOL0     C95619   2.823   3.959   9.393 -0.6908  0.8016  0.2108
  709MOL0     C95620   2.838   3.880   9.527 -0.6192 -0.2796  0.8733
  709MOL0     C95621   2.818   3.959   9.653  0.7931  0.1367  0.7305
  709MOL0     C95622   2.690   4.037   9.643 -0.3162 -0.3776 -0.6294
  709MOL0     C95623   2.663   4.093   9.785 -0.8085  0.4774 -0.9486
  709MOL0     C95624   2.553   4.201   9.793 -0.4457 -0.6659 -0.3433
  709MOL0    Cl95625   2.396   4.129   9.775 -0.3619 -0.1349  0.0258
  709MOL0     C95626   3.130   4.152   9.144 -0.8564  0.0791 -0.3236
  709MOL0     C95627   3.265   4.148   9.131 -0.4693  0.1529 -0.9813
  709MOL0     O95628   3.520   4.088   9.263 -0.2067 -0.3892  0.5475
  709MOL0     C95629   3.732   4.015   9.000  0.7954 -0.1570 -0.3880
  709MOL0     C95630   3.866   3.990   8.963  0.3323  0.6556  0.1630
  709MOL0     N95631   4.652   3.939   8.829 -0.4217  0.7314  0.4959
  709MOL0     N95632   4.766   3.926   8.773  0.1794 -0.0573 -0.1936
  709MOL0     C95633   5.843   3.926   8.459  0.6498  0.2062 -0.0681
  709MOL0     C95634   5.944   3.835   8.456 -0.0290  0.9626 -0.1672
  709MOL0     C95635   6.303   3.610   8.312  0.1465 -0.1916  0.0503
  709MOL0     C95636   6.419   3.641   8.389  1.2572 -0.3815 -0.0520
  709MOL0     C95637   6.540   3.579   8.361 -0.3739 -0.4544 -0.7584
  709MOL0     C95638   6.565   3.505   8.250  0.6403  0.3225 -1.2603
  709MOL0     O95639   6.687   3.450   8.218 -0.3156  0.2325 -0.0143
  709MOL0     C95640   6.731   3.457   8.084 -0.8950  0.9509 -0.5017
  709MOL0     C95641   6.718   3.603   8.012  0.8199  1.2482  0.1401
  709MOL0     C95642   6.846   3.687   8.013  0.1562  0.5681 -0.4857
  709MOL0     C95643   6.852   3.791   7.898  0.8263 -1.1405 -0.2190
  709MOL0     C95644   6.968   3.885   7.896  0.1457  0.2110 -0.2821
  709MOL0     C95645   7.052   3.968   7.905 -0.1543  0.2972 -0.4672
  709MOL0     C95646   6.453   3.471   8.179 -0.6756 -0.0475 -0.3252
  709MOL0     C95647   6.318   3.523   8.199 -0.1985 -0.1947  0.4062
  709MOL0     H95648   6.219   4.022   8.425  0.1799 -0.2580 -0.3373
  709MOL0     H95649   6.051   4.202   8.429 -1.4471 -0.4986 -0.9098
  709MOL0     H95650   5.683   4.097   8.582 -1.0100  1.2024  0.5132
  709MOL0     H95651   5.624   4.251   8.499  1.5931  1.1338  1.8426
  709MOL0     H95652   5.535   4.158   8.335 -1.5887  2.3630  3.7831
  709MOL0     H95653   5.638   4.006   8.341  1.7040  2.2500  0.0293
  709MOL0     H95654   5.405   3.946   8.374 -1.8887 -2.5303  1.4277
  709MOL0     H95655   5.473   3.929   8.530 -1.5460  0.5557  1.2944
  709MOL0     H95656   5.415   4.158   8.582  1.1931 -1.0672  1.2222
  709MOL0     H95657   5.314   4.168   8.434 -0.2184 -0.3475 -0.0669
  709MOL0     H95658   5.180   3.981   8.502 -1.3993 -2.6252  3.0261
  709MOL0     H95659   5.254   3.981   8.670  0.8141  0.7856  0.8483
  709MOL0     H95660   5.189   4.234   8.663 -0.9004  0.3694 -0.7079
  709MOL0     H95661   5.095   4.199   8.514 -1.2252 -1.0192 -0.3995
  709MOL0     H95662   5.057   4.045   8.772  1.8709 -1.1306 -0.5647
  709MOL0     H95663   4.987   4.209   8.745 -2.1665  1.7999 -3.3339
  709MOL0     H95664   4.945   3.965   8.564  2.2360  0.1209 -3.1619
  709MOL0     H95665   4.888   4.122   8.533  1.7391  0.0628 -0.2126
  709MOL0     H95666   4.690   4.241   8.705  0.6328 -0.6121  0.9438
  709MOL0     H95667   4.513   4.206   8.949 -1.4709  0.4545  1.1863
  709MOL0     H95668   4.412   4.165   8.817  0.6269 -0.6266 -0.3768
  709MOL0     H95669   4.462   3.944   9.009 -1.5796 -1.2600 -0.4790
  709MOL0     H95670   4.338   3.965   8.886  0.1996  0.6065 -0.5575
  709MOL0     H95671   4.268   4.172   9.012  1.5277  0.8780  0.5780
  709MOL0     H95672   4.378   4.126   9.139  1.1010 -0.9153 -0.1790
  709MOL0     H95673   4.175   4.048   9.209 -0.0056  0.4736 -0.4684
  709MOL0     H95674   4.264   3.902   9.151  0.9183  1.5050  3.9453
  709MOL0     H95675   3.997   3.947   9.271  0.6819  0.4919  0.1885
  709MOL0     H95676   3.833   3.875   9.416 -2.3169 -1.2183  2.6669
  709MOL0     H95677   3.768   4.042   9.427  1.2100  0.3213 -0.4904
  709MOL0     H95678   3.657   3.916   9.398 -0.8480 -0.1446 -4.2487
  709MOL0     H95679   3.295   3.852   8.970 -0.1192 -2.2493  3.7422
  709MOL0     H95680   3.035   3.905   8.958 -0.0875  2.1122 -0.3405
  709MOL0     H95681   2.715   3.981   9.141  0.4157  0.2239  0.1723
  709MOL0     H95682   2.843   3.901   9.054 -3.0397  0.3656 -1.1884
  709MOL0     H95683   2.808   3.781   9.270 -0.8415  0.6527 -1.5332
  709MOL0     H95684   2.967   3.860   9.263  0.3775  1.6226  0.1603
  709MOL0     H95685   2.723   4.002   9.381 -1.2717 -0.1514  1.5005
  709MOL0     H95686   2.903   4.033   9.386 -0.3043  0.3318 -0.4813
  709MOL0     H95687   2.765   3.799   9.524 -0.7500 -0.1568  0.6763
  709MOL0     H95688   2.937   3.835   9.528 -0.7332 -0.7537 -2.1600
  709MOL0     H95689   2.902   4.023   9.679  0.1955  0.8463  0.9301
  709MOL0     H95690   2.801   3.885   9.732  0.0841 -0.6280 -0.1115
  709MOL0     H95691   2.697   4.118   9.570  0.4718  2.0631  1.9687
  709MOL0     H95692   2.613   3.964   9.618  1.5486 -3.4750  1.7771
  709MOL0     H95693   2.750   4.144   9.827 -1.2641 -1.0192  2.1089
  709MOL0     H95694   2.649   4.011   9.856 -0.4282  2.5658  1.6684
  709MOL0     H95695   2.568   4.270   9.710 -0.9258 -0.8884 -0.6169
  709MOL0     H95696   2.556   4.248   9.892 -1.6461  0.8534 -0.9949
  709MOL0     H95697   3.088   4.239   9.193  0.0761  0.0683  0.5106
  709MOL0     H95698   3.319   4.232   9.174  0.9766 -0.8661 -0.7143
  709MOL0     H95699   3.665   4.040   8.919  1.3796  0.5521 -0.6640
  709MOL0     H95700   3.894   4.004   8.859 -3.4499  2.0493 -0.8368
  709MOL0     H95701   5.740   3.892   8.468  0.6055  0.0494 -1.1328
  709MOL0     H95702   5.921   3.729   8.450  1.3139  0.7121 -1.3497
  709MOL0     H95703   6.426   3.714   8.469  0.0594  0.1628 -0.4099
  709MOL0     H95704   6.619   3.606   8.431 -0.6078  1.9732 -1.3116
  709MOL0     H95705   6.836   3.426   8.087 -0.7423  1.5210  1.0745
  709MOL0     H95706   6.685   3.378   8.024  4.6142 -1.3136 -2.4560
  709MOL0     H95707   6.631   3.654   8.054  0.6585 -1.0696  2.9231
  709MOL0     H95708   6.687   3.584   7.908 -2.0398  0.9425  0.9506
  709MOL0     H95709   6.936   3.626   8.002  1.0137  1.7418 -0.2040
  709MOL0     H95710   6.840   3.725   8.115 -1.0980 -2.9113  0.8847
  709MOL0     H95711   6.759   3.850   7.904  0.6752 -1.4552  0.6654
  709MOL0     H95712   6.845   3.731   7.807 -2.7101 -2.6682  0.8597
  709MOL0     H95713   7.124   4.045   7.926 -0.3092 -0.1626  1.9734
  709MOL0     H95714   6.461   3.405   8.093  1.2692 -1.1805  0.6499
  709MOL0     H95715   6.239   3.488   8.134 -0.0734 -2.4641  1.3655
  710MOL0     O95716   1.144   0.519   2.753  0.1891 -0.3125  0.3298
  710MOL0     C95717   1.142   0.606   2.838 -0.9963  0.3676 -0.2008
  710MOL0     O95718   1.246   0.630   2.920 -0.1633  0.2765 -0.3718
  710MOL0     C95719   1.362   0.555   2.916  0.2489  1.0461 -0.3402
  710MOL0     C95720   1.370   0.434   2.996  0.3395 -0.0491  0.4220
  710MOL0     C95721   1.493   0.365   3.001  0.5494  0.4106  0.4851
  710MOL0     C95722   1.607   0.418   2.929  0.9474  0.9576  0.0259
  710MOL0     O95723   1.726   0.351   2.927  0.2028 -0.1873 -0.6014
  710MOL0     C95724   1.759   0.286   2.810  0.1146 -0.6796  0.2023
  710MOL0     C95725   1.899   0.214   2.821  0.2208 -0.2346  0.4559
  710MOL0     C95726   2.017   0.304   2.829  0.2337 -0.0880 -0.6284
  710MOL0     C95727   2.146   0.219   2.809  0.0385 -0.6794 -0.0951
  710MOL0     C95728   2.270   0.307   2.758  0.2956 -0.1274 -0.8691
  710MOL0     C95729   2.353   0.377   2.867  1.1723  0.0141  0.1779
  710MOL0     C95730   2.456   0.465   2.806  0.3183  0.9256  0.2069
  710MOL0     C95731   2.519   0.558   2.911  0.3794  0.4116 -0.0510
  710MOL0     N95732   2.635   0.633   2.874 -1.2327 -0.4207 -0.1145
  710MOL0     C95733   2.742   0.574   2.800  0.1834  0.7643  0.0232
  710MOL0     C95734   2.833   0.673   2.803 -0.9351 -0.0376 -0.1871
  710MOL0     C95735   2.972   0.663   2.758 -0.4158 -0.0954  0.0449
  710MOL0     C95736   3.052   0.555   2.815 -0.0909  0.2523 -0.0117
  710MOL0     C95737   3.198   0.540   2.761  0.3659 -0.0515  0.3700
  710MOL0     C95738   3.289   0.661   2.785  0.2132  0.5250 -0.2336
  710MOL0     O95739   3.414   0.622   2.747 -0.1975 -0.3859  1.1288
  710MOL0     C95740   3.500   0.718   2.705  0.6611 -0.5464  1.6069
  710MOL0     C95741   3.529   0.829   2.777  0.3016 -0.3624  0.2505
  710MOL0     C95742   3.629   0.914   2.742 -0.1272 -1.3087  0.3664
  710MOL0     C95743   3.655   1.035   2.821 -0.7596 -0.8708  0.7741
  710MOL0     C95744   3.700   0.885   2.629 -0.3873  0.3356 -0.5968
  710MOL0     C95745   3.797   0.980   2.568  0.1136 -0.3342 -1.0100
  710MOL0     O95746   3.912   0.919   2.518 -0.9736 -0.3411  0.1560
  710MOL0     C95747   4.031   0.990   2.520  0.1352 -0.0608 -0.8368
  710MOL0     C95748   4.101   1.025   2.640  0.3084  0.6048 -0.0052
  710MOL0     C95749   4.235   1.067   2.634  0.2019 -0.2962 -0.1037
  710MOL0     C95750   4.302   1.057   2.511  0.2518 -0.4268 -0.7253
  710MOL0     O95751   4.436   1.073   2.512  0.0717  0.1190  0.2916
  710MOL0     C95752   4.492   1.209   2.518  0.3154 -0.3639 -0.0121
  710MOL0     C95753   4.596   1.216   2.633 -0.5233 -1.1500 -1.1961
  710MOL0     C95754   4.665   1.356   2.661  0.5820  0.1351  0.2710
  710MOL0     C95755   4.791   1.355   2.737 -0.0960  0.1212 -0.2782
  710MOL0     C95756   4.812   1.492   2.788 -0.0960 -0.3072  0.2400
  710MOL0     C95757   4.939   1.484   2.874 -0.1013 -0.5458 -0.2527
  710MOL0     C95758   4.997   1.627   2.892 -0.1635 -0.1374 -0.0067
  710MOL0     C95759   5.108   1.659   3.001  0.5744  0.7909  0.9247
  710MOL0    Cl95760   5.098   1.835   3.036  0.1108 -0.0207  0.4926
  710MOL0     C95761   4.237   1.033   2.399 -0.4574  0.3436  0.1337
  710MOL0     C95762   4.108   0.985   2.399  0.5340 -0.1112  0.1772
  710MOL0     O95763   3.783   1.105   2.573 -0.1255 -0.2473 -0.3065
  710MOL0     C95764   3.673   0.767   2.550  1.2746  0.7527  0.0829
  710MOL0     C95765   3.565   0.681   2.594  0.4775 -1.1725  0.4024
  710MOL0     N95766   2.789   0.790   2.867  0.4532  0.6749 -0.5239
  710MOL0     N95767   2.668   0.761   2.916  0.1948 -0.6031  0.3561
  710MOL0     C95768   1.593   0.532   2.847  0.2031  0.6827 -0.9763
  710MOL0     C95769   1.470   0.598   2.836  0.4830  0.0340 -0.4558
  710MOL0     C95770   1.020   0.690   2.843 -0.9232  0.9826 -1.3114
  710MOL0     C95771   0.931   0.705   2.738  0.2414 -0.6024  0.5070
  710MOL0     C95772   0.819   0.795   2.739 -0.7918 -0.1305  0.0535
  710MOL0     C95773   0.787   0.856   2.855  0.0744 -0.0886 -1.0217
  710MOL0     O95774   0.683   0.940   2.870  0.3886  0.4967 -0.0174
  710MOL0     C95775   0.612   1.013   2.766 -0.7402  0.2668 -0.4331
  710MOL0     C95776   0.463   0.978   2.757  0.3615 -0.8803 -0.3815
  710MOL0     C95777   0.386   1.059   2.648  0.1524  0.7520  0.3527
  710MOL0     C95778   0.238   1.067   2.677 -0.5469  0.9460 -0.4001
  710MOL0     C95779   0.212   1.175   2.775  0.9117  0.0576  0.4492
  710MOL0     C95780   0.198   1.260   2.861  0.3708 -0.0635 -0.2829
  710MOL0     C95781   0.870   0.840   2.964 -0.3027  0.1934 -0.5280
  710MOL0     C95782   0.989   0.760   2.967  0.3957 -0.0213  0.8158
  710MOL0     H95783   1.285   0.405   3.057  0.3149  1.0481  0.9457
  710MOL0     H95784   1.509   0.272   3.054 -1.1100  1.3810  2.8346
  710MOL0     H95785   1.677   0.215   2.800 -0.8258  0.5058 -0.9462
  710MOL0     H95786   1.755   0.363   2.733  1.5675 -1.2136 -0.4466
  710MOL0     H95787   1.903   0.142   2.903  2.0589 -0.7477 -0.0264
  710MOL0     H95788   1.914   0.170   2.722  0.4618  0.8605 -0.0082
  710MOL0     H95789   2.018   0.372   2.744 -0.6224 -1.1858 -1.5387
  710MOL0     H95790   2.024   0.364   2.920  1.6783  1.7213 -1.8590
  710MOL0     H95791   2.172   0.173   2.904  0.7038 -1.1190 -0.4756
  710MOL0     H95792   2.118   0.143   2.735 -3.5808  1.4284 -1.1327
  710MOL0     H95793   2.333   0.238   2.700  2.3071  0.6868  0.2557
  710MOL0     H95794   2.227   0.383   2.691 -1.7958  1.2593  1.8499
  710MOL0     H95795   2.294   0.439   2.935  0.0683  1.4340 -1.9523
  710MOL0     H95796   2.403   0.306   2.933  1.1795  0.7029  0.9331
  710MOL0     H95797   2.530   0.403   2.754 -1.3249  1.2671 -2.7784
  710MOL0     H95798   2.406   0.524   2.729  0.9194  0.7627 -0.3201
  710MOL0     H95799   2.547   0.488   2.989 -1.2409  0.4551  0.6090
  710MOL0     H95800   2.443   0.625   2.955 -2.4959 -2.9157  0.4874
  710MOL0     H95801   2.764   0.478   2.752  2.9021  1.7061 -0.8267
  710MOL0     H95802   2.970   0.657   2.649  1.8505 -0.3176 -0.0254
  710MOL0     H95803   3.011   0.763   2.779  2.3920 -1.0547 -0.2508
  710MOL0     H95804   3.002   0.463   2.783 -0.3122  0.4801 -0.3216
  710MOL0     H95805   3.056   0.555   2.925  0.7408 -0.0192 -0.0343
  710MOL0     H95806   3.185   0.524   2.654  1.3526 -0.6580  0.3276
  710MOL0     H95807   3.244   0.449   2.801  1.4875  0.0508 -0.6257
  710MOL0     H95808   3.298   0.682   2.892  0.3767 -1.0720  0.0939
  710MOL0     H95809   3.253   0.751   2.734 -2.0098  1.0230  2.0626
  710MOL0     H95810   3.462   0.856   2.859 -2.5538 -2.1308 -1.3283
  710MOL0     H95811   3.603   1.128   2.794 -0.7406 -1.0401  0.1360
  710MOL0     H95812   3.627   1.027   2.926  2.9164  0.5207  2.0130
  710MOL0     H95813   3.762   1.057   2.817 -0.9092  0.1304  1.6603
  710MOL0     H95814   4.041   1.012   2.730 -2.1468  1.1811 -1.4577
  710MOL0     H95815   4.290   1.099   2.722  1.5183  1.6643 -1.5852
  710MOL0     H95816   4.536   1.239   2.422 -1.3870  0.2671 -0.6308
  710MOL0     H95817   4.411   1.279   2.537  1.5881  1.3436 -0.6473
  710MOL0     H95818   4.563   1.184   2.732 -1.1334  0.0999 -0.9828
  710MOL0     H95819   4.676   1.146   2.605  1.5615  0.1352  1.1117
  710MOL0     H95820   4.585   1.397   2.724 -1.3759 -0.7852 -1.5024
  710MOL0     H95821   4.668   1.412   2.568  1.5043  0.3172  0.4039
  710MOL0     H95822   4.775   1.288   2.822 -3.3862 -0.5259 -1.2707
  710MOL0     H95823   4.873   1.321   2.673  1.0860 -1.3715  1.8956
  710MOL0     H95824   4.724   1.526   2.844  0.2310  0.2955  0.3938
  710MOL0     H95825   4.826   1.565   2.708 -0.6192 -0.9045 -0.4122
  710MOL0     H95826   4.918   1.454   2.978 -2.8569  2.8285  0.3485
  710MOL0     H95827   5.014   1.418   2.831  1.0942 -1.3924  2.8127
  710MOL0     H95828   4.918   1.693   2.931  0.7148  0.8907  0.0892
  710MOL0     H95829   5.030   1.673   2.798  0.9924  0.7293  0.7949
  710MOL0     H95830   5.205   1.629   2.960 -0.9185 -1.3956 -1.3247
  710MOL0     H95831   5.098   1.599   3.092  2.5161  1.5027  1.6611
  710MOL0     H95832   4.296   1.026   2.308  0.1718  2.3154  0.3478
  710MOL0     H95833   4.053   0.962   2.308  1.8619 -0.9744 -0.4364
  710MOL0     H95834   3.724   0.741   2.458  1.2412 -2.0119  0.7378
  710MOL0     H95835   3.522   0.599   2.538 -0.2964  1.4116 -3.1592
  710MOL0     H95836   1.677   0.565   2.786  0.7042  2.1535  0.4452
  710MOL0     H95837   1.461   0.698   2.795  2.6231  0.8362  0.8788
  710MOL0     H95838   0.949   0.632   2.660  2.2636  0.6316 -0.2587
  710MOL0     H95839   0.761   0.813   2.649 -1.5159 -1.8030  0.1319
  710MOL0     H95840   0.625   1.117   2.795 -0.8586 -0.2029  1.4395
  710MOL0     H95841   0.658   1.009   2.666 -0.8646 -0.2280 -0.4747
  710MOL0     H95842   0.418   0.984   2.856 -1.2267 -2.6234 -0.9460
  710MOL0     H95843   0.451   0.880   2.711  0.1534 -0.6013 -0.9329
  710MOL0     H95844   0.396   1.002   2.555 -2.0135 -1.8807  1.5820
  710MOL0     H95845   0.413   1.164   2.644  1.0836  0.6709  2.7053
  710MOL0     H95846   0.188   0.983   2.726 -3.0057  2.9680  0.8048
  710MOL0     H95847   0.172   1.086   2.591 -1.5322  1.4387  0.4355
  710MOL0     H95848   0.167   1.339   2.927 -0.5559 -1.4882  1.0554
  710MOL0     H95849   0.848   0.874   3.065 -0.1829  0.0648 -0.4585
  710MOL0     H95850   1.050   0.760   3.056 -1.1120  0.2867  1.8887
  711MOL0     O95851   5.323   9.578   5.213 -0.5645  0.3343 -0.8931
  711MOL0     C95852   5.436   9.530   5.190  1.6224 -0.3335 -0.0281
  711MOL0     O95853   5.463   9.444   5.083 -1.0102  0.5222 -0.7307
  711MOL0     C95854   5.366   9.388   5.016 -0.5225 -0.3759 -0.0688
  711MOL0     C95855   5.363   9.394   4.881 -0.2325 -0.6101 -0.3087
  711MOL0     C95856   5.256   9.332   4.802  0.2680  0.7722  0.8761
  711MOL0     C95857   5.156   9.252   4.865  0.5479  0.3583 -0.0148
  711MOL0     O95858   5.050   9.190   4.802 -0.8175  0.1288 -0.4144
  711MOL0     C95859   5.062   9.154   4.663  0.0012 -0.2610 -0.0882
  711MOL0     C95860   4.952   9.058   4.622 -0.0501  0.5719 -0.3181
  711MOL0     C95861   4.814   9.123   4.631  0.1669  0.9948 -0.5341
  711MOL0     C95862   4.710   9.018   4.615 -0.2174  0.1688 -0.8944
  711MOL0     C95863   4.645   8.963   4.743  0.7504 -0.6492 -0.9492
  711MOL0     C95864   4.559   9.055   4.820  0.1413  1.0351 -0.0959
  711MOL0     C95865   4.462   8.987   4.920 -0.0456  0.7031 -0.8283
  711MOL0     C95866   4.527   8.963   5.049 -0.0948  0.4890 -0.1723
  711MOL0     N95867   4.457   8.854   5.126  0.5282 -0.3462  0.3300
  711MOL0     C95868   4.347   8.883   5.203  0.2634  0.3387 -0.1015
  711MOL0     C95869   4.338   8.773   5.283 -0.2765  0.3507  0.2256
  711MOL0     C95870   4.219   8.745   5.369  1.2463  0.8086  0.2241
  711MOL0     C95871   4.124   8.649   5.287  0.0612 -1.1171  0.0238
  711MOL0     C95872   4.064   8.715   5.163 -0.9312  0.5350 -0.2051
  711MOL0     C95873   3.983   8.597   5.105  0.7757  0.4693 -0.5806
  711MOL0     O95874   3.933   8.645   4.977 -0.3787  0.5767 -1.3768
  711MOL0     C95875   3.799   8.671   4.969 -0.5972 -0.1443 -0.6409
  711MOL0     C95876   3.755   8.806   4.976  0.3770  0.2776 -0.1704
  711MOL0     C95877   3.619   8.843   4.983 -0.3546  0.6271 -0.5722
  711MOL0     C95878   3.586   8.986   4.989 -0.2804  0.9558 -0.6178
  711MOL0     C95879   3.523   8.735   4.979  0.0718 -0.3737  0.8902
  711MOL0     C95880   3.377   8.762   4.992  0.1551 -0.3064 -0.9372
  711MOL0     O95881   3.297   8.685   4.911  0.4195  0.0819 -0.5176
  711MOL0     C95882   3.158   8.704   4.927 -0.0659 -0.0183  0.2176
  711MOL0     C95883   3.104   8.811   4.855 -0.1274 -0.3561  0.2052
  711MOL0     C95884   2.971   8.817   4.846 -0.0175 -0.3913 -0.1602
  711MOL0     C95885   2.890   8.717   4.900  0.5431 -0.5857  0.4869
  711MOL0     O95886   2.757   8.709   4.870  0.5601  0.8798 -0.0622
  711MOL0     C95887   2.715   8.682   4.739 -0.1246  0.5783  0.0237
  711MOL0     C95888   2.562   8.698   4.734 -0.8458 -0.4861  0.2118
  711MOL0     C95889   2.488   8.622   4.844 -0.1018  0.2367  0.8852
  711MOL0     C95890   2.339   8.648   4.834  0.1406 -1.1112  0.7863
  711MOL0     C95891   2.251   8.533   4.875  0.7756  0.1288 -1.0185
  711MOL0     C95892   2.106   8.581   4.899 -0.7532 -0.2914  0.1049
  711MOL0     C95893   2.034   8.639   4.781 -0.3801 -0.0790  0.4055
  711MOL0     C95894   1.877   8.602   4.780  0.5539 -0.6036 -0.3997
  711MOL0    Cl95895   1.801   8.668   4.629 -0.2272 -0.0868 -0.1485
  711MOL0     C95896   2.945   8.607   4.968  0.3283 -0.7488  0.4753
  711MOL0     C95897   3.085   8.603   4.991 -0.1611  0.6866  0.3606
  711MOL0     O95898   3.335   8.847   5.079  0.1887  0.4768 -0.4933
  711MOL0     C95899   3.566   8.605   4.964  0.4321 -0.7141  0.5806
  711MOL0     C95900   3.706   8.569   4.964  0.5063  0.3730 -0.0464
  711MOL0     N95901   4.433   8.684   5.232  0.0463 -0.0752  0.4843
  711MOL0     N95902   4.510   8.735   5.144 -0.1047 -0.2396  0.5030
  711MOL0     C95903   5.166   9.251   5.010 -0.2635 -0.4503 -0.1618
  711MOL0     C95904   5.267   9.313   5.079  0.2225  0.5651  0.2809
  711MOL0     C95905   5.535   9.580   5.282 -0.3805  0.1534  0.1038
  711MOL0     C95906   5.504   9.671   5.378  0.7211 -0.4355  0.6160
  711MOL0     C95907   5.594   9.719   5.472  0.3750  0.5335  0.0384
  711MOL0     C95908   5.726   9.676   5.470 -0.4318  0.5494  0.5292
  711MOL0     O95909   5.820   9.737   5.551 -0.0006  0.4422 -0.0305
  711MOL0     C95910   5.785   9.840   5.643  0.3652 -0.9980  0.6583
  711MOL0     C95911   5.903   9.896   5.712 -0.3868 -0.0821  0.8039
  711MOL0     C95912   5.879  10.028   5.775 -0.4537  0.1980 -0.1474
  711MOL0     C95913   6.010  10.080   5.841 -0.5711  0.5353  0.1801
  711MOL0     C95914   6.003  10.184   5.944  0.6725 -0.0003  0.2171
  711MOL0     C95915   6.016  10.271   6.036  0.0188  0.8386 -0.2282
  711MOL0     C95916   5.761   9.581   5.375  0.3301 -0.2289 -0.3788
  711MOL0     C95917   5.667   9.532   5.286 -0.4127 -0.2761 -0.2030
  711MOL0     H95918   5.447   9.442   4.834 -2.0963  4.6900  1.0430
  711MOL0     H95919   5.260   9.345   4.694  0.1884 -0.6947  0.6813
  711MOL0     H95920   5.063   9.249   4.609  0.0767 -0.6318 -0.7475
  711MOL0     H95921   5.159   9.108   4.644 -1.3507 -3.1992 -0.4845
  711MOL0     H95922   4.962   9.031   4.517  1.4451 -0.9838  0.1894
  711MOL0     H95923   4.958   8.964   4.677 -0.5419  0.8412  0.2069
  711MOL0     H95924   4.791   9.179   4.722  1.9868  0.4794  0.3060
  711MOL0     H95925   4.808   9.197   4.551  0.0185  1.9445  0.3390
  711MOL0     H95926   4.632   9.066   4.555  0.9879  2.4816 -0.7192
  711MOL0     H95927   4.745   8.935   4.553  0.5756 -0.2395  0.0562
  711MOL0     H95928   4.580   8.884   4.703  1.9567 -3.2242  1.7526
  711MOL0     H95929   4.716   8.912   4.809 -0.5537  1.1893  2.1156
  711MOL0     H95930   4.629   9.120   4.873  0.7215  0.2999  0.0540
  711MOL0     H95931   4.501   9.113   4.747 -0.5146  0.6754  0.1269
  711MOL0     H95932   4.371   9.046   4.934 -0.0816  0.0920  2.0359
  711MOL0     H95933   4.433   8.887   4.886 -2.0042  0.8950  0.1867
  711MOL0     H95934   4.534   9.059   5.101  0.7793  0.9990 -1.1941
  711MOL0     H95935   4.630   8.931   5.032  0.2254  1.5696 -0.3865
  711MOL0     H95936   4.284   8.972   5.196 -0.2366 -0.0254 -0.2921
  711MOL0     H95937   4.249   8.694   5.461  1.8384 -1.6941 -1.2629
  711MOL0     H95938   4.167   8.839   5.392  0.1920  0.7384 -1.6523
  711MOL0     H95939   4.053   8.598   5.352  1.9340  0.2712  3.4120
  711MOL0     H95940   4.191   8.570   5.253  0.9951  0.0058 -0.8529
  711MOL0     H95941   4.139   8.743   5.089 -1.7688 -0.2309 -1.3881
  711MOL0     H95942   3.995   8.791   5.201 -1.6589 -0.4469  0.5121
  711MOL0     H95943   3.897   8.572   5.168 -0.1044  3.3718 -0.5032
  711MOL0     H95944   4.047   8.511   5.085  3.1826  2.1310 -0.3623
  711MOL0     H95945   3.837   8.877   4.962 -0.4294  1.7939  2.2058
  711MOL0     H95946   3.659   9.055   4.944  0.6769  0.8652  0.7245
  711MOL0     H95947   3.488   8.998   4.942 -0.6493 -1.0085 -0.4376
  711MOL0     H95948   3.590   9.017   5.094 -1.8802 -3.5648  1.0232
  711MOL0     H95949   3.171   8.884   4.810 -0.2334 -2.0617 -3.0233
  711MOL0     H95950   2.930   8.891   4.778 -2.9362  1.3063  3.1440
  711MOL0     H95951   2.752   8.753   4.664 -0.6765  0.5193 -0.3125
  711MOL0     H95952   2.738   8.578   4.713 -2.4197  0.0953 -0.2633
  711MOL0     H95953   2.545   8.805   4.754 -0.5912 -0.6318  1.2146
  711MOL0     H95954   2.527   8.657   4.639  3.9428 -0.9775 -1.6398
  711MOL0     H95955   2.506   8.662   4.945 -1.3780  1.4363  0.6765
  711MOL0     H95956   2.509   8.515   4.841  2.1288  0.6576 -0.3075
  711MOL0     H95957   2.308   8.734   4.893 -1.1972  0.5790 -2.2119
  711MOL0     H95958   2.324   8.682   4.731 -2.9764 -0.7743  1.2837
  711MOL0     H95959   2.286   8.510   4.976  2.3886 -2.6589 -2.0843
  711MOL0     H95960   2.263   8.439   4.819  0.0377  0.5347 -1.8799
  711MOL0     H95961   2.053   8.494   4.940 -1.7634  0.9976  1.6841
  711MOL0     H95962   2.102   8.665   4.970 -3.0842  0.7851 -1.1683
  711MOL0     H95963   2.084   8.608   4.688  1.4479 -0.0587  1.3286
  711MOL0     H95964   2.049   8.747   4.789 -1.1019  0.0184  0.4925
  711MOL0     H95965   1.839   8.623   4.880  0.7426  0.0052 -0.4512
  711MOL0     H95966   1.869   8.493   4.769 -1.6179 -0.7655  1.9355
  711MOL0     H95967   2.872   8.535   5.004 -2.2383  2.8307  3.1850
  711MOL0     H95968   3.124   8.517   5.045  0.7599  1.9803  1.8605
  711MOL0     H95969   3.500   8.519   4.968  0.1281 -0.4734  0.7545
  711MOL0     H95970   3.729   8.466   4.939 -2.4447  0.4409 -3.9582
  711MOL0     H95971   5.093   9.201   5.073  0.4609  0.7214  1.6876
  711MOL0     H95972   5.257   9.315   5.187  1.2635 -0.7667  0.4343
  711MOL0     H95973   5.400   9.701   5.390  0.9939  0.5364  0.6937
  711MOL0     H95974   5.560   9.778   5.556 -1.7186  3.0434 -2.3605
  711MOL0     H95975   5.733   9.918   5.586  0.8343  0.9952  2.7922
  711MOL0     H95976   5.717   9.802   5.720 -0.2486  2.3143  1.9170
  711MOL0     H95977   5.982   9.911   5.637 -1.2966  0.4137 -0.0767
  711MOL0     H95978   5.936   9.829   5.792 -2.2781  1.3783  2.9175
  711MOL0     H95979   5.805  10.014   5.854  2.2620 -0.3733  2.4672
  711MOL0     H95980   5.835  10.089   5.695 -0.3075  0.3596 -0.1067
  711MOL0     H95981   6.082  10.110   5.765  0.1604  1.1511  1.1022
  711MOL0     H95982   6.059   9.999   5.896 -1.2590  0.9229  1.4126
  711MOL0     H95983   6.040  10.330   6.122 -1.0194 -2.4733  2.5485
  711MOL0     H95984   5.865   9.550   5.372  1.4168  2.9812  0.3354
  711MOL0     H95985   5.690   9.439   5.235 -0.6765 -0.2993 -0.2824
  712MOL0     O95986   0.347   8.925   3.849 -0.8211 -0.7423 -0.3585
  712MOL0     C95987   0.379   8.941   3.734 -0.6903 -0.6292  0.5797
  712MOL0     O95988   0.505   8.942   3.682  0.3463 -0.1671  0.6016
  712MOL0     C95989   0.610   8.934   3.765  0.6223  0.4259  0.0884
  712MOL0     C95990   0.644   8.811   3.813  0.5633 -0.5232  0.4098
  712MOL0     C95991   0.736   8.795   3.917  0.9873  0.1630  0.1045
  712MOL0     C95992   0.816   8.903   3.953  0.2760  0.3249  0.4083
  712MOL0     O95993   0.921   8.882   4.040 -0.5373  0.3970  0.2049
  712MOL0     C95994   1.053   8.854   3.995 -1.3467 -0.4976  0.2480
  712MOL0     C95995   1.150   8.907   4.098  0.0438 -0.4881 -0.2818
  712MOL0     C95996   1.121   9.056   4.129  0.2444 -0.2154 -0.9861
  712MOL0     C95997   1.243   9.128   4.202 -0.5100  1.0204  0.8158
  712MOL0     C95998   1.266   9.067   4.341 -0.9325  0.0938 -0.9024
  712MOL0     C95999   1.149   9.080   4.434  0.1988 -1.0193  0.1333
  712MOL0     C96000   1.183   9.040   4.579 -0.4163  0.3797 -1.0291
  712MOL0     C96001   1.174   8.887   4.601 -0.1301  0.2966  1.0539
  712MOL0     N96002   1.035   8.836   4.572 -0.0317 -1.1423  0.1683
  712MOL0     C96003   0.997   8.774   4.460 -0.5530  0.8531 -0.0726
  712MOL0     C96004   0.869   8.732   4.474 -0.2852  0.0450 -0.5096
  712MOL0     C96005   0.784   8.652   4.386 -0.2214 -0.4693 -0.4518
  712MOL0     C96006   0.641   8.702   4.351  0.8336  0.2452  0.2095
  712MOL0     C96007   0.656   8.841   4.291  0.7544 -0.0240  0.5481
  712MOL0     C96008   0.530   8.894   4.225  0.3615 -0.6432  0.3760
  712MOL0     O96009   0.427   8.902   4.316  0.5884  0.9451 -0.1653
  712MOL0     C96010   0.308   8.962   4.292 -0.2071  0.5360 -0.1374
  712MOL0     C96011   0.226   8.998   4.397  0.1165 -0.6948 -0.5216
  712MOL0     C96012   0.095   9.061   4.385  0.1047  0.4110  0.6670
  712MOL0     C96013   0.020   9.067   4.509 -0.2810 -0.1238 -0.0044
  712MOL0     C96014   0.050   9.100   4.251  0.4225 -0.8056  0.1133
  712MOL0     C96015  -0.084   9.170   4.224 -0.0104  0.6318 -0.4559
  712MOL0     O96016  -0.162   9.212   4.325  0.8690  0.3558 -0.5057
  712MOL0     C96017  -0.295   9.246   4.317 -0.0435 -0.0906  0.1283
  712MOL0     C96018  -0.386   9.264   4.203  0.2762 -0.9288 -0.5622
  712MOL0     C96019  -0.516   9.305   4.232  0.5872  0.8143  0.3306
  712MOL0     C96020  -0.561   9.342   4.361  1.1039  0.5902  0.4447
  712MOL0     O96021  -0.695   9.376   4.371  0.3365  0.3152 -0.2719
  712MOL0     C96022  -0.769   9.327   4.486  0.2349  0.3395  0.1764
  712MOL0     C96023  -0.924   9.362   4.488  0.4212 -0.2274 -1.1375
  712MOL0     C96024  -1.013   9.301   4.385  0.6667 -0.2687  0.1455
  712MOL0     C96025  -1.013   9.145   4.387 -0.2758 -0.7036 -1.0099
  712MOL0     C96026  -1.116   9.075   4.300  0.0509 -1.1192  0.4044
  712MOL0     C96027  -1.031   8.975   4.217  0.7636  0.1973  0.0134
  712MOL0     C96028  -1.120   8.906   4.108  0.0830 -0.0695 -0.5502
  712MOL0     C96029  -1.161   8.994   3.985 -0.8947 -0.3024  0.1454
  712MOL0    Cl96030  -1.047   9.115   3.909  0.3821  0.1173 -0.2536
  712MOL0     C96031  -0.475   9.337   4.467 -0.6242  0.2471 -0.5719
  712MOL0     C96032  -0.344   9.280   4.447 -0.5766  0.6120 -0.0109
  712MOL0     O96033  -0.110   9.188   4.103  0.2623  0.2531  0.1556
  712MOL0     C96034   0.144   9.070   4.145 -0.8492  0.0795 -0.7448
  712MOL0     C96035   0.266   8.996   4.163 -0.6945 -0.7114  0.1661
  712MOL0     N96036   0.835   8.782   4.602 -0.3168 -0.1010 -0.2982
  712MOL0     N96037   0.938   8.829   4.666  0.1625 -0.4602  0.3892
  712MOL0     C96038   0.801   9.028   3.886 -0.3533  0.4334  0.3221
  712MOL0     C96039   0.687   9.039   3.800 -0.0329 -0.5342 -0.4933
  712MOL0     C96040   0.265   8.957   3.634 -0.5319  0.0807 -0.7723
  712MOL0     C96041   0.139   8.931   3.677  0.6319 -0.1109 -0.5041
  712MOL0     C96042   0.031   8.954   3.591 -0.3236  0.5558 -0.1453
  712MOL0     C96043   0.047   8.993   3.458 -0.0887  0.0368  0.0310
  712MOL0     O96044  -0.067   9.007   3.387 -0.3558  0.3797 -0.3388
  712MOL0     C96045  -0.060   9.031   3.238  0.0275 -0.2771 -0.6541
  712MOL0     C96046  -0.051   9.185   3.243 -0.9023 -0.1359 -0.1958
  712MOL0     C96047  -0.189   9.261   3.210 -0.2025  0.1762  0.5553
  712MOL0     C96048  -0.316   9.239   3.295  1.2880  0.1231  0.1061
  712MOL0     C96049  -0.413   9.338   3.263 -0.3001 -0.3115 -0.0634
  712MOL0     C96050  -0.486   9.432   3.244 -0.7447  0.4319 -0.1120
  712MOL0     C96051   0.183   8.996   3.410  0.9282 -0.2022  0.2959
  712MOL0     C96052   0.286   8.990   3.506  0.0803 -0.2914  0.5690
  712MOL0     H96053   0.591   8.726   3.773  0.9446 -0.7161  0.3065
  712MOL0     H96054   0.748   8.693   3.953 -0.5219 -0.0814 -0.0177
  712MOL0     H96055   1.066   8.747   3.981  7.3637 -0.2445  1.2496
  712MOL0     H96056   1.070   8.912   3.904  1.0003  1.3883  1.7687
  712MOL0     H96057   1.134   8.841   4.184  0.7520  1.0689  1.0811
  712MOL0     H96058   1.254   8.900   4.063  0.0834  2.5249 -0.9995
  712MOL0     H96059   1.108   9.108   4.034 -1.3422  2.4507  0.5891
  712MOL0     H96060   1.025   9.077   4.177  0.8277  1.0095 -0.3294
  712MOL0     H96061   1.328   9.095   4.141 -0.2523  0.5250  1.4373
  712MOL0     H96062   1.233   9.236   4.189 -1.7645  0.8461  0.1736
  712MOL0     H96063   1.295   8.962   4.333 -0.3636  0.0843  0.8895
  712MOL0     H96064   1.350   9.124   4.381 -0.5416 -0.4425 -0.9466
  712MOL0     H96065   1.128   9.187   4.430  0.2252 -0.8818  2.4486
  712MOL0     H96066   1.062   9.020   4.404  1.5488 -2.7404 -0.5113
  712MOL0     H96067   1.280   9.080   4.610 -1.8178  2.5811  0.8952
  712MOL0     H96068   1.107   9.085   4.643 -0.4309 -2.5995  1.2283
  712MOL0     H96069   1.202   8.860   4.703 -1.4229  0.8741  1.5775
  712MOL0     H96070   1.250   8.838   4.538  1.2331  0.8647  2.1992
  712MOL0     H96071   1.050   8.758   4.367  2.0111 -0.5627  1.4966
  712MOL0     H96072   0.831   8.652   4.287 -3.0061  1.0736 -1.9013
  712MOL0     H96073   0.780   8.557   4.439 -0.3190  0.5900  1.5256
  712MOL0     H96074   0.571   8.695   4.435 -1.0741 -1.2154 -1.4127
  712MOL0     H96075   0.602   8.627   4.281 -3.3133  2.6173 -0.2835
  712MOL0     H96076   0.727   8.836   4.209  0.5068 -2.4778  0.4210
  712MOL0     H96077   0.700   8.915   4.359  0.2053  2.8606 -2.0352
  712MOL0     H96078   0.500   8.825   4.147  1.2240 -1.5358  0.8122
  712MOL0     H96079   0.551   8.990   4.177  4.0960 -1.0757  0.8465
  712MOL0     H96080   0.256   8.966   4.496 -0.9714 -3.0655 -0.8950
  712MOL0     H96081   0.068   8.998   4.580  2.0726  1.7885  0.3888
  712MOL0     H96082   0.006   9.167   4.550 -1.1708  1.2751 -3.4333
  712MOL0     H96083  -0.080   9.029   4.490 -0.3984 -0.5941  1.3957
  712MOL0     H96084  -0.359   9.235   4.102  0.3080  1.7655 -1.3913
  712MOL0     H96085  -0.587   9.296   4.151  0.6687 -2.6014  0.4935
  712MOL0     H96086  -0.754   9.219   4.486  5.5897  0.7328  4.0527
  712MOL0     H96087  -0.726   9.370   4.576  1.5769 -1.1154  0.2660
  712MOL0     H96088  -0.966   9.326   4.582  0.1744 -3.2380 -2.2962
  712MOL0     H96089  -0.923   9.471   4.477  2.2169 -0.0229  0.4621
  712MOL0     H96090  -0.986   9.338   4.286 -0.7822  0.3220 -0.0463
  712MOL0     H96091  -1.114   9.342   4.390  0.4714 -0.6941 -0.2151
  712MOL0     H96092  -0.909   9.116   4.373 -0.2502 -0.9213 -0.3884
  712MOL0     H96093  -1.033   9.112   4.489  1.5632  1.1197  0.0089
  712MOL0     H96094  -1.177   9.147   4.243  0.5680  0.8965  2.2649
  712MOL0     H96095  -1.189   9.021   4.361 -0.8522 -0.1281  0.2410
  712MOL0     H96096  -0.949   9.028   4.167  1.3134  0.9984  1.6953
  712MOL0     H96097  -0.983   8.904   4.284 -2.0262 -0.8086  1.0923
  712MOL0     H96098  -1.213   8.865   4.148  1.0045 -0.1159  1.7038
  712MOL0     H96099  -1.068   8.822   4.062 -0.2440 -0.2806 -0.5404
  712MOL0     H96100  -1.253   9.042   4.019  0.3846  2.2348  0.2420
  712MOL0     H96101  -1.187   8.911   3.919  1.4833 -4.8439  4.2479
  712MOL0     H96102  -0.509   9.369   4.565 -3.3654 -0.3621 -1.2587
  712MOL0     H96103  -0.271   9.279   4.528  0.0619 -0.6948 -0.5829
  712MOL0     H96104   0.121   9.106   4.045 -0.0167 -0.5903 -1.1884
  712MOL0     H96105   0.331   8.995   4.076 -1.5094  0.9423 -0.4933
  712MOL0     H96106   0.876   9.105   3.902 -0.0238  0.4904 -1.3580
  712MOL0     H96107   0.680   9.142   3.766  1.2875 -0.1284  0.3824
  712MOL0     H96108   0.123   8.889   3.776  0.6346 -1.1361 -0.9230
  712MOL0     H96109  -0.072   8.924   3.609  0.3533 -0.9183  1.5845
  712MOL0     H96110   0.029   8.983   3.197  0.5532 -0.4481  0.6361
  712MOL0     H96111  -0.155   8.993   3.199 -0.2634  0.4575 -0.6770
  712MOL0     H96112   0.023   9.211   3.166  0.4394  0.8865  1.3790
  712MOL0     H96113  -0.014   9.232   3.335 -1.6192 -0.7557  0.4195
  712MOL0     H96114  -0.216   9.223   3.111 -0.6127 -1.1986  1.1675
  712MOL0     H96115  -0.159   9.366   3.209 -2.9442  1.0495 -1.8039
  712MOL0     H96116  -0.302   9.256   3.402  1.7150 -0.5901  0.1692
  712MOL0     H96117  -0.356   9.142   3.266  0.7662  0.7796 -1.5328
  712MOL0     H96118  -0.553   9.514   3.224  1.4484  1.6257 -3.4097
  712MOL0     H96119   0.214   9.013   3.308  1.7267 -4.1529 -0.2784
  712MOL0     H96120   0.386   9.010   3.468  0.4390  3.5203  2.9592
  713MOL0     O96121   5.657   2.886   3.287  0.3884 -0.2909  0.2502
  713MOL0     C96122   5.620   2.800   3.364  0.5841 -0.3573  1.6223
  713MOL0     O96123   5.505   2.725   3.351 -0.8180 -0.9770  0.0956
  713MOL0     C96124   5.426   2.753   3.244 -0.2051 -0.6934 -0.2088
  713MOL0     C96125   5.297   2.810   3.259 -0.3375 -0.3163 -0.1478
  713MOL0     C96126   5.215   2.830   3.154  0.4553  0.7881  0.4619
  713MOL0     C96127   5.246   2.791   3.020 -0.2391 -0.8812  0.2311
  713MOL0     O96128   5.143   2.798   2.929  0.4638 -0.2330  0.0416
  713MOL0     C96129   5.134   2.689   2.831  0.2839  0.4658  0.6317
  713MOL0     C96130   5.039   2.733   2.723  0.3257 -0.0066 -0.0712
  713MOL0     C96131   5.032   2.627   2.609 -0.5995 -0.6384 -0.6931
  713MOL0     C96132   4.902   2.647   2.525  0.2213 -0.9409 -0.3448
  713MOL0     C96133   4.920   2.556   2.392  0.0498 -0.0184  0.2343
  713MOL0     C96134   4.910   2.400   2.427  0.5875 -0.7913  0.8344
  713MOL0     C96135   4.770   2.342   2.452 -0.1513 -0.0648 -0.0051
  713MOL0     C96136   4.686   2.346   2.320 -0.5733 -0.0447 -0.3426
  713MOL0     N96137   4.543   2.296   2.330 -0.1633 -0.9331 -0.0324
  713MOL0     C96138   4.475   2.192   2.278  0.0057  0.6946  0.3632
  713MOL0     C96139   4.351   2.189   2.324  0.6194 -0.2689 -0.1913
  713MOL0     C96140   4.255   2.083   2.287 -0.2481  0.1261 -0.3797
  713MOL0     C96141   4.151   2.072   2.402  0.9061  0.4090  0.0042
  713MOL0     C96142   4.079   1.937   2.379 -0.4175  0.3623  0.1516
  713MOL0     C96143   3.995   1.934   2.254 -0.5950 -1.0756  0.2662
  713MOL0     O96144   3.889   2.028   2.263  0.0259 -0.7723 -0.6226
  713MOL0     C96145   3.768   1.998   2.217  0.3359 -0.1602  0.0817
  713MOL0     C96146   3.740   1.882   2.140 -0.3736 -0.2219 -0.2783
  713MOL0     C96147   3.601   1.853   2.115 -0.3817 -0.3032  0.0829
  713MOL0     C96148   3.572   1.728   2.047 -0.8686 -0.1680 -0.1338
  713MOL0     C96149   3.497   1.942   2.158  0.9143  0.0938 -0.0789
  713MOL0     C96150   3.350   1.927   2.127  0.9500 -0.1480 -0.0742
  713MOL0     O96151   3.273   2.038   2.112 -0.0450 -0.5058  0.7344
  713MOL0     C96152   3.144   2.023   2.064 -1.0194 -0.4895 -0.1244
  713MOL0     C96153   3.044   2.018   2.159  0.2652  0.2515  0.2276
  713MOL0     C96154   2.913   2.002   2.115  0.7576 -0.0612  0.0346
  713MOL0     C96155   2.880   2.005   1.977  0.4138 -0.9547  0.9241
  713MOL0     O96156   2.749   2.018   1.915 -0.1205 -0.4559 -0.7912
  713MOL0     C96157   2.646   1.932   1.951  0.8874  0.7921 -0.0991
  713MOL0     C96158   2.635   1.826   1.841  0.3647  0.1496 -0.2008
  713MOL0     C96159   2.539   1.707   1.874  0.2701 -0.5256 -0.3705
  713MOL0     C96160   2.388   1.759   1.850  1.1727 -0.4063 -0.0358
  713MOL0     C96161   2.292   1.640   1.825  1.6822 -0.2675 -0.2560
  713MOL0     C96162   2.146   1.704   1.830  1.2091 -0.0702  0.6532
  713MOL0     C96163   2.106   1.790   1.709  1.0893 -0.0372 -0.1247
  713MOL0     C96164   1.967   1.865   1.706 -0.2635  0.0793  0.2999
  713MOL0    Cl96165   1.834   1.757   1.673  0.0770  0.3440 -0.4882
  713MOL0     C96166   2.979   2.025   1.883 -0.2205  0.0724 -0.2137
  713MOL0     C96167   3.112   2.033   1.927 -0.2719 -0.2242 -0.2190
  713MOL0     O96168   3.309   1.819   2.125  0.5985 -0.0396  0.3281
  713MOL0     C96169   3.534   2.074   2.207  0.5192  0.5234 -0.3879
  713MOL0     C96170   3.667   2.091   2.250 -0.8082 -0.8561 -0.1259
  713MOL0     N96171   4.335   2.300   2.413  0.2600 -0.6032 -0.4468
  713MOL0     N96172   4.449   2.358   2.415  0.3880  0.4188 -0.8382
  713MOL0     C96173   5.377   2.744   2.995  0.4819 -0.3935  0.3690
  713MOL0     C96174   5.464   2.727   3.110  0.0304 -0.1608 -0.0009
  713MOL0     C96175   5.689   2.766   3.482  0.2997 -0.4665 -0.3662
  713MOL0     C96176   5.626   2.699   3.590  1.5918 -0.1923 -0.1197
  713MOL0     C96177   5.703   2.658   3.694  0.4741 -0.8389  0.5250
  713MOL0     C96178   5.838   2.699   3.703  0.3259  0.2091  0.2818
  713MOL0     O96179   5.892   2.664   3.823  0.1182  0.1874 -0.7164
  713MOL0     C96180   6.032   2.688   3.843 -0.6741  0.5978  1.4945
  713MOL0     C96181   6.063   2.829   3.890 -0.1036  0.3990 -0.3547
  713MOL0     C96182   6.207   2.839   3.928  0.5827  0.3154  0.1539
  713MOL0     C96183   6.250   2.958   4.013  0.0223  0.6703  0.3198
  713MOL0     C96184   6.186   2.937   4.142 -1.2204 -0.7419 -0.1771
  713MOL0     C96185   6.156   2.936   4.261 -0.5500  0.5294  0.4860
  713MOL0     C96186   5.913   2.768   3.605  0.6239 -0.0449 -0.9164
  713MOL0     C96187   5.825   2.807   3.498 -0.1243 -0.7662 -0.2158
  713MOL0     H96188   5.271   2.823   3.363 -0.3079 -0.4313 -0.1258
  713MOL0     H96189   5.121   2.883   3.159  0.8184  1.3589  1.3540
  713MOL0     H96190   5.232   2.657   2.794  0.6332 -1.8555  3.1854
  713MOL0     H96191   5.097   2.599   2.882 -0.2193  1.7436  2.6699
  713MOL0     H96192   4.942   2.751   2.772 -0.2992 -1.5850 -0.6869
  713MOL0     H96193   5.073   2.832   2.691  0.5618  0.2303  0.8752
  713MOL0     H96194   5.116   2.656   2.544  1.3107 -4.2042 -0.0604
  713MOL0     H96195   5.057   2.530   2.653 -0.9235 -0.0398  0.8853
  713MOL0     H96196   4.813   2.621   2.583 -1.0425  0.1644 -1.6822
  713MOL0     H96197   4.881   2.753   2.507 -0.9040 -0.5192  2.9386
  713MOL0     H96198   4.850   2.579   2.312  0.9574 -1.9176 -1.1900
  713MOL0     H96199   5.015   2.572   2.340 -1.0417 -1.4807 -2.4267
  713MOL0     H96200   4.961   2.347   2.346  1.1171 -1.1772  1.4153
  713MOL0     H96201   4.966   2.393   2.521  1.7757  1.1099  0.3487
  713MOL0     H96202   4.775   2.236   2.480 -1.8223 -0.4587 -1.0759
  713MOL0     H96203   4.719   2.391   2.535 -0.3508 -1.5765  0.8026
  713MOL0     H96204   4.735   2.289   2.241  2.4447  2.6853 -0.6625
  713MOL0     H96205   4.683   2.448   2.281 -1.4051  0.9277  2.0796
  713MOL0     H96206   4.514   2.116   2.210 -0.6945 -0.7433  1.4964
  713MOL0     H96207   4.222   2.114   2.188  3.1908 -0.1455 -1.7252
  713MOL0     H96208   4.310   1.989   2.286 -0.4017  0.0373 -0.4275
  713MOL0     H96209   4.072   2.147   2.396  0.6607  0.0553 -2.1082
  713MOL0     H96210   4.188   2.056   2.503  1.2300 -2.0330 -0.4339
  713MOL0     H96211   4.018   1.922   2.469  0.0195  0.3103  0.4408
  713MOL0     H96212   4.156   1.860   2.384 -1.1762 -0.3764  0.8226
  713MOL0     H96213   3.962   1.831   2.240  1.1184 -1.3170 -2.9622
  713MOL0     H96214   4.062   1.965   2.173  0.3331 -1.0149  1.0434
  713MOL0     H96215   3.820   1.815   2.113 -0.8122 -1.2785  0.9541
  713MOL0     H96216   3.531   1.764   1.952  1.6128  1.0257 -0.8441
  713MOL0     H96217   3.657   1.662   2.035 -2.3192 -2.5480  1.7234
  713MOL0     H96218   3.503   1.670   2.109  0.3788 -1.1261  0.3967
  713MOL0     H96219   3.067   2.015   2.265 -0.3523  1.8254  0.4385
  713MOL0     H96220   2.833   1.956   2.173 -0.0902 -0.7276 -1.5815
  713MOL0     H96221   2.678   1.879   2.041 -1.3372  1.6666  1.2928
  713MOL0     H96222   2.547   1.972   1.970 -0.5006 -2.4420  0.1058
  713MOL0     H96223   2.592   1.873   1.753  0.2144  2.5821  1.0892
  713MOL0     H96224   2.730   1.782   1.809 -0.0924  1.2452 -3.4240
  713MOL0     H96225   2.544   1.676   1.978 -2.2491  1.2473  0.3703
  713MOL0     H96226   2.564   1.632   1.798  1.3014  1.0259 -1.6553
  713MOL0     H96227   2.349   1.821   1.931  0.1986  0.1671 -0.9187
  713MOL0     H96228   2.383   1.829   1.766 -0.0469  0.0535  0.3980
  713MOL0     H96229   2.294   1.571   1.910 -1.5159  0.0765  0.2339
  713MOL0     H96230   2.304   1.596   1.726 -4.0297 -1.7520 -0.6369
  713MOL0     H96231   2.080   1.619   1.848 -0.2341  0.6049 -1.1607
  713MOL0     H96232   2.140   1.770   1.917  0.5942 -1.3421  1.6160
  713MOL0     H96233   2.100   1.712   1.632 -1.0822  1.9608 -2.1545
  713MOL0     H96234   2.187   1.858   1.680 -1.0884  2.6026 -0.4578
  713MOL0     H96235   1.962   1.941   1.627  1.8800  1.3898  1.3312
  713MOL0     H96236   1.962   1.921   1.800  2.6108  2.4584 -0.8144
  713MOL0     H96237   2.964   2.039   1.776  5.7504  2.2252 -1.1587
  713MOL0     H96238   3.195   2.064   1.865  0.8151 -2.6849 -0.1253
  713MOL0     H96239   3.452   2.141   2.228 -0.9104 -0.7879 -1.5383
  713MOL0     H96240   3.688   2.180   2.308  1.1676 -2.9306  2.6436
  713MOL0     H96241   5.416   2.721   2.896 -0.8669 -0.2578 -0.2180
  713MOL0     H96242   5.561   2.681   3.094  1.3334  2.3154  0.3081
  713MOL0     H96243   5.522   2.668   3.591  1.6871 -0.5339 -0.5465
  713MOL0     H96244   5.657   2.603   3.776  0.5866 -1.7911 -0.0472
  713MOL0     H96245   6.055   2.603   3.908 -0.2029  0.9089  1.7485
  713MOL0     H96246   6.086   2.673   3.749 -3.2421 -0.2837  0.0723
  713MOL0     H96247   6.007   2.857   3.980  0.9955 -0.8566  0.7738
  713MOL0     H96248   6.049   2.906   3.814  3.8830 -0.7975 -2.5685
  713MOL0     H96249   6.274   2.844   3.842  1.1597  0.2661  0.5942
  713MOL0     H96250   6.236   2.745   3.975  1.5196 -0.2349 -1.4429
  713MOL0     H96251   6.223   3.048   3.958  0.3684 -0.8546 -2.4862
  713MOL0     H96252   6.359   2.950   4.019 -0.1522 -1.7690  2.4420
  713MOL0     H96253   6.114   2.936   4.359 -5.2145  0.2359 -1.2576
  713MOL0     H96254   6.014   2.807   3.600  0.1914  1.9419  2.8238
  713MOL0     H96255   5.871   2.860   3.415 -4.6026  0.4648 -2.2008
  714MOL0     O96256   5.531  10.019   5.095 -0.2171  0.3811 -0.1341
  714MOL0     C96257   5.642   9.963   5.110 -0.6118 -0.0280 -0.1684
  714MOL0     O96258   5.697   9.864   5.033  0.1823 -0.0374  0.7552
  714MOL0     C96259   5.616   9.819   4.928 -0.2327  0.3565  0.1163
  714MOL0     C96260   5.481   9.789   4.931  0.4551 -0.7399  0.5720
  714MOL0     C96261   5.421   9.738   4.815 -0.1702 -0.2972  0.5328
  714MOL0     C96262   5.497   9.694   4.705  0.0255  0.0934 -1.2760
  714MOL0     O96263   5.433   9.615   4.610 -0.2201 -1.1506  0.3046
  714MOL0     C96264   5.494   9.615   4.483 -0.1176 -0.1653 -0.7967
  714MOL0     C96265   5.424   9.507   4.411 -0.6837 -0.7363  0.0040
  714MOL0     C96266   5.271   9.515   4.399  0.4616  0.1237 -0.3705
  714MOL0     C96267   5.220   9.380   4.361  0.0765  0.4425  1.2355
  714MOL0     C96268   5.077   9.398   4.302  0.7052  0.4703  0.0599
  714MOL0     C96269   5.010   9.256   4.292 -0.0978  0.5878 -0.5732
  714MOL0     C96270   4.865   9.248   4.244 -0.6103 -1.4721  1.1240
  714MOL0     C96271   4.826   9.098   4.245 -0.3310 -0.3075 -0.3872
  714MOL0     N96272   4.693   9.064   4.190  0.8311  0.6273  0.0845
  714MOL0     C96273   4.568   9.109   4.231  1.0621  0.0742 -0.9903
  714MOL0     C96274   4.471   9.072   4.142 -0.8141 -0.2987  0.8007
  714MOL0     C96275   4.331   9.107   4.135 -0.5057 -0.9742  0.0505
  714MOL0     C96276   4.255   9.064   4.255  0.3282 -0.2918  0.0105
  714MOL0     C96277   4.101   9.080   4.237 -0.7353 -0.3240 -0.2458
  714MOL0     C96278   4.023   9.015   4.350  0.1575 -0.2555  0.1699
  714MOL0     O96279   3.896   9.075   4.352  0.5841 -0.1338  0.6410
  714MOL0     C96280   3.795   9.007   4.288  0.3820  0.2844 -1.3927
  714MOL0     C96281   3.683   9.085   4.284 -0.4350 -0.4018  0.7812
  714MOL0     C96282   3.560   9.031   4.230  0.3283  0.7361 -0.1592
  714MOL0     C96283   3.452   9.129   4.193 -0.2652 -0.5164  0.0548
  714MOL0     C96284   3.554   8.890   4.192  1.0406 -0.1173 -0.3400
  714MOL0     C96285   3.425   8.821   4.151  0.4221  0.0433 -0.3925
  714MOL0     O96286   3.306   8.880   4.162  0.2349  0.0487 -0.0654
  714MOL0     C96287   3.191   8.855   4.093  0.3447  0.0782 -0.8187
  714MOL0     C96288   3.201   8.830   3.954  0.3642  0.2216  0.1279
  714MOL0     C96289   3.087   8.824   3.872 -0.4698  0.8839 -0.1744
  714MOL0     C96290   2.963   8.851   3.923 -0.1576 -0.7047  0.4447
  714MOL0     O96291   2.851   8.842   3.840  0.2567 -0.3661 -0.0546
  714MOL0     C96292   2.845   8.723   3.748 -1.4823 -0.2619 -0.7107
  714MOL0     C96293   2.718   8.713   3.675 -0.6931 -0.4190 -0.0613
  714MOL0     C96294   2.595   8.685   3.770 -0.4439 -0.2265  0.2339
  714MOL0     C96295   2.468   8.627   3.695 -0.0352 -0.1914 -0.7342
  714MOL0     C96296   2.347   8.576   3.786  0.4355 -0.8231  0.5764
  714MOL0     C96297   2.381   8.477   3.907 -0.3485  0.3301  0.0928
  714MOL0     C96298   2.258   8.383   3.940  0.7401 -0.2003 -0.4522
  714MOL0     C96299   2.288   8.277   4.048 -0.5493 -0.1969 -0.5473
  714MOL0    Cl96300   2.381   8.349   4.185 -0.3890  0.4283  0.4558
  714MOL0     C96301   2.939   8.884   4.055 -0.1503  0.3916 -0.2028
  714MOL0     C96302   3.053   8.885   4.139 -0.8847  0.7309 -0.0671
  714MOL0     O96303   3.436   8.703   4.104  0.6238 -0.3791 -0.9083
  714MOL0     C96304   3.670   8.815   4.200  0.6600  0.5597 -0.3809
  714MOL0     C96305   3.786   8.876   4.249  0.1471  0.5534 -0.6543
  714MOL0     N96306   4.544   8.990   4.052  0.0241  0.2919 -0.1062
  714MOL0     N96307   4.671   8.983   4.082  0.1332 -0.5866 -0.3899
  714MOL0     C96308   5.633   9.709   4.712 -0.1934  0.7454  0.0285
  714MOL0     C96309   5.692   9.772   4.817  0.3760  0.8773 -0.4782
  714MOL0     C96310   5.728  10.014   5.215 -0.6136 -0.5746  0.9735
  714MOL0     C96311   5.873  10.014   5.203 -0.0276 -0.3890  0.8152
  714MOL0     C96312   5.958  10.066   5.295 -0.2819  0.0377 -0.5808
  714MOL0     C96313   5.901  10.136   5.401  0.1439  0.3234  0.5844
  714MOL0     O96314   5.980  10.207   5.497 -0.9072 -0.0406  0.2135
  714MOL0     C96315   6.105  10.272   5.453  0.2535 -0.6352 -0.1383
  714MOL0     C96316   6.084  10.367   5.336 -0.0259  0.0597 -0.6519
  714MOL0     C96317   6.222  10.436   5.298  0.0091  0.5508  0.0213
  714MOL0     C96318   6.216  10.527   5.170 -0.0534  0.8711 -1.1461
  714MOL0     C96319   6.353  10.549   5.131 -0.6786  0.1460 -0.8702
  714MOL0     C96320   6.466  10.566   5.108 -0.5988 -0.2081 -0.4418
  714MOL0     C96321   5.760  10.138   5.413  0.1789  0.0665 -0.9797
  714MOL0     C96322   5.678  10.070   5.329  0.0644  0.6719  0.3003
  714MOL0     H96323   5.424   9.815   5.019  0.0238 -3.1305  1.0794
  714MOL0     H96324   5.316   9.709   4.811  0.4646 -2.6672 -1.8619
  714MOL0     H96325   5.488   9.707   4.425  0.1715 -0.2820 -1.0110
  714MOL0     H96326   5.602   9.598   4.491 -0.1434  0.3780  1.7914
  714MOL0     H96327   5.453   9.497   4.306  1.4710  2.6258  0.1539
  714MOL0     H96328   5.445   9.409   4.455 -2.7727 -0.3214  2.1413
  714MOL0     H96329   5.230   9.544   4.496  1.0999 -3.0964  0.9781
  714MOL0     H96330   5.264   9.584   4.314  4.8727 -0.6421 -1.6032
  714MOL0     H96331   5.271   9.338   4.275 -0.8248  0.4268  0.6923
  714MOL0     H96332   5.214   9.314   4.448  2.3577 -0.4572  0.7610
  714MOL0     H96333   5.019   9.467   4.365  0.2874  0.0776  0.1046
  714MOL0     H96334   5.088   9.428   4.197  1.4424  0.3115  0.0862
  714MOL0     H96335   5.074   9.196   4.227 -0.0307 -0.5429  0.4988
  714MOL0     H96336   5.003   9.198   4.385 -1.2765  0.9410 -0.4352
  714MOL0     H96337   4.797   9.309   4.304 -0.5424 -0.6978  0.4403
  714MOL0     H96338   4.872   9.296   4.145  0.1598 -0.8390  1.4714
  714MOL0     H96339   4.838   9.051   4.343 -0.1318 -0.8512 -0.6621
  714MOL0     H96340   4.894   9.047   4.176  1.9157  4.2681 -1.9707
  714MOL0     H96341   4.546   9.169   4.318 -2.2475 -1.5459 -0.5795
  714MOL0     H96342   4.339   9.216   4.123  2.2755 -0.9331  1.4917
  714MOL0     H96343   4.292   9.069   4.040  0.5164 -1.7186 -0.0846
  714MOL0     H96344   4.301   9.106   4.345  0.4949  0.8580 -0.6035
  714MOL0     H96345   4.271   8.956   4.267  1.5022  0.0159  1.5156
  714MOL0     H96346   4.066   9.054   4.137  2.2744  0.4791 -1.6006
  714MOL0     H96347   4.079   9.185   4.256  1.8905  0.1933  0.2499
  714MOL0     H96348   4.071   9.032   4.447 -0.8098 -3.0551  1.2550
  714MOL0     H96349   4.023   8.906   4.344  1.2222 -0.2301 -0.4435
  714MOL0     H96350   3.683   9.187   4.321 -2.0810 -0.5165  1.1549
  714MOL0     H96351   3.360   9.105   4.247 -0.3076 -2.6801 -0.8886
  714MOL0     H96352   3.476   9.234   4.214 -1.1899 -0.3680  0.4329
  714MOL0     H96353   3.440   9.129   4.085 -0.4646  5.2023 -0.2583
  714MOL0     H96354   3.296   8.812   3.904 -2.3736 -3.4022 -4.6195
  714MOL0     H96355   3.098   8.801   3.766 -1.3060  1.1033 -0.3149
  714MOL0     H96356   2.914   8.741   3.665 -3.6499  4.0800 -1.8499
  714MOL0     H96357   2.866   8.630   3.803 -1.8726  0.5783  0.9129
  714MOL0     H96358   2.706   8.798   3.607 -0.3153 -1.1733 -1.0924
  714MOL0     H96359   2.723   8.628   3.607  2.5726  2.4755 -3.8956
  714MOL0     H96360   2.569   8.785   3.806  0.9050 -0.0261  0.6835
  714MOL0     H96361   2.618   8.618   3.854 -1.2300  1.1961  1.6371
  714MOL0     H96362   2.438   8.701   3.621 -0.0525  0.6101  0.0480
  714MOL0     H96363   2.501   8.538   3.641 -0.2008  1.4745 -3.7841
  714MOL0     H96364   2.287   8.518   3.715  1.2112 -2.5676  1.2899
  714MOL0     H96365   2.294   8.665   3.820  0.5644 -0.3881 -0.3253
  714MOL0     H96366   2.454   8.403   3.873 -0.3631  1.1370 -1.8356
  714MOL0     H96367   2.419   8.541   3.986  0.9911  1.2816 -1.2790
  714MOL0     H96368   2.215   8.347   3.846 -0.6762 -0.2705  0.1943
  714MOL0     H96369   2.184   8.451   3.983 -0.8003 -2.5975  0.8834
  714MOL0     H96370   2.345   8.197   4.000 -0.2447 -0.4192  0.1776
  714MOL0     H96371   2.198   8.237   4.096  0.2871 -0.2016  1.0828
  714MOL0     H96372   2.852   8.928   4.104 -0.0580 -1.2664  1.5698
  714MOL0     H96373   3.045   8.926   4.240 -0.1436 -0.8588  0.6633
  714MOL0     H96374   3.668   8.712   4.165  0.9581 -1.1308  3.9921
  714MOL0     H96375   3.862   8.800   4.264  0.8282  1.0378 -1.5816
  714MOL0     H96376   5.708   9.667   4.645  0.5308  0.3703  1.0465
  714MOL0     H96377   5.800   9.778   4.812  0.4114  1.3972  0.6580
  714MOL0     H96378   5.909   9.960   5.115 -3.4654 -0.5490 -0.6318
  714MOL0     H96379   6.065  10.079   5.278  0.3467 -0.0665  2.6471
  714MOL0     H96380   6.138  10.319   5.546 -0.9778  2.4603 -1.1527
  714MOL0     H96381   6.181  10.194   5.442 -0.7721 -1.7942  0.6286
  714MOL0     H96382   6.008  10.434   5.377  1.4410  0.4320  1.6165
  714MOL0     H96383   6.041  10.328   5.244  0.1687  1.2313 -1.2613
  714MOL0     H96384   6.295  10.356   5.285  0.7446  0.7601  2.4357
  714MOL0     H96385   6.260  10.494   5.383 -0.6278  0.5027  0.3503
  714MOL0     H96386   6.167  10.618   5.204  1.8008  0.7306  2.2428
  714MOL0     H96387   6.163  10.482   5.085  0.4456 -1.8477 -0.1075
  714MOL0     H96388   6.562  10.599   5.072 -1.0439  0.2599 -1.2334
  714MOL0     H96389   5.717  10.197   5.493  0.1011  3.2619 -3.1762
  714MOL0     H96390   5.574  10.072   5.358  0.9195 -0.5410  3.8538
  715MOL0     O96391  11.154   3.977   6.527 -0.2207  0.0454  0.7584
  715MOL0     C96392  11.129   3.890   6.610 -0.0166 -0.1728  0.7172
  715MOL0     O96393  11.013   3.819   6.611  0.4783 -0.1258 -0.0830
  715MOL0     C96394  10.920   3.863   6.530 -0.6198 -0.0933 -0.3699
  715MOL0     C96395  10.875   3.995   6.524 -0.2733 -0.3021 -0.1006
  715MOL0     C96396  10.773   4.027   6.427 -0.8177  0.1527 -0.2813
  715MOL0     C96397  10.717   3.932   6.342 -0.0534  0.2000  0.4443
  715MOL0     O96398  10.634   3.960   6.239  0.0377 -0.1241  0.9467
  715MOL0     C96399  10.559   4.083   6.238  0.5141  0.8699 -0.1965
  715MOL0     C96400  10.448   4.081   6.344  0.5519 -0.1589  1.1826
  715MOL0     C96401  10.413   4.225   6.390  0.8165  0.0145  0.7961
  715MOL0     C96402  10.268   4.237   6.426  0.4597  0.6807 -0.1253
  715MOL0     C96403  10.260   4.346   6.524 -0.4150 -0.2822 -0.1823
  715MOL0     C96404  10.116   4.402   6.543 -0.0540  0.2549  0.4070
  715MOL0     C96405   9.991   4.304   6.550 -0.1292 -0.2175 -0.6710
  715MOL0     C96406   9.994   4.198   6.644 -0.2422 -0.1050 -0.9161
  715MOL0     N96407  10.034   4.251   6.783  0.3430  0.1762  0.0957
  715MOL0     C96408   9.976   4.340   6.871 -0.2115  0.3184 -0.0088
  715MOL0     C96409  10.046   4.324   6.984 -0.1946  0.0009 -0.0050
  715MOL0     C96410  10.017   4.389   7.124 -0.1365 -0.1196  0.6287
  715MOL0     C96411  10.053   4.539   7.136  0.0622  0.0805 -0.4369
  715MOL0     C96412   9.968   4.599   7.245  1.0043 -0.1603 -0.7487
  715MOL0     C96413   9.844   4.678   7.195 -1.5890 -0.6936  0.4269
  715MOL0     O96414   9.747   4.592   7.144 -0.0366 -0.3379  0.1982
  715MOL0     C96415   9.666   4.520   7.238 -0.1175 -0.3016 -0.3559
  715MOL0     C96416   9.586   4.426   7.183  0.7156 -0.5127 -0.7377
  715MOL0     C96417   9.503   4.337   7.252 -0.1043 -0.7032 -0.6910
  715MOL0     C96418   9.423   4.231   7.182  0.6248  0.0837  0.0365
  715MOL0     C96419   9.491   4.354   7.391  0.3603 -0.3129 -0.6932
  715MOL0     C96420   9.395   4.292   7.469 -0.4798 -0.1493 -0.1382
  715MOL0     O96421   9.269   4.350   7.489  0.2471 -0.2772  0.5696
  715MOL0     C96422   9.174   4.312   7.571  0.6645 -0.2345 -0.3852
  715MOL0     C96423   9.191   4.241   7.691 -0.2641 -0.9125 -0.3703
  715MOL0     C96424   9.075   4.210   7.763 -0.2047  0.1402  0.6511
  715MOL0     C96425   8.952   4.233   7.718 -0.4408 -0.2469 -0.2941
  715MOL0     O96426   8.855   4.194   7.805  0.2322 -0.0187  0.1490
  715MOL0     C96427   8.729   4.164   7.742  0.4247  0.1225  0.4770
  715MOL0     C96428   8.637   4.082   7.836 -0.4315  0.7424  0.8306
  715MOL0     C96429   8.497   4.073   7.787  0.1367  0.7342  0.6209
  715MOL0     C96430   8.417   4.205   7.816  0.1920  0.3467 -0.7612
  715MOL0     C96431   8.268   4.189   7.824  0.2952 -0.5563 -0.2290
  715MOL0     C96432   8.227   4.106   7.941  0.1631  0.1830 -0.1382
  715MOL0     C96433   8.068   4.126   7.968  0.0136  0.0766  0.1033
  715MOL0     C96434   7.982   4.154   7.849  0.5699  0.5384  0.5221
  715MOL0    Cl96435   7.999   4.029   7.716 -0.2629  0.0256  0.0692
  715MOL0     C96436   8.925   4.304   7.593 -0.6674  0.8491 -0.4548
  715MOL0     C96437   9.042   4.348   7.527  0.6554 -0.0751 -0.7047
  715MOL0     O96438   9.425   4.177   7.504  0.4333 -0.0407  0.1825
  715MOL0     C96439   9.572   4.449   7.451 -0.1329 -0.0606  0.3688
  715MOL0     C96440   9.661   4.530   7.378 -0.9529 -0.1840 -0.4798
  715MOL0     N96441  10.145   4.235   6.961  0.1278  0.7941  0.1265
  715MOL0     N96442  10.140   4.191   6.840 -0.7608  0.2714  0.2873
  715MOL0     C96443  10.751   3.803   6.357 -0.0303 -0.6084  0.3447
  715MOL0     C96444  10.851   3.765   6.448  0.7088  1.1132 -0.1748
  715MOL0     C96445  11.238   3.875   6.704  0.3786 -0.9861  0.1969
  715MOL0     C96446  11.331   3.977   6.731 -1.3201 -0.1560 -0.6635
  715MOL0     C96447  11.452   3.955   6.792  0.8989  0.8673 -0.3963
  715MOL0     C96448  11.483   3.827   6.836 -0.4539  0.2941  0.7746
  715MOL0     O96449  11.603   3.778   6.880 -0.8745  0.0308  0.1037
  715MOL0     C96450  11.721   3.873   6.865  0.8336  0.7663  0.3444
  715MOL0     C96451  11.845   3.791   6.887 -0.4924 -0.2305  0.2471
  715MOL0     C96452  11.975   3.875   6.882  0.0672 -0.9269 -0.1956
  715MOL0     C96453  12.099   3.797   6.849  0.5854 -0.8479  0.0049
  715MOL0     C96454  12.168   3.753   6.971  0.6536 -0.0061  0.3171
  715MOL0     C96455  12.219   3.712   7.070  0.0458  0.3239  0.0243
  715MOL0     C96456  11.385   3.726   6.837  1.2598 -0.1908 -0.5118
  715MOL0     C96457  11.258   3.752   6.773 -0.3333 -0.3118 -0.0608
  715MOL0     H96458  10.935   4.071   6.572 -0.4043  1.2968 -2.3217
  715MOL0     H96459  10.755   4.134   6.421  0.5176  0.3117 -2.1612
  715MOL0     H96460  10.624   4.168   6.259  1.3899 -0.1855  1.6170
  715MOL0     H96461  10.497   4.094   6.149 -2.0990  0.6510  1.4578
  715MOL0     H96462  10.367   4.016   6.308  2.8294 -1.7767 -1.4603
  715MOL0     H96463  10.482   4.032   6.435  1.5923  0.1300  0.9671
  715MOL0     H96464  10.484   4.252   6.468  1.6281  0.1625  0.0154
  715MOL0     H96465  10.419   4.281   6.297 -3.9729  0.9217  0.7413
  715MOL0     H96466  10.205   4.258   6.338  0.2779  2.7050  0.4314
  715MOL0     H96467  10.232   4.143   6.469  3.1558 -0.5295 -0.3596
  715MOL0     H96468  10.293   4.305   6.620 -0.0360 -2.0259 -1.0180
  715MOL0     H96469  10.322   4.430   6.490 -0.3659 -0.5395 -0.7338
  715MOL0     H96470  10.116   4.476   6.623  0.1722 -0.6054  1.2249
  715MOL0     H96471  10.097   4.459   6.452 -0.0977 -0.0936  0.1973
  715MOL0     H96472   9.906   4.369   6.567  0.2101  0.1483 -0.3513
  715MOL0     H96473   9.976   4.253   6.454 -2.0865  4.3956 -3.1393
  715MOL0     H96474  10.058   4.118   6.605 -0.6181 -0.4935 -0.7423
  715MOL0     H96475   9.893   4.157   6.651 -0.0295 -0.3567  2.1269
  715MOL0     H96476   9.889   4.402   6.853 -1.5591 -0.5605  2.8762
  715MOL0     H96477   9.911   4.375   7.145 -0.6796  0.4998 -1.5066
  715MOL0     H96478  10.087   4.342   7.195  2.8484 -1.2338 -2.7237
  715MOL0     H96479  10.029   4.596   7.046 -0.0172 -1.3505 -1.3516
  715MOL0     H96480  10.155   4.550   7.173 -0.5134  0.5559  1.0836
  715MOL0     H96481  10.022   4.664   7.314  2.3450 -0.8412 -1.1193
  715MOL0     H96482   9.931   4.517   7.308  2.1287 -0.0895  0.0263
  715MOL0     H96483   9.880   4.748   7.119  1.4777 -0.7812  1.6770
  715MOL0     H96484   9.794   4.728   7.279 -2.8957  0.4274 -0.9478
  715MOL0     H96485   9.599   4.407   7.077  2.9297 -0.4139 -0.5212
  715MOL0     H96486   9.460   4.209   7.082  0.4297  0.3309 -0.0908
  715MOL0     H96487   9.429   4.139   7.241  0.0338  0.3902  0.5869
  715MOL0     H96488   9.317   4.259   7.177  0.8265  0.6686 -2.3116
  715MOL0     H96489   9.297   4.229   7.712  0.4911  0.9204 -2.7476
  715MOL0     H96490   9.093   4.158   7.856 -0.1889  1.8782  1.6649
  715MOL0     H96491   8.688   4.264   7.729  0.8148  0.2989  0.5835
  715MOL0     H96492   8.739   4.107   7.649 -1.1899  0.7987 -0.1361
  715MOL0     H96493   8.680   3.982   7.839  0.7244  1.1761 -0.3994
  715MOL0     H96494   8.636   4.123   7.938 -0.9102 -0.8850  1.5056
  715MOL0     H96495   8.459   3.989   7.846 -2.0487 -0.6155 -2.4375
  715MOL0     H96496   8.485   4.051   7.680  0.9594 -0.7284  0.8030
  715MOL0     H96497   8.435   4.238   7.918  0.2189 -1.9965  0.0306
  715MOL0     H96498   8.447   4.275   7.736 -2.6223  0.5987 -1.7185
  715MOL0     H96499   8.218   4.148   7.736 -0.2785 -0.4589  0.0490
  715MOL0     H96500   8.241   4.295   7.831 -0.7754 -0.8839  0.8377
  715MOL0     H96501   8.252   4.000   7.930 -0.3112 -0.0323  0.7627
  715MOL0     H96502   8.276   4.133   8.035 -0.0495  0.8990 -0.2293
  715MOL0     H96503   8.050   4.202   8.045 -1.2047 -0.9540  0.8685
  715MOL0     H96504   8.019   4.043   8.019 -2.7603  1.7058  0.2742
  715MOL0     H96505   8.012   4.250   7.806  1.3122  0.5637  1.0852
  715MOL0     H96506   7.877   4.162   7.880  0.3888  0.2177  0.0113
  715MOL0     H96507   8.825   4.317   7.552 -1.2436  1.3714  1.0502
  715MOL0     H96508   9.022   4.408   7.439  0.1101 -0.9476 -1.1843
  715MOL0     H96509   9.551   4.483   7.551  0.4567  1.0168  0.1442
  715MOL0     H96510   9.705   4.610   7.437 -2.3327 -1.1027  1.9357
  715MOL0     H96511  10.706   3.723   6.299  1.9272 -3.0388  1.9837
  715MOL0     H96512  10.883   3.662   6.462  1.7001  1.1884 -1.7105
  715MOL0     H96513  11.322   4.078   6.692  3.4380  0.5268 -0.5961
  715MOL0     H96514  11.533   4.027   6.792  0.8678  1.0403 -3.5279
  715MOL0     H96515  11.720   3.893   6.758 -0.0435  1.2919  0.4432
  715MOL0     H96516  11.699   3.964   6.921 -2.6065  2.7713 -3.6982
  715MOL0     H96517  11.846   3.711   6.814 -0.5773  0.2081 -0.2417
  715MOL0     H96518  11.850   3.742   6.985  3.0383 -2.0993 -0.7273
  715MOL0     H96519  11.980   3.910   6.985  1.6407 -1.7571  0.0457
  715MOL0     H96520  11.963   3.959   6.813 -1.5447 -2.1579 -1.4836
  715MOL0     H96521  12.170   3.854   6.788  0.7079 -2.2794 -1.2592
  715MOL0     H96522  12.083   3.706   6.791 -0.6193 -1.6168  1.4726
  715MOL0     H96523  12.265   3.667   7.155  1.2303 -1.1350 -1.3177
  715MOL0     H96524  11.415   3.625   6.863 -0.2811 -0.5987 -0.2376
  715MOL0     H96525  11.199   3.661   6.768 -2.3778  0.8767  1.0616
  716MOL0     O96526   2.223   6.588   2.203 -0.8885 -0.3052  0.2414
  716MOL0     C96527   2.141   6.655   2.139  0.3518 -0.1224  0.4949
  716MOL0     O96528   2.084   6.618   2.022  0.0963 -0.1590 -0.1458
  716MOL0     C96529   2.083   6.485   2.002  0.3856 -0.0127  0.4145
  716MOL0     C96530   1.974   6.420   2.057 -0.3231  0.6980 -1.2615
  716MOL0     C96531   1.980   6.280   2.036 -0.4462 -0.0305  0.1832
  716MOL0     C96532   2.078   6.206   1.964  0.7052  0.1003 -0.3308
  716MOL0     O96533   2.073   6.069   1.947  0.3976 -0.4760 -0.0942
  716MOL0     C96534   1.952   6.035   1.870 -0.4967 -0.2133 -0.1663
  716MOL0     C96535   1.966   6.057   1.724 -0.6284  0.0366  0.0103
  716MOL0     C96536   1.832   6.020   1.651 -0.1581  0.6663 -0.5610
  716MOL0     C96537   1.831   6.075   1.504 -0.9402  0.0858  0.2452
  716MOL0     C96538   1.689   6.054   1.455  0.3858  0.3046 -0.5284
  716MOL0     C96539   1.704   6.051   1.302  0.2193  0.4289  0.6973
  716MOL0     C96540   1.732   6.194   1.242  0.9629 -0.0685  0.2777
  716MOL0     C96541   1.688   6.214   1.101 -0.0723 -0.0814  0.2664
  716MOL0     N96542   1.709   6.341   1.036  0.1967 -0.7858 -0.8154
  716MOL0     C96543   1.820   6.387   0.974  0.2457  0.0175 -0.3350
  716MOL0     C96544   1.785   6.512   0.937  0.0103  0.2172  0.4259
  716MOL0     C96545   1.871   6.604   0.854 -0.4929  0.4373 -0.5407
  716MOL0     C96546   1.998   6.658   0.928  0.0558  0.8069  0.9787
  716MOL0     C96547   1.945   6.715   1.067  0.1124 -0.6229  0.8370
  716MOL0     C96548   2.030   6.826   1.135  0.0205  0.4471 -0.6108
  716MOL0     O96549   1.955   6.956   1.142 -0.2448  0.9230  0.4761
  716MOL0     C96550   2.028   7.069   1.176 -0.9966 -1.3793  0.3192
  716MOL0     C96551   1.959   7.192   1.206  0.5552 -0.6207  0.0381
  716MOL0     C96552   2.009   7.303   1.269 -0.8355  0.2476  0.3806
  716MOL0     C96553   1.906   7.419   1.293  0.6472 -0.2256 -0.4056
  716MOL0     C96554   2.145   7.308   1.293  0.3682  0.6860  0.3001
  716MOL0     C96555   2.207   7.429   1.355 -1.4728 -0.5872  0.2852
  716MOL0     O96556   2.141   7.547   1.366  0.9033 -0.5828  0.5555
  716MOL0     C96557   2.211   7.666   1.384  0.4701 -0.4153 -0.0465
  716MOL0     C96558   2.130   7.764   1.441 -0.0606 -0.1696  0.3936
  716MOL0     C96559   2.190   7.888   1.465  0.6533 -0.4276 -0.7635
  716MOL0     C96560   2.327   7.911   1.444 -0.9026 -0.7444  0.7426
  716MOL0     O96561   2.372   8.027   1.493  0.2004  0.1682  0.5765
  716MOL0     C96562   2.422   8.107   1.388  1.0660 -0.0260  1.1262
  716MOL0     C96563   2.468   8.249   1.429 -0.7200  0.2141  0.1304
  716MOL0     C96564   2.583   8.247   1.521  0.8111  0.0792  0.4674
  716MOL0     C96565   2.636   8.392   1.543  0.2883 -0.0535 -1.2148
  716MOL0     C96566   2.790   8.392   1.544  0.2166  0.0791  0.2803
  716MOL0     C96567   2.846   8.535   1.560 -0.0346 -0.6244  0.4918
  716MOL0     C96568   2.992   8.546   1.523  0.3510  0.4913 -0.5521
  716MOL0     C96569   3.092   8.468   1.615 -0.2819  0.2211 -0.2627
  716MOL0    Cl96570   3.261   8.516   1.600 -0.1927  0.2926 -0.0523
  716MOL0     C96571   2.410   7.814   1.386 -0.2911 -0.2457 -0.7843
  716MOL0     C96572   2.351   7.688   1.362 -0.9534  0.8832  0.1102
  716MOL0     O96573   2.327   7.416   1.391  0.1994  0.4730  0.3275
  716MOL0     C96574   2.218   7.183   1.275 -0.0747  0.2121  0.0449
  716MOL0     C96575   2.168   7.068   1.210  0.2533  0.3423 -0.1229
  716MOL0     N96576   1.659   6.539   0.962 -0.2413 -0.3442 -0.8055
  716MOL0     N96577   1.612   6.430   1.020  0.3962 -1.0053 -0.0133
  716MOL0     C96578   2.181   6.289   1.916  0.1507 -0.0958 -0.0656
  716MOL0     C96579   2.186   6.430   1.930  1.2298  0.2408 -0.1566
  716MOL0     C96580   2.132   6.799   2.174 -0.1389  0.6097  0.6821
  716MOL0     C96581   2.118   6.902   2.081 -0.8023  0.0986 -0.5172
  716MOL0     C96582   2.117   7.034   2.122  0.7634 -0.0783 -0.4031
  716MOL0     C96583   2.138   7.065   2.260  0.0319 -0.3738 -0.2231
  716MOL0     O96584   2.136   7.194   2.316  0.1096  0.6935  0.3956
  716MOL0     C96585   2.150   7.303   2.229  0.7404 -0.4969 -0.4273
  716MOL0     C96586   2.146   7.425   2.318  0.2008  0.6734 -0.5308
  716MOL0     C96587   2.215   7.544   2.258 -0.2529  0.5582 -0.2356
  716MOL0     C96588   2.193   7.663   2.354 -0.1007  0.1112 -0.0474
  716MOL0     C96589   2.260   7.783   2.322 -0.2100 -0.3619 -0.6615
  716MOL0     C96590   2.335   7.869   2.290 -0.8881  0.6254 -0.3426
  716MOL0     C96591   2.172   6.968   2.350 -0.3819  0.1060  0.1087
  716MOL0     C96592   2.172   6.832   2.309 -0.0358  0.9910  0.7886
  716MOL0     H96593   1.887   6.453   2.112  0.0031 -1.2284  0.5631
  716MOL0     H96594   1.892   6.222   2.062  0.0613 -0.7339  0.3624
  716MOL0     H96595   1.942   5.927   1.881  2.9400 -0.9352 -2.5196
  716MOL0     H96596   1.864   6.084   1.914 -0.2910  0.8661 -0.8893
  716MOL0     H96597   1.990   6.158   1.691 -1.9435  0.5107  0.4480
  716MOL0     H96598   2.041   5.982   1.696 -0.9490 -0.6533  0.9484
  716MOL0     H96599   1.830   5.911   1.646  1.1680  0.5682  0.6953
  716MOL0     H96600   1.750   6.066   1.707  0.0376  0.3537 -0.0156
  716MOL0     H96601   1.865   6.179   1.503  3.0964 -0.9727  2.8505
  716MOL0     H96602   1.897   6.014   1.441  0.7724  0.8168  1.2464
  716MOL0     H96603   1.648   5.956   1.479 -0.1347  0.4173 -0.9308
  716MOL0     H96604   1.617   6.124   1.499 -0.9843 -1.8752  0.8741
  716MOL0     H96605   1.780   5.984   1.261  0.5623  2.8852 -3.2792
  716MOL0     H96606   1.613   6.015   1.252  1.0016  0.4241 -0.7747
  716MOL0     H96607   1.680   6.270   1.300 -2.2675 -1.2021 -0.9034
  716MOL0     H96608   1.841   6.204   1.245  1.2349 -2.2958  0.0776
  716MOL0     H96609   1.581   6.196   1.089 -0.1909  1.9514 -2.7510
  716MOL0     H96610   1.753   6.144   1.047 -2.1855 -0.6547 -1.6732
  716MOL0     H96611   1.920   6.345   0.975 -0.6827 -2.3967 -0.6007
  716MOL0     H96612   1.897   6.556   0.759 -0.0366  0.6816 -0.5437
  716MOL0     H96613   1.809   6.690   0.825  1.8661  2.1240 -0.8410
  716MOL0     H96614   2.045   6.733   0.864  2.5577 -0.0069  1.7465
  716MOL0     H96615   2.060   6.570   0.948 -3.8703 -1.9324  2.2440
  716MOL0     H96616   1.951   6.632   1.138  1.2216 -0.6890  0.6831
  716MOL0     H96617   1.848   6.758   1.041  0.3661 -1.1688 -1.1564
  716MOL0     H96618   2.116   6.839   1.069  0.5220 -1.5308 -0.4254
  716MOL0     H96619   2.047   6.797   1.239 -1.2565 -1.5620 -0.8976
  716MOL0     H96620   1.856   7.200   1.175 -0.7162  0.0049  3.9105
  716MOL0     H96621   1.927   7.501   1.225  1.7062 -1.0320 -1.0848
  716MOL0     H96622   1.803   7.388   1.273  1.0756 -1.1689 -1.2112
  716MOL0     H96623   1.914   7.441   1.400  2.2533 -1.6979 -0.1722
  716MOL0     H96624   2.029   7.745   1.476  0.3599 -1.6702  0.8613
  716MOL0     H96625   2.129   7.968   1.505  2.8382  1.5537 -1.1448
  716MOL0     H96626   2.510   8.058   1.345  0.9145 -0.6566  1.5195
  716MOL0     H96627   2.352   8.115   1.304  2.3210 -0.0417  0.0452
  716MOL0     H96628   2.507   8.295   1.337  2.2959  0.5219  1.4338
  716MOL0     H96629   2.393   8.319   1.468 -3.2838 -0.3737 -3.2932
  716MOL0     H96630   2.667   8.187   1.484  1.4093 -0.0386  1.9455
  716MOL0     H96631   2.542   8.209   1.615 -0.1052  0.4045  0.2085
  716MOL0     H96632   2.592   8.454   1.465  1.7192  1.5098 -0.8582
  716MOL0     H96633   2.599   8.425   1.641 -2.4165  3.2305 -3.0958
  716MOL0     H96634   2.803   8.355   1.442 -2.4991 -1.0895  0.2569
  716MOL0     H96635   2.838   8.319   1.609  1.4231 -0.0382 -0.7103
  716MOL0     H96636   2.798   8.610   1.496  4.7181  2.0413 -0.4347
  716MOL0     H96637   2.837   8.559   1.666 -2.2703 -1.4600  0.5413
  716MOL0     H96638   3.015   8.651   1.544 -2.3418  0.8357  1.2784
  716MOL0     H96639   3.015   8.510   1.423  2.8629  0.9692 -0.2026
  716MOL0     H96640   3.089   8.360   1.599  1.0738  0.4631 -2.6402
  716MOL0     H96641   3.067   8.476   1.721  0.3596 -0.2095 -0.0718
  716MOL0     H96642   2.514   7.838   1.365 -0.7451  2.0880 -0.6159
  716MOL0     H96643   2.417   7.609   1.326 -2.6531 -1.0828  1.0883
  716MOL0     H96644   2.318   7.173   1.314 -0.5745 -0.7261  1.1524
  716MOL0     H96645   2.229   6.979   1.200  0.1517  0.0653  1.4316
  716MOL0     H96646   2.262   6.246   1.858 -1.2241 -3.4670  0.2959
  716MOL0     H96647   2.265   6.490   1.888 -0.1545  1.7399 -0.7453
  716MOL0     H96648   2.090   6.891   1.976  0.4656  1.4747 -1.0404
  716MOL0     H96649   2.108   7.112   2.048  1.8503 -0.8003 -1.3261
  716MOL0     H96650   2.244   7.304   2.173  3.5494 -1.9866  3.7085
  716MOL0     H96651   2.071   7.311   2.155 -0.4380 -1.0290  0.7276
  716MOL0     H96652   2.192   7.395   2.413  2.7479  1.9589 -1.2457
  716MOL0     H96653   2.042   7.453   2.332 -0.4168 -1.1953 -1.1398
  716MOL0     H96654   2.192   7.555   2.151 -1.9776 -3.1724 -0.4041
  716MOL0     H96655   2.321   7.517   2.252  0.1991  2.4807 -2.0043
  716MOL0     H96656   2.235   7.637   2.451 -0.3955  1.1842  0.3816
  716MOL0     H96657   2.086   7.684   2.363  0.2847  1.4396  2.2097
  716MOL0     H96658   2.388   7.960   2.267 -1.8497  1.5311  0.9302
  716MOL0     H96659   2.200   6.999   2.450  0.9450  3.4744 -1.1453
  716MOL0     H96660   2.203   6.749   2.372 -0.3513  0.4060  0.1694
  717MOL0     O96661   3.182  10.194   2.992 -0.1926  0.1958  0.8784
  717MOL0     C96662   3.244  10.162   2.888  0.0460 -0.9904  0.2120
  717MOL0     O96663   3.377  10.134   2.887  0.4897  0.1058  0.6285
  717MOL0     C96664   3.456  10.117   2.995 -1.5107  0.0315 -0.6796
  717MOL0     C96665   3.422  10.058   3.117 -0.3640 -0.2413  0.3585
  717MOL0     C96666   3.505  10.049   3.229 -0.2101 -0.3004  0.1806
  717MOL0     C96667   3.648  10.073   3.216 -0.5808 -0.3762 -0.3923
  717MOL0     O96668   3.750  10.069   3.314 -0.6385 -0.1671 -0.2577
  717MOL0     C96669   3.693  10.058   3.444 -0.4272  0.0502 -0.4588
  717MOL0     C96670   3.819  10.076   3.538 -0.8228 -0.2436 -0.4209
  717MOL0     C96671   3.788  10.104   3.680  0.2406 -0.0991 -0.2465
  717MOL0     C96672   3.749  10.247   3.700 -0.0168 -1.0896  0.2519
  717MOL0     C96673   3.749  10.282   3.849 -0.3439 -0.2723 -0.3351
  717MOL0     C96674   3.691  10.423   3.881  0.2853  0.9816  0.2238
  717MOL0     C96675   3.640  10.444   4.017 -0.3378 -0.1618  0.9281
  717MOL0     C96676   3.513  10.355   4.050 -0.1070 -0.9159  0.7178
  717MOL0     N96677   3.391  10.430   4.013 -0.0653  0.2716 -0.0792
  717MOL0     C96678   3.310  10.489   4.103 -0.0780 -0.3871 -0.4845
  717MOL0     C96679   3.211  10.542   4.028 -0.4952  0.1803  0.3466
  717MOL0     C96680   3.091  10.619   4.081  0.4936  0.2904  0.2149
  717MOL0     C96681   3.112  10.769   4.060 -0.3105  0.4231  0.4058
  717MOL0     C96682   3.003  10.855   4.115 -0.4314  0.5363  0.5279
  717MOL0     C96683   3.023  11.007   4.080  0.8083 -0.5358 -0.3300
  717MOL0     O96684   2.904  11.077   4.122 -0.0200 -0.4266 -0.0484
  717MOL0     C96685   2.915  11.213   4.135 -0.2146 -0.0022 -0.0068
  717MOL0     C96686   2.810  11.274   4.199 -0.1898 -0.3009  0.1856
  717MOL0     C96687   2.803  11.417   4.216  0.3827  1.1630  0.3362
  717MOL0     C96688   2.679  11.464   4.298 -0.1975  0.2960 -0.2051
  717MOL0     C96689   2.914  11.499   4.181  0.4628 -0.3756 -0.6490
  717MOL0     C96690   2.891  11.641   4.193 -0.0327  0.4484 -0.4836
  717MOL0     O96691   2.866  11.707   4.077 -0.6004 -0.5393  0.2574
  717MOL0     C96692   2.870  11.841   4.087  0.6353 -0.6783  1.3713
  717MOL0     C96693   2.978  11.919   4.118  0.2613 -0.2175 -0.2596
  717MOL0     C96694   2.977  12.061   4.118 -0.5793  0.6217 -0.2257
  717MOL0     C96695   2.862  12.132   4.080  0.2800  0.2411  0.2516
  717MOL0     O96696   2.847  12.271   4.075 -0.4001  0.2064  0.2370
  717MOL0     C96697   2.968  12.349   4.099  0.1959 -0.5445 -0.3370
  717MOL0     C96698   3.000  12.358   4.248 -0.2428 -0.1287 -0.6578
  717MOL0     C96699   2.915  12.459   4.327 -0.5236  0.0673  0.6124
  717MOL0     C96700   2.964  12.494   4.459  0.3865 -0.4850  0.3055
  717MOL0     C96701   2.862  12.585   4.540 -0.7386 -0.7643  0.0585
  717MOL0     C96702   2.923  12.664   4.658 -0.5595 -1.1641 -0.1695
  717MOL0     C96703   2.803  12.719   4.739 -0.0209 -0.0018 -0.1015
  717MOL0     C96704   2.845  12.758   4.869  0.0374  0.1180 -0.6889
  717MOL0    Cl96705   2.712  12.813   4.963  0.2325 -0.0236 -0.3930
  717MOL0     C96706   2.751  12.052   4.050  0.4439 -1.0581  1.0449
  717MOL0     C96707   2.762  11.913   4.040 -0.3422 -0.0727  0.5853
  717MOL0     O96708   2.897  11.693   4.307 -0.4420  0.0634  0.3176
  717MOL0     C96709   3.028  11.437   4.126  0.1949 -1.1373 -0.1984
  717MOL0     C96710   3.026  11.299   4.101 -0.4598  0.5653  0.5810
  717MOL0     N96711   3.241  10.522   3.895 -0.2550  0.0016  0.3766
  717MOL0     N96712   3.337  10.436   3.890  0.1366 -0.5460 -0.2463
  717MOL0     C96713   3.687  10.123   3.090  0.7899  0.7816 -0.5750
  717MOL0     C96714   3.589  10.160   2.992  0.2903  0.6105  0.4399
  717MOL0     C96715   3.168  10.161   2.760 -0.1438 -0.1594 -0.0768
  717MOL0     C96716   3.034  10.186   2.761  0.6706  0.7787  0.3901
  717MOL0     C96717   2.968  10.204   2.636  0.1681 -0.1917 -0.2988
  717MOL0     C96718   3.040  10.175   2.512 -0.0409 -1.3901 -0.0353
  717MOL0     O96719   2.980  10.186   2.394  0.2444  0.0620  0.3741
  717MOL0     C96720   2.922  10.316   2.360  0.6064  0.0643 -0.3602
  717MOL0     C96721   2.773  10.314   2.334 -0.4009 -0.3213  0.5008
  717MOL0     C96722   2.743  10.217   2.217  0.1536  0.6061 -0.0373
  717MOL0     C96723   2.778  10.254   2.076  0.1736  0.1835  0.4219
  717MOL0     C96724   2.684  10.195   1.982  0.0232 -0.2932  0.3439
  717MOL0     C96725   2.606  10.140   1.909  0.2004 -0.4538  0.2552
  717MOL0     C96726   3.167  10.129   2.518 -0.7876  0.3195 -0.4027
  717MOL0     C96727   3.232  10.126   2.641 -0.2195 -0.6057  0.0701
  717MOL0     H96728   3.318  10.034   3.134 -0.6935 -0.4572 -1.7140
  717MOL0     H96729   3.459  10.020   3.323  1.3379  1.2845  1.4969
  717MOL0     H96730   3.616  10.133   3.464 -1.7716 -1.2771 -0.4955
  717MOL0     H96731   3.642   9.963   3.459 -0.6127  0.0832 -0.8848
  717MOL0     H96732   3.874   9.981   3.535  1.7990  1.1892 -0.7474
  717MOL0     H96733   3.888  10.153   3.502  1.4871 -0.0733  3.7131
  717MOL0     H96734   3.713  10.037   3.722 -0.9310 -0.5424 -2.8579
  717MOL0     H96735   3.880  10.075   3.732  0.6755  0.9068 -0.4297
  717MOL0     H96736   3.816  10.321   3.655 -1.0974  0.0774  0.5033
  717MOL0     H96737   3.649  10.267   3.659 -0.5625 -2.6018  0.7957
  717MOL0     H96738   3.690  10.203   3.897  0.4603 -0.8434 -0.2436
  717MOL0     H96739   3.853  10.276   3.884  0.4473  1.0251 -2.2961
  717MOL0     H96740   3.770  10.492   3.849  3.0889 -2.1158 -0.1661
  717MOL0     H96741   3.609  10.438   3.811 -0.1194 -0.3286  0.3978
  717MOL0     H96742   3.723  10.421   4.085 -0.8749  0.1364  1.6978
  717MOL0     H96743   3.617  10.551   4.022 -3.0382 -0.5568 -1.1743
  717MOL0     H96744   3.517  10.334   4.157  4.1691 -0.5547  0.8190
  717MOL0     H96745   3.515  10.257   4.001 -0.3661 -1.6435  2.1089
  717MOL0     H96746   3.319  10.500   4.211  2.1707 -1.7917 -0.4762
  717MOL0     H96747   3.003  10.582   4.028  0.6460 -1.1910  0.9577
  717MOL0     H96748   3.068  10.599   4.185  1.4135 -0.9842  0.2023
  717MOL0     H96749   3.136  10.781   3.954 -0.1309  0.6969  0.4786
  717MOL0     H96750   3.199  10.807   4.113  0.5794 -2.0159  0.8432
  717MOL0     H96751   2.985  10.830   4.220 -0.9870  0.2380  0.3606
  717MOL0     H96752   2.924  10.815   4.052  1.6069 -4.4854  0.7304
  717MOL0     H96753   3.034  11.030   3.974  1.4734  0.4281 -0.0605
  717MOL0     H96754   3.110  11.044   4.135 -0.7636 -1.1004  2.7775
  717MOL0     H96755   2.729  11.212   4.236 -0.1507 -0.6244 -0.2643
  717MOL0     H96756   2.629  11.383   4.351 -0.4614 -0.3646 -1.4230
  717MOL0     H96757   2.698  11.548   4.366  2.2207  1.3641 -2.0417
  717MOL0     H96758   2.604  11.491   4.223 -1.1208  0.1329  0.6451
  717MOL0     H96759   3.071  11.872   4.148 -2.0098 -4.1943  1.1875
  717MOL0     H96760   3.067  12.117   4.140 -0.0429  0.1217 -1.0978
  717MOL0     H96761   3.053  12.301   4.049  0.3750  0.1005 -0.6569
  717MOL0     H96762   2.948  12.452   4.067 -0.5304 -0.7645 -0.6106
  717MOL0     H96763   2.991  12.266   4.305 -0.8048 -0.2756 -0.9682
  717MOL0     H96764   3.101  12.399   4.261 -1.3995  2.5253  0.8709
  717MOL0     H96765   2.813  12.424   4.342 -0.2856 -0.3075  1.4293
  717MOL0     H96766   2.908  12.552   4.270 -0.4769 -0.3740 -0.1281
  717MOL0     H96767   2.997  12.406   4.516 -2.4245 -3.2099 -1.9023
  717MOL0     H96768   3.048  12.562   4.445  0.7445 -1.0940 -0.6598
  717MOL0     H96769   2.782  12.517   4.569 -1.2589 -0.8641 -1.5116
  717MOL0     H96770   2.832  12.665   4.472  0.7987  0.9950  1.3603
  717MOL0     H96771   2.978  12.588   4.714 -3.4679 -0.8685  3.5074
  717MOL0     H96772   2.991  12.734   4.609  0.1899 -3.0974 -2.0366
  717MOL0     H96773   2.727  12.640   4.743 -0.0118  0.0063  0.3718
  717MOL0     H96774   2.753  12.792   4.675  1.4074 -0.2531 -1.5644
  717MOL0     H96775   2.935  12.820   4.864  0.6946 -0.8816 -1.6683
  717MOL0     H96776   2.881  12.666   4.915 -2.5701  0.0977  1.5684
  717MOL0     H96777   2.659  12.098   4.015  0.8055 -0.6677  0.5916
  717MOL0     H96778   2.691  11.843   3.999  0.8777 -1.7689  1.2508
  717MOL0     H96779   3.114  11.494   4.093  0.6113 -1.1441  0.8232
  717MOL0     H96780   3.118  11.265   4.055 -0.3692  2.9949 -1.2390
  717MOL0     H96781   3.787  10.154   3.064 -0.1660  4.9844  0.0275
  717MOL0     H96782   3.607  10.221   2.904 -0.5792  2.4934  1.5035
  717MOL0     H96783   2.984  10.221   2.851 -0.8124  1.4035 -0.6482
  717MOL0     H96784   2.870  10.251   2.634  0.6203  0.8528  0.9112
  717MOL0     H96785   2.944  10.393   2.435 -3.7312 -0.6436  1.9269
  717MOL0     H96786   2.980  10.353   2.275  0.1015  0.5899 -0.4813
  717MOL0     H96787   2.744  10.417   2.315 -3.9065 -1.2412  0.1751
  717MOL0     H96788   2.724  10.274   2.423 -1.4266  0.0539  0.1132
  717MOL0     H96789   2.639  10.186   2.233  0.5090 -0.7338 -0.2414
  717MOL0     H96790   2.811  10.134   2.237 -1.0907  0.3298  3.9268
  717MOL0     H96791   2.879  10.231   2.041 -0.0372  0.0262 -0.1018
  717MOL0     H96792   2.752  10.360   2.081 -2.8986 -0.4527 -0.0931
  717MOL0     H96793   2.550  10.081   1.839 -0.4007 -0.3345  0.6340
  717MOL0     H96794   3.215  10.115   2.421  2.0555 -0.5429  1.0084
  717MOL0     H96795   3.335  10.095   2.654  0.4859  1.3302 -0.5645
  718MOL0     O96796   7.936   1.181   1.799 -0.3525  0.0469  0.6957
  718MOL0     C96797   8.046   1.170   1.761 -0.7560 -0.8824 -0.6415
  718MOL0     O96798   8.107   1.240   1.661  0.2736  0.1759 -0.0076
  718MOL0     C96799   8.079   1.374   1.629 -0.3513  0.6129 -0.5678
  718MOL0     C96800   8.005   1.457   1.719  0.0261  0.4758  0.3000
  718MOL0     C96801   7.963   1.588   1.680 -0.8908 -0.4551  0.0050
  718MOL0     C96802   7.985   1.631   1.551 -0.9168  0.3877 -0.3290
  718MOL0     O96803   7.962   1.757   1.505 -0.4580  0.2933 -0.1046
  718MOL0     C96804   7.858   1.834   1.570 -0.8121 -0.5423  0.7947
  718MOL0     C96805   7.814   1.931   1.458  0.7521 -0.5827  0.8757
  718MOL0     C96806   7.894   2.056   1.443 -0.1872  0.6208 -0.5547
  718MOL0     C96807   7.857   2.134   1.319  1.2093  0.0947 -0.3200
  718MOL0     C96808   7.952   2.265   1.307 -0.2312 -0.9318  0.5718
  718MOL0     C96809   7.949   2.311   1.161 -0.6361  0.3944 -0.5266
  718MOL0     C96810   8.042   2.430   1.130  0.4709 -1.5469  0.0837
  718MOL0     C96811   7.985   2.556   1.193 -0.0272  0.0502  0.1445
  718MOL0     N96812   8.089   2.656   1.219  0.0727 -0.6175  0.2806
  718MOL0     C96813   8.138   2.745   1.126  0.4699  0.0776 -0.5154
  718MOL0     C96814   8.201   2.835   1.209  0.5171 -0.7968 -0.2319
  718MOL0     C96815   8.265   2.969   1.159  0.2127  0.7010  0.4891
  718MOL0     C96816   8.161   3.072   1.129 -0.2562 -0.5971  0.4323
  718MOL0     C96817   8.090   3.139   1.242 -0.2448  0.1811  0.2566
  718MOL0     C96818   8.018   3.273   1.198  0.6644  0.2159 -0.0051
  718MOL0     O96819   7.940   3.243   1.074 -0.3288  0.5432 -0.7051
  718MOL0     C96820   7.822   3.188   1.088  0.2788 -0.0684 -0.1705
  718MOL0     C96821   7.762   3.159   0.967  0.0935  0.3939  0.3766
  718MOL0     C96822   7.633   3.103   0.949  0.8030 -0.6861 -0.3878
  718MOL0     C96823   7.573   3.075   0.810  0.2449 -0.4753 -0.5383
  718MOL0     C96824   7.558   3.079   1.066 -0.1853  0.1138 -0.1024
  718MOL0     C96825   7.421   3.023   1.061 -0.2735  0.4542 -0.9192
  718MOL0     O96826   7.413   2.927   1.153 -1.0222 -0.4813 -0.1552
  718MOL0     C96827   7.280   2.896   1.188  0.0506  0.2237 -0.1906
  718MOL0     C96828   7.198   2.829   1.096  1.0279 -0.2582  0.5344
  718MOL0     C96829   7.075   2.783   1.138 -0.3925  0.4145  0.1181
  718MOL0     C96830   7.025   2.811   1.269 -0.0891  0.9647 -0.0527
  718MOL0     O96831   6.893   2.774   1.301 -0.2086  0.1715  0.4102
  718MOL0     C96832   6.829   2.827   1.413  0.7533  1.1524  0.3029
  718MOL0     C96833   6.674   2.821   1.419 -0.9660 -0.5204  1.0644
  718MOL0     C96834   6.605   2.894   1.537  0.1922  0.8535 -0.3999
  718MOL0     C96835   6.452   2.899   1.511 -0.1060  0.5491  0.0797
  718MOL0     C96836   6.384   2.966   1.628 -0.0835  0.0969  0.5851
  718MOL0     C96837   6.231   2.933   1.641 -0.5522 -0.3270  0.0075
  718MOL0     C96838   6.180   2.968   1.785 -0.0144  0.0327  0.6953
  718MOL0     C96839   6.059   3.056   1.785 -0.5836  0.2690  0.2816
  718MOL0    Cl96840   5.931   2.947   1.722  0.3729 -0.0869  0.2841
  718MOL0     C96841   7.113   2.874   1.361 -1.0419  0.9365  0.0685
  718MOL0     C96842   7.244   2.912   1.317  0.0070 -0.1083  0.0505
  718MOL0     O96843   7.334   3.067   0.993  1.2153  0.1553  1.1024
  718MOL0     C96844   7.614   3.117   1.186 -0.4259 -0.2512  0.2640
  718MOL0     C96845   7.749   3.155   1.205  0.0179  0.6696  0.1298
  718MOL0     N96846   8.198   2.802   1.348  0.0540  0.5966  0.2678
  718MOL0     N96847   8.123   2.694   1.347 -1.3971  0.7426  0.4833
  718MOL0     C96848   8.053   1.546   1.460 -0.0607  0.4062  0.0192
  718MOL0     C96849   8.101   1.419   1.494 -0.1334 -0.6288 -0.4501
  718MOL0     C96850   8.116   1.061   1.820  0.7213 -0.1032 -0.1918
  718MOL0     C96851   8.054   0.939   1.843 -0.6011  0.1038  0.0283
  718MOL0     C96852   8.119   0.837   1.911  0.7092 -0.2136  0.6877
  718MOL0     C96853   8.263   0.843   1.916  0.1827  1.3318 -0.9960
  718MOL0     O96854   8.339   0.743   1.973 -1.3192 -0.8100 -0.2404
  718MOL0     C96855   8.273   0.615   1.995 -0.1495 -0.5578  0.9809
  718MOL0     C96856   8.384   0.510   2.006 -0.5171  0.4743 -0.4657
  718MOL0     C96857   8.319   0.386   2.055  0.3510  0.0975  0.7062
  718MOL0     C96858   8.413   0.270   2.050 -0.4927 -0.3902 -0.2712
  718MOL0     C96859   8.527   0.283   2.134 -1.1795 -0.2868  0.8174
  718MOL0     C96860   8.632   0.307   2.202 -0.3733 -0.2239  0.3636
  718MOL0     C96861   8.328   0.967   1.886  0.2454 -0.0562  0.8111
  718MOL0     C96862   8.254   1.080   1.832 -0.6508  0.2139  0.1348
  718MOL0     H96863   7.974   1.434   1.821 -2.0366 -2.8453 -0.9373
  718MOL0     H96864   7.918   1.656   1.752  0.7522  1.4226 -0.6473
  718MOL0     H96865   7.778   1.767   1.604  0.1280 -3.1656 -1.7143
  718MOL0     H96866   7.889   1.893   1.656 -0.6682  3.4707 -1.7361
  718MOL0     H96867   7.810   1.875   1.364  0.7153  0.4856  0.2149
  718MOL0     H96868   7.713   1.968   1.478  0.2078 -2.6706  2.2906
  718MOL0     H96869   7.886   2.125   1.528  0.6838 -0.4411  0.4192
  718MOL0     H96870   8.001   2.036   1.429 -0.6155 -0.0112 -3.7933
  718MOL0     H96871   7.861   2.070   1.231 -1.5256 -0.5442 -0.0611
  718MOL0     H96872   7.753   2.161   1.338  0.2839  0.0774 -4.5549
  718MOL0     H96873   7.911   2.333   1.382  0.6207 -2.0512  2.1070
  718MOL0     H96874   8.059   2.255   1.328  0.4944  2.4508 -0.9135
  718MOL0     H96875   7.989   2.226   1.106  1.1571  1.6707 -1.2788
  718MOL0     H96876   7.848   2.333   1.126 -1.5302 -1.6700  0.5996
  718MOL0     H96877   8.143   2.419   1.169 -1.0397 -2.2145  4.4420
  718MOL0     H96878   8.036   2.446   1.022 -2.8145  1.8461  0.5632
  718MOL0     H96879   7.956   2.529   1.295  2.1899 -1.5495  0.4496
  718MOL0     H96880   7.903   2.602   1.138  1.6065  1.4827 -1.2203
  718MOL0     H96881   8.120   2.737   1.019 -2.4933 -1.5725 -0.0139
  718MOL0     H96882   8.343   2.996   1.231  0.7805  2.6292 -0.7786
  718MOL0     H96883   8.312   2.950   1.062 -0.8469  3.1839 -0.6184
  718MOL0     H96884   8.082   3.029   1.066  0.4626  0.3345 -1.1598
  718MOL0     H96885   8.203   3.144   1.058 -0.5798 -0.1862  0.6542
  718MOL0     H96886   8.160   3.172   1.320  0.7151  2.3256 -1.3851
  718MOL0     H96887   8.020   3.066   1.283  1.4491 -0.3883  2.2884
  718MOL0     H96888   8.087   3.354   1.174  1.4733  0.1536  1.9080
  718MOL0     H96889   7.966   3.313   1.286  0.0760 -2.1387  0.7980
  718MOL0     H96890   7.823   3.182   0.880  0.0977 -2.0091 -0.3071
  718MOL0     H96891   7.530   2.975   0.818  0.4742 -0.4528  1.7691
  718MOL0     H96892   7.501   3.154   0.792  0.9220 -0.0975 -1.6811
  718MOL0     H96893   7.652   3.076   0.735  0.5189 -3.0200 -0.3795
  718MOL0     H96894   7.250   2.802   1.005  1.5769  1.9045  0.1497
  718MOL0     H96895   7.002   2.739   1.071  2.0328 -3.4623 -0.3074
  718MOL0     H96896   6.865   2.773   1.501  0.1676 -0.0795 -0.1885
  718MOL0     H96897   6.856   2.933   1.422 -1.9443  2.0103 -0.5141
  718MOL0     H96898   6.638   2.862   1.324 -0.8871 -0.1013  1.2128
  718MOL0     H96899   6.655   2.714   1.436 -2.1910 -0.5016 -0.0433
  718MOL0     H96900   6.642   2.995   1.552 -0.5304  0.8847  1.3213
  718MOL0     H96901   6.626   2.830   1.623 -1.1210 -0.2005 -0.8234
  718MOL0     H96902   6.434   2.959   1.421  0.5220  1.0598  0.2810
  718MOL0     H96903   6.409   2.799   1.503  2.1598 -0.6629  1.8294
  718MOL0     H96904   6.410   3.072   1.620  0.2005  0.1484  1.9313
  718MOL0     H96905   6.439   2.915   1.708 -0.3184 -4.0872 -1.6619
  718MOL0     H96906   6.185   2.999   1.567  2.0055  0.9686 -0.5341
  718MOL0     H96907   6.209   2.826   1.632 -0.0347 -0.4259 -0.1056
  718MOL0     H96908   6.266   3.002   1.844  3.0088 -3.4540 -1.1909
  718MOL0     H96909   6.155   2.876   1.840 -1.7591  1.2623  2.0481
  718MOL0     H96910   6.076   3.143   1.721 -0.4942 -0.2596 -0.4318
  718MOL0     H96911   6.029   3.083   1.886 -2.1383  2.0184 -0.5882
  718MOL0     H96912   7.089   2.907   1.462  1.8956  0.6678  0.9513
  718MOL0     H96913   7.313   2.964   1.383  2.1600 -1.5252 -1.0067
  718MOL0     H96914   7.556   3.097   1.275  0.9399 -3.8845  0.4795
  718MOL0     H96915   7.791   3.184   1.302  1.6590  2.2117 -0.9654
  718MOL0     H96916   8.072   1.587   1.362 -1.4849 -0.3317 -0.6028
  718MOL0     H96917   8.178   1.372   1.434  1.3755 -0.8685  1.6047
  718MOL0     H96918   7.946   0.936   1.830 -0.5300 -0.6281 -0.4054
  718MOL0     H96919   8.057   0.754   1.942  1.2734 -1.5405 -1.5441
  718MOL0     H96920   8.201   0.602   2.076 -0.6824 -1.0419  0.4491
  718MOL0     H96921   8.212   0.594   1.907 -0.7770  3.5828  0.2182
  718MOL0     H96922   8.468   0.540   2.069  0.1901  1.5807 -1.8884
  718MOL0     H96923   8.427   0.510   1.905  0.8143 -3.4242 -0.0819
  718MOL0     H96924   8.249   0.361   1.975  1.9671  0.5216 -0.9332
  718MOL0     H96925   8.279   0.401   2.155  1.2849  5.0418  0.6190
  718MOL0     H96926   8.453   0.243   1.952 -1.4033 -2.7357 -0.0558
  718MOL0     H96927   8.352   0.186   2.085 -1.4652  0.1263 -0.7071
  718MOL0     H96928   8.718   0.303   2.266  0.0868 -1.9480 -0.2864
  718MOL0     H96929   8.431   0.987   1.912  0.5914  1.7384 -1.6033
  718MOL0     H96930   8.299   1.177   1.812 -0.6939  0.2100  0.0206
  719MOL0     O96931   1.643   3.187   1.193  0.4352  0.7398  0.3041
  719MOL0     C96932   1.698   3.298   1.191  0.9950 -0.5885  0.2466
  719MOL0     O96933   1.666   3.414   1.262 -0.0063 -0.3092 -0.4730
  719MOL0     C96934   1.553   3.412   1.339 -0.1694 -0.3401  1.1780
  719MOL0     C96935   1.544   3.501   1.450 -0.4017 -0.0958  0.7410
  719MOL0     C96936   1.426   3.499   1.526  0.5314 -0.6887  0.5175
  719MOL0     C96937   1.316   3.418   1.502 -1.2856  0.1127  0.3730
  719MOL0     O96938   1.208   3.439   1.581  0.5934  0.0645  0.1550
  719MOL0     C96939   1.089   3.367   1.543 -0.8684  0.3110 -0.2403
  719MOL0     C96940   0.974   3.417   1.622 -0.4047  0.1507  0.2927
  719MOL0     C96941   0.853   3.330   1.600  0.0859  0.1533  0.8525
  719MOL0     C96942   0.866   3.188   1.665 -0.6299  0.4063 -0.2502
  719MOL0     C96943   0.734   3.109   1.664 -0.6055  0.4048  1.1040
  719MOL0     C96944   0.623   3.175   1.755 -0.3215  0.2857  0.2926
  719MOL0     C96945   0.494   3.102   1.750  0.4350 -0.0106 -0.9824
  719MOL0     C96946   0.389   3.139   1.855 -0.7928  1.1012 -0.2747
  719MOL0     N96947   0.321   3.263   1.811 -0.3601  0.2817 -0.0717
  719MOL0     C96948   0.185   3.289   1.804  0.3328 -0.0367  0.2377
  719MOL0     C96949   0.178   3.416   1.769  0.0015  0.0818 -0.4719
  719MOL0     C96950   0.045   3.481   1.751 -1.1792  0.1542 -0.0911
  719MOL0     C96951   0.042   3.578   1.636 -0.4814  0.0906 -0.1859
  719MOL0     C96952  -0.102   3.622   1.608 -0.4717  0.8180 -0.4717
  719MOL0     C96953  -0.141   3.726   1.712  0.7586  0.5626  0.0967
  719MOL0     O96954  -0.271   3.777   1.698  0.4583 -0.1203  0.1915
  719MOL0     C96955  -0.268   3.904   1.650 -0.3661  0.4076  0.9102
  719MOL0     C96956  -0.265   4.018   1.734  0.3090  0.6831 -0.5975
  719MOL0     C96957  -0.283   4.147   1.682  0.3314  0.4271  0.2418
  719MOL0     C96958  -0.308   4.258   1.782  0.2802  0.0671 -0.1807
  719MOL0     C96959  -0.279   4.167   1.539  0.8590 -0.5357 -0.0804
  719MOL0     C96960  -0.280   4.298   1.483 -0.1205  0.4189 -0.5208
  719MOL0     O96961  -0.363   4.320   1.374 -0.6999 -0.0952  0.7319
  719MOL0     C96962  -0.344   4.422   1.288 -0.2861 -0.1522 -0.0993
  719MOL0     C96963  -0.214   4.463   1.243 -0.6043  0.3648 -0.6783
  719MOL0     C96964  -0.210   4.565   1.142  1.1211 -0.5818  0.4525
  719MOL0     C96965  -0.328   4.626   1.084  0.0751 -0.1056 -0.4558
  719MOL0     O96966  -0.335   4.714   0.983 -0.5731  0.2630 -0.2169
  719MOL0     C96967  -0.219   4.766   0.929  0.0895  0.0188  0.3478
  719MOL0     C96968  -0.264   4.882   0.836 -0.5796  0.7105  0.0623
  719MOL0     C96969  -0.157   4.925   0.736 -0.7026  0.2295 -0.1944
  719MOL0     C96970  -0.063   5.013   0.813  0.1815 -0.2758  0.2880
  719MOL0     C96971   0.040   5.066   0.714  0.4038  0.3856  0.1352
  719MOL0     C96972   0.097   5.193   0.768  0.8003  1.0246  0.3002
  719MOL0     C96973   0.207   5.252   0.673  0.8240  0.8295 -0.8105
  719MOL0     C96974   0.316   5.318   0.756  0.5275  0.7955 -0.0998
  719MOL0    Cl96975   0.402   5.197   0.859 -0.0181  0.4589 -0.5671
  719MOL0     C96976  -0.451   4.589   1.134 -0.2897 -0.3124 -0.4053
  719MOL0     C96977  -0.460   4.481   1.230 -0.0816 -0.3539 -0.1107
  719MOL0     O96978  -0.211   4.383   1.539  0.1526 -0.1057 -0.2626
  719MOL0     C96979  -0.288   4.055   1.457 -0.2436  0.6985  0.5567
  719MOL0     C96980  -0.283   3.931   1.514  0.2064  0.2707 -0.3910
  719MOL0     N96981   0.299   3.476   1.765 -1.0189  0.9664 -0.0117
  719MOL0     N96982   0.385   3.381   1.784 -0.0616 -0.2877 -0.4166
  719MOL0     C96983   1.325   3.341   1.382 -0.4345 -0.4820  0.3455
  719MOL0     C96984   1.438   3.337   1.297  0.1756 -0.0497  0.8988
  719MOL0     C96985   1.808   3.309   1.099  1.7108 -0.6530  0.2013
  719MOL0     C96986   1.876   3.427   1.094  0.6122 -0.7283 -0.0080
  719MOL0     C96987   1.973   3.441   0.999 -1.0825  0.4227 -1.0381
  719MOL0     C96988   2.021   3.348   0.907  0.3012  0.4867 -0.5008
  719MOL0     O96989   2.117   3.384   0.818 -0.3966  0.3439 -1.1888
  719MOL0     C96990   2.191   3.281   0.747  0.0912  0.2733  0.6825
  719MOL0     C96991   2.293   3.214   0.845  0.0349 -0.7329  0.5499
  719MOL0     C96992   2.399   3.307   0.906 -0.8519 -0.1596 -0.2283
  719MOL0     C96993   2.489   3.371   0.806 -0.6410  0.3215  0.6223
  719MOL0     C96994   2.582   3.268   0.733  0.4618 -0.1816  1.0646
  719MOL0     C96995   2.644   3.196   0.668  0.0533  0.2844  0.3861
  719MOL0     C96996   1.952   3.224   0.926 -0.3974 -0.2420  0.5534
  719MOL0     C96997   1.848   3.203   1.017  0.2067  0.4813  0.0897
  719MOL0     H96998   1.623   3.575   1.458  1.3232 -1.7381 -0.1759
  719MOL0     H96999   1.410   3.563   1.612 -4.1937  2.2464 -2.1060
  719MOL0     H97000   1.060   3.390   1.440 -1.0916 -2.1808 -0.7808
  719MOL0     H97001   1.100   3.259   1.540  3.7405  0.6032 -0.7644
  719MOL0     H97002   0.999   3.403   1.727 -2.2725 -2.4367  0.4822
  719MOL0     H97003   0.946   3.522   1.607  1.7319  0.7948  0.4538
  719MOL0     H97004   0.772   3.386   1.647 -0.3529 -1.0041  1.5276
  719MOL0     H97005   0.815   3.311   1.499 -1.4337 -0.9180  1.5727
  719MOL0     H97006   0.946   3.131   1.616 -0.6690 -0.0848  0.2495
  719MOL0     H97007   0.912   3.209   1.762  2.2157 -2.7600 -0.7197
  719MOL0     H97008   0.701   3.092   1.561 -1.0999 -0.5486  1.4053
  719MOL0     H97009   0.764   3.011   1.703 -0.7730 -0.7485 -1.4978
  719MOL0     H97010   0.659   3.185   1.857 -2.4450 -1.0643  1.2423
  719MOL0     H97011   0.601   3.277   1.720  0.1186  0.8813  1.6948
  719MOL0     H97012   0.464   3.120   1.646  0.0362 -0.1200 -0.8874
  719MOL0     H97013   0.515   2.997   1.769  0.6274  0.5508  2.6964
  719MOL0     H97014   0.428   3.139   1.957 -0.6465  1.1590 -0.3300
  719MOL0     H97015   0.304   3.070   1.843 -0.2814  0.4523 -0.2241
  719MOL0     H97016   0.100   3.222   1.807  0.5229 -0.3713 -1.1865
  719MOL0     H97017  -0.035   3.407   1.739 -2.7701  1.8291 -0.2198
  719MOL0     H97018   0.033   3.527   1.849  1.2477 -1.3548  1.0006
  719MOL0     H97019   0.085   3.536   1.545  1.7561  2.4715 -0.3407
  719MOL0     H97020   0.102   3.664   1.667 -2.6591  1.6312 -0.0188
  719MOL0     H97021  -0.174   3.540   1.611  0.7718 -0.2855  1.9029
  719MOL0     H97022  -0.101   3.675   1.512 -1.7361  0.5035 -0.6759
  719MOL0     H97023  -0.062   3.801   1.722 -0.8177  2.0760  1.8003
  719MOL0     H97024  -0.148   3.666   1.803  1.5510  0.3483  0.0301
  719MOL0     H97025  -0.272   3.993   1.839  1.0417 -0.0230 -0.7043
  719MOL0     H97026  -0.344   4.219   1.877  1.7122  2.4004  1.4394
  719MOL0     H97027  -0.215   4.312   1.804 -0.9331  1.2720  2.3930
  719MOL0     H97028  -0.381   4.330   1.743  1.3860  0.0914 -2.3744
  719MOL0     H97029  -0.124   4.419   1.285 -1.4493  1.1945  2.2385
  719MOL0     H97030  -0.114   4.607   1.114  1.0414 -1.0000 -0.4681
  719MOL0     H97031  -0.154   4.811   1.005  1.0511 -1.1937  0.2735
  719MOL0     H97032  -0.166   4.695   0.865 -0.1654  1.2324 -1.2906
  719MOL0     H97033  -0.353   4.858   0.777  2.0759 -3.4007 -2.8021
  719MOL0     H97034  -0.306   4.963   0.896  0.7805  0.5495  1.2989
  719MOL0     H97035  -0.193   4.990   0.655  0.7242 -0.3285 -1.3212
  719MOL0     H97036  -0.101   4.846   0.687  2.0889  4.1970 -4.1863
  719MOL0     H97037  -0.121   5.095   0.857 -1.4785 -0.4019 -1.5194
  719MOL0     H97038  -0.002   4.968   0.892  2.3189  2.2598  0.2279
  719MOL0     H97039  -0.005   5.100   0.620 -0.1994 -0.2666  0.1852
  719MOL0     H97040   0.105   4.985   0.678  0.1798 -1.4407  3.4553
  719MOL0     H97041   0.014   5.264   0.775  0.7455  1.0558 -0.5070
  719MOL0     H97042   0.149   5.171   0.862  0.1678  0.1327  0.4470
  719MOL0     H97043   0.161   5.322   0.602 -0.2981 -1.2831 -2.2952
  719MOL0     H97044   0.263   5.183   0.610 -0.2376  0.0101 -0.8931
  719MOL0     H97045   0.279   5.407   0.808 -0.4415  2.3228 -3.1460
  719MOL0     H97046   0.398   5.358   0.696  2.5439  0.3490  2.1901
  719MOL0     H97047  -0.543   4.624   1.089 -1.7886 -3.6521 -0.2507
  719MOL0     H97048  -0.552   4.436   1.268  1.8369 -3.5980  1.1829
  719MOL0     H97049  -0.302   4.072   1.351  3.5009  1.5329  0.0517
  719MOL0     H97050  -0.299   3.851   1.441 -0.0062  2.5146 -2.9691
  719MOL0     H97051   1.242   3.286   1.339  0.3492 -3.4226  2.3225
  719MOL0     H97052   1.437   3.296   1.197 -0.6640  0.9067  0.5010
  719MOL0     H97053   1.860   3.518   1.150  1.4190 -1.1513  0.9427
  719MOL0     H97054   2.029   3.534   1.003 -2.1613  1.0484  0.0729
  719MOL0     H97055   2.131   3.194   0.720  2.3819 -1.0526 -0.4070
  719MOL0     H97056   2.229   3.331   0.657 -2.8647  0.0062 -0.8110
  719MOL0     H97057   2.345   3.129   0.800 -1.1610 -3.3446  3.7583
  719MOL0     H97058   2.246   3.155   0.923  0.3137 -1.4463  0.1956
  719MOL0     H97059   2.462   3.260   0.981 -2.5393  0.0986  1.4239
  719MOL0     H97060   2.346   3.379   0.970  0.3995  0.4277  0.1690
  719MOL0     H97061   2.540   3.452   0.860 -1.3865  0.2016  1.5300
  719MOL0     H97062   2.430   3.425   0.731 -0.8380 -1.0559 -0.2344
  719MOL0     H97063   2.714   3.134   0.614 -0.6007  1.4850 -1.9607
  719MOL0     H97064   1.972   3.135   0.867 -1.1221  0.3221 -0.5575
  719MOL0     H97065   1.803   3.104   1.020 -2.0443  1.0925 -4.2602
  720MOL0     O97066   7.279   2.502   7.595 -0.4275 -0.3775  0.0164
  720MOL0     C97067   7.318   2.605   7.544  0.3610 -0.7748 -0.4443
  720MOL0     O97068   7.239   2.674   7.455  0.2570 -0.5224  0.1336
  720MOL0     C97069   7.135   2.607   7.394  0.7784  0.7495 -0.3048
  720MOL0     C97070   7.006   2.617   7.452  0.2143  0.6770  0.8408
  720MOL0     C97071   6.898   2.547   7.394  0.4721  0.1036  0.2389
  720MOL0     C97072   6.914   2.464   7.289 -0.5402 -0.7445 -0.2755
  720MOL0     O97073   6.808   2.390   7.236  0.1427  0.2582  0.1830
  720MOL0     C97074   6.671   2.387   7.285  0.4058  0.0946  0.3792
  720MOL0     C97075   6.669   2.324   7.420  0.6186 -0.7917  0.9481
  720MOL0     C97076   6.529   2.324   7.486  0.5774  0.7604  0.5380
  720MOL0     C97077   6.523   2.238   7.612 -0.2156 -0.6624  0.8688
  720MOL0     C97078   6.381   2.259   7.683  0.2777 -1.4417 -0.3213
  720MOL0     C97079   6.381   2.188   7.815  0.2455  0.6751  0.2697
  720MOL0     C97080   6.251   2.186   7.887  0.5798  0.5678  0.2334
  720MOL0     C97081   6.198   2.323   7.915  0.6485 -0.6776  0.2797
  720MOL0     N97082   6.069   2.302   7.963  0.4226 -0.0904  0.6227
  720MOL0     C97083   6.029   2.270   8.090 -0.2682  0.6036  0.5184
  720MOL0     C97084   5.893   2.266   8.089  0.4267 -0.2329  0.5289
  720MOL0     C97085   5.800   2.228   8.196 -0.1084  0.9028  0.1804
  720MOL0     C97086   5.718   2.349   8.248  0.0099  0.8961  0.1818
  720MOL0     C97087   5.597   2.379   8.149 -0.6658 -0.5235 -0.4520
  720MOL0     C97088   5.529   2.495   8.215 -0.7627 -1.2957 -0.5752
  720MOL0     O97089   5.454   2.444   8.322  0.9831  0.6711 -0.1103
  720MOL0     C97090   5.319   2.412   8.300  0.6210  0.7336  1.1179
  720MOL0     C97091   5.247   2.401   8.181  0.0532 -0.8338 -0.0884
  720MOL0     C97092   5.108   2.370   8.180  0.1059  0.1442  0.3902
  720MOL0     C97093   5.048   2.350   8.040  0.4771  0.1226 -0.0841
  720MOL0     C97094   5.037   2.333   8.295 -0.0879 -0.0992 -0.0448
  720MOL0     C97095   4.885   2.309   8.307 -0.8041  1.5408  0.3000
  720MOL0     O97096   4.833   2.323   8.432  0.1543  0.1886 -0.5409
  720MOL0     C97097   4.696   2.333   8.428 -0.2872 -0.1732 -1.1439
  720MOL0     C97098   4.616   2.225   8.447 -0.0039  0.6400 -0.3116
  720MOL0     C97099   4.473   2.225   8.445 -1.4951  0.0811 -0.3807
  720MOL0     C97100   4.408   2.345   8.427  0.2431  0.0519 -0.2868
  720MOL0     O97101   4.275   2.346   8.387  0.4288 -0.2316  0.3533
  720MOL0     C97102   4.192   2.229   8.417 -0.1533  0.0264 -0.9151
  720MOL0     C97103   4.043   2.261   8.429 -0.0983 -1.0916  0.4737
  720MOL0     C97104   3.976   2.249   8.284 -0.3334  0.8098 -0.5320
  720MOL0     C97105   3.857   2.335   8.268  0.3211 -0.0218 -0.8325
  720MOL0     C97106   3.790   2.298   8.141 -0.6917 -0.2792 -0.2133
  720MOL0     C97107   3.717   2.166   8.141 -0.3101  0.2333 -0.2913
  720MOL0     C97108   3.593   2.164   8.239 -0.0700  0.6326 -0.9640
  720MOL0     C97109   3.499   2.040   8.242  0.1343  0.8800  0.4395
  720MOL0    Cl97110   3.361   2.073   8.364 -0.1726 -0.0005 -0.2529
  720MOL0     C97111   4.490   2.458   8.410 -0.3351  0.1695  0.2555
  720MOL0     C97112   4.633   2.450   8.423 -0.9034 -0.8508 -0.1802
  720MOL0     O97113   4.829   2.270   8.207 -0.2409 -0.4291  0.7054
  720MOL0     C97114   5.122   2.323   8.413  0.1496 -1.2921 -0.7568
  720MOL0     C97115   5.255   2.371   8.408  0.9922  0.2484 -0.2922
  720MOL0     N97116   5.849   2.293   7.957  0.0092 -0.4860  0.2815
  720MOL0     N97117   5.955   2.310   7.885 -0.2328  0.5463  0.5545
  720MOL0     C97118   7.036   2.455   7.227 -0.0378  0.6292 -0.6264
  720MOL0     C97119   7.148   2.530   7.277  0.0094 -0.0517  0.2553
  720MOL0     C97120   7.433   2.675   7.606  0.4655  0.2313  0.1168
  720MOL0     C97121   7.518   2.601   7.685 -0.9249  0.2727 -0.4376
  720MOL0     C97122   7.618   2.666   7.763  0.5450 -0.5206  0.4685
  720MOL0     C97123   7.627   2.802   7.759 -0.0848  0.8323 -0.1988
  720MOL0     O97124   7.724   2.870   7.833  0.1284  0.0370  0.0786
  720MOL0     C97125   7.826   2.803   7.912 -0.4025 -0.1873 -0.0721
  720MOL0     C97126   7.943   2.751   7.830 -0.9413  0.1732  0.0743
  720MOL0     C97127   8.024   2.882   7.794 -0.3712  0.5159 -0.0256
  720MOL0     C97128   8.162   2.869   7.722 -0.6418 -0.9041  0.4748
  720MOL0     C97129   8.276   2.838   7.814 -0.3539 -0.1629  0.4825
  720MOL0     C97130   8.370   2.830   7.886  0.4345  0.6164  0.5669
  720MOL0     C97131   7.535   2.874   7.687  0.2309  0.1632 -0.7176
  720MOL0     C97132   7.437   2.814   7.608 -0.0862 -0.0204 -0.3157
  720MOL0     H97133   6.993   2.675   7.543 -1.7120  1.0203  0.3961
  720MOL0     H97134   6.798   2.563   7.434  0.7719 -1.6175  1.8035
  720MOL0     H97135   6.624   2.485   7.282 -2.0268 -1.0214 -1.3363
  720MOL0     H97136   6.611   2.325   7.218 -1.4499 -0.0577  2.0781
  720MOL0     H97137   6.706   2.221   7.416  3.4593  0.1853  0.0570
  720MOL0     H97138   6.740   2.373   7.487 -1.1870  3.6738 -0.0307
  720MOL0     H97139   6.508   2.424   7.525  0.2428  0.5745  0.8335
  720MOL0     H97140   6.444   2.301   7.421  1.7601  1.0578 -1.1928
  720MOL0     H97141   6.529   2.134   7.577 -0.6591  1.0116 -5.2979
  720MOL0     H97142   6.608   2.266   7.675  0.7885  0.6070 -0.9494
  720MOL0     H97143   6.368   2.366   7.703  2.6330 -1.1543 -0.0543
  720MOL0     H97144   6.302   2.222   7.617 -2.2901  2.0749  0.5039
  720MOL0     H97145   6.405   2.086   7.782 -1.3845  0.6938 -1.1240
  720MOL0     H97146   6.466   2.228   7.870  1.4855  5.2309 -4.2144
  720MOL0     H97147   6.190   2.122   7.823  3.1742 -1.9483  0.0395
  720MOL0     H97148   6.265   2.132   7.982 -0.4522 -0.3240 -0.1097
  720MOL0     H97149   6.191   2.393   7.831 -1.3369 -2.7921 -1.4326
  720MOL0     H97150   6.246   2.375   7.999  1.6219 -2.3805  0.8332
  720MOL0     H97151   6.100   2.235   8.165 -0.1589 -0.7776 -0.2105
  720MOL0     H97152   5.743   2.155   8.139 -1.7885  2.5502 -0.3363
  720MOL0     H97153   5.857   2.181   8.277  0.3809  1.6346  0.2703
  720MOL0     H97154   5.775   2.439   8.273  3.1587 -1.0208  0.4330
  720MOL0     H97155   5.676   2.299   8.336  1.5640 -7.1796 -2.7603
  720MOL0     H97156   5.534   2.289   8.152 -1.8363  0.2799  1.9953
  720MOL0     H97157   5.623   2.413   8.049 -0.7100  2.2231  0.3736
  720MOL0     H97158   5.474   2.554   8.141  0.9347 -0.3446 -1.1374
  720MOL0     H97159   5.605   2.560   8.259 -1.3583 -2.0697  1.7421
  720MOL0     H97160   5.291   2.443   8.091 -4.0039 -0.0394 -1.9434
  720MOL0     H97161   5.120   2.370   7.961  1.4430 -1.5179  0.3349
  720MOL0     H97162   5.006   2.250   8.026 -2.0534  0.8753  1.3865
  720MOL0     H97163   4.968   2.423   8.021  1.5403  1.2820 -0.1777
  720MOL0     H97164   4.667   2.132   8.472 -0.3256  0.2111 -1.2034
  720MOL0     H97165   4.422   2.130   8.452  2.1259 -2.0191  0.1328
  720MOL0     H97166   4.217   2.159   8.336  0.9532  0.8131 -1.2748
  720MOL0     H97167   4.217   2.174   8.508  1.2417  2.0716  0.0129
  720MOL0     H97168   3.989   2.196   8.499 -3.0559 -1.9007 -2.3317
  720MOL0     H97169   4.044   2.365   8.463 -0.2060 -1.0312  0.2888
  720MOL0     H97170   3.944   2.147   8.265  0.6357  0.2084  0.9149
  720MOL0     H97171   4.057   2.275   8.216  1.1850 -1.1160  0.4690
  720MOL0     H97172   3.794   2.309   8.354  1.5643 -2.9586 -0.6990
  720MOL0     H97173   3.897   2.437   8.265 -0.0786  0.1950  0.4776
  720MOL0     H97174   3.860   2.310   8.058  1.8957 -1.8671  1.6073
  720MOL0     H97175   3.716   2.378   8.130  1.4453  2.0025  1.1331
  720MOL0     H97176   3.676   2.148   8.041  3.2266 -3.4335 -1.3198
  720MOL0     H97177   3.788   2.086   8.161  0.5554  0.5978 -1.7738
  720MOL0     H97178   3.530   2.252   8.223  0.5953  2.1101  3.3292
  720MOL0     H97179   3.633   2.172   8.340 -3.2435 -1.6130  0.6356
  720MOL0     H97180   3.562   1.956   8.274  1.2105  2.5614  3.0862
  720MOL0     H97181   3.454   2.031   8.143  1.9105  0.3644 -0.3676
  720MOL0     H97182   4.447   2.554   8.383  0.8954  0.2754 -1.4866
  720MOL0     H97183   4.690   2.542   8.434  0.1071 -1.6734  1.8376
  720MOL0     H97184   5.066   2.304   8.505 -2.1919 -1.9010 -2.2079
  720MOL0     H97185   5.304   2.361   8.504  2.9120  0.1375 -1.2396
  720MOL0     H97186   7.045   2.401   7.133  1.8803 -0.1446 -0.0643
  720MOL0     H97187   7.243   2.536   7.225 -0.8539  2.1037 -1.2014
  720MOL0     H97188   7.505   2.495   7.698 -1.9190  0.2492 -1.4438
  720MOL0     H97189   7.685   2.605   7.822 -1.3562 -1.3050  1.9346
  720MOL0     H97190   7.859   2.878   7.985 -1.2690 -1.0453  1.2491
  720MOL0     H97191   7.789   2.721   7.974  3.4092 -0.6584  1.8942
  720MOL0     H97192   7.917   2.703   7.735  6.0239  1.5836 -3.1884
  720MOL0     H97193   8.005   2.673   7.875 -0.5775 -0.4732 -1.4540
  720MOL0     H97194   8.028   2.944   7.885  0.1090 -3.0514  2.5894
  720MOL0     H97195   7.962   2.934   7.720 -0.0754  0.3831 -0.3679
  720MOL0     H97196   8.186   2.969   7.685 -1.1065 -1.7688 -2.4073
  720MOL0     H97197   8.161   2.797   7.640  1.1357  3.0359 -3.3737
  720MOL0     H97198   8.463   2.817   7.938 -0.0699 -3.2097  0.7636
  720MOL0     H97199   7.532   2.983   7.694 -2.4012  0.2062 -1.5895
  720MOL0     H97200   7.373   2.885   7.555  0.5220 -0.3234 -1.4831
  721MOL0     O97201   0.404   9.528   6.304 -0.2506 -0.8615  0.4256
  721MOL0     C97202   0.297   9.582   6.329  0.6172 -0.8118 -0.3145
  721MOL0     O97203   0.211   9.550   6.426  0.6194 -0.5372 -0.1552
  721MOL0     C97204   0.211   9.431   6.494  0.0678 -0.5995  0.2315
  721MOL0     C97205   0.251   9.302   6.442 -0.4620  0.2356 -0.8643
  721MOL0     C97206   0.240   9.190   6.529 -1.2451 -0.5074  0.2301
  721MOL0     C97207   0.207   9.199   6.667  0.3837 -0.6716  0.1297
  721MOL0     O97208   0.217   9.090   6.747  0.2210  0.0160  0.2692
  721MOL0     C97209   0.340   9.031   6.769 -0.4050  0.2791  0.2009
  721MOL0     C97210   0.324   8.970   6.899  0.2668 -0.7407  0.2368
  721MOL0     C97211   0.214   8.870   6.905 -0.7067 -0.5712 -0.2222
  721MOL0     C97212   0.224   8.782   7.025 -0.4606 -0.5382  0.1130
  721MOL0     C97213   0.106   8.689   7.019 -0.6998 -1.5244  0.3117
  721MOL0     C97214   0.122   8.568   6.934 -0.5236  0.1237 -0.3176
  721MOL0     C97215   0.015   8.457   6.958  0.2797  0.5094 -0.1452
  721MOL0     C97216   0.071   8.323   6.997 -0.3173  0.0908 -0.0989
  721MOL0     N97217  -0.035   8.221   7.020 -0.3211  0.7314 -0.8957
  721MOL0     C97218  -0.022   8.107   7.097 -0.2650 -0.4896 -0.8724
  721MOL0     C97219  -0.131   8.037   7.056  0.1857  1.0428 -0.2282
  721MOL0     C97220  -0.147   7.903   7.120  0.2242  0.4413  0.0147
  721MOL0     C97221  -0.284   7.884   7.183 -0.0963  0.1703 -0.6520
  721MOL0     C97222  -0.326   7.995   7.288  0.3931  0.2351 -0.1115
  721MOL0     C97223  -0.433   7.950   7.383  0.0202 -0.4033  0.1253
  721MOL0     O97224  -0.545   7.902   7.318  1.4653 -0.6837 -0.1236
  721MOL0     C97225  -0.659   7.976   7.306  1.2302 -0.7579  0.1643
  721MOL0     C97226  -0.676   8.103   7.365  0.2937  0.7794 -0.4449
  721MOL0     C97227  -0.790   8.188   7.351 -0.4463  0.6934  0.1432
  721MOL0     C97228  -0.803   8.322   7.420 -0.9843  0.0729  0.4394
  721MOL0     C97229  -0.899   8.132   7.266  0.4625 -0.1894 -0.2025
  721MOL0     C97230  -1.039   8.197   7.257 -0.2579 -0.3694  0.1703
  721MOL0     O97231  -1.113   8.150   7.160 -0.0660  0.7092 -0.5163
  721MOL0     C97232  -1.247   8.189   7.159  0.1855 -1.3158 -0.2745
  721MOL0     C97233  -1.343   8.096   7.197 -0.5104  0.5707 -0.4184
  721MOL0     C97234  -1.478   8.133   7.200 -0.1561 -0.6046 -0.4631
  721MOL0     C97235  -1.517   8.257   7.136  0.8885 -0.3062  0.1780
  721MOL0     O97236  -1.651   8.281   7.114 -0.1657  0.3911  0.4757
  721MOL0     C97237  -1.714   8.415   7.103 -0.2378 -0.3486 -1.0373
  721MOL0     C97238  -1.854   8.419   7.151 -0.0845  0.3344  1.0188
  721MOL0     C97239  -1.863   8.439   7.297 -0.6389  0.7359  0.0425
  721MOL0     C97240  -1.998   8.413   7.339  0.3336  0.1684 -0.4440
  721MOL0     C97241  -2.100   8.525   7.322 -0.2753 -0.2229  0.0746
  721MOL0     C97242  -2.249   8.479   7.353 -0.1289 -0.3566 -0.5468
  721MOL0     C97243  -2.331   8.613   7.333  0.3582 -0.2766  0.8970
  721MOL0     C97244  -2.478   8.597   7.388 -0.2753  0.1877  0.4089
  721MOL0    Cl97245  -2.457   8.610   7.562  0.1654  0.4593 -0.1979
  721MOL0     C97246  -1.421   8.335   7.072 -0.2234 -0.2415  0.0896
  721MOL0     C97247  -1.287   8.308   7.088 -0.3897  1.2432 -0.9618
  721MOL0     O97248  -1.080   8.272   7.346 -0.2915 -0.3843  0.3001
  721MOL0     C97249  -0.876   8.003   7.202  0.0241  0.3812 -0.1136
  721MOL0     C97250  -0.762   7.926   7.232  0.3720  0.0072  0.1786
  721MOL0     N97251  -0.216   8.100   6.981  0.3211 -0.9101  0.7151
  721MOL0     N97252  -0.157   8.214   6.963 -0.0852 -0.3795  0.4081
  721MOL0     C97253   0.172   9.326   6.717 -0.3059  0.3232  0.5592
  721MOL0     C97254   0.165   9.431   6.625 -0.1292  0.4954  0.0113
  721MOL0     C97255   0.269   9.696   6.240 -0.5713  0.1890  0.1680
  721MOL0     C97256   0.144   9.767   6.248  0.7323 -0.4666 -0.3026
  721MOL0     C97257   0.108   9.877   6.168 -0.3160 -0.3971 -0.8841
  721MOL0     C97258   0.194   9.911   6.063  0.6025 -0.7002 -0.4774
  721MOL0     O97259   0.166  10.011   5.972  0.0799  0.3548 -0.2860
  721MOL0     C97260   0.049  10.096   5.980 -0.0941  0.4811  0.1932
  721MOL0     C97261  -0.076  10.022   5.937 -0.0759 -0.1346  0.7126
  721MOL0     C97262  -0.070   9.979   5.788 -0.7210 -0.7502  0.1085
  721MOL0     C97263  -0.206   9.946   5.731  0.1209  0.3552  0.5559
  721MOL0     C97264  -0.196   9.846   5.623 -0.0953  0.0303 -0.5295
  721MOL0     C97265  -0.198   9.777   5.524 -0.5492 -0.4261  0.2957
  721MOL0     C97266   0.313   9.841   6.051  0.0310 -0.6913  0.0679
  721MOL0     C97267   0.349   9.736   6.134 -0.1408 -0.0343 -0.5367
  721MOL0     H97268   0.279   9.282   6.339  0.7301  1.2771 -0.7717
  721MOL0     H97269   0.261   9.090   6.491 -1.3748 -0.5636  0.3032
  721MOL0     H97270   0.380   8.964   6.692 -1.1212  0.7743 -0.6245
  721MOL0     H97271   0.411   9.114   6.779 -2.8274  2.6847 -1.2923
  721MOL0     H97272   0.416   8.919   6.929  1.1831  0.7039 -0.0789
  721MOL0     H97273   0.303   9.047   6.974 -1.2594 -1.2029  0.3169
  721MOL0     H97274   0.120   8.926   6.902 -0.5209 -0.2254  0.3849
  721MOL0     H97275   0.221   8.813   6.812 -1.0960 -1.1182  0.0822
  721MOL0     H97276   0.325   8.740   7.031  0.5704  1.9530  2.1097
  721MOL0     H97277   0.214   8.848   7.113  1.9072 -1.5119  1.1892
  721MOL0     H97278   0.070   8.662   7.119  1.5351  0.5775  1.8096
  721MOL0     H97279   0.017   8.743   6.986  1.9297  3.6452  0.6651
  721MOL0     H97280   0.108   8.598   6.830  0.7798 -0.6082 -0.7275
  721MOL0     H97281   0.221   8.525   6.954  0.1275  2.3394  1.5533
  721MOL0     H97282  -0.062   8.491   7.028  0.8475 -0.9481  1.2461
  721MOL0     H97283  -0.033   8.437   6.861 -1.3510  3.2618  0.0046
  721MOL0     H97284   0.135   8.321   7.085  1.6902 -1.9238 -1.4799
  721MOL0     H97285   0.143   8.295   6.918  0.4987  2.4307 -0.2476
  721MOL0     H97286   0.065   8.073   7.153 -1.5832 -2.1901  0.2493
  721MOL0     H97287  -0.140   7.821   7.048  0.6227  1.1981 -0.8206
  721MOL0     H97288  -0.064   7.898   7.192  1.2461 -1.7963 -1.1918
  721MOL0     H97289  -0.292   7.791   7.240  1.8065 -0.2014 -0.9422
  721MOL0     H97290  -0.354   7.882   7.098  1.0428 -0.0734 -1.6185
  721MOL0     H97291  -0.343   8.088   7.233 -0.8310 -0.5054 -1.0217
  721MOL0     H97292  -0.236   8.012   7.349 -0.9873  3.0558  1.3293
  721MOL0     H97293  -0.457   8.028   7.456 -2.6975 -0.4173 -0.6364
  721MOL0     H97294  -0.397   7.863   7.437 -2.5297 -1.5467  0.1479
  721MOL0     H97295  -0.596   8.152   7.419  2.3003 -0.1081 -2.4128
  721MOL0     H97296  -0.869   8.321   7.508 -0.7465 -0.4452  0.6100
  721MOL0     H97297  -0.709   8.360   7.460 -0.9220  0.3912 -0.0022
  721MOL0     H97298  -0.837   8.394   7.344  1.7962 -0.4007 -1.3827
  721MOL0     H97299  -1.305   7.999   7.229 -1.1991  1.0217  1.9660
  721MOL0     H97300  -1.560   8.069   7.231 -0.0593 -0.8400 -0.6879
  721MOL0     H97301  -1.659   8.484   7.168  0.2379 -0.4716 -1.3059
  721MOL0     H97302  -1.712   8.449   6.999 -0.4592 -0.4413 -1.0734
  721MOL0     H97303  -1.900   8.505   7.102  0.6879  0.0130 -0.3079
  721MOL0     H97304  -1.896   8.321   7.130 -1.8406  1.1308  0.6808
  721MOL0     H97305  -1.838   8.539   7.333  1.0824  0.9731 -1.6241
  721MOL0     H97306  -1.806   8.363   7.351 -2.1068  1.0892  2.2238
  721MOL0     H97307  -2.040   8.336   7.275 -0.3979 -0.8595  1.2081
  721MOL0     H97308  -2.001   8.379   7.443  3.0346  0.8649 -0.0571
  721MOL0     H97309  -2.094   8.564   7.220  0.0384 -0.8002 -0.1298
  721MOL0     H97310  -2.068   8.613   7.378 -1.9782  2.8550 -3.3566
  721MOL0     H97311  -2.271   8.400   7.281 -0.5772 -0.6410 -0.1064
  721MOL0     H97312  -2.263   8.447   7.457 -2.2580  0.0245 -0.6766
  721MOL0     H97313  -2.329   8.633   7.226  5.8545  0.8994  0.9130
  721MOL0     H97314  -2.286   8.702   7.379 -2.3628  2.7907 -1.7913
  721MOL0     H97315  -2.515   8.499   7.358  0.0393  0.2899 -0.3066
  721MOL0     H97316  -2.550   8.671   7.353 -1.9664 -2.2600 -1.5861
  721MOL0     H97317  -1.443   8.432   7.028 -0.7429 -0.4485 -0.1176
  721MOL0     H97318  -1.207   8.362   7.039  1.9039 -1.8498 -0.8854
  721MOL0     H97319  -0.945   7.945   7.143  4.1002 -4.6910 -0.5805
  721MOL0     H97320  -0.760   7.821   7.207 -2.0698 -0.7013  2.4662
  721MOL0     H97321   0.147   9.319   6.822 -2.4654 -6.6405  0.0313
  721MOL0     H97322   0.140   9.529   6.666  1.1396  0.5525  0.7187
  721MOL0     H97323   0.066   9.734   6.316  0.1618 -0.0676 -0.7486
  721MOL0     H97324   0.019   9.933   6.194  2.4015  4.6256 -1.0534
  721MOL0     H97325   0.033  10.140   6.078 -2.6496 -0.3294  0.2201
  721MOL0     H97326   0.078  10.175   5.910  0.0939 -1.1378 -1.6460
  721MOL0     H97327  -0.163  10.086   5.957 -1.2099 -1.9051  1.7222
  721MOL0     H97328  -0.096   9.927   5.986 -0.1448 -1.1333 -1.1541
  721MOL0     H97329  -0.010   9.889   5.774  1.4107  0.9000 -2.2422
  721MOL0     H97330  -0.024  10.059   5.729  0.1789 -2.1976 -1.2281
  721MOL0     H97331  -0.252  10.039   5.698  0.3092  1.2272  2.5719
  721MOL0     H97332  -0.265   9.903   5.812 -0.9971  1.2928  0.2595
  721MOL0     H97333  -0.199   9.725   5.431 -1.1839  1.8546 -1.0477
  721MOL0     H97334   0.370   9.877   5.966 -0.5745 -1.7842 -0.8466
  721MOL0     H97335   0.441   9.681   6.119  0.6168  0.6304  1.3926
  722MOL0     O97336   1.045   7.728   9.500  0.8198  0.0450 -0.3353
  722MOL0     C97337   1.114   7.813   9.441 -0.0626  0.8212 -1.1012
  722MOL0     O97338   1.076   7.929   9.391 -0.2095 -0.7911  0.7951
  722MOL0     C97339   0.949   7.967   9.399 -0.1466  0.6488  0.9249
  722MOL0     C97340   0.871   7.942   9.287  0.5166  0.0160 -0.1448
  722MOL0     C97341   0.733   7.978   9.284 -0.6634  0.2761 -0.0643
  722MOL0     C97342   0.686   8.054   9.393 -0.1441  0.4153  0.0063
  722MOL0     O97343   0.554   8.075   9.383  0.4246 -0.0646 -0.0969
  722MOL0     C97344   0.501   8.189   9.438  0.0879 -0.3003  0.2604
  722MOL0     C97345   0.363   8.220   9.362  0.1277  0.4584 -0.3843
  722MOL0     C97346   0.287   8.323   9.436  0.5350  0.0470  0.5377
  722MOL0     C97347   0.331   8.467   9.391  0.1454  0.7142 -0.0482
  722MOL0     C97348   0.251   8.581   9.443  0.4608 -0.4766  0.1025
  722MOL0     C97349   0.282   8.620   9.589 -0.4194 -0.6207 -0.2353
  722MOL0     C97350   0.417   8.693   9.599 -0.2076  0.1605  0.1326
  722MOL0     C97351   0.446   8.751   9.737 -0.2892 -0.8121  0.0413
  722MOL0     N97352   0.403   8.666   9.848 -0.7704 -0.4437  0.3407
  722MOL0     C97353   0.292   8.703   9.926  0.5720  0.1916  0.8648
  722MOL0     C97354   0.302   8.622  10.032  1.3177  0.0029  0.8351
  722MOL0     C97355   0.205   8.625  10.146  0.2256 -0.3950  0.8883
  722MOL0     C97356   0.097   8.512  10.126 -0.7797 -0.7351  0.2000
  722MOL0     C97357  -0.004   8.512  10.239 -0.2930  0.7585 -0.2470
  722MOL0     C97358  -0.092   8.391  10.244  0.3882 -0.2434 -0.2768
  722MOL0     O97359  -0.180   8.403  10.357 -0.1067 -0.5205 -0.1701
  722MOL0     C97360  -0.306   8.458  10.346  0.2369 -0.6910 -0.4808
  722MOL0     C97361  -0.386   8.454  10.460 -0.1871  0.1123  0.2421
  722MOL0     C97362  -0.510   8.516  10.479 -0.7785  0.1906 -0.1429
  722MOL0     C97363  -0.565   8.532  10.612 -0.5285 -0.3596 -0.6179
  722MOL0     C97364  -0.560   8.582  10.361  0.7124  0.5162  0.5295
  722MOL0     C97365  -0.699   8.640  10.349 -0.6014  0.0922  0.5056
  722MOL0     O97366  -0.758   8.695  10.463 -0.0042 -0.1952  0.3010
  722MOL0     C97367  -0.885   8.745  10.456 -0.3856  0.3492 -0.2546
  722MOL0     C97368  -0.997   8.672  10.425  0.8808 -0.0607 -0.4813
  722MOL0     C97369  -1.126   8.714  10.445  0.4396 -0.6897 -0.0070
  722MOL0     C97370  -1.140   8.850  10.494  0.4489  0.8379 -0.9123
  722MOL0     O97371  -1.265   8.901  10.527 -0.3359 -0.5622 -0.3780
  722MOL0     C97372  -1.334   8.817  10.623 -0.5201 -0.0724  0.3125
  722MOL0     C97373  -1.449   8.889  10.690  0.0209 -0.5805 -0.5027
  722MOL0     C97374  -1.568   8.928  10.595 -0.2912 -0.2140  0.4449
  722MOL0     C97375  -1.664   8.801  10.600  1.2780 -0.2283  0.4385
  722MOL0     C97376  -1.797   8.839  10.522 -0.5286  0.2350 -0.7505
  722MOL0     C97377  -1.778   8.854  10.367  0.1293  0.3315  0.3237
  722MOL0     C97378  -1.730   8.722  10.293  0.1447 -0.3482 -0.1004
  722MOL0     C97379  -1.812   8.597  10.338 -0.0348 -0.4626 -0.5457
  722MOL0    Cl97380  -1.985   8.631  10.292 -0.1150  0.0804 -0.2332
  722MOL0     C97381  -1.026   8.932  10.508  0.1521 -0.0972 -0.3442
  722MOL0     C97382  -0.899   8.877  10.497 -0.6133  0.3653 -0.0828
  722MOL0     O97383  -0.762   8.621  10.245 -0.0140  0.8769  0.5299
  722MOL0     C97384  -0.474   8.600  10.250 -0.6203  0.4158 -0.7617
  722MOL0     C97385  -0.357   8.530  10.239  0.3077  0.4059  1.3901
  722MOL0     N97386   0.422   8.545  10.017 -0.8567 -0.2690 -0.2176
  722MOL0     N97387   0.487   8.583   9.913  0.0949 -0.3446  0.4562
  722MOL0     C97388   0.773   8.101   9.498  0.1453  0.3292 -0.0018
  722MOL0     C97389   0.911   8.055   9.498 -0.1081 -0.8995  0.6196
  722MOL0     C97390   1.256   7.778   9.453  0.1664  0.7049  1.0508
  722MOL0     C97391   1.347   7.860   9.387  0.2529  0.6836 -0.6468
  722MOL0     C97392   1.483   7.826   9.379 -0.3742 -0.9498 -0.8428
  722MOL0     C97393   1.533   7.713   9.451 -0.9719 -0.1998 -0.1828
  722MOL0     O97394   1.671   7.695   9.436 -0.2554 -0.1531  0.1669
  722MOL0     C97395   1.747   7.612   9.528 -0.3347  0.2122  0.2475
  722MOL0     C97396   1.885   7.572   9.484 -1.0869 -0.3868 -0.4689
  722MOL0     C97397   1.965   7.698   9.474 -0.7599  0.0349 -0.6346
  722MOL0     C97398   2.117   7.677   9.444 -0.1588  0.6074 -0.2446
  722MOL0     C97399   2.164   7.800   9.377 -0.4055  0.2263  0.1948
  722MOL0     C97400   2.204   7.901   9.322 -0.5248  0.5909  0.4838
  722MOL0     C97401   1.441   7.633   9.516 -0.4130  0.3607 -0.4185
  722MOL0     C97402   1.301   7.662   9.517  0.0343 -0.3905 -0.2183
  722MOL0     H97403   0.911   7.876   9.211  1.7595 -0.1388  0.6091
  722MOL0     H97404   0.677   7.928   9.205  1.7679 -2.0221 -0.4469
  722MOL0     H97405   0.471   8.178   9.543 -2.3255  2.7409  0.0604
  722MOL0     H97406   0.568   8.275   9.427 -1.5240  1.1566  1.3202
  722MOL0     H97407   0.383   8.247   9.258 -0.2319  1.2308 -0.2585
  722MOL0     H97408   0.302   8.130   9.370  0.0482  0.6850  2.5697
  722MOL0     H97409   0.180   8.326   9.412 -0.0040  2.1355  2.7757
  722MOL0     H97410   0.293   8.299   9.542  0.1016  0.3224  0.6252
  722MOL0     H97411   0.436   8.486   9.417  1.6143  0.1196 -4.5519
  722MOL0     H97412   0.331   8.477   9.282  1.5589  0.1725 -0.1168
  722MOL0     H97413   0.290   8.661   9.380  0.2531 -2.3026 -2.4734
  722MOL0     H97414   0.144   8.568   9.426  0.5153 -0.4366 -0.2642
  722MOL0     H97415   0.206   8.688   9.629 -0.1271 -0.7926  0.6536
  722MOL0     H97416   0.286   8.527   9.647  1.1215 -0.3555  0.1170
  722MOL0     H97417   0.498   8.621   9.583 -2.1565 -2.0228 -0.4402
  722MOL0     H97418   0.430   8.765   9.518  1.6931 -0.2389  0.0201
  722MOL0     H97419   0.397   8.849   9.745  1.5719  0.0363  2.4744
  722MOL0     H97420   0.554   8.769   9.742 -0.4223 -0.2281  1.8707
  722MOL0     H97421   0.216   8.773   9.893 -0.3237 -1.4698 -0.7862
  722MOL0     H97422   0.256   8.618  10.243 -2.1856 -2.5437  2.1372
  722MOL0     H97423   0.162   8.724  10.131  0.7994 -0.5624 -2.6632
  722MOL0     H97424   0.151   8.418  10.137  0.5909 -0.0320 -0.2583
  722MOL0     H97425   0.043   8.522  10.032 -2.1520  4.4613  1.2027
  722MOL0     H97426  -0.068   8.600  10.228 -0.9534  0.4398  0.8580
  722MOL0     H97427   0.040   8.517  10.339  0.3068 -3.6593 -0.0956
  722MOL0     H97428  -0.032   8.301  10.264  2.0677  0.6526 -1.0478
  722MOL0     H97429  -0.148   8.388  10.150 -1.4090  0.5458  0.7230
  722MOL0     H97430  -0.331   8.417  10.546  3.1574  1.0296 -1.3114
  722MOL0     H97431  -0.635   8.451  10.631  0.1032 -1.1019 -1.3762
  722MOL0     H97432  -0.492   8.507  10.691 -1.2392 -1.5098 -0.3011
  722MOL0     H97433  -0.607   8.630  10.636 -1.2829 -0.4479 -1.5662
  722MOL0     H97434  -0.991   8.566  10.403  1.5666 -0.1578  0.1606
  722MOL0     H97435  -1.213   8.650  10.438  0.7340 -1.3349  1.7764
  722MOL0     H97436  -1.361   8.717  10.587  1.3261 -2.0166  3.7481
  722MOL0     H97437  -1.265   8.790  10.704 -1.4054  0.0968  1.1409
  722MOL0     H97438  -1.484   8.827  10.772 -0.4419 -0.1447 -0.3687
  722MOL0     H97439  -1.420   8.989  10.723 -1.9538  0.8391 -2.6972
  722MOL0     H97440  -1.530   8.965  10.499 -1.9882  0.4711 -0.0069
  722MOL0     H97441  -1.617   9.010  10.646  0.4199  0.2223  0.4376
  722MOL0     H97442  -1.608   8.716  10.560  1.8017 -1.3201  3.2745
  722MOL0     H97443  -1.688   8.788  10.706  2.1846 -0.4345  0.6306
  722MOL0     H97444  -1.823   8.941  10.550  0.4592 -0.0075  1.1625
  722MOL0     H97445  -1.890   8.784  10.537 -0.7051 -0.5665 -3.9313
  722MOL0     H97446  -1.874   8.881  10.322 -1.2928 -1.5536  2.0435
  722MOL0     H97447  -1.701   8.929  10.348 -0.1210  1.1999  2.4920
  722MOL0     H97448  -1.624   8.702  10.307  0.2446  1.2014  1.6979
  722MOL0     H97449  -1.742   8.741  10.186 -0.4866  2.1106  0.3493
  722MOL0     H97450  -1.811   8.567  10.443  0.1262  1.5862  0.0865
  722MOL0     H97451  -1.795   8.506  10.280  0.4488 -1.7378  1.5017
  722MOL0     H97452  -1.027   9.040  10.524 -1.2980 -0.2730  0.9889
  722MOL0     H97453  -0.809   8.936  10.512 -0.4931 -0.1125  1.2140
  722MOL0     H97454  -0.502   8.664  10.166 -0.2678 -2.4548 -3.2486
  722MOL0     H97455  -0.300   8.536  10.147 -0.0484  0.0850  1.1446
  722MOL0     H97456   0.746   8.154   9.589  2.9042 -0.8260  1.6199
  722MOL0     H97457   0.985   8.086   9.571  1.7938 -1.4867 -0.9657
  722MOL0     H97458   1.311   7.948   9.334  0.6472  0.2358 -1.6973
  722MOL0     H97459   1.544   7.898   9.325  1.2849 -0.9771  0.8978
  722MOL0     H97460   1.752   7.664   9.625  0.1780  0.3749  0.1403
  722MOL0     H97461   1.691   7.519   9.540 -1.1441  0.7594  0.8810
  722MOL0     H97462   1.880   7.533   9.381 -3.8932 -0.0125 -0.5470
  722MOL0     H97463   1.926   7.499   9.554 -3.9514 -0.9099  0.7933
  722MOL0     H97464   1.952   7.764   9.560  0.4474  0.9744 -1.1512
  722MOL0     H97465   1.933   7.753   9.385  0.9765 -0.6846 -1.7650
  722MOL0     H97466   2.137   7.593   9.377  1.0152 -0.6523  1.6207
  722MOL0     H97467   2.174   7.655   9.534 -0.9255 -1.2986 -0.1776
  722MOL0     H97468   2.233   7.990   9.271 -0.6546  0.5658  0.3643
  722MOL0     H97469   1.478   7.542   9.561  0.6688  0.9420 -0.0753
  722MOL0     H97470   1.241   7.598   9.582  0.1668 -2.6431 -2.1570
  723MOL0     O97471   7.465   5.782   9.144  0.2226  0.2509 -0.4224
  723MOL0     C97472   7.521   5.770   9.246  0.4315 -0.1754  0.0803
  723MOL0     O97473   7.466   5.714   9.361 -0.4108 -0.4170 -0.1518
  723MOL0     C97474   7.327   5.688   9.362  0.0399  0.0268  0.5167
  723MOL0     C97475   7.229   5.784   9.351  0.1082  0.0586 -0.7382
  723MOL0     C97476   7.093   5.754   9.346  0.5314  0.0397 -0.1714
  723MOL0     C97477   7.055   5.617   9.375 -0.1021 -0.0169 -0.1353
  723MOL0     O97478   6.926   5.567   9.395  0.4346 -0.6404 -1.0190
  723MOL0     C97479   6.837   5.662   9.453 -0.4469  0.2931  0.0366
  723MOL0     C97480   6.717   5.598   9.513  0.2835  0.1381  0.2899
  723MOL0     C97481   6.604   5.704   9.532 -0.7980 -0.5807 -0.0822
  723MOL0     C97482   6.496   5.636   9.612 -0.6524  0.5240  1.6173
  723MOL0     C97483   6.400   5.739   9.656 -0.6400  0.0563  0.7390
  723MOL0     C97484   6.313   5.683   9.774 -0.3168 -0.5206  0.4083
  723MOL0     C97485   6.195   5.768   9.821  0.1871  0.0469  0.4747
  723MOL0     C97486   6.060   5.727   9.761  0.1420 -0.0180  0.4910
  723MOL0     N97487   5.945   5.794   9.830  0.3040  0.3995  1.1169
  723MOL0     C97488   5.872   5.740   9.939 -0.0797 -0.9535 -0.1090
  723MOL0     C97489   5.770   5.822   9.954  0.1354 -0.3442 -0.1944
  723MOL0     C97490   5.664   5.806  10.048 -0.1748  0.1951 -0.1992
  723MOL0     C97491   5.603   5.929  10.106 -0.8468  0.6454  0.5452
  723MOL0     C97492   5.510   5.906  10.220  0.1810 -0.3202  0.0732
  723MOL0     C97493   5.388   5.810  10.203  0.3681  0.1867 -0.6744
  723MOL0     O97494   5.429   5.685  10.261 -0.1600 -0.3610  0.3089
  723MOL0     C97495   5.366   5.625  10.363  0.4290  0.5420  0.0858
  723MOL0     C97496   5.230   5.603  10.368  0.8214  0.3004  0.4096
  723MOL0     C97497   5.161   5.557  10.482 -0.9443 -0.0039 -0.3337
  723MOL0     C97498   5.013   5.529  10.461  0.0085  0.3376 -1.0525
  723MOL0     C97499   5.242   5.517  10.598 -0.0207 -0.7778  0.3985
  723MOL0     C97500   5.190   5.488  10.728 -0.1290  0.0589  0.3346
  723MOL0     O97501   5.255   5.377  10.783 -0.2431 -0.0658 -0.1255
  723MOL0     C97502   5.219   5.317  10.901 -0.5392  0.1313  0.2828
  723MOL0     C97503   5.208   5.178  10.913 -0.1037  0.2971 -0.4381
  723MOL0     C97504   5.162   5.122  11.027  0.3067 -0.4118 -0.0680
  723MOL0     C97505   5.128   5.200  11.138 -0.1708  0.3229 -0.2959
  723MOL0     O97506   5.085   5.130  11.254 -0.1447  0.0653  0.4427
  723MOL0     C97507   5.088   5.195  11.381  0.0434  0.9210 -0.7129
  723MOL0     C97508   5.057   5.100  11.492  0.2425  0.5355 -1.0034
  723MOL0     C97509   4.918   5.032  11.486  0.1683  0.5421 -0.3646
  723MOL0     C97510   4.813   5.133  11.533 -0.7233  0.7452  0.9193
  723MOL0     C97511   4.804   5.149  11.691 -1.0784 -0.4034  0.3512
  723MOL0     C97512   4.764   5.024  11.769  0.4514 -0.5804  0.7589
  723MOL0     C97513   4.765   5.053  11.921 -0.6231  0.2322  0.8340
  723MOL0     C97514   4.659   5.157  11.962  0.6792 -0.2110 -0.1599
  723MOL0    Cl97515   4.502   5.092  11.919 -0.4589  0.1093  0.5139
  723MOL0     C97516   5.154   5.329  11.141 -0.1813  0.0687  0.6536
  723MOL0     C97517   5.191   5.390  11.017  0.9410  0.0239 -0.0991
  723MOL0     O97518   5.093   5.547  10.781  0.7448  0.5282  0.9514
  723MOL0     C97519   5.384   5.542  10.585 -0.1758 -0.5061  0.1571
  723MOL0     C97520   5.440   5.603  10.475 -0.6167  0.1692 -0.4914
  723MOL0     N97521   5.785   5.923   9.868  0.0920 -0.2936  0.2622
  723MOL0     N97522   5.892   5.907   9.793  0.7266 -0.1194 -0.6860
  723MOL0     C97523   7.157   5.524   9.388 -0.2527  0.5771 -0.1575
  723MOL0     C97524   7.290   5.555   9.377  0.7857 -0.1456 -2.1518
  723MOL0     C97525   7.658   5.842   9.260 -0.2290  0.0144  0.2146
  723MOL0     C97526   7.706   5.857   9.383 -0.1302 -0.0165  0.5040
  723MOL0     C97527   7.834   5.921   9.405 -0.1065 -0.2912  0.4243
  723MOL0     C97528   7.898   5.977   9.296 -0.2050 -0.1875 -0.7839
  723MOL0     O97529   8.004   6.053   9.316  0.1665  0.1329  0.1978
  723MOL0     C97530   8.063   6.065   9.440  0.6007  0.9283  0.1525
  723MOL0     C97531   8.182   6.163   9.450 -0.0121 -0.0772  0.1864
  723MOL0     C97532   8.303   6.098   9.373  1.1140  0.0793 -1.1844
  723MOL0     C97533   8.395   6.200   9.326 -0.0356 -0.1684 -0.0266
  723MOL0     C97534   8.344   6.253   9.197 -0.1653 -0.3490  0.9150
  723MOL0     C97535   8.328   6.309   9.088 -0.3826  0.6784  0.2455
  723MOL0     C97536   7.845   5.976   9.167 -0.6116  0.7234 -0.6231
  723MOL0     C97537   7.718   5.909   9.145  0.1035  1.1389  0.7325
  723MOL0     H97538   7.265   5.886   9.348 -2.6446  1.0972 -0.6747
  723MOL0     H97539   7.019   5.828   9.318  0.1022 -1.1106 -2.2808
  723MOL0     H97540   6.880   5.721   9.535 -1.8601  1.3516  0.0561
  723MOL0     H97541   6.811   5.723   9.366 -0.0641 -1.4857 -1.3903
  723MOL0     H97542   6.680   5.520   9.445  0.9782 -2.6685  2.9032
  723MOL0     H97543   6.748   5.541   9.601  0.7804 -1.0846 -0.6398
  723MOL0     H97544   6.644   5.790   9.588 -0.4352 -0.4657 -0.5148
  723MOL0     H97545   6.553   5.738   9.441  1.3094  1.9379 -0.4622
  723MOL0     H97546   6.440   5.563   9.553 -3.0416  2.6352  1.0945
  723MOL0     H97547   6.539   5.583   9.697  2.5633 -1.6900 -1.1154
  723MOL0     H97548   6.461   5.821   9.695  0.0944 -0.1531  0.0491
  723MOL0     H97549   6.336   5.775   9.575  0.8905 -0.4387 -0.7310
  723MOL0     H97550   6.277   5.583   9.748  0.2076 -0.4507 -0.6110
  723MOL0     H97551   6.385   5.687   9.857  1.9517  2.9678 -1.4938
  723MOL0     H97552   6.197   5.743   9.928  0.8188 -3.0692 -0.1488
  723MOL0     H97553   6.203   5.877   9.812 -3.9550  0.5590  1.2117
  723MOL0     H97554   6.046   5.619   9.773  0.3002  0.1273  2.1960
  723MOL0     H97555   6.054   5.756   9.656  1.6225  0.4396  0.5130
  723MOL0     H97556   5.888   5.649   9.996  0.4164  0.4272  2.0998
  723MOL0     H97557   5.590   5.740  10.001  0.4022 -0.0488 -0.7851
  723MOL0     H97558   5.704   5.743  10.127 -0.4917  1.8528  1.3497
  723MOL0     H97559   5.541   5.975  10.028  0.3777  0.0759 -0.8057
  723MOL0     H97560   5.678   6.006  10.125 -2.9827  3.1646 -0.6581
  723MOL0     H97561   5.455   5.998  10.242  0.6723  0.1547 -0.6346
  723MOL0     H97562   5.570   5.888  10.310  2.0863  3.4389 -0.2796
  723MOL0     H97563   5.352   5.795  10.101 -2.5556  1.4556  0.0750
  723MOL0     H97564   5.314   5.859  10.266  3.0911  0.9364  2.2039
  723MOL0     H97565   5.166   5.623  10.282 -0.6463 -0.9779  1.1378
  723MOL0     H97566   4.978   5.472  10.374  0.2274  3.4987 -3.3994
  723MOL0     H97567   4.963   5.483  10.547  0.9697  0.9903 -0.1342
  723MOL0     H97568   4.974   5.630  10.450  1.8260  1.4246  1.7002
  723MOL0     H97569   5.230   5.114  10.829  0.9042  0.5916 -0.4199
  723MOL0     H97570   5.134   5.018  11.017  2.3925 -0.8398 -2.2783
  723MOL0     H97571   5.188   5.235  11.402 -1.1455  3.4297  0.7151
  723MOL0     H97572   5.018   5.279  11.386  2.8079  3.3196  1.4520
  723MOL0     H97573   5.130   5.019  11.489 -0.9374 -0.5545 -0.7398
  723MOL0     H97574   5.076   5.146  11.590 -0.8430  1.6523 -1.2833
  723MOL0     H97575   4.905   4.946  11.552 -1.3634  1.3089  0.4034
  723MOL0     H97576   4.893   4.996  11.386  0.1712  0.6114 -0.3907
  723MOL0     H97577   4.832   5.226  11.479  0.2754  0.1520  0.2012
  723MOL0     H97578   4.723   5.081  11.498 -0.1227 -0.2618  0.8160
  723MOL0     H97579   4.722   5.219  11.712 -1.3320 -1.0252  1.5449
  723MOL0     H97580   4.895   5.195  11.733 -0.8890  0.1955 -0.6844
  723MOL0     H97581   4.671   4.980  11.732 -0.7334  0.7561  2.0283
  723MOL0     H97582   4.843   4.953  11.745  0.8960 -0.7910  2.6987
  723MOL0     H97583   4.859   5.099  11.953  1.0737  0.1136 -3.4159
  723MOL0     H97584   4.736   4.963  11.977 -3.6266 -0.6754 -1.8182
  723MOL0     H97585   4.674   5.259  11.924 -1.1726 -0.2952 -1.2236
  723MOL0     H97586   4.671   5.155  12.071 -0.1612 -0.4807 -0.0651
  723MOL0     H97587   5.133   5.389  11.229 -3.0013 -1.4804  1.1499
  723MOL0     H97588   5.193   5.498  11.018  0.4353  0.0316  0.5150
  723MOL0     H97589   5.447   5.530  10.672 -0.4242 -2.0340  0.1498
  723MOL0     H97590   5.545   5.630  10.470 -1.2431  2.8412 -0.3094
  723MOL0     H97591   7.134   5.419   9.402  0.4412  0.5164  0.6105
  723MOL0     H97592   7.366   5.481   9.401 -0.4760 -0.7565  0.3310
  723MOL0     H97593   7.663   5.804   9.467  0.6187 -1.1670  0.1844
  723MOL0     H97594   7.872   5.915   9.506 -0.6711  1.9202  0.8390
  723MOL0     H97595   7.999   6.096   9.523  1.2135 -0.1805  1.0763
  723MOL0     H97596   8.087   5.962   9.469 -1.5419  0.9158  2.1781
  723MOL0     H97597   8.205   6.187   9.554 -1.1565 -2.4753  1.0508
  723MOL0     H97598   8.160   6.256   9.397 -0.4450 -0.2169  0.1207
  723MOL0     H97599   8.284   6.035   9.286  2.0335 -1.6668 -0.1657
  723MOL0     H97600   8.365   6.045   9.446  0.9301  1.0715 -0.2898
  723MOL0     H97601   8.488   6.149   9.299 -0.1854  0.0690 -1.0175
  723MOL0     H97602   8.419   6.274   9.403 -1.7609 -0.9918  1.3813
  723MOL0     H97603   8.299   6.365   9.001 -0.4787  1.8285  0.9936
  723MOL0     H97604   7.892   6.037   9.091 -0.9389 -1.4634 -2.6899
  723MOL0     H97605   7.674   5.902   9.047  0.7432  2.5839  0.3092
  724MOL0     O97606  10.279   4.903   3.242  0.0402 -0.1197 -0.2015
  724MOL0     C97607  10.163   4.937   3.201  0.8959 -0.1930  0.3491
  724MOL0     O97608  10.123   5.054   3.135 -0.0909  0.4170 -0.0505
  724MOL0     C97609  10.213   5.139   3.073 -0.6283  0.0437  0.3013
  724MOL0     C97610  10.355   5.122   3.074  0.1181  0.0176  0.5694
  724MOL0     C97611  10.441   5.213   3.009  0.1273  0.0050  0.9729
  724MOL0     C97612  10.376   5.321   2.943 -1.3477 -0.0375  0.5361
  724MOL0     O97613  10.444   5.398   2.848  0.0512 -0.6608  0.1785
  724MOL0     C97614  10.537   5.326   2.763  0.0280  0.6922  0.3711
  724MOL0     C97615  10.591   5.406   2.640  0.5311 -0.9300 -0.2044
  724MOL0     C97616  10.642   5.544   2.682  0.8251 -0.1465 -0.1472
  724MOL0     C97617  10.692   5.630   2.564 -0.3654  0.5012 -0.5274
  724MOL0     C97618  10.733   5.779   2.609  0.2055 -0.4315 -0.0631
  724MOL0     C97619  10.880   5.785   2.666  0.1013  0.0804  0.4687
  724MOL0     C97620  10.920   5.911   2.751 -0.0914 -0.6236  0.5168
  724MOL0     C97621  11.067   5.898   2.804  0.0946  0.2204 -1.7539
  724MOL0     N97622  11.097   6.022   2.879 -0.7566 -0.1595  0.7863
  724MOL0     C97623  11.020   6.070   2.983  0.5058  0.3673 -0.1772
  724MOL0     C97624  11.048   6.201   2.993  0.0339  0.1829 -0.5333
  724MOL0     C97625  10.992   6.288   3.102  0.6806  0.2159 -0.4068
  724MOL0     C97626  10.854   6.334   3.068  0.8912  0.3341 -0.1224
  724MOL0     C97627  10.786   6.431   3.168 -0.6619 -0.1802 -0.1966
  724MOL0     C97628  10.634   6.420   3.158  0.1284  0.1247 -0.0803
  724MOL0     O97629  10.600   6.290   3.221 -0.1263 -0.4800 -0.0473
  724MOL0     C97630  10.460   6.264   3.206  0.2114  0.3784  0.0444
  724MOL0     C97631  10.401   6.143   3.177 -1.3654  0.2796 -0.3247
  724MOL0     C97632  10.269   6.113   3.169 -0.0392 -0.6638  0.0760
  724MOL0     C97633  10.235   5.969   3.138  1.1824 -0.9765 -0.1108
  724MOL0     C97634  10.180   6.221   3.193  0.4322 -0.7163  0.1561
  724MOL0     C97635  10.030   6.215   3.195  0.2423 -0.4726 -0.0413
  724MOL0     O97636   9.956   6.308   3.274  0.7814  0.3894  0.1681
  724MOL0     C97637   9.820   6.297   3.274 -0.5440 -0.6239 -0.5008
  724MOL0     C97638   9.741   6.354   3.174  0.2483  0.3721 -0.4309
  724MOL0     C97639   9.602   6.338   3.173  0.5410  0.2557  0.7165
  724MOL0     C97640   9.538   6.271   3.289  0.1648 -0.1514  0.0834
  724MOL0     O97641   9.405   6.244   3.306  0.2337 -0.2238  0.0926
  724MOL0     C97642   9.314   6.281   3.208  0.1986  0.0501  1.3224
  724MOL0     C97643   9.171   6.248   3.236  0.6668  0.3197 -0.6345
  724MOL0     C97644   9.148   6.103   3.203 -0.3639  0.0829  0.2761
  724MOL0     C97645   8.999   6.080   3.195  0.0966  0.7965  0.7607
  724MOL0     C97646   8.957   5.934   3.193 -0.0274  0.0745 -0.3842
  724MOL0     C97647   8.980   5.863   3.061  0.8648  0.9608  0.5840
  724MOL0     C97648   8.894   5.735   3.052  0.4812 -0.5147  0.1939
  724MOL0     C97649   8.963   5.627   2.950  0.6375 -0.6939 -0.6139
  724MOL0    Cl97650   8.840   5.495   2.939 -0.4173  0.4229  0.5648
  724MOL0     C97651   9.622   6.221   3.388 -0.4558  0.1104  1.3442
  724MOL0     C97652   9.762   6.237   3.386 -1.1483 -0.1557 -0.2486
  724MOL0     O97653   9.984   6.136   3.109 -0.5771 -0.3202  0.2136
  724MOL0     C97654  10.229   6.339   3.244  0.8190  0.3752  0.4961
  724MOL0     C97655  10.368   6.364   3.247  0.1736 -0.4266  0.1977
  724MOL0     N97656  11.133   6.232   2.894  0.1540 -0.5825  1.4356
  724MOL0     N97657  11.166   6.127   2.823  0.6375 -0.3727 -0.0986
  724MOL0     C97658  10.235   5.337   2.953 -0.5241 -0.0173  0.6490
  724MOL0     C97659  10.158   5.249   3.015  0.6101  0.0485  0.6878
  724MOL0     C97660  10.050   4.840   3.228 -0.3038 -0.1468  0.1760
  724MOL0     C97661   9.916   4.875   3.185 -0.8538 -0.2818 -0.4124
  724MOL0     C97662   9.810   4.793   3.215 -0.0406  0.4388  1.1300
  724MOL0     C97663   9.822   4.676   3.285 -1.0165  0.0020 -1.3049
  724MOL0     O97664   9.716   4.602   3.335 -0.1036  0.0533  0.6583
  724MOL0     C97665   9.585   4.635   3.318 -0.0506 -0.4381  0.2620
  724MOL0     C97666   9.530   4.731   3.433  1.0511 -0.4358  0.5931
  724MOL0     C97667   9.384   4.775   3.377 -0.7475  0.3879 -0.3306
  724MOL0     C97668   9.317   4.901   3.446 -0.3524 -0.8661  0.7430
  724MOL0     C97669   9.257   4.839   3.564 -0.3077 -0.8432 -0.0639
  724MOL0     C97670   9.209   4.780   3.661  0.5333 -0.2288  0.1602
  724MOL0     C97671   9.959   4.638   3.318  0.7016  0.2922  0.6765
  724MOL0     C97672  10.072   4.714   3.299 -0.6401 -0.5692 -0.2080
  724MOL0     H97673  10.404   5.039   3.124 -0.3615 -1.0360 -0.6666
  724MOL0     H97674  10.548   5.195   3.006  0.7651  2.6538 -4.1797
  724MOL0     H97675  10.614   5.305   2.838 -0.5233  1.6780  1.2444
  724MOL0     H97676  10.479   5.240   2.728  3.1626 -1.0801 -0.9462
  724MOL0     H97677  10.665   5.348   2.584 -1.0884 -0.0350 -3.5418
  724MOL0     H97678  10.507   5.417   2.571  2.0886 -1.0048 -2.2148
  724MOL0     H97679  10.569   5.601   2.741  1.1266  0.3722 -0.2661
  724MOL0     H97680  10.733   5.525   2.739  1.5594 -0.5638 -1.4241
  724MOL0     H97681  10.772   5.586   2.502  2.7575  3.6387  0.9078
  724MOL0     H97682  10.612   5.637   2.490 -0.7494 -0.2767 -0.2037
  724MOL0     H97683  10.733   5.845   2.522  1.5059 -0.6074 -0.2187
  724MOL0     H97684  10.667   5.821   2.686 -0.6087 -1.0802 -0.3947
  724MOL0     H97685  10.907   5.696   2.723  1.4322  0.2143  0.0989
  724MOL0     H97686  10.946   5.780   2.578  0.8556  0.4834  0.9963
  724MOL0     H97687  10.920   5.999   2.686 -1.1331 -1.7769 -1.1463
  724MOL0     H97688  10.841   5.921   2.827 -2.2556  3.6151 -1.9125
  724MOL0     H97689  11.140   5.871   2.727  0.1255 -0.6226 -1.4393
  724MOL0     H97690  11.065   5.822   2.882 -0.2720 -0.9682 -2.8912
  724MOL0     H97691  10.978   6.011   3.064  1.2232 -0.6386 -0.5103
  724MOL0     H97692  10.984   6.234   3.197 -0.1781  0.3449 -0.3946
  724MOL0     H97693  11.065   6.368   3.111  0.5725  0.2394  0.3576
  724MOL0     H97694  10.799   6.240   3.056  0.0428  0.8895 -0.6847
  724MOL0     H97695  10.845   6.380   2.969 -1.5375 -1.4450 -0.8421
  724MOL0     H97696  10.810   6.532   3.133  2.4806 -0.2007  1.5809
  724MOL0     H97697  10.825   6.409   3.268 -3.3402 -3.5252  0.3102
  724MOL0     H97698  10.618   6.411   3.050  3.9427 -0.7921 -0.7222
  724MOL0     H97699  10.578   6.498   3.210 -4.1527 -2.4981 -0.2449
  724MOL0     H97700  10.472   6.061   3.182  0.7356  2.0590  0.6368
  724MOL0     H97701  10.196   5.924   3.229 -0.4764  0.9256  0.1934
  724MOL0     H97702  10.155   5.957   3.064 -0.7623 -1.6986  2.0151
  724MOL0     H97703  10.326   5.922   3.099  2.1837  1.4031 -0.8585
  724MOL0     H97704   9.780   6.417   3.095 -2.2677  2.0192 -0.4565
  724MOL0     H97705   9.544   6.372   3.089  0.2181  0.0100  0.8363
  724MOL0     H97706   9.326   6.390   3.211  0.3634  0.0182  2.7329
  724MOL0     H97707   9.350   6.232   3.118  2.1448  2.7685  0.4854
  724MOL0     H97708   9.164   6.253   3.345  1.6252 -0.3555 -0.5295
  724MOL0     H97709   9.102   6.314   3.182  0.7271 -0.4524 -1.6683
  724MOL0     H97710   9.192   6.044   3.284 -1.4645 -0.8393  0.2329
  724MOL0     H97711   9.202   6.080   3.111  0.8306 -1.9888  1.4124
  724MOL0     H97712   8.948   6.121   3.283  0.4388  0.0361  1.3256
  724MOL0     H97713   8.960   6.129   3.105 -0.0099  2.0282  1.4631
  724MOL0     H97714   8.848   5.939   3.193 -0.0787  0.4180 -3.1743
  724MOL0     H97715   8.996   5.876   3.278 -0.4327 -0.8796 -0.8310
  724MOL0     H97716   8.977   5.921   2.968  0.0173 -2.0652 -1.4501
  724MOL0     H97717   9.086   5.838   3.056  1.3071  2.6956 -4.0202
  724MOL0     H97718   8.790   5.758   3.029  0.0080 -1.5414  1.1947
  724MOL0     H97719   8.895   5.690   3.152 -3.8809 -2.4733 -0.4236
  724MOL0     H97720   9.061   5.597   2.988  1.3641 -1.1200 -2.6904
  724MOL0     H97721   8.958   5.671   2.850 -2.4096 -0.7696 -0.6086
  724MOL0     H97722   9.570   6.159   3.461 -4.4694  0.4084 -0.9869
  724MOL0     H97723   9.827   6.216   3.470  0.9797  1.3312 -1.4430
  724MOL0     H97724  10.161   6.423   3.251  0.5848  0.1848  0.5268
  724MOL0     H97725  10.401   6.460   3.285  2.8785 -1.2955  0.2536
  724MOL0     H97726  10.187   5.425   2.912 -2.4661 -1.1266  0.4416
  724MOL0     H97727  10.050   5.254   3.019  0.3915 -1.9398 -1.2202
  724MOL0     H97728   9.889   4.976   3.154 -2.0789  0.0302  1.5145
  724MOL0     H97729   9.711   4.829   3.190 -1.0020 -2.1992  0.9165
  724MOL0     H97730   9.569   4.689   3.224 -3.3573  0.7070  1.3052
  724MOL0     H97731   9.518   4.549   3.312 -1.5996  0.5855  1.9262
  724MOL0     H97732   9.595   4.818   3.446  0.4602 -0.0823  1.2391
  724MOL0     H97733   9.525   4.674   3.526  1.1240  0.4257  1.1367
  724MOL0     H97734   9.317   4.688   3.373  0.3881 -0.4693 -1.6867
  724MOL0     H97735   9.388   4.804   3.272 -1.5960  1.6018 -0.0469
  724MOL0     H97736   9.236   4.937   3.382 -1.7566 -2.7138  1.3977
  724MOL0     H97737   9.384   4.983   3.475 -3.7698  2.2846  0.4018
  724MOL0     H97738   9.155   4.734   3.741  2.0958 -3.0177 -0.2764
  724MOL0     H97739   9.972   4.538   3.359 -0.7164 -0.6580 -1.0228
  724MOL0     H97740  10.168   4.682   3.339 -1.0982 -1.7007  0.0412
  725MOL0     O97741   7.239   0.077   4.928  0.7284  0.6236 -1.1045
  725MOL0     C97742   7.283   0.161   5.001  0.7469  0.3447  0.0244
  725MOL0     O97743   7.207   0.216   5.108  0.3477 -0.4898  0.3520
  725MOL0     C97744   7.074   0.196   5.121  0.0270  0.9594  0.2549
  725MOL0     C97745   6.979   0.212   5.018 -0.3017 -0.3270 -0.1763
  725MOL0     C97746   6.846   0.167   5.038  1.2336 -0.4899  0.2262
  725MOL0     C97747   6.807   0.103   5.156  0.0293  0.2726  0.6146
  725MOL0     O97748   6.678   0.072   5.165 -0.4589  0.4141 -0.0999
  725MOL0     C97749   6.645  -0.044   5.246  0.2967  0.1679  0.2133
  725MOL0     C97750   6.532  -0.130   5.176 -0.1459 -0.0597 -0.5095
  725MOL0     C97751   6.574  -0.173   5.031  0.3983 -0.5136 -0.3678
  725MOL0     C97752   6.506  -0.296   4.976  0.6457 -0.0770 -0.4778
  725MOL0     C97753   6.355  -0.301   4.997 -0.0746 -0.8440  0.4093
  725MOL0     C97754   6.300  -0.424   4.926 -0.7258 -0.0307 -0.3470
  725MOL0     C97755   6.149  -0.441   4.942  0.7339  0.4398  1.0505
  725MOL0     C97756   6.065  -0.338   4.869 -0.1331 -0.2383  0.1093
  725MOL0     N97757   6.036  -0.213   4.937  0.0635 -0.6045 -0.3158
  725MOL0     C97758   5.991  -0.199   5.071  0.7416  0.5482  0.0657
  725MOL0     C97759   5.955  -0.068   5.096 -0.4387 -0.2047  0.6407
  725MOL0     C97760   5.912  -0.009   5.235 -0.0991 -0.1900 -0.2113
  725MOL0     C97761   5.785   0.079   5.213  0.6336  0.4570  0.2448
  725MOL0     C97762   5.771   0.163   5.348 -0.7116  0.5961  0.0238
  725MOL0     C97763   5.643   0.248   5.348 -0.1640  1.0804 -0.4324
  725MOL0     O97764   5.527   0.166   5.378  0.2329  0.0362  0.3066
  725MOL0     C97765   5.411   0.230   5.408  0.3418 -0.1603 -0.4482
  725MOL0     C97766   5.376   0.357   5.353 -0.6677  0.6332  0.6236
  725MOL0     C97767   5.246   0.408   5.372  0.7390  0.5574  0.3163
  725MOL0     C97768   5.200   0.532   5.298  0.6834 -0.3315 -0.0764
  725MOL0     C97769   5.152   0.340   5.459 -0.8762  0.7508 -0.1206
  725MOL0     C97770   5.014   0.392   5.485 -0.4918  0.6271  0.0935
  725MOL0     O97771   4.931   0.421   5.374 -0.5889 -0.2894  0.0141
  725MOL0     C97772   4.809   0.474   5.410 -0.4403  0.4595 -0.1032
  725MOL0     C97773   4.703   0.397   5.431 -1.0588  0.7270 -0.0889
  725MOL0     C97774   4.578   0.448   5.447 -0.3648 -0.2253  0.0372
  725MOL0     C97775   4.562   0.583   5.447  0.0543 -0.1264 -0.0444
  725MOL0     O97776   4.438   0.648   5.457  0.2698 -0.0110 -0.5942
  725MOL0     C97777   4.321   0.573   5.474  0.4331 -0.3027 -1.6475
  725MOL0     C97778   4.207   0.682   5.509 -0.7542 -0.2202 -0.3125
  725MOL0     C97779   4.164   0.753   5.378  0.2034 -0.7221  0.1490
  725MOL0     C97780   4.179   0.907   5.391 -0.2754  0.2097 -0.2787
  725MOL0     C97781   4.140   0.980   5.258  0.7821 -0.2546  0.2893
  725MOL0     C97782   4.232   0.952   5.145  0.1766  0.3986  0.9354
  725MOL0     C97783   4.161   0.991   5.009 -0.5576 -0.8091 -1.1443
  725MOL0     C97784   4.077   0.881   4.953 -0.9464  0.0426  0.2501
  725MOL0    Cl97785   4.029   0.909   4.784 -0.4933  0.1888 -0.1070
  725MOL0     C97786   4.673   0.666   5.431  0.0763  0.9466 -1.1232
  725MOL0     C97787   4.798   0.613   5.413  0.3981  0.0957  0.5051
  725MOL0     O97788   4.981   0.382   5.608  0.3567 -0.7837 -0.2068
  725MOL0     C97789   5.199   0.228   5.530 -0.6314 -0.4590 -0.3482
  725MOL0     C97790   5.331   0.187   5.512 -0.3404  0.4527  0.1262
  725MOL0     N97791   5.963   0.000   4.977  0.8398 -0.2306 -0.6444
  725MOL0     N97792   6.019  -0.079   4.891  1.1893  0.7814 -0.7565
  725MOL0     C97793   6.908   0.093   5.258  1.1237  0.2665 -0.3367
  725MOL0     C97794   7.037   0.137   5.240 -0.3203 -0.6284 -1.3364
  725MOL0     C97795   7.424   0.194   4.988 -0.2411 -0.6181  0.2289
  725MOL0     C97796   7.512   0.121   4.908  0.0661  0.4765  0.2583
  725MOL0     C97797   7.647   0.153   4.894  0.5971  0.1250 -0.4899
  725MOL0     C97798   7.700   0.269   4.950  0.0896  0.0771 -0.0817
  725MOL0     O97799   7.832   0.305   4.958  1.0441  0.0032  0.7423
  725MOL0     C97800   7.924   0.211   4.890  0.2841  0.8555 -1.1071
  725MOL0     C97801   8.064   0.232   4.941  0.7708 -0.0828 -0.9467
  725MOL0     C97802   8.109   0.379   4.951  0.0375 -0.3213 -0.6578
  725MOL0     C97803   8.247   0.383   5.020 -0.4478  0.2864  0.0682
  725MOL0     C97804   8.349   0.390   4.921 -0.0366 -0.6161  0.3511
  725MOL0     C97805   8.422   0.397   4.829  0.4676  0.0155  0.4377
  725MOL0     C97806   7.611   0.349   5.025 -0.3324 -0.1698  0.5338
  725MOL0     C97807   7.474   0.319   5.043 -0.3197  0.0838  0.2429
  725MOL0     H97808   7.018   0.261   4.929 -0.6493 -2.1412 -1.3924
  725MOL0     H97809   6.767   0.172   4.964  0.6941  0.1147  0.8269
  725MOL0     H97810   6.734  -0.107   5.255 -0.3024 -0.6152  0.8984
  725MOL0     H97811   6.598  -0.012   5.339 -0.3629 -0.0429 -0.0378
  725MOL0     H97812   6.518  -0.220   5.236 -0.7030  0.3243 -0.0500
  725MOL0     H97813   6.443  -0.067   5.175  0.3763  0.7039 -0.0008
  725MOL0     H97814   6.551  -0.093   4.961  2.5916  1.1899  0.7337
  725MOL0     H97815   6.682  -0.190   5.033  0.4659 -0.2016  2.2304
  725MOL0     H97816   6.533  -0.317   4.872 -2.7089 -0.4120 -1.3798
  725MOL0     H97817   6.554  -0.378   5.031 -0.2463  0.5824  1.3796
  725MOL0     H97818   6.338  -0.320   5.103  1.4293 -0.2891  0.7823
  725MOL0     H97819   6.318  -0.206   4.958  2.4293  0.9846  2.1468
  725MOL0     H97820   6.321  -0.416   4.818  3.3587 -0.8297  0.2280
  725MOL0     H97821   6.354  -0.513   4.960  0.1581  0.1969 -1.0839
  725MOL0     H97822   6.121  -0.541   4.908 -0.0365  1.7709 -2.6917
  725MOL0     H97823   6.128  -0.434   5.049  3.0522  0.3688  1.5705
  725MOL0     H97824   5.967  -0.386   4.860 -0.0591 -0.8028  1.9760
  725MOL0     H97825   6.108  -0.326   4.769  2.2401 -0.9369  0.9907
  725MOL0     H97826   5.995  -0.282   5.140 -2.3867 -0.3242 -0.6400
  725MOL0     H97827   5.879  -0.091   5.300 -4.0882  0.9850 -0.5004
  725MOL0     H97828   5.982   0.047   5.297 -3.1925  1.6053  1.9301
  725MOL0     H97829   5.692   0.025   5.196  0.1834  1.3701 -0.2805
  725MOL0     H97830   5.807   0.149   5.131  0.4661 -1.0821 -1.1682
  725MOL0     H97831   5.856   0.232   5.350 -0.6630  0.7438 -2.7396
  725MOL0     H97832   5.777   0.108   5.442  0.6713 -0.1925 -0.5027
  725MOL0     H97833   5.636   0.309   5.258  3.6977 -1.1474 -2.4850
  725MOL0     H97834   5.655   0.325   5.425 -2.3456  0.7894  0.2901
  725MOL0     H97835   5.446   0.412   5.291  0.3753 -0.8962  0.4166
  725MOL0     H97836   5.281   0.559   5.230  0.2354 -2.1260 -1.3797
  725MOL0     H97837   5.116   0.503   5.235  1.6366 -0.8474 -1.1524
  725MOL0     H97838   5.165   0.613   5.363  0.0787  1.0464 -2.0445
  725MOL0     H97839   4.720   0.291   5.439 -0.6946  0.8357  0.7051
  725MOL0     H97840   4.494   0.383   5.473 -1.0532  0.3668 -0.6559
  725MOL0     H97841   4.297   0.507   5.390  1.1292 -0.1678 -1.9523
  725MOL0     H97842   4.333   0.511   5.564 -1.5221  0.8806 -0.4741
  725MOL0     H97843   4.110   0.645   5.547 -2.1933  1.7839 -1.8445
  725MOL0     H97844   4.256   0.751   5.578  1.9783 -0.3329 -1.9998
  725MOL0     H97845   4.059   0.734   5.357 -0.2874  0.3496  1.5177
  725MOL0     H97846   4.228   0.714   5.297 -1.0569 -1.5798 -0.4663
  725MOL0     H97847   4.136   0.955   5.479  1.5449  3.2344 -0.9005
  725MOL0     H97848   4.286   0.926   5.398  0.0967 -1.9653  0.9475
  725MOL0     H97849   4.131   1.088   5.270 -0.6835 -0.0583 -1.9793
  725MOL0     H97850   4.037   0.952   5.235  0.5228  1.5966 -1.0528
  725MOL0     H97851   4.325   1.008   5.159 -0.0768  1.4208 -1.0522
  725MOL0     H97852   4.248   0.844   5.134 -1.4259  0.3686 -2.4990
  725MOL0     H97853   4.235   1.012   4.930  0.4604  1.4499  0.2976
  725MOL0     H97854   4.097   1.078   5.030 -1.0846 -1.6658  1.0466
  725MOL0     H97855   3.994   0.870   5.022  0.8407 -0.8588  2.3920
  725MOL0     H97856   4.129   0.785   4.959 -1.0113 -0.1749 -1.8855
  725MOL0     H97857   4.669   0.774   5.425  1.6962  1.0401 -0.9749
  725MOL0     H97858   4.888   0.673   5.410  1.2599 -0.9367 -4.6611
  725MOL0     H97859   5.149   0.164   5.603  1.3019 -1.2799  0.3158
  725MOL0     H97860   5.365   0.099   5.566 -2.7444 -1.1580 -0.7978
  725MOL0     H97861   6.889   0.048   5.355  3.2981 -2.2500 -0.9608
  725MOL0     H97862   7.124   0.126   5.304 -0.0238  2.4088 -1.0765
  725MOL0     H97863   7.463   0.051   4.840 -4.5536  1.1767  2.4412
  725MOL0     H97864   7.697   0.080   4.832 -0.9106 -2.1094  0.7689
  725MOL0     H97865   7.908   0.103   4.896  2.4559  0.5185 -0.5282
  725MOL0     H97866   7.928   0.234   4.783  2.1375  1.0897 -1.0210
  725MOL0     H97867   8.137   0.186   4.874  4.3696  1.4376  1.6137
  725MOL0     H97868   8.073   0.190   5.041  0.6794 -0.0098 -0.9074
  725MOL0     H97869   8.035   0.432   5.011 -2.5281 -1.6248 -2.4632
  725MOL0     H97870   8.111   0.428   4.853  2.0909 -1.6517 -1.3628
  725MOL0     H97871   8.274   0.301   5.088  0.6550  1.3425  0.9502
  725MOL0     H97872   8.248   0.471   5.084  1.7530  0.2252  0.2211
  725MOL0     H97873   8.480   0.408   4.739 -2.4929 -0.3523 -1.6848
  725MOL0     H97874   7.657   0.426   5.085  3.9495 -2.7884  1.0249
  725MOL0     H97875   7.406   0.374   5.108 -3.2979 -0.0679 -2.4565
  726MOL0     O97876   3.642   2.247   2.539  0.8733  0.8543 -0.4146
  726MOL0     C97877   3.684   2.180   2.638 -0.1338  0.6072  0.7274
  726MOL0     O97878   3.620   2.085   2.703  0.7363 -0.1590  0.4694
  726MOL0     C97879   3.534   2.002   2.632  0.3463 -0.5948 -0.9543
  726MOL0     C97880   3.587   1.922   2.532  0.7195  0.1777 -0.2346
  726MOL0     C97881   3.507   1.831   2.466  1.1798  0.7602  1.2620
  726MOL0     C97882   3.375   1.810   2.499  0.4105 -1.2971 -0.6621
  726MOL0     O97883   3.321   1.706   2.435 -0.2563 -0.9523  0.3775
  726MOL0     C97884   3.198   1.645   2.473 -0.5425 -0.3636 -0.2890
  726MOL0     C97885   3.083   1.720   2.402 -0.1462 -0.6410  0.0711
  726MOL0     C97886   2.948   1.677   2.449 -0.2190 -0.2247  0.8769
  726MOL0     C97887   2.832   1.740   2.370  0.2913 -0.8317  0.4434
  726MOL0     C97888   2.705   1.666   2.414  0.8808  0.8716 -0.7177
  726MOL0     C97889   2.598   1.710   2.315  0.9348 -0.4746  0.4704
  726MOL0     C97890   2.487   1.602   2.284  0.1569 -0.7525 -0.2625
  726MOL0     C97891   2.450   1.516   2.403  0.4283  0.3666 -0.5532
  726MOL0     N97892   2.317   1.452   2.382  0.2420  0.0981  0.2916
  726MOL0     C97893   2.245   1.422   2.491  1.4199  0.2723  0.4730
  726MOL0     C97894   2.168   1.324   2.442  0.6852  0.0504 -0.2869
  726MOL0     C97895   2.067   1.261   2.539  0.4965  0.5240  0.2505
  726MOL0     C97896   1.929   1.289   2.509  0.1768 -0.1015 -0.1519
  726MOL0     C97897   1.851   1.165   2.561  0.1021  0.2235  0.4665
  726MOL0     C97898   1.702   1.181   2.519 -0.3444 -0.0369  0.1683
  726MOL0     O97899   1.675   1.209   2.381 -0.2795  0.4144 -0.3887
  726MOL0     C97900   1.541   1.232   2.351 -0.1602 -0.1045  0.2343
  726MOL0     C97901   1.509   1.267   2.225 -1.0589 -0.5484  0.2534
  726MOL0     C97902   1.375   1.286   2.182  0.5934 -0.0937  0.1418
  726MOL0     C97903   1.357   1.340   2.041 -0.0901  0.3796  0.5047
  726MOL0     C97904   1.262   1.277   2.270 -0.4484  0.1748  0.5056
  726MOL0     C97905   1.117   1.287   2.244  1.1811  0.0544 -0.0955
  726MOL0     O97906   1.043   1.322   2.363  0.1393  0.0761  0.9075
  726MOL0     C97907   0.909   1.345   2.341 -0.1799  0.4395 -0.1736
  726MOL0     C97908   0.817   1.275   2.418  0.2991  0.2613  0.0037
  726MOL0     C97909   0.678   1.288   2.403  0.2591 -0.4725  0.2161
  726MOL0     C97910   0.626   1.359   2.299 -0.0682  0.2088 -0.0866
  726MOL0     O97911   0.489   1.370   2.285  0.3700  0.1820  0.5185
  726MOL0     C97912   0.445   1.441   2.167  0.5310  0.8603  0.6721
  726MOL0     C97913   0.291   1.450   2.165 -0.8923  0.8102  0.0123
  726MOL0     C97914   0.236   1.556   2.074  0.6734  0.1980  0.0201
  726MOL0     C97915   0.083   1.564   2.085  0.7977 -0.3464  0.0427
  726MOL0     C97916   0.008   1.654   1.975  0.1463 -0.7115  0.3670
  726MOL0     C97917  -0.134   1.662   2.000 -0.1566  0.2344  0.1107
  726MOL0     C97918  -0.199   1.748   1.897  0.2825  0.2461  0.6064
  726MOL0     C97919  -0.354   1.753   1.920 -0.6407  0.2339 -0.0282
  726MOL0    Cl97920  -0.428   1.854   1.797  0.2120  0.5443 -0.1361
  726MOL0     C97921   0.721   1.430   2.217 -0.2686 -0.2225  0.4862
  726MOL0     C97922   0.858   1.418   2.234 -0.2105  0.6524  0.5256
  726MOL0     O97923   1.072   1.238   2.141 -0.0423  0.3079 -0.0562
  726MOL0     C97924   1.301   1.243   2.399  0.2422 -0.5927  0.4951
  726MOL0     C97925   1.432   1.226   2.441 -0.5464  0.5718  0.1020
  726MOL0     N97926   2.194   1.296   2.312 -0.6326 -0.4117 -0.2507
  726MOL0     N97927   2.292   1.378   2.275  0.9576 -0.2663  0.6424
  726MOL0     C97928   3.320   1.889   2.603 -0.0250  0.4012  0.3691
  726MOL0     C97929   3.405   1.986   2.664  0.5387  0.0208  0.7191
  726MOL0     C97930   3.819   2.220   2.681 -0.5806 -0.3314 -0.2746
  726MOL0     C97931   3.879   2.174   2.805 -0.1485  0.0062  1.1844
  726MOL0     C97932   4.013   2.206   2.836  0.0143 -0.7023 -0.1418
  726MOL0     C97933   4.092   2.290   2.747 -0.1048  0.2923  0.3632
  726MOL0     O97934   4.225   2.308   2.743 -0.3193  0.7000  0.1830
  726MOL0     C97935   4.309   2.233   2.824  0.1544 -0.3650  0.7059
  726MOL0     C97936   4.452   2.298   2.799  0.1246 -0.0176 -0.3219
  726MOL0     C97937   4.557   2.221   2.867 -0.2067 -0.1939  0.1906
  726MOL0     C97938   4.693   2.264   2.822 -0.2991  1.1736  0.1432
  726MOL0     C97939   4.708   2.414   2.832 -0.2900  0.2013  0.0454
  726MOL0     C97940   4.700   2.534   2.821 -0.0170 -0.0108 -0.2536
  726MOL0     C97941   4.026   2.348   2.629  1.3277  0.4236  0.0802
  726MOL0     C97942   3.898   2.301   2.593 -0.4012 -0.4519 -1.3598
  726MOL0     H97943   3.692   1.920   2.503 -0.1673 -0.6056 -3.7773
  726MOL0     H97944   3.545   1.767   2.387 -3.0312  1.2202 -1.4147
  726MOL0     H97945   3.196   1.543   2.433 -1.9222 -0.2626 -0.5246
  726MOL0     H97946   3.192   1.658   2.582  2.5778  2.8488 -0.3386
  726MOL0     H97947   3.091   1.825   2.432  0.6565 -0.8509  0.6197
  726MOL0     H97948   3.095   1.712   2.293 -0.4313 -1.6092  0.0998
  726MOL0     H97949   2.943   1.570   2.427  1.2058 -0.3223  0.9439
  726MOL0     H97950   2.938   1.690   2.557 -0.4013  1.3867  0.6974
  726MOL0     H97951   2.823   1.849   2.380  2.0450 -0.3025 -2.5968
  726MOL0     H97952   2.859   1.731   2.265  1.0178 -0.0574  0.5485
  726MOL0     H97953   2.718   1.557   2.407 -3.3375  0.0105  1.6056
  726MOL0     H97954   2.691   1.692   2.519 -1.0206  0.6999 -0.8958
  726MOL0     H97955   2.556   1.806   2.344  0.0050 -0.6952 -0.1101
  726MOL0     H97956   2.647   1.724   2.218  0.9113  0.9252  0.6378
  726MOL0     H97957   2.399   1.659   2.252  2.0724  1.9882 -1.0470
  726MOL0     H97958   2.527   1.542   2.203  0.6210  0.3511 -0.8709
  726MOL0     H97959   2.445   1.583   2.489 -2.7855  2.5765 -2.2323
  726MOL0     H97960   2.526   1.438   2.414  2.4311  2.0468 -1.8578
  726MOL0     H97961   2.254   1.463   2.590 -0.1576  1.8300  0.0285
  726MOL0     H97962   2.084   1.155   2.518 -0.7529  0.5651 -1.0143
  726MOL0     H97963   2.089   1.293   2.642  2.4103  1.7656 -0.4881
  726MOL0     H97964   1.916   1.316   2.404  1.4454  0.6911 -0.1332
  726MOL0     H97965   1.906   1.382   2.563 -1.5165 -0.5407 -0.0594
  726MOL0     H97966   1.865   1.164   2.670 -0.7597  3.5611  0.7200
  726MOL0     H97967   1.895   1.078   2.511  0.5571  1.6259 -1.6783
  726MOL0     H97968   1.670   1.267   2.578  1.5184 -1.4672  3.5125
  726MOL0     H97969   1.653   1.085   2.538  0.0261  0.0445  1.6721
  726MOL0     H97970   1.600   1.272   2.167 -0.5954 -2.1138  0.7924
  726MOL0     H97971   1.444   1.402   2.015 -0.5870  0.8782  0.0057
  726MOL0     H97972   1.346   1.261   1.967  1.1240  0.6981 -0.0361
  726MOL0     H97973   1.271   1.405   2.021  0.2205 -0.0150 -2.5523
  726MOL0     H97974   0.877   1.219   2.489 -1.4014  0.6382  1.8212
  726MOL0     H97975   0.607   1.232   2.463 -1.3558  0.7529 -0.4590
  726MOL0     H97976   0.475   1.546   2.168 -1.0041  1.3374 -0.3690
  726MOL0     H97977   0.492   1.393   2.080  0.5099  0.4429  0.8872
  726MOL0     H97978   0.245   1.352   2.147 -4.4526  2.6602 -2.3245
  726MOL0     H97979   0.262   1.478   2.266  2.5348 -1.3877  1.7840
  726MOL0     H97980   0.259   1.534   1.970  0.5196  3.1634 -0.7250
  726MOL0     H97981   0.280   1.650   2.110  0.4271  1.4010 -2.5919
  726MOL0     H97982   0.048   1.462   2.065  0.4479 -0.2116 -0.0392
  726MOL0     H97983   0.054   1.595   2.186  1.5999  1.5676 -0.2739
  726MOL0     H97984   0.016   1.621   1.871 -0.9432 -0.3227  0.1455
  726MOL0     H97985   0.059   1.751   1.981  1.7886 -1.5789  1.1284
  726MOL0     H97986  -0.176   1.562   2.000  0.0860  0.1142  1.6258
  726MOL0     H97987  -0.151   1.701   2.101  0.3600 -1.5056  0.8968
  726MOL0     H97988  -0.170   1.703   1.802  0.7550  1.3954  0.1957
  726MOL0     H97989  -0.155   1.848   1.904 -1.0166  1.0075 -1.3190
  726MOL0     H97990  -0.384   1.790   2.018 -1.4904 -0.4351 -0.0220
  726MOL0     H97991  -0.397   1.652   1.921 -3.2272  1.1843 -2.2666
  726MOL0     H97992   0.689   1.496   2.138 -3.1111 -2.5340 -0.4889
  726MOL0     H97993   0.924   1.451   2.155 -2.6858 -1.0079 -2.4383
  726MOL0     H97994   1.229   1.224   2.478  1.1937 -1.4151  1.1963
  726MOL0     H97995   1.442   1.203   2.547 -0.8054  2.6583  0.6415
  726MOL0     H97996   3.216   1.888   2.637  0.0805  1.7546  0.7795
  726MOL0     H97997   3.362   2.042   2.747 -1.0206 -1.6423  1.1031
  726MOL0     H97998   3.826   2.108   2.873  0.9109 -4.2558 -1.6936
  726MOL0     H97999   4.050   2.177   2.933  2.2033  3.6562  0.5494
  726MOL0     H98000   4.291   2.252   2.931  2.6832 -3.2623  1.7963
  726MOL0     H98001   4.305   2.126   2.807  1.6118 -0.4630  0.8377
  726MOL0     H98002   4.444   2.400   2.836 -0.6688 -0.0645 -0.3495
  726MOL0     H98003   4.465   2.294   2.690 -1.8949 -2.8316 -0.5702
  726MOL0     H98004   4.556   2.113   2.848  0.9839 -0.3445  0.8711
  726MOL0     H98005   4.557   2.235   2.975  0.3327  2.8186 -0.1318
  726MOL0     H98006   4.718   2.238   2.719  1.1740  0.2019  0.7226
  726MOL0     H98007   4.769   2.219   2.886  1.7972  0.5657 -2.5671
  726MOL0     H98008   4.691   2.640   2.816  0.7708  0.2988  2.8199
  726MOL0     H98009   4.078   2.417   2.563  0.7320  1.0683  0.2717
  726MOL0     H98010   3.854   2.338   2.501  1.2099  3.3526 -0.7790
  727MOL0     O98011   7.361   3.783   5.282 -0.5274 -0.9422 -0.0628
  727MOL0     C98012   7.447   3.803   5.368  0.1602 -0.2227 -0.2945
  727MOL0     O98013   7.433   3.901   5.474  0.2521 -0.2087 -0.5762
  727MOL0     C98014   7.334   3.991   5.445  0.6511 -0.0794 -0.1496
  727MOL0     C98015   7.208   3.966   5.501  0.6055 -0.8764  0.3638
  727MOL0     C98016   7.097   4.049   5.469 -0.1035  0.6554  0.1656
  727MOL0     C98017   7.117   4.166   5.389 -0.1392  0.6104  0.2996
  727MOL0     O98018   7.019   4.256   5.346  0.0995 -0.2433  0.3421
  727MOL0     C98019   6.876   4.246   5.374  0.0241  0.2632  0.3272
  727MOL0     C98020   6.803   4.333   5.282  0.5197  0.3359  0.4297
  727MOL0     C98021   6.649   4.358   5.321 -0.2951  0.9205  0.3585
  727MOL0     C98022   6.571   4.244   5.244  0.3344 -0.7019 -0.9485
  727MOL0     C98023   6.438   4.235   5.311  0.3804  0.8792 -0.0204
  727MOL0     C98024   6.342   4.112   5.285 -0.6405 -0.5448 -0.6770
  727MOL0     C98025   6.230   4.123   5.393 -0.8642  0.3392 -0.0681
  727MOL0     C98026   6.110   4.047   5.331 -0.2940  0.1584 -0.1407
  727MOL0     N98027   6.009   4.026   5.431 -0.6348 -0.1697  0.6819
  727MOL0     C98028   5.972   4.119   5.524 -0.2090 -0.3313  0.0555
  727MOL0     C98029   5.850   4.079   5.579 -0.2032 -0.0612 -0.0456
  727MOL0     C98030   5.773   4.126   5.692  0.5519  1.1175 -0.2684
  727MOL0     C98031   5.629   4.153   5.658  0.4081  0.2008 -1.1235
  727MOL0     C98032   5.547   4.161   5.790 -0.0848 -0.0131  0.0900
  727MOL0     C98033   5.598   4.258   5.889 -0.1487  0.4323  0.0211
  727MOL0     O98034   5.516   4.259   6.001  0.2235 -0.3398  0.5412
  727MOL0     C98035   5.555   4.346   6.101 -0.7273  0.4317 -0.3502
  727MOL0     C98036   5.642   4.459   6.083  0.3536  0.1850 -0.1867
  727MOL0     C98037   5.673   4.537   6.194 -0.1490 -0.4573  0.1136
  727MOL0     C98038   5.767   4.657   6.168 -0.6560  0.0912  0.2852
  727MOL0     C98039   5.618   4.516   6.316  0.0411  0.2458  0.6629
  727MOL0     C98040   5.627   4.603   6.436  0.1444  0.1842 -0.7378
  727MOL0     O98041   5.625   4.547   6.559  1.0514  0.7261 -0.3104
  727MOL0     C98042   5.559   4.604   6.664 -0.3615  0.7081 -1.0748
  727MOL0     C98043   5.440   4.548   6.698  0.4151 -0.0935  0.3181
  727MOL0     C98044   5.370   4.608   6.801 -0.0340 -0.8066 -0.9829
  727MOL0     C98045   5.430   4.720   6.870  0.3426 -0.4965  0.5081
  727MOL0     O98046   5.381   4.785   6.973  0.4710  0.0424 -0.5597
  727MOL0     C98047   5.313   4.703   7.067  0.9754  0.0827  0.3175
  727MOL0     C98048   5.273   4.798   7.175 -0.0866  0.1509 -0.1885
  727MOL0     C98049   5.161   4.725   7.263  0.1902  0.4239  0.8796
  727MOL0     C98050   5.222   4.611   7.343 -0.5343  0.9236 -0.3626
  727MOL0     C98051   5.128   4.573   7.461  0.3997  0.2513 -0.4258
  727MOL0     C98052   5.001   4.497   7.415  0.1542 -0.0087 -0.5618
  727MOL0     C98053   5.038   4.378   7.329  0.5602  0.3883  0.3894
  727MOL0     C98054   4.940   4.272   7.296 -1.0228 -0.7005 -0.7278
  727MOL0    Cl98055   4.860   4.192   7.435 -0.1305 -0.2617  0.2855
  727MOL0     C98056   5.554   4.769   6.836 -0.1992 -0.5836 -0.4907
  727MOL0     C98057   5.619   4.709   6.729  0.4630  0.1529  0.4362
  727MOL0     O98058   5.600   4.725   6.415 -0.0473  0.1122 -0.2631
  727MOL0     C98059   5.541   4.404   6.331  0.5539 -0.0341 -0.1418
  727MOL0     C98060   5.520   4.306   6.227  0.0548 -0.1643  0.1457
  727MOL0     N98061   5.812   3.965   5.504  0.0223 -0.0434  0.9095
  727MOL0     N98062   5.903   3.939   5.412 -0.4120  0.2388 -1.3445
  727MOL0     C98063   7.245   4.198   5.345 -0.9665 -0.0504  0.5612
  727MOL0     C98064   7.351   4.117   5.376  0.7524  0.4708 -0.2965
  727MOL0     C98065   7.575   3.731   5.363  0.1505  0.7907 -0.0680
  727MOL0     C98066   7.651   3.735   5.479  0.4978 -0.4135  0.4808
  727MOL0     C98067   7.759   3.656   5.498  0.5207  0.6221  0.7405
  727MOL0     C98068   7.800   3.572   5.394 -0.2103 -0.6031  0.3409
  727MOL0     O98069   7.917   3.496   5.387  0.0659 -0.3143 -0.1398
  727MOL0     C98070   7.978   3.466   5.519 -0.4887  1.0602  0.3256
  727MOL0     C98071   8.122   3.395   5.491  1.4415 -0.0503  0.2057
  727MOL0     C98072   8.108   3.262   5.421  0.1701 -0.0656 -0.3641
  727MOL0     C98073   8.238   3.208   5.362 -0.1737 -0.5449 -0.2505
  727MOL0     C98074   8.357   3.233   5.440  0.4315  0.2209 -0.6576
  727MOL0     C98075   8.457   3.241   5.500 -0.2153  0.2067 -0.6913
  727MOL0     C98076   7.723   3.561   5.280  0.1239  0.0551  0.1748
  727MOL0     C98077   7.610   3.642   5.263  0.0317  0.0194  0.1243
  727MOL0     H98078   7.199   3.878   5.564 -2.4738 -0.9339 -0.0017
  727MOL0     H98079   7.004   4.004   5.504  0.4372 -1.2057 -0.6805
  727MOL0     H98080   6.849   4.144   5.347  0.2406 -1.0761  4.5039
  727MOL0     H98081   6.847   4.272   5.476 -2.3318  1.8671 -0.6604
  727MOL0     H98082   6.838   4.437   5.281 -2.0713  1.3602 -2.7486
  727MOL0     H98083   6.823   4.309   5.177  3.2128  6.3193 -0.8595
  727MOL0     H98084   6.648   4.339   5.428 -3.2484  0.4559  0.3170
  727MOL0     H98085   6.607   4.455   5.295  0.8316  0.8303 -2.0897
  727MOL0     H98086   6.576   4.267   5.137 -3.2334  0.1462 -1.0881
  727MOL0     H98087   6.613   4.144   5.254  1.3260 -0.2379 -0.3851
  727MOL0     H98088   6.451   4.237   5.419  3.3455  0.3262 -0.2838
  727MOL0     H98089   6.376   4.315   5.270 -0.1622 -1.1553 -3.6529
  727MOL0     H98090   6.292   4.115   5.187 -0.0693  0.7482 -0.9472
  727MOL0     H98091   6.393   4.015   5.286  1.9220  0.6518  3.0029
  727MOL0     H98092   6.256   4.077   5.489 -1.2468  0.1200 -0.0702
  727MOL0     H98093   6.211   4.228   5.416  1.1685  0.9137 -0.8109
  727MOL0     H98094   6.139   3.943   5.312 -4.4694 -0.6870 -3.2427
  727MOL0     H98095   6.071   4.086   5.237  2.5765  0.7127 -1.2014
  727MOL0     H98096   6.034   4.200   5.563 -2.4246  1.2420  0.5376
  727MOL0     H98097   5.781   4.048   5.769 -1.6032 -0.1945 -1.3017
  727MOL0     H98098   5.817   4.216   5.737 -1.2623  2.2374 -0.6501
  727MOL0     H98099   5.590   4.070   5.598  2.7333 -0.6277 -1.5837
  727MOL0     H98100   5.620   4.246   5.600  2.3095  0.4678 -1.0561
  727MOL0     H98101   5.545   4.058   5.826  0.5943 -1.4502 -3.6299
  727MOL0     H98102   5.442   4.182   5.765 -0.4731 -1.2556  0.5700
  727MOL0     H98103   5.602   4.357   5.843  2.1770 -0.3788 -1.6570
  727MOL0     H98104   5.697   4.225   5.921  0.3864  1.0407 -0.9620
  727MOL0     H98105   5.681   4.478   5.984  3.3364 -2.1740  0.3721
  727MOL0     H98106   5.731   4.754   6.203  1.1223  0.5204  1.0129
  727MOL0     H98107   5.866   4.623   6.200 -1.2486 -3.2595 -0.9522
  727MOL0     H98108   5.774   4.664   6.059 -0.6056 -0.7313  0.2276
  727MOL0     H98109   5.397   4.468   6.638 -0.1100  1.5972 -1.7105
  727MOL0     H98110   5.271   4.577   6.833 -0.1963  1.6702  1.2234
  727MOL0     H98111   5.222   4.667   7.019  1.1870  2.6545 -2.2998
  727MOL0     H98112   5.379   4.620   7.094 -0.4446 -0.9804  0.6383
  727MOL0     H98113   5.361   4.824   7.235  0.6198  1.4498 -1.7187
  727MOL0     H98114   5.233   4.890   7.132  3.5920  1.5475 -0.9532
  727MOL0     H98115   5.083   4.693   7.194  0.7014 -0.9671  0.9259
  727MOL0     H98116   5.113   4.793   7.335  1.5155  0.2273  1.9991
  727MOL0     H98117   5.247   4.518   7.291  1.0276  1.5928 -0.8537
  727MOL0     H98118   5.319   4.644   7.381 -1.5008  2.8354  0.5767
  727MOL0     H98119   5.105   4.662   7.519 -2.1554  0.2030 -1.2331
  727MOL0     H98120   5.178   4.498   7.523 -2.6004  0.3216  2.3122
  727MOL0     H98121   4.943   4.464   7.502 -2.7253 -1.4544 -2.8619
  727MOL0     H98122   4.939   4.568   7.360 -1.3494 -1.3031 -0.6164
  727MOL0     H98123   5.121   4.326   7.380  2.3308  0.4710 -2.2012
  727MOL0     H98124   5.083   4.410   7.235 -0.6812 -1.5182 -0.9208
  727MOL0     H98125   4.986   4.200   7.228 -1.4638 -2.5708  0.8430
  727MOL0     H98126   4.864   4.327   7.240  0.7234  1.4462 -1.1214
  727MOL0     H98127   5.597   4.851   6.892  2.4160 -1.3565 -1.2280
  727MOL0     H98128   5.711   4.756   6.698 -0.5065  2.0979  0.3557
  727MOL0     H98129   5.492   4.385   6.426  0.2576  0.3495 -0.2157
  727MOL0     H98130   5.459   4.217   6.218 -3.6911  2.2360 -0.7942
  727MOL0     H98131   7.262   4.287   5.286  2.2874 -0.7442  0.2702
  727MOL0     H98132   7.451   4.148   5.350  1.6269 -0.1373  2.0890
  727MOL0     H98133   7.623   3.790   5.569 -1.4913  0.4328 -0.5788
  727MOL0     H98134   7.827   3.662   5.583 -0.4578 -1.3932  1.7353
  727MOL0     H98135   7.990   3.551   5.586  1.9430 -0.8721  2.5772
  727MOL0     H98136   7.919   3.396   5.579 -0.6833  0.4121 -0.5993
  727MOL0     H98137   8.166   3.381   5.590 -0.6927  1.8912  1.5311
  727MOL0     H98138   8.177   3.471   5.433  1.8866  1.0709  2.0245
  727MOL0     H98139   8.036   3.256   5.339  1.5705  3.0908 -1.9894
  727MOL0     H98140   8.076   3.191   5.498 -3.4832  2.7534  0.9789
  727MOL0     H98141   8.255   3.258   5.266 -1.1249  0.9242  0.3125
  727MOL0     H98142   8.238   3.101   5.343 -1.9418 -0.7094  0.5102
  727MOL0     H98143   8.551   3.231   5.551 -1.6814 -0.6123  2.0960
  727MOL0     H98144   7.751   3.484   5.209  0.1465  1.1551 -1.0582
  727MOL0     H98145   7.535   3.629   5.186  0.8888  0.2997 -0.7711
  728MOL0     O98146   2.235   3.944   1.147  0.0173 -0.1000  0.4599
  728MOL0     C98147   2.282   4.012   1.057 -0.7876  0.7176 -0.6171
  728MOL0     O98148   2.250   4.136   1.028 -0.1683 -0.3655 -0.5043
  728MOL0     C98149   2.158   4.197   1.116 -0.0302 -0.6691  0.1688
  728MOL0     C98150   2.029   4.236   1.066  0.2153  0.2932 -1.0784
  728MOL0     C98151   1.928   4.303   1.145 -0.7645  0.9728 -0.6875
  728MOL0     C98152   1.967   4.334   1.277  0.5892 -0.1337  0.4103
  728MOL0     O98153   1.883   4.394   1.365 -0.0181 -0.3110  0.1297
  728MOL0     C98154   1.852   4.530   1.331  0.9911 -1.3517  0.0536
  728MOL0     C98155   1.750   4.579   1.426  0.2614 -0.3567 -0.7039
  728MOL0     C98156   1.614   4.499   1.413 -0.6140 -0.0725 -0.6584
  728MOL0     C98157   1.504   4.534   1.514 -0.5543  1.1298 -0.2907
  728MOL0     C98158   1.389   4.436   1.497 -0.0712 -0.4140  0.7966
  728MOL0     C98159   1.269   4.465   1.589 -0.6496  0.9247 -0.0100
  728MOL0     C98160   1.147   4.376   1.555  0.9692  0.7851  0.0027
  728MOL0     C98161   1.016   4.428   1.619 -0.1565  0.4447  0.6916
  728MOL0     N98162   0.896   4.368   1.552 -0.2659 -0.0321 -0.8754
  728MOL0     C98163   0.842   4.251   1.588 -0.4698  0.8951  0.9554
  728MOL0     C98164   0.722   4.246   1.521 -0.0740  0.0992 -0.8823
  728MOL0     C98165   0.626   4.132   1.535  0.9459  0.0491  0.6985
  728MOL0     C98166   0.655   4.014   1.448 -0.0995  0.1942  0.7619
  728MOL0     C98167   0.618   4.018   1.299 -0.2794  0.0622  0.3057
  728MOL0     C98168   0.473   4.009   1.266  0.4079  0.1480 -0.6745
  728MOL0     O98169   0.427   3.874   1.292 -0.5258  0.3327 -0.0045
  728MOL0     C98170   0.290   3.849   1.283  0.1700 -0.5510  0.3162
  728MOL0     C98171   0.201   3.937   1.225  0.0932  0.2770 -0.1248
  728MOL0     C98172   0.064   3.907   1.204  0.4313  0.4569  0.4759
  728MOL0     C98173  -0.029   4.013   1.151 -1.1207  0.2833 -0.6598
  728MOL0     C98174   0.016   3.778   1.239  0.1461 -0.4680  0.3051
  728MOL0     C98175  -0.127   3.731   1.226  0.4370 -0.3456 -0.0030
  728MOL0     O98176  -0.154   3.598   1.264  1.0707 -0.0760 -0.1427
  728MOL0     C98177  -0.286   3.564   1.275 -0.3346  0.1506  0.4967
  728MOL0     C98178  -0.371   3.589   1.386  1.1238 -0.2414  0.5761
  728MOL0     C98179  -0.504   3.540   1.382 -0.1489  0.5858 -0.4520
  728MOL0     C98180  -0.562   3.477   1.276 -0.0475 -0.7945 -0.2630
  728MOL0     O98181  -0.688   3.439   1.291  0.8916 -1.2934 -0.1546
  728MOL0     C98182  -0.743   3.369   1.181  0.4810 -0.4426  0.0052
  728MOL0     C98183  -0.695   3.224   1.163  0.5106 -0.4197  1.2114
  728MOL0     C98184  -0.785   3.165   1.050 -0.8210  0.0353 -0.8615
  728MOL0     C98185  -0.897   3.078   1.109  0.4350  0.8600  0.1394
  728MOL0     C98186  -1.016   3.156   1.168 -0.4364 -0.2588  0.7967
  728MOL0     C98187  -1.147   3.078   1.168 -1.1134  0.1992 -0.2261
  728MOL0     C98188  -1.139   2.936   1.212 -0.4021  0.6007  0.4938
  728MOL0     C98189  -1.272   2.867   1.233 -0.4214  0.4758 -0.1587
  728MOL0    Cl98190  -1.316   2.906   1.401 -0.4661  0.1051 -0.1680
  728MOL0     C98191  -0.480   3.474   1.161  0.5049 -0.6114  0.6176
  728MOL0     C98192  -0.342   3.515   1.162 -0.4896  0.0206  0.2873
  728MOL0     O98193  -0.215   3.813   1.172 -0.4009  0.0913 -0.1574
  728MOL0     C98194   0.112   3.692   1.289 -0.6149 -0.5635 -1.0826
  728MOL0     C98195   0.242   3.722   1.325  0.4932 -0.0862 -0.0852
  728MOL0     N98196   0.692   4.367   1.460 -0.0900 -0.0716 -0.4832
  728MOL0     N98197   0.807   4.437   1.476  0.0962 -0.7447  0.5059
  728MOL0     C98198   2.091   4.304   1.328  0.0341 -1.1779  0.1790
  728MOL0     C98199   2.186   4.233   1.246  0.4035 -0.4141 -0.4862
  728MOL0     C98200   2.369   3.941   0.960  0.5645  0.0363  1.1409
  728MOL0     C98201   2.449   4.010   0.868 -0.2782 -1.1652 -0.2456
  728MOL0     C98202   2.516   3.940   0.767 -0.0011  0.7472 -0.3673
  728MOL0     C98203   2.505   3.800   0.764 -0.0913 -0.3174  0.7421
  728MOL0     O98204   2.561   3.721   0.669  0.2596  0.2510 -0.0572
  728MOL0     C98205   2.697   3.753   0.636  0.5237 -0.5935  0.1930
  728MOL0     C98206   2.783   3.647   0.681  0.5142  0.3253 -0.8548
  728MOL0     C98207   2.785   3.528   0.588  0.4216  0.2229  0.7329
  728MOL0     C98208   2.892   3.427   0.628 -0.5359 -0.5284 -0.0841
  728MOL0     C98209   2.929   3.319   0.527  0.3564 -0.4691  0.1685
  728MOL0     C98210   2.979   3.252   0.442 -0.0456  0.9898 -0.2532
  728MOL0     C98211   2.412   3.742   0.854  0.0557  0.1538 -0.2649
  728MOL0     C98212   2.332   3.810   0.940 -0.4942 -0.3630  0.9829
  728MOL0     H98213   1.999   4.208   0.965  0.7077  0.0631 -1.1622
  728MOL0     H98214   1.828   4.333   1.115 -2.1950 -2.8603 -0.2697
  728MOL0     H98215   1.942   4.592   1.329 -0.1807  0.3991 -0.8581
  728MOL0     H98216   1.824   4.548   1.227 -0.0651  2.3971  0.8432
  728MOL0     H98217   1.795   4.564   1.524  1.2571 -0.5314 -1.1715
  728MOL0     H98218   1.741   4.687   1.409  1.5982 -0.2941 -1.1022
  728MOL0     H98219   1.577   4.520   1.312  2.6794 -0.1570 -2.0025
  728MOL0     H98220   1.630   4.391   1.421 -1.6404 -0.2928 -1.3858
  728MOL0     H98221   1.541   4.520   1.616 -0.0489 -2.5102 -0.8467
  728MOL0     H98222   1.478   4.639   1.498 -2.2648  1.1060  1.9654
  728MOL0     H98223   1.360   4.436   1.392  1.6515 -0.7796  0.2885
  728MOL0     H98224   1.426   4.336   1.519 -1.6308 -1.5637 -1.4886
  728MOL0     H98225   1.307   4.430   1.685 -1.5441 -1.9722 -0.6190
  728MOL0     H98226   1.237   4.569   1.578  0.2855  1.1421 -0.8835
  728MOL0     H98227   1.129   4.374   1.447 -0.2394  0.0920  0.2008
  728MOL0     H98228   1.164   4.275   1.592 -2.9917 -0.8674 -2.1156
  728MOL0     H98229   1.025   4.536   1.599 -1.3679  0.2754 -1.0058
  728MOL0     H98230   1.019   4.400   1.724  1.1644  0.9896  0.8208
  728MOL0     H98231   0.882   4.170   1.648 -1.8477  0.5011  1.3988
  728MOL0     H98232   0.613   4.100   1.639 -0.0931 -0.5496  0.3977
  728MOL0     H98233   0.527   4.171   1.509  0.4036 -1.9485 -0.4178
  728MOL0     H98234   0.600   3.929   1.491  0.3992  0.3169  1.6674
  728MOL0     H98235   0.756   3.982   1.473 -0.3117 -0.9825  0.1658
  728MOL0     H98236   0.669   3.932   1.255  1.3315 -0.0503  2.2440
  728MOL0     H98237   0.654   4.115   1.262  2.8514 -1.0996 -0.0162
  728MOL0     H98238   0.462   4.027   1.159 -1.0340 -0.2265 -0.6138
  728MOL0     H98239   0.424   4.087   1.325 -0.4363 -1.3862  0.7539
  728MOL0     H98240   0.227   4.039   1.198 -1.0089  0.1822 -1.7125
  728MOL0     H98241  -0.110   4.042   1.218  1.2308  2.5308  1.4448
  728MOL0     H98242   0.029   4.106   1.140 -1.3649  0.6895  1.2011
  728MOL0     H98243  -0.080   3.994   1.056 -3.0118  1.4579  0.0836
  728MOL0     H98244  -0.329   3.629   1.477 -1.9231  1.7127  1.2837
  728MOL0     H98245  -0.563   3.553   1.472 -0.0608  0.4132 -0.3676
  728MOL0     H98246  -0.851   3.360   1.199  0.3886 -0.5184 -0.5930
  728MOL0     H98247  -0.732   3.427   1.089 -2.5170 -2.9077 -2.1259
  728MOL0     H98248  -0.587   3.218   1.147  0.5034  3.6015 -1.8753
  728MOL0     H98249  -0.716   3.169   1.256  1.4958 -3.8854 -0.4575
  728MOL0     H98250  -0.733   3.098   0.981 -1.2677  1.4659 -2.6371
  728MOL0     H98251  -0.824   3.246   0.988 -2.1249 -1.4107 -1.9961
  728MOL0     H98252  -0.931   3.019   1.023 -2.5628 -1.2467  2.5513
  728MOL0     H98253  -0.870   3.000   1.181 -1.5812 -0.6382 -0.6389
  728MOL0     H98254  -1.036   3.248   1.112 -0.8918 -2.1315 -2.3595
  728MOL0     H98255  -0.986   3.194   1.266  0.8214 -3.8016  1.9092
  728MOL0     H98256  -1.229   3.127   1.221 -1.1625  0.4260 -0.5063
  728MOL0     H98257  -1.189   3.088   1.067 -0.5312  0.8993 -0.4015
  728MOL0     H98258  -1.077   2.943   1.302  0.0649  1.3905  0.1246
  728MOL0     H98259  -1.078   2.878   1.142  0.9844 -0.5153  2.5356
  728MOL0     H98260  -1.283   2.760   1.213  2.5013  0.6658 -3.9046
  728MOL0     H98261  -1.344   2.913   1.165  1.0150 -0.1628 -2.1990
  728MOL0     H98262  -0.524   3.424   1.075  0.0711  0.9410 -0.1147
  728MOL0     H98263  -0.286   3.520   1.070  1.2066  1.5028  1.3424
  728MOL0     H98264   0.068   3.599   1.323 -4.4208  1.6201  0.5225
  728MOL0     H98265   0.309   3.652   1.375 -1.2520 -0.9105  1.2073
  728MOL0     H98266   2.112   4.328   1.431 -0.6215 -0.7479  0.2166
  728MOL0     H98267   2.284   4.210   1.286 -0.7558  0.3157  3.1467
  728MOL0     H98268   2.449   4.118   0.853 -2.5571 -1.0438  0.2632
  728MOL0     H98269   2.577   3.990   0.693 -0.5340  3.4911  0.9424
  728MOL0     H98270   2.715   3.768   0.529 -0.0777 -0.2641  0.1344
  728MOL0     H98271   2.733   3.842   0.690  3.6742  0.0773 -2.6616
  728MOL0     H98272   2.748   3.626   0.782  0.4697  2.0861 -0.4653
  728MOL0     H98273   2.889   3.677   0.680  1.2611 -2.0932 -1.0579
  728MOL0     H98274   2.809   3.565   0.488  0.2217  0.7449  0.8752
  728MOL0     H98275   2.686   3.483   0.576  0.1224  1.3956 -1.6637
  728MOL0     H98276   2.858   3.389   0.725 -1.7464  3.2118  1.1385
  728MOL0     H98277   2.979   3.490   0.647 -1.1112 -0.1857  1.6672
  728MOL0     H98278   3.025   3.197   0.363  0.0646  1.6476 -0.6616
  728MOL0     H98279   2.393   3.636   0.843  1.9624 -0.4638  1.7262
  728MOL0     H98280   2.259   3.747   0.990 -0.1613 -3.5488 -2.1934
  729MOL0     O98281   7.017  11.039  10.420 -1.1112 -0.8241  0.5754
  729MOL0     C98282   6.987  11.152  10.459 -0.4789 -0.2288 -0.0800
  729MOL0     O98283   6.985  11.262  10.376 -0.6499 -0.4039 -0.1116
  729MOL0     C98284   7.035  11.246  10.248  0.4906 -0.2463 -1.4010
  729MOL0     C98285   7.154  11.304  10.221 -0.4372  0.7706  1.1595
  729MOL0     C98286   7.204  11.295  10.088  0.6491  0.0260  0.1813
  729MOL0     C98287   7.134  11.226   9.986  0.6024 -0.0104  0.0531
  729MOL0     O98288   7.186  11.217   9.858  0.9288 -0.5121  0.3153
  729MOL0     C98289   7.155  11.340   9.789 -0.6154  1.1858 -0.0938
  729MOL0     C98290   7.035  11.313   9.699  0.5756 -0.2436 -0.3909
  729MOL0     C98291   7.064  11.224   9.583  0.2868  1.0057 -0.2672
  729MOL0     C98292   7.122  11.311   9.469 -0.1510  0.1574 -1.0563
  729MOL0     C98293   7.168  11.238   9.345  0.6944 -0.8942  0.5022
  729MOL0     C98294   7.213  11.336   9.233  0.5912 -0.2599  0.1035
  729MOL0     C98295   7.231  11.274   9.101  0.5009  0.0032 -0.0922
  729MOL0     C98296   7.334  11.163   9.096 -0.2623  0.9094  0.2080
  729MOL0     N98297   7.359  11.120   8.965 -0.2709 -0.5986  0.6588
  729MOL0     C98298   7.456  11.192   8.895  0.2643 -0.3111  0.9899
  729MOL0     C98299   7.471  11.122   8.778  0.6578 -1.0957  0.1165
  729MOL0     C98300   7.582  11.145   8.685  0.1180  0.5769 -0.1873
  729MOL0     C98301   7.539  11.230   8.560 -0.0542  1.4762 -0.2426
  729MOL0     C98302   7.431  11.176   8.462  0.4318  0.4666  0.0787
  729MOL0     C98303   7.413  11.269   8.335  1.1747 -0.1749 -0.4000
  729MOL0     O98304   7.366  11.400   8.373 -0.2242  0.1519  0.0453
  729MOL0     C98305   7.224  11.410   8.389  0.8048 -2.3804  0.0851
  729MOL0     C98306   7.153  11.370   8.498 -0.4720  0.2284 -0.2688
  729MOL0     C98307   7.013  11.389   8.510 -0.3259  0.0265 -0.5121
  729MOL0     C98308   6.953  11.346   8.638  0.2714  0.4097 -0.5405
  729MOL0     C98309   6.936  11.430   8.401  0.0968 -0.5661  0.2164
  729MOL0     C98310   6.785  11.451   8.402 -1.0202 -0.0033  0.6202
  729MOL0     O98311   6.730  11.457   8.276  0.0504 -1.1450 -0.5335
  729MOL0     C98312   6.595  11.506   8.279 -0.2738  0.3443  0.6842
  729MOL0     C98313   6.565  11.639   8.314  0.1053  0.0919  1.3272
  729MOL0     C98314   6.439  11.688   8.317  0.5223  0.4298 -0.5584
  729MOL0     C98315   6.328  11.614   8.270  0.2711 -0.1086  0.7516
  729MOL0     O98316   6.203  11.676   8.247 -0.1541  0.8988 -0.6678
  729MOL0     C98317   6.165  11.785   8.336 -0.1706  0.1117  0.6263
  729MOL0     C98318   6.018  11.816   8.326  0.5939 -0.7712 -0.0602
  729MOL0     C98319   5.963  11.919   8.432  0.1502  0.1269 -0.4082
  729MOL0     C98320   5.978  11.863   8.571  0.0784 -0.6983  0.7945
  729MOL0     C98321   5.888  11.934   8.670  0.7654  0.5519  0.0632
  729MOL0     C98322   5.874  11.840   8.792 -0.2365 -0.2325  0.1866
  729MOL0     C98323   5.760  11.745   8.775  0.2272  0.9298 -0.7977
  729MOL0     C98324   5.754  11.636   8.894  0.4057 -0.4260 -0.3651
  729MOL0    Cl98325   5.605  11.537   8.891 -0.0511 -0.0117 -0.1670
  729MOL0     C98326   6.353  11.480   8.235  0.1340  0.4656 -0.3432
  729MOL0     C98327   6.486  11.426   8.247 -0.6011 -0.3081  0.2210
  729MOL0     O98328   6.722  11.471   8.504 -0.1133 -0.1227 -0.1551
  729MOL0     C98329   7.013  11.477   8.292  0.1202 -0.4608 -0.1256
  729MOL0     C98330   7.152  11.470   8.293  0.3425 -0.3818  0.3945
  729MOL0     N98331   7.394  11.004   8.788  0.5757  0.0753  0.2803
  729MOL0     N98332   7.322  11.001   8.900 -0.2283 -0.8670  0.0878
  729MOL0     C98333   7.016  11.154  10.022  0.5703 -0.4207 -0.6022
  729MOL0     C98334   6.967  11.174  10.152  0.7623  0.3113  0.4220
  729MOL0     C98335   6.949  11.165  10.600  0.4884 -0.0854 -0.8618
  729MOL0     C98336   6.977  11.066  10.701 -0.7283  0.2625  0.8581
  729MOL0     C98337   6.941  11.069  10.834  0.8785  0.4519 -0.4102
  729MOL0     C98338   6.882  11.186  10.886 -0.5031  0.5400  1.0197
  729MOL0     O98339   6.871  11.189  11.025 -0.3457  0.4054  0.2681
  729MOL0     C98340   6.784  11.288  11.075  0.0310  0.6580 -0.9959
  729MOL0     C98341   6.771  11.271  11.227 -0.1158  0.3024 -1.0728
  729MOL0     C98342   6.892  11.334  11.290  1.1240 -0.2972 -0.5606
  729MOL0     C98343   6.866  11.330  11.449  0.1264  0.1461 -0.1569
  729MOL0     C98344   6.974  11.406  11.516  0.5385 -0.0677  0.1945
  729MOL0     C98345   7.036  11.487  11.589 -0.3236  0.4907 -1.0098
  729MOL0     C98346   6.848  11.284  10.788 -1.3242 -0.7318  0.1821
  729MOL0     C98347   6.876  11.278  10.643  0.5100  1.0989 -1.3467
  729MOL0     H98348   7.212  11.367  10.288  0.7243  1.0367 -0.0497
  729MOL0     H98349   7.301  11.336  10.063  0.8748 -1.1970 -1.0448
  729MOL0     H98350   7.153  11.424   9.858  0.2651  1.9643 -0.9723
  729MOL0     H98351   7.236  11.364   9.719  0.9813  1.4317  1.7785
  729MOL0     H98352   6.963  11.271   9.771  4.0349 -0.4979  3.3028
  729MOL0     H98353   6.992  11.401   9.653 -0.5849 -0.7453 -0.2928
  729MOL0     H98354   7.135  11.147   9.613 -0.3853  1.3405  2.4142
  729MOL0     H98355   6.970  11.176   9.554  0.3960  1.8252 -2.1504
  729MOL0     H98356   7.052  11.392   9.444  1.1069  1.7794  0.4057
  729MOL0     H98357   7.203  11.373   9.509  1.4357 -2.5830  0.2841
  729MOL0     H98358   7.256  11.175   9.363  1.1937 -0.2427  0.3775
  729MOL0     H98359   7.086  11.170   9.319 -2.6824  1.3104  4.2834
  729MOL0     H98360   7.146  11.422   9.223  2.1663  1.3050  2.0912
  729MOL0     H98361   7.303  11.383   9.273  0.0020  0.4917  0.5741
  729MOL0     H98362   7.133  11.252   9.059  1.4085 -0.0054 -2.3687
  729MOL0     H98363   7.279  11.355   9.044  1.5054 -0.1716  0.4854
  729MOL0     H98364   7.297  11.076   9.151  4.9862 -1.6990  0.2249
  729MOL0     H98365   7.433  11.178   9.141  0.5437 -1.2722 -0.6665
  729MOL0     H98366   7.500  11.283   8.933 -0.8037  0.5979  0.1087
  729MOL0     H98367   7.673  11.189   8.726  2.5133 -0.8056 -3.6179
  729MOL0     H98368   7.609  11.046   8.648  0.0948  2.1596 -5.0693
  729MOL0     H98369   7.629  11.260   8.505  2.0125 -0.9642  1.5918
  729MOL0     H98370   7.492  11.320   8.600 -1.2327  1.7657 -2.1468
  729MOL0     H98371   7.333  11.172   8.511  1.3692 -0.4598  2.0070
  729MOL0     H98372   7.466  11.079   8.426 -1.5549  0.3197 -1.6730
  729MOL0     H98373   7.333  11.220   8.278  1.0380 -1.5727  0.9229
  729MOL0     H98374   7.503  11.276   8.273 -0.4885  0.7763 -2.8608
  729MOL0     H98375   7.221  11.327   8.571  0.7244 -0.6702 -1.8397
  729MOL0     H98376   6.904  11.431   8.685 -1.9762 -1.0369 -0.0817
  729MOL0     H98377   6.871  11.277   8.615 -0.8735  1.4596  0.2216
  729MOL0     H98378   7.017  11.304   8.716  0.5198  1.0297 -0.4060
  729MOL0     H98379   6.644  11.697   8.362 -0.2730  1.1291  0.7300
  729MOL0     H98380   6.424  11.785   8.362  0.0145 -1.5352  4.1133
  729MOL0     H98381   6.195  11.757   8.438 -0.8910  1.4264  1.2305
  729MOL0     H98382   6.217  11.877   8.309  2.6589 -0.4938  3.3865
  729MOL0     H98383   5.995  11.848   8.224  2.1359  1.2954  0.1624
  729MOL0     H98384   5.944  11.736   8.335  0.8301 -1.0952 -0.9019
  729MOL0     H98385   5.857  11.931   8.409  0.4148 -1.3663 -2.7060
  729MOL0     H98386   6.023  12.011   8.429 -1.5033  1.2516  0.0484
  729MOL0     H98387   5.952  11.757   8.565 -0.6214 -0.4789 -0.2431
  729MOL0     H98388   6.082  11.885   8.598 -0.0357  2.6866 -0.9483
  729MOL0     H98389   5.791  11.967   8.630  0.0563  0.3565  1.5453
  729MOL0     H98390   5.938  12.028   8.695 -0.1119  1.1692 -0.3851
  729MOL0     H98391   5.970  11.791   8.808 -0.7123 -2.5717 -3.0654
  729MOL0     H98392   5.854  11.902   8.880 -0.9837  1.0947 -0.8717
  729MOL0     H98393   5.753  11.697   8.677 -1.6541  4.5796 -2.6823
  729MOL0     H98394   5.669  11.804   8.794  2.3365  3.6272  1.8918
  729MOL0     H98395   5.754  11.690   8.990  0.8136 -1.1991  0.0780
  729MOL0     H98396   5.840  11.569   8.886  0.3948 -0.2217 -2.9454
  729MOL0     H98397   6.277  11.415   8.192  1.7591 -1.6340 -0.2123
  729MOL0     H98398   6.509  11.321   8.233  1.6749 -0.2986  3.0578
  729MOL0     H98399   6.954  11.509   8.206  0.8466 -0.7929 -0.7548
  729MOL0     H98400   7.213  11.501   8.209  3.0994 -1.3709  1.8691
  729MOL0     H98401   6.961  11.097   9.947 -4.9095 -0.5095  2.8731
  729MOL0     H98402   6.866  11.141  10.173  1.4520 -1.3876  1.2359
  729MOL0     H98403   7.034  10.978  10.675 -0.0375  0.5334  1.4377
  729MOL0     H98404   6.964  10.983  10.895  2.8672 -1.6182 -3.7578
  729MOL0     H98405   6.813  11.392  11.056  0.9060  0.3744 -1.2645
  729MOL0     H98406   6.687  11.269  11.028  0.3047 -0.3030 -1.1822
  729MOL0     H98407   6.768  11.167  11.262  1.0595  0.9765  1.2752
  729MOL0     H98408   6.681  11.322  11.263 -0.5473 -0.6715 -0.7224
  729MOL0     H98409   6.914  11.436  11.256  0.8596  1.3852  3.6770
  729MOL0     H98410   6.981  11.277  11.263  1.1605 -2.2357  3.0400
  729MOL0     H98411   6.871  11.226  11.481  1.6490  0.4317  0.5854
  729MOL0     H98412   6.768  11.375  11.471  0.2967  0.4453 -0.0162
  729MOL0     H98413   7.072  11.560  11.659 -0.1790  1.2711 -1.8805
  729MOL0     H98414   6.790  11.370  10.820  0.1717  0.4962 -0.2625
  729MOL0     H98415   6.858  11.360  10.573  2.2257  0.6695 -2.3570
  730MOL0     O98416   4.827   5.537   0.605  0.5222  0.3615 -0.3921
  730MOL0     C98417   4.826   5.515   0.487 -0.2388 -0.2503  0.4887
  730MOL0     O98418   4.710   5.506   0.411 -0.2717 -0.3888  0.4923
  730MOL0     C98419   4.591   5.540   0.467 -0.2158  0.9981 -0.2113
  730MOL0     C98420   4.577   5.647   0.554 -0.1491  0.0042 -0.2573
  730MOL0     C98421   4.452   5.672   0.607  0.0807  0.3263  0.5332
  730MOL0     C98422   4.341   5.604   0.567  0.1485  0.0774 -0.7937
  730MOL0     O98423   4.214   5.642   0.592 -0.3080 -0.0407  0.9332
  730MOL0     C98424   4.186   5.749   0.676 -0.3217 -0.7891 -0.2614
  730MOL0     C98425   4.175   5.711   0.817 -0.4182 -0.7820 -0.5116
  730MOL0     C98426   4.099   5.811   0.911  0.1880  0.1261  0.3461
  730MOL0     C98427   3.948   5.795   0.892  1.3063  1.0452  0.0987
  730MOL0     C98428   3.874   5.927   0.915 -0.8077  0.1243  0.3036
  730MOL0     C98429   3.728   5.901   0.895  0.2931 -0.8397  0.1540
  730MOL0     C98430   3.636   6.037   0.915 -0.1004  0.1704 -0.4831
  730MOL0     C98431   3.495   6.028   0.851 -0.5475  0.1804  0.8964
  730MOL0     N98432   3.424   6.155   0.836 -0.4401 -0.1690  0.5627
  730MOL0     C98433   3.387   6.236   0.934  0.1711 -0.8368 -0.5755
  730MOL0     C98434   3.353   6.348   0.870  0.6234  0.8375 -0.5402
  730MOL0     C98435   3.328   6.489   0.934  0.2325  0.1472  0.1229
  730MOL0     C98436   3.255   6.478   1.062  0.3263  0.0828 -0.6478
  730MOL0     C98437   3.110   6.426   1.066  0.2018  0.0732 -0.1788
  730MOL0     C98438   3.058   6.416   1.209  0.9998 -0.4689  0.1551
  730MOL0     O98439   2.916   6.423   1.204  0.9586 -0.1363  0.4330
  730MOL0     C98440   2.851   6.397   1.327  0.3702 -0.1471 -0.1265
  730MOL0     C98441   2.711   6.372   1.308  0.2500 -0.2544 -0.4167
  730MOL0     C98442   2.632   6.350   1.421  0.4159 -0.6460  0.2803
  730MOL0     C98443   2.481   6.328   1.399 -0.8124 -0.3154 -0.8543
  730MOL0     C98444   2.686   6.365   1.555  0.5378 -0.6066 -0.3926
  730MOL0     C98445   2.603   6.342   1.677  0.4933 -0.0483  0.6326
  730MOL0     O98446   2.650   6.417   1.784  0.8634  0.1313 -0.0784
  730MOL0     C98447   2.605   6.381   1.909  0.0258  1.2830  1.0357
  730MOL0     C98448   2.551   6.473   2.002 -0.4751 -0.4138 -0.1143
  730MOL0     C98449   2.498   6.430   2.123  0.1378 -0.6098 -0.5206
  730MOL0     C98450   2.504   6.305   2.164  0.7736  0.2650 -0.3648
  730MOL0     O98451   2.447   6.256   2.283 -0.1247 -0.0716  0.1793
  730MOL0     C98452   2.318   6.302   2.324  0.5334 -0.7440  0.1412
  730MOL0     C98453   2.257   6.199   2.408  0.7866  0.5347  0.6619
  730MOL0     C98454   2.109   6.156   2.376 -1.5538 -0.0522 -0.1452
  730MOL0     C98455   2.022   6.272   2.408 -0.0383  0.5788 -0.1828
  730MOL0     C98456   1.878   6.234   2.390 -0.8463  0.8161 -0.0484
  730MOL0     C98457   1.789   6.349   2.451 -0.1811  0.2054 -0.0530
  730MOL0     C98458   1.646   6.290   2.428  0.2534 -0.7352 -0.2509
  730MOL0     C98459   1.604   6.297   2.282 -0.7191  0.0571 -1.0919
  730MOL0    Cl98460   1.607   6.459   2.208 -0.2263 -0.2185  0.2242
  730MOL0     C98461   2.565   6.206   2.083 -0.3135 -0.4157 -0.2210
  730MOL0     C98462   2.614   6.242   1.960 -0.4693  0.2350 -0.2050
  730MOL0     O98463   2.537   6.231   1.681 -0.9048 -0.6291  0.6229
  730MOL0     C98464   2.828   6.391   1.564  0.3504 -0.3611 -0.6671
  730MOL0     C98465   2.909   6.383   1.452 -0.7828  0.0544 -0.8407
  730MOL0     N98466   3.365   6.326   0.732  0.1105 -1.0939  0.1327
  730MOL0     N98467   3.411   6.207   0.712 -0.1680 -0.5585 -0.1331
  730MOL0     C98468   4.355   5.498   0.480  0.2771 -0.2256  0.8450
  730MOL0     C98469   4.482   5.450   0.437 -0.2751  0.3581  0.4401
  730MOL0     C98470   4.952   5.507   0.410 -0.6478  0.0600  0.5167
  730MOL0     C98471   4.966   5.538   0.275 -0.8736  0.0232  0.4881
  730MOL0     C98472   5.082   5.521   0.204 -0.2777 -0.3507 -0.0126
  730MOL0     C98473   5.196   5.471   0.264  0.0379 -1.0409 -0.3737
  730MOL0     O98474   5.304   5.426   0.189 -0.3101  0.5481 -0.3982
  730MOL0     C98475   5.347   5.513   0.084  0.4517  0.0501  0.1211
  730MOL0     C98476   5.466   5.457   0.016 -0.6318  0.3020  0.3448
  730MOL0     C98477   5.512   5.547  -0.100 -0.5633 -0.2086  0.8162
  730MOL0     C98478   5.653   5.517  -0.152 -0.0367  0.2843 -0.8363
  730MOL0     C98479   5.758   5.543  -0.048  0.2290  0.2150  1.2397
  730MOL0     C98480   5.834   5.574   0.039 -0.6315 -0.1463 -0.2599
  730MOL0     C98481   5.195   5.459   0.402 -0.3776  0.2544  0.1877
  730MOL0     C98482   5.079   5.476   0.475  0.4821 -0.1617  0.6116
  730MOL0     H98483   4.654   5.715   0.588  0.4555 -0.2579 -1.0546
  730MOL0     H98484   4.447   5.751   0.681  0.7814  0.7659  0.1257
  730MOL0     H98485   4.255   5.834   0.670  0.2509 -0.9422  2.6382
  730MOL0     H98486   4.093   5.795   0.642  2.1579  3.8574 -1.6621
  730MOL0     H98487   4.134   5.611   0.832 -2.0457  0.0317  0.7367
  730MOL0     H98488   4.276   5.706   0.860  0.8535  1.5134 -2.9439
  730MOL0     H98489   4.118   5.796   1.018  1.1212 -1.2919  0.0169
  730MOL0     H98490   4.134   5.911   0.883 -0.2988  0.0370 -0.6419
  730MOL0     H98491   3.936   5.760   0.789  0.7583  1.5480 -0.0153
  730MOL0     H98492   3.905   5.718   0.956  1.2781 -0.5359 -1.6975
  730MOL0     H98493   3.898   5.962   1.016 -0.2173 -3.6383  1.6249
  730MOL0     H98494   3.905   6.007   0.848  4.3270 -0.3432  1.6972
  730MOL0     H98495   3.721   5.859   0.794 -0.3270 -0.9660  0.2455
  730MOL0     H98496   3.682   5.835   0.969 -0.4832  0.6623  1.0341
  730MOL0     H98497   3.629   6.059   1.021  1.0680  0.9873 -0.5601
  730MOL0     H98498   3.696   6.117   0.871  1.3640  0.7369  2.3639
  730MOL0     H98499   3.426   5.970   0.913  1.1574 -1.7654  1.0895
  730MOL0     H98500   3.505   5.981   0.753 -1.2275  2.1394 -0.1602
  730MOL0     H98501   3.409   6.228   1.040  0.2683  1.0777 -0.4213
  730MOL0     H98502   3.419   6.549   0.947 -1.3835  2.6481  0.6420
  730MOL0     H98503   3.260   6.551   0.874  0.9125  0.4617 -0.3498
  730MOL0     H98504   3.245   6.577   1.108  1.5532 -1.1813  2.6139
  730MOL0     H98505   3.318   6.421   1.131  0.5431  3.5637  2.3355
  730MOL0     H98506   3.100   6.333   1.009  1.9217 -0.9974  1.1867
  730MOL0     H98507   3.031   6.482   1.013 -0.7666 -0.5351  0.5919
  730MOL0     H98508   3.093   6.496   1.275 -0.8830 -0.8790  1.7668
  730MOL0     H98509   3.104   6.327   1.253 -0.8977 -0.7255  1.7842
  730MOL0     H98510   2.662   6.372   1.211 -0.5222 -0.7107 -0.0336
  730MOL0     H98511   2.458   6.223   1.422 -1.1397  0.1995  1.4938
  730MOL0     H98512   2.419   6.392   1.462 -0.8296 -1.8051  0.7320
  730MOL0     H98513   2.447   6.353   1.298 -0.5610  1.0275 -0.6251
  730MOL0     H98514   2.557   6.578   1.978 -0.6354 -0.0686  1.2934
  730MOL0     H98515   2.472   6.509   2.194 -0.5312 -0.0763 -1.3413
  730MOL0     H98516   2.320   6.401   2.369 -0.5493 -0.1718 -1.0096
  730MOL0     H98517   2.255   6.314   2.235  0.9657 -2.3524 -0.4290
  730MOL0     H98518   2.323   6.114   2.385 -0.5109  0.1639 -2.1618
  730MOL0     H98519   2.260   6.231   2.512  0.0988 -1.8841  1.4809
  730MOL0     H98520   2.084   6.067   2.435 -0.1575 -1.1663 -1.1571
  730MOL0     H98521   2.086   6.120   2.276 -0.0621  1.9311 -1.2725
  730MOL0     H98522   2.052   6.296   2.510 -0.3995 -0.2621  0.1327
  730MOL0     H98523   2.037   6.356   2.339  3.4954 -0.4367 -0.8244
  730MOL0     H98524   1.865   6.136   2.437  4.6928 -1.6217 -2.7125
  730MOL0     H98525   1.855   6.207   2.286  1.5903  0.4583 -0.5438
  730MOL0     H98526   1.806   6.362   2.558 -0.4456 -0.1150  0.0312
  730MOL0     H98527   1.805   6.446   2.405  2.6630  0.5696  1.5205
  730MOL0     H98528   1.577   6.358   2.478  0.9126 -0.2776  0.0537
  730MOL0     H98529   1.636   6.189   2.469 -2.1671  0.6478  3.0185
  730MOL0     H98530   1.499   6.274   2.267 -0.0794 -3.0909 -1.3552
  730MOL0     H98531   1.659   6.229   2.217 -0.3869 -0.3408 -0.4070
  730MOL0     H98532   2.574   6.105   2.120 -0.0076 -0.0098  0.8841
  730MOL0     H98533   2.664   6.161   1.907  0.3655  1.1586 -0.8572
  730MOL0     H98534   2.872   6.415   1.660 -0.7727 -0.9434  0.0117
  730MOL0     H98535   3.016   6.385   1.470 -0.5508  0.5136 -2.1483
  730MOL0     H98536   4.266   5.454   0.436  1.2259 -2.3043  0.9077
  730MOL0     H98537   4.494   5.367   0.368 -2.6502  2.3702 -2.6705
  730MOL0     H98538   4.876   5.579   0.230 -1.8008 -1.2228  1.1415
  730MOL0     H98539   5.077   5.555   0.101 -2.7331  3.4247  1.1209
  730MOL0     H98540   5.269   5.528   0.008  1.9552  3.0758 -0.9596
  730MOL0     H98541   5.371   5.610   0.128  3.3420 -1.7086  2.7392
  730MOL0     H98542   5.441   5.357  -0.020  2.3380 -0.1970 -0.6403
  730MOL0     H98543   5.542   5.453   0.095  0.1582  0.1368 -0.4121
  730MOL0     H98544   5.502   5.654  -0.079 -0.3989 -0.1579  0.6308
  730MOL0     H98545   5.444   5.527  -0.184 -0.6685 -0.3873  0.9424
  730MOL0     H98546   5.672   5.575  -0.243 -0.2225  0.3435 -0.8378
  730MOL0     H98547   5.658   5.411  -0.177  0.1617  0.5615 -2.0400
  730MOL0     H98548   5.894   5.622   0.114  2.5364  0.8320 -3.1390
  730MOL0     H98549   5.288   5.429   0.449  1.0409  0.1409 -2.4514
  730MOL0     H98550   5.079   5.455   0.581 -0.5462 -0.4209  0.5677
  731MOL0     O98551  10.354   2.011  11.172  0.4771 -0.3117 -0.1326
  731MOL0     C98552  10.343   2.103  11.092 -0.1147  0.9357 -0.6960
  731MOL0     O98553  10.437   2.197  11.064  0.3863 -0.0275 -0.5644
  731MOL0     C98554  10.568   2.189  11.113  0.8202  0.5567  1.1490
  731MOL0     C98555  10.629   2.085  11.183 -0.1040  1.2108 -0.2254
  731MOL0     C98556  10.759   2.089  11.223 -0.0130  0.4848  1.0633
  731MOL0     C98557  10.838   2.201  11.195  0.5070  0.0017 -0.7192
  731MOL0     O98558  10.964   2.206  11.246 -0.6367  0.3851  0.5811
  731MOL0     C98559  11.062   2.304  11.193 -0.1222 -0.4399 -0.1761
  731MOL0     C98560  11.202   2.239  11.220  0.8546 -0.7912 -0.2080
  731MOL0     C98561  11.317   2.339  11.182  0.0319  0.1891 -0.4913
  731MOL0     C98562  11.437   2.275  11.228  0.2288 -0.1446  0.1646
  731MOL0     C98563  11.573   2.348  11.180  0.8306  1.1536 -0.2577
  731MOL0     C98564  11.571   2.496  11.201 -0.0561  0.4032  0.7530
  731MOL0     C98565  11.537   2.540  11.349 -0.0613  0.1356 -0.7968
  731MOL0     C98566  11.460   2.673  11.346 -0.2015  0.1853  0.5058
  731MOL0     N98567  11.450   2.749  11.472  0.8343  0.1490  0.7678
  731MOL0     C98568  11.359   2.844  11.509 -0.1779 -0.4406 -0.1387
  731MOL0     C98569  11.385   2.878  11.641  0.2588 -0.2490 -0.5690
  731MOL0     C98570  11.324   2.984  11.715  0.5664 -0.8452 -0.7774
  731MOL0     C98571  11.232   2.940  11.831  0.1096  0.4670 -0.0575
  731MOL0     C98572  11.311   2.852  11.939 -0.3038  0.1216  0.3893
  731MOL0     C98573  11.426   2.923  12.016 -0.0991 -0.5794 -0.0171
  731MOL0     O98574  11.474   2.835  12.121 -0.0267 -0.2629 -0.0460
  731MOL0     C98575  11.578   2.742  12.102 -0.1429 -0.4703  0.4345
  731MOL0     C98576  11.640   2.719  11.975  0.4437 -0.2490  0.9545
  731MOL0     C98577  11.747   2.633  11.959  0.8582  0.0322  1.0350
  731MOL0     C98578  11.795   2.616  11.817 -0.6329 -0.5405 -0.2565
  731MOL0     C98579  11.794   2.558  12.070 -0.2478  0.5971 -0.7702
  731MOL0     C98580  11.915   2.466  12.068 -0.1552 -0.5303 -0.3511
  731MOL0     O98581  11.967   2.424  11.945 -1.0139 -0.1937 -0.3431
  731MOL0     C98582  12.084   2.353  11.935 -0.4304 -0.2178  0.3280
  731MOL0     C98583  12.198   2.414  11.880  1.2205 -0.4273  0.3284
  731MOL0     C98584  12.317   2.340  11.864 -0.4481  0.5730 -0.9435
  731MOL0     C98585  12.330   2.208  11.917  0.7314 -0.6509 -0.1279
  731MOL0     O98586  12.460   2.149  11.894 -0.0987  0.0718 -0.2782
  731MOL0     C98587  12.461   2.004  11.895 -0.9923 -0.1010 -0.3420
  731MOL0     C98588  12.579   1.958  11.811  0.4418 -0.0753 -0.6928
  731MOL0     C98589  12.721   2.011  11.857  0.0806 -0.5270  0.2318
  731MOL0     C98590  12.760   2.138  11.783  0.1563 -0.4977  0.1354
  731MOL0     C98591  12.869   2.213  11.874  0.2859  0.4587  0.3388
  731MOL0     C98592  12.933   2.301  11.771 -0.2807  0.5855 -0.3801
  731MOL0     C98593  13.040   2.387  11.827  0.0965 -0.3133  0.2585
  731MOL0     C98594  13.135   2.430  11.712 -0.4048 -0.5418 -0.3105
  731MOL0    Cl98595  13.236   2.301  11.642 -0.2883  0.2094  0.0389
  731MOL0     C98596  12.213   2.156  11.982 -0.2613  0.6279 -0.9304
  731MOL0     C98597  12.090   2.222  11.984 -0.4664 -0.2840 -1.1148
  731MOL0     O98598  11.960   2.426  12.178  0.2082  0.4385 -0.2486
  731MOL0     C98599  11.731   2.582  12.197  0.8172  0.5216  0.0831
  731MOL0     C98600  11.627   2.667  12.205  0.0708 -0.3611 -0.0863
  731MOL0     N98601  11.499   2.804  11.669 -0.0876 -0.7170 -0.1018
  731MOL0     N98602  11.537   2.733  11.574 -0.7940  0.8598  0.1705
  731MOL0     C98603  10.784   2.307  11.122  0.1542  0.4895  0.1696
  731MOL0     C98604  10.651   2.300  11.078 -0.3860  0.4999  0.4021
  731MOL0     C98605  10.207   2.132  11.047 -0.0918  0.3270 -0.2212
  731MOL0     C98606  10.109   2.034  11.056 -1.0058  0.2127  0.5037
  731MOL0     C98607   9.976   2.073  11.019 -0.3753  0.0294  0.2823
  731MOL0     C98608   9.953   2.188  10.972 -0.3614 -0.4777 -0.0665
  731MOL0     O98609   9.820   2.228  10.943  0.1327  0.2100 -0.3563
  731MOL0     C98610   9.768   2.173  10.822  0.2170  0.0542 -0.4739
  731MOL0     C98611   9.622   2.195  10.793  0.5456 -0.3431 -0.7757
  731MOL0     C98612   9.586   2.143  10.655 -0.4649 -0.3372 -1.3461
  731MOL0     C98613   9.437   2.115  10.633 -0.7165 -0.7871 -0.2837
  731MOL0     C98614   9.426   2.077  10.491  0.1672 -1.3738  0.1131
  731MOL0     C98615   9.407   2.058  10.380 -0.0544 -0.9229  0.9782
  731MOL0     C98616  10.044   2.291  10.960  0.4184  0.1795 -0.8880
  731MOL0     C98617  10.173   2.260  10.993 -0.6347 -0.1935  0.1668
  731MOL0     H98618  10.576   1.994  11.207 -0.1441  1.6738  1.6231
  731MOL0     H98619  10.799   2.000  11.270 -1.0002 -1.2351 -1.2036
  731MOL0     H98620  11.058   2.331  11.087  3.4645  1.0526 -0.0964
  731MOL0     H98621  11.047   2.390  11.259 -4.4079 -1.6569  0.7211
  731MOL0     H98622  11.196   2.214  11.327 -0.8514 -1.3511 -0.4081
  731MOL0     H98623  11.225   2.157  11.152 -1.4713  0.7924 -3.1320
  731MOL0     H98624  11.330   2.361  11.076 -1.7806  0.2765 -0.7396
  731MOL0     H98625  11.310   2.434  11.236  1.6543  0.8538 -1.4130
  731MOL0     H98626  11.421   2.281  11.337 -1.0792 -1.7427  0.1093
  731MOL0     H98627  11.447   2.171  11.194  0.4558  0.5220 -1.9241
  731MOL0     H98628  11.644   2.303  11.250 -3.3882 -0.3220  3.6268
  731MOL0     H98629  11.599   2.320  11.078 -2.5353 -3.0619 -0.2569
  731MOL0     H98630  11.663   2.538  11.158  1.3721 -0.0672  3.1374
  731MOL0     H98631  11.488   2.535  11.143 -0.5238  0.7432  1.6224
  731MOL0     H98632  11.476   2.463  11.398 -0.5525 -0.1634 -1.8431
  731MOL0     H98633  11.630   2.553  11.404  0.6522 -1.5071 -1.5379
  731MOL0     H98634  11.357   2.644  11.322 -0.5273  1.5526  0.1808
  731MOL0     H98635  11.514   2.728  11.269  2.0666  0.5792  2.2556
  731MOL0     H98636  11.285   2.893  11.446  0.7135  0.3928 -0.5637
  731MOL0     H98637  11.391   3.057  11.760 -0.8827 -2.0525  3.9533
  731MOL0     H98638  11.265   3.035  11.639 -0.6980 -0.2299  0.5618
  731MOL0     H98639  11.156   2.880  11.781  1.7763 -1.1097 -0.7854
  731MOL0     H98640  11.187   3.026  11.883 -0.7207  0.1127 -0.1730
  731MOL0     H98641  11.344   2.761  11.888 -2.7734 -1.5167  1.4680
  731MOL0     H98642  11.244   2.825  12.022  0.0467  1.0744  0.9934
  731MOL0     H98643  11.387   3.019  12.053  0.7278 -0.2625  0.0589
  731MOL0     H98644  11.508   2.960  11.955 -0.9580 -0.6288 -1.2375
  731MOL0     H98645  11.615   2.789  11.895 -0.0760 -1.1691  0.2878
  731MOL0     H98646  11.905   2.614  11.818 -0.6243  0.0827 -0.0299
  731MOL0     H98647  11.748   2.526  11.776 -3.5830 -0.9212  3.4896
  731MOL0     H98648  11.772   2.705  11.758 -2.4118  0.3811  1.7282
  731MOL0     H98649  12.193   2.515  11.843  0.7037 -0.5077  0.1700
  731MOL0     H98650  12.404   2.387  11.819 -0.6080 -0.1692 -2.0581
  731MOL0     H98651  12.467   1.969  11.999  3.8889 -1.7260 -0.8863
  731MOL0     H98652  12.367   1.975  11.847 -0.6909  1.8517 -2.2546
  731MOL0     H98653  12.593   1.850  11.825  1.4240  0.2912  1.7275
  731MOL0     H98654  12.563   1.980  11.705  1.3739 -2.3317 -1.3621
  731MOL0     H98655  12.802   1.939  11.842  1.0072  0.5530 -0.0157
  731MOL0     H98656  12.712   2.033  11.963  1.9948  0.0348  0.3018
  731MOL0     H98657  12.813   2.109  11.692 -0.4498 -0.5039 -0.2188
  731MOL0     H98658  12.676   2.202  11.756 -0.1431 -1.2198 -0.7023
  731MOL0     H98659  12.946   2.146  11.914  2.0786  1.7628 -0.7785
  731MOL0     H98660  12.823   2.271  11.955 -1.7442 -0.9065  0.2500
  731MOL0     H98661  12.975   2.236  11.694  1.9625 -2.2424  2.9141
  731MOL0     H98662  12.858   2.370  11.731 -2.1470 -1.2922 -0.3168
  731MOL0     H98663  13.098   2.327  11.898 -0.7366 -0.7342  0.5938
  731MOL0     H98664  12.989   2.467  11.881 -0.6777 -1.7065  1.6673
  731MOL0     H98665  13.216   2.491  11.752  1.4703 -4.0081  1.6330
  731MOL0     H98666  13.081   2.484  11.633  1.6446  0.0508 -1.3858
  731MOL0     H98667  12.212   2.057  12.025 -0.3078  1.1359  0.2710
  731MOL0     H98668  12.006   2.162  12.017  0.8351 -1.8302 -0.5002
  731MOL0     H98669  11.752   2.525  12.286  0.0007  1.7960  1.1296
  731MOL0     H98670  11.577   2.694  12.298  0.8105  1.8491 -0.2644
  731MOL0     H98671  10.840   2.392  11.084 -0.0281  0.0355 -1.1966
  731MOL0     H98672  10.616   2.384  11.019 -1.0053 -0.6812 -0.9786
  731MOL0     H98673  10.134   1.934  11.090 -1.2592  0.4564  1.4475
  731MOL0     H98674   9.892   2.005  11.010  1.9140 -2.9988  0.2079
  731MOL0     H98675   9.814   2.239  10.747 -0.6815  1.4061  0.1141
  731MOL0     H98676   9.784   2.067  10.803 -2.0281  0.1462 -3.8938
  731MOL0     H98677   9.596   2.301  10.802 -0.8564 -0.7588  0.6100
  731MOL0     H98678   9.553   2.147  10.864 -1.0219  1.4208 -1.0183
  731MOL0     H98679   9.637   2.050  10.628  0.8019 -0.1070  0.1228
  731MOL0     H98680   9.629   2.216  10.585 -0.2035 -1.0350 -1.9273
  731MOL0     H98681   9.381   2.207  10.650 -0.6036 -0.9273  0.9473
  731MOL0     H98682   9.406   2.040  10.706  3.5754 -1.6942  0.8483
  731MOL0     H98683   9.377   2.040  10.278 -0.0144  2.5366  0.2210
  731MOL0     H98684  10.027   2.390  10.921  0.6948 -0.3957 -2.5439
  731MOL0     H98685  10.239   2.346  10.985  0.5357 -1.1894 -1.7228
  732MOL0     O98686  10.256   0.454  10.772 -0.7755  0.0158  0.6063
  732MOL0     C98687  10.322   0.555  10.757  0.8641  0.1395 -0.7510
  732MOL0     O98688  10.281   0.674  10.710 -0.0323 -0.7776 -0.2588
  732MOL0     C98689  10.151   0.703  10.681  0.1572  1.1268 -0.4407
  732MOL0     C98690  10.096   0.825  10.722  0.5871 -0.2870  0.0370
  732MOL0     C98691   9.963   0.862  10.700  0.2731 -0.0854  0.1376
  732MOL0     C98692   9.888   0.793  10.601  0.2193 -0.4339  0.1475
  732MOL0     O98693   9.767   0.845  10.569 -0.3900 -0.7252  0.9017
  732MOL0     C98694   9.655   0.753  10.550 -0.0875 -0.0336  0.0311
  732MOL0     C98695   9.522   0.809  10.593 -0.9957 -0.1287 -0.1171
  732MOL0     C98696   9.414   0.709  10.618 -0.6559 -0.3507  0.5502
  732MOL0     C98697   9.392   0.635  10.482 -0.9133 -0.0304  1.1049
  732MOL0     C98698   9.292   0.534  10.472  0.1301  0.1697 -0.0860
  732MOL0     C98699   9.302   0.462  10.335 -0.8292 -0.0032 -0.0163
  732MOL0     C98700   9.201   0.344  10.305 -0.3566 -1.3553  0.5944
  732MOL0     C98701   9.222   0.275  10.172  0.0346  0.4765 -0.1100
  732MOL0     N98702   9.112   0.177  10.156  0.1335  0.4956  0.2418
  732MOL0     C98703   8.984   0.208  10.150 -0.3919  0.4541  0.8754
  732MOL0     C98704   8.917   0.092  10.129  0.8628  0.7064 -0.0869
  732MOL0     C98705   8.772   0.068  10.130  0.6145  0.6052  0.2039
  732MOL0     C98706   8.703   0.094  10.005  0.1665 -0.7964 -0.7053
  732MOL0     C98707   8.653   0.236   9.985  0.2389 -0.4179 -0.4846
  732MOL0     C98708   8.621   0.246   9.843 -0.4173 -0.0453 -0.5381
  732MOL0     O98709   8.547   0.370   9.820 -0.5160  0.7040 -0.3425
  732MOL0     C98710   8.418   0.398   9.840  0.7657 -0.2912  0.7406
  732MOL0     C98711   8.311   0.311   9.867 -0.1690  0.0232  0.5236
  732MOL0     C98712   8.174   0.353   9.861  0.0170 -1.0507  0.2768
  732MOL0     C98713   8.071   0.246   9.879  0.8734  0.2655  0.3722
  732MOL0     C98714   8.149   0.490   9.828  0.0462  0.0434 -0.0016
  732MOL0     C98715   8.011   0.536   9.814  0.3783  0.3473 -0.5725
  732MOL0     O98716   7.918   0.484   9.904  0.9698  0.5236 -0.1989
  732MOL0     C98717   7.787   0.527   9.886 -0.1537  0.0294  0.0104
  732MOL0     C98718   7.711   0.554   9.771  0.6571 -0.0268  0.1196
  732MOL0     C98719   7.576   0.591   9.784 -0.7140 -0.2230 -0.4092
  732MOL0     C98720   7.512   0.596   9.909  1.3316 -0.5384  0.2334
  732MOL0     O98721   7.381   0.626   9.929 -0.7181 -0.5312 -0.2430
  732MOL0     C98722   7.307   0.682   9.827 -0.5040  0.2216  0.8840
  732MOL0     C98723   7.176   0.714   9.884 -0.0593 -0.0958 -0.1273
  732MOL0     C98724   7.108   0.817   9.789  0.1423 -0.0337 -0.6776
  732MOL0     C98725   6.984   0.881   9.849  0.3067  0.2829 -0.0003
  732MOL0     C98726   6.878   0.916   9.746  0.0120 -0.1570 -0.3902
  732MOL0     C98727   6.903   1.056   9.691  0.0866 -1.0733 -0.6424
  732MOL0     C98728   6.804   1.087   9.573 -0.6026 -0.2258 -0.7170
  732MOL0     C98729   6.825   1.235   9.524 -1.0220  0.1140  0.1712
  732MOL0    Cl98730   6.989   1.252   9.455  0.2644 -0.0152 -0.0003
  732MOL0     C98731   7.589   0.570  10.022  0.2046  0.8884  0.9413
  732MOL0     C98732   7.727   0.534  10.013  0.7142 -0.2439  0.0766
  732MOL0     O98733   7.998   0.634   9.739 -0.5820  0.0683 -0.6313
  732MOL0     C98734   8.255   0.575   9.807  0.0274 -0.2336 -0.4538
  732MOL0     C98735   8.396   0.534   9.817 -0.2194  0.0587 -0.2383
  732MOL0     N98736   9.005  -0.011  10.117  0.7635  0.7789  0.3996
  732MOL0     N98737   9.121   0.042  10.133  0.2028  0.3175  0.4108
  732MOL0     C98738   9.944   0.674  10.546 -0.0378  0.7743  0.6512
  732MOL0     C98739  10.071   0.629  10.592 -0.6128  0.5275 -1.0609
  732MOL0     C98740  10.467   0.545  10.795 -0.3426  0.5767  0.4920
  732MOL0     C98741  10.517   0.457  10.900 -0.3793  0.3038 -0.1911
  732MOL0     C98742  10.658   0.452  10.928  0.0862 -0.0990  0.1686
  732MOL0     C98743  10.746   0.541  10.863 -0.2947 -0.0816 -0.9655
  732MOL0     O98744  10.875   0.549  10.906 -0.1385  0.8439 -0.3507
  732MOL0     C98745  10.973   0.649  10.863  0.3138  0.5650 -0.6530
  732MOL0     C98746  11.048   0.595  10.732 -0.7080  0.3815 -0.1039
  732MOL0     C98747  11.179   0.670  10.696  0.4617 -0.3706 -0.8897
  732MOL0     C98748  11.285   0.588  10.621  0.3513 -0.0213  0.3629
  732MOL0     C98749  11.411   0.660  10.627  0.0455 -0.1529 -0.1365
  732MOL0     C98750  11.494   0.740  10.613 -1.0969 -0.2841 -0.1278
  732MOL0     C98751  10.700   0.628  10.759 -0.2572  1.1555 -0.4935
  732MOL0     C98752  10.561   0.623  10.719 -0.2554 -0.1222 -0.2079
  732MOL0     H98753  10.149   0.891  10.789 -0.4091 -0.0681  0.6290
  732MOL0     H98754   9.938   0.955  10.750 -0.5488 -0.2872  0.1021
  732MOL0     H98755   9.648   0.736  10.442  2.8756 -0.6505 -0.1415
  732MOL0     H98756   9.676   0.658  10.599 -0.2160 -0.6163 -1.0073
  732MOL0     H98757   9.522   0.874  10.681  0.8649 -1.4964  0.9731
  732MOL0     H98758   9.485   0.869  10.510 -1.5410  0.8589  0.8108
  732MOL0     H98759   9.447   0.638  10.695 -1.5365 -1.4050 -0.0056
  732MOL0     H98760   9.315   0.730  10.660 -1.7507 -3.2636 -0.2888
  732MOL0     H98761   9.389   0.701  10.394 -4.6717  1.2551  2.0196
  732MOL0     H98762   9.488   0.582  10.479 -1.8255 -1.7280 -0.9583
  732MOL0     H98763   9.317   0.456  10.545  2.2456  0.7139 -0.1857
  732MOL0     H98764   9.193   0.574  10.497 -0.2683 -0.8868  0.1248
  732MOL0     H98765   9.272   0.537  10.261 -1.8808  1.7862  2.0659
  732MOL0     H98766   9.395   0.407  10.322 -0.8978 -0.7354  2.0940
  732MOL0     H98767   9.206   0.268  10.383  2.7193 -0.1362  1.7475
  732MOL0     H98768   9.103   0.391  10.301  1.2690  2.6317  2.0992
  732MOL0     H98769   9.321   0.228  10.171 -0.5162 -0.7376  0.3470
  732MOL0     H98770   9.223   0.344  10.088 -0.0132  1.3554  0.5911
  732MOL0     H98771   8.944   0.309  10.159 -2.4860  0.0055 -1.9401
  732MOL0     H98772   8.746  -0.037  10.147  0.7369  0.3341 -1.1337
  732MOL0     H98773   8.727   0.116  10.217 -1.3878 -0.6087 -0.0875
  732MOL0     H98774   8.615   0.030  10.008 -1.3286  1.2234  1.9601
  732MOL0     H98775   8.760   0.077   9.913  0.9714  1.6065 -0.7275
  732MOL0     H98776   8.726   0.315  10.003 -3.5652  2.8817  2.2507
  732MOL0     H98777   8.574   0.270  10.053  2.3833  3.5981  0.3099
  732MOL0     H98778   8.552   0.162   9.827  0.6938 -1.5419  2.0130
  732MOL0     H98779   8.711   0.243   9.781 -0.3393  0.1488 -0.4315
  732MOL0     H98780   8.336   0.209   9.896 -1.7479 -0.2678  0.9343
  732MOL0     H98781   8.007   0.239   9.791  0.0451 -0.3452  1.0088
  732MOL0     H98782   8.125   0.152   9.888  2.5477  1.2040  0.5672
  732MOL0     H98783   8.014   0.267   9.970  0.9556 -0.3765  0.5736
  732MOL0     H98784   7.746   0.532   9.670 -0.0476 -1.6526  0.2050
  732MOL0     H98785   7.524   0.606   9.690  0.6698  2.7593 -0.8076
  732MOL0     H98786   7.368   0.765   9.789 -0.7309 -1.6331 -4.3244
  732MOL0     H98787   7.309   0.621   9.737 -1.5185 -0.2410  1.1720
  732MOL0     H98788   7.109   0.628   9.896 -0.1467  0.1532  1.3498
  732MOL0     H98789   7.187   0.754   9.985 -0.5261 -0.1157 -0.0660
  732MOL0     H98790   7.093   0.785   9.686 -0.9682  2.6422 -1.4448
  732MOL0     H98791   7.178   0.900   9.775 -1.4017  1.1495 -1.7266
  732MOL0     H98792   6.935   0.804   9.909 -3.1706  1.7567 -0.6850
  732MOL0     H98793   7.004   0.965   9.916 -1.0002 -0.1966  1.0536
  732MOL0     H98794   6.777   0.907   9.786  1.1626 -1.8447  2.4241
  732MOL0     H98795   6.883   0.835   9.673  3.8214 -2.0541  1.6888
  732MOL0     H98796   6.893   1.121   9.778 -0.4125 -3.3590  1.0889
  732MOL0     H98797   7.005   1.082   9.660 -0.3701 -0.8367 -2.0510
  732MOL0     H98798   6.701   1.075   9.606 -0.3791  0.7936  0.4294
  732MOL0     H98799   6.824   1.021   9.489  2.5811  0.3480 -0.5285
  732MOL0     H98800   6.819   1.305   9.608 -0.2068  0.6200 -0.1799
  732MOL0     H98801   6.744   1.261   9.455 -2.1706  0.5306  1.6443
  732MOL0     H98802   7.532   0.573  10.115 -1.0605  1.1063  0.1839
  732MOL0     H98803   7.778   0.500  10.103  0.2267 -1.5734 -0.1172
  732MOL0     H98804   8.242   0.678   9.774 -1.0932 -0.0026  0.6401
  732MOL0     H98805   8.485   0.591   9.793  0.5654 -0.4461  1.3031
  732MOL0     H98806   9.888   0.615  10.474  2.6134 -1.2969  0.0948
  732MOL0     H98807  10.113   0.537  10.553 -0.5458 -0.8186  1.9229
  732MOL0     H98808  10.447   0.395  10.956  2.0141 -1.4694  1.0268
  732MOL0     H98809  10.706   0.383  10.997 -1.8388 -2.2620 -0.5064
  732MOL0     H98810  10.935   0.748  10.838  1.2077  0.6781 -1.6161
  732MOL0     H98811  11.046   0.653  10.945  0.4870  0.4182 -0.7995
  732MOL0     H98812  10.980   0.603  10.647 -0.5243 -1.3112 -0.4414
  732MOL0     H98813  11.070   0.488  10.737 -2.2159 -0.0406 -1.7083
  732MOL0     H98814  11.221   0.718  10.784  3.6853  2.2700 -3.5813
  732MOL0     H98815  11.162   0.757  10.633 -1.0499 -0.7337 -1.0258
  732MOL0     H98816  11.248   0.561  10.522 -2.3227 -0.4846  1.4003
  732MOL0     H98817  11.301   0.495  10.678  3.6103  1.2309  1.7457
  732MOL0     H98818  11.571   0.813  10.597 -0.6463 -0.3627  1.5181
  732MOL0     H98819  10.775   0.683  10.704 -0.1212  2.2009  0.6983
  732MOL0     H98820  10.538   0.693  10.640 -0.7109  1.3843  1.2022
  733MOL0     O98821   7.449   7.101   4.188  0.5969 -0.0255  0.2480
  733MOL0     C98822   7.446   6.994   4.246  0.8901  0.6799  0.2629
  733MOL0     O98823   7.554   6.914   4.272 -0.3297 -0.9818  0.9150
  733MOL0     C98824   7.682   6.962   4.270  0.5420 -0.2027  0.5481
  733MOL0     C98825   7.768   6.863   4.234 -0.2761 -0.2743  0.0300
  733MOL0     C98826   7.896   6.882   4.221 -1.1345 -0.1478 -0.0893
  733MOL0     C98827   7.962   7.002   4.254 -0.5719  0.2023  0.3948
  733MOL0     O98828   8.098   7.023   4.256  1.0201 -0.3223  0.6114
  733MOL0     C98829   8.179   6.927   4.200  0.0206  0.2847  0.0355
  733MOL0     C98830   8.314   6.995   4.173 -0.1411  0.2325 -0.9604
  733MOL0     C98831   8.410   6.885   4.127 -0.6448 -0.1805  0.0422
  733MOL0     C98832   8.542   6.969   4.106  0.0154  0.7596  0.6128
  733MOL0     C98833   8.654   6.876   4.066 -0.7366  0.1286 -0.3743
  733MOL0     C98834   8.763   6.968   4.011  0.5520  0.1083  0.1718
  733MOL0     C98835   8.886   6.883   3.962 -0.0368 -0.8385 -0.3750
  733MOL0     C98836   8.993   6.974   3.943 -0.7413 -0.0664 -0.5373
  733MOL0     N98837   9.113   6.894   3.952 -0.4284  0.1643  0.3470
  733MOL0     C98838   9.162   6.817   3.843 -0.0451  0.5868 -0.4207
  733MOL0     C98839   9.264   6.746   3.898  0.8190 -0.4108 -0.4757
  733MOL0     C98840   9.355   6.639   3.838  0.1732 -0.4630 -0.5492
  733MOL0     C98841   9.267   6.526   3.778 -0.0361 -0.0172  0.1438
  733MOL0     C98842   9.182   6.460   3.891  0.4283 -0.0557  0.3563
  733MOL0     C98843   9.055   6.388   3.844 -0.9650 -0.0860 -0.2429
  733MOL0     O98844   8.971   6.490   3.779 -0.1649  0.6336  0.0381
  733MOL0     C98845   8.840   6.499   3.809  0.9511  0.7241 -0.0974
  733MOL0     C98846   8.788   6.508   3.946 -0.4897 -0.6862  0.0098
  733MOL0     C98847   8.654   6.523   3.980 -0.9117  0.1892  1.0463
  733MOL0     C98848   8.618   6.539   4.133 -0.6035 -0.7906  1.1360
  733MOL0     C98849   8.558   6.513   3.873  0.7000 -0.0598 -0.0357
  733MOL0     C98850   8.408   6.492   3.891  0.1228 -0.0389  0.2733
  733MOL0     O98851   8.356   6.475   4.016 -0.0601 -0.0810  0.0634
  733MOL0     C98852   8.225   6.478   4.034 -0.7440  0.7770  0.0491
  733MOL0     C98853   8.159   6.378   4.095  0.2616  0.4883  0.9639
  733MOL0     C98854   8.023   6.379   4.110 -0.5330  0.5633 -0.2279
  733MOL0     C98855   7.939   6.480   4.064 -0.0125 -0.2503  0.4796
  733MOL0     O98856   7.799   6.465   4.084 -0.2111  0.6041  0.3340
  733MOL0     C98857   7.702   6.550   4.021  0.2565  0.1889  0.9578
  733MOL0     C98858   7.564   6.540   4.083  0.5769 -0.3578 -0.7262
  733MOL0     C98859   7.468   6.637   4.028  0.2704 -0.7144  0.2211
  733MOL0     C98860   7.329   6.640   4.095 -0.3272 -0.4870  0.3305
  733MOL0     C98861   7.249   6.518   4.040 -0.0885  0.8180  0.5345
  733MOL0     C98862   7.113   6.512   4.122 -0.2797  0.4456  0.7696
  733MOL0     C98863   7.017   6.401   4.072  0.4584 -0.6567  0.7128
  733MOL0     C98864   6.897   6.398   4.171  1.0497  0.0105  0.5812
  733MOL0    Cl98865   6.830   6.238   4.148  0.6035  0.3788  0.0296
  733MOL0     C98866   8.000   6.586   3.995  1.0467  0.4171 -0.4366
  733MOL0     C98867   8.143   6.580   3.979 -0.4444 -0.0541  1.3242
  733MOL0     O98868   8.352   6.473   3.781 -0.4690 -0.2226 -0.0232
  733MOL0     C98869   8.610   6.502   3.735 -0.3322  0.2933 -0.4116
  733MOL0     C98870   8.749   6.506   3.705  0.7287  0.7824 -0.0983
  733MOL0     N98871   9.291   6.794   4.028 -0.4826 -0.6766  0.0872
  733MOL0     N98872   9.197   6.877   4.061 -0.3090  0.2063  0.3749
  733MOL0     C98873   7.883   7.105   4.294 -0.0716 -0.5902 -0.8472
  733MOL0     C98874   7.738   7.093   4.308  0.6038  0.8298  1.3827
  733MOL0     C98875   7.313   6.943   4.278 -0.2105 -0.3806 -0.3260
  733MOL0     C98876   7.190   7.002   4.241  0.1811 -0.5862 -0.3276
  733MOL0     C98877   7.065   6.947   4.276  0.1718 -0.4240  0.3763
  733MOL0     C98878   7.066   6.833   4.361 -0.0011 -0.1466  0.0654
  733MOL0     O98879   6.943   6.792   4.412 -0.2241  0.4423 -0.6561
  733MOL0     C98880   6.912   6.657   4.452 -0.3482 -1.1815 -0.0946
  733MOL0     C98881   6.764   6.627   4.454  0.4682 -0.0265 -0.3566
  733MOL0     C98882   6.700   6.726   4.545 -0.2745  0.7754 -0.0681
  733MOL0     C98883   6.553   6.690   4.584  0.8348  0.5687 -0.3406
  733MOL0     C98884   6.548   6.574   4.663  0.2274 -0.3472  0.3470
  733MOL0     C98885   6.532   6.474   4.731  1.0474 -1.1939  0.1501
  733MOL0     C98886   7.186   6.779   4.410  0.0114  0.9461  0.4659
  733MOL0     C98887   7.301   6.828   4.358  0.3037 -0.2777  0.0293
  733MOL0     H98888   7.730   6.764   4.208 -2.1983  1.5061 -5.0136
  733MOL0     H98889   7.954   6.796   4.189  0.6771  1.2557 -0.7258
  733MOL0     H98890   8.206   6.866   4.287  1.1465  1.4995  0.5730
  733MOL0     H98891   8.148   6.870   4.111  0.9598 -0.5021  0.1872
  733MOL0     H98892   8.304   7.082   4.109  0.0030  0.5132 -0.6031
  733MOL0     H98893   8.339   7.037   4.271 -3.4797  3.5346 -1.2903
  733MOL0     H98894   8.430   6.811   4.205  2.7663  0.7286  0.1522
  733MOL0     H98895   8.403   6.837   4.029  0.5101  2.4224 -1.3982
  733MOL0     H98896   8.530   7.052   4.036  2.6954  3.7259  3.2834
  733MOL0     H98897   8.568   7.028   4.195 -2.3361  2.4723  0.2603
  733MOL0     H98898   8.695   6.818   4.149  0.0983 -0.1111 -0.9400
  733MOL0     H98899   8.615   6.808   3.990 -0.2970  0.1558 -0.6279
  733MOL0     H98900   8.725   7.032   3.931 -1.0527 -1.8312 -0.6948
  733MOL0     H98901   8.786   7.043   4.088 -0.2253  1.4449 -0.8599
  733MOL0     H98902   8.909   6.817   4.047 -1.2057  0.6393  1.1636
  733MOL0     H98903   8.867   6.825   3.871  2.2409  1.3524 -2.3979
  733MOL0     H98904   8.999   7.046   4.025 -0.8837 -1.8705  1.1415
  733MOL0     H98905   8.988   7.022   3.845 -0.7261  0.6978 -0.1652
  733MOL0     H98906   9.101   6.796   3.756  0.0172 -0.1809 -0.2852
  733MOL0     H98907   9.419   6.682   3.759  0.5871  1.3721  0.7146
  733MOL0     H98908   9.420   6.609   3.921 -2.6792 -1.8332  1.3241
  733MOL0     H98909   9.331   6.450   3.734 -0.0349  0.2281 -0.2859
  733MOL0     H98910   9.191   6.570   3.712 -0.3675  0.6984  0.9834
  733MOL0     H98911   9.166   6.521   3.980  1.1820 -1.7840  1.7329
  733MOL0     H98912   9.262   6.389   3.915  0.2932 -0.4408 -0.3080
  733MOL0     H98913   9.004   6.345   3.931 -3.5893 -2.2435 -2.6658
  733MOL0     H98914   9.091   6.314   3.772  1.1973 -0.9431  1.5979
  733MOL0     H98915   8.856   6.516   4.030 -0.6141 -0.5721  0.0994
  733MOL0     H98916   8.555   6.627   4.145  2.0362  1.2854  0.4991
  733MOL0     H98917   8.571   6.449   4.174 -1.0253 -0.2539  1.8464
  733MOL0     H98918   8.713   6.559   4.183 -0.6313  4.5667 -0.3778
  733MOL0     H98919   8.219   6.298   4.139 -1.0693 -0.4925  1.0800
  733MOL0     H98920   7.978   6.288   4.148  2.6649 -0.3315  1.7662
  733MOL0     H98921   7.738   6.651   4.046 -0.5250  0.6222  0.3980
  733MOL0     H98922   7.695   6.530   3.913  3.4967 -0.2589  0.7373
  733MOL0     H98923   7.534   6.435   4.080 -0.7794 -0.0611  0.7154
  733MOL0     H98924   7.578   6.561   4.190 -3.0375 -0.1334 -0.1721
  733MOL0     H98925   7.451   6.620   3.921 -1.4157 -1.2852  0.5414
  733MOL0     H98926   7.504   6.739   4.045 -2.7630  0.4927  0.0274
  733MOL0     H98927   7.343   6.624   4.202  3.4162 -0.4487 -0.0261
  733MOL0     H98928   7.282   6.735   4.067  1.4917  1.3629  3.0833
  733MOL0     H98929   7.304   6.427   4.062  1.9519  1.7727 -0.3468
  733MOL0     H98930   7.230   6.541   3.935  2.5277 -1.7014 -0.6198
  733MOL0     H98931   7.137   6.496   4.227  3.4525  0.7243  0.1039
  733MOL0     H98932   7.072   6.610   4.095 -0.6812  0.1706  0.3586
  733MOL0     H98933   7.076   6.309   4.078  2.0635  0.3405  0.6919
  733MOL0     H98934   6.984   6.413   3.968 -2.0102 -0.0907  1.4869
  733MOL0     H98935   6.819   6.469   4.143 -1.4551  0.1492  6.5619
  733MOL0     H98936   6.919   6.406   4.278  2.9329 -1.8667  0.4139
  733MOL0     H98937   7.948   6.666   3.943 -0.2739  0.8421  1.4344
  733MOL0     H98938   8.191   6.664   3.930  1.1381 -2.3880 -1.4317
  733MOL0     H98939   8.538   6.511   3.653 -0.1207 -0.1563 -0.6524
  733MOL0     H98940   8.778   6.498   3.601  0.0983  0.0048 -0.2283
  733MOL0     H98941   7.926   7.201   4.322  1.3135 -1.0926 -1.1624
  733MOL0     H98942   7.682   7.182   4.336  0.5834  1.4894 -0.5921
  733MOL0     H98943   7.205   7.096   4.188  1.2362 -0.5562  0.0016
  733MOL0     H98944   6.977   7.005   4.250  0.5559  0.2125  0.4827
  733MOL0     H98945   6.974   6.578   4.411 -0.1190 -0.0723 -2.0122
  733MOL0     H98946   6.949   6.654   4.555  2.2570 -2.1250 -0.9924
  733MOL0     H98947   6.747   6.522   4.480  1.3979 -0.9827 -3.2354
  733MOL0     H98948   6.720   6.635   4.354  1.7864 -0.5201 -1.0009
  733MOL0     H98949   6.699   6.831   4.516  0.6359  1.8957  3.4548
  733MOL0     H98950   6.769   6.726   4.630  3.6571  1.2351 -3.0010
  733MOL0     H98951   6.489   6.688   4.496  0.1730  0.8062  0.1311
  733MOL0     H98952   6.509   6.762   4.653 -1.0594  3.9900 -4.6165
  733MOL0     H98953   6.515   6.381   4.781 -0.6040 -1.7080 -1.3009
  733MOL0     H98954   7.199   6.707   4.490 -0.9271 -1.9124 -1.7977
  733MOL0     H98955   7.389   6.780   4.399 -1.0477 -1.0987  2.1367
  734MOL0     O98956   1.387   5.290   3.905 -0.6419 -0.1731 -0.8457
  734MOL0     C98957   1.356   5.213   3.816  0.8714  0.3140 -0.3661
  734MOL0     O98958   1.251   5.231   3.729  0.2669  0.3899  0.2001
  734MOL0     C98959   1.179   5.342   3.736  0.6309 -0.3963  0.0860
  734MOL0     C98960   1.117   5.388   3.858  0.0668  0.9163 -0.9185
  734MOL0     C98961   1.038   5.499   3.862 -0.9667  0.0823  0.1411
  734MOL0     C98962   1.001   5.562   3.743  0.8215 -0.1548 -0.7908
  734MOL0     O98963   0.931   5.674   3.737 -0.4362 -0.4878  0.3863
  734MOL0     C98964   0.955   5.779   3.832  0.3330  0.3141 -0.7604
  734MOL0     C98965   0.886   5.908   3.780 -0.2639  0.5752  0.4727
  734MOL0     C98966   0.869   5.924   3.627 -0.0729 -0.4213  0.6617
  734MOL0     C98967   0.998   5.946   3.541  0.3297 -0.1676 -0.6373
  734MOL0     C98968   0.969   5.964   3.397  0.0118 -0.5086 -0.1384
  734MOL0     C98969   1.091   5.972   3.308  0.9089 -0.4137 -0.2133
  734MOL0     C98970   1.064   6.005   3.158  0.4755 -0.4129  0.7056
  734MOL0     C98971   1.198   5.997   3.083  1.7108  0.1835 -0.3391
  734MOL0     N98972   1.191   6.094   2.970  0.4269  0.1385  0.4962
  734MOL0     C98973   1.242   6.219   2.972 -0.0088  1.1330  0.4185
  734MOL0     C98974   1.207   6.271   2.848 -0.3053  0.1387 -0.0103
  734MOL0     C98975   1.223   6.412   2.797 -0.2137 -0.6518  0.5962
  734MOL0     C98976   1.369   6.458   2.800 -0.4931 -0.5546  0.1884
  734MOL0     C98977   1.405   6.590   2.725  0.2942  0.3158  0.0976
  734MOL0     C98978   1.315   6.703   2.783 -0.3096 -0.4116  0.8641
  734MOL0     O98979   1.346   6.844   2.763  0.2818  0.3825  0.9764
  734MOL0     C98980   1.472   6.889   2.770  0.2664 -0.4790 -0.1054
  734MOL0     C98981   1.523   6.962   2.669 -0.2374 -1.0307  0.8488
  734MOL0     C98982   1.655   7.015   2.668 -0.9690  0.4568  0.9094
  734MOL0     C98983   1.700   7.102   2.544  0.0972 -0.1835 -0.0779
  734MOL0     C98984   1.736   7.004   2.788  0.4631  0.3600  0.0143
  734MOL0     C98985   1.869   7.079   2.827 -0.4798 -0.4365  0.0102
  734MOL0     O98986   1.952   7.087   2.719  0.0339 -0.0056 -0.5581
  734MOL0     C98987   2.051   7.186   2.731 -0.1213 -0.2493  0.4640
  734MOL0     C98988   2.018   7.310   2.689  0.2484  0.1636  1.0289
  734MOL0     C98989   2.102   7.419   2.678 -0.5431 -0.3858  1.1369
  734MOL0     C98990   2.235   7.400   2.719  0.3881 -0.5187 -0.1014
  734MOL0     O98991   2.309   7.520   2.712 -0.1642 -0.1294  0.2772
  734MOL0     C98992   2.451   7.503   2.697 -0.0674 -0.4410 -0.1486
  734MOL0     C98993   2.496   7.547   2.559 -0.7766 -0.1595  0.4814
  734MOL0     C98994   2.642   7.507   2.535 -0.3410 -0.0605  1.0420
  734MOL0     C98995   2.701   7.562   2.403  0.3376  0.8240 -0.3362
  734MOL0     C98996   2.704   7.716   2.393  0.2904  0.1183  0.6169
  734MOL0     C98997   2.792   7.762   2.276  0.4539  0.7139  0.0865
  734MOL0     C98998   2.805   7.915   2.262 -0.7269  0.3161  0.7709
  734MOL0     C98999   2.883   7.933   2.130 -0.3792  0.2351 -0.4594
  734MOL0    Cl99000   3.060   7.883   2.132 -0.2965 -0.3009 -0.2201
  734MOL0     C99001   2.276   7.272   2.757  0.6511  0.2327 -0.1784
  734MOL0     C99002   2.184   7.165   2.771 -0.1358 -0.3232  0.3696
  734MOL0     O99003   1.901   7.100   2.939 -0.8231 -0.2678 -0.9064
  734MOL0     C99004   1.692   6.904   2.876  0.7340  0.0618  0.0633
  734MOL0     C99005   1.566   6.849   2.855 -0.9062 -0.5080 -0.8189
  734MOL0     N99006   1.161   6.161   2.766 -0.3058 -1.0396 -0.2109
  734MOL0     N99007   1.146   6.062   2.843  0.1962  0.5669 -0.1158
  734MOL0     C99008   1.040   5.512   3.622  0.2525 -0.2364 -0.8803
  734MOL0     C99009   1.123   5.397   3.624  0.1554 -0.0505  0.1533
  734MOL0     C99010   1.451   5.100   3.786  0.0687 -0.0509 -0.4952
  734MOL0     C99011   1.543   5.063   3.887  0.1266  0.6382  0.4618
  734MOL0     C99012   1.634   4.954   3.870 -0.5601  0.3267  0.3014
  734MOL0     C99013   1.615   4.872   3.755 -1.7202 -0.6804 -0.2748
  734MOL0     O99014   1.686   4.762   3.723  0.5379  0.1741 -0.5400
  734MOL0     C99015   1.780   4.703   3.824  0.4734 -0.1087  0.3126
  734MOL0     C99016   1.833   4.581   3.751  0.5992 -0.4808  0.0755
  734MOL0     C99017   1.902   4.480   3.847  0.7113 -0.3990 -0.2493
  734MOL0     C99018   1.966   4.354   3.792  0.2452  0.8340 -0.2357
  734MOL0     C99019   2.085   4.400   3.716  0.5365 -1.0518 -0.3046
  734MOL0     C99020   2.173   4.427   3.635 -0.0151  0.4084  0.0658
  734MOL0     C99021   1.533   4.920   3.654  0.2460  0.2447  0.1250
  734MOL0     C99022   1.456   5.036   3.667  0.5003  0.4175  0.4111
  734MOL0     H99023   1.136   5.333   3.950 -1.1262 -2.0257 -2.3127
  734MOL0     H99024   1.008   5.544   3.956  2.4472  3.6367 -0.2166
  734MOL0     H99025   0.921   5.747   3.931 -0.1700 -0.3139 -1.1331
  734MOL0     H99026   1.063   5.799   3.834  0.9262 -2.3639 -1.7496
  734MOL0     H99027   0.787   5.911   3.827 -1.5965 -0.6582 -2.0479
  734MOL0     H99028   0.932   5.997   3.824 -2.1519 -0.2344  4.5305
  734MOL0     H99029   0.816   5.840   3.581 -1.3348  1.1029 -0.7670
  734MOL0     H99030   0.807   6.014   3.626  4.2008  2.9223  1.8841
  734MOL0     H99031   1.041   6.039   3.578  0.2291 -1.1229  2.1448
  734MOL0     H99032   1.070   5.865   3.552  1.6012  0.3656 -3.8830
  734MOL0     H99033   0.912   5.876   3.368 -1.5096  0.6545 -0.8043
  734MOL0     H99034   0.904   6.050   3.379  1.6903  0.5913 -1.1979
  734MOL0     H99035   1.145   6.054   3.355 -0.1286  0.4411 -0.4753
  734MOL0     H99036   1.144   5.877   3.321  2.7914  0.6322  0.1870
  734MOL0     H99037   0.989   5.934   3.123 -0.6041 -0.4473  2.9306
  734MOL0     H99038   1.024   6.107   3.155  0.7225 -0.3433 -0.6414
  734MOL0     H99039   1.201   5.893   3.050 -2.2967  0.9851 -4.1079
  734MOL0     H99040   1.281   6.024   3.150  3.0713  2.5986 -2.7977
  734MOL0     H99041   1.275   6.276   3.059 -1.6209  3.2223 -0.2614
  734MOL0     H99042   1.185   6.424   2.695  1.8141  1.4472  0.0000
  734MOL0     H99043   1.156   6.479   2.853  1.4408  1.1541  0.5237
  734MOL0     H99044   1.434   6.385   2.750  1.9652  0.5168  1.6367
  734MOL0     H99045   1.400   6.464   2.904 -2.5690  3.2272  0.7769
  734MOL0     H99046   1.372   6.578   2.621 -0.7127  3.2828 -0.0146
  734MOL0     H99047   1.512   6.613   2.734  0.7223 -1.9766  1.6494
  734MOL0     H99048   1.304   6.692   2.891 -2.3536 -0.3644  0.6908
  734MOL0     H99049   1.217   6.678   2.742  1.1442 -0.2995 -3.1318
  734MOL0     H99050   1.456   6.993   2.589 -1.8451 -0.4849  2.3410
  734MOL0     H99051   1.793   7.060   2.504  0.2488 -0.5403  0.6243
  734MOL0     H99052   1.632   7.095   2.459  1.8801  1.9510 -1.8110
  734MOL0     H99053   1.716   7.207   2.567 -0.9994  0.2682 -1.2565
  734MOL0     H99054   1.915   7.317   2.655 -0.1741  0.6536  2.3647
  734MOL0     H99055   2.063   7.512   2.640 -3.1175 -1.2874  1.4119
  734MOL0     H99056   2.495   7.568   2.773 -0.7730 -1.5487  1.2540
  734MOL0     H99057   2.482   7.400   2.715 -2.0368 -1.1513 -0.5099
  734MOL0     H99058   2.447   7.506   2.470  4.8499 -2.3758 -2.0715
  734MOL0     H99059   2.498   7.654   2.539 -0.9980 -0.0915  0.8033
  734MOL0     H99060   2.654   7.398   2.533 -4.6572 -0.6941  1.6284
  734MOL0     H99061   2.709   7.538   2.616  3.1183  0.2953 -1.6714
  734MOL0     H99062   2.805   7.530   2.392  0.5509  0.7609  1.5472
  734MOL0     H99063   2.657   7.531   2.308 -1.2573  2.8480 -0.3304
  734MOL0     H99064   2.755   7.754   2.482  0.1258  2.1062 -0.0937
  734MOL0     H99065   2.603   7.757   2.380 -0.1817 -1.1292  0.1090
  734MOL0     H99066   2.891   7.717   2.289  0.7489  1.9756  2.9016
  734MOL0     H99067   2.750   7.718   2.185 -4.1444  2.4177  1.0944
  734MOL0     H99068   2.862   7.954   2.347  0.2003  1.9490 -0.5535
  734MOL0     H99069   2.707   7.964   2.251  0.6197  3.0166 -0.1710
  734MOL0     H99070   2.891   8.038   2.101 -2.5019  0.0330 -2.0088
  734MOL0     H99071   2.826   7.887   2.049 -0.3062 -1.2391  0.3050
  734MOL0     H99072   2.380   7.247   2.780  0.9867  2.4784  1.0011
  734MOL0     H99073   2.211   7.064   2.802  1.6208 -0.5650 -1.6996
  734MOL0     H99074   1.753   6.878   2.962  0.1408 -0.1031  0.4340
  734MOL0     H99075   1.522   6.781   2.927 -2.0113 -0.7729 -1.7104
  734MOL0     H99076   1.014   5.549   3.523 -1.1085  1.1943 -0.0205
  734MOL0     H99077   1.161   5.361   3.529  0.9567  1.5074 -0.1471
  734MOL0     H99078   1.554   5.130   3.972  1.4621  3.4899 -1.7924
  734MOL0     H99079   1.714   4.937   3.942 -2.3394 -0.1417  2.2864
  734MOL0     H99080   1.864   4.768   3.850  0.8430 -0.6218  0.4297
  734MOL0     H99081   1.723   4.679   3.914 -0.2582  0.0902 -0.0933
  734MOL0     H99082   1.900   4.606   3.668 -1.5552  1.1028 -1.2906
  734MOL0     H99083   1.750   4.529   3.703 -1.6622  1.7803  1.3394
  734MOL0     H99084   1.815   4.444   3.902  0.8005 -1.9317 -1.0346
  734MOL0     H99085   1.967   4.533   3.917  1.3646 -0.9244 -0.4416
  734MOL0     H99086   1.898   4.307   3.720  0.4443  1.0396 -0.5635
  734MOL0     H99087   1.988   4.287   3.875 -1.0594 -1.1868 -1.4233
  734MOL0     H99088   2.245   4.459   3.563  1.4074 -0.7589  0.9270
  734MOL0     H99089   1.510   4.856   3.569  0.4492  0.0290  0.2316
  734MOL0     H99090   1.376   5.071   3.602 -0.3714  1.1777  1.8491
  735MOL0     O99091   6.330   4.174  10.579  0.2093  1.1447  0.4496
  735MOL0     C99092   6.402   4.265  10.535  0.2220 -0.6055  0.4060
  735MOL0     O99093   6.420   4.290  10.394 -0.0894  0.2188  0.9944
  735MOL0     C99094   6.367   4.199  10.302  0.6793 -0.1479 -0.4501
  735MOL0     C99095   6.442   4.084  10.271  0.5300  0.5109 -1.2113
  735MOL0     C99096   6.403   4.004  10.161 -0.8296 -0.3478 -1.7144
  735MOL0     C99097   6.290   4.030  10.088 -0.3189 -0.7097 -0.3420
  735MOL0     O99098   6.264   3.963   9.967  1.0443  0.3495 -0.9065
  735MOL0     C99099   6.274   3.826   9.953  0.3228  1.0655 -1.3113
  735MOL0     C99100   6.190   3.784   9.836  0.6757  0.1577 -0.3901
  735MOL0     C99101   6.036   3.807   9.855 -0.5921  0.1914 -0.3887
  735MOL0     C99102   5.987   3.920   9.750  0.2246 -0.0707 -0.5271
  735MOL0     C99103   5.830   3.936   9.753 -0.8115  0.2194  0.1796
  735MOL0     C99104   5.767   3.935   9.902 -1.4641  0.1348  0.1689
  735MOL0     C99105   5.631   4.000   9.893 -0.1959  0.1245  0.1683
  735MOL0     C99106   5.564   3.970  10.028  0.3652 -0.0575  0.4967
  735MOL0     N99107   5.429   4.023  10.038 -0.0483  0.7003  0.5306
  735MOL0     C99108   5.394   4.145  10.077 -0.1650 -0.3062  0.2020
  735MOL0     C99109   5.267   4.161  10.031  0.0753  0.5821  1.1994
  735MOL0     C99110   5.192   4.286  10.039  0.2681  0.2361 -0.5320
  735MOL0     C99111   5.162   4.313  10.191 -0.4607  0.1653  0.5916
  735MOL0     C99112   5.065   4.216  10.268 -0.6657  0.6140 -0.8980
  735MOL0     C99113   4.938   4.155  10.206 -0.6115  0.5052  0.4429
  735MOL0     O99114   4.837   4.254  10.169  0.1688  0.2529  0.2073
  735MOL0     C99115   4.704   4.212  10.162 -0.0267 -0.1192 -0.2118
  735MOL0     C99116   4.614   4.311  10.108  0.9157 -0.0993 -0.4870
  735MOL0     C99117   4.474   4.291  10.090 -1.0532 -0.4064  0.2944
  735MOL0     C99118   4.402   4.408  10.015  0.3760  0.1156  0.7245
  735MOL0     C99119   4.424   4.159  10.112  1.0293 -0.0416  0.5368
  735MOL0     C99120   4.277   4.115  10.098 -0.2179 -0.1120  0.0645
  735MOL0     O99121   4.246   3.985  10.121  0.5645  0.8333  0.6262
  735MOL0     C99122   4.121   3.947  10.136  0.2306  0.8708  0.9448
  735MOL0     C99123   4.030   4.013  10.217  0.0327  0.0569 -0.4461
  735MOL0     C99124   3.893   3.974  10.222 -1.2746  0.1254 -0.0116
  735MOL0     C99125   3.850   3.859  10.171  0.3020  0.5640  0.5332
  735MOL0     O99126   3.719   3.807  10.191 -0.0420  0.2793 -0.4498
  735MOL0     C99127   3.621   3.883  10.262  0.6467  0.8497  0.9727
  735MOL0     C99128   3.490   3.813  10.283  1.0926 -0.2065 -0.3904
  735MOL0     C99129   3.426   3.756  10.151 -0.0335  0.9345  0.2093
  735MOL0     C99130   3.310   3.667  10.194  0.0280  0.3795 -1.1099
  735MOL0     C99131   3.195   3.743  10.250 -0.1929 -0.6966  0.2808
  735MOL0     C99132   3.082   3.639  10.262 -0.1963  0.0454  0.3144
  735MOL0     C99133   2.942   3.697  10.244  0.3613  0.4235  0.7731
  735MOL0     C99134   2.925   3.816  10.338  0.1331  0.2114 -0.4212
  735MOL0    Cl99135   2.935   3.746  10.500 -0.4109 -0.0366 -0.0392
  735MOL0     C99136   3.942   3.779  10.102  0.1395 -0.3206  0.4479
  735MOL0     C99137   4.078   3.817  10.086 -0.4648  0.1288 -0.9077
  735MOL0     O99138   4.199   4.206  10.078 -0.6228  0.5522 -0.0044
  735MOL0     C99139   4.515   4.070  10.160  0.3546 -0.1346 -0.6489
  735MOL0     C99140   4.646   4.087  10.187  0.2203  0.3271  0.1649
  735MOL0     N99141   5.221   4.040   9.975 -0.2664 -0.1142 -0.6433
  735MOL0     N99142   5.325   3.966   9.976 -0.0998 -0.4289  0.1633
  735MOL0     C99143   6.211   4.145  10.114 -0.6425 -0.8604 -0.4841
  735MOL0     C99144   6.265   4.231  10.214 -0.1055 -0.1041  0.4047
  735MOL0     C99145   6.448   4.362  10.635  0.2274  0.2677  0.1435
  735MOL0     C99146   6.511   4.472  10.578  0.1723 -0.0430 -0.6736
  735MOL0     C99147   6.535   4.581  10.671  0.4070  0.0068 -0.2273
  735MOL0     C99148   6.527   4.570  10.806  0.3668 -0.1147 -0.9223
  735MOL0     O99149   6.552   4.682  10.887  0.5130  0.3280  0.6314
  735MOL0     C99150   6.485   4.698  11.013 -0.4020 -0.2715 -0.1721
  735MOL0     C99151   6.524   4.841  11.051  0.2219 -0.1365  0.0227
  735MOL0     C99152   6.499   4.879  11.196  0.5383  0.7795  0.1689
  735MOL0     C99153   6.399   4.993  11.210 -0.6285 -0.7578  0.4459
  735MOL0     C99154   6.257   4.972  11.161  0.7067 -0.6657 -0.5342
  735MOL0     C99155   6.145   4.935  11.134 -0.0782  0.4018  0.1561
  735MOL0     C99156   6.462   4.460  10.862 -0.1723  0.4359  0.7465
  735MOL0     C99157   6.416   4.353  10.779 -0.4570 -0.2286  0.7311
  735MOL0     H99158   6.530   4.048  10.324 -1.4815 -0.4784  1.7109
  735MOL0     H99159   6.454   3.916  10.122  0.3547 -0.3080 -0.3397
  735MOL0     H99160   6.379   3.807   9.931  0.7190 -0.5625  1.5342
  735MOL0     H99161   6.241   3.781  10.047  1.8731  0.6121 -0.9618
  735MOL0     H99162   6.235   3.842   9.755  0.8440 -0.2788 -0.6127
  735MOL0     H99163   6.211   3.683   9.799  2.0970  0.0895  0.5338
  735MOL0     H99164   5.991   3.708   9.842  0.8835 -1.1111  3.0545
  735MOL0     H99165   6.011   3.843   9.955 -2.2983  0.5526 -0.9132
  735MOL0     H99166   6.036   4.015   9.772  1.8072 -1.2330  1.2119
  735MOL0     H99167   6.016   3.895   9.647 -0.4191 -0.1977 -0.6850
  735MOL0     H99168   5.794   4.022   9.695  0.6752 -0.3030 -1.6467
  735MOL0     H99169   5.774   3.856   9.705  0.1924 -0.5918  0.3345
  735MOL0     H99170   5.769   3.832   9.938  0.8942  0.0978  0.0621
  735MOL0     H99171   5.837   3.993   9.963  5.7532 -2.0928 -4.7146
  735MOL0     H99172   5.651   4.106   9.871  0.0078  0.2962  1.1195
  735MOL0     H99173   5.570   3.957   9.813  1.3610 -0.0353 -0.9770
  735MOL0     H99174   5.625   4.001  10.114  0.3073  1.2209  0.0987
  735MOL0     H99175   5.556   3.861  10.030  3.0604 -0.3350  0.9322
  735MOL0     H99176   5.453   4.228  10.115 -1.0867  0.4322  0.0583
  735MOL0     H99177   5.247   4.371   9.998 -0.5994  1.6025  1.0356
  735MOL0     H99178   5.096   4.274   9.987  0.7873 -0.2522 -1.4064
  735MOL0     H99179   5.115   4.411  10.198 -3.1329 -1.0235  0.5149
  735MOL0     H99180   5.262   4.317  10.236  0.1564  4.9238 -0.6871
  735MOL0     H99181   5.029   4.278  10.351  0.1691  2.4498 -1.8433
  735MOL0     H99182   5.125   4.135  10.311 -1.2919  1.5277  1.9381
  735MOL0     H99183   4.896   4.079  10.272 -2.0252  1.7728  1.0598
  735MOL0     H99184   4.965   4.098  10.117 -0.4931 -1.3575  1.6173
  735MOL0     H99185   4.671   4.401  10.085  1.3697  0.0778  1.1972
  735MOL0     H99186   4.478   4.470   9.967  3.0051 -0.6504  3.6636
  735MOL0     H99187   4.336   4.380   9.932  0.2293 -0.7647  1.1266
  735MOL0     H99188   4.344   4.465  10.087 -2.0771 -2.3196  0.8624
  735MOL0     H99189   4.081   4.085  10.280  1.7022 -1.2478 -0.2379
  735MOL0     H99190   3.825   4.038  10.278  0.7672 -0.0282  2.8545
  735MOL0     H99191   3.659   3.917  10.359  0.9247 -6.3069  3.9997
  735MOL0     H99192   3.588   3.965  10.197  0.3489  0.1258  0.2022
  735MOL0     H99193   3.506   3.739  10.362 -0.8100 -1.0085 -0.6963
  735MOL0     H99194   3.421   3.890  10.320  1.1118  0.4630 -1.6841
  735MOL0     H99195   3.500   3.703  10.089  0.0562  1.5717 -0.2468
  735MOL0     H99196   3.395   3.846  10.097  0.8858  0.9457 -0.3324
  735MOL0     H99197   3.288   3.602  10.109  0.9696 -1.6690  0.1514
  735MOL0     H99198   3.344   3.590  10.263  1.5939 -0.0999 -2.3611
  735MOL0     H99199   3.162   3.815  10.176 -1.3397  0.6527  2.0082
  735MOL0     H99200   3.211   3.800  10.342 -2.3158 -0.7306  0.7295
  735MOL0     H99201   3.099   3.552  10.198 -1.6412 -0.0891  0.0663
  735MOL0     H99202   3.074   3.586  10.357 -0.0037  1.4610  1.1496
  735MOL0     H99203   2.856   3.630  10.251  0.4378  0.4676  5.0022
  735MOL0     H99204   2.932   3.736  10.142  0.6706 -0.6818  0.3008
  735MOL0     H99205   2.823   3.854  10.334 -0.3651 -0.7096  1.7940
  735MOL0     H99206   2.992   3.900  10.320  1.1726  0.7568  4.4262
  735MOL0     H99207   3.901   3.695  10.047  0.1025  0.6870 -1.1400
  735MOL0     H99208   4.153   3.757  10.035 -2.2693 -2.2922 -0.9329
  735MOL0     H99209   4.480   3.970  10.182 -3.5417  1.1795  0.0013
  735MOL0     H99210   4.711   4.010  10.230 -0.3538  0.8911  2.1769
  735MOL0     H99211   6.130   4.174  10.048  0.2156 -2.3632 -2.2685
  735MOL0     H99212   6.234   4.335  10.223  3.9124  1.2747  0.2731
  735MOL0     H99213   6.530   4.494  10.473  0.3343  1.4807 -0.3325
  735MOL0     H99214   6.583   4.668  10.627  0.3070 -0.6873 -1.7774
  735MOL0     H99215   6.376   4.690  11.017 -0.8710  3.9771  2.2681
  735MOL0     H99216   6.529   4.626  11.082 -0.3518  0.7011  0.8501
  735MOL0     H99217   6.475   4.907  10.979 -0.6175 -0.1691  0.5440
  735MOL0     H99218   6.629   4.861  11.029 -0.1835  0.3577 -1.5568
  735MOL0     H99219   6.592   4.912  11.245  0.3012  1.5150  0.1330
  735MOL0     H99220   6.465   4.789  11.250 -1.8568  1.1282 -0.6633
  735MOL0     H99221   6.439   5.083  11.161  1.1447 -1.5067  0.4395
  735MOL0     H99222   6.405   5.026  11.314  2.7575  2.0960 -0.4447
  735MOL0     H99223   6.045   4.902  11.113 -0.8372  1.4418  1.8847
  735MOL0     H99224   6.429   4.447  10.964 -3.4106 -2.8037 -0.4813
  735MOL0     H99225   6.355   4.279  10.829  0.5456 -2.5591 -1.2727
  736MOL0     O99226   5.414   7.603   8.414  0.4755  0.4147  0.0769
  736MOL0     C99227   5.513   7.623   8.485  0.4604  0.3409  0.0374
  736MOL0     O99228   5.529   7.595   8.614 -0.8726 -0.3066  0.1575
  736MOL0     C99229   5.412   7.562   8.690  0.1236  0.4765 -0.4186
  736MOL0     C99230   5.320   7.464   8.652  0.2274  0.0164 -0.2928
  736MOL0     C99231   5.206   7.435   8.728 -0.7686 -1.4382  0.3976
  736MOL0     C99232   5.180   7.521   8.840 -0.4030 -0.0997  0.2916
  736MOL0     O99233   5.062   7.488   8.911 -0.3570 -0.4355  0.1598
  736MOL0     C99234   5.001   7.590   8.995 -0.7255  0.2780  0.6396
  736MOL0     C99235   4.864   7.545   9.040 -0.4746  0.6182 -0.1034
  736MOL0     C99236   4.761   7.541   8.930 -0.1141 -0.2865 -0.8149
  736MOL0     C99237   4.772   7.436   8.824  0.3206  1.0869 -0.1032
  736MOL0     C99238   4.645   7.449   8.733 -0.4521  0.2750  0.3457
  736MOL0     C99239   4.640   7.329   8.640  0.1209 -0.0818 -0.6321
  736MOL0     C99240   4.533   7.355   8.536  0.4313  0.0491 -0.4572
  736MOL0     C99241   4.529   7.240   8.439  0.4933 -0.1330  0.4420
  736MOL0     N99242   4.441   7.128   8.474 -0.1913 -0.4214 -0.4723
  736MOL0     C99243   4.322   7.086   8.416 -0.6150  0.2631 -0.0421
  736MOL0     C99244   4.285   6.978   8.475  0.3582 -0.6209  0.3357
  736MOL0     C99245   4.169   6.888   8.440  1.3503  0.6720 -0.1942
  736MOL0     C99246   4.186   6.737   8.470 -0.3225 -0.3820  0.1343
  736MOL0     C99247   4.068   6.662   8.413 -0.2361  0.2142 -0.6397
  736MOL0     C99248   3.999   6.577   8.519  0.0313 -0.9393 -1.0236
  736MOL0     O99249   3.868   6.628   8.546  0.8248  0.6909  0.0570
  736MOL0     C99250   3.752   6.571   8.484 -0.3299  0.3004  0.8548
  736MOL0     C99251   3.745   6.507   8.362 -0.1105  0.0937  0.3471
  736MOL0     C99252   3.621   6.442   8.317  0.1052  0.0481 -0.1153
  736MOL0     C99253   3.641   6.361   8.190 -0.5215 -0.7142  0.0955
  736MOL0     C99254   3.503   6.443   8.391 -0.1019 -0.2942 -0.8458
  736MOL0     C99255   3.376   6.377   8.351 -0.5282  0.2916  0.3435
  736MOL0     O99256   3.291   6.336   8.453 -0.1735 -0.4183  0.5839
  736MOL0     C99257   3.191   6.251   8.409 -0.4933 -0.5719 -0.2054
  736MOL0     C99258   3.064   6.295   8.392 -0.9990 -0.6772 -0.7476
  736MOL0     C99259   2.959   6.211   8.376 -0.0172  0.2898  0.3996
  736MOL0     C99260   2.988   6.073   8.359  0.5978 -0.4418 -0.3717
  736MOL0     O99261   2.885   5.990   8.315  0.7154 -0.2804  0.4892
  736MOL0     C99262   2.881   5.850   8.341 -0.3022 -0.3310 -0.7293
  736MOL0     C99263   2.734   5.802   8.366 -0.1240  0.0735  0.7438
  736MOL0     C99264   2.660   5.872   8.477  0.2490  0.6757 -0.1998
  736MOL0     C99265   2.512   5.830   8.483 -0.2906 -0.5474 -0.4582
  736MOL0     C99266   2.437   5.901   8.364 -0.4186 -0.0871 -0.2468
  736MOL0     C99267   2.294   5.852   8.373 -0.7009  0.8152 -0.1571
  736MOL0     C99268   2.203   5.942   8.290 -0.5067  0.4351  0.0350
  736MOL0     C99269   2.062   5.891   8.309 -0.5180  0.4849  0.0197
  736MOL0    Cl99270   1.943   5.943   8.184 -0.4199  0.1776 -0.3300
  736MOL0     C99271   3.122   6.027   8.369  0.0791 -0.6961  0.3489
  736MOL0     C99272   3.216   6.113   8.406 -0.1471 -1.4787 -0.1428
  736MOL0     O99273   3.349   6.377   8.230 -0.1831 -0.6674 -0.3647
  736MOL0     C99274   3.512   6.526   8.508  0.5424  0.3718  1.1155
  736MOL0     C99275   3.635   6.575   8.562  0.0249 -0.1114 -0.5309
  736MOL0     N99276   4.370   6.948   8.576 -0.7448  0.6734 -0.0748
  736MOL0     N99277   4.470   7.039   8.575 -0.3302  0.1979 -0.2681
  736MOL0     C99278   5.272   7.626   8.878 -0.3325  0.3360  0.0974
  736MOL0     C99279   5.387   7.646   8.811  0.6521  0.1167  0.1746
  736MOL0     C99280   5.616   7.701   8.413 -0.6737  0.1508  0.0308
  736MOL0     C99281   5.594   7.743   8.279 -0.0090  0.0645 -0.0426
  736MOL0     C99282   5.694   7.813   8.211  0.3434 -0.4540  0.3013
  736MOL0     C99283   5.807   7.856   8.276 -0.8056 -0.2652  0.7094
  736MOL0     O99284   5.904   7.910   8.192  0.5283 -0.6177  0.4977
  736MOL0     C99285   6.038   7.951   8.240 -0.6136  0.2307 -0.1045
  736MOL0     C99286   6.094   8.037   8.129 -0.2160  0.8635  0.1470
  736MOL0     C99287   5.991   8.154   8.096 -0.1284 -0.5571  0.2087
  736MOL0     C99288   6.039   8.236   7.973  0.1288 -0.3712  0.6236
  736MOL0     C99289   5.970   8.176   7.857  0.4909 -0.5887  0.2942
  736MOL0     C99290   5.908   8.105   7.777  0.1133 -0.2385  0.0625
  736MOL0     C99291   5.834   7.811   8.403  0.6603 -0.6998 -0.4643
  736MOL0     C99292   5.742   7.731   8.472 -0.4986  0.4348 -0.0399
  736MOL0     H99293   5.327   7.394   8.570 -1.7666 -2.1541  1.2557
  736MOL0     H99294   5.138   7.355   8.703 -0.9496 -1.4636  0.9698
  736MOL0     H99295   5.065   7.608   9.082  1.4245  0.9698 -1.0055
  736MOL0     H99296   4.997   7.689   8.949  1.4866 -0.2496 -0.8701
  736MOL0     H99297   4.866   7.445   9.085 -0.7789 -0.1057 -1.6440
  736MOL0     H99298   4.835   7.616   9.119 -1.1913 -1.8499  2.0016
  736MOL0     H99299   4.657   7.540   8.963 -1.2009  2.1244 -3.6805
  736MOL0     H99300   4.776   7.635   8.875  1.3116 -0.9769 -1.6526
  736MOL0     H99301   4.866   7.438   8.768  1.3401 -0.7317  1.4467
  736MOL0     H99302   4.759   7.337   8.869 -2.5473  1.4006 -0.0793
  736MOL0     H99303   4.546   7.462   8.777 -1.6524 -0.1005 -2.0784
  736MOL0     H99304   4.661   7.534   8.665  0.6130 -0.1092  0.0971
  736MOL0     H99305   4.737   7.312   8.592  0.3161  0.6031 -0.4809
  736MOL0     H99306   4.621   7.239   8.699  0.3139  1.4434  1.9074
  736MOL0     H99307   4.438   7.353   8.590  0.2266 -1.9885 -0.7777
  736MOL0     H99308   4.572   7.445   8.487  0.5638 -1.0627 -2.5242
  736MOL0     H99309   4.630   7.200   8.426  0.5385 -0.0942  0.6747
  736MOL0     H99310   4.508   7.285   8.341  1.5991  0.1780  0.3313
  736MOL0     H99311   4.275   7.142   8.334  1.4620 -0.3578 -1.7489
  736MOL0     H99312   4.075   6.915   8.487 -1.2801 -2.8850 -2.8216
  736MOL0     H99313   4.147   6.892   8.333 -2.4057 -1.1496  0.3601
  736MOL0     H99314   4.197   6.726   8.579  1.0480  1.3870  0.2150
  736MOL0     H99315   4.276   6.700   8.420  0.1500  2.9562 -1.7463
  736MOL0     H99316   4.118   6.601   8.337  3.7704  0.9789  1.1056
  736MOL0     H99317   3.998   6.729   8.363 -0.4640  2.5477  2.4710
  736MOL0     H99318   4.054   6.579   8.613 -1.6335  2.1764  0.0568
  736MOL0     H99319   3.985   6.474   8.485 -3.0958 -0.2919 -2.0681
  736MOL0     H99320   3.825   6.482   8.294 -1.3881  0.5535 -1.4232
  736MOL0     H99321   3.555   6.348   8.124 -0.7996 -1.9919  0.6640
  736MOL0     H99322   3.711   6.404   8.119  0.3778  2.8377  2.8481
  736MOL0     H99323   3.677   6.262   8.219  2.3595  0.2207  0.0190
  736MOL0     H99324   3.045   6.401   8.398 -2.2466 -0.9462  0.7348
  736MOL0     H99325   2.859   6.251   8.361 -1.1740 -1.2997  3.1363
  736MOL0     H99326   2.924   5.782   8.268  1.7607  1.9274 -1.7380
  736MOL0     H99327   2.927   5.833   8.439  2.0893  3.3398 -1.0372
  736MOL0     H99328   2.674   5.805   8.274  1.2481  1.2382 -0.1564
  736MOL0     H99329   2.745   5.697   8.393  1.8423 -0.3798 -1.4803
  736MOL0     H99330   2.669   5.980   8.471 -2.5439  1.3616  3.7270
  736MOL0     H99331   2.708   5.836   8.568  1.1255  0.9933 -0.5327
  736MOL0     H99332   2.519   5.721   8.483  2.1764 -0.5597 -3.9547
  736MOL0     H99333   2.468   5.861   8.578  2.6012  0.8695  0.5420
  736MOL0     H99334   2.493   5.895   8.270 -0.9176 -0.7361 -0.5102
  736MOL0     H99335   2.432   6.009   8.384 -0.2447  0.1331 -1.2894
  736MOL0     H99336   2.295   5.748   8.341  2.9925  0.1963  1.4137
  736MOL0     H99337   2.255   5.866   8.474 -0.9702  1.0850 -0.2975
  736MOL0     H99338   2.228   5.945   8.184  0.6100  1.0069  0.3010
  736MOL0     H99339   2.211   6.047   8.320  3.2725  0.5354 -0.8315
  736MOL0     H99340   2.025   5.909   8.411 -0.1337 -1.0735  0.4626
  736MOL0     H99341   2.060   5.782   8.304  2.3641  0.3725  0.0097
  736MOL0     H99342   3.142   5.923   8.346  0.6671 -0.5718  0.2973
  736MOL0     H99343   3.314   6.070   8.424  1.0787  1.3295  0.3876
  736MOL0     H99344   3.424   6.538   8.571  0.7774 -2.0848  2.0182
  736MOL0     H99345   3.645   6.615   8.662  3.9397 -1.1810 -0.3044
  736MOL0     H99346   5.251   7.675   8.973 -0.8037  0.6588 -0.1653
  736MOL0     H99347   5.452   7.731   8.833  1.5408 -0.4226 -0.3242
  736MOL0     H99348   5.503   7.712   8.229 -1.3804 -1.1351  2.9420
  736MOL0     H99349   5.681   7.833   8.105 -1.0273  1.5482  0.7794
  736MOL0     H99350   6.025   8.008   8.333 -1.6446  0.1738 -0.2067
  736MOL0     H99351   6.093   7.862   8.272 -1.1357  0.4801  1.5967
  736MOL0     H99352   6.113   7.971   8.044 -0.4942 -1.2622  1.6629
  736MOL0     H99353   6.191   8.081   8.154  1.0502 -1.6578 -0.0753
  736MOL0     H99354   6.010   8.222   8.180 -0.7483  1.2272 -1.0274
  736MOL0     H99355   5.884   8.133   8.092 -0.1179 -0.8169  1.1958
  736MOL0     H99356   6.149   8.243   7.974  0.3599 -2.2026 -2.0971
  736MOL0     H99357   6.004   8.339   7.984  0.5130 -0.2652  0.8714
  736MOL0     H99358   5.867   8.046   7.697 -2.1872  3.0204 -1.4106
  736MOL0     H99359   5.927   7.836   8.453 -0.8144  1.1478  1.5988
  736MOL0     H99360   5.763   7.687   8.569 -1.8756 -0.1080  0.0395
  737MOL0     O99361   5.862   7.490   6.851  0.2134 -0.5123  0.0812
  737MOL0     C99362   5.839   7.536   6.740  1.1528 -0.9591 -0.1028
  737MOL0     O99363   5.770   7.468   6.641  0.1853 -0.7276  0.2010
  737MOL0     C99364   5.727   7.339   6.650 -0.1373 -0.0479 -0.2915
  737MOL0     C99365   5.607   7.314   6.603 -0.2625 -1.1442 -0.5562
  737MOL0     C99366   5.549   7.187   6.602  0.2925  0.0562  0.4601
  737MOL0     C99367   5.626   7.079   6.637 -1.1492  0.7798 -0.1968
  737MOL0     O99368   5.575   6.956   6.608 -0.0927  0.6815 -0.2703
  737MOL0     C99369   5.462   6.919   6.683  0.9183 -0.2689  0.5106
  737MOL0     C99370   5.463   6.770   6.725 -0.0994  0.3939  0.8359
  737MOL0     C99371   5.585   6.752   6.824 -0.2196 -0.4090 -1.1400
  737MOL0     C99372   5.580   6.850   6.945 -0.2638 -0.5196  0.0691
  737MOL0     C99373   5.691   6.814   7.045 -0.1194 -0.4201  0.3224
  737MOL0     C99374   5.828   6.868   7.003 -0.0377  0.4458 -1.0288
  737MOL0     C99375   5.837   7.022   7.016 -0.0500  0.1739  0.0253
  737MOL0     C99376   5.943   7.071   7.125  0.2415  0.0796  0.1405
  737MOL0     N99377   5.909   7.029   7.264  0.9291 -1.3080  0.0479
  737MOL0     C99378   5.805   7.070   7.336  0.0481  0.0413  0.5836
  737MOL0     C99379   5.800   6.992   7.449  0.8397  0.4421  0.1280
  737MOL0     C99380   5.692   7.000   7.550 -0.4905 -0.4136  0.1008
  737MOL0     C99381   5.574   6.925   7.505  0.8079 -0.2517  0.1543
  737MOL0     C99382   5.469   6.919   7.618  0.5118 -0.3373  0.1053
  737MOL0     C99383   5.346   6.853   7.555  1.5521  0.6317  0.0984
  737MOL0     O99384   5.242   6.938   7.503 -0.1358 -0.0824  0.1989
  737MOL0     C99385   5.115   6.886   7.491 -0.8325  0.1469  1.0602
  737MOL0     C99386   5.082   6.755   7.501 -0.5413 -0.0436  0.4980
  737MOL0     C99387   4.949   6.700   7.497 -0.2825  0.0896  0.5182
  737MOL0     C99388   4.945   6.547   7.477  0.3133 -0.9040 -0.2031
  737MOL0     C99389   4.833   6.789   7.496 -0.3819 -0.0193  0.4604
  737MOL0     C99390   4.694   6.747   7.495  0.3560  0.3629  0.4988
  737MOL0     O99391   4.603   6.844   7.528 -0.4720  0.4477 -0.7638
  737MOL0     C99392   4.464   6.824   7.528 -0.4956 -0.4178  0.4898
  737MOL0     C99393   4.392   6.874   7.628 -0.7488  0.0559 -0.0898
  737MOL0     C99394   4.255   6.860   7.636  0.6025  0.0039  0.2683
  737MOL0     C99395   4.179   6.793   7.542 -0.0895  0.7439  0.9320
  737MOL0     O99396   4.046   6.783   7.552  0.3720 -0.5759  0.1481
  737MOL0     C99397   3.968   6.774   7.431 -0.1952  0.2833 -0.3446
  737MOL0     C99398   3.928   6.629   7.399  0.1193  0.9503 -0.6575
  737MOL0     C99399   3.815   6.581   7.492 -0.3590 -0.2735  0.6039
  737MOL0     C99400   3.753   6.451   7.427 -0.0969 -0.1993  0.3253
  737MOL0     C99401   3.628   6.401   7.505  0.1904 -1.5482 -0.2776
  737MOL0     C99402   3.572   6.280   7.426 -0.6522 -0.1554  0.2365
  737MOL0     C99403   3.424   6.271   7.457 -0.3983  0.3889 -0.3104
  737MOL0     C99404   3.360   6.139   7.400 -0.0240 -0.0050 -0.1746
  737MOL0    Cl99405   3.391   5.989   7.513 -0.0018 -0.0598 -0.0339
  737MOL0     C99406   4.257   6.731   7.437  0.3443  0.1731 -0.4662
  737MOL0     C99407   4.400   6.748   7.438 -0.6165 -0.0263 -0.0328
  737MOL0     O99408   4.670   6.632   7.465  0.5616  1.2772 -0.1512
  737MOL0     C99409   4.869   6.928   7.486 -0.1518  0.0860 -0.2245
  737MOL0     C99410   5.001   6.976   7.479  0.5663  0.6460  0.4716
  737MOL0     N99411   5.898   6.899   7.429  0.2618  0.2121 -0.2821
  737MOL0     N99412   5.966   6.926   7.325 -0.4528  0.0466 -0.4149
  737MOL0     C99413   5.759   7.104   6.676 -0.2895  0.2459 -1.9083
  737MOL0     C99414   5.813   7.232   6.700  0.2584 -0.0519  0.2873
  737MOL0     C99415   5.882   7.683   6.712  0.4379  0.6271  0.7764
  737MOL0     C99416   5.942   7.763   6.812 -0.2571  0.8977 -0.0266
  737MOL0     C99417   5.976   7.894   6.793  0.5010 -0.2323 -0.1963
  737MOL0     C99418   5.951   7.962   6.676  0.3868  0.0817 -0.0902
  737MOL0     O99419   5.993   8.098   6.658  0.5574  0.9261 -0.7719
  737MOL0     C99420   5.996   8.169   6.535 -0.1321  0.6365  0.4474
  737MOL0     C99421   6.139   8.151   6.477  0.7089 -0.0898  0.1001
  737MOL0     C99422   6.245   8.227   6.554  0.7327 -0.7741 -0.1126
  737MOL0     C99423   6.379   8.209   6.489 -0.5060 -0.1894 -0.4738
  737MOL0     C99424   6.472   8.253   6.590 -0.4685 -0.3509 -0.6782
  737MOL0     C99425   6.542   8.283   6.688  0.0524  0.5812  0.1701
  737MOL0     C99426   5.895   7.879   6.573 -0.2070  0.2570 -0.0311
  737MOL0     C99427   5.855   7.748   6.595  0.5550  0.6579  1.1547
  737MOL0     H99428   5.559   7.402   6.562  0.7478 -0.6088 -0.6111
  737MOL0     H99429   5.452   7.159   6.563  1.0385 -1.4462 -0.4076
  737MOL0     H99430   5.442   6.978   6.773 -2.6106 -0.6315  0.1299
  737MOL0     H99431   5.374   6.939   6.621  0.8280 -1.0692  0.3669
  737MOL0     H99432   5.364   6.744   6.763  0.3305 -2.7796  0.1004
  737MOL0     H99433   5.486   6.704   6.641 -2.0318 -2.6422  2.4990
  737MOL0     H99434   5.595   6.645   6.845 -0.8965 -0.6606 -2.0502
  737MOL0     H99435   5.680   6.772   6.774  0.1986 -1.0127 -0.6092
  737MOL0     H99436   5.586   6.954   6.912 -2.2606 -0.1152  0.8695
  737MOL0     H99437   5.485   6.840   6.997 -0.3243 -2.0603 -0.2989
  737MOL0     H99438   5.653   6.854   7.140 -0.9520  1.0814 -0.6098
  737MOL0     H99439   5.698   6.705   7.040  0.0294 -0.3676 -3.0456
  737MOL0     H99440   5.907   6.826   7.066  0.8756  0.0736 -2.3806
  737MOL0     H99441   5.864   6.833   6.906  1.6190  1.2559 -0.7360
  737MOL0     H99442   5.867   7.073   6.924 -2.4363 -0.0609 -0.9661
  737MOL0     H99443   5.741   7.054   7.055 -0.1413 -1.8101  1.5679
  737MOL0     H99444   5.939   7.181   7.124 -3.2703  0.1322 -2.6263
  737MOL0     H99445   6.043   7.039   7.096  0.4633  2.6206 -2.3841
  737MOL0     H99446   5.745   7.157   7.313 -0.4588 -0.4577 -0.0223
  737MOL0     H99447   5.743   6.963   7.640  0.7666 -2.9536 -1.5266
  737MOL0     H99448   5.665   7.105   7.564  2.2118  0.2628  0.8373
  737MOL0     H99449   5.614   6.824   7.492  2.9064  0.6196 -0.6364
  737MOL0     H99450   5.537   6.956   7.407  3.1211 -0.7393 -0.9370
  737MOL0     H99451   5.434   7.019   7.642 -0.1119  0.3751 -3.2475
  737MOL0     H99452   5.519   6.870   7.702  0.6745 -1.6341 -0.7171
  737MOL0     H99453   5.293   6.794   7.630  1.0755  0.1107 -0.6283
  737MOL0     H99454   5.380   6.789   7.473  3.5522 -0.3669  1.6286
  737MOL0     H99455   5.159   6.680   7.491  1.0697  1.7294 -1.3359
  737MOL0     H99456   5.037   6.490   7.493  1.7681  1.4359  0.2022
  737MOL0     H99457   4.876   6.506   7.552  2.3052 -0.7489  1.8033
  737MOL0     H99458   4.904   6.513   7.382  0.6588 -4.5250  0.7924
  737MOL0     H99459   4.441   6.935   7.703  2.4380 -0.8078 -1.3050
  737MOL0     H99460   4.209   6.915   7.718  1.8023  0.7763  0.4528
  737MOL0     H99461   3.874   6.827   7.450 -2.0491 -2.7906 -0.2667
  737MOL0     H99462   4.015   6.822   7.345 -0.3774  1.6348  0.2898
  737MOL0     H99463   3.899   6.632   7.294  1.6387  0.3891 -1.1209
  737MOL0     H99464   4.007   6.556   7.417 -1.0428  0.0805  1.2421
  737MOL0     H99465   3.731   6.651   7.491 -0.0350  0.1438  1.5849
  737MOL0     H99466   3.845   6.571   7.596  0.9847  2.2915  0.5533
  737MOL0     H99467   3.726   6.479   7.325  2.6683  2.7629  0.2347
  737MOL0     H99468   3.829   6.372   7.429  1.8561  1.5863  0.6254
  737MOL0     H99469   3.552   6.480   7.505  1.4760 -0.2530 -1.2479
  737MOL0     H99470   3.668   6.378   7.604  1.1978  1.0008 -0.0266
  737MOL0     H99471   3.586   6.302   7.320  0.0442  3.0130  0.8907
  737MOL0     H99472   3.631   6.198   7.468  1.2304  1.9544  1.9930
  737MOL0     H99473   3.367   6.352   7.413  0.5531  0.3900 -1.5907
  737MOL0     H99474   3.396   6.269   7.563 -1.3409  0.1084 -0.5603
  737MOL0     H99475   3.387   6.116   7.297 -0.6872 -0.8874 -0.1681
  737MOL0     H99476   3.252   6.154   7.393 -0.0097  0.2856  0.1611
  737MOL0     H99477   4.208   6.661   7.371 -2.7372  0.7510  1.0330
  737MOL0     H99478   4.455   6.713   7.351 -1.4351  0.1595 -0.6352
  737MOL0     H99479   4.792   7.004   7.480 -0.4909 -0.3244 -1.5173
  737MOL0     H99480   5.017   7.083   7.465  3.0258  0.5348  1.9339
  737MOL0     H99481   5.828   7.020   6.682 -2.3665 -1.4744 -0.3953
  737MOL0     H99482   5.912   7.262   6.733  0.0714  1.3823 -0.3418
  737MOL0     H99483   5.976   7.716   6.903  2.7226 -0.0988 -1.5204
  737MOL0     H99484   6.028   7.951   6.869 -0.4628  1.0613 -0.4711
  737MOL0     H99485   5.918   8.131   6.468  1.8121 -1.2019 -0.9090
  737MOL0     H99486   5.976   8.275   6.553 -1.9163  1.1165 -3.4005
  737MOL0     H99487   6.144   8.198   6.378 -1.3304  3.5936  1.4975
  737MOL0     H99488   6.175   8.049   6.482  0.6330 -0.0584  2.6300
  737MOL0     H99489   6.244   8.190   6.657 -2.4388 -0.8614 -0.1014
  737MOL0     H99490   6.215   8.331   6.573 -2.2166 -1.8668  1.8292
  737MOL0     H99491   6.389   8.262   6.394  0.2769 -0.7653 -0.7251
  737MOL0     H99492   6.401   8.103   6.473 -0.6141 -0.3619  0.4713
  737MOL0     H99493   6.596   8.320   6.772 -2.0189 -1.4718  2.5582
  737MOL0     H99494   5.890   7.913   6.469  0.1963  0.7638  0.1110
  737MOL0     H99495   5.813   7.688   6.516  4.2173  0.1064 -0.5616
  738MOL0     O99496   2.263  11.302   2.968 -0.2497 -0.4895  0.1544
  738MOL0     C99497   2.307  11.314   2.851 -0.2453  0.8441 -0.5216
  738MOL0     O99498   2.260  11.256   2.741  0.3863  0.7126 -0.7188
  738MOL0     C99499   2.128  11.216   2.740  0.2434  0.5127 -0.6507
  738MOL0     C99500   2.057  11.254   2.635  0.0115  0.1194 -0.6418
  738MOL0     C99501   1.934  11.198   2.604 -0.5446  0.2227  0.0670
  738MOL0     C99502   1.884  11.096   2.682  0.7018  0.8908  0.2289
  738MOL0     O99503   1.760  11.044   2.653  0.6667  0.1511  0.6492
  738MOL0     C99504   1.659  11.102   2.736  0.5283  0.1262  0.0385
  738MOL0     C99505   1.542  11.012   2.744  0.5390 -0.3744  1.0148
  738MOL0     C99506   1.417  11.093   2.769 -0.1605  0.5724  0.2267
  738MOL0     C99507   1.420  11.144   2.914  0.3705 -1.4568  0.6496
  738MOL0     C99508   1.321  11.256   2.946  0.1619 -0.1480  0.5663
  738MOL0     C99509   1.291  11.274   3.097 -0.8489  0.2447 -0.2914
  738MOL0     C99510   1.176  11.366   3.140  0.2861 -0.2085 -1.3553
  738MOL0     C99511   1.189  11.518   3.108  0.6292 -0.0477  0.1574
  738MOL0     N99512   1.060  11.595   3.087  0.3430 -0.5729  0.1701
  738MOL0     C99513   1.009  11.626   2.964  0.1042 -0.1013  0.2120
  738MOL0     C99514   0.891  11.697   2.979  0.2056  0.1308 -0.9347
  738MOL0     C99515   0.792  11.740   2.872 -0.4908  0.0655  0.1879
  738MOL0     C99516   0.690  11.836   2.918 -0.1484 -0.3284 -0.1931
  738MOL0     C99517   0.580  11.843   2.800 -0.6224  0.9990 -0.4458
  738MOL0     C99518   0.453  11.910   2.844  0.2738  0.3888  0.7128
  738MOL0     O99519   0.371  11.917   2.738 -0.9716  0.4361 -0.1850
  738MOL0     C99520   0.268  12.015   2.756  0.5852  0.7595 -0.1101
  738MOL0     C99521   0.193  12.040   2.637  0.2099  0.4334 -1.3990
  738MOL0     C99522   0.078  12.121   2.640  1.4236  0.1489  0.1574
  738MOL0     C99523  -0.002  12.125   2.511  0.0608 -0.4797 -0.1124
  738MOL0     C99524   0.041  12.185   2.757 -1.1136 -0.7911 -0.4286
  738MOL0     C99525  -0.062  12.289   2.762  0.1366  0.0537  0.3780
  738MOL0     O99526  -0.049  12.388   2.662  0.3477 -0.0974 -0.2624
  738MOL0     C99527  -0.172  12.463   2.647  0.2584  0.5770 -0.0028
  738MOL0     C99528  -0.172  12.595   2.629  0.6293 -0.3833 -0.3042
  738MOL0     C99529  -0.282  12.676   2.590 -0.4559  0.1141  1.1291
  738MOL0     C99530  -0.398  12.600   2.563  0.3735 -0.8739  0.2483
  738MOL0     O99531  -0.518  12.659   2.527 -0.4344 -0.2810 -0.7378
  738MOL0     C99532  -0.540  12.797   2.566  0.3060  0.0231  0.5371
  738MOL0     C99533  -0.683  12.815   2.601 -0.4855  0.0670  0.0857
  738MOL0     C99534  -0.694  12.965   2.631 -0.0217 -0.2903 -0.9518
  738MOL0     C99535  -0.842  12.994   2.664 -0.3614 -0.3542 -0.1191
  738MOL0     C99536  -0.868  13.140   2.707 -0.5435 -0.9481 -0.0704
  738MOL0     C99537  -1.019  13.164   2.741 -1.9939  0.5948  0.0839
  738MOL0     C99538  -1.035  13.301   2.819 -0.9970 -0.0598  0.3167
  738MOL0     C99539  -1.171  13.341   2.851  0.1785 -0.1087  0.2599
  738MOL0    Cl99540  -1.267  13.374   2.695  0.3791 -0.4134  0.1202
  738MOL0     C99541  -0.405  12.464   2.585 -0.9056 -0.1832  0.1245
  738MOL0     C99542  -0.291  12.400   2.620 -0.6100  0.0878 -0.0504
  738MOL0     O99543  -0.145  12.278   2.847 -0.3782 -1.0870 -1.3117
  738MOL0     C99544   0.106  12.159   2.879 -0.4687 -0.6108 -0.3519
  738MOL0     C99545   0.223  12.077   2.878  0.3314  0.8649 -0.1422
  738MOL0     N99546   0.867  11.683   3.116 -0.4194  0.1028 -0.2796
  738MOL0     N99547   0.968  11.626   3.173  0.4175 -0.0938 -0.5440
  738MOL0     C99548   1.956  11.051   2.790 -0.4862 -0.4287 -0.0089
  738MOL0     C99549   2.079  11.107   2.816  0.3370  0.3743  0.2416
  738MOL0     C99550   2.444  11.383   2.829  2.0580  0.3734  0.4215
  738MOL0     C99551   2.501  11.381   2.701 -0.3604 -0.4516 -1.3144
  738MOL0     C99552   2.627  11.450   2.692 -0.0027 -0.1418  0.2001
  738MOL0     C99553   2.696  11.506   2.798 -0.6202 -0.5172 -0.3406
  738MOL0     O99554   2.816  11.574   2.786  0.2358  0.0019  0.2448
  738MOL0     C99555   2.907  11.571   2.898  1.5866 -0.5000 -0.1391
  738MOL0     C99556   3.043  11.535   2.855  0.3456  1.2072 -0.2674
  738MOL0     C99557   3.070  11.386   2.886  0.6287  0.0565  0.3298
  738MOL0     C99558   3.206  11.338   2.835 -0.2076 -0.0997  0.4535
  738MOL0     C99559   3.221  11.338   2.682 -0.0279 -0.2052 -0.4333
  738MOL0     C99560   3.244  11.336   2.563 -0.2876 -0.7953  0.0147
  738MOL0     C99561   2.628  11.500   2.927  1.0280  0.1127  0.6170
  738MOL0     C99562   2.507  11.428   2.938  0.1049  0.7319 -1.3985
  738MOL0     H99563   2.087  11.348   2.589 -0.4763  0.0399 -1.1327
  738MOL0     H99564   1.881  11.218   2.511 -2.6496 -1.4620  0.8352
  738MOL0     H99565   1.702  11.121   2.835 -2.3117 -0.8303  1.5638
  738MOL0     H99566   1.629  11.198   2.693  0.9517  0.0644 -0.4006
  738MOL0     H99567   1.524  10.964   2.647 -0.1337 -0.2428  1.0724
  738MOL0     H99568   1.547  10.935   2.822 -0.6688 -0.6462  0.8319
  738MOL0     H99569   1.406  11.168   2.689 -1.5372 -0.6907 -0.8107
  738MOL0     H99570   1.328  11.030   2.770 -1.0784  1.7880  2.5806
  738MOL0     H99571   1.402  11.052   2.969  2.0701 -1.8282  0.6448
  738MOL0     H99572   1.521  11.169   2.949  0.2541 -1.2768  0.8617
  738MOL0     H99573   1.361  11.351   2.910  0.7117  0.3630  2.4185
  738MOL0     H99574   1.227  11.226   2.898 -1.5873  1.7485  2.5422
  738MOL0     H99575   1.278  11.174   3.139  2.3061  0.5063  1.6791
  738MOL0     H99576   1.377  11.321   3.146 -0.5720 -1.4300  0.9301
  738MOL0     H99577   1.087  11.320   3.095 -2.6589  1.1289  2.5890
  738MOL0     H99578   1.166  11.357   3.248 -0.2477  2.5979 -1.1059
  738MOL0     H99579   1.244  11.531   3.015  0.7050 -1.0089  0.0558
  738MOL0     H99580   1.247  11.569   3.186  2.7880  0.9402 -2.0026
  738MOL0     H99581   1.057  11.620   2.867 -0.2270  2.1303 -0.1632
  738MOL0     H99582   0.851  11.780   2.788 -0.5273 -0.4198 -0.0714
  738MOL0     H99583   0.742  11.649   2.840 -0.6887 -0.4595  1.9320
  738MOL0     H99584   0.731  11.937   2.931  0.3341 -0.8468  3.0915
  738MOL0     H99585   0.647  11.814   3.016  1.3195 -3.5378 -0.1303
  738MOL0     H99586   0.553  11.747   2.755 -2.9652  0.4220  1.9499
  738MOL0     H99587   0.620  11.900   2.716  3.6820  0.0139  0.6744
  738MOL0     H99588   0.469  12.009   2.887  3.2182  0.6264 -0.6930
  738MOL0     H99589   0.400  11.861   2.927 -3.2102  0.2839 -1.3478
  738MOL0     H99590   0.220  11.985   2.548  0.6800 -0.8115 -0.5129
  738MOL0     H99591   0.058  12.077   2.433  0.1711  0.7338 -0.8166
  738MOL0     H99592  -0.097  12.074   2.521  0.5204 -1.7075 -1.6591
  738MOL0     H99593  -0.010  12.230   2.480 -2.3059 -1.1894 -2.2378
  738MOL0     H99594  -0.079  12.647   2.649 -0.1361  1.0139 -0.2171
  738MOL0     H99595  -0.285  12.784   2.580  2.3625  0.2626  1.2208
  738MOL0     H99596  -0.481  12.831   2.651  1.9443 -0.8316 -0.2074
  738MOL0     H99597  -0.514  12.862   2.482  0.3810 -1.0308 -0.2801
  738MOL0     H99598  -0.741  12.789   2.512  0.8851 -1.2727 -0.4487
  738MOL0     H99599  -0.714  12.747   2.682 -1.1630 -2.0083 -1.8095
  738MOL0     H99600  -0.666  13.026   2.544  1.9719  3.0932  1.7935
  738MOL0     H99601  -0.628  13.008   2.707 -1.1508  0.8574 -0.5942
  738MOL0     H99602  -0.903  12.981   2.575 -1.0054 -1.2634  0.4324
  738MOL0     H99603  -0.871  12.923   2.743 -3.9422  3.1632  2.0950
  738MOL0     H99604  -0.830  13.209   2.631  1.3599 -2.5207 -0.6279
  738MOL0     H99605  -0.820  13.157   2.803 -3.2503 -0.7450  1.3402
  738MOL0     H99606  -1.080  13.161   2.650 -1.5719  3.3521 -0.3755
  738MOL0     H99607  -1.053  13.079   2.801 -0.9965 -1.6071 -2.3084
  738MOL0     H99608  -0.996  13.386   2.762 -1.0164 -0.8025 -0.8345
  738MOL0     H99609  -0.963  13.301   2.902  0.6807  4.1015 -0.9007
  738MOL0     H99610  -1.186  13.428   2.915 -0.8771 -1.7121  2.3200
  738MOL0     H99611  -1.205  13.257   2.913 -1.5522  0.9528  0.8168
  738MOL0     H99612  -0.501  12.413   2.578 -0.5996 -1.1675  2.4352
  738MOL0     H99613  -0.288  12.291   2.628  0.2916 -0.1224 -2.3160
  738MOL0     H99614   0.075  12.217   2.965 -1.9129  0.1282 -1.3176
  738MOL0     H99615   0.270  12.047   2.971  1.5967 -1.0351 -1.3281
  738MOL0     H99616   1.914  10.968   2.846  1.0545  0.3476  2.4622
  738MOL0     H99617   2.133  11.057   2.896 -1.4122 -3.3849 -0.7113
  738MOL0     H99618   2.447  11.350   2.612  1.3324 -1.3231 -2.0990
  738MOL0     H99619   2.685  11.455   2.600 -1.8445  2.9176 -0.9305
  738MOL0     H99620   2.896  11.671   2.941  1.7468  0.2340 -1.7255
  738MOL0     H99621   2.866  11.502   2.972 -3.3132  1.5170 -0.6268
  738MOL0     H99622   3.111  11.595   2.916  1.9402  0.5399 -1.3186
  738MOL0     H99623   3.056  11.560   2.749  0.1952  0.4097 -0.4815
  738MOL0     H99624   2.984  11.319   2.871 -3.5759  4.6053  1.4616
  738MOL0     H99625   3.075  11.390   2.995  0.3978  0.7907  0.3166
  738MOL0     H99626   3.217  11.233   2.864  6.1742 -0.5749 -2.0383
  738MOL0     H99627   3.287  11.390   2.887  0.1983 -1.0872  0.8322
  738MOL0     H99628   3.259  11.323   2.457 -0.5442 -0.8504 -0.0171
  738MOL0     H99629   2.664  11.553   3.015  1.5396  1.8693 -0.6101
  738MOL0     H99630   2.456  11.419   3.033  2.9315  0.0631  0.1750
  739MOL0     O99631  10.552   7.508   6.439  0.1981 -0.8078  0.5006
  739MOL0     C99632  10.519   7.603   6.359 -0.1989 -0.1254  0.1731
  739MOL0     O99633  10.390   7.649   6.328 -0.2835  0.2201 -0.5975
  739MOL0     C99634  10.295   7.573   6.384 -0.3887 -0.3764  0.5944
  739MOL0     C99635  10.240   7.463   6.308  0.4093  0.1376 -0.6315
  739MOL0     C99636  10.139   7.388   6.365 -0.2554 -0.0125 -0.9104
  739MOL0     C99637  10.104   7.401   6.503  0.6071 -0.3710 -0.1668
  739MOL0     O99638  10.027   7.297   6.560  0.5367 -0.6363  0.3547
  739MOL0     C99639   9.995   7.294   6.703  0.0552  0.8718 -0.5298
  739MOL0     C99640  10.112   7.231   6.784 -0.0621  0.4228  0.4315
  739MOL0     C99641  10.132   7.078   6.760 -0.4880  0.0603 -0.0002
  739MOL0     C99642  10.194   7.019   6.885 -0.3808  0.0617 -0.2757
  739MOL0     C99643  10.190   6.866   6.886 -0.2660 -0.4141 -0.2941
  739MOL0     C99644  10.285   6.817   6.992 -0.0004 -0.9345 -0.9096
  739MOL0     C99645  10.361   6.692   6.952 -1.3173  0.3991  0.1036
  739MOL0     C99646  10.409   6.610   7.078 -0.6066 -0.6551 -0.4764
  739MOL0     N99647  10.509   6.690   7.152 -0.0106  0.5319  0.0534
  739MOL0     C99648  10.650   6.695   7.127 -0.1943  0.3571 -0.1606
  739MOL0     C99649  10.710   6.719   7.247 -0.1947  0.1983  0.1112
  739MOL0     C99650  10.863   6.690   7.274 -0.0292 -0.4838 -0.7347
  739MOL0     C99651  10.905   6.614   7.401  0.3136  0.3743  0.0860
  739MOL0     C99652  10.813   6.484   7.416  0.7419  0.6824 -0.6833
  739MOL0     C99653  10.808   6.403   7.293 -0.3573 -0.3749 -0.5528
  739MOL0     O99654  10.753   6.265   7.314 -0.5700  0.2427  0.1075
  739MOL0     C99655  10.616   6.254   7.329  1.0788 -0.4397  0.0986
  739MOL0     C99656  10.563   6.128   7.343  0.4649  0.2775 -0.3346
  739MOL0     C99657  10.427   6.104   7.371  0.7463  0.5645 -0.5992
  739MOL0     C99658  10.380   5.960   7.394 -0.7616  0.5932  0.9587
  739MOL0     C99659  10.343   6.214   7.372 -0.3335  0.6658  0.2442
  739MOL0     C99660  10.192   6.192   7.406  0.9299 -0.7796 -0.4990
  739MOL0     O99661  10.159   6.120   7.514  0.4037  0.4142 -0.3781
  739MOL0     C99662  10.022   6.116   7.538 -0.0834  0.1587 -0.0271
  739MOL0     C99663   9.964   6.167   7.656 -0.1484  0.4567  0.4446
  739MOL0     C99664   9.822   6.150   7.684 -0.1683 -0.3465  0.4550
  739MOL0     C99665   9.738   6.088   7.579 -0.7813  0.2578 -0.4786
  739MOL0     O99666   9.599   6.062   7.581 -0.4856  0.4216  0.3812
  739MOL0     C99667   9.521   6.170   7.630  0.5884 -0.5894 -0.2753
  739MOL0     C99668   9.484   6.274   7.521  0.0109  0.4896 -0.1627
  739MOL0     C99669   9.450   6.190   7.391 -0.5904 -0.3039 -0.4350
  739MOL0     C99670   9.392   6.277   7.273  0.7135 -0.0600  0.4404
  739MOL0     C99671   9.482   6.367   7.202  0.4905  0.0126  0.4726
  739MOL0     C99672   9.580   6.309   7.098 -1.0525  0.2518  0.5453
  739MOL0     C99673   9.698   6.222   7.144 -0.4975 -0.5868  0.4180
  739MOL0     C99674   9.798   6.190   7.033 -0.4168  0.2789 -0.1123
  739MOL0    Cl99675   9.891   6.058   7.099  0.3628 -0.2242 -0.1564
  739MOL0     C99676   9.810   6.032   7.474 -0.4824 -0.1677  0.1078
  739MOL0     C99677   9.950   6.053   7.449  0.2417  0.1555 -0.2341
  739MOL0     O99678  10.108   6.255   7.339  0.5018 -0.2829  0.0273
  739MOL0     C99679  10.390   6.340   7.351 -0.9426 -0.4764 -0.3736
  739MOL0     C99680  10.521   6.359   7.326  0.7970  0.5639  0.5710
  739MOL0     N99681  10.611   6.740   7.339  0.3668 -0.0838 -0.0163
  739MOL0     N99682  10.494   6.719   7.284 -0.4810 -0.2995 -0.3228
  739MOL0     C99683  10.149   7.513   6.569  0.9487  0.0826 -0.4503
  739MOL0     C99684  10.252   7.608   6.516  0.7161  0.2665  0.3536
  739MOL0     C99685  10.627   7.676   6.284  0.4022  1.2532 -0.2964
  739MOL0     C99686  10.749   7.698   6.344  0.4744  0.2914 -0.2564
  739MOL0     C99687  10.850   7.754   6.267 -1.2827 -0.6130 -0.0752
  739MOL0     C99688  10.838   7.789   6.136 -0.5948 -0.0008 -0.8222
  739MOL0     O99689  10.941   7.841   6.053 -0.1290  0.4242 -0.2424
  739MOL0     C99690  11.062   7.865   6.112 -0.2316  0.3880  0.2033
  739MOL0     C99691  11.159   7.916   6.006 -1.1011 -0.8145 -0.5316
  739MOL0     C99692  11.098   8.044   5.960 -0.2279  0.5740 -0.3054
  739MOL0     C99693  11.203   8.131   5.890 -0.8022 -0.4587 -0.8208
  739MOL0     C99694  11.128   8.242   5.827 -0.0235  0.2727 -0.2694
  739MOL0     C99695  11.065   8.336   5.789  0.6508  0.4303  0.3818
  739MOL0     C99696  10.712   7.783   6.078 -0.2303  0.7766 -2.0270
  739MOL0     C99697  10.608   7.715   6.148 -0.2294  0.7095 -0.5657
  739MOL0     H99698  10.287   7.446   6.211 -0.0916 -0.5792 -0.7573
  739MOL0     H99699  10.079   7.316   6.310  2.1810 -0.8461 -2.6319
  739MOL0     H99700   9.961   7.389   6.746  0.0179  0.9702 -0.7725
  739MOL0     H99701   9.908   7.229   6.716 -0.7386  1.6695 -1.6275
  739MOL0     H99702  10.201   7.292   6.763  0.0374  0.7569  1.7290
  739MOL0     H99703  10.100   7.250   6.892 -0.5624  0.1975  0.4175
  739MOL0     H99704  10.042   7.018   6.748  1.2515 -2.3397 -2.0865
  739MOL0     H99705  10.182   7.058   6.665 -0.2311 -0.5491  0.2570
  739MOL0     H99706  10.299   7.048   6.889  0.3576 -2.3310 -0.8080
  739MOL0     H99707  10.143   7.058   6.974  0.5981 -0.3147  0.4633
  739MOL0     H99708  10.085   6.841   6.904 -0.3260 -0.2324 -0.3929
  739MOL0     H99709  10.218   6.818   6.791  1.8401  0.8896 -0.3799
  739MOL0     H99710  10.352   6.899   7.020  0.0181 -0.2368 -2.8911
  739MOL0     H99711  10.219   6.795   7.077  1.3572  0.9135  0.7481
  739MOL0     H99712  10.289   6.631   6.898 -0.8491 -0.7350  0.7355
  739MOL0     H99713  10.441   6.712   6.881 -1.7309  2.0396  0.0534
  739MOL0     H99714  10.453   6.513   7.054  1.1068 -0.6019  2.0608
  739MOL0     H99715  10.320   6.595   7.140  0.7478  2.1424  2.4035
  739MOL0     H99716  10.693   6.675   7.030 -1.7166  2.4273 -1.3249
  739MOL0     H99717  10.917   6.639   7.194  1.1107 -0.8206  0.2193
  739MOL0     H99718  10.910   6.788   7.286 -0.7393 -0.2196 -0.0221
  739MOL0     H99719  10.890   6.690   7.479 -0.1243  0.7453 -0.3616
  739MOL0     H99720  11.012   6.587   7.403  0.5271  0.9843 -1.7230
  739MOL0     H99721  10.713   6.520   7.439 -0.0130 -0.8217 -1.4446
  739MOL0     H99722  10.851   6.427   7.502  3.6643  0.4857 -1.9891
  739MOL0     H99723  10.910   6.384   7.257  1.0671 -1.4558  3.4875
  739MOL0     H99724  10.746   6.447   7.214 -0.1605 -1.3271 -1.2482
  739MOL0     H99725  10.636   6.049   7.360  2.2415  1.5701 -1.6020
  739MOL0     H99726  10.296   5.954   7.324  0.2753  0.1886 -0.3039
  739MOL0     H99727  10.443   5.873   7.374 -1.1320  0.4497  0.3900
  739MOL0     H99728  10.338   5.951   7.495 -0.8705  6.6314  1.8039
  739MOL0     H99729  10.029   6.205   7.734 -1.9299 -1.8162  3.2620
  739MOL0     H99730   9.778   6.181   7.778  1.4224 -0.2588  1.1961
  739MOL0     H99731   9.423   6.132   7.661 -1.2216  3.6387 -0.1585
  739MOL0     H99732   9.570   6.216   7.716 -1.3604  0.8292  0.1304
  739MOL0     H99733   9.410   6.344   7.560  0.1026 -0.1538  1.2317
  739MOL0     H99734   9.576   6.332   7.508 -1.4867  2.8136 -1.0168
  739MOL0     H99735   9.369   6.122   7.417 -1.7515  0.1795 -2.5417
  739MOL0     H99736   9.530   6.123   7.358 -2.4135 -2.5981 -0.4255
  739MOL0     H99737   9.343   6.203   7.208  0.0713 -1.3352  2.2929
  739MOL0     H99738   9.318   6.334   7.330  3.8295  0.7244  4.0330
  739MOL0     H99739   9.521   6.429   7.282 -3.1658  0.8836  1.7751
  739MOL0     H99740   9.417   6.433   7.143 -0.1283  0.4221  1.5866
  739MOL0     H99741   9.529   6.260   7.015  1.1553  0.1717 -0.8515
  739MOL0     H99742   9.633   6.400   7.069  0.9955 -0.6158  1.3450
  739MOL0     H99743   9.666   6.129   7.192  0.5296 -0.1960  1.9664
  739MOL0     H99744   9.755   6.280   7.218  0.1505 -1.7710  0.8812
  739MOL0     H99745   9.846   6.281   6.995  2.0076 -1.5299 -1.6459
  739MOL0     H99746   9.732   6.145   6.958 -0.9151 -1.1380  1.1366
  739MOL0     H99747   9.749   5.993   7.392  0.1586  1.5029 -1.2248
  739MOL0     H99748   9.989   6.011   7.357 -2.4456 -3.8755  0.1840
  739MOL0     H99749  10.337   6.434   7.358  1.4844  0.8520  1.6576
  739MOL0     H99750  10.546   6.464   7.311 -0.5488  1.1936  2.3963
  739MOL0     H99751  10.095   7.538   6.660 -3.8101  0.4396 -3.0452
  739MOL0     H99752  10.288   7.690   6.578  3.6976 -0.8968  0.3341
  739MOL0     H99753  10.774   7.658   6.442  1.2655 -0.9054 -0.9138
  739MOL0     H99754  10.946   7.759   6.317 -2.2708  2.5210  1.7423
  739MOL0     H99755  11.040   7.936   6.193  0.3079 -0.1791  0.8576
  739MOL0     H99756  11.104   7.774   6.154  2.8955  1.4695 -0.3516
  739MOL0     H99757  11.155   7.845   5.922 -2.3707  0.6976 -1.8215
  739MOL0     H99758  11.262   7.917   6.042 -0.6477 -0.1774 -1.7612
  739MOL0     H99759  11.059   8.100   6.046  1.3811 -1.1196  1.6106
  739MOL0     H99760  11.012   8.026   5.894  0.1642  0.6422 -0.8372
  739MOL0     H99761  11.249   8.073   5.809 -0.2834  0.4567 -1.1972
  739MOL0     H99762  11.285   8.169   5.952 -2.8214 -0.4322  2.0323
  739MOL0     H99763  11.004   8.414   5.748 -2.6404 -1.5510  1.1778
  739MOL0     H99764  10.700   7.828   5.980  0.2116  2.4888 -1.3195
  739MOL0     H99765  10.504   7.710   6.117 -0.2326 -2.1364 -0.3708
  740MOL0     O99766   4.567   4.364  10.744 -0.0353 -1.2020  0.2774
  740MOL0     C99767   4.684   4.343  10.709  0.4177 -0.0724  0.8764
  740MOL0     O99768   4.729   4.228  10.645 -0.0491  0.1591 -0.4924
  740MOL0     C99769   4.632   4.132  10.623 -0.2425 -0.4720  0.7206
  740MOL0     C99770   4.504   4.164  10.579  0.4766  0.2218 -0.3962
  740MOL0     C99771   4.405   4.062  10.560 -0.6718  0.0201  0.1636
  740MOL0     C99772   4.438   3.926  10.584 -0.5031  0.5270  0.2474
  740MOL0     O99773   4.348   3.818  10.561 -0.2812  0.7140 -0.0695
  740MOL0     C99774   4.208   3.832  10.541 -0.6461 -0.8562 -0.0653
  740MOL0     C99775   4.132   3.867  10.668 -0.4731 -0.4490 -0.0061
  740MOL0     C99776   3.978   3.863  10.635  0.1202  0.1829 -0.4198
  740MOL0     C99777   3.923   3.727  10.576  0.7292 -0.2978  0.7061
  740MOL0     C99778   3.774   3.704  10.596 -0.3952  0.3604  0.7528
  740MOL0     C99779   3.726   3.566  10.559 -0.1937  0.8449 -0.2103
  740MOL0     C99780   3.606   3.518  10.647  0.0477 -0.4551  0.0048
  740MOL0     C99781   3.561   3.374  10.610  0.0562 -0.8229  0.2422
  740MOL0     N99782   3.424   3.344  10.650 -0.8392 -0.8171 -0.5158
  740MOL0     C99783   3.317   3.395  10.583  0.5455  0.7252  0.6490
  740MOL0     C99784   3.211   3.355  10.654 -0.0365 -1.0485 -0.2013
  740MOL0     C99785   3.065   3.395  10.646  0.2908 -0.6167 -0.2593
  740MOL0     C99786   2.981   3.354  10.761 -0.1223 -0.4622  0.1790
  740MOL0     C99787   2.978   3.201  10.785 -0.2719 -0.5265 -0.2408
  740MOL0     C99788   2.835   3.159  10.807  1.4442 -0.0167 -0.1632
  740MOL0     O99789   2.766   3.176  10.682  0.2344 -0.0438  0.3739
  740MOL0     C99790   2.627   3.185  10.682 -0.1185 -0.0512  0.0300
  740MOL0     C99791   2.571   3.232  10.561  0.6990 -0.8206 -0.0901
  740MOL0     C99792   2.432   3.249  10.545 -0.8698 -0.1191 -0.1700
  740MOL0     C99793   2.396   3.313  10.416 -0.5240 -0.3430  0.1605
  740MOL0     C99794   2.355   3.225  10.656  0.5671 -0.2519 -0.2611
  740MOL0     C99795   2.211   3.248  10.658 -0.2712  0.0461 -0.4998
  740MOL0     O99796   2.147   3.222  10.782  0.0873 -0.5777  0.5357
  740MOL0     C99797   2.012   3.241  10.801 -0.2002  0.1560 -0.3658
  740MOL0     C99798   1.971   3.368  10.841 -0.2816 -0.8717 -0.0967
  740MOL0     C99799   1.833   3.398  10.866 -0.4768  0.2294 -0.4267
  740MOL0     C99800   1.735   3.288  10.846 -0.1029 -0.4826  0.5683
  740MOL0     O99801   1.607   3.319  10.884  0.0268 -0.6003  0.2855
  740MOL0     C99802   1.530   3.203  10.920 -0.0078  0.9799  0.1042
  740MOL0     C99803   1.401   3.254  10.984 -0.7735 -0.4067  0.6942
  740MOL0     C99804   1.292   3.150  10.984  0.1439 -0.1759 -0.2142
  740MOL0     C99805   1.152   3.206  11.019  0.2195  0.6693  1.2406
  740MOL0     C99806   1.051   3.084  11.024  0.1543  1.6603 -0.1956
  740MOL0     C99807   0.908   3.149  11.039 -0.2472  0.2122 -0.3302
  740MOL0     C99808   0.807   3.048  11.054  0.6084 -0.4230 -0.2274
  740MOL0     C99809   0.670   3.116  11.059  0.1217 -1.1857  0.5463
  740MOL0    Cl99810   0.624   3.120  10.892 -0.1409  0.2262  0.2186
  740MOL0     C99811   1.782   3.159  10.808  0.2347  0.4526 -0.8244
  740MOL0     C99812   1.914   3.136  10.783 -0.6123 -0.9629 -0.6850
  740MOL0     O99813   2.149   3.278  10.557  0.2717 -0.0924  0.0868
  740MOL0     C99814   2.414   3.177  10.775  0.6752 -0.3433 -0.4056
  740MOL0     C99815   2.547   3.155  10.791 -0.6753  0.1564  0.0762
  740MOL0     N99816   3.264   3.268  10.752  0.8773  0.2619  0.3283
  740MOL0     N99817   3.392   3.255  10.751 -0.0433 -0.3573  0.2267
  740MOL0     C99818   4.574   3.900  10.619  0.7087  0.2655  0.0747
  740MOL0     C99819   4.666   4.001  10.644  0.7159 -0.8842 -1.2293
  740MOL0     C99820   4.783   4.443  10.744  0.2291 -0.5367  0.9617
  740MOL0     C99821   4.749   4.568  10.803  0.0582 -0.7193 -0.1639
  740MOL0     C99822   4.845   4.674  10.825 -0.4981 -0.0919 -0.9484
  740MOL0     C99823   4.981   4.653  10.786 -0.5504  1.0222  0.3133
  740MOL0     O99824   5.059   4.765  10.777 -0.0895 -0.4219  0.2944
  740MOL0     C99825   5.200   4.748  10.819 -0.0672  0.7345  0.3701
  740MOL0     C99826   5.284   4.820  10.707  0.4968  0.7337  0.5504
  740MOL0     C99827   5.439   4.802  10.720  0.5103  0.4816  0.3798
  740MOL0     C99828   5.520   4.900  10.641  0.4885 -0.6415  0.8533
  740MOL0     C99829   5.655   4.891  10.685 -0.3927  0.4194  0.1912
  740MOL0     C99830   5.770   4.887  10.730 -0.3538  0.2249 -0.0812
  740MOL0     C99831   5.004   4.537  10.718 -0.2741  0.1328  0.3347
  740MOL0     C99832   4.912   4.431  10.699 -0.7585  0.1626  0.7402
  740MOL0     H99833   4.466   4.263  10.555  2.9321  2.2648  3.2272
  740MOL0     H99834   4.304   4.092  10.532 -0.2002 -0.3002 -2.1341
  740MOL0     H99835   4.182   3.901  10.461 -2.0778 -1.0758  0.1861
  740MOL0     H99836   4.169   3.737  10.503  0.1512 -0.6356 -1.4969
  740MOL0     H99837   4.154   3.777  10.726  1.4781 -0.8613 -1.2924
  740MOL0     H99838   4.160   3.964  10.711  1.2253 -0.6537 -0.5972
  740MOL0     H99839   3.929   3.876  10.731 -1.1462 -2.1178 -0.6960
  740MOL0     H99840   3.955   3.947  10.568  1.7083 -0.2308 -1.5701
  740MOL0     H99841   3.940   3.724  10.468  0.3315 -2.7195  0.6404
  740MOL0     H99842   3.977   3.639  10.613  0.0404 -0.9622  0.1753
  740MOL0     H99843   3.769   3.724  10.703  2.3341 -0.4547  1.1214
  740MOL0     H99844   3.728   3.781  10.532  1.2796 -0.4197 -1.5507
  740MOL0     H99845   3.712   3.562  10.450 -1.6575 -0.3681 -0.0143
  740MOL0     H99846   3.805   3.497  10.590 -0.8676  0.6713  1.1916
  740MOL0     H99847   3.620   3.530  10.755  0.2857  2.1157 -0.2627
  740MOL0     H99848   3.521   3.583  10.623 -0.3748 -1.5966 -1.7712
  740MOL0     H99849   3.628   3.297  10.650  2.5773 -0.2239 -2.4703
  740MOL0     H99850   3.549   3.366  10.502 -0.4524 -0.3086  0.2533
  740MOL0     H99851   3.307   3.466  10.501  0.0199 -0.8150 -0.6633
  740MOL0     H99852   3.055   3.502  10.627 -0.7006 -0.3779  1.4173
  740MOL0     H99853   3.014   3.351  10.559 -3.4210  3.4386 -0.4724
  740MOL0     H99854   2.878   3.390  10.755 -0.5699 -1.6316  0.6695
  740MOL0     H99855   3.022   3.393  10.855 -0.6154 -2.1059  1.1087
  740MOL0     H99856   3.040   3.180  10.873  2.0767 -0.6044 -1.8241
  740MOL0     H99857   3.023   3.137  10.708 -3.7931 -1.6446 -1.5527
  740MOL0     H99858   2.788   3.208  10.893 -1.2763  0.6374 -1.8729
  740MOL0     H99859   2.822   3.053  10.831 -1.5458  0.7701  2.3675
  740MOL0     H99860   2.640   3.248  10.478  1.4316 -2.4660  0.1654
  740MOL0     H99861   2.334   3.251  10.351 -0.1280 -0.4966 -0.0685
  740MOL0     H99862   2.339   3.400  10.451 -1.0019 -0.4504 -0.3409
  740MOL0     H99863   2.481   3.352  10.359 -1.1908 -0.9132 -1.2427
  740MOL0     H99864   2.031   3.456  10.861 -2.6642  0.9437 -0.4687
  740MOL0     H99865   1.795   3.495  10.897 -0.3085  0.3147 -0.4849
  740MOL0     H99866   1.499   3.145  10.833 -1.6304 -2.3140  2.6344
  740MOL0     H99867   1.582   3.130  10.983  0.7415 -0.6077 -2.2276
  740MOL0     H99868   1.437   3.293  11.080  0.5347  2.4878 -0.8422
  740MOL0     H99869   1.363   3.338  10.925 -1.6590  0.3366  2.2610
  740MOL0     H99870   1.320   3.067  11.050 -0.3900 -0.1671  0.0293
  740MOL0     H99871   1.287   3.113  10.882 -0.1092 -1.8833  0.3802
  740MOL0     H99872   1.137   3.264  11.110  1.7892  0.5078  1.6263
  740MOL0     H99873   1.133   3.281  10.941  0.0117 -1.9946 -1.4611
  740MOL0     H99874   1.069   3.018  11.109 -1.1479 -2.9450 -3.1393
  740MOL0     H99875   1.049   3.022  10.935 -0.9419  1.8594 -0.3209
  740MOL0     H99876   0.920   3.192  11.138  2.8085 -3.7594  1.3517
  740MOL0     H99877   0.880   3.222  10.963 -1.2287 -1.2398 -1.4288
  740MOL0     H99878   0.835   3.001  11.148  1.4161  0.4995  0.0080
  740MOL0     H99879   0.815   2.968  10.979 -1.4347 -1.7427  0.8760
  740MOL0     H99880   0.669   3.217  11.100  1.7088 -0.6427 -0.6653
  740MOL0     H99881   0.593   3.057  11.111 -1.0164 -1.7409 -1.6346
  740MOL0     H99882   1.720   3.071  10.799 -0.7711  0.7855  1.8799
  740MOL0     H99883   1.945   3.035  10.756 -2.0546 -0.9382 -2.6568
  740MOL0     H99884   2.360   3.143  10.863  0.8485 -0.1224 -0.2112
  740MOL0     H99885   2.588   3.125  10.887  2.0988  2.6789 -0.1821
  740MOL0     H99886   4.613   3.799  10.632 -2.6166 -1.1255  0.1988
  740MOL0     H99887   4.767   3.968  10.667  0.4409 -0.6264  0.5081
  740MOL0     H99888   4.653   4.608  10.834  2.3801  3.9852  2.0134
  740MOL0     H99889   4.821   4.769  10.872  4.2951  0.5490  0.7689
  740MOL0     H99890   5.220   4.791  10.917  0.7682  1.3874 -0.0751
  740MOL0     H99891   5.226   4.643  10.832 -2.5390 -0.2433 -1.7071
  740MOL0     H99892   5.259   4.927  10.708 -2.8470  0.0693  2.0668
  740MOL0     H99893   5.251   4.787  10.608 -0.2701  0.3101  0.9371
  740MOL0     H99894   5.450   4.702  10.678 -0.3088  1.1886 -1.6637
  740MOL0     H99895   5.466   4.827  10.823  1.1013 -0.7414  0.5340
  740MOL0     H99896   5.485   5.002  10.659 -0.3640 -1.1506  2.2339
  740MOL0     H99897   5.523   4.868  10.536  0.4996 -1.6031  1.1338
  740MOL0     H99898   5.862   4.869  10.782 -0.9575 -2.2541  0.2103
  740MOL0     H99899   5.104   4.520  10.680 -1.7517 -4.5926 -2.2710
  740MOL0     H99900   4.944   4.345  10.641  0.5471  1.2630 -0.2471
  741MOL0     O99901   5.380   1.487   5.483 -0.6777 -0.0831 -0.1344
  741MOL0     C99902   5.322   1.374   5.492  0.0568 -0.6165 -0.3437
  741MOL0     O99903   5.371   1.259   5.436  0.3325 -0.0785 -0.3562
  741MOL0     C99904   5.501   1.273   5.379 -0.0616 -0.1863  0.3049
  741MOL0     C99905   5.518   1.263   5.244  0.3110 -0.5926  0.7173
  741MOL0     C99906   5.642   1.294   5.183 -0.0057  0.2497 -0.0700
  741MOL0     C99907   5.753   1.322   5.259  0.1464 -0.2865  0.3701
  741MOL0     O99908   5.878   1.331   5.207 -0.1560 -0.2310 -0.5204
  741MOL0     C99909   5.889   1.421   5.095  0.6494  0.4249 -0.4901
  741MOL0     C99910   5.921   1.569   5.141 -0.3577 -0.4764 -0.1020
  741MOL0     C99911   5.836   1.616   5.268 -0.1089  1.0681 -0.0891
  741MOL0     C99912   5.876   1.762   5.290  0.1689  0.5573 -0.3035
  741MOL0     C99913   5.780   1.851   5.214 -0.0133 -0.5088  0.7306
  741MOL0     C99914   5.646   1.874   5.292  0.4508 -0.6256  0.4812
  741MOL0     C99915   5.536   1.772   5.290 -0.0154  0.0700  0.4097
  741MOL0     C99916   5.487   1.721   5.160 -0.5152 -0.0228  0.6512
  741MOL0     N99917   5.460   1.833   5.074 -0.9968  0.2478  0.7477
  741MOL0     C99918   5.537   1.868   4.970 -0.2728  0.3019  0.1784
  741MOL0     C99919   5.471   1.973   4.906 -1.0228 -0.1665  0.0486
  741MOL0     C99920   5.523   2.064   4.803  0.0014  1.1979  0.3148
  741MOL0     C99921   5.521   2.209   4.849 -0.4376 -0.5321 -0.0391
  741MOL0     C99922   5.602   2.300   4.744  0.6109 -0.3501 -1.2570
  741MOL0     C99923   5.585   2.452   4.771  0.1402  0.6591  0.6077
  741MOL0     O99924   5.449   2.503   4.753  0.9443 -0.0071  0.4111
  741MOL0     C99925   5.394   2.506   4.625  0.3965  0.7721 -0.9248
  741MOL0     C99926   5.458   2.481   4.504  0.7448 -0.4948  0.1915
  741MOL0     C99927   5.403   2.502   4.378  1.1180 -0.5554  0.5730
  741MOL0     C99928   5.499   2.497   4.268  0.5204 -0.5959 -0.1987
  741MOL0     C99929   5.263   2.536   4.370  0.2388 -0.8719 -0.1800
  741MOL0     C99930   5.181   2.561   4.241 -0.1582  0.8353 -0.5769
  741MOL0     O99931   5.051   2.611   4.261  0.0271 -0.6466  0.5028
  741MOL0     C99932   4.938   2.587   4.182  1.2019 -0.3588 -0.0130
  741MOL0     C99933   4.929   2.524   4.055 -0.0491 -0.4990 -0.6978
  741MOL0     C99934   4.804   2.514   3.993 -0.0881  0.4468  0.5546
  741MOL0     C99935   4.685   2.543   4.059  0.0546 -0.6040 -0.6757
  741MOL0     O99936   4.570   2.516   3.985  1.2991 -0.6302  0.2523
  741MOL0     C99937   4.450   2.586   4.039 -0.7137 -0.3966 -0.1780
  741MOL0     C99938   4.327   2.536   3.972  0.3611  0.4170  0.7282
  741MOL0     C99939   4.205   2.570   4.055 -0.3571 -0.0385 -0.1469
  741MOL0     C99940   4.068   2.530   3.996  0.0915  1.1040 -1.0240
  741MOL0     C99941   3.961   2.609   4.068 -0.5658 -0.4509  0.1547
  741MOL0     C99942   3.814   2.566   4.046  0.0049 -0.1031  0.1985
  741MOL0     C99943   3.774   2.601   3.908  0.2673 -0.4174 -0.1731
  741MOL0     C99944   3.625   2.624   3.919  0.8483 -0.5311 -0.1813
  741MOL0    Cl99945   3.529   2.479   3.974  0.0045  0.1641 -0.1643
  741MOL0     C99946   4.691   2.585   4.189 -0.0579 -0.0634  0.8578
  741MOL0     C99947   4.811   2.614   4.243  0.3485 -0.0942  0.7620
  741MOL0     O99948   5.225   2.528   4.132  0.5706 -0.0837 -0.1545
  741MOL0     C99949   5.201   2.551   4.490  0.4867 -0.3032 -0.2663
  741MOL0     C99950   5.262   2.545   4.615 -0.8727 -0.7592  0.9499
  741MOL0     N99951   5.361   2.005   4.989 -0.5809 -0.5772  0.4148
  741MOL0     N99952   5.355   1.918   5.086 -0.3732  0.5290 -0.8911
  741MOL0     C99953   5.736   1.327   5.400 -0.0978  0.6815 -1.0510
  741MOL0     C99954   5.608   1.312   5.458 -0.7467  0.5096 -0.4384
  741MOL0     C99955   5.212   1.364   5.585  0.6835 -0.0221 -0.8222
  741MOL0     C99956   5.170   1.238   5.642 -0.4633  0.1370  1.3959
  741MOL0     C99957   5.059   1.227   5.732 -0.5854  0.7506  0.0642
  741MOL0     C99958   4.984   1.339   5.757  0.1330  0.0313 -0.5197
  741MOL0     O99959   4.863   1.339   5.817 -0.2122 -0.8283 -0.7338
  741MOL0     C99960   4.801   1.232   5.893  0.2979 -0.6318 -0.1119
  741MOL0     C99961   4.866   1.205   6.030  0.6006 -0.2782  0.4387
  741MOL0     C99962   4.787   1.096   6.093  0.1111  0.5798 -0.0506
  741MOL0     C99963   4.633   1.118   6.111 -0.5782  0.2035 -0.3300
  741MOL0     C99964   4.578   1.010   6.188 -0.0434 -0.7523 -0.5343
  741MOL0     C99965   4.541   0.910   6.250 -0.5720 -1.0084  0.4241
  741MOL0     C99966   5.037   1.464   5.726 -0.3664  0.3840  0.5835
  741MOL0     C99967   5.146   1.484   5.635  0.5051 -0.1795  0.2769
  741MOL0     H99968   5.439   1.238   5.174 -1.4097  1.1508  1.9400
  741MOL0     H99969   5.651   1.284   5.075 -3.2582 -0.1890 -0.3758
  741MOL0     H99970   5.975   1.389   5.035  0.0377 -3.5771  0.4786
  741MOL0     H99971   5.801   1.424   5.031  0.2677 -0.3852 -0.0144
  741MOL0     H99972   6.027   1.583   5.164  0.4290  0.3363 -3.6587
  741MOL0     H99973   5.904   1.624   5.048 -0.4702  0.2170  0.3188
  741MOL0     H99974   5.728   1.601   5.253  0.2947 -3.1703 -0.1850
  741MOL0     H99975   5.874   1.553   5.349  1.6896 -2.0226 -3.0644
  741MOL0     H99976   5.874   1.790   5.396 -1.2906  1.5781 -0.5745
  741MOL0     H99977   5.985   1.763   5.283  0.1698  0.0027 -0.4085
  741MOL0     H99978   5.836   1.944   5.203  4.1639 -2.5864  2.4194
  741MOL0     H99979   5.752   1.804   5.119 -1.4037  0.2861  0.7157
  741MOL0     H99980   5.662   1.878   5.400 -1.0010 -0.0282  0.6914
  741MOL0     H99981   5.602   1.971   5.268  1.6702 -0.2852 -0.4907
  741MOL0     H99982   5.575   1.688   5.348  1.6104  0.6725  0.2753
  741MOL0     H99983   5.450   1.807   5.347  0.8118  1.8781  0.6342
  741MOL0     H99984   5.389   1.672   5.172 -2.0388  2.0601 -2.1479
  741MOL0     H99985   5.560   1.654   5.115 -0.1291  0.7465  0.1171
  741MOL0     H99986   5.631   1.817   4.948 -1.0736 -1.2403  0.2081
  741MOL0     H99987   5.617   2.011   4.785 -0.9887 -1.3012  1.9216
  741MOL0     H99988   5.464   2.062   4.711  1.0868  0.3315 -0.3808
  741MOL0     H99989   5.569   2.214   4.948 -2.1510  0.3007  0.8009
  741MOL0     H99990   5.416   2.237   4.863 -0.1240  1.2367 -0.9480
  741MOL0     H99991   5.571   2.274   4.643 -2.6430 -0.7809 -0.2577
  741MOL0     H99992   5.709   2.276   4.745  1.1477  1.7435  0.6411
  741MOL0     H99993   5.654   2.496   4.698  2.9617 -3.2592  0.5438
  741MOL0     H99994   5.612   2.463   4.876 -1.8940 -0.6422  1.3242
  741MOL0     H99995   5.564   2.463   4.514  0.5451 -0.6646  2.7580
  741MOL0     H99996   5.442   2.528   4.180  0.0150 -1.4365 -0.1824
  741MOL0     H99997   5.579   2.570   4.283 -0.9921  0.7109  2.1633
  741MOL0     H99998   5.550   2.400   4.264 -1.3558 -1.6620  0.6170
  741MOL0     H99999   5.021   2.516   3.997 -0.7303 -0.8103 -1.7666
  741MOL0     H    0   4.820   2.480   3.891  1.3591  1.4632  0.4106
  741MOL0     H    1   4.434   2.557   4.143 -0.0240 -3.3584 -0.8083
  741MOL0     H    2   4.461   2.695   4.045  2.7689 -0.6667  0.9963
  741MOL0     H    3   4.315   2.592   3.879 -2.0070 -1.9747 -0.5230
  741MOL0     H    4   4.341   2.429   3.951  1.3317  0.4562  1.0924
  741MOL0     H    5   4.204   2.680   4.059 -0.3190 -0.0057 -0.8770
  741MOL0     H    6   4.213   2.532   4.157  1.0338 -0.4435 -0.3893
  741MOL0     H    7   4.063   2.545   3.888 -0.7957  2.1619 -0.8644
  741MOL0     H    8   4.052   2.423   4.011  2.2803  0.9224  0.5244
  741MOL0     H    9   3.966   2.717   4.051 -2.2852 -0.4948 -0.8529
  741MOL0     H   10   3.986   2.591   4.173 -0.5449 -1.6840 -0.0399
  741MOL0     H   11   3.803   2.457   4.050  1.0820 -0.3575 -2.0902
  741MOL0     H   12   3.756   2.626   4.117 -0.6113  0.6923 -0.9380
  741MOL0     H   13   3.802   2.518   3.842  2.2276  1.7322 -2.2431
  741MOL0     H   14   3.812   2.692   3.861  1.6217 -2.6509 -3.9333
  741MOL0     H   15   3.613   2.659   3.816  3.1809  0.6479 -0.1286
  741MOL0     H   16   3.597   2.715   3.973 -0.4584  0.8220 -2.9333
  741MOL0     H   17   4.602   2.602   4.249 -0.1713 -1.0571  1.0002
  741MOL0     H   18   4.823   2.673   4.333  0.2398  3.7098 -1.4980
  741MOL0     H   19   5.098   2.585   4.495  0.3960 -0.4826 -0.8758
  741MOL0     H   20   5.220   2.568   4.713  0.4762 -0.1391  1.4117
  741MOL0     H   21   5.819   1.360   5.463 -0.4664  1.2041 -0.8321
  741MOL0     H   22   5.590   1.320   5.565  3.0944  2.0997  0.2867
  741MOL0     H   23   5.214   1.143   5.612  0.8654  1.4275 -1.0583
  741MOL0     H   24   5.031   1.130   5.771  2.6099 -1.0026 -1.5578
  741MOL0     H   25   4.694   1.252   5.904  0.9233  2.2643  1.6688
  741MOL0     H   26   4.799   1.138   5.836 -1.4502 -0.0329 -1.1248
  741MOL0     H   27   4.867   1.281   6.108 -0.7054 -1.1086  1.3123
  741MOL0     H   28   4.968   1.171   6.013  0.2694 -0.9016 -0.3610
  741MOL0     H   29   4.835   1.079   6.189 -0.3962 -2.1685 -0.2024
  741MOL0     H   30   4.791   1.009   6.027 -1.2043  1.2386 -1.0485
  741MOL0     H   31   4.587   1.134   6.013 -0.2936 -0.7352 -0.6311
  741MOL0     H   32   4.627   1.212   6.167 -2.2993  1.8130 -2.9490
  741MOL0     H   33   4.500   0.827   6.304 -2.3891  1.1640  2.6667
  741MOL0     H   34   4.980   1.551   5.757 -3.3396 -0.4223 -2.1291
  741MOL0     H   35   5.183   1.581   5.602 -0.3011  0.3786  0.9793
  742MOL0     O   36  10.438  11.020   3.547 -0.0277  0.3302 -0.1680
  742MOL0     C   37  10.442  11.133   3.588 -0.1115 -0.5309 -0.5326
  742MOL0     O   38  10.553  11.201   3.640 -0.3567  0.9179 -0.2671
  742MOL0     C   39  10.674  11.130   3.652 -0.7948  0.3610 -1.2489
  742MOL0     C   40  10.688  10.990   3.669 -0.5259  0.2060 -0.2307
  742MOL0     C   41  10.818  10.930   3.672  0.0179  0.8865 -0.3427
  742MOL0     C   42  10.933  11.002   3.677  0.5675 -0.2693 -0.3339
  742MOL0     O   43  11.064  10.964   3.693  0.0464  0.3020 -0.1629
  742MOL0     C   44  11.089  10.854   3.773 -0.0787  0.3335 -0.0558
  742MOL0     C   45  11.245  10.818   3.777 -0.3915 -0.5821 -0.8004
  742MOL0     C   46  11.289  10.728   3.901  0.2271 -0.3785  0.1547
  742MOL0     C   47  11.222  10.590   3.893 -0.9433  0.1545  0.6273
  742MOL0     C   48  11.270  10.494   4.003 -0.4226  0.1751  0.6701
  742MOL0     C   49  11.218  10.345   3.982  0.2440 -0.1121 -0.1487
  742MOL0     C   50  11.227  10.264   4.108  0.0539  1.1857 -0.9165
  742MOL0     C   51  11.373  10.221   4.146 -0.3426  0.9004  0.9958
  742MOL0     N   52  11.371  10.119   4.243  0.3171  0.4921  0.1354
  742MOL0     C   53  11.362  10.142   4.380  0.5186 -0.0970  0.4937
  742MOL0     C   54  11.418  10.034   4.431 -1.0478  0.4007 -0.0542
  742MOL0     C   55  11.432  10.006   4.572 -0.4518  0.0150 -0.5524
  742MOL0     C   56  11.559  10.051   4.640 -0.1766 -0.5217  0.8506
  742MOL0     C   57  11.589  10.201   4.623  0.4107 -1.5176  0.3332
  742MOL0     C   58  11.729  10.240   4.666 -0.3158  0.2558 -0.6741
  742MOL0     O   59  11.745  10.204   4.806  0.1192  0.1826  0.0292
  742MOL0     C   60  11.851  10.243   4.876  0.5937 -0.8095 -1.5606
  742MOL0     C   61  11.861  10.363   4.939 -0.0712  0.1078 -0.3711
  742MOL0     C   62  11.962  10.394   5.024 -0.0965 -0.5182  0.4587
  742MOL0     C   63  11.967  10.541   5.070 -0.2183  1.0466 -0.3311
  742MOL0     C   64  12.065  10.301   5.052 -0.6418 -0.4390 -0.8226
  742MOL0     C   65  12.179  10.340   5.140 -0.7710 -0.6798  1.1496
  742MOL0     O   66  12.309  10.313   5.088  1.4013 -0.9264 -0.2717
  742MOL0     C   67  12.407  10.393   5.138 -0.1218  0.3464 -0.1762
  742MOL0     C   68  12.504  10.331   5.224 -0.5331  0.3365 -0.3388
  742MOL0     C   69  12.609  10.405   5.277  0.7409 -0.6966 -0.7276
  742MOL0     C   70  12.612  10.548   5.246  0.1669 -0.6067  0.3105
  742MOL0     O   71  12.697  10.644   5.300  0.4327 -0.1559 -0.1818
  742MOL0     C   72  12.790  10.608   5.399 -0.6745  0.8716  0.5906
  742MOL0     C   73  12.881  10.733   5.430 -0.2886  0.5275  0.1550
  742MOL0     C   74  12.797  10.841   5.502  0.3036  0.1731 -0.3818
  742MOL0     C   75  12.884  10.970   5.531 -0.0096 -0.4445  0.7813
  742MOL0     C   76  12.792  11.051   5.630 -0.2472 -1.0177 -0.9464
  742MOL0     C   77  12.839  11.196   5.662  0.0089 -0.1122 -0.4830
  742MOL0     C   78  12.970  11.196   5.749 -0.4916  0.4082  0.6493
  742MOL0     C   79  13.047  11.329   5.742 -0.9143 -0.1264 -0.5384
  742MOL0    Cl   80  13.227  11.292   5.748 -0.4029 -0.2805  0.4809
  742MOL0     C   81  12.524  10.604   5.161  0.2543 -0.4863 -0.3953
  742MOL0     C   82  12.420  10.524   5.104 -0.1780 -0.9490  0.0712
  742MOL0     O   83  12.146  10.386   5.244 -0.6753  0.4844 -1.0271
  742MOL0     C   84  12.068  10.178   4.979  0.5299 -0.5508  0.2497
  742MOL0     C   85  11.958  10.157   4.893 -0.4272  0.2246 -0.0991
  742MOL0     N   86  11.456   9.942   4.333  0.6391  0.8249  0.5276
  742MOL0     N   87  11.422   9.991   4.222  0.2230 -0.6838 -0.3770
  742MOL0     C   88  10.923  11.143   3.665  0.0134  0.4241  0.3148
  742MOL0     C   89  10.793  11.200   3.661 -0.6188 -0.5066 -0.1303
  742MOL0     C   90  10.325  11.219   3.563  0.3412  0.2801  0.2028
  742MOL0     C   91  10.320  11.362   3.579 -0.3991 -0.6957  1.3852
  742MOL0     C   92  10.200  11.432   3.551  0.2241 -0.4504  0.6810
  742MOL0     C   93  10.087  11.365   3.493 -0.6473  0.2203 -0.3292
  742MOL0     O   94   9.974  11.430   3.445 -0.3549  0.5266  0.5278
  742MOL0     C   95   9.908  11.510   3.536 -0.2888  0.5917  0.4488
  742MOL0     C   96   9.906  11.661   3.488  0.5380  0.4566 -0.2182
  742MOL0     C   97   9.814  11.674   3.365 -0.5089 -0.0460 -0.2006
  742MOL0     C   98   9.832  11.816   3.302  0.2598 -0.2202  0.0639
  742MOL0     C   99   9.750  11.835   3.182  0.3571  0.5591  0.1571
  742MOL0     C  100   9.667  11.853   3.098 -0.1695  1.1296 -0.5274
  742MOL0     C  101  10.092  11.228   3.476  0.2250  0.1835 -0.1359
  742MOL0     C  102  10.209  11.163   3.515  0.4044 -0.9990 -0.2449
  742MOL0     H  103  10.600  10.934   3.699 -1.0072  1.7624  1.4345
  742MOL0     H  104  10.820  10.823   3.690  0.8892  0.6886 -1.4672
  742MOL0     H  105  11.044  10.884   3.868  3.2544  1.4736  1.3025
  742MOL0     H  106  11.033  10.763   3.749 -2.1809  0.4665  3.6636
  742MOL0     H  107  11.266  10.762   3.685 -1.0924 -0.6088 -0.9542
  742MOL0     H  108  11.306  10.908   3.774  1.0022 -1.4840 -0.7600
  742MOL0     H  109  11.397  10.715   3.903  0.2336 -0.7404 -1.5032
  742MOL0     H  110  11.255  10.762   3.999 -1.9177  0.3899 -0.7900
  742MOL0     H  111  11.115  10.604   3.912 -0.8320  0.8728  0.7563
  742MOL0     H  112  11.238  10.542   3.795  0.9999  1.3347  0.3134
  742MOL0     H  113  11.379  10.491   4.001 -0.4162 -0.0325  1.1573
  742MOL0     H  114  11.239  10.520   4.105 -2.2684 -0.7876  0.4072
  742MOL0     H  115  11.115  10.338   3.946  0.2426 -0.7791 -0.0211
  742MOL0     H  116  11.279  10.299   3.904  1.6749  2.0206 -0.3681
  742MOL0     H  117  11.193  10.316   4.199  4.0828 -0.0399  1.5604
  742MOL0     H  118  11.173  10.169   4.095  1.4747  0.0052  1.0720
  742MOL0     H  119  11.435  10.305   4.176  2.9616 -0.8706 -0.3381
  742MOL0     H  120  11.418  10.177   4.056  2.9363  2.8492  1.5394
  742MOL0     H  121  11.317  10.225   4.433  1.7009  1.6533 -1.1339
  742MOL0     H  122  11.347  10.051   4.625  0.2901 -0.3201  0.9601
  742MOL0     H  123  11.427   9.898   4.586  0.4352  0.1430  0.9304
  742MOL0     H  124  11.646   9.997   4.600 -0.1218  1.5567 -2.1171
  742MOL0     H  125  11.549  10.014   4.743 -2.3891 -2.2006  0.1004
  742MOL0     H  126  11.520  10.255   4.688 -1.6072 -0.6799 -2.3343
  742MOL0     H  127  11.585  10.227   4.517  3.8829 -1.6584  0.0495
  742MOL0     H  128  11.751  10.345   4.646  1.1834 -0.1966 -1.5142
  742MOL0     H  129  11.801  10.180   4.609  1.2039 -0.3984  1.7322
  742MOL0     H  130  11.785  10.438   4.920  0.4111  0.8099  0.3732
  742MOL0     H  131  11.905  10.605   5.007 -2.5613 -1.2377 -0.4668
  742MOL0     H  132  11.943  10.546   5.177 -1.7588 -0.8095 -0.5395
  742MOL0     H  133  12.073  10.570   5.065 -0.7418  3.0246 -0.6129
  742MOL0     H  134  12.505  10.225   5.247  3.5100  0.6554  1.8344
  742MOL0     H  135  12.677  10.357   5.346 -0.5642 -0.0463  1.1315
  742MOL0     H  136  12.755  10.556   5.489  2.9026 -0.3687  1.3985
  742MOL0     H  137  12.856  10.536   5.351 -1.1064 -0.9757  2.6169
  742MOL0     H  138  12.961  10.699   5.496  0.5062  2.1529  0.0725
  742MOL0     H  139  12.928  10.777   5.342 -1.5917  0.2355 -0.7255
  742MOL0     H  140  12.753  10.799   5.593 -0.2607 -0.2484 -0.8456
  742MOL0     H  141  12.716  10.871   5.435  1.5415  1.2881 -1.4255
  742MOL0     H  142  12.978  10.940   5.576 -0.3924  0.3122  2.1434
  742MOL0     H  143  12.902  11.021   5.436  0.5241 -2.0282  0.0058
  742MOL0     H  144  12.794  10.995   5.724  2.6732  0.7232  0.1673
  742MOL0     H  145  12.694  11.064   5.583  0.1038  1.2615 -1.1554
  742MOL0     H  146  12.856  11.252   5.570 -0.9348  0.3817 -0.3696
  742MOL0     H  147  12.760  11.248   5.717  0.5982 -1.7155  2.0395
  742MOL0     H  148  13.034  11.115   5.711  0.1861  0.9374  0.6315
  742MOL0     H  149  12.948  11.172   5.853  3.6921 -1.5166  1.3053
  742MOL0     H  150  13.024  11.373   5.839 -0.7716 -0.8113 -0.1819
  742MOL0     H  151  13.016  11.393   5.660 -0.8325  2.0790  1.0733
  742MOL0     H  152  12.535  10.708   5.132  1.5851 -0.8187 -1.1869
  742MOL0     H  153  12.353  10.569   5.032  0.5922  2.9049  1.5095
  742MOL0     H  154  12.154  10.118   5.005  2.6181  2.1932  0.1040
  742MOL0     H  155  11.950  10.058   4.851  0.7819  0.0149  0.1316
  742MOL0     H  156  11.015  11.199   3.669  0.1897  0.1739 -0.1033
  742MOL0     H  157  10.784  11.304   3.631 -0.4868 -0.8945 -1.6125
  742MOL0     H  158  10.413  11.416   3.591 -0.7121  0.0743  0.4334
  742MOL0     H  159  10.191  11.537   3.578  0.7032 -0.7918  2.2752
  742MOL0     H  160   9.806  11.471   3.541 -1.5411  3.0899 -2.4202
  742MOL0     H  161   9.941  11.492   3.638 -0.5829  1.6569  0.7481
  742MOL0     H  162  10.002  11.701   3.453  0.0159  2.1176  0.1274
  742MOL0     H  163   9.880  11.713   3.580  2.1268 -1.7120  1.5397
  742MOL0     H  164   9.707  11.653   3.374 -0.5738 -0.7524 -2.1597
  742MOL0     H  165   9.860  11.601   3.298  2.0509  0.2354  1.1437
  742MOL0     H  166   9.929  11.831   3.252 -1.5645  1.7555 -3.2894
  742MOL0     H  167   9.814  11.899   3.371  1.6587  0.2477 -0.0982
  742MOL0     H  168   9.589  11.859   3.025  0.9318 -0.6715 -1.9610
  742MOL0     H  169  10.003  11.176   3.443 -0.0877  0.3971  0.3662
  742MOL0     H  170  10.202  11.056   3.497  0.6377 -1.4964  2.2483
  743MOL0     O  171   6.113   8.084   3.226 -0.3034 -0.3074 -0.4998
  743MOL0     C  172   6.104   7.966   3.183 -0.2921  0.0551 -0.6929
  743MOL0     O  173   5.979   7.905   3.146  0.6133 -0.1833  0.0132
  743MOL0     C  174   5.858   7.974   3.151 -0.4465  0.6842  0.9111
  743MOL0     C  175   5.829   8.071   3.056 -0.5466 -0.0217  0.4710
  743MOL0     C  176   5.698   8.129   3.042  0.2090  0.4265 -0.4861
  743MOL0     C  177   5.599   8.093   3.141 -0.4106 -0.2449 -0.1127
  743MOL0     O  178   5.476   8.151   3.147  0.2376  0.1639 -0.6265
  743MOL0     C  179   5.434   8.217   3.025  0.3259  0.0017  0.1919
  743MOL0     C  180   5.282   8.251   3.023 -0.5975  0.4438  0.1625
  743MOL0     C  181   5.237   8.332   3.146 -0.1628  0.0065 -0.0176
  743MOL0     C  182   5.091   8.375   3.142  0.0841  1.1120 -0.2238
  743MOL0     C  183   5.051   8.449   3.268 -0.1828 -0.2809  0.1620
  743MOL0     C  184   5.131   8.579   3.294 -0.1437 -0.1395  0.7893
  743MOL0     C  185   5.076   8.658   3.411 -0.0899  0.9236 -0.4584
  743MOL0     C  186   5.104   8.571   3.537 -0.1474 -0.8598  1.3745
  743MOL0     N  187   5.057   8.626   3.665  0.2761  0.4487  0.1046
  743MOL0     C  188   4.931   8.613   3.728  0.1246 -0.6641 -0.4822
  743MOL0     C  189   4.933   8.694   3.838 -0.5110 -0.3555  0.2504
  743MOL0     C  190   4.819   8.715   3.941 -0.2757 -0.8258  0.2306
  743MOL0     C  191   4.678   8.677   3.893 -0.0567 -0.5838  0.5655
  743MOL0     C  192   4.625   8.781   3.788 -0.0785  0.7061  1.0993
  743MOL0     C  193   4.475   8.808   3.794 -0.0025  0.0029  0.5178
  743MOL0     O  194   4.401   8.702   3.730  0.1035 -0.3639 -0.1180
  743MOL0     C  195   4.270   8.683   3.759 -0.0357 -0.2399 -0.8172
  743MOL0     C  196   4.181   8.669   3.653  0.0906  0.9728 -0.2897
  743MOL0     C  197   4.044   8.639   3.675  0.9479  0.6728  0.1176
  743MOL0     C  198   3.961   8.615   3.553 -0.1604 -0.1072  0.0090
  743MOL0     C  199   3.989   8.637   3.804  0.3388  0.5909  0.7239
  743MOL0     C  200   3.847   8.611   3.843  0.7726  0.3054  0.1024
  743MOL0     O  201   3.776   8.532   3.759  0.5296  0.8695 -0.6614
  743MOL0     C  202   3.637   8.537   3.758  0.4898 -0.2152  0.3101
  743MOL0     C  203   3.545   8.543   3.863 -0.7388 -0.2113 -0.3962
  743MOL0     C  204   3.405   8.535   3.831  0.1524 -0.5285 -0.0171
  743MOL0     C  205   3.353   8.521   3.704  0.4152  0.0869 -0.0847
  743MOL0     O  206   3.217   8.507   3.687 -0.9949  0.0808 -0.5146
  743MOL0     C  207   3.170   8.459   3.561  1.4035  0.2672  0.4724
  743MOL0     C  208   3.028   8.417   3.593  0.7452 -0.3001  0.9121
  743MOL0     C  209   2.937   8.385   3.478  0.6802  0.3997 -0.1607
  743MOL0     C  210   2.802   8.330   3.516  0.8946  1.3555 -1.2182
  743MOL0     C  211   2.719   8.288   3.390  0.3470  0.3184 -0.0352
  743MOL0     C  212   2.634   8.176   3.433  0.3589 -0.0207  0.6351
  743MOL0     C  213   2.512   8.149   3.351 -0.4114 -0.4308 -0.4607
  743MOL0     C  214   2.396   8.237   3.406  0.7181  0.3780  0.0770
  743MOL0    Cl  215   2.317   8.170   3.558 -0.2321  0.1786  0.2748
  743MOL0     C  216   3.446   8.519   3.600  0.4841  0.0351 -0.7924
  743MOL0     C  217   3.583   8.524   3.630  0.1175  0.1624 -0.1443
  743MOL0     O  218   3.802   8.668   3.946 -0.2087 -0.3190 -0.3102
  743MOL0     C  219   4.081   8.659   3.912  0.0994 -0.5059  0.5053
  743MOL0     C  220   4.217   8.691   3.892  0.1151  0.0608  0.5877
  743MOL0     N  221   5.056   8.763   3.845 -0.0480  1.4077 -0.7383
  743MOL0     N  222   5.126   8.709   3.744  0.1298 -0.3073 -1.0518
  743MOL0     C  223   5.634   7.997   3.244 -0.5296 -0.6390  0.3152
  743MOL0     C  224   5.762   7.935   3.250 -1.4218  0.2586 -0.2846
  743MOL0     C  225   6.235   7.894   3.167 -0.2238  0.0736  0.1416
  743MOL0     C  226   6.231   7.775   3.097  0.1515 -0.0823 -0.4956
  743MOL0     C  227   6.348   7.710   3.064 -0.1258 -0.0368 -0.4650
  743MOL0     C  228   6.477   7.757   3.099  0.2362 -0.0966  0.5620
  743MOL0     O  229   6.586   7.683   3.076  0.2246 -0.2156  0.3696
  743MOL0     C  230   6.618   7.669   2.935 -0.1588 -0.3592  0.3882
  743MOL0     C  231   6.691   7.532   2.915  0.1329  0.0037  0.1796
  743MOL0     C  232   6.601   7.412   2.915  0.2058  0.5668  0.4675
  743MOL0     C  233   6.675   7.283   2.865 -0.2666 -0.2244 -0.9448
  743MOL0     C  234   6.714   7.290   2.726 -0.1419 -1.2900  0.6348
  743MOL0     C  235   6.744   7.305   2.612 -0.7050  0.1575 -0.2345
  743MOL0     C  236   6.485   7.866   3.185  0.3185 -0.7140 -0.7648
  743MOL0     C  237   6.360   7.936   3.219  0.2677  0.1189  0.2025
  743MOL0     H  238   5.897   8.085   2.973  1.2959 -0.6641  1.8058
  743MOL0     H  239   5.684   8.175   2.945 -1.8955 -0.1142 -0.4963
  743MOL0     H  240   5.502   8.302   3.014  1.0758 -0.4046  1.4031
  743MOL0     H  241   5.450   8.151   2.939  1.2016 -0.6069  0.7997
  743MOL0     H  242   5.273   8.297   2.925 -0.3521  0.7806  0.2970
  743MOL0     H  243   5.217   8.162   3.023 -1.2236  0.7962  2.9106
  743MOL0     H  244   5.257   8.263   3.228  1.4208 -1.1813 -1.3293
  743MOL0     H  245   5.294   8.423   3.166 -0.5224 -0.0341  1.2396
  743MOL0     H  246   5.075   8.441   3.056 -1.4169 -1.9887 -2.5245
  743MOL0     H  247   5.039   8.279   3.132  1.9491  0.1373 -0.9942
  743MOL0     H  248   4.944   8.474   3.268 -0.2243 -0.3070  2.1596
  743MOL0     H  249   5.075   8.383   3.351  0.6605  2.0684  1.9026
  743MOL0     H  250   5.237   8.556   3.304 -0.6347 -2.9564  0.3499
  743MOL0     H  251   5.116   8.645   3.207  2.3888 -1.0446 -0.4239
  743MOL0     H  252   5.128   8.754   3.417 -0.4040  1.0280  0.8080
  743MOL0     H  253   4.971   8.687   3.414 -0.5001 -0.4413 -0.9234
  743MOL0     H  254   5.208   8.538   3.538  0.2861  0.2878 -0.8029
  743MOL0     H  255   5.048   8.477   3.528  0.9914 -1.3976 -0.9966
  743MOL0     H  256   4.850   8.542   3.713 -0.4797 -0.2000  0.5267
  743MOL0     H  257   4.838   8.651   4.027  1.8036 -1.0560 -0.3601
  743MOL0     H  258   4.812   8.821   3.969 -2.5678 -1.3827  2.1264
  743MOL0     H  259   4.606   8.666   3.974 -2.3854 -0.2131 -1.3425
  743MOL0     H  260   4.682   8.582   3.838 -1.4487 -0.0067 -0.5932
  743MOL0     H  261   4.642   8.737   3.689 -0.6885 -0.5239  1.5149
  743MOL0     H  262   4.672   8.879   3.780  0.8445  0.1352 -2.3096
  743MOL0     H  263   4.456   8.892   3.727  0.8046  1.0712  1.6075
  743MOL0     H  264   4.431   8.831   3.891 -3.7703 -2.2469 -0.4096
  743MOL0     H  265   4.217   8.672   3.551 -0.4842 -2.7114 -0.7432
  743MOL0     H  266   3.884   8.691   3.534 -0.4856 -0.5917 -0.6779
  743MOL0     H  267   4.025   8.604   3.465 -0.6068  2.9085 -0.8196
  743MOL0     H  268   3.905   8.521   3.555 -0.3502  0.0176  0.8959
  743MOL0     H  269   3.564   8.564   3.968 -2.2813  0.5482 -0.2491
  743MOL0     H  270   3.329   8.543   3.908  0.8662 -0.4560  0.6913
  743MOL0     H  271   3.169   8.550   3.499 -2.0915  1.7425  2.4325
  743MOL0     H  272   3.228   8.377   3.518  1.1239 -0.4298  1.4061
  743MOL0     H  273   3.029   8.333   3.663  2.1805 -0.5518  0.6213
  743MOL0     H  274   2.981   8.496   3.653  2.1385  0.8373  0.5623
  743MOL0     H  275   2.985   8.305   3.422 -0.6642 -1.7054  1.4971
  743MOL0     H  276   2.926   8.473   3.415 -2.2626  3.0866  3.5970
  743MOL0     H  277   2.819   8.244   3.582  0.8085  1.2031 -1.3974
  743MOL0     H  278   2.740   8.407   3.563  1.3957  0.0066  1.9416
  743MOL0     H  279   2.780   8.248   3.308 -2.3614 -2.2978 -0.9405
  743MOL0     H  280   2.677   8.382   3.352  0.7067  1.3977  2.0469
  743MOL0     H  281   2.694   8.084   3.430  1.2788  0.5998 -0.7394
  743MOL0     H  282   2.594   8.186   3.535 -1.4663 -2.1028  0.2017
  743MOL0     H  283   2.485   8.044   3.359 -1.1326 -0.1106  1.8653
  743MOL0     H  284   2.538   8.169   3.246 -1.0109 -1.2644 -0.7817
  743MOL0     H  285   2.315   8.246   3.333 -0.2690  2.2366  1.3334
  743MOL0     H  286   2.432   8.337   3.429 -3.8012  1.5975  3.3297
  743MOL0     H  287   3.420   8.493   3.498  0.7991  1.1531 -1.1676
  743MOL0     H  288   3.649   8.530   3.545 -1.2459 -0.9790 -1.3264
  743MOL0     H  289   4.050   8.662   4.016 -1.3353 -1.0859  0.1086
  743MOL0     H  290   4.278   8.714   3.979  3.1488  3.9437 -2.1492
  743MOL0     H  291   5.555   7.970   3.313 -1.1140 -0.3385 -0.2262
  743MOL0     H  292   5.778   7.860   3.327 -3.1346  3.1164  3.1184
  743MOL0     H  293   6.135   7.726   3.085 -1.8197  3.0580  1.2648
  743MOL0     H  294   6.347   7.617   3.009  1.9400 -0.3597 -0.0434
  743MOL0     H  295   6.526   7.677   2.876  0.8773 -0.8774 -1.3992
  743MOL0     H  296   6.686   7.749   2.901 -0.0622 -0.1360  1.0983
  743MOL0     H  297   6.776   7.520   2.984 -0.8229 -0.8854  1.2419
  743MOL0     H  298   6.729   7.528   2.812  0.2776  1.7037  0.1293
  743MOL0     H  299   6.508   7.423   2.860 -0.5473  0.4279  1.6634
  743MOL0     H  300   6.564   7.383   3.014 -0.9127 -4.4887 -1.1399
  743MOL0     H  301   6.613   7.195   2.882 -1.8266  0.9131 -0.5729
  743MOL0     H  302   6.763   7.273   2.929 -2.9818 -0.9299  3.0368
  743MOL0     H  303   6.768   7.314   2.508  1.3433 -1.1388  0.0742
  743MOL0     H  304   6.583   7.895   3.222  0.3990 -0.1816 -1.3905
  743MOL0     H  305   6.356   8.028   3.277  0.2797  2.8943 -3.8008
  744MOL0     O  306   4.363   8.970   0.438  0.6357  0.2141 -0.6323
  744MOL0     C  307   4.428   9.069   0.447 -0.8038 -0.2029 -0.2003
  744MOL0     O  308   4.410   9.168   0.536 -0.0820  0.4214  0.4065
  744MOL0     C  309   4.291   9.181   0.597  0.9228 -0.6556 -0.4894
  744MOL0     C  310   4.213   9.285   0.548 -0.3760  0.0151  0.5560
  744MOL0     C  311   4.085   9.297   0.585  0.2026 -0.2438 -0.2884
  744MOL0     C  312   4.032   9.226   0.688  0.5727 -0.2981  1.4284
  744MOL0     O  313   3.894   9.224   0.698 -0.3484 -0.3402 -0.4256
  744MOL0     C  314   3.846   9.230   0.832  0.5149 -1.1155  0.2060
  744MOL0     C  315   3.721   9.126   0.855 -0.4170 -0.4788 -0.2908
  744MOL0     C  316   3.628   9.112   0.735 -0.1184  0.1175  0.5867
  744MOL0     C  317   3.532   9.226   0.746  0.1679 -0.8139  0.7492
  744MOL0     C  318   3.394   9.169   0.776  0.5579  0.0952  0.1805
  744MOL0     C  319   3.301   9.291   0.789 -0.2351 -0.0414 -0.0591
  744MOL0     C  320   3.161   9.247   0.843  0.2556  0.7502 -0.0470
  744MOL0     C  321   3.084   9.377   0.839  0.3812  0.4598 -0.3992
  744MOL0     N  322   2.949   9.372   0.891 -0.2673 -0.8864 -0.6665
  744MOL0     C  323   2.874   9.271   0.929  0.3089 -0.1076 -0.6170
  744MOL0     C  324   2.750   9.324   0.959  0.0544 -1.0361  1.0274
  744MOL0     C  325   2.633   9.251   1.016 -0.5046 -0.1900  0.0110
  744MOL0     C  326   2.693   9.152   1.120 -0.2188 -0.5835  1.0071
  744MOL0     C  327   2.603   9.134   1.238  0.1564  0.3410 -0.2682
  744MOL0     C  328   2.671   9.053   1.350  0.5511  0.4509  0.3284
  744MOL0     O  329   2.713   8.924   1.301 -0.6609  0.0090 -0.2191
  744MOL0     C  330   2.614   8.829   1.299 -0.0404  0.3603 -0.9109
  744MOL0     C  331   2.484   8.829   1.361  0.2186  0.2927 -1.0900
  744MOL0     C  332   2.399   8.723   1.347  0.9185  0.7820  0.4571
  744MOL0     C  333   2.270   8.729   1.428  0.4459  0.5917  0.3053
  744MOL0     C  334   2.429   8.607   1.265  0.7745 -0.6788 -0.2169
  744MOL0     C  335   2.330   8.504   1.218 -0.9144 -0.9288  0.2749
  744MOL0     O  336   2.214   8.485   1.283 -0.3037  0.4789 -0.2909
  744MOL0     C  337   2.126   8.386   1.270  0.3816  0.3372  0.3795
  744MOL0     C  338   2.076   8.350   1.139  0.2398 -0.1121  0.1697
  744MOL0     C  339   1.976   8.256   1.120  0.2050 -0.4654  0.0069
  744MOL0     C  340   1.916   8.201   1.234 -0.4809  0.0105 -0.4254
  744MOL0     O  341   1.811   8.120   1.226  0.1401  0.2320  0.2919
  744MOL0     C  342   1.804   7.995   1.298 -0.4591 -0.6586 -0.7291
  744MOL0     C  343   1.846   7.870   1.220  0.0117 -0.5607  0.0151
  744MOL0     C  344   1.789   7.886   1.075  0.2284  0.2958  0.2706
  744MOL0     C  345   1.850   7.768   0.993  0.2042  0.4297  1.1243
  744MOL0     C  346   1.799   7.755   0.850  0.4063 -0.0343  0.1362
  744MOL0     C  347   1.894   7.665   0.764  0.0212  0.3597 -0.0739
  744MOL0     C  348   1.840   7.656   0.616 -0.7011  0.3773 -0.6585
  744MOL0     C  349   1.907   7.545   0.528 -1.0741 -0.1007 -0.1103
  744MOL0    Cl  350   2.061   7.607   0.482 -0.1293 -0.1620  0.0004
  744MOL0     C  351   1.961   8.235   1.361 -0.8409  0.2682 -0.2862
  744MOL0     C  352   2.066   8.328   1.382  0.0728 -0.0846 -0.1414
  744MOL0     O  353   2.364   8.439   1.114 -0.4191 -1.0405  0.2831
  744MOL0     C  354   2.563   8.608   1.217  0.4377  0.3674  0.1723
  744MOL0     C  355   2.656   8.713   1.251  0.6682  0.6874 -0.1967
  744MOL0     N  356   2.757   9.461   0.932 -0.4134 -0.2684 -0.0546
  744MOL0     N  357   2.879   9.481   0.907 -0.3931  0.2065  0.4603
  744MOL0     C  358   4.120   9.133   0.750 -0.1112  0.6855 -0.5746
  744MOL0     C  359   4.237   9.109   0.698 -0.6595  0.8041  0.0217
  744MOL0     C  360   4.558   9.086   0.372 -0.3036 -0.4998  0.5172
  744MOL0     C  361   4.580   8.998   0.271  0.0442 -0.4543  0.0092
  744MOL0     C  362   4.696   9.030   0.197 -0.1444 -0.4999  0.6389
  744MOL0     C  363   4.781   9.130   0.232 -0.5317 -0.8387 -0.3002
  744MOL0     O  364   4.903   9.162   0.174  0.0300  1.0611  0.1453
  744MOL0     C  365   4.967   9.083   0.075 -0.7892  0.1892 -0.2966
  744MOL0     C  366   4.901   9.100  -0.062 -0.3285 -0.8723  0.7107
  744MOL0     C  367   4.893   9.247  -0.098 -1.0719  0.1809  0.5324
  744MOL0     C  368   4.865   9.262  -0.248 -0.4448 -0.1040 -0.3143
  744MOL0     C  369   4.721   9.265  -0.286 -0.3337  0.1067 -0.0370
  744MOL0     C  370   4.605   9.268  -0.324 -0.0314  0.8444 -0.0038
  744MOL0     C  371   4.750   9.212   0.341  0.2286  0.3134 -0.5932
  744MOL0     C  372   4.641   9.192   0.409  0.5398 -0.0202 -0.2106
  744MOL0     H  373   4.253   9.353   0.473 -2.4560  0.7434  0.0298
  744MOL0     H  374   4.037   9.376   0.527  1.1197 -0.6275 -1.6267
  744MOL0     H  375   3.928   9.210   0.902  1.0009  0.0668  0.0212
  744MOL0     H  376   3.810   9.331   0.853 -0.3929 -1.7838  2.0436
  744MOL0     H  377   3.778   9.037   0.881 -0.8939 -1.4393 -2.3803
  744MOL0     H  378   3.659   9.147   0.943  0.3761  4.2754 -0.5550
  744MOL0     H  379   3.685   9.113   0.642  0.1535  1.7192  0.7411
  744MOL0     H  380   3.576   9.016   0.737 -0.4302  0.2394 -0.8197
  744MOL0     H  381   3.562   9.293   0.827 -0.5002 -1.2089  1.3383
  744MOL0     H  382   3.535   9.272   0.647  3.3240  1.7076  1.8631
  744MOL0     H  383   3.361   9.098   0.700 -0.0089 -1.2223  1.6027
  744MOL0     H  384   3.388   9.113   0.870  3.0951 -1.9026 -0.7453
  744MOL0     H  385   3.332   9.352   0.875  1.3553 -1.3482  0.3559
  744MOL0     H  386   3.291   9.356   0.702  0.3667  1.6568  1.0825
  744MOL0     H  387   3.110   9.177   0.777 -1.7250  2.2915 -0.2264
  744MOL0     H  388   3.168   9.206   0.944 -0.2011 -0.8397 -0.6355
  744MOL0     H  389   3.072   9.402   0.733  1.1909 -0.2807 -0.6791
  744MOL0     H  390   3.130   9.459   0.895  2.7078  0.9318 -2.8142
  744MOL0     H  391   2.896   9.165   0.941  4.3288  0.4600 -1.5066
  744MOL0     H  392   2.578   9.325   1.074 -1.2143 -0.7462  0.0580
  744MOL0     H  393   2.572   9.205   0.938 -0.1385  0.5013 -0.6920
  744MOL0     H  394   2.796   9.176   1.150 -0.1453  0.0148  0.2915
  744MOL0     H  395   2.715   9.055   1.073  0.0065 -0.1636  0.2286
  744MOL0     H  396   2.511   9.082   1.211  0.4045 -0.0643 -0.3396
  744MOL0     H  397   2.568   9.234   1.267 -1.2647  0.0303 -0.8180
  744MOL0     H  398   2.613   9.043   1.442  0.4005 -1.2800  0.0788
  744MOL0     H  399   2.750   9.123   1.378  1.6413 -0.4919 -0.2796
  744MOL0     H  400   2.443   8.911   1.419  1.8021 -0.0519  0.6252
  744MOL0     H  401   2.181   8.752   1.368  0.1674 -1.7333 -0.2805
  744MOL0     H  402   2.280   8.628   1.469  2.2430 -0.5593 -2.6062
  744MOL0     H  403   2.269   8.793   1.516 -2.0185 -1.7003  2.1259
  744MOL0     H  404   2.134   8.407   1.066  2.5674 -0.0327  1.9645
  744MOL0     H  405   1.956   8.217   1.021 -3.6869  1.1386 -0.0353
  744MOL0     H  406   1.869   7.996   1.386  1.5360  1.0201 -2.1201
  744MOL0     H  407   1.700   7.985   1.330 -1.0315  4.2183 -0.2567
  744MOL0     H  408   1.953   7.858   1.201  0.3552  1.0412  0.8111
  744MOL0     H  409   1.812   7.778   1.270  0.2380 -1.1979 -0.9843
  744MOL0     H  410   1.838   7.972   1.027 -2.7424  2.1389  0.3380
  744MOL0     H  411   1.681   7.897   1.062  0.4626  2.5303 -0.2470
  744MOL0     H  412   1.957   7.785   0.986  0.4617 -0.9791  1.2538
  744MOL0     H  413   1.843   7.670   1.041 -1.5876  0.0657  0.2355
  744MOL0     H  414   1.797   7.853   0.801  1.6393 -0.5445 -0.9924
  744MOL0     H  415   1.699   7.715   0.835  1.3988 -1.9904 -1.7267
  744MOL0     H  416   1.991   7.713   0.749  1.4219 -3.0655 -3.8123
  744MOL0     H  417   1.907   7.568   0.814  0.6011  1.7871  2.7380
  744MOL0     H  418   1.868   7.757   0.584  2.4645 -0.2623 -0.2359
  744MOL0     H  419   1.732   7.642   0.627 -0.6708  1.1091  0.8648
  744MOL0     H  420   1.849   7.503   0.446  1.0928 -2.3083 -0.6358
  744MOL0     H  421   1.920   7.459   0.595 -0.2026 -0.8551 -1.2191
  744MOL0     H  422   1.905   8.202   1.447 -1.9412  1.0967 -0.6628
  744MOL0     H  423   2.101   8.351   1.482 -1.3518  1.4639  0.0493
  744MOL0     H  424   2.596   8.529   1.150  1.7126  2.6366 -2.0197
  744MOL0     H  425   2.759   8.703   1.218  0.8961 -0.0933  0.6783
  744MOL0     H  426   4.095   9.069   0.833  3.4112 -1.1562 -0.7271
  744MOL0     H  427   4.282   9.018   0.735 -1.9334  1.3221  3.1354
  744MOL0     H  428   4.526   8.906   0.250 -1.2973 -0.0144  1.3381
  744MOL0     H  429   4.725   8.955   0.124  1.1564 -1.4659  2.0863
  744MOL0     H  430   5.075   9.098   0.065 -0.4531 -2.2525 -0.8702
  744MOL0     H  431   4.960   8.978   0.102 -1.6124 -0.1876 -1.8270
  744MOL0     H  432   4.800   9.058  -0.063  0.4508 -2.8661  1.4723
  744MOL0     H  433   4.960   9.043  -0.134  2.8634  0.3524  2.1976
  744MOL0     H  434   4.986   9.301  -0.080 -1.1938  0.6259 -0.1208
  744MOL0     H  435   4.813   9.301  -0.047 -1.4503  3.5529 -3.1297
  744MOL0     H  436   4.913   9.177  -0.298  0.5111 -0.8085  1.6874
  744MOL0     H  437   4.916   9.355  -0.272 -2.6102  1.6909  1.5574
  744MOL0     H  438   4.501   9.275  -0.349 -0.1206  0.5422  0.2704
  744MOL0     H  439   4.814   9.298   0.358  2.2869 -1.0609 -1.0294
  744MOL0     H  440   4.622   9.251   0.498 -0.5148 -3.2847  1.9142
  745MOL0     O  441   1.007   3.935   5.583  1.1647  0.4224 -0.2841
  745MOL0     C  442   0.939   4.030   5.626 -0.4625  0.0093 -0.4227
  745MOL0     O  443   0.988   4.139   5.700  0.3980 -0.3266 -0.4222
  745MOL0     C  444   1.118   4.178   5.695 -0.0077 -0.8812 -0.1750
  745MOL0     C  445   1.173   4.251   5.802  0.3392  0.7450 -0.4238
  745MOL0     C  446   1.304   4.284   5.810  0.6014 -0.6126  0.9584
  745MOL0     C  447   1.393   4.259   5.704  0.1624 -0.7674 -0.0597
  745MOL0     O  448   1.527   4.300   5.705  0.1032 -0.2953 -0.2204
  745MOL0     C  449   1.570   4.397   5.801 -0.2369 -1.3043 -0.7828
  745MOL0     C  450   1.717   4.442   5.769 -0.4810  0.1013 -0.3083
  745MOL0     C  451   1.774   4.544   5.870  0.8858  1.0761  0.5994
  745MOL0     C  452   1.912   4.582   5.835  0.4085  0.7781 -0.4992
  745MOL0     C  453   1.966   4.650   5.959 -0.1361  0.6458 -0.1912
  745MOL0     C  454   2.126   4.665   5.960  0.2328  0.6121 -0.5035
  745MOL0     C  455   2.186   4.755   6.064 -1.3429  0.4040 -0.3138
  745MOL0     C  456   2.345   4.736   6.061  0.3164  0.2694 -0.5474
  745MOL0     N  457   2.408   4.756   6.190 -0.7487  0.2629  0.6359
  745MOL0     C  458   2.389   4.673   6.303  0.8575 -0.0890  0.4457
  745MOL0     C  459   2.480   4.729   6.386 -0.1277  0.9251 -0.4202
  745MOL0     C  460   2.499   4.655   6.522  0.2067 -1.0956  0.0065
  745MOL0     C  461   2.462   4.745   6.642  0.8690  0.3176  0.4644
  745MOL0     C  462   2.475   4.675   6.787  0.0719 -0.3645 -0.3426
  745MOL0     C  463   2.631   4.686   6.822 -0.1116 -0.0969  0.0706
  745MOL0     O  464   2.671   4.822   6.847 -0.4081 -0.3110  0.4934
  745MOL0     C  465   2.800   4.842   6.865  0.6585 -0.0889  0.3042
  745MOL0     C  466   2.855   4.958   6.802  0.0383 -0.3051 -0.5505
  745MOL0     C  467   2.989   4.994   6.821 -1.1503  0.1245  0.3029
  745MOL0     C  468   3.043   5.118   6.750  0.4270  0.4140  0.8884
  745MOL0     C  469   3.072   4.902   6.895  0.1790  0.8698 -1.0696
  745MOL0     C  470   3.219   4.921   6.912  0.2869 -0.8653 -0.5153
  745MOL0     O  471   3.286   4.942   6.798 -1.1286  0.4926 -0.1961
  745MOL0     C  472   3.419   4.981   6.802 -0.0558  0.2461  0.4359
  745MOL0     C  473   3.453   5.112   6.794  0.2907 -0.5756 -1.2466
  745MOL0     C  474   3.585   5.161   6.805 -0.8828  0.1133  0.0366
  745MOL0     C  475   3.687   5.072   6.812  0.2470  0.4951  0.6674
  745MOL0     O  476   3.812   5.122   6.821 -0.0217 -0.9888 -0.5626
  745MOL0     C  477   3.872   5.133   6.951  0.0996  0.2888  0.5315
  745MOL0     C  478   3.869   5.278   6.986  0.3179  0.4053  0.0419
  745MOL0     C  479   3.982   5.322   7.088  0.8068 -1.2062  0.8450
  745MOL0     C  480   3.993   5.474   7.093 -0.0431 -0.0892  0.0318
  745MOL0     C  481   4.107   5.513   7.184 -0.9288  0.6717 -0.1783
  745MOL0     C  482   4.186   5.636   7.142  1.0387 -0.1203 -0.7248
  745MOL0     C  483   4.289   5.673   7.252 -1.1402  0.1451  0.1187
  745MOL0     C  484   4.346   5.812   7.232  0.0540  0.7198 -0.2484
  745MOL0    Cl  485   4.486   5.839   7.330  0.4043 -0.3968  0.1685
  745MOL0     C  486   3.649   4.935   6.829 -1.7680  0.7894  0.4835
  745MOL0     C  487   3.523   4.893   6.831  0.3244  0.0193 -0.9630
  745MOL0     O  488   3.275   4.906   7.021  0.3806  0.0886 -0.0178
  745MOL0     C  489   3.019   4.782   6.950 -1.1671  0.4723  0.2235
  745MOL0     C  490   2.883   4.760   6.949  0.0185  0.3292  0.2772
  745MOL0     N  491   2.549   4.834   6.334  0.1026 -0.0524 -0.8815
  745MOL0     N  492   2.511   4.845   6.212 -0.9570 -0.0447  0.1880
  745MOL0     C  493   1.332   4.197   5.593  0.3647 -0.7267  0.5888
  745MOL0     C  494   1.200   4.163   5.580  0.4354 -0.5496 -0.5477
  745MOL0     C  495   0.793   4.022   5.605 -0.4338 -0.5579  0.4289
  745MOL0     C  496   0.742   3.944   5.504  0.8554  0.5592  0.1633
  745MOL0     C  497   0.607   3.952   5.470 -0.2589  0.1527  0.5689
  745MOL0     C  498   0.528   4.037   5.538  0.2673 -1.2212  0.4277
  745MOL0     O  499   0.398   4.043   5.496  0.4791  0.6236 -0.3369
  745MOL0     C  500   0.319   4.165   5.482 -0.0169 -0.5903  0.0918
  745MOL0     C  501   0.250   4.207   5.608  0.5999 -0.1652 -0.3608
  745MOL0     C  502   0.109   4.274   5.582 -0.3698 -0.6258  0.6229
  745MOL0     C  503   0.027   4.251   5.714  0.1859  0.3576 -0.7728
  745MOL0     C  504  -0.014   4.113   5.735  0.0456  0.4551 -0.1945
  745MOL0     C  505  -0.037   4.001   5.770 -0.1311  0.3602 -0.6175
  745MOL0     C  506   0.586   4.110   5.645  0.6495 -0.2838 -0.8534
  745MOL0     C  507   0.717   4.113   5.672  0.0937  0.0023 -0.3426
  745MOL0     H  508   1.111   4.270   5.890 -0.0359 -0.2096 -0.4695
  745MOL0     H  509   1.342   4.323   5.904  0.0713  0.0398  0.9130
  745MOL0     H  510   1.499   4.480   5.795 -1.7397 -2.6421 -4.4880
  745MOL0     H  511   1.564   4.351   5.900 -0.6685  1.2176  0.4617
  745MOL0     H  512   1.771   4.348   5.757 -3.2203 -1.8203  1.2970
  745MOL0     H  513   1.716   4.494   5.673  0.0895 -1.2135 -1.0491
  745MOL0     H  514   1.723   4.641   5.873  0.1168  0.6713  1.0303
  745MOL0     H  515   1.762   4.488   5.964  2.5740  0.2948  0.3867
  745MOL0     H  516   1.971   4.496   5.805 -0.9011  0.2939 -1.7813
  745MOL0     H  517   1.908   4.653   5.753 -5.0053  0.8410 -0.5741
  745MOL0     H  518   1.924   4.751   5.963 -2.7998 -0.3420 -0.5091
  745MOL0     H  519   1.939   4.598   6.051  0.6707 -1.6068 -1.1552
  745MOL0     H  520   2.157   4.561   5.956  0.2419  0.4998  1.6359
  745MOL0     H  521   2.155   4.721   5.871 -3.0049  0.7858 -1.6051
  745MOL0     H  522   2.161   4.857   6.036 -0.7653  0.1633 -1.8419
  745MOL0     H  523   2.153   4.737   6.167  0.0304  1.2008  0.2877
  745MOL0     H  524   2.380   4.812   5.990 -0.0824  0.0557 -0.9768
  745MOL0     H  525   2.377   4.638   6.024 -0.0544 -0.5127  1.1387
  745MOL0     H  526   2.334   4.580   6.308  2.0355 -1.0424 -2.1984
  745MOL0     H  527   2.440   4.563   6.526 -1.2363 -0.2710 -1.3315
  745MOL0     H  528   2.605   4.630   6.533 -0.3051 -3.0876  0.7111
  745MOL0     H  529   2.358   4.778   6.635  0.5218 -0.3912  1.8621
  745MOL0     H  530   2.510   4.843   6.639  1.1394  0.1858  0.4101
  745MOL0     H  531   2.445   4.570   6.798  1.0295 -0.4459  1.9100
  745MOL0     H  532   2.418   4.737   6.856 -1.0796  0.8961 -2.3246
  745MOL0     H  533   2.695   4.643   6.744  1.7207  0.3215  1.2686
  745MOL0     H  534   2.651   4.623   6.910  1.1308  2.0152  1.3753
  745MOL0     H  535   2.802   5.011   6.724  0.8391 -0.0844 -0.9475
  745MOL0     H  536   3.080   5.191   6.824 -0.9962  1.0380  1.0245
  745MOL0     H  537   3.117   5.090   6.675  0.0315  1.3169  0.1457
  745MOL0     H  538   2.975   5.174   6.686  0.0149 -0.4846  0.5232
  745MOL0     H  539   3.361   5.168   6.782 -0.7076 -2.2061 -1.5671
  745MOL0     H  540   3.604   5.267   6.792 -4.1478  0.7133 -0.8125
  745MOL0     H  541   3.828   5.071   7.029  2.5511  0.9880  2.6003
  745MOL0     H  542   3.980   5.116   6.940  0.3775 -0.4671  3.5551
  745MOL0     H  543   3.885   5.341   6.898  2.8242  0.4403  0.4579
  745MOL0     H  544   3.768   5.295   7.023 -0.2068  2.6886 -2.1576
  745MOL0     H  545   4.073   5.267   7.061 -0.0114 -2.3653  0.3845
  745MOL0     H  546   3.951   5.306   7.192  0.3975  3.3042  1.6354
  745MOL0     H  547   4.015   5.511   6.992 -1.9770  1.7837  0.2266
  745MOL0     H  548   3.900   5.517   7.132 -0.5569  0.5099 -1.7623
  745MOL0     H  549   4.179   5.432   7.193 -0.3160  1.3286  1.0360
  745MOL0     H  550   4.064   5.529   7.283  0.8409  0.5340  0.6525
  745MOL0     H  551   4.233   5.621   7.045 -2.1089  0.2157 -2.4445
  745MOL0     H  552   4.109   5.714   7.137 -0.0605 -1.1323 -0.1109
  745MOL0     H  553   4.367   5.597   7.244 -1.0426  0.0800  1.4876
  745MOL0     H  554   4.258   5.661   7.356 -0.4098  0.2491  0.3526
  745MOL0     H  555   4.274   5.884   7.272 -1.2363 -0.9080  0.5090
  745MOL0     H  556   4.367   5.830   7.127  0.0414  3.9499  0.2031
  745MOL0     H  557   3.725   4.858   6.840 -1.0734  0.9713 -2.4269
  745MOL0     H  558   3.490   4.791   6.848 -0.7229  0.4145 -0.5194
  745MOL0     H  559   3.089   4.721   7.006  0.1221  2.8267  1.3647
  745MOL0     H  560   2.847   4.676   7.008  1.2422  0.6691  1.5561
  745MOL0     H  561   1.404   4.193   5.512  1.9978 -0.2390  1.9382
  745MOL0     H  562   1.164   4.132   5.482 -0.3506 -1.3973 -0.0134
  745MOL0     H  563   0.811   3.878   5.452  1.0464  1.0847 -0.2652
  745MOL0     H  564   0.555   3.890   5.398 -1.2393 -0.6451  1.8983
  745MOL0     H  565   0.388   4.245   5.452 -0.4888  0.0435  0.6811
  745MOL0     H  566   0.253   4.142   5.398  1.4270 -1.6252 -0.8030
  745MOL0     H  567   0.308   4.288   5.653 -0.7080  0.1244  0.8786
  745MOL0     H  568   0.238   4.126   5.680  0.6942 -1.9088 -2.2022
  745MOL0     H  569   0.063   4.244   5.488  0.3515  5.1532 -1.9597
  745MOL0     H  570   0.139   4.375   5.554  0.6809 -0.9269  0.5888
  745MOL0     H  571  -0.062   4.313   5.703  1.1781  1.8755 -0.4704
  745MOL0     H  572   0.070   4.296   5.804 -1.5361  0.3677  0.0686
  745MOL0     H  573  -0.076   3.908   5.806  1.2011  0.1279  0.2848
  745MOL0     H  574   0.515   4.173   5.699 -0.0609 -1.0484 -0.8761
  745MOL0     H  575   0.745   4.161   5.765  1.2860 -2.1895  0.5163
  746MOL0     O  576   0.017   8.462  11.259  0.5752  0.4206 -0.3243
  746MOL0     C  577   0.056   8.344  11.282  0.0222 -1.1464  0.4931
  746MOL0     O  578  -0.015   8.245  11.337  0.0179  0.7628 -0.3883
  746MOL0     C  579  -0.155   8.254  11.327  0.0111  0.0849 -0.8510
  746MOL0     C  580  -0.225   8.353  11.396 -0.1545 -0.4080  0.2712
  746MOL0     C  581  -0.368   8.356  11.398 -0.8261  0.4986 -0.7061
  746MOL0     C  582  -0.441   8.246  11.327 -1.1758 -1.2667 -0.2271
  746MOL0     O  583  -0.578   8.251  11.336 -0.1738  0.0771  0.1338
  746MOL0     C  584  -0.642   8.259  11.210  0.2787  0.0464 -0.1115
  746MOL0     C  585  -0.793   8.290  11.220  0.0593 -0.0898 -0.5579
  746MOL0     C  586  -0.865   8.171  11.269  0.7847 -0.0614 -0.7274
  746MOL0     C  587  -1.011   8.197  11.308  0.3101  0.0664  0.4960
  746MOL0     C  588  -1.109   8.075  11.309  0.9567  0.2070 -0.1892
  746MOL0     C  589  -1.260   8.117  11.309 -0.0619  0.2370 -0.4688
  746MOL0     C  590  -1.360   8.008  11.262 -0.0306  0.2674  0.2917
  746MOL0     C  591  -1.380   7.899  11.353 -0.1805 -0.0104 -0.3166
  746MOL0     N  592  -1.490   7.814  11.314  0.2455 -0.1018 -0.3260
  746MOL0     C  593  -1.558   7.724  11.390  0.1118 -0.2586  0.3406
  746MOL0     C  594  -1.640   7.660  11.304 -0.8128  0.1374 -0.8640
  746MOL0     C  595  -1.756   7.564  11.323 -0.6187  0.2306  0.4013
  746MOL0     C  596  -1.892   7.623  11.322 -0.0735  1.2612  0.4713
  746MOL0     C  597  -1.923   7.711  11.439 -0.1625 -0.0276  0.3825
  746MOL0     C  598  -2.057   7.771  11.426 -0.3282 -0.1895  0.2419
  746MOL0     O  599  -2.165   7.675  11.420 -0.4450 -0.3798  0.4948
  746MOL0     C  600  -2.292   7.732  11.431 -0.1080 -0.6142  0.6386
  746MOL0     C  601  -2.326   7.863  11.465 -0.4757  0.0185 -0.1403
  746MOL0     C  602  -2.462   7.914  11.463  0.3573 -0.3830  0.4933
  746MOL0     C  603  -2.479   8.048  11.527  0.0655 -0.8702 -0.1172
  746MOL0     C  604  -2.566   7.828  11.415  0.3618  0.3637  0.2983
  746MOL0     C  605  -2.714   7.870  11.412 -0.5625  0.6132  0.2968
  746MOL0     O  606  -2.751   7.994  11.453  0.0505 -0.0543  0.4034
  746MOL0     C  607  -2.884   8.013  11.482  0.1232  0.3053  0.5030
  746MOL0     C  608  -2.978   8.032  11.386  0.0168 -0.5889  0.1253
  746MOL0     C  609  -3.120   8.055  11.407  0.4080  0.1494 -0.8726
  746MOL0     C  610  -3.157   8.064  11.536  0.7066 -0.4229  0.3515
  746MOL0     O  611  -3.292   8.093  11.567 -0.3180 -0.2990 -0.0384
  746MOL0     C  612  -3.365   8.195  11.502  0.8954 -0.1009  0.3578
  746MOL0     C  613  -3.502   8.207  11.577  0.7049 -0.0897  1.3873
  746MOL0     C  614  -3.600   8.106  11.506 -0.8933  1.3951  0.1118
  746MOL0     C  615  -3.739   8.112  11.566 -1.2793 -0.3199  0.3093
  746MOL0     C  616  -3.760   8.040  11.699 -0.1566  0.4171 -0.6839
  746MOL0     C  617  -3.782   8.138  11.818 -0.0605 -0.4841 -0.5175
  746MOL0     C  618  -3.810   8.073  11.956 -0.4176  0.0166 -0.5238
  746MOL0     C  619  -3.810   8.173  12.072  0.0305  0.1664 -0.1426
  746MOL0    Cl  620  -3.944   8.299  12.065 -0.0017 -0.3951 -0.1395
  746MOL0     C  621  -3.070   8.037  11.644  0.2758  0.1684 -0.1199
  746MOL0     C  622  -2.935   8.019  11.612  0.1558  0.0930  0.1518
  746MOL0     O  623  -2.790   7.776  11.404 -0.2677  0.4799  0.0226
  746MOL0     C  624  -2.527   7.698  11.388  0.5663 -0.2335 -0.4713
  746MOL0     C  625  -2.397   7.652  11.401  0.1408 -0.0593  0.3307
  746MOL0     N  626  -1.610   7.707  11.169 -0.2893 -0.4617  0.2193
  746MOL0     N  627  -1.512   7.795  11.186 -0.3157  0.2475 -0.5723
  746MOL0     C  628  -0.364   8.147  11.257 -1.0712  0.0122 -0.4742
  746MOL0     C  629  -0.222   8.158  11.255 -0.6723 -0.3041 -0.6572
  746MOL0     C  630   0.200   8.316  11.267  0.1625  0.1530  0.2464
  746MOL0     C  631   0.244   8.181  11.280  0.0734  0.4593 -0.4453
  746MOL0     C  632   0.376   8.143  11.273  0.6859  0.3016 -0.0739
  746MOL0     C  633   0.474   8.241  11.264 -0.4756 -0.0275 -0.0502
  746MOL0     O  634   0.605   8.211  11.285  0.0321  0.2549 -0.5164
  746MOL0     C  635   0.683   8.200  11.159 -0.9525 -0.3034  0.1713
  746MOL0     C  636   0.776   8.074  11.158  0.3673  0.0843  0.3924
  746MOL0     C  637   0.681   7.950  11.155 -0.6395  0.5795 -0.0812
  746MOL0     C  638   0.763   7.827  11.114 -0.3189  1.1437 -0.1454
  746MOL0     C  639   0.704   7.692  11.154 -0.5189 -0.3830  1.0204
  746MOL0     C  640   0.676   7.575  11.180  1.0147  0.2569  0.3047
  746MOL0     C  641   0.432   8.371  11.253 -0.5824 -0.5154  0.4897
  746MOL0     C  642   0.297   8.416  11.250 -0.1001  0.6140 -0.5274
  746MOL0     H  643  -0.175   8.417  11.468 -0.0936  0.1951 -0.3048
  746MOL0     H  644  -0.410   8.433  11.462  2.4908  0.7979  1.3008
  746MOL0     H  645  -0.590   8.340  11.158  1.3196  1.0809  2.3905
  746MOL0     H  646  -0.623   8.172  11.146 -2.5305 -2.8503  2.6500
  746MOL0     H  647  -0.797   8.368  11.296  0.7296 -1.2769  0.7283
  746MOL0     H  648  -0.832   8.318  11.121  0.9078 -0.9518 -1.1590
  746MOL0     H  649  -0.861   8.096  11.190 -0.6431  0.8269 -1.6990
  746MOL0     H  650  -0.823   8.128  11.360  0.7180  3.5221  1.1796
  746MOL0     H  651  -1.000   8.244  11.406  1.1652  3.5664 -1.0979
  746MOL0     H  652  -1.068   8.261  11.240 -1.9410 -2.7220 -0.4447
  746MOL0     H  653  -1.085   8.021  11.218  2.7257 -1.1628  1.0153
  746MOL0     H  654  -1.075   8.017  11.396  0.5738 -0.2186 -0.3220
  746MOL0     H  655  -1.281   8.149  11.412  1.3721  1.7241 -0.6009
  746MOL0     H  656  -1.274   8.203  11.244 -1.4842 -0.2609 -0.8445
  746MOL0     H  657  -1.455   8.054  11.237  0.0387 -0.5513 -1.5976
  746MOL0     H  658  -1.320   7.963  11.171 -0.0454 -0.4335  0.6288
  746MOL0     H  659  -1.392   7.930  11.457  0.2598 -0.5211 -0.1041
  746MOL0     H  660  -1.291   7.835  11.359  0.6589  1.0012 -1.5916
  746MOL0     H  661  -1.572   7.719  11.498 -1.7588  1.6883  0.2741
  746MOL0     H  662  -1.740   7.484  11.250 -0.8256  1.2160 -0.7408
  746MOL0     H  663  -1.747   7.511  11.419  0.5347 -1.1983 -0.4591
  746MOL0     H  664  -1.959   7.537  11.312  1.4513 -0.0064  0.8252
  746MOL0     H  665  -1.895   7.676  11.227  3.1779  2.0212  0.6641
  746MOL0     H  666  -1.840   7.781  11.447  0.8486 -0.9218 -1.4497
  746MOL0     H  667  -1.928   7.656  11.534 -0.0970  0.2074  0.5230
  746MOL0     H  668  -2.055   7.846  11.346  1.1417  1.8752  2.0599
  746MOL0     H  669  -2.071   7.824  11.521 -0.7722  0.0200  0.0588
  746MOL0     H  670  -2.249   7.934  11.490 -1.4442  2.1227 -2.6534
  746MOL0     H  671  -2.495   8.129  11.456  2.0184 -1.6438 -1.5302
  746MOL0     H  672  -2.557   8.051  11.603 -0.2607  4.1719 -0.2898
  746MOL0     H  673  -2.386   8.074  11.578  0.2788  0.6806 -1.2262
  746MOL0     H  674  -2.941   8.029  11.284  1.5700  0.8367  0.5979
  746MOL0     H  675  -3.201   8.061  11.334  0.6834 -1.0253 -1.2974
  746MOL0     H  676  -3.330   8.299  11.503 -1.1591  0.6605  0.0775
  746MOL0     H  677  -3.393   8.175  11.398 -1.2582 -1.6438  1.1643
  746MOL0     H  678  -3.500   8.196  11.686 -1.3407  1.9111  1.6992
  746MOL0     H  679  -3.546   8.306  11.565  0.8517 -0.0328  1.3097
  746MOL0     H  680  -3.565   8.005  11.525 -2.5115  1.2698  2.9704
  746MOL0     H  681  -3.607   8.136  11.401 -0.1302 -0.0004 -0.3601
  746MOL0     H  682  -3.769   8.217  11.565 -1.6850 -0.4379 -1.0986
  746MOL0     H  683  -3.798   8.067  11.486  2.5224 -1.1699 -2.2521
  746MOL0     H  684  -3.674   7.978  11.722  0.8697  1.8341 -0.5594
  746MOL0     H  685  -3.837   7.963  11.696 -0.5393  0.7136  0.6666
  746MOL0     H  686  -3.718   8.225  11.834 -2.4731  1.0585  1.3306
  746MOL0     H  687  -3.878   8.181  11.791 -0.6814 -0.8561  0.9988
  746MOL0     H  688  -3.737   7.995  11.979 -2.4499 -1.8021  0.2089
  746MOL0     H  689  -3.912   8.033  11.950 -0.2389 -0.4134 -0.7387
  746MOL0     H  690  -3.722   8.239  12.072  0.2292 -0.0944 -0.6414
  746MOL0     H  691  -3.829   8.120  12.166 -0.8490  0.5908 -0.0664
  746MOL0     H  692  -3.108   8.057  11.744 -2.6488 -0.1253 -1.0909
  746MOL0     H  693  -2.869   8.000  11.696 -0.8514  0.1948  0.9760
  746MOL0     H  694  -2.610   7.635  11.360  0.4716  0.7979 -2.7335
  746MOL0     H  695  -2.384   7.547  11.377  2.4640 -0.0778  1.4435
  746MOL0     H  696  -0.407   8.067  11.198  1.8166 -1.8742 -0.2552
  746MOL0     H  697  -0.155   8.096  11.196  1.8409  2.6016 -1.0870
  746MOL0     H  698   0.172   8.104  11.304  1.4759 -0.2589  1.6898
  746MOL0     H  699   0.394   8.036  11.272  0.0251  0.1836  0.0731
  746MOL0     H  700   0.623   8.189  11.068  0.2920 -0.6104 -0.6308
  746MOL0     H  701   0.733   8.295  11.140  0.5567 -1.3739 -1.5943
  746MOL0     H  702   0.844   8.063  11.243  0.5521  2.3802  0.6056
  746MOL0     H  703   0.840   8.077  11.069 -0.4876 -1.1420 -0.2883
  746MOL0     H  704   0.608   7.965  11.075  0.4977 -1.6105 -1.6130
  746MOL0     H  705   0.643   7.934  11.256  0.6655 -0.0481  0.3333
  746MOL0     H  706   0.861   7.826  11.163  1.5110 -0.6594 -3.5105
  746MOL0     H  707   0.776   7.821  11.006 -3.0719  1.6247 -0.5845
  746MOL0     H  708   0.648   7.483  11.227 -0.2392  0.5513  0.1554
  746MOL0     H  709   0.503   8.450  11.236 -0.5445 -0.5999  0.2465
  746MOL0     H  710   0.261   8.516  11.231 -1.4182  0.0662 -1.0685
  747MOL0     O  711   0.929  10.241   1.686  0.3063 -0.2204  0.2458
  747MOL0     C  712   1.032  10.208   1.630  0.1307 -0.8547  0.0154
  747MOL0     O  713   1.041  10.101   1.553 -0.3241  0.1195  0.3311
  747MOL0     C  714   0.923  10.029   1.522 -0.1834 -0.9825  0.2486
  747MOL0     C  715   0.931   9.893   1.515 -0.0674  0.0586  0.7246
  747MOL0     C  716   0.828   9.813   1.478 -0.0266 -0.1351 -0.0075
  747MOL0     C  717   0.708   9.875   1.441 -0.1610  0.4986 -1.1145
  747MOL0     O  718   0.602   9.797   1.402 -0.2854 -1.2342  0.5521
  747MOL0     C  719   0.630   9.661   1.358 -1.0381  0.1139  0.1196
  747MOL0     C  720   0.504   9.595   1.302  0.8812 -0.2600  0.6726
  747MOL0     C  721   0.382   9.593   1.390  0.0356  0.1487  0.1010
  747MOL0     C  722   0.282   9.477   1.353  0.0555  0.5226 -0.2354
  747MOL0     C  723   0.169   9.463   1.448  1.1554  0.3221 -1.0582
  747MOL0     C  724   0.199   9.383   1.578 -0.0018 -0.1358 -0.3607
  747MOL0     C  725   0.072   9.369   1.669  0.1343  0.3370 -0.3270
  747MOL0     C  726   0.097   9.235   1.746  0.4654  0.2578  0.5178
  747MOL0     N  727  -0.007   9.205   1.840  0.6196 -0.2786  0.5113
  747MOL0     C  728  -0.139   9.200   1.815 -0.3168 -0.3740 -0.2030
  747MOL0     C  729  -0.188   9.151   1.922  0.5009  1.0266 -1.0228
  747MOL0     C  730  -0.329   9.097   1.931 -0.7778 -0.2198  0.3048
  747MOL0     C  731  -0.435   9.200   1.952  0.3781  0.1553  0.4072
  747MOL0     C  732  -0.392   9.298   2.061  0.1520 -0.3761 -0.8353
  747MOL0     C  733  -0.509   9.398   2.082 -0.9975 -0.0531  0.1203
  747MOL0     O  734  -0.491   9.495   1.976  0.1584  0.2311  0.4896
  747MOL0     C  735  -0.589   9.581   1.932  0.3124  0.5984 -0.6484
  747MOL0     C  736  -0.684   9.623   2.023  0.4936  0.1899  0.7381
  747MOL0     C  737  -0.786   9.709   1.990  0.5217 -0.0069  0.1777
  747MOL0     C  738  -0.894   9.738   2.093 -0.2084  0.9695  0.2686
  747MOL0     C  739  -0.799   9.741   1.850  0.6168 -0.1813  0.4480
  747MOL0     C  740  -0.916   9.816   1.786  0.0195 -0.9564 -0.3629
  747MOL0     O  741  -1.021   9.854   1.873 -0.1944  0.9453  0.7521
  747MOL0     C  742  -1.107   9.951   1.824  0.1434 -0.1578 -1.0418
  747MOL0     C  743  -1.118  10.066   1.894 -0.5051 -0.5639 -0.5797
  747MOL0     C  744  -1.218  10.160   1.859  0.0544  0.1820 -0.6893
  747MOL0     C  745  -1.304  10.143   1.752  0.0603  0.3141  0.1590
  747MOL0     O  746  -1.390  10.239   1.707 -0.0997 -0.0377  0.2672
  747MOL0     C  747  -1.506  10.188   1.636  0.5572  0.0407  0.2342
  747MOL0     C  748  -1.596  10.313   1.620 -0.0739 -0.0812 -0.8456
  747MOL0     C  749  -1.741  10.271   1.613 -0.5525 -0.2553 -0.7757
  747MOL0     C  750  -1.767  10.174   1.502  0.3628 -0.2051 -0.5287
  747MOL0     C  751  -1.914  10.131   1.477  0.9282 -0.3672 -0.0919
  747MOL0     C  752  -2.007  10.250   1.466  0.4043  0.6092 -0.2238
  747MOL0     C  753  -1.988  10.316   1.334  0.3421  0.3530  0.4449
  747MOL0     C  754  -2.081  10.432   1.323  0.0059 -0.2528  0.1706
  747MOL0    Cl  755  -2.004  10.567   1.410 -0.3731 -0.0097  0.6712
  747MOL0     C  756  -1.297  10.015   1.696  0.3629  0.0454 -0.2523
  747MOL0     C  757  -1.204   9.925   1.724 -0.2552  0.0453  0.1565
  747MOL0     O  758  -0.914   9.848   1.666 -0.5148 -0.3780 -0.6878
  747MOL0     C  759  -0.705   9.683   1.755  1.0741 -0.9447  0.0860
  747MOL0     C  760  -0.595   9.600   1.789 -0.3925 -0.3947 -0.7012
  747MOL0     N  761  -0.090   9.130   2.021  0.2572 -0.2124 -0.5908
  747MOL0     N  762   0.020   9.177   1.976  0.4110  0.6354 -0.4750
  747MOL0     C  763   0.699  10.014   1.452  1.0649  0.4659  0.5093
  747MOL0     C  764   0.806  10.087   1.493 -0.5726 -0.5055  0.1338
  747MOL0     C  765   1.148  10.299   1.658 -0.3773  0.2001 -0.3314
  747MOL0     C  766   1.278  10.260   1.616 -0.0173 -0.1507 -0.2868
  747MOL0     C  767   1.392  10.345   1.635  0.3942 -0.1464 -0.1112
  747MOL0     C  768   1.378  10.471   1.700  0.1708 -0.1084  0.2929
  747MOL0     O  769   1.472  10.559   1.737  0.3860 -0.4306  0.2400
  747MOL0     C  770   1.602  10.540   1.669  0.5182 -0.0505 -0.1276
  747MOL0     C  771   1.676  10.673   1.679  0.1922  0.0725  0.1396
  747MOL0     C  772   1.737  10.696   1.821  0.5277  0.2507  0.1020
  747MOL0     C  773   1.780  10.839   1.835 -0.2917 -0.5819 -0.6911
  747MOL0     C  774   1.893  10.862   1.744  0.3806  0.5087 -0.4265
  747MOL0     C  775   1.985  10.862   1.668  0.6089  0.1146 -0.4206
  747MOL0     C  776   1.246  10.510   1.741 -0.7426 -0.4027  0.0799
  747MOL0     C  777   1.137  10.421   1.729  0.2582 -0.1027 -0.1290
  747MOL0     H  778   1.025   9.850   1.548  0.2631  0.1458 -0.0909
  747MOL0     H  779   0.838   9.705   1.481 -3.5831 -0.5865  3.6604
  747MOL0     H  780   0.706   9.652   1.279  1.2336  0.9089  2.0891
  747MOL0     H  781   0.659   9.603   1.446  1.7342 -1.1957 -1.5031
  747MOL0     H  782   0.477   9.644   1.207  1.4923 -0.9690  0.1244
  747MOL0     H  783   0.533   9.493   1.276 -0.0225 -0.3721  0.0315
  747MOL0     H  784   0.416   9.577   1.492  3.4441 -1.9047 -1.1914
  747MOL0     H  785   0.330   9.689   1.382  3.1279  1.8233 -1.3933
  747MOL0     H  786   0.238   9.497   1.255 -0.9166 -0.1013  0.0531
  747MOL0     H  787   0.334   9.381   1.350 -3.2314 -1.4651  0.9747
  747MOL0     H  788   0.113   9.555   1.466 -3.4514 -2.1752 -0.8028
  747MOL0     H  789   0.086   9.408   1.401 -0.0892 -0.0816  1.4364
  747MOL0     H  790   0.214   9.282   1.540 -3.1460 -1.5590  1.7313
  747MOL0     H  791   0.285   9.420   1.636 -1.5436  1.0630  1.3066
  747MOL0     H  792   0.061   9.452   1.740  1.9299  3.5231 -3.4713
  747MOL0     H  793  -0.017   9.351   1.607 -0.1430 -1.0603  0.4241
  747MOL0     H  794   0.188   9.250   1.805  1.4731  0.7926 -1.0926
  747MOL0     H  795   0.114   9.148   1.682  0.1941 -2.0543  3.4009
  747MOL0     H  796  -0.191   9.223   1.723 -0.2278  3.6636  0.5939
  747MOL0     H  797  -0.354   9.037   1.843 -1.0498  1.5101 -0.8459
  747MOL0     H  798  -0.342   9.030   2.017 -4.2596  2.1368  1.8707
  747MOL0     H  799  -0.526   9.148   1.982  1.1176 -0.7276  1.2077
  747MOL0     H  800  -0.455   9.259   1.862 -1.4550  1.0456  1.3507
  747MOL0     H  801  -0.295   9.346   2.045  1.2122 -2.1985 -0.1855
  747MOL0     H  802  -0.375   9.239   2.152 -0.5634 -2.0316 -1.7374
  747MOL0     H  803  -0.483   9.449   2.174  1.5372  0.2009 -0.6554
  747MOL0     H  804  -0.608   9.352   2.080 -0.9854 -0.0842  0.2418
  747MOL0     H  805  -0.682   9.573   2.120 -2.9226  0.0524  0.8463
  747MOL0     H  806  -0.881   9.680   2.185  3.6353 -1.8682 -1.7513
  747MOL0     H  807  -0.899   9.842   2.127  0.4649  1.2680 -0.5033
  747MOL0     H  808  -0.995   9.719   2.058 -2.3599  2.3026  5.0171
  747MOL0     H  809  -1.046  10.081   1.974 -1.2847  0.3353 -0.0365
  747MOL0     H  810  -1.221  10.252   1.917  1.0242 -0.6409  0.7165
  747MOL0     H  811  -1.473  10.136   1.546 -0.4527  1.0033 -0.7191
  747MOL0     H  812  -1.563  10.119   1.699 -2.6122 -0.5438 -2.9394
  747MOL0     H  813  -1.584  10.373   1.711  0.7183 -1.0925 -0.2601
  747MOL0     H  814  -1.568  10.377   1.536 -0.0504  0.8138 -0.1735
  747MOL0     H  815  -1.803  10.360   1.599 -1.4744 -0.8004 -0.2498
  747MOL0     H  816  -1.767  10.221   1.707  1.6926 -2.1317 -1.0587
  747MOL0     H  817  -1.726  10.220   1.412  0.0924 -0.1530 -0.6278
  747MOL0     H  818  -1.705  10.087   1.527  2.8972  1.5575 -0.3108
  747MOL0     H  819  -1.968  10.068   1.549 -0.5499  1.3800  0.3870
  747MOL0     H  820  -1.919  10.066   1.389  0.5434  1.6545 -1.6113
  747MOL0     H  821  -2.107  10.209   1.480 -0.0085  1.6349 -0.1192
  747MOL0     H  822  -2.003  10.321   1.549 -0.6587 -0.6853  0.9938
  747MOL0     H  823  -2.015  10.244   1.256  0.0455  1.1792 -0.2378
  747MOL0     H  824  -1.887  10.359   1.333 -0.2415  1.7865 -0.1168
  747MOL0     H  825  -2.183  10.413   1.359 -1.0155  2.5447 -0.9768
  747MOL0     H  826  -2.085  10.454   1.216 -0.6892 -3.9224 -0.6747
  747MOL0     H  827  -1.373   9.993   1.622 -3.0679  1.6864  2.4944
  747MOL0     H  828  -1.201   9.842   1.654 -2.0401  2.3414 -2.8756
  747MOL0     H  829  -0.716   9.711   1.651 -2.2294  0.4243  0.6745
  747MOL0     H  830  -0.516   9.562   1.726  0.2336  0.5325 -0.5002
  747MOL0     H  831   0.608  10.067   1.425  0.6174 -0.1788  0.7406
  747MOL0     H  832   0.788  10.194   1.503  0.9463 -0.3289  1.2807
  747MOL0     H  833   1.293  10.162   1.571 -0.0386  0.1400 -0.9346
  747MOL0     H  834   1.489  10.317   1.594  1.2945  2.7748 -0.2398
  747MOL0     H  835   1.652  10.456   1.720 -3.1335 -1.1375  2.0131
  747MOL0     H  836   1.596  10.518   1.562  0.7024 -1.8072  0.1864
  747MOL0     H  837   1.608  10.758   1.670  0.5266  0.3124 -0.1508
  747MOL0     H  838   1.748  10.684   1.597 -0.4510 -0.3188 -0.4891
  747MOL0     H  839   1.812  10.618   1.833 -0.5175 -0.8658 -0.3454
  747MOL0     H  840   1.653  10.671   1.886 -1.2763  1.8700 -1.4503
  747MOL0     H  841   1.811  10.861   1.937  1.6814 -2.6519 -0.7622
  747MOL0     H  842   1.711  10.917   1.801  2.2063  2.0214 -0.2360
  747MOL0     H  843   2.067  10.855   1.600  0.4358  0.7688 -0.6963
  747MOL0     H  844   1.231  10.605   1.792 -2.7923 -0.6465  0.0469
  747MOL0     H  845   1.040  10.450   1.767 -0.1758 -0.9152 -0.5865
  748MOL0     O  846   9.638   4.053   6.198 -0.2118 -0.2732 -0.6780
  748MOL0     C  847   9.744   4.111   6.222  0.6537 -0.2290 -0.2035
  748MOL0     O  848   9.766   4.228   6.286  0.0118 -0.0696 -0.4734
  748MOL0     C  849   9.653   4.288   6.339 -0.3538  0.1153  0.0665
  748MOL0     C  850   9.570   4.368   6.261 -0.8285  0.3066  1.1164
  748MOL0     C  851   9.462   4.439   6.316  1.4131 -0.0592 -0.4182
  748MOL0     C  852   9.431   4.429   6.456 -0.8136 -0.4153  0.0458
  748MOL0     O  853   9.333   4.508   6.518 -0.6309  0.5261 -0.1662
  748MOL0     C  854   9.352   4.651   6.497 -0.1411 -0.1916  0.6526
  748MOL0     C  855   9.235   4.726   6.563  0.1152 -0.1582 -0.2195
  748MOL0     C  856   9.229   4.882   6.536 -0.7631 -0.9129 -0.0443
  748MOL0     C  857   9.123   4.957   6.602  0.7298  0.2668 -0.1000
  748MOL0     C  858   9.139   5.102   6.595  0.3274  0.0945 -0.2758
  748MOL0     C  859   9.011   5.168   6.668 -1.0246  0.6796  0.3096
  748MOL0     C  860   9.001   5.327   6.662 -0.2302  0.8521  0.4055
  748MOL0     C  861   8.919   5.375   6.777 -0.0953  0.0276 -0.0921
  748MOL0     N  862   8.879   5.519   6.760 -0.0706  0.2546 -0.0720
  748MOL0     C  863   8.827   5.574   6.646  0.3195  0.8448 -0.5403
  748MOL0     C  864   8.835   5.709   6.666  0.2891 -0.5984  0.0778
  748MOL0     C  865   8.793   5.814   6.561  0.1520 -0.1234  0.6541
  748MOL0     C  866   8.801   5.962   6.601  0.7324  0.7300 -0.4427
  748MOL0     C  867   8.704   5.981   6.717 -0.6160 -0.2323 -0.7082
  748MOL0     C  868   8.628   6.107   6.717  0.0287 -0.3278  1.2369
  748MOL0     O  869   8.524   6.099   6.812  0.5228  0.7264  0.0426
  748MOL0     C  870   8.401   6.173   6.799  0.0292  1.1578 -0.3347
  748MOL0     C  871   8.388   6.280   6.710  0.8326 -0.0951 -0.8172
  748MOL0     C  872   8.267   6.340   6.679 -0.6628 -0.8772  0.4259
  748MOL0     C  873   8.259   6.467   6.605 -0.1365 -0.5614  0.2328
  748MOL0     C  874   8.151   6.278   6.733  0.3588 -0.5513  0.7541
  748MOL0     C  875   8.016   6.329   6.705 -0.2441  0.0738  0.1123
  748MOL0     O  876   7.993   6.468   6.730  0.2610  0.1425 -0.0228
  748MOL0     C  877   7.861   6.506   6.718  0.5064  0.3602 -0.6849
  748MOL0     C  878   7.770   6.470   6.824 -0.6739 -0.0319  1.0574
  748MOL0     C  879   7.633   6.501   6.802  0.0253 -0.1068  0.0299
  748MOL0     C  880   7.583   6.559   6.686 -0.1750 -0.9892 -0.9128
  748MOL0     O  881   7.455   6.601   6.665  1.0716 -0.0625  0.3764
  748MOL0     C  882   7.370   6.583   6.777  1.0298 -0.3340 -0.3433
  748MOL0     C  883   7.227   6.636   6.753 -0.2906 -0.0777 -0.1494
  748MOL0     C  884   7.221   6.792   6.716 -0.7334 -0.1531  0.1885
  748MOL0     C  885   7.277   6.883   6.833  0.2810  0.1574  0.0567
  748MOL0     C  886   7.243   7.035   6.804  0.1122 -0.1907 -1.0917
  748MOL0     C  887   7.327   7.103   6.700  0.2445  0.0663 -0.0500
  748MOL0     C  888   7.480   7.083   6.716  0.4850 -0.4309 -0.0406
  748MOL0     C  889   7.574   7.194   6.662 -0.9168 -0.3071 -0.6143
  748MOL0    Cl  890   7.558   7.180   6.478 -0.1860 -0.2270  0.0316
  748MOL0     C  891   7.684   6.602   6.592  0.2968  0.0416  0.8258
  748MOL0     C  892   7.813   6.564   6.602 -0.7442  0.1812 -0.3129
  748MOL0     O  893   7.932   6.253   6.658 -0.2139 -0.3961  0.0324
  748MOL0     C  894   8.157   6.168   6.821  1.3640  0.7732  0.0852
  748MOL0     C  895   8.281   6.115   6.860  0.5925 -1.0573 -0.4061
  748MOL0     N  896   8.899   5.734   6.780  0.6202  0.8740  0.8489
  748MOL0     N  897   8.924   5.623   6.835  0.1947 -0.0276  0.0984
  748MOL0     C  898   9.514   4.350   6.528 -0.3496 -0.1687 -0.2617
  748MOL0     C  899   9.625   4.282   6.477 -0.5226  0.2601  0.2842
  748MOL0     C  900   9.859   4.045   6.170 -0.0128  0.2196 -0.2686
  748MOL0     C  901   9.863   3.921   6.117 -0.4777  0.7191 -0.2987
  748MOL0     C  902   9.984   3.868   6.063  0.5752 -0.4704  0.4361
  748MOL0     C  903  10.102   3.944   6.069 -0.1415  1.2613  0.6959
  748MOL0     O  904  10.224   3.902   6.019  0.3165  0.9678 -0.3093
  748MOL0     C  905  10.267   3.772   6.086  1.2627  0.1810 -1.4302
  748MOL0     C  906  10.395   3.724   6.028  0.7118  0.2736 -0.0653
  748MOL0     C  907  10.475   3.626   6.116  0.0529  0.1493  0.0226
  748MOL0     C  908  10.411   3.485   6.130 -0.2648  0.3569  1.4826
  748MOL0     C  909  10.417   3.401   6.001  0.2488  0.4846  0.3668
  748MOL0     C  910  10.419   3.353   5.888  0.2511 -0.7272 -0.0934
  748MOL0     C  911  10.091   4.078   6.113 -0.1368 -0.2653 -0.2479
  748MOL0     C  912   9.975   4.125   6.171  0.5764  0.3678 -0.2767
  748MOL0     H  913   9.604   4.384   6.159  1.1928  0.6789  1.7865
  748MOL0     H  914   9.407   4.499   6.243  0.3807 -0.0264  0.3605
  748MOL0     H  915   9.437   4.695   6.550 -1.3167  3.6099 -0.2852
  748MOL0     H  916   9.363   4.670   6.390  0.9575  1.4725  1.0074
  748MOL0     H  917   9.140   4.690   6.522 -1.1119  3.0892 -0.5025
  748MOL0     H  918   9.261   4.707   6.667  0.6425 -3.5144 -0.8352
  748MOL0     H  919   9.324   4.921   6.572 -1.0132 -2.8717  3.1478
  748MOL0     H  920   9.229   4.896   6.427  0.4642 -1.6547 -0.1538
  748MOL0     H  921   9.034   4.915   6.555  1.5988  0.4236 -1.9836
  748MOL0     H  922   9.114   4.919   6.704  0.4553 -3.2366 -1.3139
  748MOL0     H  923   9.235   5.134   6.635  0.0265  1.8407 -0.8797
  748MOL0     H  924   9.133   5.134   6.491 -1.8755 -1.3407 -0.6663
  748MOL0     H  925   8.922   5.119   6.626 -0.2553 -0.2865 -0.2451
  748MOL0     H  926   9.004   5.133   6.772 -0.1053  1.5704  0.6767
  748MOL0     H  927   9.099   5.372   6.675  0.2973  1.0600 -3.2528
  748MOL0     H  928   8.960   5.370   6.570  1.2289 -0.2813 -0.8260
  748MOL0     H  929   8.982   5.361   6.866  0.9634  0.3105 -0.7761
  748MOL0     H  930   8.828   5.315   6.786  1.2087 -1.8790  1.2759
  748MOL0     H  931   8.793   5.521   6.557  1.1391 -0.0734 -0.3232
  748MOL0     H  932   8.849   5.811   6.468  0.5499 -0.1884  0.8955
  748MOL0     H  933   8.687   5.794   6.543 -0.2002  2.2066 -0.1651
  748MOL0     H  934   8.778   6.024   6.514  0.3039  0.0138 -0.8466
  748MOL0     H  935   8.902   5.992   6.631  0.7012  0.2748  0.1333
  748MOL0     H  936   8.751   5.987   6.815 -3.2440  1.4236  0.5681
  748MOL0     H  937   8.633   5.899   6.733 -2.7765  1.1821 -2.2927
  748MOL0     H  938   8.577   6.107   6.620 -3.2350 -1.2331  2.8090
  748MOL0     H  939   8.694   6.194   6.723 -0.9671  0.5568 -0.1192
  748MOL0     H  940   8.471   6.337   6.669  0.4909  1.7534  0.9281
  748MOL0     H  941   8.345   6.483   6.540  0.7783  1.0180  1.7591
  748MOL0     H  942   8.175   6.462   6.535 -1.4190  1.6767  1.5083
  748MOL0     H  943   8.247   6.556   6.667 -0.3131  0.6503 -1.4751
  748MOL0     H  944   7.819   6.420   6.907  0.6437  2.9610  2.2055
  748MOL0     H  945   7.559   6.473   6.876 -2.2681  2.0591 -1.3033
  748MOL0     H  946   7.356   6.477   6.799 -2.3154  0.1715  0.6109
  748MOL0     H  947   7.405   6.646   6.859  3.6268 -1.1925 -0.7105
  748MOL0     H  948   7.187   6.580   6.668  2.1046 -3.7889  0.8963
  748MOL0     H  949   7.163   6.614   6.840  1.2693  0.0913  1.0959
  748MOL0     H  950   7.119   6.826   6.693 -0.6330 -1.5836 -2.7965
  748MOL0     H  951   7.288   6.814   6.633 -2.6021  0.9068 -1.1220
  748MOL0     H  952   7.226   6.851   6.924 -0.1906 -1.4921 -0.7478
  748MOL0     H  953   7.382   6.859   6.848 -0.4135 -3.4734 -0.0031
  748MOL0     H  954   7.252   7.079   6.904  0.4942  2.0299 -2.0550
  748MOL0     H  955   7.139   7.046   6.772 -0.2778 -1.2213 -0.2234
  748MOL0     H  956   7.289   7.063   6.606  1.0684 -0.7059 -0.0707
  748MOL0     H  957   7.314   7.212   6.703  3.1012  0.6653 -2.8232
  748MOL0     H  958   7.514   6.995   6.661  0.7316  1.3293 -2.9377
  748MOL0     H  959   7.497   7.071   6.823 -0.0625  0.4052  0.1459
  748MOL0     H  960   7.673   7.181   6.707 -1.8183 -2.8144  0.8334
  748MOL0     H  961   7.554   7.296   6.695  1.7100 -0.4669  1.7965
  748MOL0     H  962   7.653   6.648   6.499 -0.7022 -2.0552  0.0723
  748MOL0     H  963   7.886   6.586   6.525 -0.5358 -0.5178 -0.3242
  748MOL0     H  964   8.070   6.117   6.863  1.1373  2.2578  1.5052
  748MOL0     H  965   8.274   6.033   6.930  3.0736 -2.8421 -2.0713
  748MOL0     H  966   9.495   4.340   6.634  0.4590 -2.1447 -0.2545
  748MOL0     H  967   9.687   4.214   6.535 -0.3909 -0.4863 -0.7085
  748MOL0     H  968   9.780   3.851   6.117  0.2440 -0.1626 -0.2293
  748MOL0     H  969   9.995   3.765   6.031 -1.2782 -1.2917  2.2426
  748MOL0     H  970  10.275   3.794   6.193 -0.4940 -0.5013 -1.1104
  748MOL0     H  971  10.191   3.694   6.075  0.4382  0.6419  0.5663
  748MOL0     H  972  10.449   3.819   6.033 -0.6795  1.0429  0.7885
  748MOL0     H  973  10.389   3.700   5.921 -1.3045 -0.1167  0.1052
  748MOL0     H  974  10.488   3.672   6.214  0.6541  0.0268 -0.0014
  748MOL0     H  975  10.579   3.625   6.083  0.4603 -2.0015  1.2147
  748MOL0     H  976  10.302   3.486   6.133 -0.3239  0.8144 -0.0012
  748MOL0     H  977  10.454   3.432   6.216  2.0952 -0.4465 -0.0680
  748MOL0     H  978  10.417   3.295   5.798 -0.9179 -2.9335  1.2449
  748MOL0     H  979  10.178   4.142   6.110  1.7668 -2.2779  3.7109
  748MOL0     H  980   9.966   4.227   6.207 -3.8167  0.1987 -0.3821
  749MOL0     O  981   0.990  10.054   2.598 -0.5171 -0.0789  0.5412
  749MOL0     C  982   1.069  10.153   2.605 -0.5306  0.3431  0.4132
  749MOL0     O  983   1.069  10.259   2.521  0.8588  0.1394  0.4752
  749MOL0     C  984   0.969  10.260   2.425  0.5948  0.0746 -0.8666
  749MOL0     C  985   0.834  10.282   2.462  0.0895 -0.1095 -0.5246
  749MOL0     C  986   0.733  10.264   2.354  0.8199 -0.2878  0.2234
  749MOL0     C  987   0.777  10.251   2.224  0.3235 -0.0278  0.3466
  749MOL0     O  988   0.675  10.236   2.140 -0.5453 -0.4352 -0.1227
  749MOL0     C  989   0.706  10.191   2.010 -0.7457 -0.1060 -0.4578
  749MOL0     C  990   0.590  10.102   1.969  0.1318 -0.5891  0.7383
  749MOL0     C  991   0.633  10.030   1.842 -0.4744  0.3928 -0.5424
  749MOL0     C  992   0.538   9.929   1.783 -0.1454  0.5002 -0.0222
  749MOL0     C  993   0.545   9.795   1.854 -0.2365  0.7755 -0.9822
  749MOL0     C  994   0.445   9.693   1.794 -0.0840 -0.7719  0.9714
  749MOL0     C  995   0.495   9.550   1.827 -0.4224 -0.3560  0.9930
  749MOL0     C  996   0.453   9.518   1.968  0.4829  0.0654  0.1166
  749MOL0     N  997   0.475   9.378   2.013  0.3784 -0.4781  0.4652
  749MOL0     C  998   0.373   9.283   2.026 -0.7830 -0.6795  0.0349
  749MOL0     C  999   0.439   9.163   2.034 -0.0360  0.0273  0.3577
  749MOL0     C 1000   0.374   9.029   2.042 -0.7177  0.5872  0.1528
  749MOL0     C 1001   0.351   8.959   1.906  0.5752  0.2953 -0.3973
  749MOL0     C 1002   0.274   8.824   1.935  0.2113  0.0262  0.4072
  749MOL0     C 1003   0.133   8.832   1.993  0.3157  0.7831  0.9339
  749MOL0     O 1004   0.072   8.697   1.990 -0.2934 -0.2453  0.2677
  749MOL0     C 1005  -0.059   8.716   1.959  0.5398  0.5276 -0.6361
  749MOL0     C 1006  -0.106   8.720   1.827  0.0206  0.2632  0.4810
  749MOL0     C 1007  -0.246   8.730   1.803  0.0701 -0.8399  0.9140
  749MOL0     C 1008  -0.282   8.720   1.661  0.1708 -0.1386  0.5250
  749MOL0     C 1009  -0.336   8.738   1.916  0.4695  0.3654  0.2989
  749MOL0     C 1010  -0.480   8.761   1.889  0.5601 -0.5785  0.0162
  749MOL0     O 1011  -0.545   8.659   1.819 -0.1909 -0.6706 -0.0994
  749MOL0     C 1012  -0.676   8.670   1.783  0.3425  0.5897 -0.5816
  749MOL0     C 1013  -0.777   8.675   1.880  0.0268  0.0734  0.2129
  749MOL0     C 1014  -0.908   8.651   1.847  0.1194  0.2039 -0.2225
  749MOL0     C 1015  -0.942   8.628   1.717  0.1651 -0.4994  0.3142
  749MOL0     O 1016  -1.077   8.629   1.691 -0.2826 -0.0975  0.2723
  749MOL0     C 1017  -1.119   8.708   1.584  0.0225  0.4977 -0.1495
  749MOL0     C 1018  -1.268   8.732   1.610  0.4099 -0.0946 -0.6848
  749MOL0     C 1019  -1.373   8.634   1.545 -0.3982  0.1491 -0.1795
  749MOL0     C 1020  -1.502   8.675   1.624  0.7611  0.8562 -0.1283
  749MOL0     C 1021  -1.606   8.584   1.575 -0.1475 -0.2579  0.8993
  749MOL0     C 1022  -1.740   8.654   1.563 -0.1286  0.1296  0.4570
  749MOL0     C 1023  -1.857   8.561   1.530  0.3873 -0.5216 -0.5973
  749MOL0     C 1024  -1.892   8.491   1.663  0.2749 -0.2454  0.0995
  749MOL0    Cl 1025  -2.010   8.598   1.750  0.6207 -0.2583  0.3362
  749MOL0     C 1026  -0.841   8.617   1.615 -0.0049  0.0779  0.1273
  749MOL0     C 1027  -0.711   8.636   1.649 -1.0385 -1.1932 -0.9821
  749MOL0     O 1028  -0.538   8.858   1.942 -0.0988  0.5803 -0.4527
  749MOL0     C 1029  -0.286   8.740   2.045 -0.7437  0.2013  0.2270
  749MOL0     C 1030  -0.144   8.727   2.061 -0.1139 -0.4073 -0.3435
  749MOL0     N 1031   0.571   9.186   2.040 -0.7011 -0.4927  0.0552
  749MOL0     N 1032   0.594   9.313   2.021  0.3218  0.7082  0.0594
  749MOL0     C 1033   0.916  10.263   2.191  0.6070  0.5426  0.0236
  749MOL0     C 1034   1.006  10.264   2.293 -0.3531 -0.3470 -0.0639
  749MOL0     C 1035   1.159  10.150   2.725  0.7334 -0.4901  0.5714
  749MOL0     C 1036   1.148  10.049   2.828  0.9947 -0.1649  0.0128
  749MOL0     C 1037   1.228  10.062   2.934  0.1326 -0.0482  0.3691
  749MOL0     C 1038   1.319  10.170   2.956 -0.2239  0.7338  0.2960
  749MOL0     O 1039   1.406  10.190   3.066  0.6073  0.4418  0.2442
  749MOL0     C 1040   1.382  10.098   3.175  1.0333  0.7195 -0.2689
  749MOL0     C 1041   1.493  10.126   3.281  0.5551  0.3275 -0.0122
  749MOL0     C 1042   1.453  10.250   3.370 -0.2624 -0.3724  0.6596
  749MOL0     C 1043   1.581  10.281   3.451  0.0016 -0.1154 -0.8710
  749MOL0     C 1044   1.548  10.369   3.558 -0.6699  0.1369 -0.2944
  749MOL0     C 1045   1.540  10.439   3.655 -0.9967  0.0143 -1.0119
  749MOL0     C 1046   1.326  10.267   2.868 -0.4016 -0.3127 -0.0169
  749MOL0     C 1047   1.249  10.255   2.756 -0.6409  0.5492  0.5175
  749MOL0     H 1048   0.808  10.288   2.567  0.6876 -0.6771 -0.3330
  749MOL0     H 1049   0.627  10.257   2.376  0.6609 -1.7101 -0.9061
  749MOL0     H 1050   0.716  10.275   1.940 -1.5806  0.0456 -0.4040
  749MOL0     H 1051   0.797  10.130   2.009  0.3950  1.5282 -0.0804
  749MOL0     H 1052   0.553  10.038   2.050 -0.0588 -2.3718 -0.6867
  749MOL0     H 1053   0.503  10.167   1.952  0.9917  0.6863  1.0697
  749MOL0     H 1054   0.650  10.107   1.767 -3.3585 -0.4354 -2.2077
  749MOL0     H 1055   0.731   9.985   1.857  0.8563  2.7724 -1.6435
  749MOL0     H 1056   0.435   9.967   1.787 -0.0840  0.7541  4.0465
  749MOL0     H 1057   0.568   9.912   1.680 -1.5570 -2.8139 -0.0037
  749MOL0     H 1058   0.647   9.760   1.834 -0.0745  1.5756 -1.5875
  749MOL0     H 1059   0.529   9.805   1.962  3.5459  2.6296 -0.4441
  749MOL0     H 1060   0.340   9.708   1.818 -0.1919 -2.9714  2.0921
  749MOL0     H 1061   0.465   9.694   1.687  0.0453 -4.0293  0.8690
  749MOL0     H 1062   0.448   9.471   1.768 -1.1473 -0.3914  1.5990
  749MOL0     H 1063   0.604   9.542   1.815 -0.4883 -5.0666  1.6218
  749MOL0     H 1064   0.345   9.538   1.974  0.4430 -0.3984  1.0927
  749MOL0     H 1065   0.492   9.591   2.040  0.6555  2.5078 -2.3159
  749MOL0     H 1066   0.270   9.287   1.992  0.1370 -1.0463 -3.0611
  749MOL0     H 1067   0.432   8.964   2.108 -1.1461 -0.7937 -0.7775
  749MOL0     H 1068   0.281   9.038   2.098 -1.0120 -2.2037  0.2362
  749MOL0     H 1069   0.453   8.941   1.870  1.1498  1.1129  0.7518
  749MOL0     H 1070   0.289   9.021   1.842 -0.3763  1.6508  1.7440
  749MOL0     H 1071   0.336   8.745   1.979  1.0604 -0.9309 -2.2893
  749MOL0     H 1072   0.266   8.786   1.833  0.6142  2.6984 -0.6904
  749MOL0     H 1073   0.070   8.905   1.943 -1.8762 -1.6357 -0.0806
  749MOL0     H 1074   0.140   8.860   2.099  3.5611  1.8293  0.5353
  749MOL0     H 1075  -0.029   8.713   1.751 -1.4195 -1.2489 -0.8867
  749MOL0     H 1076  -0.324   8.815   1.629  0.9408 -0.9417 -3.3640
  749MOL0     H 1077  -0.197   8.695   1.597 -0.4313  0.3370 -0.4825
  749MOL0     H 1078  -0.356   8.640   1.655 -1.0270  0.9135  0.9396
  749MOL0     H 1079  -0.750   8.684   1.984  0.6606 -1.1934  0.1762
  749MOL0     H 1080  -0.989   8.661   1.919 -1.2834  1.3493 -1.8914
  749MOL0     H 1081  -1.074   8.808   1.583  1.7937 -0.2604  0.3814
  749MOL0     H 1082  -1.103   8.655   1.489 -2.6532  2.9916 -2.1997
  749MOL0     H 1083  -1.276   8.728   1.719  2.6217  3.5616 -0.1907
  749MOL0     H 1084  -1.298   8.828   1.567 -1.1126  0.4763  1.4815
  749MOL0     H 1085  -1.349   8.529   1.564  1.0330  0.4324 -0.2436
  749MOL0     H 1086  -1.382   8.652   1.437  3.3388  0.9391 -0.5168
  749MOL0     H 1087  -1.494   8.658   1.732 -0.9459  0.9701  0.0380
  749MOL0     H 1088  -1.534   8.776   1.596 -1.7653  1.1202  3.0869
  749MOL0     H 1089  -1.615   8.494   1.637  0.3573 -0.9250  0.0214
  749MOL0     H 1090  -1.575   8.545   1.478 -2.3898 -1.7993  0.7347
  749MOL0     H 1091  -1.766   8.718   1.648 -0.1298 -0.5654  0.9843
  749MOL0     H 1092  -1.725   8.726   1.482 -0.4194  1.2536  1.3732
  749MOL0     H 1093  -1.822   8.494   1.451  0.4624 -0.4410 -0.6324
  749MOL0     H 1094  -1.948   8.615   1.501  0.6665  0.0724 -0.3744
  749MOL0     H 1095  -1.808   8.456   1.724 -1.2181 -2.7784  0.8913
  749MOL0     H 1096  -1.942   8.394   1.651  0.5927 -0.5355  1.0410
  749MOL0     H 1097  -0.874   8.598   1.514 -1.3063  0.3878  0.4708
  749MOL0     H 1098  -0.633   8.618   1.575  0.4563 -1.3325  0.5665
  749MOL0     H 1099  -0.351   8.762   2.130  1.0132 -0.0552  1.7110
  749MOL0     H 1100  -0.118   8.716   2.166 -0.4179  0.6645 -0.1418
  749MOL0     H 1101   0.948  10.278   2.089 -3.2210 -0.4881 -1.5221
  749MOL0     H 1102   1.110  10.272   2.264 -0.2947 -0.3957  0.1292
  749MOL0     H 1103   1.076   9.968   2.814 -2.8241  3.0926 -1.0511
  749MOL0     H 1104   1.223   9.994   3.018  0.6461  1.1057  1.3671
  749MOL0     H 1105   1.281  10.109   3.216 -0.0620  0.1453 -2.6629
  749MOL0     H 1106   1.391   9.991   3.153 -2.4076  0.3755 -0.6069
  749MOL0     H 1107   1.592  10.122   3.234  0.5373  1.3450 -0.1624
  749MOL0     H 1108   1.495  10.038   3.346  1.5425  1.4853  1.5822
  749MOL0     H 1109   1.368  10.224   3.433 -1.0948  0.7001  0.0173
  749MOL0     H 1110   1.415  10.331   3.307  1.3114 -1.0763 -1.2808
  749MOL0     H 1111   1.668  10.322   3.398 -0.7293  1.1583 -1.1202
  749MOL0     H 1112   1.620  10.188   3.495 -0.9746 -0.4750 -0.7346
  749MOL0     H 1113   1.526  10.502   3.741  0.4408  0.6923 -1.2356
  749MOL0     H 1114   1.391  10.352   2.884 -1.2247  0.0943  1.2646
  749MOL0     H 1115   1.268  10.333   2.683 -0.8913 -0.2291 -0.4026
  750MOL0     O 1116  11.306   0.437   8.673 -0.0215 -0.1643  0.8709
  750MOL0     C 1117  11.227   0.521   8.632 -0.5321 -0.1617 -0.4069
  750MOL0     O 1118  11.255   0.650   8.589  0.7518  0.5980 -0.4794
  750MOL0     C 1119  11.389   0.674   8.569  0.9192 -0.1541 -0.2034
  750MOL0     C 1120  11.476   0.717   8.674 -0.0817 -0.5840 -0.3133
  750MOL0     C 1121  11.607   0.760   8.649 -0.0615 -0.5520 -0.6545
  750MOL0     C 1122  11.648   0.751   8.514 -0.3231 -0.2387  0.3496
  750MOL0     O 1123  11.770   0.791   8.480 -1.3684  0.2975  0.0692
  750MOL0     C 1124  11.816   0.918   8.528 -0.5804  0.6197  0.0546
  750MOL0     C 1125  11.961   0.941   8.480  0.4084  0.5005 -0.3143
  750MOL0     C 1126  12.065   0.829   8.506  0.1922  0.6508  0.6344
  750MOL0     C 1127  12.193   0.856   8.421 -0.0692 -0.4499 -0.4898
  750MOL0     C 1128  12.296   0.745   8.407 -0.5039 -1.0454  1.0640
  750MOL0     C 1129  12.278   0.656   8.279  0.0106 -1.2073  0.1797
  750MOL0     C 1130  12.393   0.569   8.261  0.0271 -0.9679  0.4357
  750MOL0     C 1131  12.377   0.469   8.146 -0.3000  0.2829  0.1398
  750MOL0     N 1132  12.318   0.341   8.193 -0.6538 -0.4156 -0.6717
  750MOL0     C 1133  12.189   0.312   8.228 -0.3237 -0.1497 -0.2639
  750MOL0     C 1134  12.188   0.185   8.281 -0.3687  0.9650 -0.0156
  750MOL0     C 1135  12.077   0.125   8.358  0.0209  0.6803 -0.1783
  750MOL0     C 1136  11.930   0.152   8.310 -0.5244 -0.4178  0.1924
  750MOL0     C 1137  11.840   0.090   8.413  0.5297  0.8622  0.2716
  750MOL0     C 1138  11.684   0.110   8.377 -0.1572  0.3093  0.0508
  750MOL0     O 1139  11.651   0.244   8.383  0.3329  0.4825 -0.0571
  750MOL0     C 1140  11.532   0.291   8.324  0.4200 -0.1778  0.0805
  750MOL0     C 1141  11.538   0.383   8.210 -0.2691  0.2497 -0.3824
  750MOL0     C 1142  11.426   0.425   8.138  0.4524 -0.1788  0.3883
  750MOL0     C 1143  11.446   0.500   8.007 -0.3819  0.0693  0.6093
  750MOL0     C 1144  11.297   0.403   8.197 -0.0090 -0.6576  0.3715
  750MOL0     C 1145  11.186   0.474   8.146  0.0235 -0.2561  0.2201
  750MOL0     O 1146  11.092   0.393   8.091 -0.2156 -0.2749  0.5228
  750MOL0     C 1147  10.961   0.437   8.067 -0.9536 -0.4387 -0.0603
  750MOL0     C 1148  10.892   0.516   8.161 -0.0716  0.8203 -0.0522
  750MOL0     C 1149  10.758   0.557   8.136 -0.4919 -0.1293 -0.3051
  750MOL0     C 1150  10.706   0.520   8.010  0.9798  0.1334  0.6475
  750MOL0     O 1151  10.574   0.545   7.980  0.3473  0.5809 -0.4841
  750MOL0     C 1152  10.495   0.641   8.050  0.0069 -0.2444  0.4066
  750MOL0     C 1153  10.415   0.574   8.170  0.0983  0.3833  0.5361
  750MOL0     C 1154  10.317   0.462   8.129 -0.8597 -0.1899  0.1725
  750MOL0     C 1155  10.173   0.500   8.124  0.3014  0.0880 -0.8427
  750MOL0     C 1156  10.093   0.375   8.083 -0.1760 -0.8647 -0.4944
  750MOL0     C 1157   9.942   0.397   8.063  0.6692  0.0248 -0.9049
  750MOL0     C 1158   9.881   0.277   8.008  0.3170  0.5411 -0.1419
  750MOL0     C 1159   9.737   0.303   7.955 -0.7538  0.0793  0.0914
  750MOL0    Cl 1160   9.612   0.277   8.085  0.5414 -0.7078 -0.0096
  750MOL0     C 1161  10.772   0.435   7.920 -0.2159 -0.6309  0.5075
  750MOL0     C 1162  10.888   0.376   7.959 -0.6367 -0.7609 -0.7269
  750MOL0     O 1163  11.197   0.595   8.125  0.1784 -0.0404 -0.5772
  750MOL0     C 1164  11.293   0.331   8.324  0.5142 -0.5536  0.1968
  750MOL0     C 1165  11.411   0.275   8.381 -0.2226  0.3128 -0.1542
  750MOL0     N 1166  12.323   0.139   8.284  0.7408  0.0282  1.2546
  750MOL0     N 1167  12.392   0.230   8.224  0.6461 -0.7725 -0.0223
  750MOL0     C 1168  11.563   0.702   8.412 -0.0586 -0.1106 -0.9070
  750MOL0     C 1169  11.424   0.672   8.435 -0.0240 -0.4664 -0.1018
  750MOL0     C 1170  11.086   0.483   8.614 -0.5727  0.2270 -0.7566
  750MOL0     C 1171  11.048   0.347   8.633  0.2651 -0.1334  0.0931
  750MOL0     C 1172  10.913   0.310   8.628 -0.4201 -0.0318 -0.6830
  750MOL0     C 1173  10.813   0.413   8.611  0.0876  0.4467 -0.8003
  750MOL0     O 1174  10.680   0.380   8.614  0.4490 -0.2294 -0.5426
  750MOL0     C 1175  10.664   0.313   8.486 -0.5774 -0.5076  0.0798
  750MOL0     C 1176  10.518   0.305   8.446  0.8610  0.1292 -0.4430
  750MOL0     C 1177  10.435   0.223   8.555 -0.0804 -0.4570 -0.2309
  750MOL0     C 1178  10.302   0.184   8.490  0.2320  0.4319 -0.8450
  750MOL0     C 1179  10.218   0.306   8.473 -0.1747  0.3807  1.2347
  750MOL0     C 1180  10.146   0.397   8.445 -0.7362 -0.3788 -0.2430
  750MOL0     C 1181  10.847   0.545   8.585  0.5342  0.6839 -0.8755
  750MOL0     C 1182  10.986   0.572   8.584 -0.1886 -0.8187 -0.1411
  750MOL0     H 1183  11.449   0.717   8.779  0.2692 -1.1190 -0.2230
  750MOL0     H 1184  11.669   0.792   8.731 -0.0329 -2.8234  0.2729
  750MOL0     H 1185  11.745   0.997   8.504 -2.5089 -0.6350  1.3011
  750MOL0     H 1186  11.823   0.900   8.636  0.2971  0.1891 -0.0666
  750MOL0     H 1187  11.957   0.961   8.373  3.1733 -2.2708 -1.0604
  750MOL0     H 1188  11.993   1.036   8.525 -0.9806  1.0556 -0.4313
  750MOL0     H 1189  12.082   0.818   8.614  3.1767 -0.5683  0.1324
  750MOL0     H 1190  12.027   0.735   8.466  1.1137  1.4211 -2.3207
  750MOL0     H 1191  12.155   0.872   8.320  0.6145 -0.7834 -0.8047
  750MOL0     H 1192  12.237   0.948   8.461  0.3225 -1.5982  1.9203
  750MOL0     H 1193  12.393   0.795   8.398 -1.4201  0.3824 -2.3760
  750MOL0     H 1194  12.298   0.677   8.493  0.8701 -1.7718  0.4905
  750MOL0     H 1195  12.185   0.600   8.295 -0.5556 -0.3116  0.0597
  750MOL0     H 1196  12.267   0.730   8.200 -0.0002 -1.5391 -0.1314
  750MOL0     H 1197  12.489   0.618   8.239  0.3201 -2.2841 -1.4543
  750MOL0     H 1198  12.415   0.519   8.356 -0.3829  0.3311  1.2521
  750MOL0     H 1199  12.475   0.449   8.101 -0.2786 -2.4736  1.1703
  750MOL0     H 1200  12.328   0.517   8.060  0.6479  0.8467 -0.0933
  750MOL0     H 1201  12.103   0.379   8.228 -0.5150 -0.2891  2.1888
  750MOL0     H 1202  12.095   0.017   8.361  0.7420  0.7894 -0.4583
  750MOL0     H 1203  12.097   0.172   8.455  0.4918 -1.3713  0.7645
  750MOL0     H 1204  11.917   0.110   8.209 -0.8307  3.3912 -1.5165
  750MOL0     H 1205  11.907   0.257   8.291 -1.6596 -0.9276 -1.6052
  750MOL0     H 1206  11.853   0.131   8.513  1.9369  1.4744 -0.1410
  750MOL0     H 1207  11.858  -0.018   8.413 -0.9532  0.5236 -2.4186
  750MOL0     H 1208  11.629   0.052   8.452  0.4347  1.7926  1.7007
  750MOL0     H 1209  11.671   0.070   8.276  2.6499  1.2658 -0.7888
  750MOL0     H 1210  11.636   0.413   8.175 -0.3379  3.5142  1.7910
  750MOL0     H 1211  11.368   0.484   7.932 -0.1363  2.4006 -0.2132
  750MOL0     H 1212  11.457   0.606   8.032  0.2593  0.1954 -0.1868
  750MOL0     H 1213  11.537   0.465   7.957  0.2977 -0.2927  2.0566
  750MOL0     H 1214  10.940   0.538   8.255 -1.0699 -2.4060  1.3300
  750MOL0     H 1215  10.697   0.622   8.197 -0.7444 -0.1430 -0.5451
  750MOL0     H 1216  10.549   0.732   8.078  2.6489 -1.9444  1.1705
  750MOL0     H 1217  10.409   0.667   7.987 -1.2905 -2.9526  0.9105
  750MOL0     H 1218  10.488   0.522   8.232  1.2675  0.1918 -0.9217
  750MOL0     H 1219  10.356   0.651   8.219 -3.2812 -0.0549 -2.3949
  750MOL0     H 1220  10.329   0.385   8.206  1.1105 -0.6205 -0.5093
  750MOL0     H 1221  10.345   0.415   8.034  0.6795  2.5851 -0.8604
  750MOL0     H 1222  10.134   0.530   8.221 -0.8625 -1.2756 -0.8554
  750MOL0     H 1223  10.157   0.586   8.059 -1.7086 -0.2050 -0.8048
  750MOL0     H 1224  10.112   0.295   8.156 -0.7496  2.6261  3.9304
  750MOL0     H 1225  10.118   0.340   7.983  1.2556  0.8402 -0.7803
  750MOL0     H 1226   9.909   0.403   8.167  1.8307  0.8565 -0.5762
  750MOL0     H 1227   9.911   0.483   8.003 -0.9833 -1.6801 -2.6866
  750MOL0     H 1228   9.871   0.197   8.081 -0.9250  1.2553  0.4983
  750MOL0     H 1229   9.942   0.233   7.928  0.3391 -2.9826  1.6478
  750MOL0     H 1230   9.710   0.233   7.876 -1.6351  0.3456  0.1435
  750MOL0     H 1231   9.732   0.397   7.900 -0.8793 -0.6338 -1.1573
  750MOL0     H 1232  10.719   0.409   7.829  2.0243  0.8400 -1.3201
  750MOL0     H 1233  10.943   0.300   7.905 -3.0790 -1.8601 -1.7963
  750MOL0     H 1234  11.199   0.340   8.378  0.7288 -1.4712  0.7425
  750MOL0     H 1235  11.396   0.217   8.472 -2.5297  0.5930 -0.2876
  750MOL0     H 1236  11.604   0.700   8.312 -1.8676  0.2474 -1.6952
  750MOL0     H 1237  11.356   0.647   8.355  0.6016 -2.2732 -0.1007
  750MOL0     H 1238  11.122   0.271   8.657  0.8059  0.3438 -0.0330
  750MOL0     H 1239  10.882   0.208   8.647  2.1705 -0.7801 -0.0480
  750MOL0     H 1240  10.714   0.369   8.406  3.3415 -2.9864  0.4952
  750MOL0     H 1241  10.701   0.210   8.488 -2.8753 -1.4365 -1.2534
  750MOL0     H 1242  10.503   0.257   8.349  2.5322 -0.0135 -0.6569
  750MOL0     H 1243  10.478   0.407   8.440 -0.1719 -0.2273  0.0351
  750MOL0     H 1244  10.418   0.281   8.647  5.0166 -0.3325  0.9781
  750MOL0     H 1245  10.496   0.139   8.589 -2.5580 -2.0388  0.5245
  750MOL0     H 1246  10.244   0.111   8.547 -1.8831  1.2064 -1.9079
  750MOL0     H 1247  10.318   0.138   8.392 -0.6197  0.0721 -0.8173
  750MOL0     H 1248  10.085   0.480   8.414  0.8857  0.5620 -1.1115
  750MOL0     H 1249  10.768   0.618   8.575  0.7537  0.8781 -1.1704
  750MOL0     H 1250  11.009   0.675   8.559 -2.3475  0.3179  2.0585
  751MOL0     O 1251   8.568   2.649   6.727 -0.3201  0.1071 -0.0632
  751MOL0     C 1252   8.464   2.658   6.792 -0.0941 -0.4109 -0.0125
  751MOL0     O 1253   8.455   2.697   6.923 -0.0250 -0.1742 -0.7669
  751MOL0     C 1254   8.549   2.781   6.976  0.1616  0.7139 -1.0181
  751MOL0     C 1255   8.558   2.760   7.115 -0.2567  1.0969 -0.1863
  751MOL0     C 1256   8.657   2.830   7.179  1.0020 -0.5804 -0.0260
  751MOL0     C 1257   8.733   2.929   7.120  0.2152 -0.0968 -0.4279
  751MOL0     O 1258   8.828   3.006   7.194  0.4247  0.6318  1.1501
  751MOL0     C 1259   8.784   3.099   7.286 -0.2756  0.3007 -0.5404
  751MOL0     C 1260   8.756   3.229   7.218 -0.3047 -0.2035 -0.1277
  751MOL0     C 1261   8.879   3.298   7.139  0.4606  1.0890  0.4492
  751MOL0     C 1262   8.986   3.357   7.231 -0.0377  0.2563 -0.5915
  751MOL0     C 1263   9.095   3.430   7.156  0.0134 -0.7817 -0.4961
  751MOL0     C 1264   9.171   3.514   7.260 -0.6404 -0.7248 -0.0094
  751MOL0     C 1265   9.305   3.559   7.204  0.7206  0.0284 -0.2544
  751MOL0     C 1266   9.354   3.680   7.281  0.3677 -0.8568 -0.2173
  751MOL0     N 1267   9.279   3.802   7.257 -0.5398  0.7015  0.0035
  751MOL0     C 1268   9.172   3.857   7.329 -1.1243 -0.6433 -0.2977
  751MOL0     C 1269   9.160   3.971   7.270  0.1264  0.1221 -1.4133
  751MOL0     C 1270   9.082   4.083   7.329  0.9068 -0.8305 -0.0241
  751MOL0     C 1271   8.929   4.067   7.305  0.2994  1.0406  0.2847
  751MOL0     C 1272   8.868   3.936   7.367  0.1091 -0.0333  0.3590
  751MOL0     C 1273   8.716   3.927   7.344 -0.8165 -1.0102 -0.2877
  751MOL0     O 1274   8.664   4.040   7.420  0.0581  0.4406  0.2890
  751MOL0     C 1275   8.533   4.079   7.400  0.2779  0.1635 -0.0737
  751MOL0     C 1276   8.417   3.990   7.371  0.5894  0.0792 -0.3962
  751MOL0     C 1277   8.292   4.041   7.362 -0.4982 -0.0259  0.0958
  751MOL0     C 1278   8.184   3.934   7.340  0.5766 -0.4488 -0.7815
  751MOL0     C 1279   8.272   4.175   7.376 -0.6755 -0.5099 -0.2015
  751MOL0     C 1280   8.137   4.231   7.361  0.1445 -0.8156 -0.8528
  751MOL0     O 1281   8.106   4.336   7.443 -0.2153 -0.4847 -1.1386
  751MOL0     C 1282   7.986   4.405   7.434  0.7005  0.8066  0.4062
  751MOL0     C 1283   7.989   4.543   7.437 -0.0154  0.2003 -0.5524
  751MOL0     C 1284   7.872   4.615   7.420 -0.0134 -0.3828 -0.4709
  751MOL0     C 1285   7.757   4.548   7.380  0.3150  0.7252 -0.3367
  751MOL0     O 1286   7.653   4.626   7.333  0.9049  0.0906 -0.5855
  751MOL0     C 1287   7.522   4.567   7.319  0.0500  0.7889  0.5350
  751MOL0     C 1288   7.431   4.686   7.281 -0.2642 -0.5199  0.7285
  751MOL0     C 1289   7.289   4.639   7.278  0.4999 -0.0810 -0.3928
  751MOL0     C 1290   7.191   4.737   7.226 -0.0428  0.8115  0.3240
  751MOL0     C 1291   7.049   4.672   7.222  0.0459  0.2054 -0.0681
  751MOL0     C 1292   6.938   4.784   7.220  0.2316 -0.5608  0.0626
  751MOL0     C 1293   6.802   4.725   7.209 -0.1705 -0.6027 -0.1220
  751MOL0     C 1294   6.705   4.826   7.149 -0.1363  0.2189 -0.6847
  751MOL0    Cl 1295   6.542   4.747   7.155  0.0762 -0.0920 -0.0495
  751MOL0     C 1296   7.750   4.407   7.378  0.6403 -0.2839 -0.0319
  751MOL0     C 1297   7.863   4.336   7.404 -0.1889 -0.7662 -0.2710
  751MOL0     O 1298   8.071   4.207   7.263 -0.7942 -0.5400  0.4524
  751MOL0     C 1299   8.376   4.262   7.406  0.2324 -0.6635  1.0993
  751MOL0     C 1300   8.508   4.215   7.419  0.0299  0.0917 -1.2267
  751MOL0     N 1301   9.217   3.978   7.146  0.2802  0.0808  0.1798
  751MOL0     N 1302   9.296   3.876   7.144  0.2435  0.9968  0.0048
  751MOL0     C 1303   8.720   2.944   6.984  0.4512  0.7567 -0.5479
  751MOL0     C 1304   8.625   2.870   6.911  0.1342  0.3021  0.4240
  751MOL0     C 1305   8.337   2.590   6.745 -0.7531 -0.4640  0.1054
  751MOL0     C 1306   8.209   2.626   6.791 -0.4452  0.4566  0.4566
  751MOL0     C 1307   8.092   2.565   6.736 -0.0446 -0.4025  0.7552
  751MOL0     C 1308   8.102   2.467   6.638  0.0423 -0.0635  0.2730
  751MOL0     O 1309   7.993   2.409   6.580  0.7321 -0.4061  0.1924
  751MOL0     C 1310   7.880   2.378   6.663  0.9039  0.6898  0.5812
  751MOL0     C 1311   7.848   2.226   6.641 -0.3888  0.4684 -0.0828
  751MOL0     C 1312   7.723   2.180   6.714 -0.1264 -0.0338  0.1603
  751MOL0     C 1313   7.590   2.210   6.647 -0.9529 -0.2759 -0.3872
  751MOL0     C 1314   7.476   2.168   6.731  0.0354  0.3052 -0.3768
  751MOL0     C 1315   7.372   2.142   6.787  1.0529 -0.2855 -0.1024
  751MOL0     C 1316   8.229   2.436   6.588 -0.2536 -0.4322  1.0355
  751MOL0     C 1317   8.339   2.489   6.644 -0.3571 -0.2992 -0.0728
  751MOL0     H 1318   8.492   2.698   7.175  0.2874  0.0095 -0.6821
  751MOL0     H 1319   8.670   2.817   7.286 -1.0477 -1.0873  0.1963
  751MOL0     H 1320   8.708   3.085   7.363  0.6598 -0.7593  0.2321
  751MOL0     H 1321   8.873   3.094   7.350 -0.4527 -1.7783 -0.3857
  751MOL0     H 1322   8.693   3.209   7.130 -0.7684  1.7116 -0.2862
  751MOL0     H 1323   8.700   3.296   7.285 -0.0183 -1.4129  1.3845
  751MOL0     H 1324   8.925   3.228   7.068  3.6017  2.7711  0.6562
  751MOL0     H 1325   8.838   3.381   7.081 -0.7428  0.6803  0.6808
  751MOL0     H 1326   8.938   3.424   7.302 -0.6151 -0.2762 -0.4648
  751MOL0     H 1327   9.032   3.276   7.288 -0.3743 -0.7408 -1.6893
  751MOL0     H 1328   9.156   3.346   7.122 -2.1134 -4.2099  3.2576
  751MOL0     H 1329   9.057   3.501   7.082  2.4092  1.5085  0.3030
  751MOL0     H 1330   9.110   3.604   7.272 -2.1757 -1.8579  1.2034
  751MOL0     H 1331   9.183   3.468   7.359 -0.7747  2.0053  1.3770
  751MOL0     H 1332   9.379   3.479   7.215  2.5259  1.5852 -0.4735
  751MOL0     H 1333   9.289   3.586   7.099  1.3524 -1.5124 -0.7719
  751MOL0     H 1334   9.459   3.688   7.249 -0.4496  0.0438 -2.9414
  751MOL0     H 1335   9.353   3.659   7.388 -1.9009 -3.0533 -0.5926
  751MOL0     H 1336   9.146   3.818   7.427  4.0837  0.7363  1.9673
  751MOL0     H 1337   9.097   4.094   7.437  1.4340 -1.5799 -0.0209
  751MOL0     H 1338   9.115   4.176   7.281 -0.8561 -0.7086 -1.0869
  751MOL0     H 1339   8.906   4.074   7.198 -0.3096 -0.5399  0.2847
  751MOL0     H 1340   8.873   4.144   7.359  0.1665 -0.6658  2.7422
  751MOL0     H 1341   8.907   3.934   7.470  1.4362  2.9941  0.0239
  751MOL0     H 1342   8.920   3.852   7.320  2.6218  2.4219 -1.5871
  751MOL0     H 1343   8.689   3.834   7.395  1.7682 -0.7927  1.6970
  751MOL0     H 1344   8.691   3.927   7.237 -2.7339  1.0907  0.0922
  751MOL0     H 1345   8.431   3.882   7.369  1.8925  0.2087  0.2860
  751MOL0     H 1346   8.092   3.947   7.398  0.3187 -0.2785 -1.2235
  751MOL0     H 1347   8.166   3.926   7.232  0.3051  1.9997 -0.9724
  751MOL0     H 1348   8.221   3.840   7.382 -1.5281 -1.6522 -1.4464
  751MOL0     H 1349   8.086   4.585   7.460  0.5222 -0.7236 -1.0686
  751MOL0     H 1350   7.871   4.722   7.435 -2.8877 -0.5041  0.9070
  751MOL0     H 1351   7.516   4.496   7.236 -1.4003  0.5611  0.8104
  751MOL0     H 1352   7.485   4.523   7.412  0.7657 -2.1539 -0.4743
  751MOL0     H 1353   7.433   4.759   7.363 -1.1151 -0.1416  0.4258
  751MOL0     H 1354   7.467   4.736   7.191 -0.4936  0.5190  1.1929
  751MOL0     H 1355   7.258   4.614   7.380  0.9256  0.9386  0.0066
  751MOL0     H 1356   7.299   4.542   7.228  2.2973 -0.7804  1.1978
  751MOL0     H 1357   7.188   4.818   7.299 -0.9350  0.7694  0.3526
  751MOL0     H 1358   7.214   4.770   7.124 -1.1995 -1.1290 -0.6251
  751MOL0     H 1359   7.024   4.614   7.312 -0.9268  3.0405  1.6444
  751MOL0     H 1360   7.043   4.603   7.138 -0.2474 -2.1369  1.7643
  751MOL0     H 1361   6.933   4.841   7.314  0.1724 -2.0330  0.9918
  751MOL0     H 1362   6.955   4.857   7.141 -0.4428 -0.1217  0.3148
  751MOL0     H 1363   6.770   4.684   7.305 -0.3080  0.4593  0.2959
  751MOL0     H 1364   6.791   4.642   7.139 -3.6411  0.5404 -1.1296
  751MOL0     H 1365   6.731   4.853   7.047  2.7976  3.2751  0.7034
  751MOL0     H 1366   6.706   4.914   7.214  1.9504 -1.7204  2.1345
  751MOL0     H 1367   7.656   4.360   7.354 -1.0748  2.0488  1.7273
  751MOL0     H 1368   7.862   4.228   7.393  3.0639 -1.0590  1.1931
  751MOL0     H 1369   8.349   4.364   7.428  0.0590 -0.4677  0.0409
  751MOL0     H 1370   8.587   4.286   7.440 -0.3796  0.7173 -1.7580
  751MOL0     H 1371   8.789   3.009   6.931  0.0558  0.7167 -1.1143
  751MOL0     H 1372   8.610   2.888   6.805 -3.7098  0.0582  0.7997
  751MOL0     H 1373   8.191   2.691   6.875  1.8256  0.4981  0.9722
  751MOL0     H 1374   8.000   2.586   6.788 -1.5921 -0.7229 -1.6972
  751MOL0     H 1375   7.892   2.386   6.772 -1.7464  1.3271  0.9003
  751MOL0     H 1376   7.786   2.432   6.644  0.7041  0.3448  0.5904
  751MOL0     H 1377   7.935   2.166   6.671 -0.2951 -0.4850 -2.0859
  751MOL0     H 1378   7.844   2.198   6.535 -0.4236 -0.6803  0.2003
  751MOL0     H 1379   7.720   2.242   6.804 -4.0149 -0.5057  0.5326
  751MOL0     H 1380   7.736   2.075   6.743 -3.5334 -0.8867 -0.9150
  751MOL0     H 1381   7.592   2.162   6.549  0.3462 -1.2700  0.0869
  751MOL0     H 1382   7.595   2.317   6.629  0.9530 -0.3781 -0.7037
  751MOL0     H 1383   7.274   2.126   6.829  1.2580  0.9226  0.9233
  751MOL0     H 1384   8.241   2.365   6.506  2.6987 -2.0471  2.6823
  751MOL0     H 1385   8.433   2.465   6.595 -0.7047  1.0820 -1.5101
  752MOL0     O 1386   5.040   1.413  10.728  0.2510  0.0043  0.5397
  752MOL0     C 1387   5.085   1.435  10.842 -1.0301  0.1820  0.4233
  752MOL0     O 1388   5.063   1.349  10.942  0.5504 -0.2104  0.2036
  752MOL0     C 1389   5.016   1.220  10.900 -0.2495  0.0717 -0.5786
  752MOL0     C 1390   4.884   1.189  10.929  0.2249  0.0740 -0.2265
  752MOL0     C 1391   4.839   1.067  10.890  0.7536 -0.1703  0.2250
  752MOL0     C 1392   4.924   0.978  10.825 -0.2958 -0.1036  0.8195
  752MOL0     O 1393   4.875   0.853  10.775  0.1728 -0.3510  1.0756
  752MOL0     C 1394   4.815   0.879  10.646  0.1232 -1.3487  0.2429
  752MOL0     C 1395   4.775   0.752  10.573  0.0225  0.2878  0.2578
  752MOL0     C 1396   4.627   0.712  10.603 -0.1131 -0.1996  0.1755
  752MOL0     C 1397   4.527   0.805  10.528  0.1723 -0.1876  0.7198
  752MOL0     C 1398   4.381   0.748  10.520 -0.6161  0.6133  0.5298
  752MOL0     C 1399   4.305   0.708  10.643 -0.3717  0.2619 -0.4480
  752MOL0     C 1400   4.158   0.686  10.619  0.7714 -0.8285  0.2446
  752MOL0     C 1401   4.095   0.632  10.745  0.0002  0.3306 -0.6347
  752MOL0     N 1402   4.112   0.704  10.866 -0.6383 -0.7530 -0.6801
  752MOL0     C 1403   4.130   0.640  10.987 -0.0649 -0.0498 -0.0210
  752MOL0     C 1404   4.143   0.740  11.082 -0.6474  0.3655 -0.4515
  752MOL0     C 1405   4.170   0.732  11.231  0.8779 -1.4485  0.1240
  752MOL0     C 1406   4.046   0.686  11.315 -0.1338  0.3314  0.0802
  752MOL0     C 1407   4.019   0.539  11.304  0.0526 -0.3072  0.2093
  752MOL0     C 1408   3.905   0.508  11.409 -0.3791  0.1990  0.3925
  752MOL0     O 1409   3.790   0.591  11.370  0.2670 -0.0392  0.1699
  752MOL0     C 1410   3.673   0.601  11.448 -0.3520  0.6210 -0.4957
  752MOL0     C 1411   3.579   0.699  11.416  0.3858  0.0819  0.2174
  752MOL0     C 1412   3.466   0.729  11.492 -0.9579  0.2897 -0.1617
  752MOL0     C 1413   3.394   0.851  11.452 -0.6424  0.4621 -0.3614
  752MOL0     C 1414   3.433   0.640  11.604  0.4473 -0.5422  0.2090
  752MOL0     C 1415   3.318   0.653  11.698  0.2272 -0.2034  0.3635
  752MOL0     O 1416   3.321   0.584  11.812  0.2544 -0.5305  0.1698
  752MOL0     C 1417   3.198   0.561  11.883 -0.3780  0.0713 -0.6264
  752MOL0     C 1418   3.195   0.573  12.019  0.2946  0.1216 -0.4425
  752MOL0     C 1419   3.075   0.544  12.092  0.6219  0.1036 -0.1889
  752MOL0     C 1420   2.964   0.512  12.019 -0.1594  0.2919 -0.0755
  752MOL0     O 1421   2.843   0.491  12.080  0.2077 -1.0291 -0.0833
  752MOL0     C 1422   2.826   0.479  12.223  0.6159 -0.6378  0.1893
  752MOL0     C 1423   2.678   0.440  12.242  0.5497 -0.0050  0.8661
  752MOL0     C 1424   2.650   0.421  12.394 -0.2725 -0.5202 -0.2382
  752MOL0     C 1425   2.508   0.388  12.422  0.3904 -0.5993  0.0401
  752MOL0     C 1426   2.414   0.504  12.410 -0.8019 -0.1827  0.3652
  752MOL0     C 1427   2.265   0.464  12.439 -0.6389  0.0538 -0.0576
  752MOL0     C 1428   2.202   0.363  12.341  0.0155  0.1023  0.8795
  752MOL0     C 1429   2.064   0.309  12.393  0.5592 -0.8473 -0.4187
  752MOL0    Cl 1430   1.962   0.445  12.406 -0.2643 -0.5767  0.0800
  752MOL0     C 1431   2.973   0.488  11.882  0.6139  0.0572  0.6316
  752MOL0     C 1432   3.097   0.499  11.813 -0.0851 -0.2112  0.2345
  752MOL0     O 1433   3.222   0.719  11.666 -0.9672  0.5148 -0.0005
  752MOL0     C 1434   3.516   0.532  11.625  0.8557  0.0991 -0.2841
  752MOL0     C 1435   3.637   0.511  11.555  0.2903  0.9233  0.6662
  752MOL0     N 1436   4.118   0.860  11.015  0.5297  0.1326 -0.7483
  752MOL0     N 1437   4.088   0.836  10.888  0.7470 -0.0537 -0.3225
  752MOL0     C 1438   5.057   1.005  10.805 -0.0720  0.1366  0.0868
  752MOL0     C 1439   5.105   1.129  10.852 -0.3037  0.6514  0.4145
  752MOL0     C 1440   5.185   1.540  10.871 -0.4055  0.6710  0.0167
  752MOL0     C 1441   5.263   1.537  10.985 -0.7473 -0.3774 -0.4201
  752MOL0     C 1442   5.356   1.642  11.007 -0.1409 -0.3323  0.3688
  752MOL0     C 1443   5.371   1.754  10.917  0.1558 -0.2175 -0.8700
  752MOL0     O 1444   5.471   1.848  10.941  0.4786 -0.6777 -0.4752
  752MOL0     C 1445   5.496   1.960  10.845  0.0294  0.3571  0.0206
  752MOL0     C 1446   5.605   2.045  10.910  0.0022 -0.5771  0.5526
  752MOL0     C 1447   5.740   1.968  10.908 -0.7641 -0.3667  0.4364
  752MOL0     C 1448   5.848   2.027  11.002 -0.3007 -0.4674 -0.0238
  752MOL0     C 1449   5.887   2.165  10.972  0.0970  0.1713  0.2044
  752MOL0     C 1450   5.923   2.282  10.943 -0.0127  0.4008  0.0515
  752MOL0     C 1451   5.290   1.754  10.802  0.5026  0.2899  0.6139
  752MOL0     C 1452   5.204   1.647  10.781 -0.2632 -0.0262 -0.8579
  752MOL0     H 1453   4.817   1.260  10.976  0.0999  0.7304 -1.3625
  752MOL0     H 1454   4.739   1.027  10.905  0.8257 -0.0295  1.1129
  752MOL0     H 1455   4.725   0.939  10.659  2.0958  1.3333  2.6942
  752MOL0     H 1456   4.887   0.930  10.582 -0.9199  0.1233  0.2083
  752MOL0     H 1457   4.795   0.768  10.466 -0.0829 -0.3289  0.1413
  752MOL0     H 1458   4.828   0.663  10.607 -0.6349  0.6082  2.2696
  752MOL0     H 1459   4.602   0.609  10.579  3.8514 -2.0929  3.0825
  752MOL0     H 1460   4.616   0.726  10.711  1.6724  1.0829  0.2463
  752MOL0     H 1461   4.514   0.901  10.578 -0.1502 -0.5545  1.3530
  752MOL0     H 1462   4.570   0.834  10.432  3.3621 -0.3507  1.9627
  752MOL0     H 1463   4.317   0.818  10.467 -0.1436  0.6692  0.0207
  752MOL0     H 1464   4.389   0.660  10.455 -2.2113 -1.7646  3.3017
  752MOL0     H 1465   4.353   0.617  10.681 -0.8644 -1.2426 -3.2341
  752MOL0     H 1466   4.314   0.789  10.717  0.6363 -0.8445  0.6909
  752MOL0     H 1467   4.118   0.787  10.605  1.3277 -0.4037  1.5604
  752MOL0     H 1468   4.139   0.625  10.530 -0.9153  2.4817 -1.8717
  752MOL0     H 1469   4.127   0.527  10.751  0.0487  0.4309  1.1812
  752MOL0     H 1470   3.986   0.632  10.736  0.0606 -1.8590 -2.3557
  752MOL0     H 1471   4.131   0.533  11.004  1.0877 -0.1682 -0.7606
  752MOL0     H 1472   4.257   0.669  11.253  3.1992  1.6020  0.3809
  752MOL0     H 1473   4.197   0.829  11.274 -1.8943 -1.3126  1.8220
  752MOL0     H 1474   3.968   0.755  11.282 -4.1673 -3.6554  0.2731
  752MOL0     H 1475   4.073   0.700  11.420 -0.2597  1.3074 -0.0142
  752MOL0     H 1476   4.107   0.475  11.315  0.4178 -0.7765 -3.9365
  752MOL0     H 1477   3.974   0.515  11.207  0.8192 -3.1191  0.4575
  752MOL0     H 1478   3.935   0.539  11.509 -0.2691 -3.2441  1.5433
  752MOL0     H 1479   3.888   0.400  11.408 -2.6661  0.5244 -0.0061
  752MOL0     H 1480   3.595   0.769  11.334 -0.2626 -2.1537 -1.9331
  752MOL0     H 1481   3.314   0.828  11.381  1.4900 -1.2737 -2.3513
  752MOL0     H 1482   3.346   0.908  11.533 -2.6704  1.3869 -2.1083
  752MOL0     H 1483   3.462   0.925  11.409 -1.1926  4.0755  4.2240
  752MOL0     H 1484   3.277   0.606  12.081 -0.3228  1.5637 -0.3482
  752MOL0     H 1485   3.075   0.560  12.200  1.9109  1.9484 -0.4132
  752MOL0     H 1486   2.892   0.398  12.258 -0.9640 -2.9414 -1.8699
  752MOL0     H 1487   2.831   0.570  12.284 -2.0841 -0.7350  0.6766
  752MOL0     H 1488   2.625   0.519  12.188  2.1075  1.0720  0.8434
  752MOL0     H 1489   2.664   0.346  12.187 -1.8012  1.9018 -2.1703
  752MOL0     H 1490   2.681   0.514  12.443  2.0770 -2.2055  1.7153
  752MOL0     H 1491   2.721   0.344  12.424  1.0610  0.9110  0.4340
  752MOL0     H 1492   2.474   0.312  12.351  2.1581  0.4281 -2.0104
  752MOL0     H 1493   2.501   0.345  12.523  0.7315 -2.0383 -0.5277
  752MOL0     H 1494   2.422   0.539  12.307  0.9570 -2.7078 -0.4455
  752MOL0     H 1495   2.448   0.586  12.474  1.7294 -0.9994  0.1566
  752MOL0     H 1496   2.265   0.420  12.539  0.8501 -2.1925 -0.9659
  752MOL0     H 1497   2.211   0.559  12.450 -4.6391 -2.1334  1.1412
  752MOL0     H 1498   2.262   0.273  12.326 -2.5391 -1.9470  2.1315
  752MOL0     H 1499   2.188   0.417  12.247  3.0169  0.8661  0.7858
  752MOL0     H 1500   2.086   0.252  12.484 -2.1776 -0.2886  0.6976
  752MOL0     H 1501   2.012   0.243  12.323 -1.3013 -1.5971  1.5550
  752MOL0     H 1502   2.880   0.474  11.827 -1.3580  5.5087  1.9408
  752MOL0     H 1503   3.119   0.484  11.708  1.8165  1.3508  0.3535
  752MOL0     H 1504   3.505   0.454  11.700  1.0022 -0.0342 -0.3995
  752MOL0     H 1505   3.714   0.436  11.573  1.1866  1.2706 -1.4387
  752MOL0     H 1506   5.120   0.937  10.749  1.9977  1.1854  1.0226
  752MOL0     H 1507   5.210   1.146  10.833 -0.3807  0.9776  0.2694
  752MOL0     H 1508   5.254   1.452  11.052  2.2960 -1.1604 -0.8438
  752MOL0     H 1509   5.423   1.638  11.092  0.6390 -1.1798 -0.2679
  752MOL0     H 1510   5.530   1.913  10.753 -1.6600  2.2775 -1.7002
  752MOL0     H 1511   5.405   2.021  10.836  1.7739  3.7131  2.5453
  752MOL0     H 1512   5.593   2.064  11.017 -0.7958  1.6548  0.1384
  752MOL0     H 1513   5.613   2.142  10.859  3.0257 -0.7804  0.4407
  752MOL0     H 1514   5.784   1.975  10.808 -0.7425  2.1157  0.5653
  752MOL0     H 1515   5.721   1.860  10.917 -0.6458 -0.4986 -0.7235
  752MOL0     H 1516   5.945   1.979  10.994 -0.0615 -0.0200  0.1484
  752MOL0     H 1517   5.810   2.018  11.104  0.7381  1.2117  0.5574
  752MOL0     H 1518   5.970   2.370  10.904  1.3777 -1.8706 -3.9931
  752MOL0     H 1519   5.308   1.821  10.719 -1.8754  2.5062  1.7240
  752MOL0     H 1520   5.140   1.652  10.693  0.8693 -0.9057 -1.7641
  753MOL0     O 1521   7.437   0.354   3.929 -0.4257  0.0654  0.0000
  753MOL0     C 1522   7.515   0.259   3.930 -0.6256  0.3528  0.4179
  753MOL0     O 1523   7.498   0.141   3.996  0.8506 -0.3469 -0.4527
  753MOL0     C 1524   7.383   0.104   4.064 -0.1300 -0.1954  0.0039
  753MOL0     C 1525   7.254   0.142   4.029 -0.1196  0.5282 -0.5653
  753MOL0     C 1526   7.152   0.086   4.099  0.7433 -0.0791 -1.0007
  753MOL0     C 1527   7.162   0.002   4.214 -0.3048 -0.6248 -0.6329
  753MOL0     O 1528   7.058  -0.057   4.291  0.5184  0.5832  0.0578
  753MOL0     C 1529   6.921  -0.024   4.259 -0.0332 -0.1039  0.5307
  753MOL0     C 1530   6.824  -0.038   4.376  0.0040 -0.1351  0.1312
  753MOL0     C 1531   6.691   0.035   4.345 -1.4065  0.3368 -0.1777
  753MOL0     C 1532   6.636  -0.040   4.227  0.1430 -0.1266 -0.1244
  753MOL0     C 1533   6.485  -0.013   4.230  0.0616 -0.1951 -0.0532
  753MOL0     C 1534   6.404  -0.067   4.109  0.9206 -0.7155  0.3739
  753MOL0     C 1535   6.247  -0.048   4.127 -0.9728  0.3148  0.3929
  753MOL0     C 1536   6.198   0.095   4.149  0.3325  0.4064  0.2943
  753MOL0     N 1537   6.055   0.115   4.167  0.2796 -0.8160  0.1755
  753MOL0     C 1538   5.968   0.068   4.261  0.6926  0.6191 -0.2278
  753MOL0     C 1539   5.852   0.136   4.251  0.2341 -0.1228 -0.0346
  753MOL0     C 1540   5.736   0.093   4.341  0.6479 -0.2041 -0.1816
  753MOL0     C 1541   5.670  -0.047   4.329 -0.0875 -0.3543  0.3763
  753MOL0     C 1542   5.623  -0.078   4.182 -0.0377  0.2153 -0.5609
  753MOL0     C 1543   5.521   0.023   4.141  0.7744 -0.7014 -0.0110
  753MOL0     O 1544   5.461  -0.039   4.022  0.1719  0.1961  0.7020
  753MOL0     C 1545   5.501  -0.007   3.891  0.2724  0.2625 -0.1459
  753MOL0     C 1546   5.610   0.079   3.859  0.9355 -0.1685  0.7261
  753MOL0     C 1547   5.667   0.093   3.736 -0.1826 -0.6499 -0.0036
  753MOL0     C 1548   5.795   0.182   3.723 -0.3146  0.1202  0.0096
  753MOL0     C 1549   5.620   0.024   3.622  0.5840 -0.7481 -0.2019
  753MOL0     C 1550   5.664   0.055   3.476 -0.8535 -0.3758  0.3337
  753MOL0     O 1551   5.789   0.112   3.439 -0.4800  0.2615  0.1700
  753MOL0     C 1552   5.792   0.181   3.315  0.5404  0.1457  0.7311
  753MOL0     C 1553   5.915   0.156   3.238  0.0982  0.4569 -0.1129
  753MOL0     C 1554   5.931   0.223   3.117 -0.2579  0.0846 -0.3603
  753MOL0     C 1555   5.832   0.298   3.064 -0.1580 -0.6348 -0.0398
  753MOL0     O 1556   5.868   0.363   2.951  0.1129  0.2307 -0.2277
  753MOL0     C 1557   5.760   0.371   2.854 -0.2260 -0.2949  0.1816
  753MOL0     C 1558   5.679   0.500   2.837 -0.3462 -0.6439  0.2214
  753MOL0     C 1559   5.768   0.609   2.780  0.5639  0.0396 -0.0512
  753MOL0     C 1560   5.679   0.722   2.729  0.2377  0.1172  0.1533
  753MOL0     C 1561   5.754   0.833   2.658  0.3404 -0.0797  0.4700
  753MOL0     C 1562   5.653   0.944   2.625 -0.3057 -0.5892  0.1060
  753MOL0     C 1563   5.725   1.059   2.564 -0.1584 -1.4530  0.3056
  753MOL0     C 1564   5.622   1.168   2.530  0.5252 -1.0439  0.0575
  753MOL0    Cl 1565   5.696   1.318   2.462 -0.2085 -0.2185 -0.5919
  753MOL0     C 1566   5.713   0.322   3.136 -1.2990 -0.5891  0.1885
  753MOL0     C 1567   5.697   0.264   3.267  0.0600 -0.8255 -0.0392
  753MOL0     O 1568   5.581   0.031   3.394 -0.1383  1.0146  0.1771
  753MOL0     C 1569   5.494  -0.044   3.647 -0.1560 -0.1066 -0.3028
  753MOL0     C 1570   5.446  -0.066   3.783 -0.7511  0.3322  0.3419
  753MOL0     N 1571   5.868   0.230   4.155 -0.1194  0.6381 -0.2771
  753MOL0     N 1572   5.985   0.207   4.103 -0.1883 -0.3943  0.6057
  753MOL0     C 1573   7.292  -0.038   4.242 -0.0225  0.4779  0.5835
  753MOL0     C 1574   7.394   0.009   4.162  0.4714  1.0744  0.1383
  753MOL0     C 1575   7.638   0.265   3.848  0.0992 -0.6040 -1.0892
  753MOL0     C 1576   7.733   0.165   3.851 -0.0100  0.6865 -0.3946
  753MOL0     C 1577   7.853   0.172   3.782  0.1004 -0.2449 -0.0431
  753MOL0     C 1578   7.876   0.286   3.700 -0.5700 -0.4910  0.0465
  753MOL0     O 1579   7.990   0.309   3.628 -0.1880  0.6304 -0.0832
  753MOL0     C 1580   8.024   0.214   3.519 -0.9845 -0.7464 -0.3165
  753MOL0     C 1581   8.096   0.075   3.544  0.6699  0.1248 -0.3736
  753MOL0     C 1582   8.227   0.077   3.621  1.0009 -0.0466 -0.0234
  753MOL0     C 1583   8.333   0.183   3.583  0.2167  0.0108 -0.0310
  753MOL0     C 1584   8.466   0.164   3.634 -0.6999 -0.3946  0.1401
  753MOL0     C 1585   8.578   0.145   3.684  0.1311  0.0298 -0.4894
  753MOL0     C 1586   7.783   0.390   3.698 -0.1921  0.0670  0.1230
  753MOL0     C 1587   7.665   0.383   3.768  0.5032  0.1968  0.5692
  753MOL0     H 1588   7.237   0.207   3.944  2.2846 -0.3043 -1.7812
  753MOL0     H 1589   7.055   0.126   4.072  0.1080 -1.8790 -1.4968
  753MOL0     H 1590   6.915   0.085   4.257 -0.7105 -0.1104  1.6985
  753MOL0     H 1591   6.888  -0.072   4.166 -1.2178  1.2769  0.1996
  753MOL0     H 1592   6.806  -0.144   4.395  0.5680 -0.7869 -2.5698
  753MOL0     H 1593   6.871  -0.003   4.468 -0.9335 -0.9969  0.9500
  753MOL0     H 1594   6.635   0.043   4.439 -0.5439  0.1627  0.3578
  753MOL0     H 1595   6.710   0.137   4.311 -1.7749 -0.2609 -2.2808
  753MOL0     H 1596   6.685  -0.003   4.136 -2.8166 -0.0649 -1.8200
  753MOL0     H 1597   6.650  -0.148   4.224  1.0469 -0.0192 -0.0163
  753MOL0     H 1598   6.433  -0.051   4.318 -0.7307  1.8364  0.4058
  753MOL0     H 1599   6.479   0.095   4.241  1.2794 -0.2972  2.2434
  753MOL0     H 1600   6.432  -0.019   4.015  1.0833 -2.6487 -0.6286
  753MOL0     H 1601   6.423  -0.175   4.102  1.0727 -0.6545 -0.1445
  753MOL0     H 1602   6.200  -0.113   4.052  1.5195 -1.0630 -0.0852
  753MOL0     H 1603   6.215  -0.105   4.214 -0.2206 -0.6795  0.0369
  753MOL0     H 1604   6.238   0.168   4.078 -3.5665  0.3455 -2.2561
  753MOL0     H 1605   6.234   0.115   4.251 -0.0294 -1.8855  0.9455
  753MOL0     H 1606   5.967  -0.019   4.326 -1.3430 -0.0909 -1.1056
  753MOL0     H 1607   5.758   0.090   4.448 -1.9102  0.7386  0.4382
  753MOL0     H 1608   5.655   0.166   4.327 -0.9121 -1.7514  0.4429
  753MOL0     H 1609   5.582  -0.044   4.394 -1.5794 -4.8650 -1.0597
  753MOL0     H 1610   5.747  -0.112   4.370  2.2016  1.5942 -0.5978
  753MOL0     H 1611   5.583  -0.179   4.167  1.8532 -0.5295 -0.7949
  753MOL0     H 1612   5.706  -0.069   4.112  0.6720  1.3858  0.3777
  753MOL0     H 1613   5.568   0.121   4.125  0.6205 -1.0798 -3.5723
  753MOL0     H 1614   5.447   0.035   4.220  0.5899  2.9131 -0.5385
  753MOL0     H 1615   5.647   0.155   3.928 -1.5062  1.7622  0.0534
  753MOL0     H 1616   5.886   0.125   3.743 -0.1050  0.4843  0.1071
  753MOL0     H 1617   5.793   0.235   3.627 -0.0650 -0.5651 -0.3789
  753MOL0     H 1618   5.810   0.261   3.797  2.2498 -1.4391  1.2634
  753MOL0     H 1619   6.000   0.092   3.260  1.9958  0.8102 -5.2113
  753MOL0     H 1620   6.027   0.211   3.068  0.6605 -0.3797  1.4702
  753MOL0     H 1621   5.798   0.339   2.757  0.1956 -0.9815  0.5648
  753MOL0     H 1622   5.670   0.310   2.871  0.1070 -0.9925 -0.5357
  753MOL0     H 1623   5.601   0.490   2.761  0.3171  1.3172 -0.7790
  753MOL0     H 1624   5.632   0.545   2.925  1.2078 -0.2790  0.9131
  753MOL0     H 1625   5.834   0.583   2.697  0.2145 -0.6417 -0.1221
  753MOL0     H 1626   5.824   0.643   2.867  1.9912  1.0073 -1.2880
  753MOL0     H 1627   5.608   0.678   2.659  1.1594 -2.8313  0.9200
  753MOL0     H 1628   5.626   0.767   2.814 -2.1297 -1.0788 -0.6108
  753MOL0     H 1629   5.805   0.798   2.568 -1.8530  0.8841 -1.2242
  753MOL0     H 1630   5.835   0.875   2.718  1.6094  1.6732 -2.2773
  753MOL0     H 1631   5.576   0.904   2.559 -1.8900 -0.0604  1.5725
  753MOL0     H 1632   5.607   0.979   2.717 -1.7437 -2.3880  0.1258
  753MOL0     H 1633   5.778   1.022   2.476 -0.3856  0.3359 -0.6238
  753MOL0     H 1634   5.798   1.099   2.635 -2.3994  1.2183  1.2944
  753MOL0     H 1635   5.575   1.208   2.621 -0.0506 -0.9145 -0.2888
  753MOL0     H 1636   5.544   1.136   2.460 -2.8114  3.9324  0.9593
  753MOL0     H 1637   5.638   0.394   3.104 -2.1669 -2.1622 -1.5067
  753MOL0     H 1638   5.602   0.284   3.317  0.7246 -0.7445  1.2213
  753MOL0     H 1639   5.441  -0.088   3.563  1.0367 -2.4435  0.0774
  753MOL0     H 1640   5.359  -0.130   3.800 -1.2563  0.3385 -1.9421
  753MOL0     H 1641   7.309  -0.109   4.322  5.6117  0.6283 -0.0710
  753MOL0     H 1642   7.495  -0.027   4.178  0.0589  0.2555  1.0633
  753MOL0     H 1643   7.726   0.068   3.899  0.8106  1.1362  0.6826
  753MOL0     H 1644   7.919   0.086   3.786 -2.0764 -2.3752 -4.1208
  753MOL0     H 1645   7.929   0.202   3.467 -1.0712 -2.8598  0.2125
  753MOL0     H 1646   8.100   0.265   3.459 -1.6502  0.3574 -0.2312
  753MOL0     H 1647   8.111   0.030   3.445 -1.1830  2.1042 -1.6191
  753MOL0     H 1648   8.025   0.014   3.600  0.3011  2.7526  2.2757
  753MOL0     H 1649   8.278  -0.020   3.615  1.3446  0.0212  1.4680
  753MOL0     H 1650   8.203   0.095   3.726  5.1421  0.9421  0.9281
  753MOL0     H 1651   8.289   0.275   3.623 -0.9344 -0.6940  0.3833
  753MOL0     H 1652   8.342   0.192   3.474  1.3041 -2.9298 -0.2528
  753MOL0     H 1653   8.678   0.129   3.719 -0.4958  0.5531  1.6911
  753MOL0     H 1654   7.797   0.478   3.636  1.6362  0.6965  1.3419
  753MOL0     H 1655   7.586   0.458   3.772 -1.2943 -1.5507 -0.4375
  754MOL0     O 1656   5.140   9.362   2.813  0.8310  0.2000  0.6637
  754MOL0     C 1657   5.222   9.351   2.900  0.4436 -0.3274 -0.2066
  754MOL0     O 1658   5.210   9.412   3.031 -0.2086 -0.7856 -0.0847
  754MOL0     C 1659   5.106   9.486   3.072  0.2032  1.0003 -1.1550
  754MOL0     C 1660   5.132   9.556   3.187  0.0718  0.1205  0.5856
  754MOL0     C 1661   5.025   9.600   3.275  0.2772 -0.2052  0.5064
  754MOL0     C 1662   4.885   9.598   3.240  0.4365 -0.0524 -0.2649
  754MOL0     O 1663   4.788   9.656   3.320  0.7879  0.5661  0.0529
  754MOL0     C 1664   4.661   9.601   3.311 -0.0999 -0.1318  0.8879
  754MOL0     C 1665   4.564   9.696   3.394  0.2706 -0.4126  0.6280
  754MOL0     C 1666   4.426   9.631   3.427  0.1706 -0.5181  0.4860
  754MOL0     C 1667   4.336   9.719   3.509  1.8712 -0.3176 -0.0198
  754MOL0     C 1668   4.198   9.664   3.540 -1.0187  0.3676 -0.2918
  754MOL0     C 1669   4.091   9.724   3.451 -0.0584  0.4564 -0.4063
  754MOL0     C 1670   4.103   9.708   3.295 -0.1379  0.0580 -1.3437
  754MOL0     C 1671   3.972   9.742   3.225 -0.5960 -0.4980 -0.1409
  754MOL0     N 1672   3.983   9.744   3.075  0.2738 -0.2348 -0.1515
  754MOL0     C 1673   3.979   9.636   2.994 -0.5322  0.1679  0.1181
  754MOL0     C 1674   4.029   9.679   2.873 -0.0487  0.0679 -0.5891
  754MOL0     C 1675   4.053   9.590   2.756  0.3886 -0.2833 -0.2753
  754MOL0     C 1676   4.177   9.609   2.670  0.0313  0.1159 -0.1733
  754MOL0     C 1677   4.154   9.734   2.585 -0.1523  0.3599  0.7727
  754MOL0     C 1678   4.248   9.757   2.465  0.4834 -0.2269  0.1274
  754MOL0     O 1679   4.376   9.772   2.518  0.1295 -0.5344  0.1078
  754MOL0     C 1680   4.471   9.691   2.468 -0.1022  0.3654 -0.1484
  754MOL0     C 1681   4.500   9.690   2.332  0.0490 -0.0805 -0.3015
  754MOL0     C 1682   4.607   9.615   2.273  0.8960  0.1593 -0.6736
  754MOL0     C 1683   4.638   9.637   2.124 -0.8480  0.4778 -0.2659
  754MOL0     C 1684   4.679   9.540   2.363  0.3771  0.3091  0.1108
  754MOL0     C 1685   4.805   9.463   2.328  1.0046 -0.4087 -0.7828
  754MOL0     O 1686   4.873   9.409   2.429 -0.4600 -0.2096 -0.1257
  754MOL0     C 1687   4.997   9.351   2.416 -0.6142 -0.0719 -0.1240
  754MOL0     C 1688   5.051   9.266   2.517  0.4550  0.4007  0.7211
  754MOL0     C 1689   5.181   9.207   2.508  0.8476  0.3491 -1.2283
  754MOL0     C 1690   5.269   9.253   2.413  0.3021  0.1342 -0.9506
  754MOL0     O 1691   5.397   9.206   2.394 -0.7821  0.3504  0.8657
  754MOL0     C 1692   5.439   9.071   2.432 -0.6423  0.2768  0.4196
  754MOL0     C 1693   5.590   9.049   2.380  0.2954 -0.5903 -0.1488
  754MOL0     C 1694   5.639   8.916   2.435  0.2924  0.1237 -0.8773
  754MOL0     C 1695   5.773   8.872   2.364 -0.5301 -0.3571  0.6767
  754MOL0     C 1696   5.842   8.769   2.455  0.0040 -0.0532  0.0735
  754MOL0     C 1697   5.977   8.708   2.389 -0.5693 -0.4749  0.2336
  754MOL0     C 1698   6.048   8.619   2.490 -0.5789  0.1271 -0.6300
  754MOL0     C 1699   6.132   8.505   2.434 -0.0311 -0.2300  0.3410
  754MOL0    Cl 1700   6.305   8.554   2.431  0.5592 -0.1607  0.2160
  754MOL0     C 1701   5.229   9.361   2.332  0.5364 -0.5265 -0.1852
  754MOL0     C 1702   5.098   9.411   2.336  0.5273  0.0921  0.7685
  754MOL0     O 1703   4.835   9.436   2.213  0.8602 -0.0372  0.6405
  754MOL0     C 1704   4.647   9.533   2.501  0.3218 -0.6980 -0.8585
  754MOL0     C 1705   4.541   9.607   2.559 -0.1637 -0.5717  0.5123
  754MOL0     N 1706   4.049   9.817   2.887  0.2616 -0.3345  0.2611
  754MOL0     N 1707   4.020   9.851   3.008 -0.2797 -0.4060  0.1135
  754MOL0     C 1708   4.869   9.546   3.103  0.7166 -0.0551 -0.6628
  754MOL0     C 1709   4.973   9.484   3.033  0.3418  0.3327 -0.5406
  754MOL0     C 1710   5.341   9.267   2.883 -0.1733  0.3358 -0.2778
  754MOL0     C 1711   5.397   9.189   2.986 -0.4379  0.3163 -0.0742
  754MOL0     C 1712   5.519   9.125   2.962  0.3435  0.6363 -0.0448
  754MOL0     C 1713   5.581   9.111   2.836 -0.7855 -0.8024 -0.3181
  754MOL0     O 1714   5.692   9.027   2.817  0.5229  0.2531 -0.7531
  754MOL0     C 1715   5.737   8.940   2.922  0.8450 -0.1226 -0.2270
  754MOL0     C 1716   5.847   8.846   2.887 -0.4201  0.2700  0.2613
  754MOL0     C 1717   5.908   8.776   3.004 -1.3137  0.2462  0.2155
  754MOL0     C 1718   6.002   8.870   3.089  0.1145  0.8930 -0.4749
  754MOL0     C 1719   6.040   8.806   3.217  0.3746 -0.1052 -0.5474
  754MOL0     C 1720   6.075   8.745   3.315  0.4164  0.1315 -0.2426
  754MOL0     C 1721   5.532   9.203   2.737 -0.3316 -0.1796  0.1140
  754MOL0     C 1722   5.413   9.273   2.761 -0.3653  0.3379 -0.1935
  754MOL0     H 1723   5.236   9.553   3.216 -0.0443  1.4330  1.2023
  754MOL0     H 1724   5.049   9.647   3.370  0.0407 -0.2901  0.6079
  754MOL0     H 1725   4.622   9.575   3.212 -3.4289 -0.3804  2.1501
  754MOL0     H 1726   4.659   9.506   3.364 -1.2177  0.0207  1.1532
  754MOL0     H 1727   4.614   9.726   3.487 -0.0711  2.4856 -0.0125
  754MOL0     H 1728   4.564   9.782   3.326  1.6926 -0.3134  0.7118
  754MOL0     H 1729   4.385   9.615   3.327 -1.9977 -0.3728  1.3042
  754MOL0     H 1730   4.447   9.532   3.469 -1.4057 -0.7883  0.6961
  754MOL0     H 1731   4.381   9.712   3.609  0.6209 -1.1780  0.5031
  754MOL0     H 1732   4.325   9.822   3.472 -0.0015 -0.4766  0.0143
  754MOL0     H 1733   4.207   9.555   3.551 -3.0717  0.3883  3.0930
  754MOL0     H 1734   4.179   9.702   3.640  2.9008  0.1244  0.7170
  754MOL0     H 1735   4.001   9.672   3.484  0.8807 -1.0906 -0.2043
  754MOL0     H 1736   4.095   9.831   3.475 -0.8482  0.3198  0.3735
  754MOL0     H 1737   4.185   9.772   3.260 -2.6322  3.9817 -0.5958
  754MOL0     H 1738   4.122   9.601   3.284 -0.1994 -0.0303 -0.6294
  754MOL0     H 1739   3.929   9.835   3.263 -1.9119 -0.6073 -1.2829
  754MOL0     H 1740   3.901   9.666   3.255 -1.0554  0.1481  0.4389
  754MOL0     H 1741   3.944   9.536   3.015 -0.8941  0.9380  4.0370
  754MOL0     H 1742   4.063   9.491   2.803  0.1660 -0.3944 -0.4590
  754MOL0     H 1743   3.959   9.578   2.701  0.4075 -0.5525 -0.2507
  754MOL0     H 1744   4.198   9.525   2.603  2.7888  2.5452 -2.6118
  754MOL0     H 1745   4.261   9.618   2.739  0.4322  2.1305 -0.8475
  754MOL0     H 1746   4.165   9.821   2.651 -1.7598  1.4290 -0.2934
  754MOL0     H 1747   4.050   9.717   2.556 -0.8485 -1.8512  4.0881
  754MOL0     H 1748   4.212   9.848   2.416 -4.3792 -1.8998  0.0454
  754MOL0     H 1749   4.241   9.673   2.396  0.1313 -0.5196  0.5213
  754MOL0     H 1750   4.431   9.746   2.270 -1.1066 -0.5440  0.5273
  754MOL0     H 1751   4.642   9.537   2.079  2.0334  0.4711 -0.1575
  754MOL0     H 1752   4.568   9.709   2.080  1.2361  2.3712 -0.6679
  754MOL0     H 1753   4.738   9.678   2.106 -0.9717  0.1138 -2.0497
  754MOL0     H 1754   4.989   9.237   2.601 -1.3169  0.1387 -0.6246
  754MOL0     H 1755   5.210   9.130   2.578 -0.8812 -0.2015 -1.0964
  754MOL0     H 1756   5.428   9.045   2.538  2.9218  0.7544  1.0400
  754MOL0     H 1757   5.383   9.004   2.367  0.1689  2.1620 -2.4234
  754MOL0     H 1758   5.589   9.039   2.271  1.6175 -1.4689 -0.1144
  754MOL0     H 1759   5.659   9.129   2.408 -0.6538  0.9216 -1.8874
  754MOL0     H 1760   5.564   8.842   2.408 -0.8873  0.0430  2.2778
  754MOL0     H 1761   5.635   8.911   2.544  1.7347  2.0195 -0.6818
  754MOL0     H 1762   5.751   8.833   2.264 -1.1066 -1.3710  1.1760
  754MOL0     H 1763   5.824   8.969   2.361 -4.0895  1.6817 -0.9101
  754MOL0     H 1764   5.769   8.693   2.484 -0.4679  0.2135 -0.4088
  754MOL0     H 1765   5.874   8.816   2.548 -3.1757 -0.3697  1.4322
  754MOL0     H 1766   5.967   8.658   2.293 -1.9502 -2.5878  1.3853
  754MOL0     H 1767   6.037   8.796   2.368  0.4912 -1.5506 -1.4114
  754MOL0     H 1768   5.966   8.578   2.549  2.4201 -1.9544  2.5240
  754MOL0     H 1769   6.110   8.681   2.556 -1.2814 -0.2853  0.4506
  754MOL0     H 1770   6.098   8.481   2.333  1.3901 -1.5707  0.1400
  754MOL0     H 1771   6.123   8.411   2.488  1.7064 -0.5436  0.1572
  754MOL0     H 1772   5.299   9.406   2.263  0.9298 -0.2405  0.3930
  754MOL0     H 1773   5.074   9.494   2.271 -1.3205 -0.4076  0.7526
  754MOL0     H 1774   4.693   9.480   2.583 -1.5087 -1.4318 -0.2518
  754MOL0     H 1775   4.513   9.607   2.664  3.2976  0.5616  1.5544
  754MOL0     H 1776   4.769   9.552   3.060  0.4036 -1.5728 -0.1895
  754MOL0     H 1777   4.961   9.430   2.940  1.6994  0.9805 -1.1282
  754MOL0     H 1778   5.348   9.182   3.082  0.5853 -1.5310  0.3605
  754MOL0     H 1779   5.565   9.064   3.039 -1.4739 -2.6365 -1.3678
  754MOL0     H 1780   5.774   8.998   3.007  1.3696 -0.9437  0.1102
  754MOL0     H 1781   5.655   8.880   2.962  1.0661  0.7450  1.6258
  754MOL0     H 1782   5.928   8.896   2.832  0.6606 -2.1832 -0.5402
  754MOL0     H 1783   5.817   8.775   2.809  0.0625  0.6353 -0.2652
  754MOL0     H 1784   5.975   8.699   2.963 -0.7386  0.3030  1.0162
  754MOL0     H 1785   5.822   8.732   3.056 -1.7562  1.2104  0.3220
  754MOL0     H 1786   5.960   8.967   3.119  3.5029  2.5653 -0.5854
  754MOL0     H 1787   6.099   8.892   3.044  0.6767  0.8645  0.6810
  754MOL0     H 1788   6.112   8.688   3.398 -0.6491  1.6750  1.3981
  754MOL0     H 1789   5.591   9.206   2.646  2.8761 -0.4945  2.0471
  754MOL0     H 1790   5.372   9.344   2.689 -0.3333  0.8915  0.3232
  755MOL0     O 1791   7.327   8.043   5.651  0.1069 -0.4442 -0.3202
  755MOL0     C 1792   7.396   7.983   5.572 -0.4033  0.6776 -0.1311
  755MOL0     O 1793   7.359   7.941   5.457  0.2125  0.2593  0.0793
  755MOL0     C 1794   7.232   7.976   5.411 -1.4918  0.0787 -0.2288
  755MOL0     C 1795   7.119   7.923   5.456  0.3698  0.5844  0.3605
  755MOL0     C 1796   7.002   7.958   5.399  0.2681 -0.9054 -0.9017
  755MOL0     C 1797   6.994   8.060   5.301 -0.2870  0.4854  1.5239
  755MOL0     O 1798   6.870   8.087   5.237 -0.4743 -0.5202  0.3351
  755MOL0     C 1799   6.748   8.034   5.282  1.4197  0.5186 -0.4186
  755MOL0     C 1800   6.636   8.116   5.207  0.5813  1.0895  0.2835
  755MOL0     C 1801   6.504   8.041   5.232 -0.1330 -0.4275  0.1939
  755MOL0     C 1802   6.412   8.009   5.113  0.1639  0.2701  0.3985
  755MOL0     C 1803   6.278   7.954   5.157  1.1817  0.0411  0.1446
  755MOL0     C 1804   6.212   7.878   5.041  0.2571  0.9715 -0.4030
  755MOL0     C 1805   6.070   7.837   5.071 -0.0726  0.6459  0.6625
  755MOL0     C 1806   5.980   7.956   5.038 -0.3252 -0.4864  0.8414
  755MOL0     N 1807   5.840   7.907   5.039  0.2350  0.1782  0.0300
  755MOL0     C 1808   5.776   7.803   4.972  0.5889 -0.0730 -0.5680
  755MOL0     C 1809   5.644   7.808   5.004 -0.1408  0.1484 -0.2886
  755MOL0     C 1810   5.528   7.725   4.935  0.4606 -0.2488  1.0676
  755MOL0     C 1811   5.388   7.793   4.948  0.0105  0.8700  0.9407
  755MOL0     C 1812   5.296   7.687   4.916  0.1842  0.2705 -0.5680
  755MOL0     C 1813   5.156   7.734   4.929 -0.0004  0.8194  0.3973
  755MOL0     O 1814   5.062   7.636   4.874 -1.3442  0.5378 -0.2012
  755MOL0     C 1815   4.925   7.662   4.869  0.8539 -0.3785 -0.3740
  755MOL0     C 1816   4.856   7.766   4.930  0.1891 -0.7633 -0.0235
  755MOL0     C 1817   4.716   7.776   4.923 -0.4154 -0.3881  0.0587
  755MOL0     C 1818   4.645   7.863   5.024 -0.8644  0.0601  0.2360
  755MOL0     C 1819   4.646   7.700   4.831  0.2060 -0.1971 -0.7434
  755MOL0     C 1820   4.501   7.701   4.800 -0.1738  0.6462  0.0865
  755MOL0     O 1821   4.459   7.607   4.719  0.3834 -0.2113  0.0180
  755MOL0     C 1822   4.320   7.592   4.704  0.2461  0.9696 -0.6360
  755MOL0     C 1823   4.242   7.541   4.813 -0.4601  0.3130  0.4459
  755MOL0     C 1824   4.103   7.528   4.793 -0.8212  0.6010 -0.0091
  755MOL0     C 1825   4.048   7.544   4.665  1.3595 -0.5094  0.5458
  755MOL0     O 1826   3.912   7.520   4.650 -0.4510 -0.1167  0.1611
  755MOL0     C 1827   3.853   7.501   4.526  0.2139  0.2598  0.4685
  755MOL0     C 1828   3.699   7.526   4.552  0.5418 -0.3684  0.3033
  755MOL0     C 1829   3.611   7.497   4.422  0.2973 -0.6693 -1.1314
  755MOL0     C 1830   3.460   7.468   4.458 -0.4525  0.1230  0.4576
  755MOL0     C 1831   3.381   7.464   4.332  0.5702  0.2951 -0.1094
  755MOL0     C 1832   3.438   7.387   4.211 -0.0846  0.2151  0.5002
  755MOL0     C 1833   3.435   7.232   4.238  0.3766 -0.4677 -0.0391
  755MOL0     C 1834   3.505   7.149   4.133  0.1981 -0.3091  0.5110
  755MOL0    Cl 1835   3.428   7.181   3.976 -0.2777  0.1925  0.4016
  755MOL0     C 1836   4.128   7.588   4.557 -0.3362  0.3951  0.1914
  755MOL0     C 1837   4.270   7.611   4.574  0.2726  1.4800 -0.7984
  755MOL0     O 1838   4.438   7.795   4.851 -0.4529 -0.2118  0.1099
  755MOL0     C 1839   4.716   7.605   4.763 -0.1024  1.1219  0.5198
  755MOL0     C 1840   4.848   7.580   4.791 -0.8594  0.3730 -0.6166
  755MOL0     N 1841   5.619   7.917   5.091 -0.3032 -0.3525 -0.1217
  755MOL0     N 1842   5.739   7.964   5.121 -0.0221 -0.1145 -0.0009
  755MOL0     C 1843   7.108   8.117   5.256 -0.8939 -0.4578 -1.2139
  755MOL0     C 1844   7.231   8.083   5.315 -0.8287 -0.0217  0.2283
  755MOL0     C 1845   7.533   7.939   5.609  0.3834  0.5295 -0.3556
  755MOL0     C 1846   7.598   7.995   5.715  0.6510  0.9771  0.7840
  755MOL0     C 1847   7.735   7.956   5.747  0.9973 -0.1061 -0.2407
  755MOL0     C 1848   7.814   7.873   5.677 -0.0916  0.3563 -0.0877
  755MOL0     O 1849   7.950   7.857   5.705  0.0502 -0.2501  0.1901
  755MOL0     C 1850   8.016   7.976   5.740 -0.2594 -0.0428  0.2310
  755MOL0     C 1851   8.129   8.004   5.634 -0.3470  0.5606 -0.6643
  755MOL0     C 1852   8.069   8.121   5.539 -0.1925 -0.1884  0.1919
  755MOL0     C 1853   7.982   8.074   5.423  0.1353  0.8252  0.4386
  755MOL0     C 1854   8.062   8.016   5.309  0.4831  0.7791 -0.1157
  755MOL0     C 1855   8.111   7.970   5.208  0.1470  0.0302 -0.0726
  755MOL0     C 1856   7.747   7.804   5.575 -0.1330 -0.8514 -0.5280
  755MOL0     C 1857   7.613   7.841   5.547 -0.2159 -1.2512 -0.5664
  755MOL0     H 1858   7.132   7.845   5.530  0.0611 -1.9392 -2.0688
  755MOL0     H 1859   6.917   7.899   5.433  0.1600 -0.2005  0.0767
  755MOL0     H 1860   6.746   7.936   5.233  2.0068  0.4665 -0.3426
  755MOL0     H 1861   6.733   8.016   5.389 -3.8535 -3.3982 -1.3728
  755MOL0     H 1862   6.632   8.214   5.256 -1.1430  2.0129 -1.5254
  755MOL0     H 1863   6.650   8.132   5.100 -0.1124 -2.4632 -0.4800
  755MOL0     H 1864   6.525   7.953   5.294  0.7391 -1.0848 -0.9917
  755MOL0     H 1865   6.460   8.124   5.287  1.3917 -0.7236  1.9831
  755MOL0     H 1866   6.401   8.101   5.055  2.3763 -0.1379 -0.7796
  755MOL0     H 1867   6.477   7.942   5.055 -1.8850 -0.1331 -1.5587
  755MOL0     H 1868   6.282   7.901   5.252  0.6666  0.5792  0.4752
  755MOL0     H 1869   6.228   8.046   5.189  0.7394 -0.4825  0.9759
  755MOL0     H 1870   6.208   7.940   4.950 -0.9857 -0.4662 -1.3882
  755MOL0     H 1871   6.266   7.786   5.017 -0.9560  0.1927 -0.2576
  755MOL0     H 1872   6.048   7.748   5.012 -0.9472  0.0463  1.8565
  755MOL0     H 1873   6.054   7.817   5.178 -2.6681 -0.6691  0.0916
  755MOL0     H 1874   6.010   8.000   4.942 -2.2932  1.1679  0.9046
  755MOL0     H 1875   5.984   8.039   5.110 -0.2621 -0.7046  1.0876
  755MOL0     H 1876   5.805   7.731   4.896 -2.3723 -1.8736 -0.1594
  755MOL0     H 1877   5.553   7.726   4.829  0.7441  1.0463  1.1386
  755MOL0     H 1878   5.528   7.629   4.989  3.4383  0.5743  2.7849
  755MOL0     H 1879   5.378   7.880   4.882 -0.7058  1.2497  1.5271
  755MOL0     H 1880   5.366   7.824   5.051  1.6016  0.2373  1.4980
  755MOL0     H 1881   5.309   7.597   4.977 -0.7455  0.1563 -0.5123
  755MOL0     H 1882   5.318   7.672   4.810 -0.0235  1.6755 -0.8331
  755MOL0     H 1883   5.151   7.837   4.892 -3.8826  0.6833  0.0870
  755MOL0     H 1884   5.131   7.741   5.035  1.3744 -1.3193  0.9183
  755MOL0     H 1885   4.921   7.833   4.985 -1.9762  0.9554  0.5719
  755MOL0     H 1886   4.600   7.950   4.976  2.4374  0.1409 -3.1421
  755MOL0     H 1887   4.572   7.800   5.076  1.5552 -3.5661 -0.3645
  755MOL0     H 1888   4.723   7.878   5.099 -0.6773  1.1137 -0.1587
  755MOL0     H 1889   4.294   7.517   4.906 -0.8541 -0.3220  0.5114
  755MOL0     H 1890   4.038   7.508   4.879 -0.8147  2.7025  0.5440
  755MOL0     H 1891   3.891   7.577   4.456  0.0760 -1.2480 -1.3408
  755MOL0     H 1892   3.876   7.400   4.492  1.5667  0.0903  1.7668
  755MOL0     H 1893   3.667   7.457   4.631  1.5068 -1.2000 -0.0078
  755MOL0     H 1894   3.689   7.631   4.579 -1.8440  0.3285 -2.6933
  755MOL0     H 1895   3.647   7.408   4.369 -1.3791 -0.1114 -3.3239
  755MOL0     H 1896   3.610   7.585   4.357 -2.3609  0.3327  0.1384
  755MOL0     H 1897   3.462   7.366   4.499 -3.5110 -0.4785 -0.6825
  755MOL0     H 1898   3.415   7.530   4.536 -4.6439 -1.1572 -0.7226
  755MOL0     H 1899   3.356   7.562   4.290 -0.8263 -0.9563 -2.4241
  755MOL0     H 1900   3.285   7.420   4.358  0.9115 -1.1734 -1.2099
  755MOL0     H 1901   3.369   7.407   4.129  1.4291  0.3067 -0.8015
  755MOL0     H 1902   3.534   7.430   4.179 -0.7882 -0.3001 -2.5863
  755MOL0     H 1903   3.328   7.209   4.238  0.0611  0.8625 -1.2685
  755MOL0     H 1904   3.485   7.189   4.325  4.1154 -2.9725 -3.1133
  755MOL0     H 1905   3.507   7.042   4.157  2.4503  0.0038  2.0650
  755MOL0     H 1906   3.609   7.181   4.121  0.3603 -1.1782 -0.6117
  755MOL0     H 1907   4.088   7.597   4.456  0.4262  0.8911 -0.0735
  755MOL0     H 1908   4.343   7.614   4.494  1.1158 -3.2932 -0.5172
  755MOL0     H 1909   4.672   7.540   4.688  1.9896 -0.1301  0.2749
  755MOL0     H 1910   4.910   7.507   4.739  2.0849  1.8438  0.5650
  755MOL0     H 1911   7.105   8.182   5.169  0.7828  0.7839 -0.3908
  755MOL0     H 1912   7.321   8.131   5.280 -1.7248  2.4874  1.1103
  755MOL0     H 1913   7.547   8.054   5.790 -0.2922  2.7189 -1.1283
  755MOL0     H 1914   7.769   8.008   5.836 -2.0980  1.1369  0.3432
  755MOL0     H 1915   7.947   8.060   5.752  0.3507  0.4204  0.5533
  755MOL0     H 1916   8.065   7.955   5.836  0.1759 -0.9355 -0.1756
  755MOL0     H 1917   8.166   7.917   5.580 -1.1550  1.5246 -2.9180
  755MOL0     H 1918   8.214   8.050   5.686 -1.0344  0.3249  0.7017
  755MOL0     H 1919   8.161   8.153   5.489 -1.2646 -0.6148 -2.1970
  755MOL0     H 1920   8.025   8.210   5.584  2.7393  2.1280 -1.1691
  755MOL0     H 1921   7.922   8.159   5.389 -0.1304  0.6829  0.5461
  755MOL0     H 1922   7.915   7.994   5.457  0.6070 -0.3931 -1.3989
  755MOL0     H 1923   8.162   7.937   5.119 -0.7553 -1.3911 -0.1033
  755MOL0     H 1924   7.801   7.742   5.504  0.6580 -2.2404  1.2295
  755MOL0     H 1925   7.575   7.786   5.461 -1.1155  1.1605 -1.7908
  756MOL0     O 1926  10.600   3.804   7.604  0.3873 -0.6129  0.1724
  756MOL0     C 1927  10.508   3.734   7.574  0.3608 -0.0408  0.7241
  756MOL0     O 1928  10.434   3.658   7.662  0.4597  0.0343  0.6041
  756MOL0     C 1929  10.438   3.671   7.800  0.1759  0.1629 -0.2324
  756MOL0     C 1930  10.545   3.723   7.879  0.6622  0.4999 -0.6128
  756MOL0     C 1931  10.537   3.706   8.020 -0.1507  0.3052  0.2510
  756MOL0     C 1932  10.435   3.633   8.085  0.0649 -0.9112  0.5962
  756MOL0     O 1933  10.440   3.590   8.212 -0.9698 -0.0693  0.5000
  756MOL0     C 1934  10.513   3.679   8.306 -0.9717 -0.4639  0.2862
  756MOL0     C 1935  10.450   3.683   8.444 -0.4381 -0.2187  0.6026
  756MOL0     C 1936  10.443   3.545   8.508  0.8350  0.1869  1.0657
  756MOL0     C 1937  10.390   3.556   8.648  0.4178 -0.4166 -0.0514
  756MOL0     C 1938  10.355   3.431   8.723 -0.3004 -0.0072  0.7921
  756MOL0     C 1939  10.265   3.334   8.647 -0.3875  0.6536 -0.2706
  756MOL0     C 1940  10.145   3.388   8.568 -1.0299  0.6777 -0.1196
  756MOL0     C 1941  10.068   3.473   8.673 -0.2540  0.3093 -0.2932
  756MOL0     N 1942   9.923   3.484   8.643  1.2301  0.7470  0.4472
  756MOL0     C 1943   9.849   3.595   8.600  0.2511 -0.0182  0.1658
  756MOL0     C 1944   9.730   3.550   8.570  0.7328  0.3048 -0.2783
  756MOL0     C 1945   9.620   3.648   8.525 -0.0148 -1.0381  0.2288
  756MOL0     C 1946   9.572   3.712   8.657 -0.2833 -0.6122 -0.3002
  756MOL0     C 1947   9.451   3.809   8.637 -0.2767 -0.2447  0.1800
  756MOL0     C 1948   9.413   3.879   8.765 -0.7699 -0.6961  0.3103
  756MOL0     O 1949   9.299   3.964   8.745 -0.1845  0.1679 -0.8054
  756MOL0     C 1950   9.179   3.908   8.731  0.1448  0.1136  0.0238
  756MOL0     C 1951   9.093   3.960   8.632 -0.2859  0.2283 -0.0238
  756MOL0     C 1952   8.965   3.919   8.625 -0.3396 -0.8550 -0.4449
  756MOL0     C 1953   8.872   3.984   8.516 -0.6047 -0.5963 -0.2859
  756MOL0     C 1954   8.914   3.823   8.719  0.7342 -0.7047 -1.3066
  756MOL0     C 1955   8.773   3.773   8.722  0.0015  0.0124 -0.0456
  756MOL0     O 1956   8.701   3.772   8.838 -0.2008 -0.1328  0.1242
  756MOL0     C 1957   8.592   3.689   8.855 -0.6756  0.0070 -0.1133
  756MOL0     C 1958   8.618   3.585   8.946 -1.2571 -0.1826  0.6012
  756MOL0     C 1959   8.529   3.483   8.955  0.1988  0.4797 -0.4826
  756MOL0     C 1960   8.408   3.482   8.887  1.2596 -0.9443  0.2516
  756MOL0     O 1961   8.312   3.392   8.918 -0.0895  0.7697  0.7114
  756MOL0     C 1962   8.179   3.410   8.886  0.0554  0.0916 -0.7810
  756MOL0     C 1963   8.112   3.297   8.973 -0.0232  0.9433  0.6318
  756MOL0     C 1964   7.983   3.248   8.918  0.0322  0.3011  0.0196
  756MOL0     C 1965   7.881   3.355   8.923  0.6384 -0.1085  0.7444
  756MOL0     C 1966   7.732   3.325   8.918  0.5306 -0.6065 -0.1307
  756MOL0     C 1967   7.692   3.236   9.040  0.6264  1.0017 -0.7706
  756MOL0     C 1968   7.562   3.294   9.092  0.2035  0.1347 -0.7385
  756MOL0     C 1969   7.519   3.208   9.215  0.4546 -0.2400  0.2573
  756MOL0    Cl 1970   7.599   3.259   9.361 -0.4821  0.1623 -0.2911
  756MOL0     C 1971   8.372   3.591   8.799  0.4129 -0.6498  0.1963
  756MOL0     C 1972   8.464   3.697   8.784  0.4411  0.1667 -0.8779
  756MOL0     O 1973   8.748   3.711   8.616 -0.3298  0.6541 -0.0218
  756MOL0     C 1974   9.002   3.774   8.819 -0.6293  0.3478 -0.4367
  756MOL0     C 1975   9.134   3.817   8.828 -0.0890 -0.5429 -0.5019
  756MOL0     N 1976   9.724   3.415   8.592 -0.3018  0.5333 -0.6223
  756MOL0     N 1977   9.838   3.375   8.642  0.2172  0.8197  0.5486
  756MOL0     C 1978  10.327   3.587   8.010  0.2868 -0.1833  0.2156
  756MOL0     C 1979  10.326   3.617   7.870  0.8213  0.7314 -0.6808
  756MOL0     C 1980  10.480   3.706   7.433 -0.8506 -0.2755 -0.6173
  756MOL0     C 1981  10.367   3.638   7.380  0.0127  0.1464  0.6915
  756MOL0     C 1982  10.335   3.624   7.249 -0.0296 -0.6822  0.1309
  756MOL0     C 1983  10.419   3.686   7.158 -0.3316  0.6927 -0.9422
  756MOL0     O 1984  10.390   3.677   7.029  0.1713 -0.0172 -0.5891
  756MOL0     C 1985  10.402   3.800   6.950 -0.5762 -0.3013  0.2453
  756MOL0     C 1986  10.542   3.823   6.893 -0.1353  0.6274  0.8252
  756MOL0     C 1987  10.566   3.775   6.749 -0.0994  0.8403 -0.0624
  756MOL0     C 1988  10.612   3.629   6.715 -0.2335 -0.2690  0.4964
  756MOL0     C 1989  10.752   3.617   6.756  0.3367 -0.9794  0.6809
  756MOL0     C 1990  10.867   3.595   6.797 -0.2093  1.0293  0.3404
  756MOL0     C 1991  10.538   3.741   7.203 -0.5994 -0.4287 -0.4378
  756MOL0     C 1992  10.569   3.754   7.338  0.1626  0.6191  0.5239
  756MOL0     H 1993  10.634   3.753   7.824 -0.8234 -1.8417 -4.7503
  756MOL0     H 1994  10.626   3.745   8.067  0.8141  0.6004 -1.7032
  756MOL0     H 1995  10.617   3.646   8.311 -0.7410  0.2671  0.3390
  756MOL0     H 1996  10.503   3.782   8.272  2.5699  0.1648  0.7269
  756MOL0     H 1997  10.521   3.745   8.501  2.4612 -0.7517 -2.1181
  756MOL0     H 1998  10.355   3.733   8.428 -0.0847  0.4414  0.5062
  756MOL0     H 1999  10.374   3.491   8.443 -0.8857  2.4001  0.9608
  756MOL0     H 2000  10.535   3.486   8.500 -1.0788 -2.7765 -1.8925
  756MOL0     H 2001  10.473   3.605   8.701  1.6500  2.3754 -4.0342
  756MOL0     H 2002  10.308   3.626   8.629  2.4647  1.6421 -1.9511
  756MOL0     H 2003  10.446   3.373   8.741  0.0352  0.4139  0.4670
  756MOL0     H 2004  10.307   3.453   8.819 -2.0173 -0.5071  0.0977
  756MOL0     H 2005  10.333   3.273   8.587  0.2575 -0.4257  1.4701
  756MOL0     H 2006  10.222   3.259   8.714 -0.3978  0.6681 -0.2606
  756MOL0     H 2007  10.182   3.440   8.479  2.0303 -1.5411 -0.3121
  756MOL0     H 2008  10.089   3.307   8.521 -2.6222  1.2319  0.7757
  756MOL0     H 2009  10.110   3.574   8.666 -2.4251  1.3151  0.0131
  756MOL0     H 2010  10.078   3.439   8.776 -0.4591  4.2567  1.2331
  756MOL0     H 2011   9.888   3.696   8.589  2.1422 -0.3761  2.6313
  756MOL0     H 2012   9.671   3.724   8.465 -0.7823  0.0436  0.9000
  756MOL0     H 2013   9.544   3.598   8.465  1.2193 -2.8212  0.0544
  756MOL0     H 2014   9.651   3.772   8.704 -2.3932  3.0131 -1.0193
  756MOL0     H 2015   9.551   3.644   8.740 -1.6495  0.0793 -0.0543
  756MOL0     H 2016   9.372   3.739   8.609  0.3637 -0.5617 -0.9241
  756MOL0     H 2017   9.480   3.882   8.560 -2.0414  0.0997 -0.1888
  756MOL0     H 2018   9.492   3.949   8.794 -0.7259  0.8292 -2.9871
  756MOL0     H 2019   9.404   3.810   8.849  0.0867  0.0867  1.0584
  756MOL0     H 2020   9.144   4.013   8.552  1.2703 -1.4135 -0.1871
  756MOL0     H 2021   8.824   3.907   8.454 -0.5735 -0.5898 -0.3181
  756MOL0     H 2022   8.787   4.041   8.554 -1.0375 -2.0509  1.0068
  756MOL0     H 2023   8.928   4.051   8.451 -1.1135  2.1106  1.8890
  756MOL0     H 2024   8.718   3.593   8.988 -0.8890 -1.7981  0.0960
  756MOL0     H 2025   8.541   3.392   9.012 -1.2530  2.7732  3.9598
  756MOL0     H 2026   8.138   3.508   8.913 -1.9583 -1.1326  0.9482
  756MOL0     H 2027   8.159   3.378   8.784 -0.8059  2.1628 -1.3086
  756MOL0     H 2028   8.186   3.216   8.965 -2.1600 -0.9252 -3.8866
  756MOL0     H 2029   8.113   3.323   9.079  0.6685 -1.8154  1.4003
  756MOL0     H 2030   7.958   3.161   8.980 -0.8339  0.4934 -0.0563
  756MOL0     H 2031   8.010   3.213   8.818 -1.1305  3.5686 -1.5691
  756MOL0     H 2032   7.896   3.427   9.004 -3.6929  1.8683  0.0518
  756MOL0     H 2033   7.900   3.416   8.834 -0.8807  1.0917  1.2022
  756MOL0     H 2034   7.699   3.272   8.828 -2.8340 -0.3533  0.7901
  756MOL0     H 2035   7.690   3.426   8.920 -0.5964 -1.0582 -0.1573
  756MOL0     H 2036   7.679   3.130   9.015  1.1116  0.4657  1.1074
  756MOL0     H 2037   7.763   3.244   9.122  1.5965  1.2691 -1.6161
  756MOL0     H 2038   7.487   3.293   9.013  2.4171  0.6537 -2.9881
  756MOL0     H 2039   7.581   3.398   9.122  0.7625 -0.8792  2.9218
  756MOL0     H 2040   7.535   3.101   9.206 -1.3733 -0.4826 -0.6693
  756MOL0     H 2041   7.414   3.236   9.234  1.3715  2.2210  2.3298
  756MOL0     H 2042   8.282   3.622   8.747 -0.0813 -0.3160  1.2330
  756MOL0     H 2043   8.438   3.794   8.743 -0.0409  1.2217  1.7806
  756MOL0     H 2044   8.963   3.695   8.882 -2.6448  0.5762 -1.3128
  756MOL0     H 2045   9.203   3.786   8.906 -2.1080 -0.5296  1.4067
  756MOL0     H 2046  10.248   3.533   8.061  0.5091 -1.0797 -0.3583
  756MOL0     H 2047  10.237   3.583   7.817 -0.7334  3.8560 -0.3034
  756MOL0     H 2048  10.304   3.589   7.454  0.9871 -2.2056  0.0514
  756MOL0     H 2049  10.252   3.567   7.207 -2.2659  0.9454  2.0534
  756MOL0     H 2050  10.325   3.811   6.874  0.6582 -0.0133 -1.0094
  756MOL0     H 2051  10.374   3.888   7.008  1.8261  2.0542 -1.9260
  756MOL0     H 2052  10.628   3.788   6.951  0.2621 -0.8056 -0.5465
  756MOL0     H 2053  10.557   3.931   6.886 -2.0118  0.8945  0.4054
  756MOL0     H 2054  10.636   3.846   6.705 -1.9518  0.2912 -4.4325
  756MOL0     H 2055  10.480   3.795   6.684 -0.4811 -1.1796 -0.2648
  756MOL0     H 2056  10.605   3.605   6.609  1.5444 -1.7539  0.6561
  756MOL0     H 2057  10.561   3.554   6.777  3.3993 -1.9591  1.7832
  756MOL0     H 2058  10.967   3.589   6.835 -0.5347 -0.8878  0.9863
  756MOL0     H 2059  10.612   3.784   7.136 -0.4787 -2.3603 -1.6249
  756MOL0     H 2060  10.660   3.807   7.362  1.6272 -0.0347 -2.9716
  757MOL0     O 2061   2.407   1.958  10.368  0.0214  0.2494 -0.0093
  757MOL0     C 2062   2.375   1.883  10.277  1.0035  0.1215  0.0976
  757MOL0     O 2063   2.253   1.822  10.270 -0.0066  0.0129  0.0564
  757MOL0     C 2064   2.171   1.856  10.377  0.3029 -0.4060  0.9319
  757MOL0     C 2065   2.181   1.818  10.511  0.6593 -0.5000 -0.1000
  757MOL0     C 2066   2.087   1.839  10.608  0.6590 -0.5075  0.2690
  757MOL0     C 2067   1.970   1.906  10.565  0.1664  1.0527  0.3080
  757MOL0     O 2068   1.866   1.917  10.651 -0.4776  0.3766 -0.4283
  757MOL0     C 2069   1.892   2.002  10.766  0.1316  0.4146  0.2740
  757MOL0     C 2070   1.772   2.048  10.834  0.5922 -0.0113  0.1912
  757MOL0     C 2071   1.709   1.954  10.935 -0.4539  1.0844 -0.4061
  757MOL0     C 2072   1.597   2.024  11.012  0.0149  1.2339 -0.3646
  757MOL0     C 2073   1.639   2.115  11.125  0.4512 -0.7365 -0.3191
  757MOL0     C 2074   1.545   2.141  11.246  0.0898  0.2223  0.3762
  757MOL0     C 2075   1.547   2.277  11.308 -0.8036 -0.1623  0.8147
  757MOL0     C 2076   1.476   2.386  11.228 -0.3947  0.3504  0.7585
  757MOL0     N 2077   1.332   2.377  11.253 -0.3731 -0.8983  0.5423
  757MOL0     C 2078   1.237   2.359  11.154 -0.2108  0.4098 -0.3901
  757MOL0     C 2079   1.116   2.378  11.214 -0.8156  0.4451 -0.2018
  757MOL0     C 2080   0.982   2.379  11.138 -0.0527  0.2152 -0.0706
  757MOL0     C 2081   0.898   2.247  11.145  0.0987 -0.1809  0.1699
  757MOL0     C 2082   0.751   2.265  11.094  0.2507 -0.2113 -0.2644
  757MOL0     C 2083   0.680   2.126  11.075 -0.3597  0.3079 -0.1633
  757MOL0     O 2084   0.681   2.051  11.202  0.4307 -0.5650 -0.2647
  757MOL0     C 2085   0.572   2.075  11.283 -0.1098 -0.2602  0.0919
  757MOL0     C 2086   0.592   2.152  11.397 -0.2350 -0.7612 -0.6446
  757MOL0     C 2087   0.488   2.175  11.482  0.4004  0.3459 -0.6274
  757MOL0     C 2088   0.519   2.267  11.596 -0.6521  0.4605 -0.2237
  757MOL0     C 2089   0.360   2.113  11.467 -0.0048  0.1537 -0.0307
  757MOL0     C 2090   0.232   2.146  11.545  0.6746 -0.0283  0.9600
  757MOL0     O 2091   0.122   2.081  11.497  0.5114 -0.4381 -0.8822
  757MOL0     C 2092  -0.009   2.081  11.543 -0.7106 -0.4921 -0.2521
  757MOL0     C 2093  -0.113   2.019  11.468 -0.6496  0.1179 -0.0101
  757MOL0     C 2094  -0.235   2.001  11.522  0.4913 -0.0270  0.3817
  757MOL0     C 2095  -0.264   2.040  11.650 -0.1263 -0.6690  0.0238
  757MOL0     O 2096  -0.398   2.036  11.699  0.4978 -0.0924 -0.7042
  757MOL0     C 2097  -0.414   2.049  11.842 -0.3037 -0.2301 -0.0693
  757MOL0     C 2098  -0.528   1.976  11.904 -0.4393 -0.2069 -0.3732
  757MOL0     C 2099  -0.665   2.027  11.859 -1.2180 -0.2046 -0.2924
  757MOL0     C 2100  -0.777   1.977  11.957  0.2765  0.2910  0.0661
  757MOL0     C 2101  -0.922   2.009  11.919 -0.2158  0.1718  0.0867
  757MOL0     C 2102  -1.017   1.947  12.027  0.4646 -0.3002  0.6485
  757MOL0     C 2103  -1.164   1.975  11.996 -0.2229  0.0149  0.7262
  757MOL0     C 2104  -1.247   1.947  12.122  0.4199 -0.0871 -0.4138
  757MOL0    Cl 2105  -1.199   1.782  12.189 -0.2894  0.1287 -0.2759
  757MOL0     C 2106  -0.162   2.119  11.714  0.0153 -0.1459 -0.4799
  757MOL0     C 2107  -0.039   2.127  11.669  0.6154 -0.7168  0.2903
  757MOL0     O 2108   0.235   2.216  11.646 -0.0049  0.0071  0.0750
  757MOL0     C 2109   0.345   2.029  11.347 -0.2242  0.2315 -0.2410
  757MOL0     C 2110   0.450   2.007  11.260  0.1909  0.1036 -0.1025
  757MOL0     N 2111   1.147   2.400  11.340  0.3702 -0.2686 -0.1180
  757MOL0     N 2112   1.270   2.410  11.369  0.1049  0.4464 -0.7125
  757MOL0     C 2113   1.951   1.953  10.439 -0.5163  0.2523  0.7959
  757MOL0     C 2114   2.046   1.925  10.342  0.0354  0.4180  0.2003
  757MOL0     C 2115   2.465   1.860  10.169  0.2650  0.5396 -0.1857
  757MOL0     C 2116   2.422   1.817  10.046  0.1211  0.0701 -0.0509
  757MOL0     C 2117   2.516   1.790   9.947  0.9091 -0.2685  0.1123
  757MOL0     C 2118   2.656   1.800   9.965 -0.5083  0.0547 -0.5953
  757MOL0     O 2119   2.756   1.770   9.875  0.2141 -0.5921  0.1491
  757MOL0     C 2120   2.715   1.721   9.743 -1.0371  0.1430 -1.0989
  757MOL0     C 2121   2.837   1.635   9.695 -0.2622  0.9230  0.5858
  757MOL0     C 2122   2.940   1.728   9.628  0.1943 -0.1144  0.6874
  757MOL0     C 2123   3.072   1.655   9.610 -0.5943 -0.1668 -0.7985
  757MOL0     C 2124   3.172   1.749   9.554  0.4243 -0.0652 -0.1663
  757MOL0     C 2125   3.262   1.810   9.490  0.3032  0.4422  0.4824
  757MOL0     C 2126   2.698   1.847  10.087  0.2289 -0.1650  0.3004
  757MOL0     C 2127   2.605   1.889  10.185  0.0393  0.0927 -0.5579
  757MOL0     H 2128   2.264   1.763  10.553  2.0409  1.7282  0.2774
  757MOL0     H 2129   2.084   1.811  10.713  0.3810  0.9939  0.6851
  757MOL0     H 2130   1.960   1.957  10.839  4.1753  2.1248 -2.0945
  757MOL0     H 2131   1.936   2.090  10.719 -0.2891 -0.1857 -1.2937
  757MOL0     H 2132   1.816   2.131  10.890  2.0240 -2.2980  2.6966
  757MOL0     H 2133   1.702   2.084  10.758  1.1161 -1.3048 -0.9386
  757MOL0     H 2134   1.678   1.867  10.876  2.4268  1.1797 -2.2757
  757MOL0     H 2135   1.780   1.911  11.006 -3.1947 -1.7128  0.9141
  757MOL0     H 2136   1.536   2.082  10.942 -0.1570  3.0157  1.2178
  757MOL0     H 2137   1.530   1.946  11.050  0.4584  1.0683  0.0793
  757MOL0     H 2138   1.732   2.084  11.174  0.2213  1.5898  1.7602
  757MOL0     H 2139   1.653   2.214  11.081  1.5646  0.8352  3.2129
  757MOL0     H 2140   1.443   2.125  11.210  0.3748 -3.2473  0.7418
  757MOL0     H 2141   1.558   2.076  11.333  0.4036  2.6484  2.2156
  757MOL0     H 2142   1.506   2.258  11.408  0.0651 -1.0150  1.0235
  757MOL0     H 2143   1.654   2.295  11.324 -1.0221  4.6668 -1.4365
  757MOL0     H 2144   1.491   2.382  11.120  0.3892 -1.9611  0.9109
  757MOL0     H 2145   1.511   2.481  11.268  6.4556 -1.2843 -0.1358
  757MOL0     H 2146   1.255   2.349  11.047 -2.2447  0.6154 -0.7794
  757MOL0     H 2147   0.927   2.455  11.194  1.0570  1.0594 -0.0814
  757MOL0     H 2148   0.985   2.399  11.030 -1.8363 -0.2729 -0.2462
  757MOL0     H 2149   0.892   2.200  11.243  2.5897 -3.0426 -0.8982
  757MOL0     H 2150   0.958   2.179  11.084 -0.6624  0.9510 -1.9811
  757MOL0     H 2151   0.762   2.316  10.998  1.3075 -2.0991 -1.2047
  757MOL0     H 2152   0.703   2.330  11.168  0.1490 -0.6742  0.0807
  757MOL0     H 2153   0.748   2.073  11.007  0.6010 -2.0484  2.4351
  757MOL0     H 2154   0.577   2.146  11.044 -1.2772 -1.9787  1.1606
  757MOL0     H 2155   0.692   2.189  11.411 -1.6328  3.7022 -0.8773
  757MOL0     H 2156   0.624   2.295  11.611 -0.5470 -0.0831  0.1062
  757MOL0     H 2157   0.459   2.358  11.585  0.4634  1.1824 -0.5366
  757MOL0     H 2158   0.486   2.234  11.695 -1.9517  0.8649 -0.5018
  757MOL0     H 2159  -0.098   2.001  11.362 -1.4914 -2.2604  0.2153
  757MOL0     H 2160  -0.316   1.957  11.464  1.1006  0.1995 -0.6766
  757MOL0     H 2161  -0.333   1.995  11.892 -0.9744 -0.5301  0.7031
  757MOL0     H 2162  -0.416   2.158  11.852 -2.4321  0.0075 -2.0107
  757MOL0     H 2163  -0.532   1.870  11.875  0.8194 -0.8814  1.7124
  757MOL0     H 2164  -0.520   1.978  12.013 -6.7137  0.9545  0.4968
  757MOL0     H 2165  -0.673   2.005  11.752  1.9723  0.7768 -0.8328
  757MOL0     H 2166  -0.679   2.135  11.866 -1.7600 -0.3324  0.9483
  757MOL0     H 2167  -0.765   1.868  11.967 -2.7820  0.0492  2.8334
  757MOL0     H 2168  -0.773   2.016  12.059 -2.9663 -4.3030  2.3454
  757MOL0     H 2169  -0.953   1.970  11.821 -1.2110  0.8545  0.1125
  757MOL0     H 2170  -0.924   2.117  11.903  0.9896  0.0178 -1.1825
  757MOL0     H 2171  -0.998   1.839  12.023  0.1676 -0.4514  2.5472
  757MOL0     H 2172  -0.999   1.996  12.123  0.5451  0.0577  0.4532
  757MOL0     H 2173  -1.197   1.911  11.913 -0.8238  1.1380  0.0725
  757MOL0     H 2174  -1.179   2.077  11.959  0.9166  0.5200  1.6100
  757MOL0     H 2175  -1.351   1.946  12.089  1.3063 -1.1348 -3.4947
  757MOL0     H 2176  -1.230   2.025  12.197 -3.6889  0.2154  0.4503
  757MOL0     H 2177  -0.179   2.179  11.803  0.4603  0.3637 -0.7361
  757MOL0     H 2178   0.030   2.170  11.740  0.3953 -3.3274  2.2363
  757MOL0     H 2179   0.248   1.983  11.330  0.9545 -2.1185 -1.0560
  757MOL0     H 2180   0.441   1.945  11.171  1.1035  0.0336 -0.1520
  757MOL0     H 2181   1.867   2.015  10.410 -0.2193  0.0831 -0.4883
  757MOL0     H 2182   2.011   1.957  10.244  1.7996 -0.4913 -0.7862
  757MOL0     H 2183   2.314   1.824  10.033  0.3541  2.6747 -1.0133
  757MOL0     H 2184   2.468   1.765   9.853  3.4973 -1.2673 -1.0382
  757MOL0     H 2185   2.627   1.658   9.756 -0.6866  0.1337  1.9344
  757MOL0     H 2186   2.704   1.817   9.692  0.3449  3.3001  3.7563
  757MOL0     H 2187   2.812   1.548   9.635  0.1306  1.7042 -0.7459
  757MOL0     H 2188   2.880   1.591   9.786  0.8094 -0.2112 -0.4347
  757MOL0     H 2189   2.948   1.824   9.679  1.4054  0.0808  0.1620
  757MOL0     H 2190   2.907   1.744   9.525 -0.3176  2.2579  1.1743
  757MOL0     H 2191   3.067   1.569   9.543 -0.3094 -0.5916 -0.2766
  757MOL0     H 2192   3.109   1.619   9.706 -3.6891  1.0839  0.9963
  757MOL0     H 2193   3.325   1.861   9.420 -1.0162 -0.4573 -1.4376
  757MOL0     H 2194   2.805   1.858  10.101  0.2766  0.9791 -0.7826
  757MOL0     H 2195   2.645   1.908  10.284  1.0385  0.0208 -0.9344
  758MOL0     O 2196   3.573   8.060   4.293  0.3058 -0.1952  0.2056
  758MOL0     C 2197   3.572   8.176   4.245 -0.9387  0.7803  0.7432
  758MOL0     O 2198   3.460   8.251   4.223  0.0897 -0.2968  0.4510
  758MOL0     C 2199   3.337   8.186   4.242 -0.0869  0.3200 -0.4952
  758MOL0     C 2200   3.290   8.132   4.122 -0.5689 -0.0138  0.6100
  758MOL0     C 2201   3.162   8.064   4.115 -0.4099 -0.3608 -0.2517
  758MOL0     C 2202   3.095   8.033   4.235 -0.1701  0.4929  0.8771
  758MOL0     O 2203   2.987   7.956   4.224  0.2446  0.0557 -0.9036
  758MOL0     C 2204   2.883   7.972   4.325  0.6252 -0.2215  0.5032
  758MOL0     C 2205   2.768   7.905   4.263  0.4311  0.5616 -0.1698
  758MOL0     C 2206   2.651   7.883   4.363 -0.6335  0.3170 -0.4474
  758MOL0     C 2207   2.531   7.843   4.272  0.5527  0.3944 -0.2090
  758MOL0     C 2208   2.394   7.821   4.347  0.1174  0.6964  0.6880
  758MOL0     C 2209   2.284   7.770   4.249  0.8146  0.1152  0.3745
  758MOL0     C 2210   2.157   7.760   4.335 -0.1606 -0.4214 -0.2249
  758MOL0     C 2211   2.035   7.745   4.241 -0.2723  0.8551  0.8630
  758MOL0     N 2212   1.914   7.788   4.298 -0.3407 -0.3248 -0.3271
  758MOL0     C 2213   1.872   7.918   4.309 -0.5956  0.2719 -0.5322
  758MOL0     C 2214   1.759   7.910   4.380  1.0424 -0.0728  0.5892
  758MOL0     C 2215   1.684   8.026   4.460  0.0737 -0.4557  1.2519
  758MOL0     C 2216   1.749   8.166   4.453 -0.2506  1.1204  0.3807
  758MOL0     C 2217   1.651   8.271   4.504 -1.0986  0.4499 -0.4278
  758MOL0     C 2218   1.623   8.258   4.655 -0.1193  0.5760  0.6430
  758MOL0     O 2219   1.526   8.354   4.696  0.4756  0.3381  0.2598
  758MOL0     C 2220   1.548   8.429   4.812 -0.2600  0.0151 -0.7605
  758MOL0     C 2221   1.621   8.384   4.925 -0.6726 -0.0154  0.2394
  758MOL0     C 2222   1.633   8.461   5.041  0.1034  0.9603 -0.4084
  758MOL0     C 2223   1.700   8.397   5.160  0.0554  0.0898  1.1378
  758MOL0     C 2224   1.592   8.595   5.040  1.0061 -0.6372 -0.5093
  758MOL0     C 2225   1.612   8.684   5.158  0.1555 -0.0716  0.1569
  758MOL0     O 2226   1.500   8.732   5.208 -0.2270  0.2509 -0.2335
  758MOL0     C 2227   1.503   8.757   5.350  0.1033  0.6768 -0.4339
  758MOL0     C 2228   1.552   8.875   5.404  0.0112  0.1564  0.2954
  758MOL0     C 2229   1.530   8.904   5.539 -0.3578  0.2414 -0.0043
  758MOL0     C 2230   1.457   8.811   5.620  0.0565 -0.1452 -0.0006
  758MOL0     O 2231   1.413   8.867   5.735  0.8725  0.3659  0.4167
  758MOL0     C 2232   1.425   8.788   5.852  0.0408 -0.5901 -1.1295
  758MOL0     C 2233   1.371   8.865   5.970 -0.1957 -0.0308 -0.5970
  758MOL0     C 2234   1.414   8.817   6.122  0.5784  0.7146  1.1880
  758MOL0     C 2235   1.352   8.889   6.240  0.9091 -0.3290 -0.0064
  758MOL0     C 2236   1.410   9.027   6.260  0.0877  0.2272 -0.0052
  758MOL0     C 2237   1.381   9.092   6.404  0.1263  1.9862  0.2350
  758MOL0     C 2238   1.420   9.241   6.392 -0.8389 -0.3857 -0.5392
  758MOL0     C 2239   1.569   9.266   6.410  0.5316  0.6285  0.3263
  758MOL0    Cl 2240   1.586   9.435   6.445  0.4869  0.4144  0.2935
  758MOL0     C 2241   1.421   8.686   5.572 -0.0543  0.1775  0.1723
  758MOL0     C 2242   1.445   8.660   5.434 -0.4042 -0.3509  0.1577
  758MOL0     O 2243   1.719   8.715   5.190 -0.3851 -0.5099  0.3360
  758MOL0     C 2244   1.520   8.640   4.931 -0.2257  0.6333  0.4175
  758MOL0     C 2245   1.494   8.559   4.821 -0.8987  0.5417  0.8248
  758MOL0     N 2246   1.732   7.776   4.401  0.5747 -0.7456  0.7550
  758MOL0     N 2247   1.828   7.705   4.351  0.3058  0.2240 -0.5739
  758MOL0     C 2248   3.153   8.068   4.360 -0.7171  0.3503  0.4834
  758MOL0     C 2249   3.267   8.163   4.360 -0.0861 -0.3258 -0.2484
  758MOL0     C 2250   3.701   8.251   4.224 -0.1643 -0.4294 -0.5225
  758MOL0     C 2251   3.696   8.390   4.191 -0.2501  0.5796 -0.5514
  758MOL0     C 2252   3.820   8.459   4.201  0.3972 -0.4251 -0.2843
  758MOL0     C 2253   3.938   8.392   4.238  0.8677 -1.0111  0.3013
  758MOL0     O 2254   4.054   8.466   4.225 -0.2500 -0.4414  0.6330
  758MOL0     C 2255   4.176   8.389   4.213 -0.4134 -0.2065 -1.1736
  758MOL0     C 2256   4.287   8.493   4.188 -0.1526 -0.7151  0.0818
  758MOL0     C 2257   4.278   8.630   4.269  0.0790  0.6548 -0.1907
  758MOL0     C 2258   4.423   8.688   4.281  0.3898  0.2389  1.4100
  758MOL0     C 2259   4.436   8.790   4.382  0.2591 -0.8950 -0.3930
  758MOL0     C 2260   4.428   8.855   4.483  0.2072  0.1630 -0.4409
  758MOL0     C 2261   3.937   8.254   4.258 -0.2443 -0.2339 -0.5717
  758MOL0     C 2262   3.818   8.191   4.266  0.6341 -0.0336  0.3865
  758MOL0     H 2263   3.330   8.152   4.023 -0.2793  3.7924  1.3232
  758MOL0     H 2264   3.107   8.052   4.022  0.1630  0.4860 -0.7080
  758MOL0     H 2265   2.916   7.913   4.411  0.9377 -1.4807 -0.4495
  758MOL0     H 2266   2.852   8.073   4.352  1.4736  0.6239 -1.5176
  758MOL0     H 2267   2.744   7.955   4.169  0.4121 -0.7863 -0.9142
  758MOL0     H 2268   2.791   7.800   4.242 -1.0898  0.3818 -1.0623
  758MOL0     H 2269   2.666   7.801   4.435  0.3893  0.7363 -0.1615
  758MOL0     H 2270   2.631   7.971   4.424  0.1878 -0.6909  1.3666
  758MOL0     H 2271   2.513   7.917   4.193  0.1851  0.3550 -0.1668
  758MOL0     H 2272   2.553   7.748   4.223  2.1984  0.1873  0.8501
  758MOL0     H 2273   2.422   7.742   4.417 -1.5682 -1.3245 -0.7715
  758MOL0     H 2274   2.363   7.916   4.391 -1.3817  0.6202 -0.1290
  758MOL0     H 2275   2.289   7.820   4.152  1.5485  1.8939  1.2957
  758MOL0     H 2276   2.314   7.668   4.223 -0.5467 -0.0648 -0.6475
  758MOL0     H 2277   2.163   7.685   4.414  2.6456 -0.0121  0.0408
  758MOL0     H 2278   2.139   7.859   4.379 -1.3379 -1.7447  2.5347
  758MOL0     H 2279   2.014   7.639   4.220 -3.3989  1.1876  1.8614
  758MOL0     H 2280   2.059   7.806   4.153 -0.4611  1.7461  1.4197
  758MOL0     H 2281   1.917   8.012   4.277  0.7399 -0.8601 -2.1389
  758MOL0     H 2282   1.589   8.038   4.407  0.9903  0.5317 -0.2031
  758MOL0     H 2283   1.678   7.991   4.564  1.4746  0.2510  1.5970
  758MOL0     H 2284   1.784   8.193   4.353  0.8208  0.8649  0.6810
  758MOL0     H 2285   1.837   8.163   4.518  1.0165 -1.3047 -1.2950
  758MOL0     H 2286   1.565   8.274   4.437 -0.3291  0.7631 -1.4252
  758MOL0     H 2287   1.705   8.364   4.482  2.3260 -1.0293  0.8876
  758MOL0     H 2288   1.715   8.280   4.710  1.5294 -0.4629 -1.5395
  758MOL0     H 2289   1.604   8.153   4.681  0.4997  0.0512 -0.9210
  758MOL0     H 2290   1.673   8.288   4.927  3.6192  1.9228 -2.6846
  758MOL0     H 2291   1.634   8.403   5.248 -0.0634 -0.1596  1.0676
  758MOL0     H 2292   1.716   8.292   5.132 -0.4536  0.6759 -1.6905
  758MOL0     H 2293   1.795   8.448   5.177 -0.0520  1.3809 -1.5940
  758MOL0     H 2294   1.598   8.950   5.341  0.9906  0.9221  1.8743
  758MOL0     H 2295   1.566   8.996   5.583  1.6275 -0.0413 -0.9182
  758MOL0     H 2296   1.381   8.689   5.867 -0.1949 -0.0469  3.2228
  758MOL0     H 2297   1.532   8.765   5.864 -0.0136 -0.9053 -1.2358
  758MOL0     H 2298   1.410   8.965   5.952 -3.4065  1.1749 -1.3545
  758MOL0     H 2299   1.262   8.866   5.976 -0.1670  1.9066  0.3922
  758MOL0     H 2300   1.522   8.816   6.143  0.7441 -0.4350  0.3801
  758MOL0     H 2301   1.389   8.710   6.130 -0.4783  0.4128 -3.3214
  758MOL0     H 2302   1.244   8.896   6.224  0.6281  0.4168  2.0093
  758MOL0     H 2303   1.363   8.834   6.334  1.7838 -1.2693 -0.6354
  758MOL0     H 2304   1.364   9.083   6.179  2.4196 -0.6592 -2.0584
  758MOL0     H 2305   1.517   9.019   6.238  0.2307 -0.8166  0.9495
  758MOL0     H 2306   1.276   9.084   6.431  0.3611  2.4748  1.3492
  758MOL0     H 2307   1.429   9.041   6.488 -1.4434  1.6455  0.9516
  758MOL0     H 2308   1.361   9.291   6.468  0.0265 -0.8070  0.4297
  758MOL0     H 2309   1.386   9.284   6.297  1.4223  1.6375 -0.5444
  758MOL0     H 2310   1.628   9.241   6.321 -0.4924 -1.3741  0.1458
  758MOL0     H 2311   1.613   9.208   6.491 -0.4291  1.8199  1.7470
  758MOL0     H 2312   1.360   8.620   5.633  0.0633  0.9104  1.0945
  758MOL0     H 2313   1.422   8.562   5.394  0.0366  0.0144 -1.0256
  758MOL0     H 2314   1.513   8.748   4.918  0.5762  0.5356 -1.1354
  758MOL0     H 2315   1.444   8.595   4.732  0.9464 -1.3811 -1.1360
  758MOL0     H 2316   3.121   8.022   4.453  1.9695 -0.0681  1.2990
  758MOL0     H 2317   3.303   8.194   4.458  1.9209  0.8487 -1.2694
  758MOL0     H 2318   3.606   8.444   4.163  2.5679  5.1822 -1.7811
  758MOL0     H 2319   3.832   8.564   4.178 -0.8784 -0.1151  0.3799
  758MOL0     H 2320   4.184   8.345   4.312 -1.8643  2.0356  0.0168
  758MOL0     H 2321   4.170   8.310   4.137 -6.8978 -4.5566  2.8868
  758MOL0     H 2322   4.291   8.509   4.079  0.9093  2.2183  0.4713
  758MOL0     H 2323   4.383   8.440   4.191 -0.2306 -1.3590 -3.6575
  758MOL0     H 2324   4.233   8.609   4.367  2.6473 -0.6300  0.8019
  758MOL0     H 2325   4.208   8.695   4.216 -1.3502  1.0056  1.9785
  758MOL0     H 2326   4.452   8.735   4.186 -1.6462 -1.3376 -0.0841
  758MOL0     H 2327   4.500   8.611   4.294  0.1124  0.1568  2.6843
  758MOL0     H 2328   4.418   8.924   4.565 -1.0616  0.6223 -0.9684
  758MOL0     H 2329   4.029   8.201   4.282  0.9700  1.8209 -0.4399
  758MOL0     H 2330   3.817   8.088   4.302 -1.2440 -0.3433 -0.4126
  759MOL0     O 2331  11.007   5.221  10.852 -0.0441 -0.1757  0.2929
  759MOL0     C 2332  10.997   5.318  10.926  0.3132  0.5898 -1.3961
  759MOL0     O 2333  10.876   5.348  10.995 -0.1686 -0.3386 -0.2234
  759MOL0     C 2334  10.768   5.261  10.989  0.4391 -0.2197  0.2029
  759MOL0     C 2335  10.773   5.124  10.978 -0.1520  0.0495 -0.2129
  759MOL0     C 2336  10.653   5.053  10.956 -1.3412  0.1194  0.0426
  759MOL0     C 2337  10.530   5.110  10.961  0.7718 -0.0041 -0.2052
  759MOL0     O 2338  10.424   5.024  10.929 -0.6335 -0.4612 -0.5556
  759MOL0     C 2339  10.302   5.060  10.993  1.1748  0.9823 -1.0805
  759MOL0     C 2340  10.187   4.963  10.963 -0.1883  0.1598  0.4868
  759MOL0     C 2341  10.142   4.978  10.816  0.1498  0.6211 -0.2267
  759MOL0     C 2342  10.006   4.901  10.773 -0.0111  0.4108  0.4293
  759MOL0     C 2343  10.040   4.773  10.693  0.0189 -0.0844 -1.1054
  759MOL0     C 2344   9.918   4.687  10.649 -0.3463  0.0716  0.0897
  759MOL0     C 2345   9.817   4.759  10.554 -0.1059 -0.0077  0.6170
  759MOL0     C 2346   9.777   4.657  10.441 -0.2977  0.3490 -0.7339
  759MOL0     N 2347   9.652   4.696  10.381  0.5817 -0.4883  0.0944
  759MOL0     C 2348   9.532   4.647  10.416  0.9793  0.0060 -0.4073
  759MOL0     C 2349   9.447   4.701  10.337  0.0057 -1.0063  0.2508
  759MOL0     C 2350   9.297   4.690  10.331 -0.0748  0.3574 -0.6785
  759MOL0     C 2351   9.242   4.609  10.457 -0.6775  0.3776  0.0603
  759MOL0     C 2352   9.093   4.590  10.442 -0.5126  0.2266 -0.8039
  759MOL0     C 2353   9.033   4.522  10.565  0.3362  0.0573 -0.7655
  759MOL0     O 2354   8.890   4.488  10.562 -0.1175  0.0935 -0.2458
  759MOL0     C 2355   8.857   4.380  10.485 -0.1253  0.7308 -0.4324
  759MOL0     C 2356   8.726   4.335  10.481 -0.1962 -0.3168  0.7945
  759MOL0     C 2357   8.680   4.235  10.393 -0.1200  0.5201 -0.4838
  759MOL0     C 2358   8.530   4.236  10.381  0.0520  0.8105  0.8047
  759MOL0     C 2359   8.777   4.147  10.332 -0.2951  0.8591 -0.0658
  759MOL0     C 2360   8.744   4.030  10.257  0.7602 -0.7438 -0.6317
  759MOL0     O 2361   8.616   3.986  10.257  0.1577  0.4124  0.6204
  759MOL0     C 2362   8.598   3.870  10.189  0.9323  0.3506  0.2262
  759MOL0     C 2363   8.621   3.743  10.247 -0.3264  1.0057 -0.3909
  759MOL0     C 2364   8.620   3.626  10.172  0.6785 -0.3258 -0.5999
  759MOL0     C 2365   8.602   3.640  10.033  0.4755 -0.4700  0.4586
  759MOL0     O 2366   8.576   3.542   9.946  0.1223 -0.3997  0.1646
  759MOL0     C 2367   8.605   3.407   9.980  0.3982  0.0202  1.2961
  759MOL0     C 2368   8.547   3.318   9.869 -0.4207 -0.4279 -0.5549
  759MOL0     C 2369   8.576   3.175   9.907 -0.4195 -0.7142 -0.1002
  759MOL0     C 2370   8.576   3.087   9.785  0.6703  0.1197  0.3426
  759MOL0     C 2371   8.592   2.943   9.810  0.2280 -0.1443  0.2522
  759MOL0     C 2372   8.635   2.881   9.679  0.2934  0.3435 -0.6845
  759MOL0     C 2373   8.782   2.909   9.645 -0.4053 -0.5425 -0.7493
  759MOL0     C 2374   8.835   2.801   9.555  0.6698 -1.6554  0.8195
  759MOL0    Cl 2375   9.010   2.844   9.526 -0.4560 -0.3616 -0.1787
  759MOL0     C 2376   8.567   3.766   9.973  0.2540 -0.4116 -0.3475
  759MOL0     C 2377   8.573   3.876  10.053  1.0361 -0.0664  0.3248
  759MOL0     O 2378   8.840   3.978  10.195  0.1087 -0.2033 -0.3093
  759MOL0     C 2379   8.913   4.190  10.338  0.4328  0.9703  0.1652
  759MOL0     C 2380   8.954   4.299  10.415 -0.4652 -0.5220  0.3319
  759MOL0     N 2381   9.517   4.768  10.241  0.1012  0.7932 -0.0996
  759MOL0     N 2382   9.646   4.760  10.262  0.1205 -0.1068 -0.2281
  759MOL0     C 2383  10.521   5.245  10.977 -0.6359 -0.1599  0.0627
  759MOL0     C 2384  10.643   5.324  10.987  0.0306  0.6963  1.0726
  759MOL0     C 2385  11.110   5.407  10.946 -0.5831 -0.5856 -0.6490
  759MOL0     C 2386  11.101   5.524  11.030 -0.5341  0.5806  0.9432
  759MOL0     C 2387  11.210   5.606  11.040 -0.8617  0.2395 -0.1549
  759MOL0     C 2388  11.337   5.576  10.971  0.8152  0.4065  0.1649
  759MOL0     O 2389  11.445   5.662  10.972 -0.0496 -0.5430 -0.4143
  759MOL0     C 2390  11.447   5.760  11.075  0.2718 -0.7912  0.6484
  759MOL0     C 2391  11.591   5.810  11.088  0.5271  0.2149  0.3614
  759MOL0     C 2392  11.607   5.896  11.208  0.1140  0.2503  0.2356
  759MOL0     C 2393  11.745   5.964  11.211 -0.3648  0.0606 -1.1267
  759MOL0     C 2394  11.771   6.058  11.100 -1.1015  0.1782  0.5894
  759MOL0     C 2395  11.783   6.115  10.993 -0.6707  0.2313 -0.7098
  759MOL0     C 2396  11.335   5.468  10.885 -0.4860 -0.0416 -0.6244
  759MOL0     C 2397  11.226   5.384  10.864  0.2028  0.1878 -0.3703
  759MOL0     H 2398  10.871   5.078  10.984  1.2238  2.9464  3.1057
  759MOL0     H 2399  10.661   4.946  10.939 -0.0799  0.3339 -0.8234
  759MOL0     H 2400  10.322   5.080  11.098 -1.0678 -0.2485 -0.3543
  759MOL0     H 2401  10.267   5.158  10.958 -2.1400  0.5355  0.5713
  759MOL0     H 2402  10.212   4.860  10.989  3.4380  0.7645 -0.1414
  759MOL0     H 2403  10.100   4.985  11.026 -1.7141  0.7234 -1.6588
  759MOL0     H 2404  10.123   5.083  10.796  1.2664  0.8886  0.0134
  759MOL0     H 2405  10.226   4.941  10.756  0.8120 -2.0954  2.1131
  759MOL0     H 2406   9.936   4.882  10.855 -1.6826  0.0682 -1.0024
  759MOL0     H 2407   9.954   4.971  10.707 -5.1521  0.3945  3.9034
  759MOL0     H 2408  10.096   4.799  10.603  0.6752  0.3922 -0.5656
  759MOL0     H 2409  10.109   4.719  10.758  1.6483  1.8701 -1.0931
  759MOL0     H 2410   9.956   4.598  10.598 -2.5929 -0.2555 -1.1490
  759MOL0     H 2411   9.854   4.650  10.729 -3.8432  0.6765 -2.1953
  759MOL0     H 2412   9.734   4.809  10.605 -0.7377 -0.5245  0.1189
  759MOL0     H 2413   9.872   4.839  10.503  0.4719 -1.1216 -0.5420
  759MOL0     H 2414   9.777   4.562  10.495  1.8178  1.3478  1.1862
  759MOL0     H 2415   9.852   4.647  10.362  1.2794  2.3953  0.4282
  759MOL0     H 2416   9.514   4.567  10.486  6.0435 -2.9019 -1.8792
  759MOL0     H 2417   9.265   4.795  10.334 -0.2396  0.3527 -1.8934
  759MOL0     H 2418   9.265   4.648  10.236 -0.8749 -0.3328 -0.1101
  759MOL0     H 2419   9.266   4.667  10.546 -0.7362  0.8624 -0.2367
  759MOL0     H 2420   9.296   4.514  10.460 -2.3810 -0.6142  1.4592
  759MOL0     H 2421   9.068   4.536  10.350 -0.8906  0.9981 -1.1622
  759MOL0     H 2422   9.047   4.689  10.445 -3.3646 -0.9791 -1.7525
  759MOL0     H 2423   9.038   4.580  10.658 -0.8521  0.6691 -1.0565
  759MOL0     H 2424   9.092   4.433  10.588 -1.2567 -0.5474  1.2624
  759MOL0     H 2425   8.646   4.385  10.534 -0.4861  0.6001 -0.4726
  759MOL0     H 2426   8.497   4.340  10.387  1.0898  1.1240  1.5538
  759MOL0     H 2427   8.495   4.190  10.289  1.3137 -1.8876  1.5656
  759MOL0     H 2428   8.489   4.183  10.467 -2.8833  2.7047  0.6797
  759MOL0     H 2429   8.643   3.734  10.353  2.1609 -1.4085 -0.9904
  759MOL0     H 2430   8.649   3.533  10.220  2.2165  0.1058 -0.6458
  759MOL0     H 2431   8.708   3.391  10.013  0.0811  0.5473  2.5782
  759MOL0     H 2432   8.554   3.376  10.071 -0.4773 -0.1578  0.7608
  759MOL0     H 2433   8.440   3.339   9.867 -0.1420  1.1600 -2.5906
  759MOL0     H 2434   8.582   3.341   9.768  1.8515  0.9592  0.4511
  759MOL0     H 2435   8.497   3.134   9.971 -2.6640  0.8310 -1.7121
  759MOL0     H 2436   8.673   3.180   9.956 -1.1489  1.3555  1.2899
  759MOL0     H 2437   8.475   3.099   9.744 -0.4218  1.9359  3.2497
  759MOL0     H 2438   8.649   3.122   9.712  0.4319  0.7114  0.3861
  759MOL0     H 2439   8.504   2.885   9.839  1.0687 -3.2051 -2.7156
  759MOL0     H 2440   8.672   2.939   9.885  2.7374 -0.4142 -2.2749
  759MOL0     H 2441   8.626   2.774   9.703  0.6996  0.5070  0.2294
  759MOL0     H 2442   8.563   2.908   9.602 -2.5862 -0.6747  1.4528
  759MOL0     H 2443   8.834   2.905   9.741 -1.7507  0.2259  0.0392
  759MOL0     H 2444   8.801   3.003   9.591  2.8894 -0.4168  0.4038
  759MOL0     H 2445   8.784   2.805   9.459 -0.1388  2.4546  1.2643
  759MOL0     H 2446   8.812   2.706   9.606  0.5752  0.0139  4.1970
  759MOL0     H 2447   8.551   3.778   9.867 -0.8602  1.1765 -0.0230
  759MOL0     H 2448   8.561   3.981  10.029 -1.8843  0.4404  3.2280
  759MOL0     H 2449   8.991   4.126  10.299 -0.9588 -1.6852  1.5059
  759MOL0     H 2450   9.063   4.303  10.415 -0.1967 -4.2393  1.0918
  759MOL0     H 2451  10.425   5.296  10.969 -0.4487 -0.0188 -1.7869
  759MOL0     H 2452  10.635   5.431  10.977 -1.6969  0.6804  1.8167
  759MOL0     H 2453  11.007   5.551  11.077 -1.2018 -1.4287  0.8283
  759MOL0     H 2454  11.189   5.691  11.103 -3.2306 -0.4112  0.0397
  759MOL0     H 2455  11.377   5.841  11.053  0.7565 -0.8462 -1.2473
  759MOL0     H 2456  11.424   5.709  11.169  2.6933  0.9601  2.3183
  759MOL0     H 2457  11.609   5.868  10.997 -0.5677  1.0166  0.6426
  759MOL0     H 2458  11.668   5.732  11.098  0.6542  0.1266 -0.9908
  759MOL0     H 2459  11.604   5.834  11.298  0.7992  1.2946  0.9956
  759MOL0     H 2460  11.531   5.974  11.206  1.3236  1.4682 -0.1987
  759MOL0     H 2461  11.819   5.884  11.200  1.4668  1.1729  1.8780
  759MOL0     H 2462  11.761   6.009  11.310 -0.5982 -1.8379 -0.1699
  759MOL0     H 2463  11.800   6.158  10.897 -0.6581 -2.2710 -1.9061
  759MOL0     H 2464  11.420   5.439  10.825  0.5473 -1.2370  1.3187
  759MOL0     H 2465  11.240   5.296  10.803 -1.5867 -0.4862  0.1317
  760MOL0     O 2466   2.897   6.185  10.262 -0.4163 -0.0184  0.7811
  760MOL0     C 2467   2.986   6.259  10.217 -0.1059  0.5025 -0.3885
  760MOL0     O 2468   2.985   6.398  10.217 -0.3784  0.1245 -0.8161
  760MOL0     C 2469   2.883   6.466  10.255  1.0109  0.4957 -0.5577
  760MOL0     C 2470   2.899   6.571  10.348  0.1977  0.7497 -0.1587
  760MOL0     C 2471   2.789   6.639  10.395 -0.0468 -0.9412  0.7469
  760MOL0     C 2472   2.663   6.597  10.360 -0.4699 -0.1598 -0.3364
  760MOL0     O 2473   2.571   6.656  10.439 -0.3835  0.0913  0.0269
  760MOL0     C 2474   2.443   6.598  10.456 -0.4856  0.5265 -0.3402
  760MOL0     C 2475   2.341   6.695  10.409  0.2861  0.0975 -0.4240
  760MOL0     C 2476   2.328   6.804  10.512  0.2358  0.2692 -0.6588
  760MOL0     C 2477   2.428   6.926  10.489  0.0342  0.6342 -0.4987
  760MOL0     C 2478   2.396   7.041  10.575  0.2723 -0.4777  0.0952
  760MOL0     C 2479   2.283   7.141  10.524  0.3666  0.2171 -0.4743
  760MOL0     C 2480   2.312   7.196  10.387 -0.0426 -0.0687 -0.0987
  760MOL0     C 2481   2.233   7.329  10.366  1.0023 -0.3433  0.5770
  760MOL0     N 2482   2.088   7.312  10.344  0.9568  0.2596 -0.1999
  760MOL0     C 2483   2.020   7.274  10.227 -0.1979 -0.3404 -0.7347
  760MOL0     C 2484   1.895   7.252  10.262  0.1452 -0.1936 -0.5849
  760MOL0     C 2485   1.779   7.193  10.178  0.3839  0.8615  0.2411
  760MOL0     C 2486   1.644   7.167  10.241  0.6990 -0.0409 -0.4610
  760MOL0     C 2487   1.530   7.116  10.140 -0.1898  0.1442  0.2594
  760MOL0     C 2488   1.395   7.101  10.212 -0.0347 -0.4655 -0.2076
  760MOL0     O 2489   1.303   7.058  10.113 -0.4374 -0.6422  0.6168
  760MOL0     C 2490   1.169   7.041  10.139 -0.1431  0.0782 -0.0369
  760MOL0     C 2491   1.095   6.951  10.064 -0.6557 -0.2152 -0.4448
  760MOL0     C 2492   0.954   6.934  10.091  1.8790  0.0813  0.3649
  760MOL0     C 2493   0.886   6.829  10.008  0.5027  0.0621 -0.8474
  760MOL0     C 2494   0.888   6.999  10.190 -0.3274  0.2902  0.1170
  760MOL0     C 2495   0.743   6.976  10.225 -0.8311 -0.4917 -0.1761
  760MOL0     O 2496   0.655   6.929  10.133  0.4627 -0.4922 -0.6300
  760MOL0     C 2497   0.523   6.935  10.177 -0.4825  0.2295 -0.1216
  760MOL0     C 2498   0.440   7.006  10.088  0.2123 -0.1046  0.2286
  760MOL0     C 2499   0.299   7.014  10.122 -0.7037 -0.7592  0.4787
  760MOL0     C 2500   0.244   6.958  10.241  0.3502 -0.6672  0.2377
  760MOL0     O 2501   0.108   6.965  10.263 -0.2426 -0.3365  0.2661
  760MOL0     C 2502   0.021   7.008  10.155  0.7007  0.9051  0.4373
  760MOL0     C 2503  -0.127   6.977  10.172 -0.5685 -0.0481  0.2664
  760MOL0     C 2504  -0.208   7.080  10.090  0.0734  0.1482 -0.5388
  760MOL0     C 2505  -0.357   7.078  10.132 -0.0359 -0.5819  0.2047
  760MOL0     C 2506  -0.454   7.135  10.027  0.2128 -0.1774  0.3880
  760MOL0     C 2507  -0.431   7.283   9.991 -0.9283  0.0576 -0.4047
  760MOL0     C 2508  -0.471   7.382  10.102  0.7118  0.1420  0.3555
  760MOL0     C 2509  -0.445   7.521  10.068 -0.1087 -1.0616 -0.1154
  760MOL0    Cl 2510  -0.521   7.634  10.181 -0.1990  0.1564 -0.2568
  760MOL0     C 2511   0.334   6.890  10.321 -0.0845  0.7853 -0.1735
  760MOL0     C 2512   0.476   6.881  10.298  0.5515  0.6478 -0.7109
  760MOL0     O 2513   0.713   7.019  10.340  0.0496 -0.4970  0.5172
  760MOL0     C 2514   0.961   7.081  10.272  0.0659  0.6354 -0.1803
  760MOL0     C 2515   1.102   7.101  10.251 -0.6955 -0.5710 -0.1768
  760MOL0     N 2516   1.884   7.280  10.396 -0.1727  0.5907 -0.5692
  760MOL0     N 2517   1.997   7.322  10.450  0.1442 -1.0231 -0.3603
  760MOL0     C 2518   2.648   6.489  10.276  0.1559 -1.2566  0.6257
  760MOL0     C 2519   2.756   6.441  10.204 -0.5047  0.6215  0.8439
  760MOL0     C 2520   3.107   6.199  10.160  0.4467  1.0009 -0.1069
  760MOL0     C 2521   3.095   6.070  10.097  0.0187 -0.0909  0.3138
  760MOL0     C 2522   3.211   6.008  10.041  0.0559 -0.7439 -0.0741
  760MOL0     C 2523   3.334   6.070  10.058 -0.1530  0.3430  0.6878
  760MOL0     O 2524   3.447   6.021  10.012  0.1891  1.1633  0.5826
  760MOL0     C 2525   3.456   5.887   9.951 -0.3638  0.1338 -0.3022
  760MOL0     C 2526   3.609   5.859   9.929 -0.6773 -0.0381 -0.3144
  760MOL0     C 2527   3.651   5.708   9.955  0.1418 -1.2051  0.4699
  760MOL0     C 2528   3.790   5.689   9.895 -0.0520 -0.4048 -0.2416
  760MOL0     C 2529   3.856   5.566   9.945  0.4861 -0.4236 -0.0548
  760MOL0     C 2530   3.918   5.489  10.013  0.2317 -0.7806 -0.3184
  760MOL0     C 2531   3.338   6.195  10.113 -0.1188  0.0185  0.5753
  760MOL0     C 2532   3.225   6.263  10.169  0.0625  0.6573 -0.6459
  760MOL0     H 2533   2.997   6.582  10.394  1.7299  0.9139 -3.2323
  760MOL0     H 2534   2.801   6.726  10.458  1.0037  1.2414 -2.2130
  760MOL0     H 2535   2.443   6.503  10.402  0.4408  0.1875  0.2314
  760MOL0     H 2536   2.433   6.569  10.560 -0.6661  0.7162 -0.3043
  760MOL0     H 2537   2.359   6.741  10.311 -3.5435  0.2998 -1.1670
  760MOL0     H 2538   2.245   6.642  10.406 -1.9504  3.7217  0.8079
  760MOL0     H 2539   2.226   6.841  10.526  1.0765  2.2473  0.6500
  760MOL0     H 2540   2.344   6.763  10.611  0.0982  0.0578 -0.7231
  760MOL0     H 2541   2.528   6.894  10.519 -0.0587  0.5031 -0.3275
  760MOL0     H 2542   2.422   6.941  10.381 -2.3743 -0.0440 -0.5245
  760MOL0     H 2543   2.365   6.994  10.668 -4.5889  1.0768 -0.4531
  760MOL0     H 2544   2.489   7.093  10.601  0.0649 -0.5057  0.9031
  760MOL0     H 2545   2.181   7.101  10.523  0.4739 -0.0910  0.1584
  760MOL0     H 2546   2.271   7.227  10.590 -1.7599  1.2267 -2.0406
  760MOL0     H 2547   2.416   7.215  10.359 -0.2012  0.0928 -0.6014
  760MOL0     H 2548   2.270   7.120  10.319 -1.6137  1.2755 -0.7012
  760MOL0     H 2549   2.276   7.391  10.287 -0.5539 -1.3662 -1.1334
  760MOL0     H 2550   2.240   7.389  10.457 -0.8329 -1.0064  1.1846
  760MOL0     H 2551   2.060   7.267  10.126  2.8693  0.8048  0.2777
  760MOL0     H 2552   1.763   7.261  10.094  0.1298  1.6315  0.9030
  760MOL0     H 2553   1.816   7.106  10.123  0.0100 -0.2849  1.7254
  760MOL0     H 2554   1.615   7.257  10.294  1.0641 -1.6312  2.6544
  760MOL0     H 2555   1.663   7.094  10.320  2.0839  0.9732  0.1965
  760MOL0     H 2556   1.565   7.022  10.096 -3.5550 -2.9830  3.4511
  760MOL0     H 2557   1.526   7.192  10.062 -0.0033  0.3523  0.4516
  760MOL0     H 2558   1.371   7.194  10.264  2.4909  0.5491 -0.7346
  760MOL0     H 2559   1.414   7.023  10.287 -1.4120 -0.1659  0.4699
  760MOL0     H 2560   1.146   6.886   9.993  1.2384 -0.7327  1.3122
  760MOL0     H 2561   0.803   6.875   9.953  1.0030  1.8493 -0.1858
  760MOL0     H 2562   0.955   6.783   9.937  1.1763 -2.5639  1.3229
  760MOL0     H 2563   0.844   6.741  10.058  1.4167  0.9479  1.6235
  760MOL0     H 2564   0.490   7.044  10.000  0.5034  2.6624  1.4861
  760MOL0     H 2565   0.235   7.070  10.055 -1.8544 -1.2253  1.1599
  760MOL0     H 2566   0.037   7.115  10.167  3.1948  0.4011  2.5146
  760MOL0     H 2567   0.041   6.966  10.055  2.2540  0.0560  1.0684
  760MOL0     H 2568  -0.169   6.877  10.157  0.7977 -0.9435  2.0513
  760MOL0     H 2569  -0.136   7.000  10.278  3.3113  1.6727  0.3963
  760MOL0     H 2570  -0.193   7.063   9.983  2.9617  2.2922 -0.6147
  760MOL0     H 2571  -0.181   7.185  10.107 -0.2911 -0.0814  1.7954
  760MOL0     H 2572  -0.375   6.978  10.172  1.7450  0.0298  2.7694
  760MOL0     H 2573  -0.365   7.140  10.221 -0.0770  1.4775 -1.1715
  760MOL0     H 2574  -0.560   7.123  10.054 -0.4393 -0.0170 -1.8863
  760MOL0     H 2575  -0.445   7.082   9.932 -1.5681 -1.1213  0.6926
  760MOL0     H 2576  -0.325   7.299   9.966 -1.5023 -0.9190 -3.8295
  760MOL0     H 2577  -0.497   7.310   9.909 -2.9035 -0.5146  0.9197
  760MOL0     H 2578  -0.418   7.347  10.191  0.5451 -3.6319 -0.8671
  760MOL0     H 2579  -0.575   7.364  10.131  1.1326 -3.3543  0.1257
  760MOL0     H 2580  -0.492   7.559   9.977  0.8395  2.1401  0.6076
  760MOL0     H 2581  -0.337   7.537  10.067 -0.4482  1.7931  0.0289
  760MOL0     H 2582   0.296   6.861  10.418  1.6866  2.1085  0.9829
  760MOL0     H 2583   0.538   6.842  10.378 -1.6982 -0.8929  0.3714
  760MOL0     H 2584   0.913   7.135  10.353  1.2617  0.4450  0.6964
  760MOL0     H 2585   1.157   7.170  10.314 -1.0595  1.7835 -2.2952
  760MOL0     H 2586   2.553   6.445  10.248  0.0416  0.6192 -2.4566
  760MOL0     H 2587   2.745   6.360  10.134 -1.5371  1.1811  0.3340
  760MOL0     H 2588   3.000   6.018  10.091 -0.0354 -0.3260  2.3660
  760MOL0     H 2589   3.202   5.924   9.972 -0.9871 -0.7457  0.0515
  760MOL0     H 2590   3.420   5.812  10.021  1.4962  0.3229  0.9348
  760MOL0     H 2591   3.411   5.885   9.851  0.7903  0.6172 -0.8502
  760MOL0     H 2592   3.670   5.927   9.989 -3.2385  0.0325  2.4713
  760MOL0     H 2593   3.627   5.872   9.822 -1.5226 -2.5380 -0.8448
  760MOL0     H 2594   3.581   5.638   9.908  0.5759 -0.0166 -2.0830
  760MOL0     H 2595   3.644   5.700  10.064  1.1771 -0.7006  0.5838
  760MOL0     H 2596   3.851   5.776   9.920 -0.5736  0.1919 -0.9762
  760MOL0     H 2597   3.786   5.676   9.786 -2.3167 -3.2517  0.0718
  760MOL0     H 2598   3.980   5.424  10.072 -0.6979  0.3755  2.0839
  760MOL0     H 2599   3.431   6.251  10.100 -1.7454  3.4550  2.3182
  760MOL0     H 2600   3.219   6.365  10.204 -1.7954  1.1990 -2.3277
  761MOL0     O 2601   7.084   6.071   3.932  0.6411  0.7637  0.7648
  761MOL0     C 2602   7.195   6.047   3.978 -0.8955 -0.2300 -0.4127
  761MOL0     O 2603   7.228   5.959   4.087  0.4105 -0.2346 -0.2392
  761MOL0     C 2604   7.126   5.914   4.161  0.5132 -0.0702  0.4089
  761MOL0     C 2605   7.048   6.002   4.235 -0.4640 -0.2073 -0.0057
  761MOL0     C 2606   6.931   5.955   4.299 -0.0603  0.5392 -1.3630
  761MOL0     C 2607   6.890   5.819   4.286 -0.2808 -0.4665 -0.2405
  761MOL0     O 2608   6.775   5.770   4.344 -0.6543 -0.8511  0.6578
  761MOL0     C 2609   6.798   5.663   4.441  0.1369 -0.6549 -0.0987
  761MOL0     C 2610   6.684   5.573   4.428  0.0597 -0.6747  0.4910
  761MOL0     C 2611   6.687   5.477   4.314 -0.0166  0.4284 -0.4064
  761MOL0     C 2612   6.573   5.382   4.309 -0.2422 -0.3247  0.2264
  761MOL0     C 2613   6.601   5.288   4.190 -1.4088  0.3505 -0.6570
  761MOL0     C 2614   6.478   5.192   4.174  0.4786  0.1138  0.1707
  761MOL0     C 2615   6.444   5.079   4.270  0.3649  0.7338  0.3925
  761MOL0     C 2616   6.562   4.977   4.280  0.0243 -0.1268 -0.3698
  761MOL0     N 2617   6.519   4.862   4.368  0.3363  0.8568 -0.2008
  761MOL0     C 2618   6.398   4.800   4.375  1.2406  0.4378 -0.4461
  761MOL0     C 2619   6.408   4.713   4.482 -0.3646 -0.3974  0.1582
  761MOL0     C 2620   6.296   4.633   4.535 -0.3299 -0.9566 -0.7553
  761MOL0     C 2621   6.266   4.680   4.679 -0.0510 -0.1333 -0.1488
  761MOL0     C 2622   6.169   4.795   4.662  0.4901 -0.4188  0.0708
  761MOL0     C 2623   6.144   4.885   4.781  0.7752 -1.0266 -0.2365
  761MOL0     O 2624   6.057   4.995   4.752  0.1197 -0.3676  0.5816
  761MOL0     C 2625   6.120   5.107   4.697 -0.5398  0.0330 -0.1683
  761MOL0     C 2626   6.224   5.175   4.763  0.1185 -0.7783  0.5117
  761MOL0     C 2627   6.281   5.297   4.710  0.2980  0.6987 -0.5555
  761MOL0     C 2628   6.387   5.360   4.804 -0.9213  0.1836 -0.2775
  761MOL0     C 2629   6.238   5.346   4.588 -0.4097 -0.8652  0.7477
  761MOL0     C 2630   6.305   5.467   4.522  0.1917  0.8829  0.0137
  761MOL0     O 2631   6.243   5.496   4.405  0.2527 -0.0086  0.1477
  761MOL0     C 2632   6.280   5.607   4.322 -0.6150  0.2294 -0.4121
  761MOL0     C 2633   6.322   5.729   4.374 -0.5564 -0.4539  0.2977
  761MOL0     C 2634   6.372   5.823   4.279  0.1763 -0.2955  0.1395
  761MOL0     C 2635   6.370   5.811   4.139 -0.5136 -0.5302  0.8403
  761MOL0     O 2636   6.402   5.906   4.046  0.1087 -0.8595 -0.4059
  761MOL0     C 2637   6.511   5.985   4.073 -1.2793  0.1975 -0.5445
  761MOL0     C 2638   6.649   5.904   4.063  0.2701  0.5457 -0.0661
  761MOL0     C 2639   6.679   5.897   3.911 -0.1523 -0.2195 -0.0602
  761MOL0     C 2640   6.825   5.891   3.887 -0.0476 -0.0030 -0.0768
  761MOL0     C 2641   6.855   5.867   3.743  0.2712  0.5546 -0.6384
  761MOL0     C 2642   6.812   5.984   3.655 -0.0158 -0.5169  0.2347
  761MOL0     C 2643   6.861   5.986   3.509  0.3234  0.0131  0.3192
  761MOL0     C 2644   6.862   5.843   3.451  0.2181  0.4413 -0.9447
  761MOL0    Cl 2645   6.903   5.864   3.281 -0.6070  0.2975  0.0703
  761MOL0     C 2646   6.314   5.689   4.094 -0.1999  0.1100 -0.5213
  761MOL0     C 2647   6.268   5.590   4.185 -0.2172 -0.3731  0.0916
  761MOL0     O 2648   6.408   5.513   4.564  0.4180 -0.6329  0.5348
  761MOL0     C 2649   6.128   5.282   4.524 -0.9168 -0.4013 -0.8035
  761MOL0     C 2650   6.072   5.166   4.580 -0.4307  0.4478  0.6134
  761MOL0     N 2651   6.543   4.714   4.529 -0.0445  0.3035 -0.7376
  761MOL0     N 2652   6.605   4.800   4.452  0.2387 -0.9351  0.1230
  761MOL0     C 2653   6.977   5.732   4.212  0.3880  1.2645 -0.5129
  761MOL0     C 2654   7.095   5.777   4.154 -0.7436  0.9554  0.6485
  761MOL0     C 2655   7.316   6.117   3.932  0.6222  0.9172 -0.2922
  761MOL0     C 2656   7.418   6.151   4.023  0.5292  0.1085 -1.4515
  761MOL0     C 2657   7.532   6.198   3.982 -0.5854  0.0074 -0.0313
  761MOL0     C 2658   7.562   6.202   3.843 -0.3903  0.8265 -0.3760
  761MOL0     O 2659   7.698   6.221   3.820  0.0601  0.4430 -0.0325
  761MOL0     C 2660   7.724   6.202   3.683 -0.3610 -0.3291  0.7003
  761MOL0     C 2661   7.875   6.227   3.659  0.8157 -0.7431 -0.3474
  761MOL0     C 2662   7.909   6.203   3.521 -0.0610 -0.7947  0.5551
  761MOL0     C 2663   8.034   6.271   3.478  0.2005 -0.3710 -0.5792
  761MOL0     C 2664   8.050   6.271   3.335 -0.1552  0.3547  0.8810
  761MOL0     C 2665   8.069   6.293   3.213 -0.5415  0.2985 -0.6484
  761MOL0     C 2666   7.466   6.168   3.745  0.8249 -0.1303 -0.2268
  761MOL0     C 2667   7.342   6.123   3.795  0.2660 -0.0708 -0.7486
  761MOL0     H 2668   7.086   6.103   4.228 -1.1332 -0.0296 -1.5210
  761MOL0     H 2669   6.870   6.019   4.363  1.2021  2.0804 -1.6131
  761MOL0     H 2670   6.891   5.608   4.425  0.6309 -0.9435  3.1338
  761MOL0     H 2671   6.792   5.700   4.544 -2.2095 -1.4717  0.1215
  761MOL0     H 2672   6.686   5.514   4.520 -0.0052  2.9709  3.0593
  761MOL0     H 2673   6.592   5.633   4.434  0.1926 -0.5765  1.7255
  761MOL0     H 2674   6.669   5.547   4.231 -0.5367 -2.5032 -2.9498
  761MOL0     H 2675   6.784   5.428   4.326  1.1089  2.4869 -0.6307
  761MOL0     H 2676   6.573   5.317   4.397  1.0156 -2.3242 -1.1527
  761MOL0     H 2677   6.473   5.423   4.293  0.6968  1.8195 -0.5240
  761MOL0     H 2678   6.616   5.352   4.102  2.3285 -1.0791 -1.2531
  761MOL0     H 2679   6.683   5.217   4.204 -0.5676  1.3795 -0.1901
  761MOL0     H 2680   6.387   5.246   4.147  0.7913  1.9947  2.5139
  761MOL0     H 2681   6.492   5.131   4.085 -2.0819  0.4911 -0.5753
  761MOL0     H 2682   6.423   5.125   4.367  0.4667  3.7633 -0.9095
  761MOL0     H 2683   6.348   5.032   4.245  1.3530 -1.7469  0.9241
  761MOL0     H 2684   6.644   5.033   4.325  0.6897 -1.7851  0.5682
  761MOL0     H 2685   6.571   4.932   4.181  2.2937 -1.9575  0.5756
  761MOL0     H 2686   6.316   4.809   4.306  0.1359  1.8688  0.9745
  761MOL0     H 2687   6.204   4.628   4.477  2.1982 -1.7179 -5.1889
  761MOL0     H 2688   6.331   4.529   4.533  1.3828 -0.4139 -1.2980
  761MOL0     H 2689   6.350   4.719   4.736  1.6189 -1.2349 -1.7492
  761MOL0     H 2690   6.215   4.605   4.739 -0.1484  1.6148  2.0812
  761MOL0     H 2691   6.073   4.752   4.630  0.6544  0.6097 -1.9176
  761MOL0     H 2692   6.196   4.870   4.588 -3.2304  2.1023  0.9698
  761MOL0     H 2693   6.230   4.916   4.841 -0.4135 -2.4277  2.3542
  761MOL0     H 2694   6.090   4.830   4.858 -0.1328  0.2310  0.0606
  761MOL0     H 2695   6.253   5.144   4.863  1.4088 -2.8487 -0.4118
  761MOL0     H 2696   6.395   5.306   4.899 -0.1552 -0.5708 -0.7610
  761MOL0     H 2697   6.487   5.376   4.764 -0.8569 -0.6511 -0.4833
  761MOL0     H 2698   6.355   5.460   4.832 -2.1276 -0.6711  1.6222
  761MOL0     H 2699   6.310   5.738   4.481 -1.2941 -4.2348  0.6849
  761MOL0     H 2700   6.394   5.920   4.323 -0.7746 -0.1572  0.3249
  761MOL0     H 2701   6.525   6.075   4.011 -0.0828  1.7181  1.7822
  761MOL0     H 2702   6.490   6.028   4.171 -3.2140  0.2928 -0.9673
  761MOL0     H 2703   6.722   5.961   4.120  0.5400  0.6929 -0.5613
  761MOL0     H 2704   6.630   5.800   4.092 -0.3672  0.1937 -1.5989
  761MOL0     H 2705   6.638   5.983   3.857  0.8170  0.5292  0.3547
  761MOL0     H 2706   6.648   5.800   3.870  2.1655 -0.1549 -2.2084
  761MOL0     H 2707   6.860   5.989   3.919 -1.8506 -0.1863  2.7316
  761MOL0     H 2708   6.874   5.814   3.946 -1.5485  1.1820  2.9111
  761MOL0     H 2709   6.810   5.771   3.717  1.8463 -0.3419 -0.1979
  761MOL0     H 2710   6.964   5.852   3.740  0.0858 -1.2310  0.1428
  761MOL0     H 2711   6.703   5.988   3.652  0.0302  2.9976 -1.3264
  761MOL0     H 2712   6.837   6.085   3.691 -1.1065  0.8023 -2.4613
  761MOL0     H 2713   6.960   6.033   3.508  0.7447 -0.6386  3.2138
  761MOL0     H 2714   6.783   6.046   3.462 -1.0996 -1.7584  0.3438
  761MOL0     H 2715   6.763   5.801   3.468  1.4355 -1.2624  3.5195
  761MOL0     H 2716   6.933   5.778   3.504 -1.9206  0.0406  1.6809
  761MOL0     H 2717   6.299   5.667   3.988 -1.2363  0.6923 -0.5056
  761MOL0     H 2718   6.238   5.497   4.138 -0.1954  0.2565 -1.2012
  761MOL0     H 2719   6.086   5.305   4.427  0.7226 -4.0276 -2.5299
  761MOL0     H 2720   5.985   5.135   4.522  0.7814 -1.1282 -0.4461
  761MOL0     H 2721   6.940   5.632   4.193  2.2211  0.8139 -2.0723
  761MOL0     H 2722   7.155   5.702   4.103 -0.9173 -0.3862  2.3072
  761MOL0     H 2723   7.404   6.131   4.129  0.0139  0.8217 -1.3739
  761MOL0     H 2724   7.614   6.229   4.046  0.8698 -1.7520 -0.9316
  761MOL0     H 2725   7.701   6.100   3.653 -1.1397  0.4103 -1.4017
  761MOL0     H 2726   7.670   6.266   3.613  0.6116 -0.5323 -0.2769
  761MOL0     H 2727   7.944   6.185   3.733  1.4918  2.3712  1.0026
  761MOL0     H 2728   7.892   6.334   3.678  1.0357 -0.3686 -2.4881
  761MOL0     H 2729   7.838   6.248   3.451 -0.2989 -0.4900  0.9874
  761MOL0     H 2730   7.916   6.096   3.496  1.9964 -0.6282  0.2832
  761MOL0     H 2731   8.120   6.222   3.524  1.7289  2.8894  0.2898
  761MOL0     H 2732   8.035   6.371   3.522  2.7000 -1.2351  1.6150
  761MOL0     H 2733   8.079   6.335   3.115  2.2120  0.5752 -0.3238
  761MOL0     H 2734   7.480   6.166   3.637  1.4675  1.9629 -0.2231
  761MOL0     H 2735   7.264   6.107   3.721  0.3104 -0.7060 -0.6583
  762MOL0     O 2736   9.788   1.076   7.852 -0.0113 -0.4486  0.6986
  762MOL0     C 2737   9.728   1.170   7.907 -0.5280 -0.9470 -0.8331
  762MOL0     O 2738   9.785   1.276   7.970  0.4753  0.3242  0.8839
  762MOL0     C 2739   9.917   1.286   7.979 -0.9646  0.4366  0.0720
  762MOL0     C 2740   9.976   1.241   8.091  0.8079 -0.3424 -0.0241
  762MOL0     C 2741  10.115   1.233   8.100 -0.1087 -0.7545 -0.2173
  762MOL0     C 2742  10.197   1.290   7.994 -0.2617 -0.5862 -1.0902
  762MOL0     O 2743  10.333   1.290   8.008 -0.1709 -0.1902  0.1634
  762MOL0     C 2744  10.419   1.348   7.905  0.4117  0.4599 -0.6246
  762MOL0     C 2745  10.564   1.310   7.925 -0.7737 -0.1278  0.0406
  762MOL0     C 2746  10.587   1.163   7.932  0.6155 -0.1270  0.0751
  762MOL0     C 2747  10.740   1.144   7.907  0.6753 -0.2136 -0.9407
  762MOL0     C 2748  10.782   1.004   7.967 -0.0231 -0.3338 -0.1485
  762MOL0     C 2749  10.927   0.958   7.933  0.6411  0.6695  0.4357
  762MOL0     C 2750  10.944   0.813   7.957  0.6598  0.2636  0.0262
  762MOL0     C 2751  11.059   0.759   7.873  0.7138 -0.0035  0.0051
  762MOL0     N 2752  11.190   0.828   7.881 -0.1480  0.4066  0.3230
  762MOL0     C 2753  11.250   0.854   7.994 -0.1848  0.2360  0.1358
  762MOL0     C 2754  11.370   0.907   7.975 -0.1160  0.5478  0.0866
  762MOL0     C 2755  11.464   0.926   8.085 -0.9846  0.2063 -0.4245
  762MOL0     C 2756  11.530   1.059   8.078  0.7538  0.1744  0.4522
  762MOL0     C 2757  11.628   1.108   8.178  0.2924 -0.4850  0.1607
  762MOL0     C 2758  11.669   1.254   8.138  0.1666  0.4763  0.1268
  762MOL0     O 2759  11.766   1.311   8.219 -0.4265  0.9204  1.0772
  762MOL0     C 2760  11.897   1.267   8.197  0.0922 -0.8687 -0.5706
  762MOL0     C 2761  11.991   1.300   8.298  0.4042  0.1763 -0.0077
  762MOL0     C 2762  12.118   1.263   8.298 -0.0697 -0.2835  0.0298
  762MOL0     C 2763  12.206   1.308   8.424 -0.3509  0.6936 -0.3489
  762MOL0     C 2764  12.166   1.182   8.191 -0.0713  0.2363  0.5948
  762MOL0     C 2765  12.296   1.119   8.189  0.3513  0.2052  0.1558
  762MOL0     O 2766  12.391   1.170   8.266  0.2256  0.2869 -0.6251
  762MOL0     C 2767  12.523   1.139   8.224  0.9397  0.3749 -0.6236
  762MOL0     C 2768  12.584   1.222   8.133  0.6963  0.9757  0.1035
  762MOL0     C 2769  12.708   1.186   8.081 -0.2549 -0.2226 -1.1684
  762MOL0     C 2770  12.771   1.063   8.122 -0.0626 -0.3071 -1.1859
  762MOL0     O 2771  12.907   1.024   8.100 -0.7125  0.4385 -0.0217
  762MOL0     C 2772  12.986   1.115   8.008 -0.3812  0.2176  0.3703
  762MOL0     C 2773  13.130   1.059   8.007  0.9710 -0.6403 -0.3874
  762MOL0     C 2774  13.149   0.933   7.921  0.0281 -0.8218  0.6792
  762MOL0     C 2775  13.293   0.886   7.915 -0.3935  0.0068 -0.0741
  762MOL0     C 2776  13.290   0.771   7.824 -0.7370  0.6742  0.7062
  762MOL0     C 2777  13.428   0.704   7.804 -0.0892  1.4074  0.1354
  762MOL0     C 2778  13.514   0.693   7.938 -0.4260 -1.5422 -0.1619
  762MOL0     C 2779  13.629   0.594   7.916  0.1101 -0.3702 -0.4677
  762MOL0    Cl 2780  13.757   0.644   7.788 -0.1741  0.4811  0.2508
  762MOL0     C 2781  12.705   0.992   8.224 -0.0924 -0.3317  1.3241
  762MOL0     C 2782  12.581   1.027   8.274 -0.7503 -0.1363  0.8069
  762MOL0     O 2783  12.310   1.027   8.112 -0.2161  0.3892 -0.3056
  762MOL0     C 2784  12.070   1.139   8.099  0.2247  0.0900 -0.3022
  762MOL0     C 2785  11.936   1.177   8.104 -0.0279 -0.2518  0.6673
  762MOL0     N 2786  11.374   0.933   7.837  0.2702  0.4023 -0.2360
  762MOL0     N 2787  11.261   0.883   7.780  0.5989 -0.4015 -0.9734
  762MOL0     C 2788  10.129   1.347   7.884  0.0373  0.5390 -0.2220
  762MOL0     C 2789   9.992   1.341   7.870 -0.2925  0.3754 -0.6263
  762MOL0     C 2790   9.588   1.196   7.868 -0.5574 -0.1587 -0.0038
  762MOL0     C 2791   9.517   1.109   7.783 -0.3041  0.4245 -0.7537
  762MOL0     C 2792   9.386   1.134   7.741  0.2325 -0.2519 -0.4623
  762MOL0     C 2793   9.314   1.238   7.793  0.1628 -0.6625  1.0463
  762MOL0     O 2794   9.186   1.267   7.781  0.6951 -0.3356  0.0014
  762MOL0     C 2795   9.083   1.168   7.811 -0.5859  0.0393  0.3427
  762MOL0     C 2796   9.010   1.175   7.948  0.0347 -0.2602 -1.1315
  762MOL0     C 2797   8.932   1.309   7.965 -0.7507  0.2268 -0.2308
  762MOL0     C 2798   8.856   1.308   8.101 -0.5639  0.1552 -0.4822
  762MOL0     C 2799   8.743   1.399   8.082 -0.3744  0.0789  0.3515
  762MOL0     C 2800   8.638   1.457   8.059  0.6699 -0.1552  0.3879
  762MOL0     C 2801   9.380   1.320   7.888  0.1487 -0.2596  0.3211
  762MOL0     C 2802   9.519   1.305   7.916  0.4443  0.5125  0.1852
  762MOL0     H 2803   9.922   1.186   8.168  3.9118 -3.4833  0.1535
  762MOL0     H 2804  10.164   1.182   8.183 -2.3987 -0.6372  1.3130
  762MOL0     H 2805  10.393   1.305   7.808  0.3098  0.9882 -0.8331
  762MOL0     H 2806  10.411   1.457   7.909  0.1948  0.4238  0.5394
  762MOL0     H 2807  10.622   1.358   7.846  0.6226 -1.6689  0.0680
  762MOL0     H 2808  10.593   1.373   8.010 -1.4635  1.0034 -0.5356
  762MOL0     H 2809  10.569   1.117   8.029  1.8049 -0.4941  0.1325
  762MOL0     H 2810  10.513   1.115   7.867 -1.2715  1.5386  0.8787
  762MOL0     H 2811  10.771   1.147   7.802 -0.1806 -0.5403 -1.2114
  762MOL0     H 2812  10.777   1.226   7.969 -0.0102 -0.6587  0.0869
  762MOL0     H 2813  10.765   0.996   8.075  0.9734 -1.4022 -0.0509
  762MOL0     H 2814  10.718   0.926   7.925 -0.4245 -2.0872  3.3409
  762MOL0     H 2815  10.943   0.985   7.828  3.2008  1.1383  0.8863
  762MOL0     H 2816  10.992   1.015   7.998  1.4557 -0.1856  0.3979
  762MOL0     H 2817  10.976   0.795   8.059  1.5830 -3.5664 -0.7792
  762MOL0     H 2818  10.854   0.754   7.937  0.6307 -0.1705  1.3544
  762MOL0     H 2819  11.024   0.767   7.769 -0.4685 -1.2917  0.2641
  762MOL0     H 2820  11.071   0.652   7.891 -2.0423 -0.2292  0.9853
  762MOL0     H 2821  11.220   0.821   8.093 -1.4167 -1.1125 -0.6417
  762MOL0     H 2822  11.412   0.908   8.179  3.8855 -0.9533  2.4351
  762MOL0     H 2823  11.534   0.841   8.075 -0.5606  0.5880 -0.7565
  762MOL0     H 2824  11.449   1.130   8.062 -0.0063 -0.8802 -0.5387
  762MOL0     H 2825  11.585   1.048   7.984  3.8011  0.3943  2.0861
  762MOL0     H 2826  11.717   1.044   8.175 -0.6600 -2.0443  2.2689
  762MOL0     H 2827  11.595   1.119   8.282  4.5358  2.1591  1.4504
  762MOL0     H 2828  11.575   1.311   8.143  0.4012  0.8123  0.8434
  762MOL0     H 2829  11.701   1.255   8.033  0.2289 -0.9228  0.1173
  762MOL0     H 2830  11.963   1.368   8.378  4.4745 -0.1013  1.9309
  762MOL0     H 2831  12.274   1.393   8.422  1.4915 -0.6936  0.4576
  762MOL0     H 2832  12.143   1.333   8.510 -2.4600 -3.1823 -0.5039
  762MOL0     H 2833  12.263   1.220   8.455  1.7459  2.8180  2.2088
  762MOL0     H 2834  12.531   1.312   8.104  1.5007  1.6203  0.6124
  762MOL0     H 2835  12.747   1.251   8.004  0.7291  1.3695  0.6039
  762MOL0     H 2836  12.942   1.109   7.908  1.3233 -1.3837 -0.3386
  762MOL0     H 2837  12.994   1.217   8.049 -2.3095  0.8679 -0.7439
  762MOL0     H 2838  13.199   1.136   7.970  0.8933  1.2265  2.8908
  762MOL0     H 2839  13.163   1.046   8.111  0.7633  1.9969  0.0788
  762MOL0     H 2840  13.125   0.970   7.821  3.7693  1.1149  0.3324
  762MOL0     H 2841  13.082   0.856   7.959 -1.7361 -0.0108 -0.6687
  762MOL0     H 2842  13.359   0.966   7.879  1.9373 -2.2591 -1.1349
  762MOL0     H 2843  13.334   0.856   8.012 -1.7741  0.3745  0.6496
  762MOL0     H 2844  13.247   0.792   7.725 -0.7128  0.4732  0.6525
  762MOL0     H 2845  13.220   0.694   7.858 -0.7102 -1.0135 -2.6425
  762MOL0     H 2846  13.399   0.603   7.772 -3.5866  0.9650  3.8781
  762MOL0     H 2847  13.508   0.742   7.740  1.1348  3.0145  2.4311
  762MOL0     H 2848  13.443   0.661   8.015 -0.2604 -3.3222 -0.7084
  762MOL0     H 2849  13.554   0.795   7.940 -0.1415 -1.5053 -3.1382
  762MOL0     H 2850  13.580   0.497   7.904  1.3006 -1.0975  0.2730
  762MOL0     H 2851  13.692   0.589   8.006  2.7212  2.4800 -1.9299
  762MOL0     H 2852  12.755   0.910   8.274 -2.1570 -1.6801  1.2827
  762MOL0     H 2853  12.530   0.969   8.350 -0.4300  2.5384  3.2359
  762MOL0     H 2854  12.109   1.071   8.023  2.7375  1.3089 -0.2219
  762MOL0     H 2855  11.865   1.137   8.033 -1.3308 -0.3306  1.9557
  762MOL0     H 2856  10.193   1.399   7.814  2.3779 -1.8875 -0.0313
  762MOL0     H 2857   9.943   1.377   7.780 -1.8675 -1.2014 -0.4556
  762MOL0     H 2858   9.576   1.035   7.729  0.2180  0.0068  0.3567
  762MOL0     H 2859   9.332   1.068   7.673 -2.7058  3.0748 -1.6123
  762MOL0     H 2860   9.019   1.182   7.723  0.2365 -0.1713 -0.3007
  762MOL0     H 2861   9.113   1.064   7.799 -2.0063 -0.2415 -1.2505
  762MOL0     H 2862   9.085   1.166   8.027 -0.1354  1.5120 -0.7263
  762MOL0     H 2863   8.935   1.097   7.937 -0.9654  0.7223 -1.4166
  762MOL0     H 2864   8.850   1.318   7.893 -0.1234  0.0628 -0.9872
  762MOL0     H 2865   9.000   1.394   7.955 -2.4623  1.9115  1.5079
  762MOL0     H 2866   8.926   1.342   8.177  1.4277  0.7590 -2.4806
  762MOL0     H 2867   8.821   1.206   8.117  0.8493  0.0679  2.6997
  762MOL0     H 2868   8.553   1.521   8.047 -0.1341 -1.2999 -0.1939
  762MOL0     H 2869   9.316   1.401   7.921  2.4206  2.0653 -0.6600
  762MOL0     H 2870   9.561   1.373   7.989 -1.2895 -1.5286  3.3386
  763MOL0     O 2871   2.759   4.988   9.917 -0.2616 -0.5870 -0.0555
  763MOL0     C 2872   2.749   5.087   9.994  0.3187  0.9615 -0.3039
  763MOL0     O 2873   2.803   5.097  10.123 -0.1530 -0.1731 -0.0766
  763MOL0     C 2874   2.867   4.983  10.171 -0.4706  0.7296  1.1216
  763MOL0     C 2875   2.989   4.922  10.129  0.4288  0.6180  0.1279
  763MOL0     C 2876   3.045   4.810  10.194 -0.4347 -0.9406  0.5005
  763MOL0     C 2877   2.991   4.765  10.315 -0.7720 -0.6171 -0.1514
  763MOL0     O 2878   3.059   4.667  10.380 -0.0126 -0.2489  0.3596
  763MOL0     C 2879   3.028   4.656  10.515  0.1452  0.5281  0.4024
  763MOL0     C 2880   3.089   4.529  10.580  0.8753  0.5275 -1.3587
  763MOL0     C 2881   3.106   4.559  10.733 -0.0976  0.2108  0.6840
  763MOL0     C 2882   2.971   4.597  10.815 -0.1314 -0.2873  0.1667
  763MOL0     C 2883   2.976   4.723  10.907  0.7091 -1.0758  0.3344
  763MOL0     C 2884   3.051   4.714  11.036 -0.6361 -0.4810  0.2809
  763MOL0     C 2885   2.994   4.601  11.131  0.0979 -0.4380  0.5382
  763MOL0     C 2886   3.037   4.633  11.281 -0.4415  0.8343  0.4285
  763MOL0     N 2887   2.961   4.542  11.373  0.7303 -0.4726  0.5909
  763MOL0     C 2888   3.031   4.488  11.475 -1.0938 -0.7484  0.0387
  763MOL0     C 2889   2.951   4.490  11.581  0.2623 -0.1891  1.0733
  763MOL0     C 2890   2.972   4.458  11.721  0.6232  0.2440 -1.1477
  763MOL0     C 2891   2.918   4.315  11.751 -0.1569  0.3306  0.0151
  763MOL0     C 2892   2.947   4.282  11.897  0.0597 -0.3143  0.7798
  763MOL0     C 2893   2.899   4.141  11.955  0.6171  0.0554  0.1664
  763MOL0     O 2894   2.906   4.162  12.102 -0.2104  0.6985 -0.2208
  763MOL0     C 2895   2.815   4.237  12.173  0.0063 -1.1669  0.9994
  763MOL0     C 2896   2.848   4.265  12.304  0.9992 -0.3646 -0.4863
  763MOL0     C 2897   2.761   4.345  12.381 -0.3047 -0.8578 -0.1811
  763MOL0     C 2898   2.800   4.367  12.521  0.3769  0.3974 -0.9997
  763MOL0     C 2899   2.637   4.399  12.332 -0.3308 -0.5794 -0.3509
  763MOL0     C 2900   2.552   4.500  12.399 -0.1983 -0.4599  0.5615
  763MOL0     O 2901   2.432   4.523  12.335  0.1549 -0.3279 -0.3651
  763MOL0     C 2902   2.345   4.610  12.381 -0.0811 -0.0781  0.8029
  763MOL0     C 2903   2.248   4.590  12.479  0.1579 -0.0558  0.2197
  763MOL0     C 2904   2.152   4.692  12.499 -0.7038  0.5930 -0.2001
  763MOL0     C 2905   2.142   4.804  12.423  0.1421 -0.3297 -0.9342
  763MOL0     O 2906   2.052   4.907  12.452  0.0592  0.1070 -1.1161
  763MOL0     C 2907   1.916   4.874  12.498 -0.0090 -0.3759 -0.5114
  763MOL0     C 2908   1.836   5.005  12.514 -0.9515 -0.4147 -0.0865
  763MOL0     C 2909   1.838   5.086  12.383  0.3663 -0.3312  0.2542
  763MOL0     C 2910   1.706   5.173  12.384 -0.1067  0.1596  0.3471
  763MOL0     C 2911   1.679   5.245  12.259 -0.3185 -0.2495 -0.0090
  763MOL0     C 2912   1.563   5.349  12.276  0.1660 -0.4602  0.7344
  763MOL0     C 2913   1.552   5.431  12.145  0.0033 -0.4509 -0.0782
  763MOL0     C 2914   1.425   5.504  12.164  0.3448 -0.1836  0.3174
  763MOL0    Cl 2915   1.406   5.580  11.997 -0.0863  0.1064  0.4135
  763MOL0     C 2916   2.242   4.827  12.330 -0.1654 -0.4046  0.6738
  763MOL0     C 2917   2.347   4.739  12.317  0.2056  0.0570 -0.3860
  763MOL0     O 2918   2.595   4.561  12.495 -0.7542  0.0271  0.6057
  763MOL0     C 2919   2.614   4.368  12.193  0.3915 -0.8911 -0.6382
  763MOL0     C 2920   2.703   4.295  12.116  0.3294 -0.0408  0.3162
  763MOL0     N 2921   2.828   4.529  11.535  0.5549 -0.1794  0.6284
  763MOL0     N 2922   2.833   4.558  11.411  0.5234 -0.3950 -0.4914
  763MOL0     C 2923   2.877   4.837  10.361 -0.4862 -0.1209  0.6035
  763MOL0     C 2924   2.811   4.935  10.286  0.4658  0.4488 -0.7461
  763MOL0     C 2925   2.670   5.204   9.950 -0.0214  0.2982 -0.1319
  763MOL0     C 2926   2.625   5.300  10.046 -0.5566 -0.0179  0.5780
  763MOL0     C 2927   2.546   5.406  10.010  0.2569 -0.5995 -0.3059
  763MOL0     C 2928   2.509   5.418   9.870 -0.2098  1.3414  0.4324
  763MOL0     O 2929   2.432   5.518   9.826  0.2161  0.2640  0.3441
  763MOL0     C 2930   2.372   5.600   9.926  0.2215  0.0346 -0.0452
  763MOL0     C 2931   2.261   5.690   9.867 -0.1143  0.0705  0.9651
  763MOL0     C 2932   2.216   5.797   9.973 -0.5297 -0.1535  0.8539
  763MOL0     C 2933   2.099   5.891   9.923 -0.0925  0.6551 -0.5643
  763MOL0     C 2934   1.973   5.834   9.983 -0.0085 -0.5402 -0.1664
  763MOL0     C 2935   1.867   5.780  10.019  0.2842  0.0170  0.3044
  763MOL0     C 2936   2.568   5.330   9.774 -0.0126 -1.4268 -0.3545
  763MOL0     C 2937   2.636   5.216   9.816  0.5942  0.5499 -0.0979
  763MOL0     H 2938   3.041   4.960  10.042  0.7174  0.1023  0.0717
  763MOL0     H 2939   3.132   4.757  10.156  0.5306 -0.8642  2.4712
  763MOL0     H 2940   3.045   4.748  10.572 -1.0454  0.1582  1.4247
  763MOL0     H 2941   2.925   4.620  10.528  0.7159 -0.6433  2.1628
  763MOL0     H 2942   3.024   4.444  10.560 -0.5233  1.3515 -0.4827
  763MOL0     H 2943   3.192   4.513  10.546  1.5369  0.7362  0.4458
  763MOL0     H 2944   3.155   4.472  10.779  2.2273  0.6499 -0.8127
  763MOL0     H 2945   3.174   4.644  10.744  0.7180  0.1895 -3.0714
  763MOL0     H 2946   2.898   4.625  10.738  2.6590  1.9204 -1.8848
  763MOL0     H 2947   2.919   4.513  10.862 -1.7407  1.3021  1.3947
  763MOL0     H 2948   3.016   4.804  10.844  0.7671  0.7937  2.6339
  763MOL0     H 2949   2.873   4.742  10.935  1.6505 -2.4320  5.9542
  763MOL0     H 2950   3.159   4.714  11.021 -0.9595  1.0545 -2.6707
  763MOL0     H 2951   3.038   4.812  11.083  0.5086 -0.3098  0.2789
  763MOL0     H 2952   2.884   4.602  11.127  0.0808  1.9653 -2.6529
  763MOL0     H 2953   3.021   4.504  11.090  0.1372 -0.7798  1.3545
  763MOL0     H 2954   3.015   4.737  11.305 -0.3383  0.6676  1.2451
  763MOL0     H 2955   3.144   4.616  11.294 -0.1573  0.5605 -1.8337
  763MOL0     H 2956   3.136   4.460  11.469 -1.1461 -1.9569  3.0485
  763MOL0     H 2957   3.070   4.474  11.766 -0.6060  1.5694  1.2611
  763MOL0     H 2958   2.904   4.526  11.774  1.3253  0.1574 -0.1021
  763MOL0     H 2959   2.963   4.237  11.688 -1.6154 -1.5293  1.1841
  763MOL0     H 2960   2.810   4.306  11.735 -0.5145  0.5548  2.0858
  763MOL0     H 2961   2.896   4.356  11.959  1.7088  0.4655  1.2561
  763MOL0     H 2962   3.055   4.293  11.908 -0.2223  2.3171  1.4533
  763MOL0     H 2963   2.963   4.065  11.911 -0.6132 -0.2936 -1.1086
  763MOL0     H 2964   2.794   4.121  11.929  0.1965  1.0413  1.0295
  763MOL0     H 2965   2.942   4.223  12.337  0.7528 -0.4279  0.1300
  763MOL0     H 2966   2.826   4.471  12.547 -2.0576  1.7209 -3.3146
  763MOL0     H 2967   2.725   4.326  12.590 -1.5990  1.6097 -2.2918
  763MOL0     H 2968   2.882   4.298  12.540 -2.5281 -2.6223  1.8440
  763MOL0     H 2969   2.247   4.496  12.533 -1.7855  0.0805  0.4797
  763MOL0     H 2970   2.103   4.676  12.594  0.2437  0.3239  0.2610
  763MOL0     H 2971   1.871   4.807  12.424  0.8799 -0.7863 -0.6949
  763MOL0     H 2972   1.927   4.813  12.589  1.3374 -1.2947 -1.2628
  763MOL0     H 2973   1.735   4.979  12.545 -1.4470  2.4097  0.9922
  763MOL0     H 2974   1.871   5.068  12.597  0.7649  1.2942 -1.9738
  763MOL0     H 2975   1.830   5.013  12.303  2.7055 -0.5949  0.2112
  763MOL0     H 2976   1.921   5.155  12.366 -2.3978  2.6826 -2.2577
  763MOL0     H 2977   1.613   5.118  12.399 -0.0131 -0.4850 -1.2938
  763MOL0     H 2978   1.711   5.245  12.466  4.8484 -2.4788  2.8154
  763MOL0     H 2979   1.665   5.171  12.179  1.3598 -0.3587 -0.2265
  763MOL0     H 2980   1.766   5.302  12.228 -0.5949  0.8736  1.2172
  763MOL0     H 2981   1.474   5.287  12.289 -0.3329  0.0747 -0.0343
  763MOL0     H 2982   1.579   5.407  12.367  1.1297 -1.8008  1.4634
  763MOL0     H 2983   1.550   5.360  12.061 -0.4893 -0.3632 -0.1384
  763MOL0     H 2984   1.635   5.499  12.125 -0.5882 -0.1387 -1.6135
  763MOL0     H 2985   1.426   5.584  12.239  3.0859 -0.3400  0.5733
  763MOL0     H 2986   1.333   5.447  12.176 -1.9685  3.0582 -0.7523
  763MOL0     H 2987   2.243   4.909  12.259 -1.6024 -0.7372  0.2259
  763MOL0     H 2988   2.434   4.746  12.253  1.2319 -1.8877  0.7169
  763MOL0     H 2989   2.521   4.388  12.140 -0.7972 -4.1023  0.0126
  763MOL0     H 2990   2.676   4.272  12.013  0.9963  0.4451  0.0212
  763MOL0     H 2991   2.850   4.810  10.462  1.0832 -0.3070  0.9980
  763MOL0     H 2992   2.723   4.987  10.322 -0.2431 -0.1874 -1.5205
  763MOL0     H 2993   2.661   5.296  10.149  0.2919  3.4953  0.5359
  763MOL0     H 2994   2.507   5.477  10.082 -0.4314 -0.7217 -0.5497
  763MOL0     H 2995   2.307   5.539   9.989  2.4848  0.2903  2.7419
  763MOL0     H 2996   2.443   5.657   9.987 -0.9273 -0.9214  2.2886
  763MOL0     H 2997   2.183   5.619   9.838 -0.2918  1.3402 -2.0835
  763MOL0     H 2998   2.306   5.736   9.778 -1.7723 -2.1835 -1.1451
  763MOL0     H 2999   2.299   5.860  10.002 -1.8068  1.4155  1.2361
  763MOL0     H 3000   2.192   5.763  10.074 -0.3600  1.5907  1.5120
  763MOL0     H 3001   2.090   5.889   9.814 -1.2291 -4.5975 -0.6660
  763MOL0     H 3002   2.119   5.987   9.970  2.7426 -0.3076  0.3895
  763MOL0     H 3003   1.774   5.739  10.053  0.2072 -0.2020 -0.1625
  763MOL0     H 3004   2.570   5.346   9.666  3.6251  1.9185  0.0102
  763MOL0     H 3005   2.671   5.148   9.738  0.9739 -0.3509  0.8267
  764MOL0     O 3006  10.151  10.044   2.577  0.1457 -0.2732  0.4198
  764MOL0     C 3007  10.204  10.057   2.469  0.5443  1.1724  0.0575
  764MOL0     O 3008  10.134  10.042   2.346  0.1536 -0.1798  0.2404
  764MOL0     C 3009   9.996  10.036   2.349 -0.4369 -0.4858 -0.7721
  764MOL0     C 3010   9.922  10.146   2.310 -0.1496 -0.8863 -0.1455
  764MOL0     C 3011   9.783  10.154   2.328  0.7628  0.3836  0.5626
  764MOL0     C 3012   9.718  10.045   2.376 -1.0329  0.3994  0.4820
  764MOL0     O 3013   9.586  10.042   2.416 -0.2685  0.8769 -0.8228
  764MOL0     C 3014   9.488  10.133   2.375  0.1307 -0.5528  0.6592
  764MOL0     C 3015   9.351  10.121   2.432  0.0156 -0.5426 -0.5377
  764MOL0     C 3016   9.250  10.217   2.370 -0.0866  0.8179  0.2252
  764MOL0     C 3017   9.113  10.205   2.444 -0.6206 -0.2334  1.0691
  764MOL0     C 3018   8.990  10.278   2.364 -1.2966 -0.0009  0.5256
  764MOL0     C 3019   8.989  10.260   2.215  0.3989  0.2309 -0.1837
  764MOL0     C 3020   8.956  10.122   2.157 -0.5789 -0.7489 -0.1787
  764MOL0     C 3021   8.970  10.145   2.009  0.0620  0.1832  0.3187
  764MOL0     N 3022   8.851  10.207   1.953 -0.7977 -0.2538  0.1743
  764MOL0     C 3023   8.848  10.331   1.902 -0.1442  0.1544 -0.2422
  764MOL0     C 3024   8.722  10.358   1.883  0.4164  0.5014 -0.1852
  764MOL0     C 3025   8.669  10.495   1.830 -0.4698  1.1963  0.9478
  764MOL0     C 3026   8.650  10.601   1.934 -0.9551 -0.0848  0.0181
  764MOL0     C 3027   8.778  10.698   1.946  0.8405 -0.3740 -0.1557
  764MOL0     C 3028   8.797  10.760   2.081  0.2685 -0.0018 -0.3304
  764MOL0     O 3029   8.690  10.846   2.124  0.6969 -0.2172  0.6324
  764MOL0     C 3030   8.680  10.976   2.080 -0.0654 -0.4201  0.8616
  764MOL0     C 3031   8.782  11.064   2.088  0.6998  0.4573 -1.4136
  764MOL0     C 3032   8.784  11.184   2.025  0.4408  0.0787 -0.2552
  764MOL0     C 3033   8.908  11.262   2.025 -0.5526 -1.1685 -0.3355
  764MOL0     C 3034   8.666  11.227   1.949  0.2379 -0.2646  0.1212
  764MOL0     C 3035   8.654  11.351   1.865  0.9520 -0.0347  0.0279
  764MOL0     O 3036   8.764  11.429   1.847 -0.6215 -0.4835 -0.9261
  764MOL0     C 3037   8.768  11.535   1.757  1.1185 -0.0316  0.2877
  764MOL0     C 3038   8.704  11.662   1.786  0.6372 -0.8385 -0.5500
  764MOL0     C 3039   8.721  11.773   1.701 -0.7205  0.6635 -0.2212
  764MOL0     C 3040   8.788  11.752   1.581 -0.3061  0.0186  0.3045
  764MOL0     O 3041   8.809  11.862   1.503 -0.0226  0.0817  0.0997
  764MOL0     C 3042   8.766  11.855   1.361  0.3333 -0.0169  0.1619
  764MOL0     C 3043   8.782  11.996   1.297  0.0088 -0.5322  0.0124
  764MOL0     C 3044   8.705  12.111   1.374  0.5401 -0.7478  0.1155
  764MOL0     C 3045   8.567  12.087   1.329  0.5552  0.3648  0.1095
  764MOL0     C 3046   8.476  12.189   1.398  0.2265  0.1632  0.0724
  764MOL0     C 3047   8.338  12.140   1.421  0.5086  0.6486 -0.6316
  764MOL0     C 3048   8.256  12.228   1.523  0.2823  0.7960  0.3958
  764MOL0     C 3049   8.142  12.314   1.466  0.5304 -0.6450 -0.1852
  764MOL0    Cl 3050   8.197  12.453   1.352  0.0302  0.1370  0.3960
  764MOL0     C 3051   8.842  11.625   1.549 -0.3806 -1.0077  0.2107
  764MOL0     C 3052   8.834  11.523   1.638 -0.9465 -0.0009 -0.6696
  764MOL0     O 3053   8.543  11.378   1.808 -0.3979 -0.1510  0.0376
  764MOL0     C 3054   8.551  11.145   1.960 -0.3520  0.5858 -0.8238
  764MOL0     C 3055   8.562  11.021   2.026 -1.0481  0.0477  0.0343
  764MOL0     N 3056   8.640  10.246   1.912  1.0334 -0.0214  0.0133
  764MOL0     N 3057   8.724  10.159   1.954 -0.5094  0.5780 -0.0958
  764MOL0     C 3058   9.788   9.926   2.399 -0.2916  0.5353  0.0973
  764MOL0     C 3059   9.930   9.915   2.390  0.3549  0.8738  0.1489
  764MOL0     C 3060  10.351  10.083   2.459 -0.0381  0.2301  0.8571
  764MOL0     C 3061  10.416  10.118   2.582  0.0215  0.0675 -0.1010
  764MOL0     C 3062  10.554  10.145   2.578  0.1242 -0.4034  0.4187
  764MOL0     C 3063  10.629  10.120   2.465 -0.5150 -0.1380  0.3627
  764MOL0     O 3064  10.755  10.152   2.479 -0.8665 -0.8026  0.5926
  764MOL0     C 3065  10.845  10.165   2.368  0.0980  0.6855  0.4252
  764MOL0     C 3066  10.980  10.207   2.403 -0.1084  0.0949 -0.1022
  764MOL0     C 3067  11.057  10.122   2.507  0.8008  0.4696 -0.7660
  764MOL0     C 3068  11.210  10.171   2.514 -0.1591  0.5652 -0.1408
  764MOL0     C 3069  11.277  10.093   2.626  0.5096 -0.0749  0.0847
  764MOL0     C 3070  11.333  10.049   2.731 -0.0820 -0.1784  0.3382
  764MOL0     C 3071  10.561  10.088   2.345  0.3875  0.5050 -0.0563
  764MOL0     C 3072  10.426  10.072   2.341 -1.2422 -0.4280  0.5483
  764MOL0     H 3073   9.967  10.227   2.254  0.2099 -0.5288  0.6524
  764MOL0     H 3074   9.745  10.255   2.317  1.6341  0.4529 -2.6093
  764MOL0     H 3075   9.533  10.232   2.384  0.3861 -0.7113  1.2008
  764MOL0     H 3076   9.474  10.122   2.267 -0.8156  0.1683  0.6932
  764MOL0     H 3077   9.326  10.014   2.430  2.2358 -1.0989 -1.5007
  764MOL0     H 3078   9.369  10.151   2.536  1.2019  0.3994 -0.9883
  764MOL0     H 3079   9.293  10.317   2.375  0.6812  0.4889  0.3180
  764MOL0     H 3080   9.229  10.179   2.269 -1.7993 -1.5433  1.3572
  764MOL0     H 3081   9.091  10.098   2.442  1.8263 -0.8126 -1.2245
  764MOL0     H 3082   9.127  10.244   2.545  2.9736  0.2293  0.5239
  764MOL0     H 3083   8.895  10.246   2.408 -0.5478 -0.7871  1.6225
  764MOL0     H 3084   9.008  10.385   2.378  2.1913 -0.2052 -1.2973
  764MOL0     H 3085   8.905  10.319   2.177 -0.7647 -2.2725 -1.7024
  764MOL0     H 3086   9.081  10.299   2.169  1.4407 -1.4138  0.4118
  764MOL0     H 3087   9.027  10.049   2.196 -2.5905 -2.2922  0.7743
  764MOL0     H 3088   8.854  10.091   2.181 -0.5041 -1.5609 -0.8445
  764MOL0     H 3089   8.986  10.047   1.963  1.3438  0.5711 -0.0848
  764MOL0     H 3090   9.058  10.208   1.994 -0.4686  0.5319 -1.6226
  764MOL0     H 3091   8.924  10.406   1.883  0.2355 -0.6252 -1.9593
  764MOL0     H 3092   8.727  10.551   1.756 -0.9238  1.7324  0.9888
  764MOL0     H 3093   8.571  10.480   1.783  0.0181  1.2395 -0.1072
  764MOL0     H 3094   8.621  10.546   2.024 -3.5480  2.1229  0.6866
  764MOL0     H 3095   8.563  10.664   1.908 -2.4372 -2.5452 -1.3236
  764MOL0     H 3096   8.786  10.770   1.865  1.2236  0.9971  1.0485
  764MOL0     H 3097   8.859  10.626   1.935 -1.2974 -2.9661 -0.1259
  764MOL0     H 3098   8.893  10.812   2.087  0.1655  0.2204 -0.5902
  764MOL0     H 3099   8.797  10.680   2.156  1.0700  0.9919  0.7776
  764MOL0     H 3100   8.869  11.032   2.144  0.5409 -0.8039 -1.8442
  764MOL0     H 3101   8.952  11.281   1.927  3.7846  1.8577  1.8293
  764MOL0     H 3102   8.901  11.362   2.069  2.3883 -0.3098 -1.6081
  764MOL0     H 3103   8.992  11.227   2.087 -1.2161 -0.4971  0.9944
  764MOL0     H 3104   8.658  11.672   1.884 -2.1274 -2.4233 -1.5648
  764MOL0     H 3105   8.676  11.869   1.727  2.8182  2.2081  0.8221
  764MOL0     H 3106   8.830  11.782   1.311 -1.6326 -0.6107 -1.6748
  764MOL0     H 3107   8.663  11.819   1.361  1.4504 -3.5452  0.4345
  764MOL0     H 3108   8.888  12.022   1.296  0.0444 -0.2958  2.9083
  764MOL0     H 3109   8.740  11.995   1.196  0.2435 -1.5130 -0.0867
  764MOL0     H 3110   8.739  12.213   1.354  0.4389 -0.3097  2.0260
  764MOL0     H 3111   8.710  12.102   1.483 -1.2526 -1.3595  0.1859
  764MOL0     H 3112   8.539  12.102   1.224 -0.5074 -2.4678 -0.0788
  764MOL0     H 3113   8.534  11.987   1.358  0.6778  0.7259  1.5865
  764MOL0     H 3114   8.476  12.283   1.342 -0.4380  1.0280  1.4692
  764MOL0     H 3115   8.529  12.206   1.491  2.8168  4.2707 -1.8974
  764MOL0     H 3116   8.290  12.134   1.322  1.1917  0.7877 -0.9777
  764MOL0     H 3117   8.343  12.039   1.461  0.4531  0.4036 -1.2320
  764MOL0     H 3118   8.332  12.282   1.581 -0.5825 -0.0997  2.4885
  764MOL0     H 3119   8.211  12.160   1.595  0.3315 -0.2360 -0.5342
  764MOL0     H 3120   8.078  12.351   1.546 -0.3500 -0.6291 -0.8829
  764MOL0     H 3121   8.077  12.239   1.419  0.2000 -0.1056 -0.5877
  764MOL0     H 3122   8.878  11.604   1.449 -0.4306 -0.9732  0.1850
  764MOL0     H 3123   8.882  11.427   1.619 -0.5151  0.4526 -1.9811
  764MOL0     H 3124   8.457  11.173   1.913 -2.0582  2.0292  3.0068
  764MOL0     H 3125   8.471  10.962   2.023 -0.2355 -1.4790  2.7782
  764MOL0     H 3126   9.744   9.831   2.429  0.0298  0.4956  0.4447
  764MOL0     H 3127   9.981   9.822   2.413 -0.2488  0.7677  1.1354
  764MOL0     H 3128  10.366  10.128   2.678  2.6073  1.5760  1.2088
  764MOL0     H 3129  10.614  10.165   2.666  1.9177 -0.1382 -0.8105
  764MOL0     H 3130  10.856  10.061   2.337  2.3381 -0.7306  5.1324
  764MOL0     H 3131  10.801  10.238   2.299  0.2944  1.6452  1.2846
  764MOL0     H 3132  10.979  10.313   2.430 -0.1880  0.1788 -0.4237
  764MOL0     H 3133  11.044  10.199   2.314 -3.0740  0.5023 -2.4266
  764MOL0     H 3134  11.057  10.014   2.486  0.7320  0.9595 -3.6366
  764MOL0     H 3135  11.009  10.130   2.605  1.6718 -0.7371 -0.2087
  764MOL0     H 3136  11.210  10.276   2.544  2.1108  0.0001  2.1509
  764MOL0     H 3137  11.245  10.146   2.413 -0.0167 -0.3775  0.1345
  764MOL0     H 3138  11.392  10.030   2.819  1.9257  2.1339 -0.4231
  764MOL0     H 3139  10.621  10.071   2.256  0.5724 -3.3948  0.6357
  764MOL0     H 3140  10.377  10.032   2.253 -1.6127  2.9065 -0.9402
  765MOL0     O 3141   2.021   5.445  11.284  0.6633 -0.3264 -0.5516
  765MOL0     C 3142   1.984   5.400  11.177  0.2487  0.3928  0.7037
  765MOL0     O 3143   1.944   5.268  11.160 -0.2290  0.4373 -0.1639
  765MOL0     C 3144   1.902   5.180  11.262  0.2291  0.4611  0.5927
  765MOL0     C 3145   1.805   5.083  11.225 -0.2542  0.5154 -0.4296
  765MOL0     C 3146   1.750   4.995  11.325  0.1029 -0.2379 -0.1056
  765MOL0     C 3147   1.808   5.008  11.455 -0.3722  0.2043  0.1301
  765MOL0     O 3148   1.753   4.938  11.565  0.6984  0.2563 -0.5302
  765MOL0     C 3149   1.759   4.797  11.552  0.7900 -1.0031 -0.2291
  765MOL0     C 3150   1.645   4.736  11.628  0.0180  0.1597 -0.2159
  765MOL0     C 3151   1.502   4.764  11.570  0.0934 -0.0683 -0.4962
  765MOL0     C 3152   1.420   4.857  11.661  0.0333 -0.2512  0.6205
  765MOL0     C 3153   1.284   4.890  11.623  0.2617  0.4106 -0.3427
  765MOL0     C 3154   1.193   4.780  11.669  0.6051 -0.1280  1.2091
  765MOL0     C 3155   1.047   4.823  11.658  0.1808  0.1754 -1.1466
  765MOL0     C 3156   0.949   4.709  11.691 -0.1399 -0.8780 -0.9187
  765MOL0     N 3157   0.929   4.624  11.573  0.7958  0.7751 -0.0505
  765MOL0     C 3158   0.842   4.652  11.462  0.3010  0.1079 -0.2826
  765MOL0     C 3159   0.845   4.546  11.383  0.5336  0.0540 -0.1103
  765MOL0     C 3160   0.780   4.524  11.248 -0.7454 -0.0633 -0.6681
  765MOL0     C 3161   0.636   4.575  11.240 -1.0655  0.4352  0.6901
  765MOL0     C 3162   0.569   4.558  11.106  0.2767 -0.2227  0.0029
  765MOL0     C 3163   0.489   4.427  11.081  0.3856 -0.1924  0.3704
  765MOL0     O 3164   0.426   4.375  11.203 -0.6078 -0.1804  0.1982
  765MOL0     C 3165   0.298   4.414  11.223 -0.6527 -0.9677  0.1421
  765MOL0     C 3166   0.208   4.463  11.132 -1.0024 -0.0317 -0.1585
  765MOL0     C 3167   0.077   4.494  11.174 -0.3583 -0.0610 -0.5378
  765MOL0     C 3168  -0.028   4.529  11.066  1.4811  0.1285  0.1383
  765MOL0     C 3169   0.051   4.487  11.312  0.3833 -0.0064  0.1778
  765MOL0     C 3170  -0.087   4.517  11.367  0.2343  0.6431  0.8857
  765MOL0     O 3171  -0.081   4.583  11.483 -1.2366  0.3014  0.1855
  765MOL0     C 3172  -0.176   4.566  11.579 -0.2386  0.6361 -0.9472
  765MOL0     C 3173  -0.306   4.525  11.566  0.3949  0.7789 -0.0967
  765MOL0     C 3174  -0.387   4.501  11.676 -0.0584  0.1585 -0.1454
  765MOL0     C 3175  -0.345   4.534  11.809  0.4030 -0.1371 -0.1139
  765MOL0     O 3176  -0.426   4.511  11.916 -0.1028  0.1964 -0.0351
  765MOL0     C 3177  -0.362   4.540  12.037  1.1697  0.2442 -0.5253
  765MOL0     C 3178  -0.462   4.504  12.142 -0.4321 -0.6260  0.4743
  765MOL0     C 3179  -0.597   4.577  12.129 -0.1001  0.0185 -0.2998
  765MOL0     C 3180  -0.698   4.531  12.228  0.2366  0.0537  0.2878
  765MOL0     C 3181  -0.834   4.583  12.191 -0.2192  0.0988 -0.6906
  765MOL0     C 3182  -0.940   4.478  12.174 -0.6980  0.2375  0.2022
  765MOL0     C 3183  -1.073   4.537  12.132  0.7458 -0.3168 -0.3011
  765MOL0     C 3184  -1.177   4.431  12.106 -0.3824 -0.0255  0.7175
  765MOL0    Cl 3185  -1.250   4.368  12.254  0.1445 -0.0607  0.2979
  765MOL0     C 3186  -0.218   4.591  11.821 -0.9447  0.3875  1.1067
  765MOL0     C 3187  -0.136   4.598  11.707 -0.8122 -0.4485 -0.2789
  765MOL0     O 3188  -0.192   4.476  11.313 -0.0911  0.2655 -0.1911
  765MOL0     C 3189   0.149   4.451  11.405 -0.4768 -0.5615  0.4614
  765MOL0     C 3190   0.273   4.424  11.356  0.1797 -1.0162 -0.1925
  765MOL0     N 3191   0.909   4.439  11.451 -0.2885  0.0333 -0.0293
  765MOL0     N 3192   0.963   4.489  11.560  0.4411 -0.5600 -0.4217
  765MOL0     C 3193   1.913   5.091  11.488 -0.0301 -0.8984  0.2969
  765MOL0     C 3194   1.959   5.180  11.395 -0.0878 -0.6051  0.2421
  765MOL0     C 3195   1.979   5.502  11.061  0.3638 -0.3079 -0.3122
  765MOL0     C 3196   2.052   5.618  11.066 -0.2344 -0.2935 -0.7402
  765MOL0     C 3197   2.064   5.700  10.957  0.1794  0.0008  0.5705
  765MOL0     C 3198   1.989   5.686  10.839 -0.2258  0.2301  0.0608
  765MOL0     O 3199   2.008   5.781  10.744 -0.2370 -0.3364  0.0536
  765MOL0     C 3200   1.957   5.769  10.612 -0.1044  0.7830  0.4602
  765MOL0     C 3201   2.033   5.668  10.527 -1.1071  0.5548 -0.1562
  765MOL0     C 3202   1.980   5.686  10.387 -0.3412 -0.9473  0.2481
  765MOL0     C 3203   2.030   5.568  10.296  0.6665  1.0916 -0.2974
  765MOL0     C 3204   2.167   5.565  10.267 -0.6129  0.4136 -1.3066
  765MOL0     C 3205   2.282   5.559  10.246 -0.5275  0.3672 -0.3291
  765MOL0     C 3206   1.909   5.569  10.837  0.7066 -0.2945 -0.6362
  765MOL0     C 3207   1.903   5.481  10.944  0.5158  0.5765 -0.4870
  765MOL0     H 3208   1.781   5.086  11.119  0.4962  0.6944 -0.6072
  765MOL0     H 3209   1.667   4.931  11.300  0.5203 -0.5384 -0.7300
  765MOL0     H 3210   1.744   4.780  11.444 -0.1599  0.7538 -0.4026
  765MOL0     H 3211   1.855   4.756  11.585 -0.6643 -2.9485  1.9052
  765MOL0     H 3212   1.661   4.628  11.623 -0.6881  0.0896 -1.1772
  765MOL0     H 3213   1.648   4.763  11.734  2.3424 -1.9659  0.3483
  765MOL0     H 3214   1.510   4.787  11.463  3.3088  3.4706  0.2569
  765MOL0     H 3215   1.455   4.666  11.576 -0.7482  0.3578  0.1876
  765MOL0     H 3216   1.419   4.793  11.750  0.3421  1.4245  1.8811
  765MOL0     H 3217   1.479   4.946  11.681  0.3868 -0.3220 -0.0926
  765MOL0     H 3218   1.267   4.991  11.663  2.1654  0.7255 -0.2301
  765MOL0     H 3219   1.291   4.905  11.515  0.3841 -0.9731 -0.5391
  765MOL0     H 3220   1.204   4.691  11.607  0.2745 -0.0095  0.9786
  765MOL0     H 3221   1.194   4.753  11.775 -1.9687  0.5267  1.4525
  765MOL0     H 3222   1.025   4.895  11.737 -2.0933 -1.4730 -0.1535
  765MOL0     H 3223   1.015   4.872  11.565 -0.3522 -0.6802 -1.4274
  765MOL0     H 3224   0.852   4.746  11.724 -1.8201 -3.9902 -1.9169
  765MOL0     H 3225   0.984   4.654  11.779 -1.6156  1.5181  1.2926
  765MOL0     H 3226   0.795   4.746  11.434  0.2951 -0.3722 -2.0267
  765MOL0     H 3227   0.841   4.564  11.167 -1.6840  0.9160 -0.9195
  765MOL0     H 3228   0.795   4.415  11.241  0.0917  0.0622 -0.9281
  765MOL0     H 3229   0.639   4.682  11.264 -0.0006  0.1320  2.0677
  765MOL0     H 3230   0.593   4.521  11.325  1.4908 -0.4240  1.5612
  765MOL0     H 3231   0.647   4.565  11.029  0.3505  2.8346  0.2324
  765MOL0     H 3232   0.495   4.637  11.091  0.1508  0.1440  2.2204
  765MOL0     H 3233   0.549   4.349  11.033 -1.6437 -0.5693 -1.7324
  765MOL0     H 3234   0.415   4.435  11.000  2.0799 -2.3894 -1.5187
  765MOL0     H 3235   0.219   4.468  11.024 -0.9195  0.6908 -0.1204
  765MOL0     H 3236  -0.080   4.621  11.091 -0.2582 -1.2169  1.7702
  765MOL0     H 3237   0.008   4.528  10.963  0.2311  0.5191 -0.3079
  765MOL0     H 3238  -0.101   4.448  11.078  0.6472  0.7975 -0.3132
  765MOL0     H 3239  -0.356   4.532  11.470  2.2484  1.2900 -1.0796
  765MOL0     H 3240  -0.490   4.473  11.655  0.6389 -0.5902 -3.0273
  765MOL0     H 3241  -0.278   4.472  12.054 -0.3515 -2.0228 -1.5660
  765MOL0     H 3242  -0.338   4.645  12.051  3.2484 -0.1885 -0.5864
  765MOL0     H 3243  -0.475   4.396  12.128 -0.7719 -0.5640  0.3081
  765MOL0     H 3244  -0.426   4.534  12.241 -1.0403 -0.9169  0.7844
  765MOL0     H 3245  -0.640   4.552  12.031  0.3514 -1.0231 -0.2449
  765MOL0     H 3246  -0.577   4.684  12.138 -0.5393  0.3739 -2.7368
  765MOL0     H 3247  -0.699   4.423  12.244 -3.3265 -0.0120  0.5697
  765MOL0     H 3248  -0.673   4.572  12.327  3.0091 -0.8744  0.0397
  765MOL0     H 3249  -0.832   4.643  12.100  0.8381 -1.0665 -1.4828
  765MOL0     H 3250  -0.890   4.634  12.270 -2.6617  0.9372 -2.8424
  765MOL0     H 3251  -0.911   4.409  12.094 -0.2334 -0.8474  1.2668
  765MOL0     H 3252  -0.960   4.418  12.263 -2.5559 -3.5578 -2.4745
  765MOL0     H 3253  -1.057   4.604  12.047  1.1511 -2.9557 -2.4520
  765MOL0     H 3254  -1.107   4.600  12.214  1.9435  1.3861 -1.0616
  765MOL0     H 3255  -1.137   4.348  12.047 -1.2023  0.5973 -0.7695
  765MOL0     H 3256  -1.260   4.469  12.045  0.9838 -1.0009 -1.9279
  765MOL0     H 3257  -0.166   4.626  11.910  1.0296 -0.7441  0.4680
  765MOL0     H 3258  -0.038   4.643  11.720 -1.2750  0.1965  1.2557
  765MOL0     H 3259   0.135   4.449  11.512 -0.6398  1.9711  0.5567
  765MOL0     H 3260   0.358   4.394  11.417  1.5294 -0.8472 -1.9064
  765MOL0     H 3261   1.959   5.092  11.586  1.6948 -0.3227 -0.4803
  765MOL0     H 3262   2.036   5.251  11.422 -0.6614  0.6654 -1.3060
  765MOL0     H 3263   2.127   5.637  11.143 -0.9707 -2.2134  0.5239
  765MOL0     H 3264   2.133   5.782  10.971 -0.5730  0.6882  0.3828
  765MOL0     H 3265   1.856   5.729  10.619 -0.3332  1.4205  0.8908
  765MOL0     H 3266   1.953   5.869  10.567 -1.7926 -0.1036 -1.5517
  765MOL0     H 3267   2.030   5.564  10.560  1.5826  0.5837  0.4690
  765MOL0     H 3268   2.137   5.693  10.552 -2.1258  0.8102  5.0946
  765MOL0     H 3269   2.030   5.771  10.340 -0.2781 -1.5659 -0.8634
  765MOL0     H 3270   1.871   5.686  10.379 -0.4986  0.2280  2.0324
  765MOL0     H 3271   1.971   5.562  10.204 -1.8343  2.4797  1.0993
  765MOL0     H 3272   2.011   5.472  10.345  1.4122  0.1333 -1.8085
  765MOL0     H 3273   2.388   5.546  10.237 -0.4709 -0.0282  0.7276
  765MOL0     H 3274   1.857   5.546  10.744 -1.6638 -0.9597  0.7878
  765MOL0     H 3275   1.853   5.386  10.931  0.3503  0.7459 -1.1563
  766MOL0     O 3276   7.385   1.001   7.482 -0.1606 -0.0896  0.1961
  766MOL0     C 3277   7.399   0.902   7.561 -0.3270  0.4823  0.3634
  766MOL0     O 3278   7.301   0.821   7.622 -0.1583 -0.3287  0.7477
  766MOL0     C 3279   7.163   0.850   7.609  0.1631 -0.4952 -0.6111
  766MOL0     C 3280   7.099   0.948   7.522  0.0162 -0.2468  0.0075
  766MOL0     C 3281   6.967   0.956   7.515  0.4898 -0.2867 -0.1121
  766MOL0     C 3282   6.879   0.868   7.585 -0.8439  1.0482  0.5193
  766MOL0     O 3283   6.747   0.890   7.566 -0.3793  0.1030  0.7806
  766MOL0     C 3284   6.656   0.809   7.643  0.0366 -0.3158  0.1822
  766MOL0     C 3285   6.513   0.859   7.612 -0.2814  0.6499  0.4747
  766MOL0     C 3286   6.407   0.785   7.698 -1.3042 -0.3919 -0.1969
  766MOL0     C 3287   6.272   0.860   7.683 -0.9621  0.5393  0.4575
  766MOL0     C 3288   6.145   0.791   7.731  0.1298 -0.6461 -0.1439
  766MOL0     C 3289   6.103   0.672   7.647  1.0671 -0.4894 -0.8075
  766MOL0     C 3290   6.056   0.709   7.505 -0.3127  0.6553 -0.5524
  766MOL0     C 3291   5.946   0.816   7.490 -0.0169 -0.4204  1.0512
  766MOL0     N 3292   5.843   0.821   7.594 -0.4257 -0.2888  0.1454
  766MOL0     C 3293   5.735   0.748   7.596  0.1793 -0.5334 -0.0677
  766MOL0     C 3294   5.657   0.788   7.698 -0.0880 -0.1344 -0.3863
  766MOL0     C 3295   5.521   0.737   7.748 -0.1386 -0.0646  0.5427
  766MOL0     C 3296   5.514   0.624   7.846  0.1614  0.2809  1.2432
  766MOL0     C 3297   5.566   0.484   7.804  0.0898  0.3351 -0.5512
  766MOL0     C 3298   5.711   0.462   7.833  0.3081  0.3274  0.5699
  766MOL0     O 3299   5.769   0.354   7.759 -0.1286  0.6264 -0.0645
  766MOL0     C 3300   5.900   0.332   7.779 -0.0080 -0.4947 -0.4426
  766MOL0     C 3301   5.969   0.406   7.866 -0.4443 -0.0408 -0.3947
  766MOL0     C 3302   6.118   0.396   7.863 -0.7092 -0.8208 -0.2096
  766MOL0     C 3303   6.188   0.493   7.954 -0.2519  0.0492  0.2388
  766MOL0     C 3304   6.179   0.303   7.777 -0.2745  0.6030  0.4198
  766MOL0     C 3305   6.330   0.279   7.775  0.1240 -0.4089  0.5474
  766MOL0     O 3306   6.390   0.308   7.891  0.1558 -0.8455 -0.0264
  766MOL0     C 3307   6.528   0.313   7.895 -1.2822 -0.8469 -0.1229
  766MOL0     C 3308   6.599   0.201   7.952 -0.5148  0.6322 -0.4915
  766MOL0     C 3309   6.738   0.209   7.964  0.3667 -0.7133  0.0080
  766MOL0     C 3310   6.807   0.331   7.924  0.1652  0.5593 -0.1194
  766MOL0     O 3311   6.947   0.331   7.943  0.3752 -0.4438  0.3791
  766MOL0     C 3312   7.000   0.464   7.952  0.1593 -0.3825 -0.2516
  766MOL0     C 3313   7.134   0.454   8.018 -1.1560  0.0641  0.5084
  766MOL0     C 3314   7.239   0.387   7.932  0.8080  0.2244 -0.9313
  766MOL0     C 3315   7.372   0.362   8.005 -0.1921 -0.3168 -0.6110
  766MOL0     C 3316   7.460   0.489   8.018  0.3997  0.5041  0.5864
  766MOL0     C 3317   7.616   0.456   8.037  0.4994  0.2028  0.9128
  766MOL0     C 3318   7.709   0.564   8.073 -0.0243 -0.1260 -0.0451
  766MOL0     C 3319   7.831   0.517   8.145 -0.3543  0.3880 -0.8797
  766MOL0    Cl 3320   7.944   0.651   8.183 -0.4803  0.3257  0.1114
  766MOL0     C 3321   6.740   0.440   7.873 -0.2336  1.1857  0.3922
  766MOL0     C 3322   6.598   0.432   7.857  0.3851  0.1019  0.1478
  766MOL0     O 3323   6.380   0.238   7.667  0.2599 -0.4439 -0.1836
  766MOL0     C 3324   6.098   0.224   7.701 -0.0259 -0.2923 -0.2354
  766MOL0     C 3325   5.965   0.242   7.696  0.0420  0.3780 -0.7749
  766MOL0     N 3326   5.722   0.890   7.762 -0.3105  0.0122  0.0301
  766MOL0     N 3327   5.834   0.909   7.690  1.4243 -0.0597 -0.5622
  766MOL0     C 3328   6.937   0.775   7.669  0.2192 -0.3699  0.3350
  766MOL0     C 3329   7.077   0.769   7.684  0.4976 -0.8088 -0.7617
  766MOL0     C 3330   7.542   0.867   7.589  0.5363  0.0396  0.7429
  766MOL0     C 3331   7.562   0.763   7.674 -0.5587  0.4307 -0.2284
  766MOL0     C 3332   7.697   0.728   7.709  0.0422  0.0510 -0.1118
  766MOL0     C 3333   7.808   0.799   7.654  0.6352  0.6109  0.5613
  766MOL0     O 3334   7.929   0.765   7.690  0.7210 -0.2035 -0.0122
  766MOL0     C 3335   8.021   0.748   7.579  1.2398 -0.0028 -0.0523
  766MOL0     C 3336   8.141   0.658   7.618  0.3655 -0.0020  0.6563
  766MOL0     C 3337   8.105   0.513   7.608  0.4207  0.1256  0.0726
  766MOL0     C 3338   8.230   0.432   7.655  0.6632 -0.6036 -0.4584
  766MOL0     C 3339   8.333   0.443   7.561  0.1227  0.0499 -0.1492
  766MOL0     C 3340   8.422   0.478   7.489  0.2854  0.2276  0.5501
  766MOL0     C 3341   7.782   0.897   7.559 -0.7005 -0.4765  0.3954
  766MOL0     C 3342   7.653   0.933   7.535 -0.2477  0.2736 -0.4008
  766MOL0     H 3343   7.154   1.030   7.477 -0.7353  1.1771  1.5888
  766MOL0     H 3344   6.928   1.034   7.451  2.9372 -1.5324 -3.4130
  766MOL0     H 3345   6.662   0.705   7.610  2.1186 -0.6594  1.5066
  766MOL0     H 3346   6.674   0.822   7.750  1.7955  1.0716 -0.2503
  766MOL0     H 3347   6.512   0.965   7.639  5.5500  0.8494  1.1520
  766MOL0     H 3348   6.487   0.851   7.506  4.8776 -1.5915 -0.9330
  766MOL0     H 3349   6.404   0.682   7.661 -0.5959 -0.1810 -0.8512
  766MOL0     H 3350   6.431   0.788   7.805 -1.6556  0.4247 -0.1354
  766MOL0     H 3351   6.284   0.964   7.717  0.7219  1.4143 -2.4840
  766MOL0     H 3352   6.259   0.883   7.577  2.2854  0.6979  0.0073
  766MOL0     H 3353   6.145   0.752   7.833 -3.2753 -2.6528 -0.7693
  766MOL0     H 3354   6.070   0.870   7.739 -0.3980 -0.8876 -2.1429
  766MOL0     H 3355   6.193   0.612   7.636  1.7097  0.3668 -0.2953
  766MOL0     H 3356   6.027   0.614   7.702  0.9844  1.2568  1.0382
  766MOL0     H 3357   6.148   0.733   7.451  0.4287  0.7484  0.7129
  766MOL0     H 3358   6.020   0.619   7.456 -1.8710  1.1816 -0.4221
  766MOL0     H 3359   5.897   0.798   7.394 -0.2884 -1.0420  1.3018
  766MOL0     H 3360   6.002   0.910   7.490 -1.1192  0.2600  2.0921
  766MOL0     H 3361   5.706   0.662   7.536 -1.7548 -0.9514  1.3332
  766MOL0     H 3362   5.482   0.829   7.793 -1.0716  0.3568 -1.0285
  766MOL0     H 3363   5.459   0.715   7.661  0.9293  0.8582 -0.4899
  766MOL0     H 3364   5.405   0.622   7.852 -0.2971 -1.3006 -3.4805
  766MOL0     H 3365   5.561   0.660   7.938 -0.6034  0.9695  1.3749
  766MOL0     H 3366   5.545   0.467   7.698 -1.8596 -1.0748  0.0041
  766MOL0     H 3367   5.509   0.408   7.859 -0.0476  0.7451 -0.1163
  766MOL0     H 3368   5.720   0.452   7.942 -2.6936  0.8643  0.9425
  766MOL0     H 3369   5.766   0.553   7.805  0.1846  0.6364  1.2959
  766MOL0     H 3370   5.934   0.488   7.928 -1.5635  0.4772 -1.6606
  766MOL0     H 3371   6.114   0.563   7.993 -0.9247 -0.2478 -0.4936
  766MOL0     H 3372   6.242   0.449   8.038 -0.5170  1.9813  1.4951
  766MOL0     H 3373   6.268   0.540   7.895  0.1521 -3.4433 -2.3002
  766MOL0     H 3374   6.543   0.114   7.985 -0.7737  0.4773 -1.3115
  766MOL0     H 3375   6.788   0.119   7.999  0.1613 -1.0220 -0.4869
  766MOL0     H 3376   7.005   0.518   7.856 -0.0950  1.3659  0.6739
  766MOL0     H 3377   6.940   0.520   8.024  1.2345  1.8321 -0.9512
  766MOL0     H 3378   7.166   0.556   8.043 -0.9099  0.0897  0.0844
  766MOL0     H 3379   7.127   0.399   8.112  2.2711 -0.2018  0.7248
  766MOL0     H 3380   7.262   0.442   7.840 -0.3309 -1.9770 -2.6164
  766MOL0     H 3381   7.201   0.289   7.904 -1.2689  0.9323 -0.8106
  766MOL0     H 3382   7.369   0.332   8.111  1.2965  3.5023  0.6632
  766MOL0     H 3383   7.432   0.292   7.946 -0.9261  1.2063 -3.2840
  766MOL0     H 3384   7.419   0.542   8.105 -0.3572  0.5512  0.2114
  766MOL0     H 3385   7.459   0.558   7.934 -1.7690  0.0219  0.1572
  766MOL0     H 3386   7.634   0.366   8.096  1.5071 -1.0485 -1.1878
  766MOL0     H 3387   7.638   0.424   7.935 -1.6404  0.6101  0.2714
  766MOL0     H 3388   7.648   0.633   8.133 -2.9378 -1.7741 -0.9256
  766MOL0     H 3389   7.754   0.615   7.987  0.9649 -0.9647 -0.0384
  766MOL0     H 3390   7.880   0.444   8.080 -3.3554 -1.8644 -0.8342
  766MOL0     H 3391   7.807   0.460   8.235 -0.8315  1.1938 -0.4836
  766MOL0     H 3392   6.788   0.530   7.835  1.5800  0.3266  0.5671
  766MOL0     H 3393   6.541   0.517   7.820  0.2510  0.0118  0.1460
  766MOL0     H 3394   6.140   0.137   7.651  0.2331 -0.5990  0.5117
  766MOL0     H 3395   5.902   0.183   7.630 -1.4248  0.6829  0.3025
  766MOL0     H 3396   6.873   0.718   7.735  0.3281  2.2755  2.8956
  766MOL0     H 3397   7.115   0.711   7.768  2.1401  0.1914 -0.7715
  766MOL0     H 3398   7.486   0.701   7.720  1.2904 -1.0533  0.9709
  766MOL0     H 3399   7.722   0.644   7.773  1.3678  0.7367  0.3084
  766MOL0     H 3400   7.976   0.712   7.485  0.3890  1.0621 -0.0696
  766MOL0     H 3401   8.058   0.847   7.552 -1.7596  0.9056 -1.2309
  766MOL0     H 3402   8.176   0.675   7.720 -0.5452 -2.3468  1.4319
  766MOL0     H 3403   8.226   0.686   7.555  0.1699 -2.7476 -0.9880
  766MOL0     H 3404   8.078   0.485   7.506  0.3293 -2.4846  0.7355
  766MOL0     H 3405   8.021   0.493   7.675  0.6058  1.6022  0.8016
  766MOL0     H 3406   8.204   0.325   7.652  2.3959 -1.0746  0.2511
  766MOL0     H 3407   8.257   0.459   7.757  0.6140 -2.4860  0.0872
  766MOL0     H 3408   8.503   0.508   7.425  0.4880  0.5175  0.9361
  766MOL0     H 3409   7.856   0.962   7.513 -2.8924  1.4393 -0.6343
  766MOL0     H 3410   7.621   1.025   7.486  1.0704  0.2411 -1.3665
  767MOL0     O 3411   4.587   1.734   1.322  0.5196 -0.8139 -0.0966
  767MOL0     C 3412   4.581   1.637   1.398 -0.7920 -0.9282  0.1426
  767MOL0     O 3413   4.490   1.535   1.388 -0.3728 -0.2139  0.3770
  767MOL0     C 3414   4.382   1.524   1.302  0.2330  0.7724 -0.1357
  767MOL0     C 3415   4.331   1.615   1.210  0.1458 -0.0919  0.7363
  767MOL0     C 3416   4.217   1.596   1.130  1.5787  0.2693 -0.2974
  767MOL0     C 3417   4.145   1.482   1.147 -0.7792  0.9798 -0.8866
  767MOL0     O 3418   4.035   1.467   1.059  0.0610  0.8341 -0.2953
  767MOL0     C 3419   3.927   1.379   1.104  0.5147 -0.0965  0.8091
  767MOL0     C 3420   3.820   1.385   0.994  0.2292  0.3334  0.2228
  767MOL0     C 3421   3.711   1.273   0.995 -0.3012 -0.1594 -0.0510
  767MOL0     C 3422   3.623   1.287   0.871  0.5192 -0.9014  0.1573
  767MOL0     C 3423   3.517   1.181   0.850 -0.0324 -0.3138 -0.0707
  767MOL0     C 3424   3.581   1.041   0.823 -0.0210 -0.3894 -0.3417
  767MOL0     C 3425   3.471   0.952   0.771 -0.0031  0.0338  0.3100
  767MOL0     C 3426   3.516   0.793   0.745  0.4503 -0.4146  0.3024
  767MOL0     N 3427   3.525   0.720   0.868  0.3328 -0.9059 -0.6943
  767MOL0     C 3428   3.630   0.711   0.949  0.7369 -1.2585  0.3533
  767MOL0     C 3429   3.589   0.631   1.056  0.8518  0.4412  0.2814
  767MOL0     C 3430   3.663   0.581   1.175  0.5706 -0.3550  0.0392
  767MOL0     C 3431   3.732   0.449   1.151 -0.0155  0.4946  0.4433
  767MOL0     C 3432   3.811   0.404   1.272  0.3212 -0.6968 -0.4850
  767MOL0     C 3433   3.905   0.309   1.235  0.0445 -0.4992 -0.3842
  767MOL0     O 3434   4.007   0.361   1.147 -0.5632  0.3656 -0.5083
  767MOL0     C 3435   4.142   0.322   1.157 -0.5831 -0.2655 -0.6415
  767MOL0     C 3436   4.174   0.192   1.161  0.5881 -0.2740  0.1340
  767MOL0     C 3437   4.306   0.153   1.154 -0.3682  0.8423  0.0242
  767MOL0     C 3438   4.340   0.002   1.149 -0.3337  1.7689 -0.5059
  767MOL0     C 3439   4.413   0.249   1.130  0.4227  0.7405 -0.1504
  767MOL0     C 3440   4.559   0.213   1.113  1.3078  0.7248 -0.5788
  767MOL0     O 3441   4.637   0.321   1.115  0.2387 -0.2851  0.4808
  767MOL0     C 3442   4.774   0.313   1.115 -0.2961  0.4835 -0.0181
  767MOL0     C 3443   4.832   0.395   1.204  0.3405  0.1853  0.6969
  767MOL0     C 3444   4.975   0.409   1.189 -0.4959 -0.1305  0.8186
  767MOL0     C 3445   5.053   0.339   1.099  0.0696  0.3434 -1.3303
  767MOL0     O 3446   5.195   0.349   1.105  0.0566 -0.8940  0.3729
  767MOL0     C 3447   5.255   0.459   1.168  0.6793 -0.2270 -0.1425
  767MOL0     C 3448   5.404   0.450   1.136 -0.9977  0.2231 -0.2958
  767MOL0     C 3449   5.513   0.548   1.202  0.3442  1.4565 -0.0935
  767MOL0     C 3450   5.646   0.542   1.141  0.7432 -0.3545 -0.2129
  767MOL0     C 3451   5.753   0.630   1.216  0.1178  0.6313  0.2746
  767MOL0     C 3452   5.886   0.625   1.144 -0.2429 -0.2812 -0.2269
  767MOL0     C 3453   5.970   0.506   1.165  0.4690  0.0267 -0.5220
  767MOL0     C 3454   6.100   0.516   1.080  0.9436  0.4940 -0.1312
  767MOL0    Cl 3455   6.062   0.507   0.902 -0.5024  0.7453  0.1111
  767MOL0     C 3456   4.992   0.239   1.027  1.0110  0.2072 -0.1002
  767MOL0     C 3457   4.850   0.234   1.029 -0.5096 -0.8518 -0.8115
  767MOL0     O 3458   4.593   0.102   1.103 -0.2528  0.3222  0.8963
  767MOL0     C 3459   4.379   0.383   1.139  0.5643 -0.3922 -0.0491
  767MOL0     C 3460   4.247   0.415   1.152  0.8690 -1.2628 -0.2262
  767MOL0     N 3461   3.466   0.575   1.023 -0.5214 -0.4731  0.2115
  767MOL0     N 3462   3.428   0.641   0.918  0.6953 -0.0440 -0.0041
  767MOL0     C 3463   4.189   1.390   1.244 -0.2393  0.9187  0.4615
  767MOL0     C 3464   4.300   1.407   1.317 -0.5631 -0.8265 -0.5789
  767MOL0     C 3465   4.698   1.621   1.482  0.1819 -0.1985  0.1799
  767MOL0     C 3466   4.719   1.505   1.562  0.3012  0.3363  0.6453
  767MOL0     C 3467   4.817   1.497   1.659 -1.2056  0.4093 -0.6553
  767MOL0     C 3468   4.914   1.608   1.671  0.0321  0.0838 -0.0213
  767MOL0     O 3469   5.011   1.623   1.767 -0.1546  0.1443 -0.3447
  767MOL0     C 3470   5.035   1.520   1.861  0.5488  0.0214  0.9266
  767MOL0     C 3471   5.177   1.519   1.917  0.6374 -0.1387 -0.4089
  767MOL0     C 3472   5.213   1.401   2.001  0.3635 -0.7360  0.1518
  767MOL0     C 3473   5.364   1.391   2.050  0.3156 -0.5988 -0.6968
  767MOL0     C 3474   5.404   1.500   2.140  0.3059 -0.7572 -0.2939
  767MOL0     C 3475   5.436   1.583   2.230  0.4129 -0.3046 -0.3252
  767MOL0     C 3476   4.898   1.718   1.582 -0.4438 -0.7202  0.0658
  767MOL0     C 3477   4.798   1.726   1.489  0.7495  0.0289  0.5146
  767MOL0     H 3478   4.383   1.711   1.210  0.2480 -0.0252 -2.7209
  767MOL0     H 3479   4.182   1.672   1.061 -0.0266 -2.9477 -3.3255
  767MOL0     H 3480   3.961   1.275   1.116 -1.0278 -1.0124 -1.9312
  767MOL0     H 3481   3.876   1.422   1.191  1.4260  0.6581  0.9796
  767MOL0     H 3482   3.786   1.489   1.005  1.0890  0.6583 -0.1619
  767MOL0     H 3483   3.871   1.392   0.898 -1.0739  0.6211 -0.4724
  767MOL0     H 3484   3.747   1.170   1.007 -2.8572 -1.2823 -1.2048
  767MOL0     H 3485   3.633   1.283   1.071 -1.0459 -1.8627 -0.5371
  767MOL0     H 3486   3.563   1.377   0.887 -1.0210 -1.8759  0.0635
  767MOL0     H 3487   3.672   1.311   0.776 -1.8648  0.0642 -0.9343
  767MOL0     H 3488   3.463   1.168   0.944 -1.0663 -0.6325 -0.7003
  767MOL0     H 3489   3.448   1.206   0.769 -1.5650  0.1925  1.3389
  767MOL0     H 3490   3.664   1.044   0.753  1.3606 -3.6577  0.9480
  767MOL0     H 3491   3.614   1.004   0.920 -3.1475 -3.3758 -0.2236
  767MOL0     H 3492   3.399   0.945   0.854 -1.2173 -1.7873 -0.8460
  767MOL0     H 3493   3.426   0.991   0.680  0.5306  0.6257  0.2916
  767MOL0     H 3494   3.614   0.796   0.695  0.2145 -1.4067 -0.2329
  767MOL0     H 3495   3.445   0.739   0.682 -1.2711  1.4096  0.5830
  767MOL0     H 3496   3.730   0.752   0.939  0.8997 -2.1044 -2.1667
  767MOL0     H 3497   3.746   0.650   1.194  0.7833 -0.0623 -1.7959
  767MOL0     H 3498   3.585   0.580   1.252 -0.7278  0.9073 -1.1827
  767MOL0     H 3499   3.803   0.456   1.068 -0.4931  3.0028  0.1977
  767MOL0     H 3500   3.654   0.373   1.139 -1.6493  2.4338 -2.3741
  767MOL0     H 3501   3.737   0.375   1.347 -2.2388 -0.1097 -2.6127
  767MOL0     H 3502   3.867   0.493   1.303  0.9589 -0.2480 -2.7178
  767MOL0     H 3503   3.851   0.233   1.178 -0.0306  1.4525 -3.1159
  767MOL0     H 3504   3.950   0.271   1.327 -0.9738 -0.9463 -0.0610
  767MOL0     H 3505   4.103   0.111   1.152 -0.1916  0.6078 -2.8260
  767MOL0     H 3506   4.418  -0.010   1.225  1.3399  2.2570 -2.0713
  767MOL0     H 3507   4.258  -0.068   1.169  2.1745 -1.7101 -1.4367
  767MOL0     H 3508   4.378  -0.031   1.052 -1.1283 -0.1757 -0.2111
  767MOL0     H 3509   4.773   0.468   1.260 -0.0587  1.2734 -1.0553
  767MOL0     H 3510   5.023   0.480   1.257  1.4187 -1.9617  1.5177
  767MOL0     H 3511   5.211   0.551   1.128  1.4858  0.1505 -0.1733
  767MOL0     H 3512   5.239   0.457   1.277 -2.3456 -0.2720 -0.4960
  767MOL0     H 3513   5.432   0.348   1.163 -1.2064  0.4391  0.8155
  767MOL0     H 3514   5.411   0.472   1.029 -1.7902  3.1509  0.1792
  767MOL0     H 3515   5.516   0.508   1.304 -3.3684 -0.2100 -0.4767
  767MOL0     H 3516   5.481   0.652   1.189  1.4410  1.6002 -1.8959
  767MOL0     H 3517   5.678   0.438   1.147 -1.4688 -1.0504  0.4120
  767MOL0     H 3518   5.636   0.561   1.034 -1.3737 -2.8210 -0.5594
  767MOL0     H 3519   5.757   0.588   1.317  1.2310 -1.9414 -0.7593
  767MOL0     H 3520   5.732   0.737   1.229  0.5530  0.5626  1.8276
  767MOL0     H 3521   5.875   0.659   1.041  1.4905 -0.7698 -0.6029
  767MOL0     H 3522   5.949   0.705   1.185 -1.0938  0.3589 -0.1432
  767MOL0     H 3523   5.922   0.414   1.130  0.3450  0.8133 -2.5634
  767MOL0     H 3524   6.003   0.494   1.268  1.2168  0.9855 -0.6383
  767MOL0     H 3525   6.156   0.426   1.104 -1.8796 -1.7677 -1.4093
  767MOL0     H 3526   6.141   0.609   1.121 -1.2252  1.0223  0.9622
  767MOL0     H 3527   5.049   0.169   0.967 -2.3425 -2.2760 -0.6944
  767MOL0     H 3528   4.801   0.173   0.954  1.8539 -2.4608 -1.1716
  767MOL0     H 3529   4.447   0.467   1.140 -2.0800  1.9775  3.0605
  767MOL0     H 3530   4.218   0.519   1.143 -0.5080 -1.4946  1.0505
  767MOL0     H 3531   4.125   1.305   1.262 -0.8610  0.5312 -2.8947
  767MOL0     H 3532   4.326   1.332   1.392 -1.8528  1.9813  2.9759
  767MOL0     H 3533   4.654   1.419   1.557 -0.4048  0.9201 -2.5396
  767MOL0     H 3534   4.813   1.418   1.733 -3.9630 -1.6738 -2.8003
  767MOL0     H 3535   4.950   1.529   1.928 -2.1808 -1.0817 -2.1164
  767MOL0     H 3536   5.031   1.418   1.822 -0.7102  0.2366  0.4635
  767MOL0     H 3537   5.189   1.613   1.972 -1.5375  0.6414 -1.1711
  767MOL0     H 3538   5.249   1.537   1.836  1.7418 -0.4524  0.4710
  767MOL0     H 3539   5.192   1.311   1.943  0.3133 -0.2782 -0.5452
  767MOL0     H 3540   5.149   1.403   2.091 -0.0469 -1.2164 -0.1231
  767MOL0     H 3541   5.428   1.388   1.962  1.7502  1.8121  0.1571
  767MOL0     H 3542   5.369   1.304   2.116 -0.9141 -0.6322 -0.6109
  767MOL0     H 3543   5.484   1.632   2.312  0.6612 -2.6051  0.9755
  767MOL0     H 3544   4.974   1.796   1.584 -0.1635 -0.9574 -0.7664
  767MOL0     H 3545   4.780   1.817   1.432  0.1363  0.4333  1.3349
  768MOL0     O 3546   3.203   9.325   0.383 -0.6899 -0.6593 -0.9466
  768MOL0     C 3547   3.234   9.440   0.412 -0.1209 -0.0525  0.0310
  768MOL0     O 3548   3.359   9.507   0.383  0.3103  1.1048 -0.1000
  768MOL0     C 3549   3.467   9.431   0.358 -0.5450 -0.5709  0.1086
  768MOL0     C 3550   3.485   9.345   0.244  0.3924  0.2035  0.3026
  768MOL0     C 3551   3.609   9.280   0.214 -0.6207 -0.2177  0.6091
  768MOL0     C 3552   3.720   9.305   0.296  0.2662 -0.0942  0.2938
  768MOL0     O 3553   3.847   9.256   0.276 -0.3779 -0.4470  0.3715
  768MOL0     C 3554   3.866   9.149   0.369  0.9295  0.3906  1.0016
  768MOL0     C 3555   4.000   9.077   0.341 -1.3793 -0.4022 -0.2936
  768MOL0     C 3556   3.999   8.966   0.242  0.4280  0.6322  0.0439
  768MOL0     C 3557   4.137   8.898   0.241  0.9895  0.7367  0.5797
  768MOL0     C 3558   4.143   8.791   0.118 -0.8619  0.5306 -0.7155
  768MOL0     C 3559   4.286   8.725   0.131  0.4348 -0.4718 -0.7273
  768MOL0     C 3560   4.301   8.603   0.046  0.4702  1.2791  0.0137
  768MOL0     C 3561   4.448   8.554   0.017  0.5400 -0.4406 -0.6985
  768MOL0     N 3562   4.518   8.569   0.143 -0.4343 -1.2943  0.2223
  768MOL0     C 3563   4.491   8.499   0.260  0.5052  0.1658 -0.7021
  768MOL0     C 3564   4.579   8.543   0.357 -0.1996  0.8023  1.1569
  768MOL0     C 3565   4.574   8.487   0.505  0.3490  0.4856  0.0768
  768MOL0     C 3566   4.427   8.526   0.554 -0.6026 -0.3596 -0.1862
  768MOL0     C 3567   4.406   8.512   0.703 -0.4589  0.0643 -0.7914
  768MOL0     C 3568   4.276   8.552   0.757 -0.0225 -0.8937  0.0843
  768MOL0     O 3569   4.183   8.484   0.681 -0.0633 -0.0438 -0.0496
  768MOL0     C 3570   4.082   8.560   0.622 -0.3877 -0.5226  0.2984
  768MOL0     C 3571   4.024   8.680   0.671  0.9846  0.9775 -0.1168
  768MOL0     C 3572   3.911   8.733   0.609  1.0685  0.0495 -0.1105
  768MOL0     C 3573   3.853   8.854   0.680  0.8565 -0.7853 -0.8053
  768MOL0     C 3574   3.864   8.668   0.491  1.0948  0.7302 -0.3137
  768MOL0     C 3575   3.743   8.722   0.419  0.9603 -0.1664 -0.0256
  768MOL0     O 3576   3.677   8.833   0.464 -0.5472  0.2607 -0.3542
  768MOL0     C 3577   3.546   8.859   0.432  0.1588  0.7786 -0.4349
  768MOL0     C 3578   3.457   8.754   0.414 -0.7789  0.4275 -0.1522
  768MOL0     C 3579   3.324   8.783   0.379 -0.3675 -0.6783 -1.3690
  768MOL0     C 3580   3.285   8.916   0.351 -0.0151  1.2160  0.3027
  768MOL0     O 3581   3.154   8.927   0.314  0.7293 -0.4203 -0.7144
  768MOL0     C 3582   3.093   9.040   0.239  0.5792  0.8043 -0.3945
  768MOL0     C 3583   3.136   9.059   0.095  0.7534  0.0235 -0.1520
  768MOL0     C 3584   3.036   9.135   0.009 -0.4945 -0.5697 -0.3338
  768MOL0     C 3585   2.892   9.084   0.001  0.3058  0.0473 -0.1340
  768MOL0     C 3586   2.872   9.008  -0.127 -0.1838 -0.2119  0.4696
  768MOL0     C 3587   2.726   8.979  -0.142  0.6756 -0.1297  0.7478
  768MOL0     C 3588   2.712   8.857  -0.233  0.1401  0.0984 -0.2145
  768MOL0     C 3589   2.725   8.888  -0.381  0.2481 -0.3597  0.0018
  768MOL0    Cl 3590   2.664   8.759  -0.476  0.2595  0.2834  0.1113
  768MOL0     C 3591   3.371   9.018   0.382 -0.7146  0.0053  0.1720
  768MOL0     C 3592   3.499   8.991   0.430  0.5031  0.2374 -0.4510
  768MOL0     O 3593   3.711   8.658   0.313 -0.0901 -0.7528  0.0733
  768MOL0     C 3594   3.920   8.548   0.447 -0.5671  0.4861 -0.1441
  768MOL0     C 3595   4.031   8.497   0.513 -0.5328  0.4587  1.1279
  768MOL0     N 3596   4.661   8.628   0.286  0.6992 -0.7692 -0.3176
  768MOL0     N 3597   4.618   8.659   0.163  0.0035  0.3526 -0.0470
  768MOL0     C 3598   3.700   9.392   0.411 -0.0777 -0.5672 -0.9905
  768MOL0     C 3599   3.577   9.447   0.445  0.4060 -0.2958  0.7838
  768MOL0     C 3600   3.133   9.526   0.490 -0.8907  0.8080 -0.0662
  768MOL0     C 3601   2.998   9.517   0.460 -0.6893  0.7794 -0.6838
  768MOL0     C 3602   2.907   9.598   0.521 -0.4512  0.5664 -0.1497
  768MOL0     C 3603   2.943   9.690   0.617  0.0194  0.0820  0.1668
  768MOL0     O 3604   2.859   9.780   0.688 -0.0238  0.6672 -0.1941
  768MOL0     C 3605   2.725   9.731   0.717 -0.4550  0.4221 -0.3729
  768MOL0     C 3606   2.673   9.795   0.846 -0.6715  0.0416  0.0164
  768MOL0     C 3607   2.519   9.754   0.868 -0.8746  0.3499 -0.6179
  768MOL0     C 3608   2.471   9.826   0.999 -1.0681  0.2803  0.7359
  768MOL0     C 3609   2.403   9.952   0.966  0.4197  0.2595 -0.2609
  768MOL0     C 3610   2.343  10.054   0.938 -0.9055  0.5319  0.0597
  768MOL0     C 3611   3.086   9.702   0.641  0.3982  0.5450  0.4335
  768MOL0     C 3612   3.177   9.614   0.575  1.1064  0.0332 -0.4849
  768MOL0     H 3613   3.398   9.352   0.178  1.1036 -2.6978 -1.0911
  768MOL0     H 3614   3.625   9.229   0.120 -1.3300 -1.4045  1.1179
  768MOL0     H 3615   3.870   9.192   0.470  0.4869 -0.5100  1.4123
  768MOL0     H 3616   3.789   9.071   0.370 -0.6195  1.5796 -3.4020
  768MOL0     H 3617   4.085   9.145   0.329  0.2499 -2.0235  1.3758
  768MOL0     H 3618   4.032   9.022   0.430  0.0984  1.9848  0.7631
  768MOL0     H 3619   3.917   8.897   0.262 -0.6478  1.8019 -0.2141
  768MOL0     H 3620   3.974   9.013   0.146  0.2250  0.8179  0.1857
  768MOL0     H 3621   4.208   8.980   0.231 -0.4925  1.9720 -0.2408
  768MOL0     H 3622   4.159   8.838   0.330  1.4569  0.9789  0.6252
  768MOL0     H 3623   4.070   8.710   0.123  2.6750 -2.8659  1.5667
  768MOL0     H 3624   4.151   8.849   0.025 -1.3237 -1.5116 -2.0754
  768MOL0     H 3625   4.356   8.806   0.107 -2.2079  1.6919 -1.7325
  768MOL0     H 3626   4.298   8.693   0.235 -0.8787 -1.4964 -0.8646
  768MOL0     H 3627   4.258   8.520   0.104  1.8387  0.2749 -0.3488
  768MOL0     H 3628   4.254   8.620  -0.051  0.6362 -0.2964 -0.3720
  768MOL0     H 3629   4.493   8.608  -0.067 -1.5816  2.1611 -0.3118
  768MOL0     H 3630   4.430   8.449  -0.007 -1.4694 -0.0038 -1.3585
  768MOL0     H 3631   4.409   8.429   0.273  1.5547 -1.4500 -2.3051
  768MOL0     H 3632   4.590   8.380   0.513  0.2364  0.4950  0.4352
  768MOL0     H 3633   4.647   8.555   0.550  0.4497  2.2473 -2.5178
  768MOL0     H 3634   4.356   8.455   0.511  1.8499 -4.6114  2.1217
  768MOL0     H 3635   4.390   8.622   0.517 -1.3460 -1.2693 -1.8819
  768MOL0     H 3636   4.488   8.576   0.737 -1.2290  0.3714  0.5532
  768MOL0     H 3637   4.424   8.406   0.727  3.0921  0.6078 -0.5453
  768MOL0     H 3638   4.265   8.661   0.754  0.1570 -0.8761  0.1043
  768MOL0     H 3639   4.273   8.500   0.853  1.7300  0.5794  1.0089
  768MOL0     H 3640   4.061   8.730   0.760 -1.0646  0.8434  0.8714
  768MOL0     H 3641   3.876   8.949   0.632  2.6342 -0.9768 -0.3886
  768MOL0     H 3642   3.749   8.843   0.713  0.7337 -0.9126 -1.2358
  768MOL0     H 3643   3.901   8.864   0.778  3.3241 -0.4351 -2.0050
  768MOL0     H 3644   3.486   8.649   0.423  1.3567  1.0338  0.7429
  768MOL0     H 3645   3.247   8.708   0.396 -1.2866  0.3308 -0.9139
  768MOL0     H 3646   2.988   9.013   0.250  0.3682 -0.0583 -3.3973
  768MOL0     H 3647   3.099   9.132   0.298 -2.8904  1.1100 -0.3064
  768MOL0     H 3648   3.229   9.115   0.107 -0.5735  1.7241  4.4467
  768MOL0     H 3649   3.162   8.964   0.047  0.8214 -0.9509  1.7079
  768MOL0     H 3650   3.085   9.148  -0.087  2.7121 -0.0148  1.2481
  768MOL0     H 3651   3.030   9.231   0.061 -0.7548 -0.9940  0.4324
  768MOL0     H 3652   2.874   9.018   0.086 -1.9321  1.5185  0.6233
  768MOL0     H 3653   2.817   9.164  -0.002  2.1368  2.0268  2.5852
  768MOL0     H 3654   2.934   8.918  -0.122  0.2345  0.1152  1.6155
  768MOL0     H 3655   2.909   9.060  -0.215 -2.9636  0.0131 -0.6486
  768MOL0     H 3656   2.674   8.961  -0.047 -0.4743 -0.4024  0.0782
  768MOL0     H 3657   2.687   9.068  -0.192  1.4336 -0.3526 -0.2708
  768MOL0     H 3658   2.613   8.812  -0.223  0.0128  0.2367 -0.8091
  768MOL0     H 3659   2.789   8.783  -0.209  2.1454  1.9041 -0.7620
  768MOL0     H 3660   2.831   8.903  -0.404  0.6800 -2.5371  0.3539
  768MOL0     H 3661   2.661   8.974  -0.404  1.7826  1.1255  1.0160
  768MOL0     H 3662   3.338   9.119   0.361  2.0354  0.7722 -1.0000
  768MOL0     H 3663   3.558   9.077   0.457  1.8853  0.1847 -2.9756
  768MOL0     H 3664   3.872   8.492   0.368 -1.1000  2.0103 -0.9385
  768MOL0     H 3665   4.063   8.399   0.480 -1.7437  1.2506 -2.9585
  768MOL0     H 3666   3.789   9.415   0.469  0.4143 -1.4367 -1.3766
  768MOL0     H 3667   3.572   9.519   0.526  1.0827  1.1769 -0.4285
  768MOL0     H 3668   2.946   9.451   0.390  0.7072 -1.1255 -0.0066
  768MOL0     H 3669   2.803   9.597   0.492  0.2116  1.9135 -2.8212
  768MOL0     H 3670   2.656   9.771   0.643 -1.4724  0.9286  0.8055
  768MOL0     H 3671   2.715   9.622   0.720  0.3953  0.3568  0.8758
  768MOL0     H 3672   2.674   9.904   0.839 -0.2931  0.0250 -0.1937
  768MOL0     H 3673   2.737   9.769   0.930 -0.6245 -0.1836 -0.0881
  768MOL0     H 3674   2.491   9.649   0.874 -1.6690  0.5786 -0.1206
  768MOL0     H 3675   2.470   9.801   0.782 -0.9526 -0.1202 -0.8335
  768MOL0     H 3676   2.549   9.861   1.067 -2.5939  2.4718  1.4831
  768MOL0     H 3677   2.409   9.755   1.056 -2.7442  1.1662  0.0794
  768MOL0     H 3678   2.292  10.145   0.914 -3.4762 -0.5294  1.1222
  768MOL0     H 3679   3.119   9.767   0.721 -4.0868  1.7845  1.6018
  768MOL0     H 3680   3.282   9.626   0.599  1.7052 -0.9964 -2.3971
  769MOL0     O 3681   6.862   6.293   5.916 -0.4322  0.2574  0.1060
  769MOL0     C 3682   6.947   6.373   5.961 -0.4219  0.7359 -0.0092
  769MOL0     O 3683   6.917   6.491   6.021  0.1817  0.4814  0.6755
  769MOL0     C 3684   6.787   6.549   6.004 -0.4508  0.6687  0.0594
  769MOL0     C 3685   6.674   6.481   6.051 -0.8632  0.3025 -0.3477
  769MOL0     C 3686   6.548   6.537   6.027 -0.4189 -0.6889 -0.0883
  769MOL0     C 3687   6.538   6.669   5.977  0.3592  1.0876 -0.5585
  769MOL0     O 3688   6.414   6.717   5.983  0.3206 -0.7009 -0.0413
  769MOL0     C 3689   6.385   6.832   5.900  0.1956  0.2814  0.1427
  769MOL0     C 3690   6.230   6.866   5.895  0.6600  0.2409 -0.0829
  769MOL0     C 3691   6.161   6.745   5.823  1.3760  0.0260  0.3345
  769MOL0     C 3692   6.012   6.765   5.802 -0.9246 -0.2824  0.1236
  769MOL0     C 3693   5.927   6.729   5.923 -0.3089 -0.0482  0.5775
  769MOL0     C 3694   5.934   6.575   5.971  0.6256 -0.1441  0.1256
  769MOL0     C 3695   5.923   6.471   5.859 -0.2604 -0.3383  0.0802
  769MOL0     C 3696   5.796   6.484   5.773  0.2619  0.2653  0.5311
  769MOL0     N 3697   5.817   6.372   5.664  0.4239  0.0398 -0.1520
  769MOL0     C 3698   5.724   6.359   5.560 -0.2254 -0.0439 -0.2061
  769MOL0     C 3699   5.768   6.252   5.488 -0.3830 -0.0523 -0.7816
  769MOL0     C 3700   5.704   6.191   5.369 -0.4556 -0.5017 -0.2158
  769MOL0     C 3701   5.710   6.277   5.241 -0.1663 -0.3293 -0.0622
  769MOL0     C 3702   5.636   6.218   5.126 -0.1163 -0.9283  0.0118
  769MOL0     C 3703   5.483   6.201   5.147 -0.2424 -0.1013 -0.5359
  769MOL0     O 3704   5.412   6.323   5.163  0.3628 -0.1482  0.2421
  769MOL0     C 3705   5.279   6.290   5.204 -0.7589  0.5465 -0.3152
  769MOL0     C 3706   5.248   6.317   5.334 -0.2685  0.4337 -0.5650
  769MOL0     C 3707   5.121   6.289   5.386 -0.2490  0.5632 -0.1026
  769MOL0     C 3708   5.098   6.312   5.534 -0.5816  0.9202  0.6351
  769MOL0     C 3709   5.017   6.239   5.305 -0.0705  0.2341 -0.4649
  769MOL0     C 3710   4.878   6.213   5.354 -0.6385 -0.3912  0.0507
  769MOL0     O 3711   4.818   6.111   5.292  0.7865 -0.2378 -0.6081
  769MOL0     C 3712   4.683   6.086   5.324  0.4938  0.9498 -0.6447
  769MOL0     C 3713   4.655   6.020   5.447 -0.6168  0.5274  0.8394
  769MOL0     C 3714   4.527   5.978   5.473  0.6035  0.3228 -0.0127
  769MOL0     C 3715   4.432   6.003   5.377  0.0932 -0.1334  0.1320
  769MOL0     O 3716   4.311   5.948   5.408  0.0191  0.3758 -0.2696
  769MOL0     C 3717   4.269   5.852   5.310  1.3248  0.0526 -0.1671
  769MOL0     C 3718   4.149   5.762   5.355 -0.1657  0.3947  0.2704
  769MOL0     C 3719   4.034   5.851   5.399 -0.3572  0.8755  0.2121
  769MOL0     C 3720   3.915   5.745   5.428 -0.8373 -0.2513 -0.1136
  769MOL0     C 3721   3.802   5.764   5.326  0.5730  0.2165  0.0217
  769MOL0     C 3722   3.664   5.713   5.379 -0.4583  0.1158 -1.1528
  769MOL0     C 3723   3.547   5.758   5.288 -0.1799 -0.7709  0.1338
  769MOL0     C 3724   3.423   5.745   5.386  0.1054 -0.0637 -0.2832
  769MOL0    Cl 3725   3.265   5.769   5.307 -0.1483  0.0994 -0.1906
  769MOL0     C 3726   4.456   6.080   5.269  0.9361  0.1339 -0.2194
  769MOL0     C 3727   4.583   6.116   5.231 -0.4934 -1.2575  0.0712
  769MOL0     O 3728   4.831   6.299   5.431  0.1637 -0.2610  0.6276
  769MOL0     C 3729   5.052   6.213   5.169 -0.0598 -0.3279  0.3484
  769MOL0     C 3730   5.187   6.225   5.127  0.7777 -0.1200 -0.5277
  769MOL0     N 3731   5.877   6.192   5.555  0.5725  0.2688  0.1127
  769MOL0     N 3732   5.912   6.273   5.652  0.7634  0.2194 -0.6197
  769MOL0     C 3733   6.650   6.729   5.920  0.0838  0.7712 -0.0821
  769MOL0     C 3734   6.776   6.675   5.937  0.7304  0.1428  0.5149
  769MOL0     C 3735   7.083   6.328   5.954 -0.4447  0.0482  0.5401
  769MOL0     C 3736   7.186   6.422   5.934  0.1681  0.1421  0.4144
  769MOL0     C 3737   7.320   6.375   5.938  0.4111 -0.0884 -0.4151
  769MOL0     C 3738   7.351   6.233   5.940 -0.1382  0.1580  0.4921
  769MOL0     O 3739   7.477   6.180   5.945  0.0960 -0.0852  0.3033
  769MOL0     C 3740   7.561   6.209   6.051  0.3644 -0.1094 -0.6428
  769MOL0     C 3741   7.682   6.117   6.049 -0.7543 -0.3813  0.1501
  769MOL0     C 3742   7.782   6.164   5.943 -0.8877  0.8822  0.7310
  769MOL0     C 3743   7.874   6.048   5.898 -0.2989  0.0531 -1.0337
  769MOL0     C 3744   7.956   6.005   6.010  0.1295 -0.7649  0.2131
  769MOL0     C 3745   8.030   5.969   6.093 -0.4990 -0.2596  0.2917
  769MOL0     C 3746   7.240   6.148   5.929 -0.3994  1.0629 -0.4725
  769MOL0     C 3747   7.114   6.191   5.959 -0.1018  0.0593  0.8161
  769MOL0     H 3748   6.693   6.378   6.079  1.0278 -0.3120 -3.3577
  769MOL0     H 3749   6.455   6.492   6.060 -0.0753  1.3249  4.3926
  769MOL0     H 3750   6.438   6.913   5.952 -2.0595  0.6258  2.0969
  769MOL0     H 3751   6.423   6.816   5.799 -1.5907 -2.5876 -0.1827
  769MOL0     H 3752   6.197   6.872   5.999 -0.7163  1.5013 -0.5564
  769MOL0     H 3753   6.206   6.958   5.840 -1.4829  1.0223  2.0216
  769MOL0     H 3754   6.211   6.737   5.726  0.9720  4.1393 -0.3779
  769MOL0     H 3755   6.183   6.653   5.878  1.5138 -0.1046  0.0593
  769MOL0     H 3756   5.986   6.869   5.779 -2.6190  0.8485  5.6380
  769MOL0     H 3757   5.985   6.694   5.723 -1.3237 -1.1589  1.0361
  769MOL0     H 3758   5.957   6.788   6.010  2.2825  0.8442 -0.8061
  769MOL0     H 3759   5.824   6.761   5.902  1.0099  3.5145 -1.4046
  769MOL0     H 3760   6.020   6.561   6.038 -0.4440  0.7303  1.7702
  769MOL0     H 3761   5.853   6.559   6.043  1.5533  0.9592  1.4852
  769MOL0     H 3762   6.009   6.493   5.796  1.0710  2.5243  2.6241
  769MOL0     H 3763   5.920   6.376   5.913  0.0930 -0.2873  0.1911
  769MOL0     H 3764   5.802   6.584   5.731  1.9399  0.2566  0.6779
  769MOL0     H 3765   5.716   6.473   5.847 -0.1016 -2.3752 -0.1506
  769MOL0     H 3766   5.644   6.431   5.552 -1.1331 -0.6938  2.2216
  769MOL0     H 3767   5.763   6.101   5.350 -2.3530 -1.4232 -2.1400
  769MOL0     H 3768   5.604   6.164   5.403  0.1529 -1.7200  0.7059
  769MOL0     H 3769   5.812   6.294   5.206 -0.6112 -2.4323 -2.7714
  769MOL0     H 3770   5.658   6.373   5.249 -1.8018 -1.1725 -0.0735
  769MOL0     H 3771   5.687   6.124   5.102  1.1561  0.0171 -1.2343
  769MOL0     H 3772   5.639   6.285   5.039  0.6355 -0.4417  0.3974
  769MOL0     H 3773   5.469   6.146   5.241  0.3701  0.4725 -0.0960
  769MOL0     H 3774   5.434   6.139   5.071 -5.2266  4.4204 -1.5862
  769MOL0     H 3775   5.325   6.361   5.396 -2.2933  1.6817  1.1969
  769MOL0     H 3776   5.046   6.225   5.574 -1.8835  1.7601  0.8456
  769MOL0     H 3777   5.189   6.317   5.595 -2.1234  2.1939  3.0043
  769MOL0     H 3778   5.059   6.412   5.555  1.7764  1.7242  1.4899
  769MOL0     H 3779   4.740   5.992   5.509  1.1924  0.0339 -1.6842
  769MOL0     H 3780   4.505   5.925   5.565  2.3522 -1.5385 -0.5842
  769MOL0     H 3781   4.243   5.905   5.218 -2.1104  1.3031  1.3719
  769MOL0     H 3782   4.354   5.784   5.294  1.5014  0.8031 -2.9191
  769MOL0     H 3783   4.113   5.691   5.280 -2.0648 -0.4448  1.9026
  769MOL0     H 3784   4.189   5.709   5.442 -3.1292 -1.2595  0.7536
  769MOL0     H 3785   4.000   5.923   5.324 -1.2941 -2.0515 -2.4001
  769MOL0     H 3786   4.049   5.893   5.499 -0.2292 -1.2009  1.1227
  769MOL0     H 3787   3.938   5.639   5.431 -1.7513 -0.6182 -2.9027
  769MOL0     H 3788   3.876   5.767   5.528 -0.8250  2.7490 -0.6642
  769MOL0     H 3789   3.822   5.718   5.229  1.8694  1.2691 -0.2357
  769MOL0     H 3790   3.800   5.871   5.304  0.8856  0.3651  0.6870
  769MOL0     H 3791   3.666   5.604   5.380  0.0123  0.1027  1.0148
  769MOL0     H 3792   3.652   5.740   5.484 -1.2313 -0.1485 -1.1676
  769MOL0     H 3793   3.550   5.691   5.202  0.5310 -2.6659  1.5646
  769MOL0     H 3794   3.548   5.862   5.255 -0.2382 -0.7634  0.1536
  769MOL0     H 3795   3.436   5.815   5.470  1.9041 -2.0119  1.1722
  769MOL0     H 3796   3.419   5.653   5.445  0.0243  2.0993  3.4109
  769MOL0     H 3797   4.362   6.106   5.221 -0.6969  1.2744  3.3052
  769MOL0     H 3798   4.612   6.164   5.138 -1.5084  0.4595  0.5932
  769MOL0     H 3799   4.978   6.169   5.103  0.0946  2.2327 -1.6746
  769MOL0     H 3800   5.213   6.186   5.029  2.3803  0.7164 -0.4717
  769MOL0     H 3801   6.649   6.818   5.858  2.1948  1.1821  0.3899
  769MOL0     H 3802   6.857   6.728   5.888 -2.4028  1.9262 -3.3397
  769MOL0     H 3803   7.166   6.528   5.920  0.3442  0.2577  1.0190
  769MOL0     H 3804   7.411   6.434   5.944 -0.3605  0.9829  1.3096
  769MOL0     H 3805   7.592   6.314   6.050  1.9411 -0.5342  0.4638
  769MOL0     H 3806   7.499   6.195   6.140 -1.1844  5.3772 -0.4901
  769MOL0     H 3807   7.648   6.014   6.038  3.0257 -1.7121 -0.4069
  769MOL0     H 3808   7.727   6.138   6.147 -0.5221 -1.2856  0.2403
  769MOL0     H 3809   7.846   6.246   5.975 -0.6471  1.8035 -1.8916
  769MOL0     H 3810   7.735   6.204   5.853  1.3527 -0.1773 -1.0068
  769MOL0     H 3811   7.943   6.077   5.817  0.6182  0.3432 -0.1718
  769MOL0     H 3812   7.814   5.963   5.864 -0.4970  0.3815 -1.5231
  769MOL0     H 3813   8.090   5.916   6.164 -1.6137 -4.0656 -1.3562
  769MOL0     H 3814   7.273   6.047   5.907 -1.6824  0.0013  2.0319
  769MOL0     H 3815   7.034   6.117   5.959  1.1268 -1.3342 -0.0692
  770MOL0     O 3816   2.863  10.297   9.488  0.2118  0.1550  0.1038
  770MOL0     C 3817   2.860  10.203   9.407 -0.3887  0.3836  0.2491
  770MOL0     O 3818   2.761  10.129   9.369  0.4799 -0.0951  0.1457
  770MOL0     C 3819   2.631  10.164   9.413 -0.1487  0.0333 -0.0122
  770MOL0     C 3820   2.584  10.294   9.425  0.7623  1.0139  0.3626
  770MOL0     C 3821   2.448  10.307   9.465 -0.6338  0.0049 -0.3509
  770MOL0     C 3822   2.371  10.198   9.499 -0.3870  0.1651  0.4631
  770MOL0     O 3823   2.250  10.201   9.553  0.5912  0.4915 -0.4161
  770MOL0     C 3824   2.138  10.253   9.470 -0.9623 -0.3925  0.5248
  770MOL0     C 3825   2.019  10.160   9.472 -1.2054  0.1190  0.2627
  770MOL0     C 3826   1.934  10.188   9.594 -0.2749 -0.1354 -0.0962
  770MOL0     C 3827   1.858  10.054   9.613  1.1938 -0.7725 -0.3923
  770MOL0     C 3828   1.735  10.085   9.711  0.8015 -0.0597  0.4573
  770MOL0     C 3829   1.656   9.954   9.759  0.0402  0.7446 -0.5514
  770MOL0     C 3830   1.601   9.887   9.637  0.0141  1.0172  0.0780
  770MOL0     C 3831   1.522   9.763   9.676  0.9773 -0.5147 -0.1296
  770MOL0     N 3832   1.389   9.799   9.745  0.0218  0.0065  0.1744
  770MOL0     C 3833   1.362   9.783   9.880  1.0286  0.4160 -0.1099
  770MOL0     C 3834   1.231   9.800   9.899 -0.0548  0.1708  0.4116
  770MOL0     C 3835   1.174   9.793  10.035 -0.0257 -0.9550  0.3668
  770MOL0     C 3836   1.020   9.834  10.043 -1.0195  0.5428 -0.5196
  770MOL0     C 3837   0.966   9.855  10.180 -0.3600  0.0568 -0.4796
  770MOL0     C 3838   0.841   9.936  10.188 -1.1815  0.4752  1.0209
  770MOL0     O 3839   0.737   9.887  10.099  0.0062 -0.1649  0.8389
  770MOL0     C 3840   0.600   9.912  10.116 -0.5062  0.4573 -0.1759
  770MOL0     C 3841   0.506   9.830  10.061 -0.1885 -0.0286 -0.1600
  770MOL0     C 3842   0.370   9.842  10.067  0.1327 -0.4268  0.3569
  770MOL0     C 3843   0.285   9.738   9.994  0.0704 -0.4522  0.3351
  770MOL0     C 3844   0.326   9.962  10.135  0.0950  0.7379  0.1843
  770MOL0     C 3845   0.188   9.994  10.161 -0.4131 -0.1071 -1.5110
  770MOL0     O 3846   0.172  10.097  10.248 -0.4796 -0.1106  0.5015
  770MOL0     C 3847   0.038  10.129  10.287 -0.1249 -0.0823  0.1406
  770MOL0     C 3848  -0.035  10.048  10.380 -0.5307  0.6035  0.3744
  770MOL0     C 3849  -0.167  10.079  10.404 -0.8235  0.5284 -0.2037
  770MOL0     C 3850  -0.240  10.169  10.320 -0.3377  0.2753  0.2916
  770MOL0     O 3851  -0.374  10.201  10.329 -0.1129 -0.5472 -0.1343
  770MOL0     C 3852  -0.464  10.122  10.415  0.4417 -0.0382  0.4422
  770MOL0     C 3853  -0.609  10.178  10.393 -0.3071  1.6822  0.9367
  770MOL0     C 3854  -0.697  10.129  10.508 -0.1619 -0.4902 -0.1129
  770MOL0     C 3855  -0.832  10.188  10.483  0.8275 -0.0026 -0.9232
  770MOL0     C 3856  -0.935  10.170  10.597  0.1365  0.4238 -0.0669
  770MOL0     C 3857  -1.072  10.230  10.560 -0.1434  0.2948 -0.2490
  770MOL0     C 3858  -1.169  10.217  10.681  0.3828 -0.2041  1.3792
  770MOL0     C 3859  -1.308  10.268  10.635  0.2094  0.2218  0.0306
  770MOL0    Cl 3860  -1.320  10.446  10.652  0.3860 -0.4996  0.3137
  770MOL0     C 3861  -0.166  10.252  10.234 -0.3438 -0.4979 -0.5757
  770MOL0     C 3862  -0.024  10.237  10.218 -0.2758  0.1749  0.4363
  770MOL0     O 3863   0.101   9.953  10.085  0.6306 -0.3197  0.2497
  770MOL0     C 3864   0.422  10.054  10.184 -0.0206  0.5075  1.0725
  770MOL0     C 3865   0.561  10.025  10.175  0.0522  1.0671 -0.2988
  770MOL0     N 3866   1.181   9.833   9.773 -0.1193  0.1600  0.2172
  770MOL0     N 3867   1.273   9.820   9.685  0.5150  0.8481  0.1896
  770MOL0     C 3868   2.424  10.072   9.482  0.0732  0.7795 -0.0877
  770MOL0     C 3869   2.549  10.056   9.436 -0.1260 -0.1081 -0.7746
  770MOL0     C 3870   2.989  10.170   9.330  0.6985 -0.7572 -0.4375
  770MOL0     C 3871   3.096  10.260   9.345 -0.3850 -0.1203 -0.7816
  770MOL0     C 3872   3.206  10.254   9.262  0.1303  0.2166  0.5142
  770MOL0     C 3873   3.205  10.167   9.150 -0.3013 -0.6893  0.6764
  770MOL0     O 3874   3.308  10.152   9.060 -0.6634 -0.3162 -0.5667
  770MOL0     C 3875   3.421  10.235   9.085 -0.6219 -0.4651 -0.4967
  770MOL0     C 3876   3.391  10.372   9.033 -0.2546 -0.8320 -0.5859
  770MOL0     C 3877   3.403  10.388   8.877  0.1425  0.5366  0.1241
  770MOL0     C 3878   3.292  10.300   8.813 -0.1704 -0.4851  0.8951
  770MOL0     C 3879   3.282  10.338   8.671  0.4080 -0.3163  1.1911
  770MOL0     C 3880   3.269  10.376   8.558 -0.3486 -0.0927  0.4843
  770MOL0     C 3881   3.091  10.091   9.131 -0.3748  0.1380 -0.6743
  770MOL0     C 3882   2.980  10.084   9.217 -0.4518  0.5467 -0.1090
  770MOL0     H 3883   2.638  10.388   9.416  0.2689  1.6235  2.9238
  770MOL0     H 3884   2.413  10.409   9.473  2.1047  1.4164 -3.7099
  770MOL0     H 3885   2.113  10.356   9.500 -2.2341 -0.5803  0.1704
  770MOL0     H 3886   2.171  10.257   9.366 -3.1344 -0.6498 -0.2285
  770MOL0     H 3887   1.966  10.169   9.377 -2.8909 -1.2659  1.0183
  770MOL0     H 3888   2.063  10.060   9.483  0.6295  1.0370  1.8355
  770MOL0     H 3889   1.997  10.230   9.674  3.8653 -0.8664 -2.6998
  770MOL0     H 3890   1.872  10.275   9.570  1.1015  1.2192  1.0139
  770MOL0     H 3891   1.817  10.024   9.516 -1.1068  0.3332  0.1733
  770MOL0     H 3892   1.915   9.969   9.651  2.8853  2.0231  4.1533
  770MOL0     H 3893   1.771  10.146   9.795 -1.2345  1.4300  0.3191
  770MOL0     H 3894   1.663  10.143   9.653 -0.0515 -1.2748  0.2770
  770MOL0     H 3895   1.717   9.885   9.817  2.3781  2.3241 -0.9812
  770MOL0     H 3896   1.577   9.994   9.823  0.5355  0.5136  0.2140
  770MOL0     H 3897   1.520   9.939   9.585  0.6738 -1.2041 -3.5395
  770MOL0     H 3898   1.677   9.857   9.564 -0.2945  0.4353 -0.0070
  770MOL0     H 3899   1.587   9.707   9.743 -0.2087  0.2327  1.7187
  770MOL0     H 3900   1.502   9.699   9.589 -1.0359  0.9526 -0.8142
  770MOL0     H 3901   1.438   9.744   9.947  2.3707 -0.6607 -2.1494
  770MOL0     H 3902   1.195   9.693  10.074 -0.7997 -0.9138  0.9246
  770MOL0     H 3903   1.230   9.864  10.097  2.0388 -0.5774 -1.7994
  770MOL0     H 3904   0.965   9.753   9.993 -0.1322 -0.0889 -0.4905
  770MOL0     H 3905   1.012   9.927   9.985  1.6099  0.1860 -1.5774
  770MOL0     H 3906   1.039   9.910  10.240 -0.2873 -0.1151 -0.4083
  770MOL0     H 3907   0.960   9.757  10.230  0.1259 -0.1763 -0.8660
  770MOL0     H 3908   0.857  10.041  10.162  1.5554 -0.2159 -0.3890
  770MOL0     H 3909   0.808   9.940  10.292  2.4492  0.6447  2.2756
  770MOL0     H 3910   0.548   9.740  10.016 -0.8424 -0.1624 -0.5111
  770MOL0     H 3911   0.247   9.766   9.896 -1.2959 -0.7799  0.7411
  770MOL0     H 3912   0.356   9.659   9.967  2.4933  0.9267  2.2711
  770MOL0     H 3913   0.200   9.700  10.052  0.5019  1.7147  2.5966
  770MOL0     H 3914   0.023   9.977  10.438 -1.5506  0.5911  1.4005
  770MOL0     H 3915  -0.217  10.037  10.491 -1.4931  2.1487  0.2355
  770MOL0     H 3916  -0.460  10.017  10.386 -1.0119  0.4916 -1.9129
  770MOL0     H 3917  -0.434  10.135  10.520  1.5386  0.1790  0.1188
  770MOL0     H 3918  -0.607  10.287  10.385  2.7408  1.6424  0.1994
  770MOL0     H 3919  -0.635  10.118  10.306  3.2241 -0.0936  0.9189
  770MOL0     H 3920  -0.673  10.175  10.604  0.8817 -0.8620 -0.1788
  770MOL0     H 3921  -0.690  10.023  10.533 -2.7813 -0.8184 -0.4982
  770MOL0     H 3922  -0.818  10.294  10.460  0.8653  0.4836  1.1503
  770MOL0     H 3923  -0.888  10.136  10.404  0.9996 -0.5217 -0.7065
  770MOL0     H 3924  -0.895  10.217  10.687 -1.4984  0.6492  0.5620
  770MOL0     H 3925  -0.944  10.061  10.608 -0.5203  0.5337  0.4975
  770MOL0     H 3926  -1.066  10.334  10.525 -3.0979  0.8964  0.7913
  770MOL0     H 3927  -1.115  10.166  10.482 -0.0368 -1.8442  1.3609
  770MOL0     H 3928  -1.135  10.267  10.772  5.6790  0.7421 -0.8023
  770MOL0     H 3929  -1.171  10.110  10.704 -2.0194 -0.9796 -1.6992
  770MOL0     H 3930  -1.387  10.224  10.696 -1.1675 -0.4896 -2.1686
  770MOL0     H 3931  -1.331  10.225  10.537 -0.8896  1.5046 -0.3011
  770MOL0     H 3932  -0.221  10.325  10.176  1.1705  1.4281  0.2560
  770MOL0     H 3933   0.039  10.305  10.162 -2.1384  2.1034  0.5472
  770MOL0     H 3934   0.407  10.144  10.242  2.1043 -0.1793  2.8289
  770MOL0     H 3935   0.633  10.100  10.209 -0.7104  1.3236  0.7774
  770MOL0     H 3936   2.354   9.992   9.498  0.2974  0.1872 -1.8042
  770MOL0     H 3937   2.582   9.954   9.417 -2.6386 -1.4769  1.4665
  770MOL0     H 3938   3.089  10.331   9.427 -3.7815 -0.7201 -0.3760
  770MOL0     H 3939   3.286  10.325   9.279  0.2166 -0.3155  2.6326
  770MOL0     H 3940   3.446  10.254   9.190 -0.6003  0.4654 -0.6663
  770MOL0     H 3941   3.516  10.206   9.040  0.5461  1.5111  0.5576
  770MOL0     H 3942   3.457  10.445   9.081 -0.5068 -0.1574 -1.2568
  770MOL0     H 3943   3.290  10.410   9.050  0.7487  1.9879 -0.3907
  770MOL0     H 3944   3.503  10.358   8.843 -0.5083  1.6271 -3.0316
  770MOL0     H 3945   3.408  10.491   8.841  0.2254  0.8404  0.9755
  770MOL0     H 3946   3.201  10.333   8.864 -1.1133  2.1305 -2.1754
  770MOL0     H 3947   3.315  10.193   8.808  1.2196 -0.1457 -1.9107
  770MOL0     H 3948   3.262  10.422   8.461 -1.7350  1.2229  1.1703
  770MOL0     H 3949   3.100  10.019   9.050  0.2220  0.2140 -0.6839
  770MOL0     H 3950   2.897  10.017   9.198  1.2656 -0.9636 -2.9487
  771MOL0     O 3951   4.067   2.496   9.823 -0.3980  0.0815  0.3137
  771MOL0     C 3952   4.106   2.501   9.708 -0.7141 -0.2862  0.0045
  771MOL0     O 3953   4.023   2.501   9.600  0.6150 -0.7372 -0.0532
  771MOL0     C 3954   3.885   2.506   9.612 -0.2580  0.3989  0.1861
  771MOL0     C 3955   3.815   2.557   9.717  0.4421  1.0152 -0.5120
  771MOL0     C 3956   3.668   2.558   9.712 -0.3491 -0.7298  0.3158
  771MOL0     C 3957   3.600   2.532   9.595 -0.7485  0.1946  0.4832
  771MOL0     O 3958   3.467   2.529   9.601  0.8771  0.4994 -0.8264
  771MOL0     C 3959   3.404   2.553   9.474  0.0463  0.1206 -0.3897
  771MOL0     C 3960   3.256   2.567   9.507 -0.1736  0.5766  0.4742
  771MOL0     C 3961   3.169   2.566   9.371 -0.3870 -0.0106  0.3930
  771MOL0     C 3962   3.018   2.584   9.402 -0.2294  0.1752 -0.4506
  771MOL0     C 3963   2.929   2.583   9.282 -0.3084 -0.7829 -0.0890
  771MOL0     C 3964   2.948   2.695   9.184 -0.2866  0.0825 -0.4464
  771MOL0     C 3965   2.822   2.685   9.092 -0.2411  0.4608  1.3139
  771MOL0     C 3966   2.823   2.683   8.938 -0.1970  0.2240  0.6510
  771MOL0     N 3967   2.905   2.574   8.880 -0.3648 -0.7052 -0.5957
  771MOL0     C 3968   3.038   2.585   8.842  0.0737 -0.2984 -0.0180
  771MOL0     C 3969   3.078   2.464   8.811 -0.3082  0.6692  0.1777
  771MOL0     C 3970   3.216   2.426   8.765 -1.1687 -0.0824 -0.2554
  771MOL0     C 3971   3.295   2.363   8.883  0.2776 -0.1734 -0.0501
  771MOL0     C 3972   3.245   2.209   8.907  0.1660 -0.0730 -0.7833
  771MOL0     C 3973   3.362   2.117   8.922 -0.6609 -0.3690  0.0388
  771MOL0     O 3974   3.416   2.107   8.784  0.6065  0.1502 -0.3795
  771MOL0     C 3975   3.539   2.053   8.766 -0.2357  1.2162 -0.8461
  771MOL0     C 3976   3.593   1.961   8.860  0.4680  0.1773 -0.4086
  771MOL0     C 3977   3.715   1.903   8.834 -0.3163 -0.3589  0.3336
  771MOL0     C 3978   3.782   1.829   8.948  0.1892  0.1220 -0.2789
  771MOL0     C 3979   3.789   1.917   8.714 -0.5617 -1.2819 -0.1719
  771MOL0     C 3980   3.921   1.865   8.675 -0.4521 -0.0261  0.6430
  771MOL0     O 3981   3.941   1.831   8.544  0.4474 -0.1160 -0.2243
  771MOL0     C 3982   4.067   1.794   8.509 -0.4677  0.0312 -0.9387
  771MOL0     C 3983   4.151   1.890   8.442  0.4441 -1.3130  0.1782
  771MOL0     C 3984   4.284   1.860   8.417 -0.1479  0.5845  0.1281
  771MOL0     C 3985   4.342   1.739   8.464 -0.2155  0.3101 -0.0519
  771MOL0     O 3986   4.472   1.702   8.445  0.5312 -0.9298 -0.3275
  771MOL0     C 3987   4.552   1.807   8.388 -0.0511 -0.4354  0.6731
  771MOL0     C 3988   4.701   1.771   8.367  0.3532 -0.5973  0.6055
  771MOL0     C 3989   4.758   1.838   8.239 -0.2007 -0.0465  0.0108
  771MOL0     C 3990   4.907   1.861   8.261  0.8931 -0.0815  0.0141
  771MOL0     C 3991   4.954   1.920   8.128  1.2622  0.0517  0.0571
  771MOL0     C 3992   5.094   1.988   8.132 -0.6135  0.2887 -0.4820
  771MOL0     C 3993   5.204   1.880   8.154 -0.4121 -0.4567  0.3333
  771MOL0     C 3994   5.310   1.918   8.255 -0.1595 -0.1099  0.6729
  771MOL0    Cl 3995   5.375   2.081   8.241 -0.4697  0.0728  0.6596
  771MOL0     C 3996   4.259   1.649   8.533 -0.4891  0.1187  0.8431
  771MOL0     C 3997   4.120   1.673   8.555 -0.7403  0.2456 -0.0617
  771MOL0     O 3998   4.006   1.858   8.763  0.0151 -0.3189  0.2614
  771MOL0     C 3999   3.738   2.010   8.625  0.5997  0.1817 -0.8714
  771MOL0     C 4000   3.608   2.076   8.648  0.1476  0.7019 -0.2517
  771MOL0     N 4001   2.971   2.376   8.824 -1.2875 -0.4527 -0.5892
  771MOL0     N 4002   2.868   2.454   8.864  0.1459 -0.0065  0.4872
  771MOL0     C 4003   3.672   2.479   9.484  0.3496 -0.3617  0.7514
  771MOL0     C 4004   3.812   2.481   9.493 -0.7650  1.0550 -0.1589
  771MOL0     C 4005   4.249   2.496   9.698 -0.2099  0.0364  0.2609
  771MOL0     C 4006   4.334   2.525   9.801  0.1173  0.7058 -0.6261
  771MOL0     C 4007   4.472   2.527   9.775 -0.3776 -0.5818  0.0238
  771MOL0     C 4008   4.532   2.511   9.644 -0.2893  1.3651  0.7216
  771MOL0     O 4009   4.659   2.542   9.603  0.8703 -0.1077 -0.7370
  771MOL0     C 4010   4.729   2.634   9.689 -1.0449 -0.7970  0.2918
  771MOL0     C 4011   4.674   2.776   9.703 -0.4442 -0.0845 -0.2578
  771MOL0     C 4012   4.770   2.876   9.760  0.0921 -0.8993 -0.5710
  771MOL0     C 4013   4.704   3.008   9.809  0.1885 -0.4735 -0.1613
  771MOL0     C 4014   4.616   3.087   9.720  0.1107  0.9354 -0.9039
  771MOL0     C 4015   4.553   3.164   9.654 -0.4103  0.1431  0.8353
  771MOL0     C 4016   4.435   2.464   9.547 -0.4760 -0.3130  0.4862
  771MOL0     C 4017   4.302   2.460   9.569 -0.2793  0.0808  0.2837
  771MOL0     H 4018   3.842   2.590   9.816 -1.5096  1.1574  0.0091
  771MOL0     H 4019   3.609   2.581   9.800  0.9918 -2.3990  1.7310
  771MOL0     H 4020   3.433   2.645   9.422 -3.2742  0.4595 -1.9048
  771MOL0     H 4021   3.412   2.472   9.402  2.5210  0.4334 -0.5587
  771MOL0     H 4022   3.226   2.483   9.570  1.3433 -1.2241 -1.1036
  771MOL0     H 4023   3.235   2.662   9.557  3.7318  0.5271  2.6307
  771MOL0     H 4024   3.195   2.652   9.308 -1.1785 -1.3608 -1.8851
  771MOL0     H 4025   3.173   2.474   9.313  0.6842 -1.2401  2.3272
  771MOL0     H 4026   2.985   2.493   9.452  1.6022 -0.2223  0.1233
  771MOL0     H 4027   3.004   2.674   9.462  3.5877  0.3508  0.4413
  771MOL0     H 4028   2.949   2.486   9.235 -0.3693 -1.2180  0.7735
  771MOL0     H 4029   2.824   2.583   9.310 -1.1065 -2.5998 -2.7823
  771MOL0     H 4030   2.935   2.796   9.225 -1.3726 -0.4357  0.5475
  771MOL0     H 4031   3.046   2.702   9.137 -0.9150  0.8520 -1.7271
  771MOL0     H 4032   2.772   2.588   9.100 -0.0532  0.2214 -0.1615
  771MOL0     H 4033   2.766   2.771   9.132  0.4200  1.6290 -0.1758
  771MOL0     H 4034   2.866   2.771   8.890 -0.9011  0.3119  0.1676
  771MOL0     H 4035   2.720   2.657   8.911 -0.0085 -1.5476  1.4976
  771MOL0     H 4036   3.103   2.671   8.830  0.7498 -0.9105 -0.8004
  771MOL0     H 4037   3.224   2.357   8.680  2.1993  1.4903 -1.3870
  771MOL0     H 4038   3.262   2.522   8.741  1.0893 -1.2232 -0.7227
  771MOL0     H 4039   3.273   2.412   8.978  2.2271  1.6173 -0.4371
  771MOL0     H 4040   3.401   2.380   8.862  0.1277 -1.8178 -2.5397
  771MOL0     H 4041   3.175   2.176   8.831  1.0770 -1.3988 -1.0790
  771MOL0     H 4042   3.188   2.213   9.001  0.0666 -0.1058 -0.8419
  771MOL0     H 4043   3.327   2.019   8.956  1.5329 -1.1510  0.1982
  771MOL0     H 4044   3.436   2.156   8.993  0.7488 -2.9006  0.0901
  771MOL0     H 4045   3.536   1.932   8.947  1.4661  0.5153  0.3710
  771MOL0     H 4046   3.850   1.751   8.913 -0.1234 -0.1076 -0.3748
  771MOL0     H 4047   3.844   1.903   9.001  0.7653  0.1034 -0.9127
  771MOL0     H 4048   3.713   1.774   9.012 -0.2710 -2.7994 -3.0827
  771MOL0     H 4049   4.101   1.976   8.399 -1.2158 -2.0411  0.5676
  771MOL0     H 4050   4.343   1.928   8.355  2.5400 -0.6627  1.1415
  771MOL0     H 4051   4.513   1.828   8.288  0.2212  0.9554  0.8445
  771MOL0     H 4052   4.535   1.895   8.450  1.1644 -1.7247  2.9910
  771MOL0     H 4053   4.765   1.798   8.451 -0.8858  1.7988  0.8568
  771MOL0     H 4054   4.708   1.662   8.370  1.4272 -0.6723 -1.7738
  771MOL0     H 4055   4.700   1.931   8.238 -0.5409 -0.0765  3.7296
  771MOL0     H 4056   4.731   1.777   8.152 -0.0727 -1.2251  0.7797
  771MOL0     H 4057   4.923   1.936   8.338  1.2959  0.2565 -0.3922
  771MOL0     H 4058   4.961   1.766   8.275  1.0924 -0.6770 -3.7153
  771MOL0     H 4059   4.890   2.003   8.097  2.0980  0.3908 -0.8174
  771MOL0     H 4060   4.957   1.833   8.062  1.5073 -0.8332  1.2176
  771MOL0     H 4061   5.129   2.040   8.042  1.3996 -0.2060 -0.0298
  771MOL0     H 4062   5.103   2.055   8.217 -0.3462  1.0821 -1.1161
  771MOL0     H 4063   5.252   1.857   8.059  1.8946 -1.2930  1.5986
  771MOL0     H 4064   5.161   1.784   8.184  2.9663 -1.9972  0.7397
  771MOL0     H 4065   5.398   1.853   8.248  0.6350  1.0290 -0.8195
  771MOL0     H 4066   5.267   1.903   8.354 -1.0783 -1.8692  0.0549
  771MOL0     H 4067   4.310   1.558   8.564  0.2394 -0.1115 -0.9170
  771MOL0     H 4068   4.057   1.606   8.612  0.2267 -0.9724 -0.3876
  771MOL0     H 4069   3.795   2.033   8.535 -0.7239  0.8578 -1.5767
  771MOL0     H 4070   3.569   2.147   8.576  0.2388  1.8471  0.7997
  771MOL0     H 4071   3.628   2.425   9.401  0.6133 -2.1423  1.7428
  771MOL0     H 4072   3.866   2.439   9.409  1.5047 -2.2024  2.6537
  771MOL0     H 4073   4.283   2.555   9.893  1.4027  1.1534 -0.0405
  771MOL0     H 4074   4.533   2.560   9.858  1.8493 -0.4001 -1.5889
  771MOL0     H 4075   4.732   2.590   9.789  1.9047 -1.1903  0.1146
  771MOL0     H 4076   4.832   2.635   9.651 -1.4804 -0.0504 -0.9163
  771MOL0     H 4077   4.590   2.775   9.772 -0.7193 -1.5504 -0.5770
  771MOL0     H 4078   4.638   2.809   9.605 -0.9715  2.2780  0.6825
  771MOL0     H 4079   4.845   2.905   9.686  0.0532  0.0131 -0.2572
  771MOL0     H 4080   4.814   2.825   9.846 -0.0421  5.0375  3.6646
  771MOL0     H 4081   4.786   3.076   9.835  2.6123 -3.3091  0.1038
  771MOL0     H 4082   4.657   2.978   9.903  2.9129  0.9042  1.7671
  771MOL0     H 4083   4.502   3.250   9.615  1.8431  0.9907 -0.3742
  771MOL0     H 4084   4.481   2.453   9.449 -1.3850  3.7794 -0.6030
  771MOL0     H 4085   4.245   2.428   9.483 -0.5226  4.0466 -1.2378
  772MOL0     O 4086   8.170  10.054   8.118 -0.2351  0.3480 -0.1160
  772MOL0     C 4087   8.153  10.145   8.045  0.2592 -0.7024  0.0835
  772MOL0     O 4088   8.242  10.243   8.019 -0.1725 -0.3535  0.1343
  772MOL0     C 4089   8.371  10.244   8.052 -0.1526  0.2743  0.9137
  772MOL0     C 4090   8.454  10.130   8.033  0.4232  0.7269 -0.1863
  772MOL0     C 4091   8.590  10.129   8.056 -0.6589  0.0420  0.7025
  772MOL0     C 4092   8.644  10.239   8.118 -0.8020 -0.3451 -0.1700
  772MOL0     O 4093   8.778  10.252   8.150 -0.7942 -0.3175 -0.0365
  772MOL0     C 4094   8.843  10.134   8.202 -0.1244 -1.0509 -0.4005
  772MOL0     C 4095   8.964  10.170   8.278 -0.5274 -0.5638  0.4310
  772MOL0     C 4096   9.018  10.040   8.344 -0.9136  0.1332  0.2326
  772MOL0     C 4097   9.157  10.063   8.400  0.1260 -0.1029 -0.7357
  772MOL0     C 4098   9.207   9.936   8.468  0.2696 -0.1042  0.6859
  772MOL0     C 4099   9.343   9.959   8.536  0.4704  0.6197 -0.1245
  772MOL0     C 4100   9.401   9.829   8.587 -1.0197  1.0686 -0.5267
  772MOL0     C 4101   9.541   9.848   8.646 -0.8516 -0.0231 -0.6588
  772MOL0     N 4102   9.529   9.914   8.772 -0.8134  0.9500 -0.2946
  772MOL0     C 4103   9.546  10.044   8.807 -0.2353 -0.8207  0.1005
  772MOL0     C 4104   9.515  10.062   8.943 -0.1963 -0.4349  0.0430
  772MOL0     C 4105   9.490  10.206   9.000  0.1682 -0.2272  0.5156
  772MOL0     C 4106   9.348  10.254   8.999  0.0018  0.6428  0.0590
  772MOL0     C 4107   9.285  10.250   8.856 -0.4461 -0.3238 -0.0395
  772MOL0     C 4108   9.139  10.297   8.865  0.2890 -0.0672  0.7880
  772MOL0     O 4109   9.047  10.187   8.864  0.2214  0.6943  0.0471
  772MOL0     C 4110   8.911  10.206   8.881 -0.2522 -0.4850 -1.2481
  772MOL0     C 4111   8.850  10.332   8.889  1.0257  1.4961 -0.2947
  772MOL0     C 4112   8.709  10.331   8.895  0.2872 -0.2400  0.1740
  772MOL0     C 4113   8.650  10.468   8.910 -0.5742 -0.4138 -0.1306
  772MOL0     C 4114   8.620  10.219   8.882 -1.1346  0.1341 -0.3807
  772MOL0     C 4115   8.470  10.213   8.890 -0.1763 -0.7657  0.5518
  772MOL0     O 4116   8.411  10.086   8.923  0.7856 -0.5119  0.3240
  772MOL0     C 4117   8.276  10.112   8.936 -0.7859  0.6938  0.8172
  772MOL0     C 4118   8.235  10.152   9.057  0.0838 -0.2291  0.5388
  772MOL0     C 4119   8.100  10.199   9.074 -0.3496 -0.2945 -1.1859
  772MOL0     C 4120   8.006  10.193   8.973 -0.3161  0.2041  0.3824
  772MOL0     O 4121   7.866  10.217   8.979 -0.5619  0.5141  0.0405
  772MOL0     C 4122   7.809  10.272   9.101 -0.8313 -0.4241  0.1670
  772MOL0     C 4123   7.666  10.299   9.067 -0.8991 -0.2566 -0.4213
  772MOL0     C 4124   7.599  10.388   9.173  0.7287 -0.0585 -0.1407
  772MOL0     C 4125   7.495  10.480   9.110  0.7921  0.1660 -0.5478
  772MOL0     C 4126   7.437  10.577   9.208 -1.3647  0.3844  0.2579
  772MOL0     C 4127   7.301  10.626   9.154 -0.2141  0.2610  0.3095
  772MOL0     C 4128   7.247  10.744   9.235  0.5024 -0.0772 -0.8684
  772MOL0     C 4129   7.102  10.764   9.222  0.5594  0.1272 -0.3587
  772MOL0    Cl 4130   7.055  10.806   9.054  0.4628  0.3116 -0.3148
  772MOL0     C 4131   8.047  10.143   8.846  0.1747 -0.4978 -0.2889
  772MOL0     C 4132   8.178  10.101   8.833 -1.4464 -0.0477 -0.7336
  772MOL0     O 4133   8.414  10.326   8.870  0.3866 -0.0257  0.4384
  772MOL0     C 4134   8.694  10.099   8.881 -0.1643  0.2002 -0.4034
  772MOL0     C 4135   8.838  10.092   8.878  0.7165 -0.3546 -0.0665
  772MOL0     N 4136   9.477   9.938   8.989  0.3607  0.8367  0.4159
  772MOL0     N 4137   9.485   9.848   8.890 -0.0036 -0.8013 -0.2851
  772MOL0     C 4138   8.569  10.362   8.120 -0.6718  0.3606 -0.7145
  772MOL0     C 4139   8.429  10.362   8.084  0.4064  0.7690 -1.3992
  772MOL0     C 4140   8.011  10.169   7.997 -0.9933  0.7659  0.0570
  772MOL0     C 4141   8.007  10.276   7.903  0.2423  0.4884  0.4168
  772MOL0     C 4142   7.884  10.303   7.848  0.1166  0.2756 -0.5864
  772MOL0     C 4143   7.766  10.222   7.882 -0.1054 -0.6030 -0.0959
  772MOL0     O 4144   7.656  10.275   7.831 -0.0239 -0.2934 -0.0977
  772MOL0     C 4145   7.529  10.231   7.872 -0.4369  0.0444  0.3703
  772MOL0     C 4146   7.415  10.297   7.795  0.4203  0.3740  0.7341
  772MOL0     C 4147   7.447  10.304   7.641  0.6423 -1.0473  0.4743
  772MOL0     C 4148   7.337  10.335   7.545  0.4522 -0.8049  0.4706
  772MOL0     C 4149   7.265  10.461   7.594 -0.1242  0.3435 -0.3512
  772MOL0     C 4150   7.193  10.559   7.616 -0.2140 -1.1889 -1.4156
  772MOL0     C 4151   7.778  10.115   7.968 -0.1180  0.8284  0.1357
  772MOL0     C 4152   7.903  10.087   8.026  0.0399  0.6175  0.2337
  772MOL0     H 4153   8.413  10.052   7.968 -0.9694  0.3394  1.0937
  772MOL0     H 4154   8.651  10.055   8.005 -1.7179  0.7577 -1.7167
  772MOL0     H 4155   8.782  10.072   8.269  0.4816 -0.1937  0.9837
  772MOL0     H 4156   8.869  10.070   8.116  1.7513 -1.8114  0.6708
  772MOL0     H 4157   9.035  10.227   8.217 -3.4153  3.5802  0.4706
  772MOL0     H 4158   8.926  10.240   8.353 -0.3029  0.0377  0.0004
  772MOL0     H 4159   8.949  10.013   8.425 -0.2543  0.9401  1.0861
  772MOL0     H 4160   9.033   9.961   8.270 -0.4736  1.1900 -0.8393
  772MOL0     H 4161   9.218  10.089   8.313 -1.2889 -0.0476 -1.7421
  772MOL0     H 4162   9.147  10.151   8.465 -1.9487 -0.2855 -0.7551
  772MOL0     H 4163   9.129   9.903   8.538 -0.8194 -1.9646 -1.2925
  772MOL0     H 4164   9.213   9.859   8.390 -1.9863  0.3362  0.0010
  772MOL0     H 4165   9.419   9.991   8.464  1.3781  0.4448  0.7195
  772MOL0     H 4166   9.336  10.038   8.612 -0.8411  0.4217 -0.0124
  772MOL0     H 4167   9.335   9.785   8.662  0.1983 -0.3383 -0.2280
  772MOL0     H 4168   9.411   9.758   8.505  1.4136  0.0214  0.5761
  772MOL0     H 4169   9.606   9.907   8.580 -3.0363  1.8751 -1.2817
  772MOL0     H 4170   9.574   9.746   8.666 -0.2229 -0.1063 -2.0715
  772MOL0     H 4171   9.571  10.126   8.741 -0.3329  0.2962  1.4136
  772MOL0     H 4172   9.528  10.207   9.103 -2.0043  0.5635  1.3634
  772MOL0     H 4173   9.555  10.273   8.942  0.0807  0.6677  1.4271
  772MOL0     H 4174   9.355  10.359   9.030  1.0089  0.4926  0.3563
  772MOL0     H 4175   9.287  10.206   9.075 -1.6287  2.9576  0.3346
  772MOL0     H 4176   9.287  10.150   8.811 -3.8822 -1.6526  2.3307
  772MOL0     H 4177   9.345  10.319   8.796 -0.5134 -1.3300 -1.3019
  772MOL0     H 4178   9.103  10.357   8.780 -0.6175  0.6312  1.6420
  772MOL0     H 4179   9.127  10.362   8.952  1.3841 -2.6209  2.9575
  772MOL0     H 4180   8.907  10.424   8.893  4.0235 -0.2247  3.9307
  772MOL0     H 4181   8.716  10.548   8.945 -0.0642 -0.3910 -1.0951
  772MOL0     H 4182   8.597  10.489   8.816 -1.6668 -0.6819  0.4154
  772MOL0     H 4183   8.577  10.472   8.991  0.3759  0.8954  0.7045
  772MOL0     H 4184   8.297  10.146   9.145  1.2962  1.6491 -0.1145
  772MOL0     H 4185   8.064  10.233   9.171  1.1101  1.9708 -1.3471
  772MOL0     H 4186   7.828  10.202   9.183  2.0594  0.6581  0.5394
  772MOL0     H 4187   7.862  10.366   9.121  1.4791 -0.9622 -2.6784
  772MOL0     H 4188   7.662  10.362   8.978  1.0409 -0.9818 -1.0863
  772MOL0     H 4189   7.610  10.206   9.055  1.8116 -1.9015 -1.3514
  772MOL0     H 4190   7.671  10.447   9.230  0.6190  0.4479 -0.5148
  772MOL0     H 4191   7.562  10.333   9.260  3.1502 -0.1253  0.9309
  772MOL0     H 4192   7.521  10.540   9.022  1.3804 -2.1128 -2.0279
  772MOL0     H 4193   7.406  10.421   9.088 -1.0408  2.5202  0.0957
  772MOL0     H 4194   7.499  10.668   9.209  0.6686 -0.9367  1.5802
  772MOL0     H 4195   7.436  10.530   9.307  0.9407 -1.4677 -0.5112
  772MOL0     H 4196   7.297  10.663   9.051 -2.7543  0.6725  0.4907
  772MOL0     H 4197   7.241  10.535   9.157  2.7491 -2.0226 -2.2575
  772MOL0     H 4198   7.288  10.836   9.194 -1.9057  1.5068  0.0928
  772MOL0     H 4199   7.273  10.737   9.341 -1.9565  0.5910 -0.1636
  772MOL0     H 4200   7.074  10.843   9.292  3.5688 -0.3269  1.5347
  772MOL0     H 4201   7.045  10.678   9.256 -1.5347  1.9986  1.1226
  772MOL0     H 4202   7.977  10.140   8.763 -0.3662  2.5650 -0.0432
  772MOL0     H 4203   8.198  10.065   8.733  1.2273  0.8185 -0.5878
  772MOL0     H 4204   8.632  10.010   8.877  3.1601 -2.3472  0.5650
  772MOL0     H 4205   8.886   9.996   8.862  0.0274 -0.6291 -0.5800
  772MOL0     H 4206   8.630  10.439   8.164 -0.5372  0.8008 -1.6403
  772MOL0     H 4207   8.364  10.447   8.100  0.6992  0.8623 -0.6238
  772MOL0     H 4208   8.083  10.347   7.870 -1.4662  2.0747 -0.3018
  772MOL0     H 4209   7.881  10.384   7.777  1.1889  0.2484 -0.6738
  772MOL0     H 4210   7.527  10.124   7.851 -1.0805 -0.2880  1.9681
  772MOL0     H 4211   7.516  10.253   7.979  2.6110  2.8491  0.3159
  772MOL0     H 4212   7.387  10.396   7.832 -2.2521  0.4871 -1.2853
  772MOL0     H 4213   7.325  10.237   7.810  2.0664 -2.6903 -0.6705
  772MOL0     H 4214   7.486  10.205   7.614 -0.6304 -1.3043 -0.5102
  772MOL0     H 4215   7.527  10.378   7.630 -0.5859  0.7164  2.6842
  772MOL0     H 4216   7.266  10.252   7.536 -1.2023  0.2473  2.6766
  772MOL0     H 4217   7.380  10.351   7.446 -0.5809 -0.1430  0.1102
  772MOL0     H 4218   7.129  10.644   7.630  0.0427 -0.9346 -1.7474
  772MOL0     H 4219   7.694  10.056   8.001 -0.6996  2.1372  1.0726
  772MOL0     H 4220   7.918  10.011   8.103  1.1021  1.0794  0.5073
  773MOL0     O 4221   2.259   2.691   7.940 -0.1564  0.3617 -0.2120
  773MOL0     C 4222   2.321   2.600   7.881  0.3402  0.4590  0.2280
  773MOL0     O 4223   2.261   2.511   7.805  0.1930 -0.6520 -0.0255
  773MOL0     C 4224   2.136   2.528   7.756 -0.5512  0.5742 -0.2436
  773MOL0     C 4225   2.014   2.528   7.823  0.5644 -0.4431 -0.4925
  773MOL0     C 4226   1.887   2.530   7.770 -0.4288 -0.1569 -0.0229
  773MOL0     C 4227   1.885   2.539   7.633 -0.2614  0.5542  0.1793
  773MOL0     O 4228   1.757   2.552   7.581 -0.3006  1.0086 -0.3889
  773MOL0     C 4229   1.719   2.432   7.517  0.8886 -0.0788  0.5777
  773MOL0     C 4230   1.588   2.375   7.574  0.4414 -0.1566 -0.8842
  773MOL0     C 4231   1.470   2.473   7.570 -0.7003  0.0560  0.3128
  773MOL0     C 4232   1.337   2.406   7.600 -0.1467  0.0912  0.5796
  773MOL0     C 4233   1.255   2.357   7.482 -0.5200 -0.2306 -0.4573
  773MOL0     C 4234   1.190   2.460   7.386 -0.1716 -0.0509  0.2759
  773MOL0     C 4235   1.095   2.567   7.450  0.5267  0.2654  0.2612
  773MOL0     C 4236   1.002   2.635   7.343 -0.2298  0.2924  0.0150
  773MOL0     N 4237   0.895   2.553   7.292 -0.5697  0.3380 -0.1860
  773MOL0     C 4238   0.767   2.548   7.336 -0.1435 -0.6076  0.1308
  773MOL0     C 4239   0.705   2.478   7.242  0.3836  0.2483 -0.0913
  773MOL0     C 4240   0.552   2.452   7.233 -0.4162  0.7613 -0.2947
  773MOL0     C 4241   0.507   2.411   7.087 -0.2870 -0.1440 -0.6446
  773MOL0     C 4242   0.358   2.459   7.068  0.3451 -0.6361 -0.2282
  773MOL0     C 4243   0.266   2.407   7.182  0.1944 -0.5104 -0.1173
  773MOL0     O 4244   0.265   2.263   7.160  0.4025  0.1412  0.0411
  773MOL0     C 4245   0.218   2.178   7.260 -0.7918  0.1909  0.1671
  773MOL0     C 4246   0.190   2.046   7.220  0.0101  0.3339  0.2393
  773MOL0     C 4247   0.146   1.947   7.304  0.1770  0.0980 -0.2282
  773MOL0     C 4248   0.125   1.810   7.239 -0.2506 -0.5478  0.3843
  773MOL0     C 4249   0.138   1.970   7.442  0.0496  0.5789 -0.1290
  773MOL0     C 4250   0.078   1.877   7.537 -0.3302  0.6524  0.2829
  773MOL0     O 4251   0.050   1.938   7.654 -0.7807  0.1079  0.3310
  773MOL0     C 4252  -0.002   1.876   7.768  0.8758  0.4879 -0.5414
  773MOL0     C 4253  -0.092   1.763   7.775 -0.2876  0.0414  0.5923
  773MOL0     C 4254  -0.143   1.728   7.901 -0.6002  0.2650  0.0594
  773MOL0     C 4255  -0.096   1.782   8.022  0.7977  0.2828 -0.0500
  773MOL0     O 4256  -0.152   1.754   8.145  0.1200  0.0144 -0.1610
  773MOL0     C 4257  -0.279   1.679   8.149 -0.1760 -0.4767 -0.6770
  773MOL0     C 4258  -0.339   1.687   8.289  0.6795  0.4975 -0.3751
  773MOL0     C 4259  -0.490   1.667   8.280 -1.1035  0.2785 -0.7453
  773MOL0     C 4260  -0.545   1.645   8.423 -0.9624  0.4426 -0.0929
  773MOL0     C 4261  -0.694   1.655   8.436  0.5919 -0.0114  1.2116
  773MOL0     C 4262  -0.751   1.797   8.445 -1.0102  0.1487  0.7911
  773MOL0     C 4263  -0.901   1.794   8.458  0.4486 -0.2177  0.3185
  773MOL0     C 4264  -0.950   1.766   8.604  0.2208  0.1457 -0.2332
  773MOL0    Cl 4265  -0.921   1.908   8.699 -0.3738  0.4048 -0.1711
  773MOL0     C 4266  -0.009   1.891   8.019  0.8230  0.1960  0.5359
  773MOL0     C 4267   0.028   1.936   7.893 -0.4718  0.0022 -0.2360
  773MOL0     O 4268   0.047   1.757   7.515 -0.0282  0.4041 -0.5142
  773MOL0     C 4269   0.189   2.098   7.487  0.1650  0.0678  0.7526
  773MOL0     C 4270   0.229   2.199   7.397  0.8258  0.6527  0.1205
  773MOL0     N 4271   0.791   2.425   7.151 -0.2182 -0.7381 -0.2450
  773MOL0     N 4272   0.910   2.484   7.181  0.2208 -0.2149  0.2468
  773MOL0     C 4273   2.002   2.538   7.554 -0.3663 -0.1841 -0.7834
  773MOL0     C 4274   2.129   2.527   7.614  0.2767  0.8675 -0.4477
  773MOL0     C 4275   2.468   2.580   7.913  0.0293 -0.0934  0.4803
  773MOL0     C 4276   2.550   2.481   7.850 -0.0823  0.4411 -1.5033
  773MOL0     C 4277   2.688   2.471   7.887 -0.0760 -0.4176  0.2474
  773MOL0     C 4278   2.749   2.571   7.960  0.2782  0.3318  0.0142
  773MOL0     O 4279   2.888   2.573   7.975  0.2871 -0.3335  0.0087
  773MOL0     C 4280   2.957   2.644   8.082  0.7300 -0.6606  0.3225
  773MOL0     C 4281   2.989   2.790   8.054 -0.9141  0.6383  0.1067
  773MOL0     C 4282   3.062   2.807   7.916  0.4190 -0.5299  0.0786
  773MOL0     C 4283   3.143   2.939   7.911 -0.4487  0.7883  0.9392
  773MOL0     C 4284   3.257   2.923   7.994  0.5077 -0.3646  0.0975
  773MOL0     C 4285   3.348   2.913   8.072 -0.7780 -0.0429  0.4699
  773MOL0     C 4286   2.672   2.684   7.999  0.5888  0.8884 -0.6299
  773MOL0     C 4287   2.533   2.676   7.987  0.4016 -0.1212 -0.2475
  773MOL0     H 4288   2.026   2.522   7.930 -1.0977  2.0880 -0.0654
  773MOL0     H 4289   1.799   2.521   7.833 -1.1803  1.6628 -0.7292
  773MOL0     H 4290   1.705   2.457   7.412 -0.7247 -1.1135  0.5136
  773MOL0     H 4291   1.806   2.366   7.526  1.8779  1.0878 -0.2448
  773MOL0     H 4292   1.562   2.292   7.507 -0.5485 -0.9715  0.4494
  773MOL0     H 4293   1.607   2.326   7.670 -2.1210  0.9646  0.2884
  773MOL0     H 4294   1.499   2.551   7.640 -0.2606 -0.2386  0.4623
  773MOL0     H 4295   1.476   2.523   7.473  1.3338 -1.1933 -0.2536
  773MOL0     H 4296   1.364   2.318   7.659  3.0578 -1.0167 -2.2145
  773MOL0     H 4297   1.281   2.474   7.664 -2.5425 -0.3581 -0.9228
  773MOL0     H 4298   1.327   2.305   7.418  1.5959  2.1644 -0.1502
  773MOL0     H 4299   1.176   2.287   7.512  0.9338 -1.7480  0.0145
  773MOL0     H 4300   1.270   2.525   7.348 -1.1938  0.8611 -0.3940
  773MOL0     H 4301   1.142   2.399   7.309 -0.8999 -0.8353  1.3257
  773MOL0     H 4302   1.037   2.516   7.528  0.3597 -1.4152 -0.9019
  773MOL0     H 4303   1.152   2.645   7.500  1.9142  0.0007 -0.8446
  773MOL0     H 4304   1.065   2.668   7.260  1.1994 -0.3880  0.7880
  773MOL0     H 4305   0.953   2.723   7.387 -0.2599  0.5983 -0.6190
  773MOL0     H 4306   0.726   2.602   7.421 -1.6505 -1.6547  0.1074
  773MOL0     H 4307   0.524   2.377   7.307  1.3881 -0.6317 -0.9316
  773MOL0     H 4308   0.500   2.544   7.261 -2.5601 -0.7198  0.8876
  773MOL0     H 4309   0.511   2.302   7.086  1.0391 -0.2589  2.7461
  773MOL0     H 4310   0.566   2.454   7.006 -3.7485  0.5748 -2.9665
  773MOL0     H 4311   0.317   2.418   6.976 -4.6835  3.8797 -0.4353
  773MOL0     H 4312   0.348   2.568   7.070 -2.0056 -0.8040 -0.0665
  773MOL0     H 4313   0.169   2.458   7.176  1.4372  2.9121  3.7213
  773MOL0     H 4314   0.318   2.431   7.276  1.1855  2.2137 -1.2650
  773MOL0     H 4315   0.195   2.023   7.114 -0.2954  0.4860  0.1890
  773MOL0     H 4316   0.020   1.781   7.244 -0.9149  1.6163 -0.1310
  773MOL0     H 4317   0.160   1.811   7.136  2.9286 -1.9537  1.3137
  773MOL0     H 4318   0.183   1.730   7.287  0.5015  1.2840  2.7304
  773MOL0     H 4319  -0.133   1.704   7.694 -2.4580  0.7756  1.0919
  773MOL0     H 4320  -0.223   1.655   7.899 -1.1077  0.8240 -0.5655
  773MOL0     H 4321  -0.343   1.716   8.068  1.3325 -1.4904 -2.3911
  773MOL0     H 4322  -0.260   1.578   8.113  0.9317 -0.3547 -0.4851
  773MOL0     H 4323  -0.295   1.609   8.352 -2.8042 -0.6917  0.8355
  773MOL0     H 4324  -0.317   1.782   8.338  1.2370  0.6039 -0.8217
  773MOL0     H 4325  -0.512   1.580   8.218  4.8198 -1.5663 -0.7934
  773MOL0     H 4326  -0.538   1.756   8.237 -1.9457  0.7262  1.0189
  773MOL0     H 4327  -0.516   1.543   8.450  1.4893  0.9752 -0.4131
  773MOL0     H 4328  -0.498   1.718   8.489  2.0341 -1.4798  0.1150
  773MOL0     H 4329  -0.719   1.599   8.527  1.7680  0.6833  1.9949
  773MOL0     H 4330  -0.739   1.609   8.348  0.2777  2.2080  0.1630
  773MOL0     H 4331  -0.696   1.847   8.525  1.3933  0.4457 -0.9545
  773MOL0     H 4332  -0.723   1.841   8.348 -0.9222 -0.7051  0.4240
  773MOL0     H 4333  -0.948   1.722   8.391 -0.2658  3.0913 -3.0570
  773MOL0     H 4334  -0.944   1.890   8.429  3.5161  1.0289 -0.5942
  773MOL0     H 4335  -0.898   1.677   8.642  0.4029 -1.2735 -3.4649
  773MOL0     H 4336  -1.055   1.738   8.598  1.1803 -3.8571 -1.1203
  773MOL0     H 4337   0.020   1.950   8.106  0.1909  1.3538 -0.0131
  773MOL0     H 4338   0.091   2.024   7.888 -0.2023 -0.0501  1.5546
  773MOL0     H 4339   0.180   2.137   7.588 -2.9348  0.8448  0.2664
  773MOL0     H 4340   0.274   2.291   7.433 -1.7071  1.4358  1.6080
  773MOL0     H 4341   1.990   2.560   7.449 -2.4445 -1.4813 -0.8849
  773MOL0     H 4342   2.218   2.519   7.553  0.5878 -2.8420  0.2439
  773MOL0     H 4343   2.508   2.398   7.794  0.2887  0.2725 -1.5332
  773MOL0     H 4344   2.757   2.398   7.847  0.7656  0.8526 -0.6928
  773MOL0     H 4345   2.889   2.637   8.167 -0.4382  1.2453 -0.3873
  773MOL0     H 4346   3.054   2.597   8.097  2.5085  2.5224 -0.3213
  773MOL0     H 4347   3.052   2.822   8.137  1.8190 -0.6647 -1.3064
  773MOL0     H 4348   2.899   2.851   8.046  0.9655  3.4956 -0.5983
  773MOL0     H 4349   2.986   2.812   7.838  0.0470  0.7255  0.4945
  773MOL0     H 4350   3.127   2.720   7.901  0.5703 -1.4385  4.5258
  773MOL0     H 4351   3.075   3.019   7.940  0.5353  1.5107  1.3116
  773MOL0     H 4352   3.181   2.964   7.811  1.1555  0.5992  1.4792
  773MOL0     H 4353   3.426   2.895   8.144 -2.5732  0.8733  2.7861
  773MOL0     H 4354   2.704   2.776   8.048 -3.2769  1.3106  1.5498
  773MOL0     H 4355   2.468   2.752   8.028 -2.6305 -1.9858 -1.3010
  774MOL0     O 4356   4.308   5.965  10.871 -0.0201 -0.4237  0.0734
  774MOL0     C 4357   4.394   5.993  10.952 -0.2448 -0.2554 -0.5866
  774MOL0     O 4358   4.418   5.920  11.074  0.1385  0.3541 -0.3425
  774MOL0     C 4359   4.319   5.836  11.107 -0.4843  0.0602  0.0591
  774MOL0     C 4360   4.327   5.695  11.088 -0.1006  0.2170  0.2181
  774MOL0     C 4361   4.221   5.611  11.127 -0.4877  0.7431  0.3549
  774MOL0     C 4362   4.116   5.663  11.202 -0.2140 -0.3399  0.4057
  774MOL0     O 4363   4.022   5.581  11.250  0.6151 -0.2566 -0.7301
  774MOL0     C 4364   3.964   5.623  11.372  0.9822  0.3792 -0.6310
  774MOL0     C 4365   3.878   5.518  11.448  0.5235  0.6298  0.6754
  774MOL0     C 4366   3.830   5.557  11.591 -0.5440 -0.2828  0.6944
  774MOL0     C 4367   3.936   5.552  11.701  0.5784  0.7926 -0.0798
  774MOL0     C 4368   3.885   5.566  11.843 -0.6339 -0.6416 -0.2211
  774MOL0     C 4369   3.875   5.438  11.929 -0.1973  0.5517 -0.8537
  774MOL0     C 4370   3.760   5.339  11.886 -0.1659  0.5906 -0.2206
  774MOL0     C 4371   3.629   5.397  11.915  0.1204  0.6703  0.2797
  774MOL0     N 4372   3.607   5.426  12.055  1.2138  0.1289 -0.3781
  774MOL0     C 4373   3.571   5.552  12.100  0.4963  0.3986 -0.2474
  774MOL0     C 4374   3.519   5.539  12.222  0.1410 -0.1492  0.4083
  774MOL0     C 4375   3.439   5.646  12.289 -0.0454  0.9987 -0.5736
  774MOL0     C 4376   3.400   5.606  12.437 -0.1656 -0.0364 -0.2945
  774MOL0     C 4377   3.322   5.717  12.501 -0.6827 -0.4282 -0.8662
  774MOL0     C 4378   3.232   5.666  12.604  0.1419 -0.1455  0.1763
  774MOL0     O 4379   3.314   5.589  12.695  0.1208 -0.3714  0.4879
  774MOL0     C 4380   3.272   5.547  12.823  0.4199  0.4338 -0.1230
  774MOL0     C 4381   3.374   5.507  12.907  0.6074 -0.2842 -0.3099
  774MOL0     C 4382   3.354   5.485  13.047  0.0615  0.1402  0.0994
  774MOL0     C 4383   3.481   5.460  13.125  0.4042  0.3420  0.0186
  774MOL0     C 4384   3.218   5.495  13.094 -0.7503 -0.2241 -0.4478
  774MOL0     C 4385   3.175   5.482  13.235  0.5610 -0.3172 -0.1951
  774MOL0     O 4386   3.051   5.517  13.278  0.2732 -1.2982  0.5416
  774MOL0     C 4387   3.000   5.497  13.405 -0.0864  0.4972 -0.0288
  774MOL0     C 4388   3.025   5.376  13.468 -0.0596  0.7104 -0.4673
  774MOL0     C 4389   2.974   5.360  13.600 -0.2940 -0.9701  0.0172
  774MOL0     C 4390   2.906   5.460  13.665 -0.8803  0.0775  1.0263
  774MOL0     O 4391   2.850   5.453  13.784  0.0999  0.2291  0.6361
  774MOL0     C 4392   2.912   5.400  13.891 -0.9343  0.8570  0.5976
  774MOL0     C 4393   2.939   5.511  13.989  0.5724  0.1669 -0.6745
  774MOL0     C 4394   2.804   5.571  14.042  0.0264 -0.7458  0.1154
  774MOL0     C 4395   2.806   5.709  14.101 -0.2623  0.2788  0.1384
  774MOL0     C 4396   2.670   5.752  14.168 -0.2810 -1.0895  0.5670
  774MOL0     C 4397   2.612   5.648  14.255  0.5305  0.8954 -0.3535
  774MOL0     C 4398   2.485   5.695  14.325 -0.1646 -0.5333 -0.4413
  774MOL0     C 4399   2.489   5.647  14.464 -0.5646  0.7751  0.0200
  774MOL0    Cl 4400   2.358   5.704  14.560 -0.3076 -0.5006 -0.0036
  774MOL0     C 4401   2.880   5.576  13.600  0.1019 -1.1591 -0.3777
  774MOL0     C 4402   2.928   5.597  13.466  0.2067 -0.1802 -1.0110
  774MOL0     O 4403   3.254   5.428  13.306 -0.5855  0.6569 -0.0490
  774MOL0     C 4404   3.117   5.528  13.000  0.0226 -0.0725 -0.7084
  774MOL0     C 4405   3.140   5.558  12.871 -0.5896 -0.2372  0.3192
  774MOL0     N 4406   3.525   5.404  12.255 -0.4902  0.0088 -0.3641
  774MOL0     N 4407   3.589   5.338  12.157 -0.1398 -0.3386 -0.0909
  774MOL0     C 4408   4.117   5.803  11.229  0.3731  0.3765 -0.4898
  774MOL0     C 4409   4.219   5.893  11.189 -0.2217 -0.0119  1.0615
  774MOL0     C 4410   4.508   6.082  10.913 -0.2053 -0.0272  0.0161
  774MOL0     C 4411   4.527   6.129  10.785  0.0820 -0.7349 -0.0599
  774MOL0     C 4412   4.634   6.213  10.758  0.6065 -0.6056 -0.5584
  774MOL0     C 4413   4.727   6.236  10.856 -0.6826  0.2969  1.4556
  774MOL0     O 4414   4.842   6.311  10.849 -0.3577 -0.0067 -0.8495
  774MOL0     C 4415   4.871   6.387  10.731  0.1868  0.4188 -0.8181
  774MOL0     C 4416   4.969   6.500  10.786 -0.0719  0.0129  0.7818
  774MOL0     C 4417   5.103   6.440  10.797 -0.4125  0.3417 -0.0335
  774MOL0     C 4418   5.197   6.553  10.821  0.1727  0.1695 -0.1820
  774MOL0     C 4419   5.325   6.519  10.874 -0.7717  0.2316 -0.1611
  774MOL0     C 4420   5.432   6.505  10.937  0.2732 -0.3790  0.5618
  774MOL0     C 4421   4.710   6.187  10.985  0.3103  0.6437 -0.7740
  774MOL0     C 4422   4.590   6.120  11.016  0.0342 -0.9491  0.1437
  774MOL0     H 4423   4.407   5.651  11.030 -1.5702 -2.0111 -0.2493
  774MOL0     H 4424   4.224   5.503  11.113 -3.9701  0.4060  1.4625
  774MOL0     H 4425   4.051   5.648  11.433 -0.0350  2.8079 -0.0796
  774MOL0     H 4426   3.901   5.710  11.359  0.5743  0.0352 -0.9767
  774MOL0     H 4427   3.787   5.486  11.396  0.5403  0.3313  0.8274
  774MOL0     H 4428   3.933   5.424  11.456  0.0020 -0.1767 -3.2802
  774MOL0     H 4429   3.788   5.657  11.604 -0.6478 -0.2907  0.4168
  774MOL0     H 4430   3.756   5.481  11.614 -0.1514 -1.1829 -0.9146
  774MOL0     H 4431   3.992   5.458  11.694 -1.4925 -0.7873  2.5759
  774MOL0     H 4432   3.999   5.638  11.676  1.7006 -0.1943 -0.7955
  774MOL0     H 4433   3.957   5.629  11.897 -1.7330 -0.0819  0.6395
  774MOL0     H 4434   3.795   5.628  11.836  0.7966  1.4387 -1.2764
  774MOL0     H 4435   3.973   5.391  11.920 -2.0347 -3.7107 -0.8509
  774MOL0     H 4436   3.852   5.467  12.032  1.9771  0.4743 -0.3016
  774MOL0     H 4437   3.785   5.307  11.784  0.7881  2.9065 -0.8054
  774MOL0     H 4438   3.768   5.249  11.946  1.7029  0.3197 -0.7876
  774MOL0     H 4439   3.569   5.322  11.863 -0.8535  2.0318 -0.6250
  774MOL0     H 4440   3.611   5.486  11.856  1.8611 -0.7430 -2.6114
  774MOL0     H 4441   3.573   5.643  12.042  0.8966  1.7989  1.8551
  774MOL0     H 4442   3.498   5.736  12.270  1.7757 -0.3777 -1.9231
  774MOL0     H 4443   3.349   5.653  12.227 -1.0304 -1.7001  0.3987
  774MOL0     H 4444   3.492   5.578  12.489  1.2198 -1.0140 -3.0489
  774MOL0     H 4445   3.343   5.514  12.429 -1.9238  0.8013  1.6407
  774MOL0     H 4446   3.260   5.772  12.429  2.7829  2.3979 -1.9733
  774MOL0     H 4447   3.397   5.784  12.545 -2.0555  2.7402 -2.9695
  774MOL0     H 4448   3.155   5.602  12.560 -1.4486  0.9000  1.2818
  774MOL0     H 4449   3.176   5.749  12.649 -1.1011  1.0234 -3.2340
  774MOL0     H 4450   3.473   5.500  12.864  0.7294  0.7490 -0.2309
  774MOL0     H 4451   3.488   5.544  13.195 -2.5505  0.3776  0.4177
  774MOL0     H 4452   3.480   5.370  13.186 -0.5819 -0.0650 -0.5681
  774MOL0     H 4453   3.567   5.451  13.058 -2.0319 -0.4009 -3.2730
  774MOL0     H 4454   3.087   5.300  13.420  0.0481 -0.1687  0.9742
  774MOL0     H 4455   2.979   5.264  13.650  0.8394 -0.3829  1.0708
  774MOL0     H 4456   2.844   5.325  13.931  0.7099 -2.2211 -1.9757
  774MOL0     H 4457   3.001   5.352  13.852 -1.8236 -1.7776  1.6114
  774MOL0     H 4458   2.999   5.472  14.071  0.1256 -0.6736 -0.7429
  774MOL0     H 4459   3.000   5.583  13.932 -0.4127  0.4287 -1.4263
  774MOL0     H 4460   2.772   5.498  14.117  0.6844 -0.6423  0.5078
  774MOL0     H 4461   2.729   5.580  13.963  0.8896 -0.6740 -0.7117
  774MOL0     H 4462   2.885   5.708  14.177 -2.5616  2.2272  2.7918
  774MOL0     H 4463   2.834   5.789  14.031  0.8087  0.2069  0.4699
  774MOL0     H 4464   2.604   5.765  14.081 -2.7656 -1.5380  2.2846
  774MOL0     H 4465   2.684   5.848  14.219  1.9668 -0.4070 -1.1407
  774MOL0     H 4466   2.567   5.564  14.202  0.8826  1.0771 -0.9426
  774MOL0     H 4467   2.694   5.612  14.318  1.9368 -0.2771 -2.7394
  774MOL0     H 4468   2.392   5.662  14.278 -1.5044 -0.1452  1.7918
  774MOL0     H 4469   2.474   5.804  14.320  1.6096 -0.3809 -2.1791
  774MOL0     H 4470   2.581   5.670  14.519 -0.8042  0.2175  0.6674
  774MOL0     H 4471   2.504   5.539  14.462  1.6587  0.9758  1.5593
  774MOL0     H 4472   2.820   5.650  13.653 -1.7375 -2.1200 -1.0243
  774MOL0     H 4473   2.911   5.688  13.408 -1.4270  0.7292  0.7674
  774MOL0     H 4474   3.013   5.524  13.031 -0.5754 -0.4992 -2.6071
  774MOL0     H 4475   3.059   5.578  12.802 -0.2973 -2.1080 -0.6286
  774MOL0     H 4476   4.031   5.844  11.281  0.8984  1.3971 -0.3975
  774MOL0     H 4477   4.222   5.998  11.213  1.8752  0.7743 -1.9896
  774MOL0     H 4478   4.446   6.122  10.713 -2.2998 -1.4412  2.4958
  774MOL0     H 4479   4.631   6.255  10.658 -3.3157 -0.6970 -0.6371
  774MOL0     H 4480   4.918   6.324  10.655 -1.4864 -2.8610  0.6856
  774MOL0     H 4481   4.778   6.434  10.699  0.5142  1.0921 -0.7885
  774MOL0     H 4482   4.937   6.539  10.882  0.7906 -1.1993  1.5928
  774MOL0     H 4483   4.963   6.577  10.709  2.5419  0.0619  0.5210
  774MOL0     H 4484   5.113   6.396  10.698  0.6466 -1.4629  0.8365
  774MOL0     H 4485   5.103   6.363  10.874 -1.9836  1.1925  0.8635
  774MOL0     H 4486   5.143   6.619  10.890 -1.4833 -0.4246 -0.8555
  774MOL0     H 4487   5.207   6.606  10.727 -2.1101 -0.4279 -0.8272
  774MOL0     H 4488   5.530   6.501  10.981 -0.0362 -0.4761  1.2529
  774MOL0     H 4489   4.781   6.221  11.060 -1.3228  0.3456  0.9862
  774MOL0     H 4490   4.566   6.103  11.121 -2.5816 -1.6373 -0.4985
  775MOL0     O 4491   8.395   8.738   6.512  0.2215  0.2370 -0.1355
  775MOL0     C 4492   8.518   8.741   6.513  0.0666 -0.0840  0.4007
  775MOL0     O 4493   8.594   8.636   6.557  0.2799  0.3764 -0.6410
  775MOL0     C 4494   8.545   8.510   6.570  0.8554  0.2868  0.0217
  775MOL0     C 4495   8.598   8.441   6.679  0.5728  0.0122  0.6157
  775MOL0     C 4496   8.558   8.317   6.717  0.0610  0.1680  0.3035
  775MOL0     C 4497   8.461   8.256   6.640  0.6023  0.1713 -0.5472
  775MOL0     O 4498   8.439   8.127   6.683  0.0249 -0.4958 -0.2858
  775MOL0     C 4499   8.335   8.047   6.625 -0.0402 -0.6892 -0.5488
  775MOL0     C 4500   8.349   7.902   6.644 -0.3926  0.6977 -0.7797
  775MOL0     C 4501   8.334   7.856   6.789  0.0457 -0.3111  0.2837
  775MOL0     C 4502   8.203   7.878   6.864  0.5795 -0.2721 -0.0980
  775MOL0     C 4503   8.076   7.819   6.799 -0.3563  0.6916 -0.3876
  775MOL0     C 4504   8.084   7.665   6.791 -0.4613  1.1110  0.0520
  775MOL0     C 4505   7.959   7.610   6.711  0.2372 -0.5633 -0.1595
  775MOL0     C 4506   7.973   7.464   6.669 -0.2552 -0.7341 -0.5711
  775MOL0     N 4507   7.971   7.361   6.777 -0.2190  0.7177  0.0525
  775MOL0     C 4508   7.865   7.334   6.867  0.2443  0.1197 -0.3944
  775MOL0     C 4509   7.917   7.263   6.966  0.2218 -0.3762 -0.1118
  775MOL0     C 4510   7.841   7.188   7.065 -0.4380  0.3889 -1.1404
  775MOL0     C 4511   7.858   7.255   7.200  0.7157 -0.1418 -0.0587
  775MOL0     C 4512   7.816   7.400   7.201  0.7356 -0.5790 -0.0155
  775MOL0     C 4513   7.670   7.415   7.271 -0.0678  0.0922 -0.1337
  775MOL0     O 4514   7.593   7.351   7.164  0.4888  0.4601 -0.1080
  775MOL0     C 4515   7.451   7.328   7.173 -0.2270  1.2481 -0.7038
  775MOL0     C 4516   7.363   7.344   7.066 -0.5733 -0.3778  0.3907
  775MOL0     C 4517   7.225   7.313   7.083 -0.2878  0.2989 -0.7394
  775MOL0     C 4518   7.129   7.314   6.965  0.0926 -0.1131  0.1579
  775MOL0     C 4519   7.171   7.283   7.211 -0.0607 -0.3582 -1.0719
  775MOL0     C 4520   7.025   7.249   7.243 -0.6014 -0.4142 -0.3303
  775MOL0     O 4521   6.971   7.328   7.346 -0.8682 -0.4085  0.6231
  775MOL0     C 4522   6.852   7.290   7.397 -0.9038  0.4822  0.4011
  775MOL0     C 4523   6.747   7.368   7.348 -0.2816  0.1719  0.0033
  775MOL0     C 4524   6.619   7.336   7.379 -0.5119 -0.7812 -0.6229
  775MOL0     C 4525   6.590   7.235   7.468  0.2576 -0.5353 -0.0092
  775MOL0     O 4526   6.455   7.214   7.500 -0.3705  0.5651 -0.0163
  775MOL0     C 4527   6.417   7.095   7.576 -0.6866 -0.1004 -0.4478
  775MOL0     C 4528   6.267   7.080   7.562  0.1853 -1.0246 -1.0208
  775MOL0     C 4529   6.205   7.186   7.662  0.3143 -0.0766  0.1812
  775MOL0     C 4530   6.053   7.197   7.653  0.1939  0.0710  0.9498
  775MOL0     C 4531   5.998   7.284   7.763  0.0230 -0.2110 -0.1548
  775MOL0     C 4532   5.842   7.276   7.769  0.0613  0.6155  0.1186
  775MOL0     C 4533   5.771   7.360   7.880 -0.6196 -0.3069  0.2061
  775MOL0     C 4534   5.830   7.365   8.022 -0.2106 -0.0280  1.0207
  775MOL0    Cl 4535   5.722   7.450   8.135  0.0069  0.2267 -0.1183
  775MOL0     C 4536   6.700   7.185   7.532 -0.0682  0.0175 -0.5983
  775MOL0     C 4537   6.834   7.202   7.489 -0.5766  0.0858 -0.4312
  775MOL0     O 4538   6.982   7.148   7.190 -0.1092 -1.0707  0.2467
  775MOL0     C 4539   7.260   7.273   7.321 -1.2201  0.0063  0.1639
  775MOL0     C 4540   7.396   7.290   7.298 -0.3756  1.1809  0.1052
  775MOL0     N 4541   8.054   7.259   6.948 -0.4094 -0.1531 -1.0026
  775MOL0     N 4542   8.086   7.315   6.833 -0.3932 -0.1209 -0.3258
  775MOL0     C 4543   8.398   8.328   6.526 -0.0753 -0.3142 -0.1798
  775MOL0     C 4544   8.441   8.452   6.493  0.1506  0.1502 -0.0243
  775MOL0     C 4545   8.582   8.872   6.489 -0.1542  0.3630  0.4080
  775MOL0     C 4546   8.723   8.893   6.498 -1.0985 -0.2358 -0.3895
  775MOL0     C 4547   8.773   9.022   6.457 -0.0342 -0.3511  0.1364
  775MOL0     C 4548   8.690   9.129   6.433 -0.6424 -0.0114  0.5666
  775MOL0     O 4549   8.738   9.245   6.388  0.2979 -0.3847  0.4669
  775MOL0     C 4550   8.662   9.366   6.423  0.0027 -0.6169 -0.5995
  775MOL0     C 4551   8.745   9.490   6.386  0.0628 -0.3392  0.1684
  775MOL0     C 4552   8.855   9.533   6.481  1.1164 -0.0202  0.6110
  775MOL0     C 4553   8.965   9.428   6.501  0.3944  0.2635 -0.4951
  775MOL0     C 4554   9.059   9.408   6.388  0.3873  0.2842  0.1537
  775MOL0     C 4555   9.152   9.417   6.310  0.3967 -0.4670  1.2139
  775MOL0     C 4556   8.545   9.114   6.456 -0.1095  0.9894  1.1226
  775MOL0     C 4557   8.494   8.984   6.480  0.1440 -0.1592  0.7016
  775MOL0     H 4558   8.676   8.491   6.735  1.9296  0.3533 -1.4778
  775MOL0     H 4559   8.589   8.272   6.810  1.6135 -0.3639 -0.4433
  775MOL0     H 4560   8.239   8.088   6.657  2.3790  3.2761  2.5495
  775MOL0     H 4561   8.349   8.049   6.516  1.6972 -2.6654 -0.4087
  775MOL0     H 4562   8.265   7.854   6.592 -0.5786  0.0442  0.1161
  775MOL0     H 4563   8.444   7.864   6.606 -0.7472 -0.2542 -0.7229
  775MOL0     H 4564   8.354   7.749   6.793 -0.5565 -0.4013  1.4472
  775MOL0     H 4565   8.410   7.908   6.849 -0.5874  2.6809 -1.3396
  775MOL0     H 4566   8.208   7.837   6.965  1.9026  1.1208  0.4519
  775MOL0     H 4567   8.198   7.987   6.878  2.4212 -0.4227  2.5492
  775MOL0     H 4568   7.996   7.855   6.866  1.0168  1.8923  0.6740
  775MOL0     H 4569   8.058   7.861   6.699 -1.2140  0.1018 -0.4939
  775MOL0     H 4570   8.181   7.638   6.747 -0.4246 -0.4678  1.0239
  775MOL0     H 4571   8.083   7.618   6.890  0.6394  0.8117 -0.0647
  775MOL0     H 4572   7.871   7.641   6.769 -0.0815  0.9864 -1.3890
  775MOL0     H 4573   7.956   7.663   6.616  2.6055  2.9298  1.4809
  775MOL0     H 4574   8.067   7.444   6.617  0.9310  1.0226  0.7731
  775MOL0     H 4575   7.897   7.430   6.598 -1.4973 -0.4516  0.5807
  775MOL0     H 4576   7.759   7.358   6.862 -0.1382 -1.2252  0.6532
  775MOL0     H 4577   7.735   7.193   7.038 -0.0709  3.1528 -2.4780
  775MOL0     H 4578   7.874   7.084   7.061  0.7487  0.7821 -1.8744
  775MOL0     H 4579   7.965   7.242   7.221  0.6839 -1.0302 -0.4089
  775MOL0     H 4580   7.807   7.185   7.266  3.2433  0.1914  2.4333
  775MOL0     H 4581   7.814   7.454   7.106 -1.9997 -1.4869 -0.5488
  775MOL0     H 4582   7.903   7.448   7.248  2.8748 -1.6691 -2.6412
  775MOL0     H 4583   7.637   7.517   7.295 -0.4379  0.1822 -0.9685
  775MOL0     H 4584   7.665   7.346   7.355 -1.2496 -0.8418 -0.9423
  775MOL0     H 4585   7.391   7.358   6.962 -2.2942 -1.6827 -0.3076
  775MOL0     H 4586   7.080   7.218   6.949 -1.5423  0.7345 -0.1100
  775MOL0     H 4587   7.049   7.385   6.990 -0.8607 -1.3830  0.8161
  775MOL0     H 4588   7.181   7.347   6.874  0.5464  1.3503  0.9038
  775MOL0     H 4589   6.755   7.447   7.273 -3.3186  1.1122  0.5261
  775MOL0     H 4590   6.540   7.391   7.330 -0.2487 -0.8094 -1.0793
  775MOL0     H 4591   6.479   7.019   7.527  1.9869  2.0278 -0.6162
  775MOL0     H 4592   6.437   7.107   7.683  1.7027  3.4873 -1.1466
  775MOL0     H 4593   6.239   7.114   7.461 -0.5850  2.9190  0.3384
  775MOL0     H 4594   6.224   6.983   7.587 -1.7153 -0.0639 -0.3406
  775MOL0     H 4595   6.244   7.286   7.645 -3.4101  1.6645  0.9093
  775MOL0     H 4596   6.231   7.154   7.764 -2.8020 -0.7145  0.8957
  775MOL0     H 4597   6.037   7.236   7.553 -0.3317  1.0084  1.3837
  775MOL0     H 4598   5.997   7.103   7.662 -0.6275  0.6116  1.6729
  775MOL0     H 4599   6.013   7.390   7.741  1.5990 -0.4630 -0.3623
  775MOL0     H 4600   6.042   7.261   7.860  3.1304  1.3166 -1.0752
  775MOL0     H 4601   5.810   7.296   7.667  1.1624  0.3476 -0.2916
  775MOL0     H 4602   5.813   7.173   7.794  0.9384  0.4886  0.6641
  775MOL0     H 4603   5.665   7.333   7.881 -0.9136  0.7615 -0.2084
  775MOL0     H 4604   5.777   7.463   7.845 -0.6080  0.3858  2.1143
  775MOL0     H 4605   5.930   7.410   8.016 -0.2240 -0.2343 -2.1478
  775MOL0     H 4606   5.851   7.270   8.073  2.2792 -0.2723 -0.2755
  775MOL0     H 4607   6.678   7.108   7.605  0.1426  0.4095 -0.1117
  775MOL0     H 4608   6.917   7.149   7.534 -0.5195 -0.1535 -0.8196
  775MOL0     H 4609   7.221   7.259   7.422  1.1150 -2.3051  0.8772
  775MOL0     H 4610   7.459   7.273   7.385 -1.1947  2.3822  0.9511
  775MOL0     H 4611   8.319   8.280   6.470  1.8030 -2.0989 -1.4567
  775MOL0     H 4612   8.394   8.506   6.411  1.1760  0.4765 -0.4137
  775MOL0     H 4613   8.794   8.818   6.532 -0.4310  0.5851  0.0662
  775MOL0     H 4614   8.879   9.045   6.455  0.4662 -2.2792  1.8167
  775MOL0     H 4615   8.573   9.368   6.360  0.1942 -0.5166 -0.8678
  775MOL0     H 4616   8.638   9.368   6.529 -3.3277  1.0026 -1.2574
  775MOL0     H 4617   8.676   9.573   6.369  1.1258  0.5663  0.0718
  775MOL0     H 4618   8.800   9.476   6.292  2.7295  2.2374  1.1676
  775MOL0     H 4619   8.817   9.567   6.578  0.5537 -0.0629  0.4112
  775MOL0     H 4620   8.896   9.624   6.437 -0.5779  0.3634 -0.2965
  775MOL0     H 4621   8.933   9.329   6.535  3.6569 -0.8791 -0.3531
  775MOL0     H 4622   9.025   9.460   6.586 -1.5058  0.1815  0.9382
  775MOL0     H 4623   9.241   9.424   6.252  1.2539 -0.9081  2.4384
  775MOL0     H 4624   8.468   9.187   6.434 -4.9463 -4.0999 -1.2812
  775MOL0     H 4625   8.386   8.973   6.474 -0.3817  1.5301  4.5218
  776MOL0     O 4626   8.317   5.697   5.596  0.4198  0.0600 -0.4566
  776MOL0     C 4627   8.357   5.802   5.643 -0.0842  0.4889 -0.4151
  776MOL0     O 4628   8.277   5.907   5.693 -0.1962  0.3069 -0.0846
  776MOL0     C 4629   8.144   5.899   5.652 -0.9769 -0.3823 -0.0428
  776MOL0     C 4630   8.095   5.987   5.549 -0.0999 -0.4333 -0.0121
  776MOL0     C 4631   7.959   5.984   5.520 -0.2607 -0.6971  0.1875
  776MOL0     C 4632   7.867   5.895   5.576 -0.9453 -0.3735 -0.2357
  776MOL0     O 4633   7.738   5.889   5.532 -0.2772  0.4214 -0.2469
  776MOL0     C 4634   7.633   5.843   5.611  0.5194  1.1354 -0.2134
  776MOL0     C 4635   7.500   5.881   5.554  0.0731 -0.9626  0.2157
  776MOL0     C 4636   7.376   5.902   5.648 -0.3532 -0.2810  0.4718
  776MOL0     C 4637   7.260   5.974   5.578 -0.0399 -0.5208  0.4571
  776MOL0     C 4638   7.128   5.936   5.652 -0.8814  0.6612  0.6096
  776MOL0     C 4639   7.010   6.032   5.618 -0.5730  0.1073 -0.0178
  776MOL0     C 4640   6.876   5.982   5.679 -0.5754  0.5109 -0.9488
  776MOL0     C 4641   6.760   6.042   5.589 -0.8567  0.0446  0.0603
  776MOL0     N 4642   6.621   6.030   5.631 -0.2415 -0.0724  0.2931
  776MOL0     C 4643   6.576   6.090   5.749 -0.1005 -0.2068  0.7864
  776MOL0     C 4644   6.437   6.069   5.750  0.3444  0.1910 -0.0365
  776MOL0     C 4645   6.338   6.095   5.859  0.2114 -0.0349 -0.2264
  776MOL0     C 4646   6.325   5.976   5.950  0.8107 -0.1286 -0.4345
  776MOL0     C 4647   6.276   5.850   5.885  0.1923 -0.3028 -0.0091
  776MOL0     C 4648   6.285   5.725   5.969 -0.9473 -0.3220  0.3149
  776MOL0     O 4649   6.221   5.731   6.095  0.0492 -0.6861  0.0465
  776MOL0     C 4650   6.113   5.648   6.090  0.5372 -0.3811 -0.0967
  776MOL0     C 4651   6.110   5.515   6.137 -0.7085  0.3594 -0.1891
  776MOL0     C 4652   5.998   5.435   6.136  0.2459 -0.3131  0.8137
  776MOL0     C 4653   6.002   5.307   6.217 -0.8112  0.1151  0.6729
  776MOL0     C 4654   5.878   5.483   6.072  0.4017  0.6434 -0.0464
  776MOL0     C 4655   5.749   5.411   6.075  0.8083  0.5679 -0.1276
  776MOL0     O 4656   5.647   5.448   5.991 -0.3374 -0.0565  0.3055
  776MOL0     C 4657   5.522   5.402   6.017  0.3883 -0.2446 -1.0182
  776MOL0     C 4658   5.448   5.367   5.903 -0.8484  0.7594  0.0508
  776MOL0     C 4659   5.323   5.299   5.916 -0.8076  0.1019 -0.3043
  776MOL0     C 4660   5.266   5.284   6.038  0.1483 -0.0819  0.2511
  776MOL0     O 4661   5.143   5.219   6.053  0.2252  1.0285 -0.7333
  776MOL0     C 4662   5.105   5.134   5.948  0.2288  0.6188 -0.3059
  776MOL0     C 4663   4.988   5.043   5.987 -0.7913 -0.3443 -0.5577
  776MOL0     C 4664   4.916   4.985   5.872  0.0155  0.5772  0.6282
  776MOL0     C 4665   4.811   5.082   5.815  0.4844  0.5946  0.4475
  776MOL0     C 4666   4.733   5.007   5.697  0.1322 -0.5139 -0.2007
  776MOL0     C 4667   4.655   4.882   5.735 -0.7614  0.7142 -0.5055
  776MOL0     C 4668   4.549   4.831   5.638 -0.9589 -0.2519 -0.0245
  776MOL0     C 4669   4.507   4.692   5.686  0.2373  0.7021  0.2090
  776MOL0    Cl 4670   4.412   4.711   5.827  0.2632  0.8169 -0.6095
  776MOL0     C 4671   5.329   5.333   6.152 -0.0423 -0.3989  0.1592
  776MOL0     C 4672   5.460   5.390   6.144  0.0566 -0.4291 -0.0967
  776MOL0     O 4673   5.734   5.325   6.158  0.4349  0.1023 -0.3304
  776MOL0     C 4674   5.887   5.598   5.986 -0.0683  0.4015  0.0569
  776MOL0     C 4675   5.994   5.681   6.005  0.4898  0.3399 -0.0297
  776MOL0     N 4676   6.404   6.011   5.629 -0.3886 -0.0558 -0.1598
  776MOL0     N 4677   6.509   5.994   5.555  0.5681 -0.5303  0.2089
  776MOL0     C 4678   7.917   5.806   5.668 -0.8009  0.9520  0.0470
  776MOL0     C 4679   8.056   5.810   5.707 -0.0998  0.0070 -0.0316
  776MOL0     C 4680   8.501   5.808   5.665  0.0978 -0.7822 -1.3461
  776MOL0     C 4681   8.560   5.935   5.701 -0.0542  0.4967 -0.2967
  776MOL0     C 4682   8.688   5.945   5.749  0.5483 -0.1722  0.7138
  776MOL0     C 4683   8.768   5.837   5.744  1.2510  0.3932  1.4200
  776MOL0     O 4684   8.894   5.858   5.790  0.6036 -0.1808 -0.1698
  776MOL0     C 4685   8.912   5.765   5.889  0.0057  0.6439 -0.5870
  776MOL0     C 4686   8.984   5.838   6.005  0.1070 -0.1347 -0.1553
  776MOL0     C 4687   8.893   5.939   6.081  0.2990  1.0914  0.0142
  776MOL0     C 4688   8.954   6.005   6.199  0.0775 -0.0301  0.0717
  776MOL0     C 4689   9.092   6.056   6.181  0.1313 -0.4566  0.8635
  776MOL0     C 4690   9.206   6.102   6.160 -0.2634  0.7984  0.6763
  776MOL0     C 4691   8.717   5.708   5.694  0.2709  0.0029  0.6764
  776MOL0     C 4692   8.583   5.694   5.654 -0.2534 -0.0745 -0.1810
  776MOL0     H 4693   8.167   6.047   5.494 -0.0057  2.0294  2.4996
  776MOL0     H 4694   7.911   6.044   5.444 -0.4901 -0.0448  0.8349
  776MOL0     H 4695   7.633   5.734   5.613 -3.2594  1.0416  0.9564
  776MOL0     H 4696   7.642   5.881   5.713  2.5814 -1.8244  0.8643
  776MOL0     H 4697   7.516   5.981   5.511 -1.4195 -1.5402 -1.8650
  776MOL0     H 4698   7.479   5.811   5.473 -0.3515 -1.5523  0.8330
  776MOL0     H 4699   7.342   5.799   5.660  2.0718 -0.9898  2.1168
  776MOL0     H 4700   7.410   5.944   5.743 -2.7115 -1.0151  1.7059
  776MOL0     H 4701   7.263   6.083   5.580 -0.7509 -0.5000  1.7189
  776MOL0     H 4702   7.251   5.940   5.474 -4.2588  0.0343  0.4654
  776MOL0     H 4703   7.092   5.838   5.620 -3.1738  1.3767  0.7793
  776MOL0     H 4704   7.137   5.919   5.760  0.2576 -2.0898  0.1733
  776MOL0     H 4705   7.025   6.136   5.646 -2.4660  0.3758  0.1837
  776MOL0     H 4706   6.990   6.027   5.511  0.1815 -2.8508 -0.1016
  776MOL0     H 4707   6.874   5.872   5.679 -1.4364  0.5037  0.3927
  776MOL0     H 4708   6.878   6.021   5.781 -0.7010 -1.0247 -0.3277
  776MOL0     H 4709   6.770   5.983   5.497 -0.4147 -0.2268  0.2758
  776MOL0     H 4710   6.789   6.143   5.560  0.7342 -0.6135 -0.7946
  776MOL0     H 4711   6.638   6.137   5.825  2.0217  0.9172 -1.4959
  776MOL0     H 4712   6.362   6.182   5.921  1.0523  1.4444 -2.4978
  776MOL0     H 4713   6.244   6.122   5.809  2.0115 -0.8082 -4.4346
  776MOL0     H 4714   6.255   6.001   6.030  0.0228  0.7390 -1.3589
  776MOL0     H 4715   6.421   5.946   5.992 -0.4409 -1.9701  1.2661
  776MOL0     H 4716   6.326   5.829   5.790  0.4328  2.2441 -0.5033
  776MOL0     H 4717   6.171   5.864   5.859  0.4666 -0.3440 -1.1786
  776MOL0     H 4718   6.391   5.701   5.979 -0.4942  2.2615  4.1288
  776MOL0     H 4719   6.251   5.639   5.910  1.4520 -2.0334  1.3115
  776MOL0     H 4720   6.194   5.472   6.192  0.3438  3.4393  0.8308
  776MOL0     H 4721   6.100   5.258   6.217 -0.7373  0.2572  0.1046
  776MOL0     H 4722   5.957   5.328   6.315  2.8420 -0.0958  2.5623
  776MOL0     H 4723   5.943   5.230   6.166 -0.1567  0.5114 -0.7372
  776MOL0     H 4724   5.489   5.395   5.806 -2.0426 -0.5802 -0.8730
  776MOL0     H 4725   5.269   5.274   5.825  1.1700 -1.0404 -1.2298
  776MOL0     H 4726   5.081   5.201   5.865 -1.7299 -0.9232 -1.0683
  776MOL0     H 4727   5.181   5.064   5.912 -1.1946 -2.3164  1.9494
  776MOL0     H 4728   5.039   4.967   6.048  2.0202  0.7175 -1.4112
  776MOL0     H 4729   4.918   5.098   6.050  2.4560  3.4950  0.1555
  776MOL0     H 4730   4.866   4.894   5.908 -0.6078  0.6617 -0.0220
  776MOL0     H 4731   4.991   4.947   5.801 -0.2277  0.3692  0.4813
  776MOL0     H 4732   4.739   5.109   5.893  0.1032 -1.9678  1.0624
  776MOL0     H 4733   4.854   5.172   5.769  1.5237 -0.0005  0.2118
  776MOL0     H 4734   4.802   4.989   5.614  2.5231 -2.0805  1.9642
  776MOL0     H 4735   4.649   5.069   5.664 -0.4198 -1.3041 -0.3298
  776MOL0     H 4736   4.729   4.802   5.747 -2.0416 -0.9790 -2.8889
  776MOL0     H 4737   4.612   4.909   5.832 -0.6315  0.5283 -0.3941
  776MOL0     H 4738   4.588   4.838   5.536  0.1099  0.0378  0.3921
  776MOL0     H 4739   4.462   4.898   5.635  0.0726  1.1124 -0.4551
  776MOL0     H 4740   4.595   4.630   5.705  0.5735  1.0412 -0.2043
  776MOL0     H 4741   4.454   4.643   5.604  3.3626 -0.9246 -1.0015
  776MOL0     H 4742   5.291   5.320   6.253  0.3237 -0.6155  0.2718
  776MOL0     H 4743   5.504   5.434   6.233  1.8162  2.5844 -2.2493
  776MOL0     H 4744   5.815   5.617   5.907  0.0539  0.0260 -0.1472
  776MOL0     H 4745   6.011   5.773   5.950 -1.1540 -0.1236 -1.3802
  776MOL0     H 4746   7.850   5.729   5.704  0.3054 -0.1911 -0.2386
  776MOL0     H 4747   8.104   5.740   5.775 -1.0891 -1.0335 -0.3810
  776MOL0     H 4748   8.490   6.017   5.713  0.3667  1.0576 -1.5016
  776MOL0     H 4749   8.722   6.034   5.800  1.0402  1.0996 -1.6895
  776MOL0     H 4750   8.822   5.717   5.926  0.4953 -2.7780 -3.3302
  776MOL0     H 4751   8.961   5.675   5.852  0.0012  0.6673 -0.6499
  776MOL0     H 4752   9.076   5.879   5.960  0.0607 -1.0941 -1.1678
  776MOL0     H 4753   9.023   5.760   6.071  1.6391 -1.6840 -2.6903
  776MOL0     H 4754   8.793   5.903   6.105 -0.3895  1.9138 -1.4514
  776MOL0     H 4755   8.866   6.013   6.004 -1.5451  0.7474  0.2817
  776MOL0     H 4756   8.957   5.925   6.274 -0.6852 -2.4348 -2.3142
  776MOL0     H 4757   8.881   6.079   6.234 -0.8998 -2.1634  2.9175
  776MOL0     H 4758   9.298   6.146   6.125 -1.5553  1.2857 -2.4402
  776MOL0     H 4759   8.793   5.631   5.682 -0.0772 -0.9969  3.9196
  776MOL0     H 4760   8.537   5.603   5.617  0.8925 -1.2872  1.2587
  777MOL0     O 4761   7.726   5.379   1.148  0.2679 -0.2710 -0.4395
  777MOL0     C 4762   7.694   5.415   1.034 -0.5550 -0.7631  0.0414
  777MOL0     O 4763   7.582   5.403   0.966 -1.0415  0.0978  0.0520
  777MOL0     C 4764   7.458   5.375   1.019  0.2689 -0.6717 -0.4783
  777MOL0     C 4765   7.347   5.401   0.938  0.3888  0.1478  1.0169
  777MOL0     C 4766   7.216   5.386   0.983  0.8156 -0.0732  0.9436
  777MOL0     C 4767   7.189   5.347   1.117  0.5240 -0.3643 -0.3397
  777MOL0     O 4768   7.068   5.309   1.173  0.5339 -0.6561  0.2937
  777MOL0     C 4769   6.976   5.249   1.081  0.4844 -0.2678  0.8949
  777MOL0     C 4770   6.865   5.187   1.166  0.2682 -0.6646  0.0158
  777MOL0     C 4771   6.800   5.263   1.286 -0.6606 -1.1996  0.4193
  777MOL0     C 4772   6.654   5.213   1.319  0.5498 -0.4680  0.2191
  777MOL0     C 4773   6.602   5.256   1.465 -0.2850  0.4520  0.0458
  777MOL0     C 4774   6.460   5.209   1.503  0.2916 -0.0435  0.2376
  777MOL0     C 4775   6.356   5.233   1.384  0.5528  0.7159 -0.7838
  777MOL0     C 4776   6.328   5.382   1.384  0.2446  0.0129 -0.4140
  777MOL0     N 4777   6.226   5.389   1.273  0.0606  0.1970  0.6531
  777MOL0     C 4778   6.092   5.394   1.295  0.1849  0.2192  0.3621
  777MOL0     C 4779   6.041   5.354   1.176  0.4864 -0.1163 -1.4182
  777MOL0     C 4780   5.894   5.320   1.168 -0.3162  0.0084  0.6245
  777MOL0     C 4781   5.808   5.445   1.171 -0.2014 -0.2153  0.1172
  777MOL0     C 4782   5.674   5.433   1.089  0.6452  0.2551 -0.7682
  777MOL0     C 4783   5.588   5.564   1.122  0.5578  0.4551 -0.1915
  777MOL0     O 4784   5.455   5.546   1.075 -0.1372  0.2035  1.1117
  777MOL0     C 4785   5.360   5.621   1.141 -0.1402 -0.4110  0.3504
  777MOL0     C 4786   5.230   5.586   1.115  0.7739 -0.2961 -0.1280
  777MOL0     C 4787   5.125   5.654   1.179  0.5066  0.0684  0.3692
  777MOL0     C 4788   4.989   5.601   1.143  0.6349  0.1299  0.9042
  777MOL0     C 4789   5.148   5.774   1.266 -1.0965  0.5646 -1.1061
  777MOL0     C 4790   5.039   5.857   1.338 -0.4366  0.3986  0.0806
  777MOL0     O 4791   4.904   5.820   1.323 -0.6464  0.0032  0.1833
  777MOL0     C 4792   4.811   5.884   1.400  0.6195 -0.0505 -0.1348
  777MOL0     C 4793   4.808   5.905   1.538  0.9150 -0.0151  0.6835
  777MOL0     C 4794   4.713   5.977   1.601 -0.0344  0.0838 -0.4981
  777MOL0     C 4795   4.606   6.021   1.528  0.7821 -0.2179 -0.2248
  777MOL0     O 4796   4.507   6.104   1.572  0.6732 -0.5212 -0.0730
  777MOL0     C 4797   4.466   6.084   1.704 -0.6944  0.5704 -0.1843
  777MOL0     C 4798   4.329   6.142   1.732 -0.5103 -1.1520  0.0365
  777MOL0     C 4799   4.306   6.166   1.880 -0.8862  0.2789 -0.1596
  777MOL0     C 4800   4.317   6.025   1.949  0.7551 -0.1688 -0.2142
  777MOL0     C 4801   4.252   6.027   2.084  0.3322  0.8877 -0.2040
  777MOL0     C 4802   4.300   5.897   2.152 -0.2677  0.4306 -0.4930
  777MOL0     C 4803   4.281   5.896   2.302  0.2975 -0.4212 -1.0344
  777MOL0     C 4804   4.402   5.947   2.382  0.0486 -0.4816 -0.5230
  777MOL0    Cl 4805   4.546   5.833   2.373  0.3747 -0.2465 -0.8626
  777MOL0     C 4806   4.599   5.994   1.390 -0.7858 -0.1182  1.2008
  777MOL0     C 4807   4.701   5.926   1.323  0.6293  0.1610  0.0517
  777MOL0     O 4808   5.087   5.934   1.416  0.2021  0.2136 -0.0531
  777MOL0     C 4809   5.282   5.811   1.279  1.2245 -0.4988  0.7135
  777MOL0     C 4810   5.388   5.740   1.224  0.5084  0.3036  0.5949
  777MOL0     N 4811   6.143   5.336   1.083  0.6156  0.8531 -0.7476
  777MOL0     N 4812   6.255   5.356   1.144 -0.2267  0.3719  0.8588
  777MOL0     C 4813   7.293   5.304   1.198  0.3465  0.1910  0.4388
  777MOL0     C 4814   7.431   5.321   1.150  0.3111  0.4735 -0.7178
  777MOL0     C 4815   7.802   5.471   0.960  1.0279  0.6162  0.4313
  777MOL0     C 4816   7.921   5.512   1.016 -0.2701  0.3741 -1.0667
  777MOL0     C 4817   8.033   5.548   0.936 -0.2555  0.5535  0.1095
  777MOL0     C 4818   8.024   5.561   0.802 -1.3847  0.0444  0.1482
  777MOL0     O 4819   8.142   5.598   0.741 -0.1981  0.2171  1.0742
  777MOL0     C 4820   8.139   5.594   0.592  0.2253 -0.4301  0.8560
  777MOL0     C 4821   8.288   5.611   0.539 -0.1973 -0.8785  0.0843
  777MOL0     C 4822   8.306   5.591   0.392 -0.8521 -0.0307  0.9559
  777MOL0     C 4823   8.456   5.547   0.370 -0.2306  0.4175 -0.6953
  777MOL0     C 4824   8.482   5.496   0.237  0.7336  0.0572  0.5881
  777MOL0     C 4825   8.488   5.437   0.130  0.0625  0.3449  1.6369
  777MOL0     C 4826   7.897   5.536   0.743  0.5711  1.3366  0.4632
  777MOL0     C 4827   7.790   5.487   0.820  0.0652 -0.3603 -0.4064
  777MOL0     H 4828   7.364   5.444   0.840 -0.7232 -1.5146  0.0499
  777MOL0     H 4829   7.133   5.409   0.916 -1.1578 -1.9613  2.5456
  777MOL0     H 4830   6.935   5.331   1.022  1.6772  0.0991  0.5475
  777MOL0     H 4831   7.018   5.173   1.014  0.7096  1.3388 -0.8596
  777MOL0     H 4832   6.780   5.173   1.098  0.6773 -0.5342 -0.5284
  777MOL0     H 4833   6.890   5.085   1.196 -1.4465 -1.2882 -0.5534
  777MOL0     H 4834   6.866   5.271   1.373  0.4785 -0.0550 -0.5154
  777MOL0     H 4835   6.797   5.371   1.271 -1.6582 -1.0199  1.6891
  777MOL0     H 4836   6.588   5.254   1.242 -0.7473 -3.1245 -0.2369
  777MOL0     H 4837   6.645   5.104   1.311 -0.3405 -0.4386  0.6920
  777MOL0     H 4838   6.668   5.203   1.533 -1.4827  1.0154  1.7020
  777MOL0     H 4839   6.609   5.362   1.488 -1.3371 -0.0387  3.0234
  777MOL0     H 4840   6.460   5.103   1.532 -1.5060 -0.3866 -0.8359
  777MOL0     H 4841   6.439   5.259   1.598  1.0915 -0.6828  0.7713
  777MOL0     H 4842   6.384   5.187   1.289  0.1890 -0.1389 -0.4874
  777MOL0     H 4843   6.268   5.183   1.424  1.2242  1.6853  2.1633
  777MOL0     H 4844   6.410   5.443   1.345  1.0560 -1.0620 -0.4200
  777MOL0     H 4845   6.290   5.415   1.481 -1.3955  0.5949 -1.2080
  777MOL0     H 4846   6.041   5.400   1.390  1.8348 -2.8986  1.5742
  777MOL0     H 4847   5.872   5.258   1.080  1.6427  1.6079 -1.1126
  777MOL0     H 4848   5.863   5.250   1.246 -1.2011  0.7810  0.9728
  777MOL0     H 4849   5.857   5.529   1.121  1.8634 -2.1087 -1.2156
  777MOL0     H 4850   5.788   5.473   1.275  0.8304  0.4916  0.1361
  777MOL0     H 4851   5.609   5.350   1.121  0.1850 -0.0131 -2.3181
  777MOL0     H 4852   5.696   5.409   0.985 -0.6016 -0.5239 -0.8813
  777MOL0     H 4853   5.638   5.645   1.068 -1.7794  3.1162  1.3291
  777MOL0     H 4854   5.596   5.595   1.226 -0.5787  4.2842 -1.0952
  777MOL0     H 4855   5.216   5.494   1.058 -2.5738 -1.1383  1.7666
  777MOL0     H 4856   4.937   5.683   1.092 -2.0955 -0.5948  2.3246
  777MOL0     H 4857   5.001   5.516   1.074  1.7444 -0.1699  1.4468
  777MOL0     H 4858   4.938   5.585   1.238  0.5370  0.5256  0.9185
  777MOL0     H 4859   4.903   5.880   1.585  1.1255  1.3354  1.0260
  777MOL0     H 4860   4.712   5.999   1.707 -3.3843  1.5038 -0.7059
  777MOL0     H 4861   4.459   5.978   1.731 -1.9904 -0.0377 -2.5906
  777MOL0     H 4862   4.538   6.131   1.771 -1.0075  0.7345  0.0385
  777MOL0     H 4863   4.324   6.237   1.678  1.7009  0.8129  2.9992
  777MOL0     H 4864   4.250   6.085   1.682 -2.1352  0.4536  0.6721
  777MOL0     H 4865   4.204   6.205   1.886 -0.3340  2.2206 -2.0639
  777MOL0     H 4866   4.379   6.241   1.911  1.1791 -1.2468 -1.1055
  777MOL0     H 4867   4.266   5.948   1.891  2.0469 -1.5483  0.4238
  777MOL0     H 4868   4.421   5.993   1.952  0.5499 -0.7930  0.6901
  777MOL0     H 4869   4.143   6.030   2.076 -0.0575  0.8803  3.5479
  777MOL0     H 4870   4.277   6.110   2.150 -1.7756  1.2238  0.2512
  777MOL0     H 4871   4.236   5.819   2.109 -4.0699  1.5482  2.5741
  777MOL0     H 4872   4.406   5.879   2.133 -0.5545 -0.3744 -1.4292
  777MOL0     H 4873   4.264   5.798   2.350 -1.8432 -1.1186 -3.0301
  777MOL0     H 4874   4.194   5.955   2.333  0.0381 -2.3509  2.5614
  777MOL0     H 4875   4.377   5.962   2.488 -0.9037 -0.6779 -0.7078
  777MOL0     H 4876   4.428   6.048   2.348 -0.4790 -0.8400 -2.0788
  777MOL0     H 4877   4.522   6.031   1.322  0.9525  0.7806 -0.3991
  777MOL0     H 4878   4.700   5.917   1.215 -1.0299 -1.1220  0.1414
  777MOL0     H 4879   5.316   5.902   1.327 -1.1915  1.1968 -0.6011
  777MOL0     H 4880   5.489   5.778   1.225  1.5705 -2.3232  0.5463
  777MOL0     H 4881   7.272   5.264   1.297  0.5446 -1.5169 -0.1816
  777MOL0     H 4882   7.504   5.265   1.207  0.0989  0.3316 -0.5855
  777MOL0     H 4883   7.941   5.504   1.123  0.9510 -3.0232 -1.4230
  777MOL0     H 4884   8.120   5.579   0.992 -0.9770  0.9781  1.0207
  777MOL0     H 4885   8.103   5.495   0.561  4.1519 -2.4542  1.9801
  777MOL0     H 4886   8.089   5.680   0.548  4.3941  1.5048 -0.6544
  777MOL0     H 4887   8.361   5.547   0.588  4.7198  0.6577 -4.2991
  777MOL0     H 4888   8.312   5.715   0.561 -0.2512 -0.6744 -0.7792
  777MOL0     H 4889   8.304   5.683   0.332  2.2383  0.2343  1.0484
  777MOL0     H 4890   8.228   5.522   0.361 -1.9324  0.8125  1.7109
  777MOL0     H 4891   8.485   5.481   0.452 -1.3494  1.2399  0.4066
  777MOL0     H 4892   8.524   5.634   0.371  0.4877 -0.1323 -0.0981
  777MOL0     H 4893   8.503   5.386   0.037 -0.1672 -0.5592  2.0772
  777MOL0     H 4894   7.882   5.542   0.636 -0.4563 -2.5355  0.2248
  777MOL0     H 4895   7.701   5.470   0.760  0.5885 -0.2923 -1.2185
  778MOL0     O 4896   5.767   8.247   4.839 -0.4742  1.0899 -0.3723
  778MOL0     C 4897   5.744   8.289   4.953 -0.2422 -0.2558 -0.5641
  778MOL0     O 4898   5.622   8.311   5.010  0.4640  0.2913  0.0687
  778MOL0     C 4899   5.508   8.262   4.953  1.0131  0.6488  0.3799
  778MOL0     C 4900   5.414   8.187   5.033  0.3016  0.0609 -0.5389
  778MOL0     C 4901   5.293   8.137   4.981  0.3576 -0.0216 -0.3691
  778MOL0     C 4902   5.246   8.175   4.857 -0.9534 -0.5855 -0.1571
  778MOL0     O 4903   5.121   8.134   4.818  0.0745 -0.1294  0.2221
  778MOL0     C 4904   5.049   8.242   4.755 -0.4979  0.3839  0.5727
  778MOL0     C 4905   4.901   8.201   4.743 -0.2330 -1.1778 -0.1843
  778MOL0     C 4906   4.808   8.301   4.680  0.2334  0.2992  1.3722
  778MOL0     C 4907   4.691   8.227   4.597  0.3800  0.3244 -0.4625
  778MOL0     C 4908   4.600   8.140   4.681 -0.6728  0.0241  0.7019
  778MOL0     C 4909   4.540   8.026   4.598 -0.0640 -1.0345 -0.6894
  778MOL0     C 4910   4.425   8.072   4.492 -0.1265 -0.3702  1.0695
  778MOL0     C 4911   4.359   7.959   4.412 -0.3431  0.5484  0.4220
  778MOL0     N 4912   4.220   7.926   4.446  0.3555  0.0066  1.2980
  778MOL0     C 4913   4.179   7.926   4.583 -0.5369 -0.1540 -0.2090
  778MOL0     C 4914   4.047   7.925   4.563  0.2557  0.0771  0.0142
  778MOL0     C 4915   3.944   7.904   4.676  0.5168  0.5768 -0.5762
  778MOL0     C 4916   3.901   8.045   4.735 -1.2734 -0.1248  0.5289
  778MOL0     C 4917   3.824   8.124   4.626 -0.8465 -0.0028 -1.3039
  778MOL0     C 4918   3.691   8.060   4.578  0.1458  0.0135 -0.5839
  778MOL0     O 4919   3.624   8.007   4.700  1.2941  0.1058 -0.1854
  778MOL0     C 4920   3.509   7.935   4.680  0.6597  0.2535 -0.3986
  778MOL0     C 4921   3.417   7.951   4.783  0.0672 -0.8991  0.5172
  778MOL0     C 4922   3.286   7.894   4.773 -0.9207 -0.6308 -0.0198
  778MOL0     C 4923   3.202   7.885   4.898  0.5229  0.3949 -0.0006
  778MOL0     C 4924   3.253   7.831   4.657 -0.1522  0.5397 -0.8497
  778MOL0     C 4925   3.109   7.781   4.640 -0.8689 -0.5577 -0.4541
  778MOL0     O 4926   3.094   7.654   4.587 -0.2552 -0.4791  0.6510
  778MOL0     C 4927   2.959   7.627   4.551 -0.3777 -0.7330  0.3264
  778MOL0     C 4928   2.866   7.603   4.650  0.9805 -0.1737 -0.2905
  778MOL0     C 4929   2.742   7.552   4.629  0.1889  0.6799  0.1962
  778MOL0     C 4930   2.697   7.527   4.501  0.1883 -0.2073  1.0199
  778MOL0     O 4931   2.583   7.464   4.470 -0.0960 -0.4268 -0.1196
  778MOL0     C 4932   2.472   7.445   4.571  0.0423 -1.0318  0.3314
  778MOL0     C 4933   2.341   7.403   4.498  0.7896  0.2169 -0.7469
  778MOL0     C 4934   2.213   7.418   4.592 -1.0359 -0.6319  0.1343
  778MOL0     C 4935   2.096   7.349   4.523  0.6078  0.2450 -0.0385
  778MOL0     C 4936   2.001   7.322   4.634 -0.4042 -0.6794  0.6652
  778MOL0     C 4937   1.853   7.310   4.589 -0.1810 -0.2134  0.4401
  778MOL0     C 4938   1.792   7.451   4.584 -0.3484 -0.7772  0.0156
  778MOL0     C 4939   1.651   7.443   4.536  0.1219 -0.3884 -0.1869
  778MOL0    Cl 4940   1.556   7.311   4.610  0.2417 -0.1054  0.4968
  778MOL0     C 4941   2.788   7.550   4.388 -0.2280 -0.7761 -0.9368
  778MOL0     C 4942   2.915   7.607   4.415 -0.4023  0.2008  0.3951
  778MOL0     O 4943   3.015   7.856   4.666 -0.2931 -0.2647 -0.0439
  778MOL0     C 4944   3.345   7.808   4.555  0.2779 -0.6113 -0.8262
  778MOL0     C 4945   3.481   7.849   4.566  0.6000  0.8334 -0.6854
  778MOL0     N 4946   4.008   7.940   4.429 -0.1974  0.5515 -0.0062
  778MOL0     N 4947   4.116   7.937   4.362 -0.8038  0.2115  0.3509
  778MOL0     C 4948   5.344   8.251   4.781  0.6370 -0.0523  0.0581
  778MOL0     C 4949   5.467   8.296   4.824  0.3149  0.0919 -0.7831
  778MOL0     C 4950   5.863   8.308   5.043 -0.2454  0.4825 -0.2086
  778MOL0     C 4951   5.845   8.323   5.185 -0.2313 -0.2143  0.3708
  778MOL0     C 4952   5.959   8.346   5.265 -0.0369  1.0237  0.2735
  778MOL0     C 4953   6.089   8.369   5.217 -0.5050  1.1364 -0.0992
  778MOL0     O 4954   6.195   8.395   5.300  0.2666  0.3560 -0.4581
  778MOL0     C 4955   6.159   8.436   5.437 -0.2315  1.1070  0.1870
  778MOL0     C 4956   6.270   8.494   5.512  0.4293  0.1849 -0.8020
  778MOL0     C 4957   6.390   8.396   5.513  0.4213 -0.4935 -0.6815
  778MOL0     C 4958   6.517   8.449   5.581 -0.9431  0.5341  0.0148
  778MOL0     C 4959   6.490   8.565   5.672  0.4150 -0.2201 -0.9274
  778MOL0     C 4960   6.484   8.666   5.741  0.9984 -0.5596  0.1414
  778MOL0     C 4961   6.108   8.358   5.077  0.1229  0.2545 -0.3720
  778MOL0     C 4962   5.994   8.325   4.993 -0.3896  0.1896 -0.6534
  778MOL0     H 4963   5.453   8.157   5.130  4.6313 -0.6123 -2.2376
  778MOL0     H 4964   5.215   8.084   5.036  2.0342 -2.4616 -0.1841
  778MOL0     H 4965   5.060   8.318   4.832 -1.8331 -1.3335  2.5690
  778MOL0     H 4966   5.080   8.279   4.657 -1.2971 -0.5070 -0.0318
  778MOL0     H 4967   4.896   8.108   4.685  2.6470 -2.1049  0.8775
  778MOL0     H 4968   4.858   8.174   4.840 -2.6641 -3.3017 -1.7208
  778MOL0     H 4969   4.744   8.363   4.744 -3.8226  0.6198 -2.4811
  778MOL0     H 4970   4.867   8.361   4.610 -3.7082  0.9677 -1.7651
  778MOL0     H 4971   4.626   8.306   4.559  0.6128 -0.2838 -2.1781
  778MOL0     H 4972   4.734   8.172   4.513  0.6993 -1.6179  0.9019
  778MOL0     H 4973   4.656   8.086   4.758 -1.0836 -1.1200  0.2252
  778MOL0     H 4974   4.519   8.197   4.729 -2.0052 -0.3113 -1.0367
  778MOL0     H 4975   4.617   7.957   4.561  1.8070 -0.1476  1.3420
  778MOL0     H 4976   4.476   7.978   4.673 -0.0018 -2.0193 -1.2465
  778MOL0     H 4977   4.348   8.133   4.540 -1.0872  0.5504 -1.4641
  778MOL0     H 4978   4.482   8.135   4.423 -0.2714  0.4685  1.7034
  778MOL0     H 4979   4.419   7.868   4.419 -1.6579 -0.5567 -1.6291
  778MOL0     H 4980   4.349   7.994   4.308  0.2958 -2.1729 -0.6450
  778MOL0     H 4981   4.228   7.910   4.678  0.7427  3.6337 -0.1018
  778MOL0     H 4982   3.851   7.861   4.637 -0.3860  1.1498  0.8928
  778MOL0     H 4983   3.970   7.825   4.747 -1.1030 -2.0227 -2.6513
  778MOL0     H 4984   3.988   8.104   4.766 -1.2542  0.3238 -0.3595
  778MOL0     H 4985   3.844   8.047   4.828  2.2328 -0.8283  2.8891
  778MOL0     H 4986   3.894   8.149   4.545 -1.1142  1.8103 -1.0099
  778MOL0     H 4987   3.798   8.219   4.673  0.5844 -0.8896  1.5005
  778MOL0     H 4988   3.718   7.989   4.499 -0.9375 -0.0313 -0.9245
  778MOL0     H 4989   3.627   8.136   4.533 -0.7846  0.0904  0.7953
  778MOL0     H 4990   3.455   8.019   4.858  3.3241  1.0843 -2.5929
  778MOL0     H 4991   3.134   7.970   4.911  1.7004  1.4360 -0.4066
  778MOL0     H 4992   3.127   7.806   4.897 -2.7112  3.2413  0.0247
  778MOL0     H 4993   3.263   7.884   4.989  0.3520 -1.9214  0.1387
  778MOL0     H 4994   2.901   7.615   4.752  0.7141  0.5481 -0.2736
  778MOL0     H 4995   2.690   7.529   4.721 -0.5580 -3.4915 -1.0366
  778MOL0     H 4996   2.504   7.363   4.635  0.3635 -1.8227 -0.8144
  778MOL0     H 4997   2.458   7.533   4.636  4.2124  0.4247 -0.4313
  778MOL0     H 4998   2.321   7.473   4.416 -0.2845  1.5128  0.5646
  778MOL0     H 4999   2.348   7.302   4.455  1.5074  0.3512 -0.9715
  778MOL0     H 5000   2.189   7.525   4.601 -0.8602 -0.7332  2.2310
  778MOL0     H 5001   2.239   7.373   4.688  2.4079 -0.2116 -0.4505
  778MOL0     H 5002   2.053   7.417   4.449  0.5694  0.0808 -0.1699
  778MOL0     H 5003   2.121   7.261   4.463 -2.0990 -1.8932  1.7501
  778MOL0     H 5004   1.998   7.400   4.710 -0.5132  2.1478 -2.0377
  778MOL0     H 5005   2.028   7.225   4.677  2.2590  0.2230  1.1648
  778MOL0     H 5006   1.840   7.276   4.486 -2.2809  1.0360  0.2318
  778MOL0     H 5007   1.804   7.237   4.653  1.3309 -1.1668  0.5649
  778MOL0     H 5008   1.854   7.523   4.529 -0.6853  0.9423  1.7876
  778MOL0     H 5009   1.797   7.486   4.687 -0.8513 -1.5896  0.3268
  778MOL0     H 5010   1.663   7.411   4.432 -1.8268 -2.4807  0.1601
  778MOL0     H 5011   1.592   7.534   4.535 -1.2389 -1.2459 -0.6108
  778MOL0     H 5012   2.751   7.517   4.291  2.9464 -0.9327 -2.2108
  778MOL0     H 5013   2.988   7.628   4.336 -2.3868  0.6486 -1.4116
  778MOL0     H 5014   3.316   7.756   4.464 -1.8081  0.0574 -0.6004
  778MOL0     H 5015   3.561   7.842   4.492 -0.0377  0.9560 -1.4086
  778MOL0     H 5016   5.310   8.287   4.684 -1.1410  1.8846  1.3050
  778MOL0     H 5017   5.535   8.351   4.760  0.4628  1.5957  0.5889
  778MOL0     H 5018   5.748   8.310   5.233 -0.8421  3.8256  0.5812
  778MOL0     H 5019   5.929   8.346   5.369  1.1077  1.1005  0.6144
  778MOL0     H 5020   6.088   8.518   5.426 -0.3885  0.8256 -1.0404
  778MOL0     H 5021   6.107   8.353   5.487  1.6158  0.2861  0.8232
  778MOL0     H 5022   6.239   8.525   5.612  3.4958 -1.4052  0.7818
  778MOL0     H 5023   6.299   8.585   5.459 -0.6175  0.7525 -0.4317
  778MOL0     H 5024   6.411   8.362   5.411  2.9972  1.7525 -1.0040
  778MOL0     H 5025   6.361   8.302   5.561  0.5307 -0.8058 -1.2134
  778MOL0     H 5026   6.578   8.492   5.501 -1.5972 -1.9219 -1.9015
  778MOL0     H 5027   6.578   8.376   5.634 -0.3442 -0.9118 -2.5174
  778MOL0     H 5028   6.487   8.743   5.816  3.4469 -1.1074  0.6816
  778MOL0     H 5029   6.203   8.373   5.026 -0.9418 -1.6208 -3.1870
  778MOL0     H 5030   6.004   8.324   4.885 -1.9492  2.3997 -0.8758
  779MOL0     O 5031   4.187   8.582  10.909 -0.0072 -0.7095  0.2579
  779MOL0     C 5032   4.172   8.556  11.027  0.3550 -0.0681 -0.6556
  779MOL0     O 5033   4.251   8.469  11.098  0.5967 -0.3911 -0.2257
  779MOL0     C 5034   4.342   8.388  11.038  0.7089  0.7044 -0.0419
  779MOL0     C 5035   4.295   8.269  10.969 -0.3161  0.0559 -0.4066
  779MOL0     C 5036   4.382   8.168  10.917 -0.1389 -1.2219 -0.6697
  779MOL0     C 5037   4.520   8.182  10.927 -0.1661  0.5341  0.1483
  779MOL0     O 5038   4.608   8.085  10.878 -0.8419 -0.8868  0.3409
  779MOL0     C 5039   4.574   7.990  10.766 -0.6555 -0.1014 -0.4718
  779MOL0     C 5040   4.545   8.050  10.635  0.5056  0.5219  0.1476
  779MOL0     C 5041   4.655   8.126  10.575  0.4186  0.3235 -0.2009
  779MOL0     C 5042   4.616   8.158  10.433 -0.9031  0.6542  0.0910
  779MOL0     C 5043   4.732   8.221  10.358 -1.1060  0.8544  0.8827
  779MOL0     C 5044   4.869   8.149  10.354  0.0644 -0.1936  0.0907
  779MOL0     C 5045   4.976   8.240  10.317 -1.3562  0.3588  0.6998
  779MOL0     C 5046   4.990   8.307  10.186 -0.1463  0.1148  0.6634
  779MOL0     N 5047   5.028   8.220  10.076  0.6620  0.4009 -0.3451
  779MOL0     C 5048   4.959   8.104  10.023  0.0182 -0.3186  0.4204
  779MOL0     C 5049   5.045   8.052   9.937 -0.0223 -0.0201 -0.0192
  779MOL0     C 5050   5.006   7.940   9.844  1.0905  0.1466  0.4374
  779MOL0     C 5051   5.086   7.959   9.706 -0.6308  0.0073  0.0387
  779MOL0     C 5052   5.034   8.056   9.607  0.6408 -1.0709 -0.0389
  779MOL0     C 5053   5.154   8.118   9.528 -0.0732  0.6461 -0.2179
  779MOL0     O 5054   5.116   8.192   9.414  0.4839 -0.3969 -0.0021
  779MOL0     C 5055   5.035   8.135   9.319  0.8727  0.2962 -0.2300
  779MOL0     C 5056   4.918   8.210   9.282 -0.9261  0.1333  0.4370
  779MOL0     C 5057   4.824   8.153   9.204 -0.1054 -0.4571 -0.1474
  779MOL0     C 5058   4.718   8.257   9.163 -0.7310  0.9801  0.1457
  779MOL0     C 5059   4.840   8.023   9.154  0.4574  1.4202 -0.2700
  779MOL0     C 5060   4.739   7.955   9.068  0.0524  0.6416  0.2593
  779MOL0     O 5061   4.613   7.991   9.086  0.3238 -0.4320  0.3784
  779MOL0     C 5062   4.501   7.937   9.029 -0.5888  1.0707  0.8316
  779MOL0     C 5063   4.395   8.020   8.997  0.6928 -0.2004  0.4944
  779MOL0     C 5064   4.273   7.953   8.947 -0.3483  0.8089 -0.9001
  779MOL0     C 5065   4.265   7.812   8.931 -0.6898 -0.6332  0.6691
  779MOL0     O 5066   4.144   7.748   8.907  0.0526 -0.0278  0.3411
  779MOL0     C 5067   4.041   7.833   8.850 -0.3664  0.8774  0.1095
  779MOL0     C 5068   3.946   7.748   8.765  0.2185  0.1002 -0.5789
  779MOL0     C 5069   3.883   7.647   8.852  0.5726  0.8745 -0.1953
  779MOL0     C 5070   3.762   7.575   8.803 -0.0440  0.2354  0.4199
  779MOL0     C 5071   3.646   7.673   8.804 -0.6096 -0.8538 -0.0873
  779MOL0     C 5072   3.520   7.598   8.759 -1.0858  0.0808 -0.0674
  779MOL0     C 5073   3.516   7.537   8.617  1.0049 -0.3728  0.6166
  779MOL0     C 5074   3.369   7.496   8.574  0.0767  0.5148  0.0645
  779MOL0    Cl 5075   3.360   7.466   8.392  0.5296 -0.0609 -0.2337
  779MOL0     C 5076   4.374   7.735   8.970 -0.7303  0.1423  0.9175
  779MOL0     C 5077   4.493   7.800   9.006  0.3789 -0.2799 -0.0113
  779MOL0     O 5078   4.776   7.874   8.983 -0.0061  0.2099  0.0969
  779MOL0     C 5079   4.962   7.954   9.180 -0.5168  0.4973 -0.2360
  779MOL0     C 5080   5.051   8.005   9.271  0.3130  0.0767 -0.6623
  779MOL0     N 5081   5.169   8.120   9.936 -0.6679  0.6755  1.0879
  779MOL0     N 5082   5.157   8.217  10.017 -0.2737  0.1874 -0.0214
  779MOL0     C 5083   4.569   8.301  10.990  0.1499 -0.2354 -0.6001
  779MOL0     C 5084   4.483   8.398  11.047  1.0708  0.2422 -0.1995
  779MOL0     C 5085   4.072   8.637  11.108 -0.5261 -0.3031  0.1806
  779MOL0     C 5086   4.011   8.587  11.224 -0.0273 -0.0473  1.5394
  779MOL0     C 5087   3.931   8.673  11.301 -0.4498 -0.1210 -0.5318
  779MOL0     C 5088   3.907   8.809  11.254 -0.3702  0.3294  0.7172
  779MOL0     O 5089   3.848   8.904  11.330  0.9061  0.1029  0.2110
  779MOL0     C 5090   3.728   8.862  11.401  1.3238  0.3123  0.0054
  779MOL0     C 5091   3.614   8.824  11.309 -0.8408  0.2399 -0.9141
  779MOL0     C 5092   3.486   8.787  11.385 -0.4992 -0.0288  0.2575
  779MOL0     C 5093   3.387   8.732  11.291  0.3341 -0.4178 -1.0885
  779MOL0     C 5094   3.422   8.593  11.246  0.2735 -0.7047  0.3706
  779MOL0     C 5095   3.438   8.476  11.212 -0.1451 -0.2995 -0.1989
  779MOL0     C 5096   3.966   8.851  11.137 -0.5629  0.2161  0.1114
  779MOL0     C 5097   4.048   8.766  11.064 -0.1659 -0.4908  0.1968
  779MOL0     H 5098   4.190   8.245  10.962  0.2113 -2.5914 -0.5267
  779MOL0     H 5099   4.338   8.084  10.863  2.5646 -2.3566 -1.2700
  779MOL0     H 5100   4.649   7.911  10.762 -1.3551 -0.7244 -1.8701
  779MOL0     H 5101   4.486   7.933  10.797  0.1200 -1.2502 -0.3253
  779MOL0     H 5102   4.513   7.963  10.578 -0.2820 -1.5951  3.5486
  779MOL0     H 5103   4.455   8.109  10.654 -1.8224 -3.1666  1.6671
  779MOL0     H 5104   4.669   8.219  10.632  1.3564 -0.5599  1.0520
  779MOL0     H 5105   4.750   8.076  10.594  0.1989 -0.2515 -0.6149
  779MOL0     H 5106   4.594   8.063  10.385  3.7178 -0.8876  0.5520
  779MOL0     H 5107   4.533   8.229  10.427 -0.8431  0.7867  0.7010
  779MOL0     H 5108   4.692   8.223  10.256 -1.5561  0.8185  1.0573
  779MOL0     H 5109   4.747   8.327  10.378 -4.6910  1.6493 -0.0408
  779MOL0     H 5110   4.893   8.127  10.459  1.1605 -1.3656 -0.3856
  779MOL0     H 5111   4.863   8.063  10.287 -1.1211  0.7905 -1.1170
  779MOL0     H 5112   4.966   8.319  10.392  1.1719 -1.4758  3.1513
  779MOL0     H 5113   5.070   8.186  10.330 -1.3865  0.7696  3.0596
  779MOL0     H 5114   5.057   8.392  10.200 -0.4571  0.3484  0.7082
  779MOL0     H 5115   4.892   8.346  10.159  0.6070  0.9030 -1.1031
  779MOL0     H 5116   4.860   8.061  10.032 -0.1326 -0.1522 -0.3904
  779MOL0     H 5117   5.025   7.844   9.893 -0.5695 -0.7556 -0.5900
  779MOL0     H 5118   4.898   7.940   9.829  0.8051 -6.0097  0.0779
  779MOL0     H 5119   5.068   7.861   9.660 -0.4215 -0.3394  0.6743
  779MOL0     H 5120   5.194   7.971   9.720 -0.6718  2.0314 -1.0902
  779MOL0     H 5121   4.980   8.133   9.662  2.2453 -2.3698  3.6740
  779MOL0     H 5122   4.974   7.997   9.537  0.7215 -2.3669  0.9431
  779MOL0     H 5123   5.236   8.050   9.504  2.1611  3.3989 -0.9666
  779MOL0     H 5124   5.185   8.196   9.598 -1.9666 -1.5002  3.3205
  779MOL0     H 5125   4.898   8.308   9.324 -0.3182 -0.2188  1.6144
  779MOL0     H 5126   4.624   8.202   9.172  1.1902 -2.6953  0.0806
  779MOL0     H 5127   4.714   8.348   9.223  1.2555  1.9375 -1.0701
  779MOL0     H 5128   4.732   8.296   9.061  0.5074  1.5132  0.4919
  779MOL0     H 5129   4.400   8.127   9.009 -2.6313  0.1775 -0.5332
  779MOL0     H 5130   4.194   8.023   8.921 -1.1585  0.7959  1.3561
  779MOL0     H 5131   3.975   7.867   8.931  1.2472 -0.2353  1.9933
  779MOL0     H 5132   4.088   7.908   8.786  1.0614 -0.7498 -0.8379
  779MOL0     H 5133   3.866   7.797   8.709 -0.0613 -0.2834 -0.5230
  779MOL0     H 5134   4.006   7.693   8.691  0.7802  2.1531 -1.7204
  779MOL0     H 5135   3.859   7.680   8.954  2.0356 -0.8152  0.7562
  779MOL0     H 5136   3.962   7.576   8.879 -0.2820  0.2657  0.8061
  779MOL0     H 5137   3.776   7.540   8.700  1.2799 -0.6561  0.8763
  779MOL0     H 5138   3.750   7.492   8.874  2.2388 -0.8434 -0.3659
  779MOL0     H 5139   3.651   7.766   8.746 -0.5275  0.5441  2.0475
  779MOL0     H 5140   3.646   7.703   8.909  1.7857  1.3374 -0.6194
  779MOL0     H 5141   3.506   7.523   8.838 -0.0916  3.0732  3.1748
  779MOL0     H 5142   3.437   7.669   8.753 -0.0681  1.2874 -0.1272
  779MOL0     H 5143   3.576   7.447   8.604  0.7913 -0.3184 -0.9105
  779MOL0     H 5144   3.549   7.619   8.552  0.1683  0.0411  0.6997
  779MOL0     H 5145   3.305   7.580   8.603  2.5867  2.7816 -0.5607
  779MOL0     H 5146   3.345   7.405   8.629  2.3982  0.6804  1.4922
  779MOL0     H 5147   4.366   7.628   8.954  0.8283  0.0027  0.9750
  779MOL0     H 5148   4.577   7.737   9.034  2.2034  1.0988 -2.0469
  779MOL0     H 5149   4.974   7.851   9.146  0.6711  0.0310  1.4602
  779MOL0     H 5150   5.132   7.942   9.306 -0.6908 -0.2795  1.1164
  779MOL0     H 5151   4.675   8.319  10.999  0.1317 -1.1874  4.2005
  779MOL0     H 5152   4.523   8.481  11.104 -1.9130 -0.4043  3.1311
  779MOL0     H 5153   4.043   8.491  11.264  2.4360  0.4876  1.0183
  779MOL0     H 5154   3.897   8.633  11.395  1.2064  0.0106  0.1600
  779MOL0     H 5155   3.748   8.778  11.468  1.2130 -2.3075 -2.9624
  779MOL0     H 5156   3.690   8.952  11.450 -0.4228 -0.2875 -0.2033
  779MOL0     H 5157   3.642   8.732  11.256 -0.6093 -0.0851 -0.2337
  779MOL0     H 5158   3.586   8.917  11.259 -0.4039  1.4094  0.9377
  779MOL0     H 5159   3.445   8.877  11.432 -1.8483 -1.0571  1.1183
  779MOL0     H 5160   3.507   8.715  11.464  0.1518  0.1175  0.2286
  779MOL0     H 5161   3.374   8.796  11.203  0.6836  1.8970  0.4439
  779MOL0     H 5162   3.288   8.723  11.338  0.6716 -3.8409 -0.8334
  779MOL0     H 5163   3.451   8.372  11.189 -1.8967 -0.7393  0.6468
  779MOL0     H 5164   3.941   8.952  11.104 -0.0990  0.2704 -0.0818
  779MOL0     H 5165   4.086   8.800  10.968 -0.0020  3.1524  1.4222
  780MOL0     O 5166   9.087   4.636   6.207 -0.0025  0.3696 -0.5633
  780MOL0     C 5167   9.022   4.533   6.199 -0.0503 -0.2975  0.4792
  780MOL0     O 5168   9.058   4.417   6.147 -0.1403  0.1323  0.4973
  780MOL0     C 5169   9.180   4.408   6.078 -0.3090  0.1922 -0.4657
  780MOL0     C 5170   9.232   4.508   5.996 -0.2638 -0.3107 -0.3178
  780MOL0     C 5171   9.356   4.490   5.938 -0.9691  0.3072 -0.5488
  780MOL0     C 5172   9.425   4.368   5.956  1.2351 -0.2007  0.3668
  780MOL0     O 5173   9.550   4.363   5.895 -0.4086  0.2217 -0.0323
  780MOL0     C 5174   9.592   4.235   5.856  0.3263  0.3182 -1.1736
  780MOL0     C 5175   9.712   4.254   5.763  0.0099 -0.8251  0.6306
  780MOL0     C 5176   9.837   4.279   5.855  0.1850  0.3213  0.4019
  780MOL0     C 5177   9.940   4.355   5.773 -0.1568 -0.6584  0.3002
  780MOL0     C 5178  10.070   4.360   5.862 -0.2989  0.7826  0.2796
  780MOL0     C 5179  10.187   4.405   5.778 -0.3146 -0.3807  0.2529
  780MOL0     C 5180  10.311   4.413   5.857 -0.1222  1.1761  0.3246
  780MOL0     C 5181  10.362   4.554   5.892 -0.3196 -0.8753  0.7231
  780MOL0     N 5182  10.311   4.613   6.016  0.4445 -0.1680  0.0617
  780MOL0     C 5183  10.358   4.734   6.064 -1.0935  0.8790 -0.1633
  780MOL0     C 5184  10.287   4.754   6.179 -0.1876 -0.0077 -0.3233
  780MOL0     C 5185  10.303   4.883   6.263  0.2337 -0.8116 -0.4886
  780MOL0     C 5186  10.179   4.915   6.358 -0.4380  0.5138  0.9336
  780MOL0     C 5187  10.206   5.045   6.447  0.8419 -0.1424  0.4538
  780MOL0     C 5188  10.068   5.092   6.492 -0.2233  0.5108  0.7551
  780MOL0     O 5189  10.064   5.189   6.595 -0.3036 -0.6913 -0.3496
  780MOL0     C 5190   9.937   5.238   6.622 -0.3726  0.0370 -0.6151
  780MOL0     C 5191   9.811   5.167   6.621 -0.3735  0.9895  0.5928
  780MOL0     C 5192   9.686   5.221   6.632  0.4993  0.0251  0.7986
  780MOL0     C 5193   9.558   5.123   6.628 -0.1834 -0.5267 -0.0663
  780MOL0     C 5194   9.676   5.361   6.636  0.6695 -0.5957  0.9020
  780MOL0     C 5195   9.549   5.434   6.647  0.7333  0.5249  0.6747
  780MOL0     O 5196   9.569   5.568   6.662 -0.3203 -0.3416 -0.3413
  780MOL0     C 5197   9.479   5.666   6.676 -0.1397  0.4887  0.0446
  780MOL0     C 5198   9.349   5.650   6.724  0.2747  0.6560  0.7720
  780MOL0     C 5199   9.262   5.756   6.729 -1.2097 -0.5445 -0.7257
  780MOL0     C 5200   9.302   5.888   6.705  0.0264  0.6161  0.2873
  780MOL0     O 5201   9.209   5.985   6.718  0.2262 -0.9252 -0.2156
  780MOL0     C 5202   9.260   6.100   6.777 -0.6422 -0.3363  0.2818
  780MOL0     C 5203   9.143   6.178   6.826  0.0725 -0.2769 -0.5281
  780MOL0     C 5204   9.079   6.105   6.948 -0.8262 -0.3806 -0.1941
  780MOL0     C 5205   8.961   6.200   7.002  0.6705  0.6586 -0.5040
  780MOL0     C 5206   8.899   6.145   7.138 -0.8193 -0.1307 -0.6005
  780MOL0     C 5207   9.007   6.109   7.249  0.1663  0.6094 -0.7042
  780MOL0     C 5208   8.941   6.049   7.376  0.4261 -0.0917  0.1619
  780MOL0     C 5209   9.048   6.002   7.483 -0.0746  0.2394  0.3847
  780MOL0    Cl 5210   9.126   6.146   7.537 -0.1609 -0.2327  0.1206
  780MOL0     C 5211   9.439   5.905   6.673 -0.1283 -0.0006  0.2530
  780MOL0     C 5212   9.522   5.799   6.646  0.3590  1.0878 -0.4961
  780MOL0     O 5213   9.438   5.379   6.655 -0.1411 -0.6191 -0.5046
  780MOL0     C 5214   9.795   5.436   6.641  0.0387 -0.7357  0.0380
  780MOL0     C 5215   9.930   5.375   6.636  0.2332 -0.0012 -0.0414
  780MOL0     N 5216  10.198   4.642   6.205 -0.9269  0.4941  0.1965
  780MOL0     N 5217  10.221   4.562   6.108  0.2013  0.2567 -0.8447
  780MOL0     C 5218   9.374   4.272   6.041  0.7496 -0.2559  0.1756
  780MOL0     C 5219   9.244   4.282   6.090 -0.5547  0.1546 -0.1466
  780MOL0     C 5220   8.884   4.547   6.245  0.5424  0.4610 -0.7777
  780MOL0     C 5221   8.791   4.443   6.246  1.1705  0.1904  0.1887
  780MOL0     C 5222   8.657   4.468   6.297  0.3281 -0.1860  0.6078
  780MOL0     C 5223   8.623   4.592   6.345  0.2892  0.4341 -1.1514
  780MOL0     O 5224   8.495   4.621   6.396 -1.0999  0.1950  0.2540
  780MOL0     C 5225   8.400   4.524   6.377  0.1055  0.3149 -0.2046
  780MOL0     C 5226   8.406   4.410   6.493 -0.2926  0.5635  0.4483
  780MOL0     C 5227   8.356   4.277   6.436  0.5143 -0.3170  0.5377
  780MOL0     C 5228   8.371   4.175   6.538 -0.0000 -1.6756  0.9689
  780MOL0     C 5229   8.341   4.043   6.500 -0.9757  0.4955 -0.0118
  780MOL0     C 5230   8.309   3.924   6.484 -0.0641 -0.8901 -0.5123
  780MOL0     C 5231   8.702   4.699   6.336  0.4535 -0.4933  0.1195
  780MOL0     C 5232   8.837   4.674   6.301  0.0262 -0.5021 -0.0594
  780MOL0     H 5233   9.181   4.603   5.986 -3.8422 -2.0487 -0.2018
  780MOL0     H 5234   9.400   4.571   5.880  2.1616 -3.1486 -3.5850
  780MOL0     H 5235   9.617   4.192   5.954  0.3860  1.4459 -0.6735
  780MOL0     H 5236   9.518   4.176   5.802  2.4462 -2.2635 -1.4728
  780MOL0     H 5237   9.728   4.163   5.704  1.8750  1.4676 -2.7765
  780MOL0     H 5238   9.701   4.342   5.699  2.2315 -1.3238 -0.5511
  780MOL0     H 5239   9.808   4.327   5.949  0.0015  2.3811 -0.6442
  780MOL0     H 5240   9.876   4.178   5.874 -1.3806  0.0600  2.6093
  780MOL0     H 5241   9.947   4.301   5.679 -1.2172 -2.3855  1.1650
  780MOL0     H 5242   9.901   4.455   5.754  0.4747 -0.2362  1.1071
  780MOL0     H 5243  10.048   4.423   5.949 -0.6406 -3.2834  3.4312
  780MOL0     H 5244  10.080   4.266   5.916 -3.5592  0.4209  0.4613
  780MOL0     H 5245  10.191   4.334   5.694 -0.6945 -1.5378  1.1803
  780MOL0     H 5246  10.170   4.502   5.731  3.3562  0.5767  0.6520
  780MOL0     H 5247  10.299   4.354   5.948 -1.4421 -0.0375 -0.6104
  780MOL0     H 5248  10.379   4.363   5.788 -1.3191  1.6707 -1.2504
  780MOL0     H 5249  10.339   4.618   5.806  0.4922 -1.1247  0.3132
  780MOL0     H 5250  10.471   4.555   5.890 -0.3017  1.2005 -0.7729
  780MOL0     H 5251  10.433   4.799   6.021 -2.0576  0.8040 -2.0794
  780MOL0     H 5252  10.396   4.889   6.321 -0.5554  1.0639  0.6854
  780MOL0     H 5253  10.299   4.972   6.199 -2.2518  1.3521  2.3469
  780MOL0     H 5254  10.156   4.819   6.405  1.2254  0.2531  1.2868
  780MOL0     H 5255  10.096   4.944   6.293  2.0145  0.2081 -2.6327
  780MOL0     H 5256  10.249   5.127   6.388 -1.7163 -0.5326 -2.1523
  780MOL0     H 5257  10.268   5.022   6.535  0.2936  0.9629  1.1571
  780MOL0     H 5258  10.021   5.000   6.526  2.2544 -1.2601 -0.2917
  780MOL0     H 5259  10.000   5.126   6.413  1.7676  0.3013 -1.1256
  780MOL0     H 5260   9.817   5.059   6.612 -2.2941  0.9810 -1.4703
  780MOL0     H 5261   9.504   5.148   6.720 -0.2345  1.8021 -0.6695
  780MOL0     H 5262   9.484   5.151   6.553 -2.4353 -1.4237  1.7147
  780MOL0     H 5263   9.593   5.020   6.626 -0.5006 -0.6233 -1.8371
  780MOL0     H 5264   9.309   5.556   6.761 -4.4319  2.1603  0.2350
  780MOL0     H 5265   9.162   5.725   6.755 -1.8211  0.2258 -2.0622
  780MOL0     H 5266   9.325   6.077   6.862 -1.7734 -1.6774  0.8224
  780MOL0     H 5267   9.310   6.172   6.710 -0.3176 -0.6077  0.2256
  780MOL0     H 5268   9.180   6.279   6.847 -0.1540  0.4598 -3.2822
  780MOL0     H 5269   9.060   6.201   6.758 -0.2079  1.7521  0.4097
  780MOL0     H 5270   9.149   6.087   7.030 -2.8114  0.4745  1.8017
  780MOL0     H 5271   9.048   6.004   6.922  1.0942 -0.3461 -3.1070
  780MOL0     H 5272   9.000   6.302   7.010  0.3849  0.7585 -0.3960
  780MOL0     H 5273   8.878   6.195   6.931 -0.2621  1.0298  0.5360
  780MOL0     H 5274   8.844   6.052   7.119  0.6827 -0.8355 -1.7593
  780MOL0     H 5275   8.823   6.210   7.182  1.7502  1.8558  1.1518
  780MOL0     H 5276   9.078   6.036   7.209  1.2748  0.9367  0.6099
  780MOL0     H 5277   9.050   6.206   7.277  1.7050 -0.3789  0.5075
  780MOL0     H 5278   8.885   5.959   7.349  0.3885  0.5440 -2.0360
  780MOL0     H 5279   8.874   6.119   7.426  0.0037 -0.5168  0.2025
  780MOL0     H 5280   9.117   5.928   7.442 -1.7787 -2.8255  2.6362
  780MOL0     H 5281   8.998   5.953   7.567 -1.3198  0.3491 -0.2631
  780MOL0     H 5282   9.488   6.000   6.654  1.9449 -1.2481 -1.0580
  780MOL0     H 5283   9.620   5.806   6.599  1.3746 -0.4195  1.2335
  780MOL0     H 5284   9.792   5.544   6.633  2.2989 -0.6013  0.2040
  780MOL0     H 5285  10.025   5.425   6.620 -0.4427  1.9682  1.6040
  780MOL0     H 5286   9.434   4.184   6.063  1.9289 -0.1106 -2.1873
  780MOL0     H 5287   9.206   4.198   6.148 -1.3698 -1.0910 -2.3545
  780MOL0     H 5288   8.824   4.347   6.207  0.2271 -0.0491 -0.0397
  780MOL0     H 5289   8.590   4.384   6.282 -0.2745  0.7217 -2.3675
  780MOL0     H 5290   8.303   4.574   6.379  0.4996  1.0751  0.4543
  780MOL0     H 5291   8.406   4.471   6.281 -2.1057  2.4975 -1.6597
  780MOL0     H 5292   8.342   4.447   6.573  0.2069  4.6799 -0.8103
  780MOL0     H 5293   8.511   4.404   6.522  1.0140 -0.1468 -3.6981
  780MOL0     H 5294   8.425   4.245   6.357  1.7539  0.1677  1.3902
  780MOL0     H 5295   8.256   4.291   6.394 -0.5361 -2.2355  2.1739
  780MOL0     H 5296   8.307   4.202   6.623  2.4318  1.5569  1.9768
  780MOL0     H 5297   8.469   4.167   6.584  0.1171  0.3261  1.1844
  780MOL0     H 5298   8.288   3.820   6.471 -1.3162 -1.0472  2.0637
  780MOL0     H 5299   8.662   4.796   6.363 -0.7382 -1.0612  0.4511
  780MOL0     H 5300   8.915   4.749   6.308  0.5038 -0.7382 -2.1338
  781MOL0     O 5301   5.366   9.688   9.146 -0.2235  0.2098 -0.7919
  781MOL0     C 5302   5.417   9.589   9.206  0.3198  0.0975  0.8191
  781MOL0     O 5303   5.356   9.499   9.295 -0.0821 -0.5608  0.2814
  781MOL0     C 5304   5.213   9.497   9.306  0.5730 -0.1550  0.0657
  781MOL0     C 5305   5.157   9.461   9.427 -0.3448 -0.2520  0.6988
  781MOL0     C 5306   5.018   9.470   9.448 -0.0667  0.1955  0.0020
  781MOL0     C 5307   4.931   9.511   9.350 -1.1472 -0.0936  0.1341
  781MOL0     O 5308   4.800   9.518   9.399  0.3000  0.6048  0.3444
  781MOL0     C 5309   4.715   9.625   9.347 -0.5928  0.9942 -0.2332
  781MOL0     C 5310   4.594   9.657   9.432 -0.4261 -0.4711 -0.8988
  781MOL0     C 5311   4.509   9.541   9.472 -0.0995 -0.6164 -0.5185
  781MOL0     C 5312   4.398   9.601   9.566  0.3656  0.5917  0.9789
  781MOL0     C 5313   4.291   9.496   9.581 -0.2229 -0.8068 -0.8132
  781MOL0     C 5314   4.163   9.561   9.647 -0.0247 -0.4732  0.1363
  781MOL0     C 5315   4.064   9.631   9.546 -0.0257 -0.2008 -0.0520
  781MOL0     C 5316   3.999   9.535   9.450 -1.4900  0.0831  0.9495
  781MOL0     N 5317   3.862   9.544   9.463 -0.1791  0.1856 -1.0563
  781MOL0     C 5318   3.798   9.460   9.545  0.2466 -0.2385  0.4451
  781MOL0     C 5319   3.664   9.491   9.520 -0.2213  0.3208 -0.5322
  781MOL0     C 5320   3.555   9.414   9.586  1.6331 -0.1735 -1.1777
  781MOL0     C 5321   3.441   9.398   9.483  0.4185 -0.5025  1.0251
  781MOL0     C 5322   3.332   9.302   9.536 -0.7887  0.1030 -0.7067
  781MOL0     C 5323   3.207   9.301   9.448  0.2835  0.1109  0.3712
  781MOL0     O 5324   3.092   9.310   9.532  0.1880  0.0790  0.0661
  781MOL0     C 5325   2.995   9.220   9.526 -0.1972  1.1998 -0.9867
  781MOL0     C 5326   2.863   9.251   9.565 -0.1991  0.6253  0.5383
  781MOL0     C 5327   2.750   9.174   9.542  0.5103  0.1799 -0.7627
  781MOL0     C 5328   2.619   9.237   9.597 -1.3232  0.1873  1.3914
  781MOL0     C 5329   2.769   9.044   9.490 -0.4959 -0.0217 -0.0327
  781MOL0     C 5330   2.663   8.943   9.466  0.0906  0.2467 -0.0260
  781MOL0     O 5331   2.673   8.851   9.365 -0.0338 -0.8961 -0.0084
  781MOL0     C 5332   2.570   8.764   9.350  0.0369 -0.1779  0.5587
  781MOL0     C 5333   2.555   8.640   9.412  0.3896 -0.9625 -0.0882
  781MOL0     C 5334   2.438   8.564   9.409  0.7314  0.3797 -1.0722
  781MOL0     C 5335   2.325   8.616   9.340  0.2500 -0.1535  0.7985
  781MOL0     O 5336   2.206   8.543   9.343  0.3429 -0.2173 -0.2905
  781MOL0     C 5337   2.096   8.556   9.248  0.5384 -0.2801  0.0848
  781MOL0     C 5338   1.997   8.646   9.319 -0.4506 -0.6312 -0.4973
  781MOL0     C 5339   1.861   8.644   9.244  0.1234  0.3767  0.1878
  781MOL0     C 5340   1.828   8.780   9.181 -0.5194  0.3390  0.2294
  781MOL0     C 5341   1.679   8.775   9.136 -1.3717 -0.7609 -0.6842
  781MOL0     C 5342   1.636   8.915   9.102  0.7093 -0.5399  0.3457
  781MOL0     C 5343   1.720   8.987   9.002  0.1323 -0.5893  0.3245
  781MOL0     C 5344   1.642   9.097   8.936  1.1566 -0.3341 -0.7677
  781MOL0    Cl 5345   1.745   9.175   8.817  0.0093  0.0228 -0.3259
  781MOL0     C 5346   2.345   8.736   9.268 -0.8082  0.9200 -0.0043
  781MOL0     C 5347   2.463   8.811   9.281 -0.1772 -0.0972 -0.8369
  781MOL0     O 5348   2.572   8.943   9.547 -0.7129  0.2055 -0.3230
  781MOL0     C 5349   2.901   9.002   9.458 -0.1315  0.8101 -0.2494
  781MOL0     C 5350   3.008   9.087   9.472  1.1630  0.5674 -0.5381
  781MOL0     N 5351   3.653   9.591   9.431  0.0103  0.3711  0.0485
  781MOL0     N 5352   3.772   9.628   9.397 -0.3235 -0.6786 -0.3969
  781MOL0     C 5353   4.989   9.548   9.227 -0.1133  0.2349 -0.1979
  781MOL0     C 5354   5.131   9.533   9.201 -0.5574 -0.5203  0.3683
  781MOL0     C 5355   5.564   9.576   9.196 -0.2560 -0.0537 -0.2609
  781MOL0     C 5356   5.644   9.664   9.130  0.0700 -0.3648  0.6365
  781MOL0     C 5357   5.780   9.633   9.117  0.4677  0.7968  0.2111
  781MOL0     C 5358   5.840   9.514   9.158  0.0249  0.7021  0.2959
  781MOL0     O 5359   5.976   9.492   9.150  0.2091 -0.9564  0.0260
  781MOL0     C 5360   6.051   9.536   9.036  0.0440  1.0973 -0.3731
  781MOL0     C 5361   6.117   9.670   9.061  0.2131 -0.3089  0.1011
  781MOL0     C 5362   6.198   9.686   9.181 -0.8587 -0.0430 -0.6653
  781MOL0     C 5363   6.252   9.829   9.162 -0.6456  0.1315 -0.2587
  781MOL0     C 5364   6.344   9.865   9.273  0.4579  0.8158  0.1644
  781MOL0     C 5365   6.389   9.901   9.374 -0.5256 -0.2703 -0.1276
  781MOL0     C 5366   5.757   9.434   9.242  0.5000  0.5605  0.4225
  781MOL0     C 5367   5.618   9.461   9.256  0.8016 -0.6609  0.5374
  781MOL0     H 5368   5.217   9.419   9.508 -1.7195 -1.5762  1.0758
  781MOL0     H 5369   4.983   9.443   9.548 -1.1752 -0.3750 -0.5273
  781MOL0     H 5370   4.771   9.719   9.345 -0.7544  1.4019  4.3415
  781MOL0     H 5371   4.679   9.584   9.252 -0.2999 -2.8306  1.1463
  781MOL0     H 5372   4.640   9.701   9.521  2.6928 -1.1249 -2.0622
  781MOL0     H 5373   4.537   9.727   9.371 -0.6191  0.1384 -0.0435
  781MOL0     H 5374   4.486   9.491   9.377  2.2155 -1.2200 -0.8250
  781MOL0     H 5375   4.560   9.463   9.529 -0.9717 -1.5915 -1.0367
  781MOL0     H 5376   4.451   9.623   9.660  1.5847  0.2365  0.3906
  781MOL0     H 5377   4.361   9.697   9.530 -0.3293  0.3208  0.9521
  781MOL0     H 5378   4.260   9.442   9.492 -0.3146  1.1280 -2.0116
  781MOL0     H 5379   4.334   9.425   9.652 -0.8632 -2.8978 -2.4408
  781MOL0     H 5380   4.114   9.484   9.706 -2.1357  1.7701  1.4977
  781MOL0     H 5381   4.202   9.637   9.715 -1.5478 -0.0704  0.6005
  781MOL0     H 5382   3.987   9.679   9.606  0.0273 -0.0689 -0.0898
  781MOL0     H 5383   4.123   9.705   9.490  4.6482 -2.9536  0.6470
  781MOL0     H 5384   4.037   9.435   9.472  0.6569 -0.1065 -2.6261
  781MOL0     H 5385   4.024   9.552   9.344 -3.4916 -1.3524  0.1813
  781MOL0     H 5386   3.830   9.379   9.610 -2.4464 -2.0923 -0.4112
  781MOL0     H 5387   3.582   9.314   9.621  0.2678 -0.5242 -1.0567
  781MOL0     H 5388   3.521   9.481   9.665 -1.3208 -0.2338 -2.2634
  781MOL0     H 5389   3.481   9.351   9.393  1.4982  1.2575  0.5478
  781MOL0     H 5390   3.404   9.500   9.468  3.6921  0.9004  1.6911
  781MOL0     H 5391   3.303   9.330   9.638 -2.7432  0.2460 -1.2773
  781MOL0     H 5392   3.352   9.195   9.550  0.5936  0.5590  1.1795
  781MOL0     H 5393   3.221   9.212   9.386 -0.5703 -0.2037  0.6116
  781MOL0     H 5394   3.203   9.385   9.379 -0.9992 -0.3009 -0.0797
  781MOL0     H 5395   2.846   9.352   9.601 -1.3915  0.7546 -0.3172
  781MOL0     H 5396   2.553   9.229   9.510  1.7406  1.5702 -1.2650
  781MOL0     H 5397   2.579   9.185   9.684 -2.1902  0.1076  0.9553
  781MOL0     H 5398   2.640   9.341   9.626  1.8106  0.0337  0.1219
  781MOL0     H 5399   2.638   8.606   9.474  0.4619  2.3244  1.8524
  781MOL0     H 5400   2.424   8.481   9.477  0.0649 -0.1117 -1.7896
  781MOL0     H 5401   2.120   8.600   9.151  2.3691 -0.4298  0.4443
  781MOL0     H 5402   2.043   8.462   9.229  1.4888 -0.3747 -2.5422
  781MOL0     H 5403   1.983   8.616   9.423 -0.4620  1.1342  0.0514
  781MOL0     H 5404   2.035   8.749   9.312 -1.2051 -0.2228  1.0961
  781MOL0     H 5405   1.783   8.621   9.317  1.4574 -0.5907  1.3597
  781MOL0     H 5406   1.859   8.567   9.167 -0.1091 -0.2264  0.7893
  781MOL0     H 5407   1.848   8.857   9.256 -0.5492  0.1057  0.4760
  781MOL0     H 5408   1.900   8.801   9.102 -1.3421 -2.1612 -1.3168
  781MOL0     H 5409   1.623   8.737   9.223  0.4792  1.2452  1.5387
  781MOL0     H 5410   1.664   8.710   9.050 -1.1917 -1.4015 -0.2403
  781MOL0     H 5411   1.530   8.913   9.077  1.0676 -0.7733 -1.2786
  781MOL0     H 5412   1.637   8.977   9.193 -2.5758  2.5737 -1.4576
  781MOL0     H 5413   1.753   8.926   8.918 -1.9045  0.8521 -1.6610
  781MOL0     H 5414   1.805   9.032   9.053 -2.2316  4.3810  0.4683
  781MOL0     H 5415   1.610   9.174   9.007 -2.0550 -0.2753 -2.0819
  781MOL0     H 5416   1.550   9.066   8.884  1.4171 -0.5261 -1.1203
  781MOL0     H 5417   2.262   8.785   9.218  0.1468  1.6609 -0.9138
  781MOL0     H 5418   2.465   8.910   9.236 -2.4041  0.2482 -0.3135
  781MOL0     H 5419   2.929   8.899   9.442  0.7490  0.3149  3.4712
  781MOL0     H 5420   3.090   9.051   9.412  0.5743 -1.4438 -0.2014
  781MOL0     H 5421   4.926   9.586   9.148 -0.9469 -2.0686 -0.7283
  781MOL0     H 5422   5.177   9.557   9.106 -1.1264  0.1566  0.2586
  781MOL0     H 5423   5.604   9.753   9.085  2.0485 -0.4882 -1.5483
  781MOL0     H 5424   5.826   9.711   9.057 -0.1827  0.4296 -0.8011
  781MOL0     H 5425   6.130   9.464   9.012  0.7948  1.2431  1.5154
  781MOL0     H 5426   5.985   9.543   8.949  0.7730 -2.1877 -1.3231
  781MOL0     H 5427   6.033   9.739   9.049  0.3920 -0.2471 -0.8689
  781MOL0     H 5428   6.185   9.687   8.977  2.5745 -1.3341  1.6951
  781MOL0     H 5429   6.274   9.608   9.177 -0.1647  0.6587 -1.9849
  781MOL0     H 5430   6.142   9.669   9.274  1.3266  0.6349  0.8572
  781MOL0     H 5431   6.175   9.906   9.170 -1.0268 -0.2393 -0.3303
  781MOL0     H 5432   6.301   9.845   9.065 -0.7668 -0.8989 -0.5099
  781MOL0     H 5433   6.437   9.942   9.460  0.1424  2.4281 -1.6464
  781MOL0     H 5434   5.798   9.349   9.296  2.5207  0.2188 -1.5258
  781MOL0     H 5435   5.551   9.395   9.310  0.5271 -0.3222  0.6205
  782MOL0     O 5436   6.695   2.265   6.403 -0.2606 -0.4457  0.2943
  782MOL0     C 5437   6.654   2.379   6.417 -0.0664 -0.2547 -0.8198
  782MOL0     O 5438   6.738   2.484   6.454  0.7839  0.0789  0.5015
  782MOL0     C 5439   6.869   2.472   6.450 -0.1753  0.1796 -0.7758
  782MOL0     C 5440   6.941   2.506   6.336  0.1054 -0.9025  0.1194
  782MOL0     C 5441   7.077   2.495   6.319  0.1451 -0.0899 -0.0400
  782MOL0     C 5442   7.153   2.453   6.433  0.7493 -0.3355 -0.4878
  782MOL0     O 5443   7.290   2.424   6.434  0.0273 -0.5535 -0.2834
  782MOL0     C 5444   7.356   2.416   6.311 -0.1566  1.0501  0.6293
  782MOL0     C 5445   7.477   2.333   6.343  0.6461  0.0596 -0.2468
  782MOL0     C 5446   7.563   2.289   6.219  1.0145 -0.9375 -0.2254
  782MOL0     C 5447   7.688   2.236   6.274 -0.0381  1.0274  0.7190
  782MOL0     C 5448   7.765   2.165   6.158 -0.0582  0.1493  0.4009
  782MOL0     C 5449   7.899   2.121   6.201  0.3746  0.1967  0.2512
  782MOL0     C 5450   7.983   2.055   6.086 -0.4349  0.3715 -1.5265
  782MOL0     C 5451   8.120   2.029   6.147 -0.1373  0.2592  0.1367
  782MOL0     N 5452   8.224   2.138   6.132  0.0880  0.1986 -0.2134
  782MOL0     C 5453   8.218   2.261   6.194  1.2437  0.8324 -0.7220
  782MOL0     C 5454   8.330   2.320   6.144 -0.3489 -0.6073  0.4350
  782MOL0     C 5455   8.360   2.458   6.195  0.0992  0.3219 -0.0450
  782MOL0     C 5456   8.302   2.571   6.103  0.1196 -0.3140  0.0906
  782MOL0     C 5457   8.150   2.586   6.124  0.1120  1.3774 -0.3452
  782MOL0     C 5458   8.122   2.732   6.113  0.3854  0.2586  0.1338
  782MOL0     O 5459   7.984   2.749   6.137  0.1361 -0.6126 -0.9111
  782MOL0     C 5460   7.924   2.753   6.265 -0.0321 -0.5930  1.0690
  782MOL0     C 5461   7.784   2.761   6.276 -0.0679 -0.3951  1.1630
  782MOL0     C 5462   7.712   2.788   6.391 -0.4669  0.4265 -0.2351
  782MOL0     C 5463   7.561   2.798   6.396 -0.4891  0.4902 -0.0625
  782MOL0     C 5464   7.791   2.793   6.509 -0.4458  0.3798 -0.3400
  782MOL0     C 5465   7.719   2.809   6.640 -0.1224 -0.1386 -0.2740
  782MOL0     O 5466   7.769   2.729   6.743 -0.1194 -0.0253 -1.4289
  782MOL0     C 5467   7.682   2.654   6.819 -0.0770 -0.2004 -0.2571
  782MOL0     C 5468   7.739   2.598   6.935  0.6543  0.3863 -0.6890
  782MOL0     C 5469   7.666   2.511   7.012 -0.6053  0.6901  0.3596
  782MOL0     C 5470   7.538   2.475   6.972 -0.0014  0.1667 -0.3319
  782MOL0     O 5471   7.451   2.387   7.040  0.2250 -0.2140  0.4867
  782MOL0     C 5472   7.487   2.321   7.158 -0.3382 -0.0456 -0.4687
  782MOL0     C 5473   7.362   2.260   7.224  0.1236 -0.7021 -0.0207
  782MOL0     C 5474   7.351   2.105   7.189 -0.3647 -0.5498 -0.7792
  782MOL0     C 5475   7.275   2.030   7.294 -0.7486 -0.6326  0.7510
  782MOL0     C 5476   7.126   2.060   7.266 -0.0948  0.9556  0.4504
  782MOL0     C 5477   7.079   1.980   7.144  0.8911 -0.6968  0.4511
  782MOL0     C 5478   6.928   1.971   7.117  0.1865 -1.0864 -0.6481
  782MOL0     C 5479   6.875   2.108   7.075 -0.0254  0.1748  0.3749
  782MOL0    Cl 5480   6.958   2.169   6.925 -0.0672  0.0175 -0.0482
  782MOL0     C 5481   7.478   2.529   6.853 -0.1306 -0.3794  0.0138
  782MOL0     C 5482   7.547   2.623   6.776 -0.5430 -0.6824 -0.1730
  782MOL0     O 5483   7.620   2.880   6.654  0.4091 -0.5309 -0.3749
  782MOL0     C 5484   7.932   2.776   6.508  0.1072 -0.7193 -0.4256
  782MOL0     C 5485   7.997   2.747   6.388 -0.4798  0.3069  0.1151
  782MOL0     N 5486   8.393   2.239   6.050 -0.1328 -0.4843  0.9575
  782MOL0     N 5487   8.336   2.127   6.053  0.0840  0.0831  0.3679
  782MOL0     C 5488   7.085   2.430   6.558 -0.5082  0.3261  0.3938
  782MOL0     C 5489   6.946   2.431   6.561  0.4820  0.0410  0.5074
  782MOL0     C 5490   6.507   2.396   6.401  0.0104 -0.7824 -0.2561
  782MOL0     C 5491   6.456   2.527   6.394  0.6131 -0.8372 -0.6249
  782MOL0     C 5492   6.322   2.547   6.365  0.3140  0.4031  0.0808
  782MOL0     C 5493   6.229   2.435   6.350 -0.6071 -0.6451 -0.7992
  782MOL0     O 5494   6.090   2.447   6.333 -0.4520  0.3736  0.3291
  782MOL0     C 5495   6.045   2.556   6.249  0.1266 -0.1124 -0.4160
  782MOL0     C 5496   5.971   2.503   6.129  0.4673 -0.1619 -0.3224
  782MOL0     C 5497   5.836   2.427   6.167  0.3110 -0.1221  0.0801
  782MOL0     C 5498   5.772   2.383   6.035 -0.9138  0.5059  0.1668
  782MOL0     C 5499   5.649   2.312   6.034 -1.0166 -0.8339  0.0757
  782MOL0     C 5500   5.543   2.261   6.041 -0.7663 -0.1786 -0.2963
  782MOL0     C 5501   6.288   2.311   6.356 -0.0176 -0.2117 -0.2030
  782MOL0     C 5502   6.425   2.290   6.378 -0.0288 -0.2352  0.5193
  782MOL0     H 5503   6.881   2.537   6.251 -0.2969  1.0048  1.0428
  782MOL0     H 5504   7.126   2.507   6.224  0.4294 -1.3600 -0.0721
  782MOL0     H 5505   7.301   2.365   6.231 -1.9358  5.0852 -0.9944
  782MOL0     H 5506   7.398   2.513   6.285 -2.0113  1.4162 -1.2479
  782MOL0     H 5507   7.537   2.384   6.418 -2.4605 -0.5392  2.8941
  782MOL0     H 5508   7.428   2.243   6.381  2.1248 -1.1403 -1.0754
  782MOL0     H 5509   7.505   2.218   6.159 -4.1408  1.9017  0.8343
  782MOL0     H 5510   7.583   2.372   6.151 -2.9138  1.4349  1.1476
  782MOL0     H 5511   7.744   2.322   6.312  2.8561  0.0625 -1.0412
  782MOL0     H 5512   7.674   2.162   6.353 -0.9514  0.0297 -0.3312
  782MOL0     H 5513   7.703   2.082   6.122 -0.7702  1.9796 -2.9954
  782MOL0     H 5514   7.777   2.239   6.079  4.0838 -0.1184  0.5798
  782MOL0     H 5515   7.952   2.212   6.229  0.2040  0.6428 -0.8423
  782MOL0     H 5516   7.889   2.058   6.290  4.0416  0.2097  0.8430
  782MOL0     H 5517   7.932   1.965   6.050 -0.0331 -0.1999 -0.6941
  782MOL0     H 5518   7.994   2.135   6.012  0.0405  1.6254 -0.1517
  782MOL0     H 5519   8.159   1.947   6.086 -1.9645  0.6732 -1.6829
  782MOL0     H 5520   8.114   1.997   6.252  0.8248  1.2638  0.5168
  782MOL0     H 5521   8.156   2.291   6.278  0.9993  2.9148 -1.5866
  782MOL0     H 5522   8.318   2.476   6.294 -1.5049 -1.1447 -0.4090
  782MOL0     H 5523   8.468   2.471   6.192  0.1428  0.1415  0.7197
  782MOL0     H 5524   8.324   2.539   6.001  2.0185 -2.9249  1.2253
  782MOL0     H 5525   8.366   2.659   6.117  4.1801 -2.3791 -3.3963
  782MOL0     H 5526   8.123   2.555   6.225 -0.1769 -0.0963 -0.8526
  782MOL0     H 5527   8.076   2.538   6.059  0.8556  1.6124 -1.3880
  782MOL0     H 5528   8.147   2.749   6.008 -0.7224  1.3229  0.0169
  782MOL0     H 5529   8.172   2.798   6.184 -1.3373  0.8022  0.8907
  782MOL0     H 5530   7.738   2.746   6.179 -1.1098 -0.1968  1.6078
  782MOL0     H 5531   7.524   2.784   6.294 -2.4345 -2.3162  0.9105
  782MOL0     H 5532   7.518   2.719   6.459  1.7638  0.6997  1.8850
  782MOL0     H 5533   7.525   2.896   6.430  0.3233  0.2059  1.7249
  782MOL0     H 5534   7.838   2.630   6.964  0.2265  2.5256 -1.4315
  782MOL0     H 5535   7.719   2.463   7.094 -1.1140  3.1065  2.2178
  782MOL0     H 5536   7.560   2.246   7.127 -0.8439 -0.6938 -0.1270
  782MOL0     H 5537   7.542   2.384   7.228  1.6275 -0.5832 -1.4745
  782MOL0     H 5538   7.362   2.288   7.330  1.5166 -0.5654 -0.0302
  782MOL0     H 5539   7.273   2.302   7.178  1.2790  0.7767 -1.0082
  782MOL0     H 5540   7.451   2.064   7.200  0.1814  0.6811 -0.9495
  782MOL0     H 5541   7.319   2.094   7.085 -1.4251  1.5090 -0.7331
  782MOL0     H 5542   7.301   1.924   7.283 -1.0432 -0.4826 -2.4466
  782MOL0     H 5543   7.302   2.059   7.396 -0.8779  5.0904 -0.5203
  782MOL0     H 5544   7.110   2.169   7.261 -0.5110  0.9165  0.8026
  782MOL0     H 5545   7.078   2.034   7.361 -0.7226  2.4255  0.5640
  782MOL0     H 5546   7.132   2.013   7.054 -3.8809  3.0308 -1.4721
  782MOL0     H 5547   7.108   1.877   7.166  3.2988 -0.3209 -0.6189
  782MOL0     H 5548   6.875   1.952   7.210 -1.3278 -1.8551 -1.6435
  782MOL0     H 5549   6.909   1.888   7.049 -0.7774 -0.9831 -0.5083
  782MOL0     H 5550   6.902   2.182   7.152 -0.0609  1.1487 -0.5192
  782MOL0     H 5551   6.767   2.108   7.058  0.0062  3.3264 -0.5496
  782MOL0     H 5552   7.372   2.515   6.834 -0.7573  5.0488 -2.3455
  782MOL0     H 5553   7.498   2.665   6.688  0.3739  0.6348 -0.0747
  782MOL0     H 5554   7.976   2.779   6.607 -2.6461 -1.8222  0.9130
  782MOL0     H 5555   8.105   2.743   6.385 -0.4900  0.6382 -0.9663
  782MOL0     H 5556   7.133   2.379   6.641 -2.8928 -1.2209  0.9234
  782MOL0     H 5557   6.892   2.390   6.645  1.3969 -0.4112  0.8897
  782MOL0     H 5558   6.531   2.606   6.396 -0.3100  0.0463  0.3478
  782MOL0     H 5559   6.279   2.646   6.349  0.0821 -0.0491 -2.6560
  782MOL0     H 5560   5.973   2.611   6.310  0.9019  0.8886 -0.3736
  782MOL0     H 5561   6.120   2.628   6.215  2.1830 -1.7441  0.3900
  782MOL0     H 5562   6.036   2.438   6.070  1.0797  1.6167 -1.6916
  782MOL0     H 5563   5.946   2.587   6.064  0.3823  1.0327  1.2103
  782MOL0     H 5564   5.769   2.494   6.220 -0.7467 -0.3440 -0.9184
  782MOL0     H 5565   5.857   2.333   6.219  0.0657 -2.0059 -2.9347
  782MOL0     H 5566   5.840   2.317   5.981  0.1536  3.4049 -2.3077
  782MOL0     H 5567   5.749   2.472   5.976 -0.3576 -0.9492 -2.3744
  782MOL0     H 5568   5.443   2.222   6.048  0.0891 -2.7070 -0.8436
  782MOL0     H 5569   6.220   2.227   6.350 -1.5775  1.0828 -3.8329
  782MOL0     H 5570   6.451   2.185   6.378 -3.1066 -1.1760 -2.2771
  783MOL0     O 5571   6.930   0.492   9.624  0.0347  0.1893 -0.1197
  783MOL0     C 5572   6.885   0.389   9.656 -0.7829  0.0547  0.0815
  783MOL0     O 5573   6.951   0.272   9.650  0.5253 -0.8767  0.6738
  783MOL0     C 5574   7.082   0.278   9.597  0.0975  0.6947 -0.6067
  783MOL0     C 5575   7.106   0.255   9.457 -0.0113  0.1340 -0.4832
  783MOL0     C 5576   7.236   0.243   9.401  0.0148 -0.3690 -0.6753
  783MOL0     C 5577   7.341   0.266   9.489  0.5514  0.9662 -0.6264
  783MOL0     O 5578   7.466   0.268   9.426  0.0261  0.2673  0.5014
  783MOL0     C 5579   7.583   0.310   9.496 -0.2211  0.9812 -0.3319
  783MOL0     C 5580   7.698   0.265   9.406 -0.3992 -0.1208 -0.2463
  783MOL0     C 5581   7.829   0.322   9.455 -1.3022  0.1006 -0.0196
  783MOL0     C 5582   7.939   0.248   9.389 -0.2636  0.9556  0.5715
  783MOL0     C 5583   8.073   0.278   9.448  0.7209 -0.7021 -0.7057
  783MOL0     C 5584   8.180   0.202   9.376 -0.1122  0.4939 -0.2106
  783MOL0     C 5585   8.327   0.244   9.417  0.1511  0.6438 -0.2843
  783MOL0     C 5586   8.444   0.179   9.335 -0.7714  1.0348  0.0134
  783MOL0     N 5587   8.462   0.223   9.197 -0.3831  0.0489  0.1456
  783MOL0     C 5588   8.507   0.346   9.150 -0.3979  0.1393  0.7241
  783MOL0     C 5589   8.495   0.338   9.015 -0.4539  0.5057  0.8936
  783MOL0     C 5590   8.565   0.433   8.919 -0.1263 -0.5117 -0.1314
  783MOL0     C 5591   8.532   0.574   8.941 -0.4917  0.5406 -0.0810
  783MOL0     C 5592   8.620   0.655   8.845  0.0734 -0.2810 -0.0494
  783MOL0     C 5593   8.767   0.676   8.888 -0.7818  0.3797 -0.1009
  783MOL0     O 5594   8.775   0.756   9.010 -0.1579 -0.5453  0.8805
  783MOL0     C 5595   8.903   0.788   9.043 -0.1111 -0.2756 -0.1798
  783MOL0     C 5596   8.917   0.882   9.150  0.6625 -0.0076 -0.5013
  783MOL0     C 5597   9.038   0.940   9.194  0.2308  0.3270  0.5250
  783MOL0     C 5598   9.023   1.061   9.277 -0.0162  0.1576  0.5202
  783MOL0     C 5599   9.158   0.888   9.143 -0.1994 -0.8153  0.2943
  783MOL0     C 5600   9.288   0.952   9.161 -1.3839 -0.0559 -0.6337
  783MOL0     O 5601   9.388   0.902   9.081  0.1093 -0.0163  1.3917
  783MOL0     C 5602   9.513   0.948   9.084  0.2188  0.4485  0.4957
  783MOL0     C 5603   9.548   1.085   9.097  0.1445  0.6842  0.3161
  783MOL0     C 5604   9.678   1.116   9.072 -1.3791  0.4301 -0.2854
  783MOL0     C 5605   9.775   1.018   9.059 -0.7445 -0.6100 -0.3085
  783MOL0     O 5606   9.901   1.073   9.043 -0.1465 -0.3520  0.1619
  783MOL0     C 5607  10.000   0.993   8.987 -0.3996 -0.3722 -1.4346
  783MOL0     C 5608  10.124   1.063   8.928  1.2319  0.0923 -0.0043
  783MOL0     C 5609  10.214   0.959   8.863 -0.6844 -0.1076  1.3654
  783MOL0     C 5610  10.309   0.897   8.969 -0.8482 -0.2032 -0.3431
  783MOL0     C 5611  10.407   1.003   9.036 -0.5501 -0.8832  0.1120
  783MOL0     C 5612  10.519   0.938   9.121  0.3710  0.3197  0.3268
  783MOL0     C 5613  10.623   1.046   9.150 -0.6054  0.8139  0.9558
  783MOL0     C 5614  10.751   1.000   9.213  0.4259 -0.2767  0.0797
  783MOL0    Cl 5615  10.889   1.115   9.214  0.5547  0.7785  0.0186
  783MOL0     C 5616   9.738   0.885   9.056 -0.1586 -0.1076 -0.7125
  783MOL0     C 5617   9.607   0.847   9.066  0.2596 -0.5769 -0.3021
  783MOL0     O 5618   9.305   1.043   9.245  0.3282 -0.3704  0.0947
  783MOL0     C 5619   9.139   0.781   9.045 -0.8627 -0.2739  0.8378
  783MOL0     C 5620   9.017   0.729   8.992 -0.3059 -1.2786 -0.8034
  783MOL0     N 5621   8.454   0.214   8.978  0.8966  1.0169  0.7217
  783MOL0     N 5622   8.427   0.143   9.088 -0.0513  0.5383 -0.1960
  783MOL0     C 5623   7.316   0.289   9.624  0.7009 -0.5353  0.3470
  783MOL0     C 5624   7.189   0.291   9.681  0.1318  0.4549  0.2160
  783MOL0     C 5625   6.749   0.406   9.716  0.3938 -0.1778 -0.5247
  783MOL0     C 5626   6.658   0.301   9.726  0.1870  0.0069 -0.4519
  783MOL0     C 5627   6.540   0.327   9.809 -0.2069 -0.0860  0.1495
  783MOL0     C 5628   6.503   0.456   9.860 -0.2110  0.3075 -0.2821
  783MOL0     O 5629   6.392   0.487   9.939 -0.4889  0.4843 -0.3300
  783MOL0     C 5630   6.357   0.391  10.040 -0.0449  0.1767  0.6737
  783MOL0     C 5631   6.310   0.462  10.171 -0.5148  1.0309  0.2257
  783MOL0     C 5632   6.429   0.492  10.266 -1.1049  1.0781  0.3940
  783MOL0     C 5633   6.383   0.518  10.411 -0.0892 -0.7926  0.5515
  783MOL0     C 5634   6.491   0.565  10.509  1.1715 -0.1592  0.3446
  783MOL0     C 5635   6.575   0.586  10.587  0.5167 -0.6439  0.2508
  783MOL0     C 5636   6.578   0.557   9.820 -0.0514 -0.2363 -0.2027
  783MOL0     C 5637   6.698   0.535   9.748  0.2326 -0.2019  0.0182
  783MOL0     H 5638   7.021   0.223   9.397 -1.6289 -0.5762  2.0357
  783MOL0     H 5639   7.253   0.233   9.294  2.2223  3.4321 -0.8266
  783MOL0     H 5640   7.587   0.417   9.517 -0.3699  1.3084 -1.8088
  783MOL0     H 5641   7.596   0.255   9.589  0.6632 -1.3095 -1.7082
  783MOL0     H 5642   7.699   0.155   9.411 -0.0663 -0.1027  0.0754
  783MOL0     H 5643   7.678   0.295   9.303  0.1544  0.8443 -0.0776
  783MOL0     H 5644   7.839   0.430   9.446  0.9837  0.0348  1.1355
  783MOL0     H 5645   7.831   0.293   9.560  0.0403  0.0414 -0.0364
  783MOL0     H 5646   7.928   0.140   9.403  1.2415  0.7391  0.2544
  783MOL0     H 5647   7.941   0.259   9.280 -0.8344  0.5470  0.5135
  783MOL0     H 5648   8.085   0.386   9.435 -3.1869 -0.0856 -0.2364
  783MOL0     H 5649   8.057   0.253   9.553 -4.0824 -1.6512 -1.4470
  783MOL0     H 5650   8.171   0.096   9.400 -0.8442  0.6950  0.4296
  783MOL0     H 5651   8.177   0.205   9.266 -1.2749 -1.4301 -0.2765
  783MOL0     H 5652   8.329   0.352   9.401 -0.9240  0.6630 -0.3428
  783MOL0     H 5653   8.352   0.215   9.519  2.7245 -2.0792 -1.5219
  783MOL0     H 5654   8.433   0.070   9.331  0.7908  0.7889  1.2030
  783MOL0     H 5655   8.539   0.215   9.377  0.2902 -0.0136 -1.3910
  783MOL0     H 5656   8.536   0.435   9.204  0.8774 -0.1669  0.5762
  783MOL0     H 5657   8.671   0.424   8.944 -0.1412  2.0975  1.2943
  783MOL0     H 5658   8.529   0.409   8.819 -2.5622 -0.8505  0.7661
  783MOL0     H 5659   8.550   0.609   9.043  1.1613  1.8063 -0.7641
  783MOL0     H 5660   8.430   0.602   8.913 -0.4449  1.4597  0.6071
  783MOL0     H 5661   8.578   0.756   8.843 -3.2299 -1.5233 -2.1066
  783MOL0     H 5662   8.614   0.608   8.746  0.4203 -2.1424  0.7681
  783MOL0     H 5663   8.809   0.737   8.808 -1.8392  1.0203 -0.1819
  783MOL0     H 5664   8.818   0.579   8.894 -6.2405 -2.8303  1.3536
  783MOL0     H 5665   8.826   0.922   9.193 -0.3870 -2.4789 -0.2526
  783MOL0     H 5666   9.066   1.051   9.378  1.4350  0.6241 -0.0254
  783MOL0     H 5667   9.070   1.143   9.223 -0.1439 -0.6570 -0.8701
  783MOL0     H 5668   8.923   1.096   9.302  0.6175  1.8978  0.7296
  783MOL0     H 5669   9.476   1.161   9.129  1.4452  1.6230  1.1238
  783MOL0     H 5670   9.713   1.216   9.097  3.9531 -1.4957  1.3825
  783MOL0     H 5671  10.044   0.939   9.071  0.9951  1.1171 -1.1477
  783MOL0     H 5672   9.964   0.926   8.908 -2.1713  0.6356 -1.5449
  783MOL0     H 5673  10.084   1.134   8.854  0.8469  0.1774  0.2767
  783MOL0     H 5674  10.182   1.130   8.991  3.1954 -1.1793 -0.4026
  783MOL0     H 5675  10.270   1.004   8.780 -2.3429  0.1866  0.3631
  783MOL0     H 5676  10.157   0.877   8.818 -1.4373  2.2779 -2.5317
  783MOL0     H 5677  10.264   0.837   9.050  0.7503 -1.5160 -0.3806
  783MOL0     H 5678  10.367   0.816   8.924  3.9598  2.7469 -0.0791
  783MOL0     H 5679  10.355   1.064   9.111 -0.8780  0.6008 -1.2526
  783MOL0     H 5680  10.448   1.078   8.967  2.1471 -0.7632  1.7155
  783MOL0     H 5681  10.470   0.900   9.211 -0.2343 -0.4480 -0.3113
  783MOL0     H 5682  10.560   0.849   9.071 -0.5136 -0.7962  1.5157
  783MOL0     H 5683  10.584   1.118   9.223  0.0238  0.8403  1.2732
  783MOL0     H 5684  10.667   1.096   9.063  1.6166 -0.2818  1.3785
  783MOL0     H 5685  10.785   0.910   9.160  0.3440  0.6324 -1.5872
  783MOL0     H 5686  10.736   0.972   9.317  2.5363 -1.3288  0.1569
  783MOL0     H 5687   9.820   0.819   9.029  0.8630  0.3600  1.0363
  783MOL0     H 5688   9.580   0.744   9.046 -2.5013  0.6626 -3.9128
  783MOL0     H 5689   9.221   0.741   8.986  0.3102  1.5556  1.1548
  783MOL0     H 5690   9.022   0.649   8.918 -1.4689 -1.4474 -0.7225
  783MOL0     H 5691   7.399   0.308   9.691 -1.9313  1.8308  3.2681
  783MOL0     H 5692   7.186   0.327   9.783 -1.9711  0.1464  0.2966
  783MOL0     H 5693   6.672   0.202   9.682  2.2967  0.2342 -0.3776
  783MOL0     H 5694   6.473   0.243   9.823  0.0615 -0.5622 -1.2666
  783MOL0     H 5695   6.283   0.322   9.998 -1.5124  2.2869 -0.3703
  783MOL0     H 5696   6.440   0.329  10.076  1.9233  0.2051 -3.2299
  783MOL0     H 5697   6.231   0.402  10.216  0.6451 -0.4176  0.3823
  783MOL0     H 5698   6.263   0.557  10.144 -2.3538  0.0875 -0.0723
  783MOL0     H 5699   6.490   0.576  10.233 -0.1841  0.0494 -0.6052
  783MOL0     H 5700   6.495   0.405  10.273 -2.0707  0.2131 -0.9453
  783MOL0     H 5701   6.344   0.434  10.469 -0.2717 -0.4288  0.9656
  783MOL0     H 5702   6.292   0.577  10.403 -0.3437 -1.3816 -1.5897
  783MOL0     H 5703   6.645   0.603  10.666  1.7551  3.8289 -1.4839
  783MOL0     H 5704   6.557   0.660   9.848  2.4675  0.1982  0.3883
  783MOL0     H 5705   6.761   0.622   9.740  0.5943 -0.4568  0.0880
  784MOL0     O 5706   4.007   7.618   1.166  0.0096  0.1495  0.1186
  784MOL0     C 5707   3.985   7.496   1.164 -0.1664  0.1809 -0.0571
  784MOL0     O 5708   3.868   7.440   1.125  0.5028  0.1102  0.2863
  784MOL0     C 5709   3.764   7.520   1.089  0.2948  0.4952 -0.0177
  784MOL0     C 5710   3.778   7.628   1.001  0.0606 -0.1461 -0.3085
  784MOL0     C 5711   3.674   7.717   0.971 -0.3721 -0.6368  0.0575
  784MOL0     C 5712   3.558   7.707   1.054 -1.2119 -0.4152  0.1545
  784MOL0     O 5713   3.448   7.787   1.035  0.0123  0.0333  0.2892
  784MOL0     C 5714   3.387   7.794   0.907  0.5892 -0.6050  0.8837
  784MOL0     C 5715   3.252   7.864   0.928  0.4914  0.0396 -0.3690
  784MOL0     C 5716   3.162   7.881   0.803  0.3511  0.0794 -0.5031
  784MOL0     C 5717   3.057   7.990   0.827 -0.3694  0.3484  0.0751
  784MOL0     C 5718   2.972   7.995   0.700  0.4364  0.6473  0.1620
  784MOL0     C 5719   2.839   8.065   0.747  0.7801 -0.2973  0.3057
  784MOL0     C 5720   2.741   8.097   0.631 -0.6820 -0.0293  0.2993
  784MOL0     C 5721   2.651   8.209   0.662  0.4358  0.3684  0.4746
  784MOL0     N 5722   2.556   8.223   0.553  0.0335 -0.1133  0.3205
  784MOL0     C 5723   2.568   8.297   0.443 -1.2970  0.2168 -0.0511
  784MOL0     C 5724   2.456   8.277   0.377 -0.2577  1.1893  0.5756
  784MOL0     C 5725   2.410   8.359   0.258  0.1837 -0.8598  0.7462
  784MOL0     C 5726   2.314   8.470   0.314 -0.2854 -0.2165 -0.6345
  784MOL0     C 5727   2.227   8.530   0.196 -0.0496  0.9158 -0.4422
  784MOL0     C 5728   2.087   8.460   0.187  0.2089 -1.6047 -0.2369
  784MOL0     O 5729   2.008   8.471   0.308  0.0560 -0.3688  0.7020
  784MOL0     C 5730   1.885   8.530   0.293  0.5963 -0.2277  0.2476
  784MOL0     C 5731   1.845   8.636   0.376  0.0234  0.2763  1.3666
  784MOL0     C 5732   1.722   8.693   0.361  0.2595  0.3978  0.3299
  784MOL0     C 5733   1.700   8.812   0.438  0.0530 -0.0086 -0.4897
  784MOL0     C 5734   1.633   8.657   0.254 -0.1706  0.6077  0.3356
  784MOL0     C 5735   1.516   8.737   0.230 -0.0942 -0.5522 -0.4700
  784MOL0     O 5736   1.413   8.655   0.189 -0.6072 -0.2527  0.3090
  784MOL0     C 5737   1.282   8.697   0.201  0.1701 -0.3137  0.4638
  784MOL0     C 5738   1.227   8.727   0.324  0.3916 -0.8871 -0.3121
  784MOL0     C 5739   1.084   8.753   0.336 -0.0907 -0.0268  0.4429
  784MOL0     C 5740   1.015   8.773   0.213  0.4674 -0.8845  0.2357
  784MOL0     O 5741   0.879   8.806   0.203 -0.2671  0.0322 -0.4766
  784MOL0     C 5742   0.854   8.942   0.167  0.4063  0.6188 -0.0822
  784MOL0     C 5743   0.758   9.006   0.262  0.3431  0.5692  0.6985
  784MOL0     C 5744   0.805   8.993   0.409 -0.3670  0.7434  0.4910
  784MOL0     C 5745   0.738   9.087   0.508 -0.4581  0.9488  0.6557
  784MOL0     C 5746   0.761   9.085   0.661  0.6432  0.5800 -0.1729
  784MOL0     C 5747   0.779   8.941   0.717 -0.5448 -0.4099 -0.4247
  784MOL0     C 5748   0.745   8.943   0.873  0.0992 -0.9095  0.3675
  784MOL0     C 5749   0.597   8.908   0.895 -0.3786 -0.7970  0.0315
  784MOL0    Cl 5750   0.546   8.933   1.055 -0.0608  0.0872 -0.0563
  784MOL0     C 5751   1.079   8.763   0.092  0.2789 -0.2083 -0.3842
  784MOL0     C 5752   1.212   8.715   0.082  0.1667  0.6793  0.2592
  784MOL0     O 5753   1.511   8.862   0.237  0.5918 -0.0108  0.7074
  784MOL0     C 5754   1.669   8.537   0.180 -0.7074 -0.4682 -0.1840
  784MOL0     C 5755   1.797   8.476   0.196 -0.9259 -0.4802 -0.3839
  784MOL0     N 5756   2.384   8.169   0.435 -0.8462  0.3322 -1.0779
  784MOL0     N 5757   2.442   8.139   0.544 -1.1123 -0.7803 -0.0671
  784MOL0     C 5758   3.545   7.601   1.137  0.3820 -0.2546  0.9745
  784MOL0     C 5759   3.637   7.499   1.147 -0.3919  0.1622 -0.4339
  784MOL0     C 5760   4.090   7.411   1.227  0.1207 -0.6163 -0.6855
  784MOL0     C 5761   4.065   7.274   1.251  0.0541  1.1914  0.4507
  784MOL0     C 5762   4.161   7.189   1.308  0.6998 -0.2521  0.0008
  784MOL0     C 5763   4.293   7.235   1.329 -0.4268  0.6313  0.0160
  784MOL0     O 5764   4.398   7.152   1.364 -0.2275 -0.6890  0.2233
  784MOL0     C 5765   4.362   7.019   1.407  0.4143  0.5723  0.5688
  784MOL0     C 5766   4.473   6.976   1.502  0.1354  0.5642  0.1161
  784MOL0     C 5767   4.610   6.976   1.430 -0.0296  0.0370 -0.2821
  784MOL0     C 5768   4.701   7.091   1.457 -1.0410 -0.3593 -0.0057
  784MOL0     C 5769   4.842   7.075   1.424 -0.4347  0.0198  0.2836
  784MOL0     C 5770   4.966   7.053   1.417  0.1726 -0.3151 -0.3184
  784MOL0     C 5771   4.324   7.374   1.309  0.1341  0.6050  0.4316
  784MOL0     C 5772   4.221   7.458   1.249  0.2425 -0.1910  0.0726
  784MOL0     H 5773   3.874   7.637   0.951  1.8838 -0.3480  2.9147
  784MOL0     H 5774   3.686   7.793   0.895  1.0641  1.9044  2.6025
  784MOL0     H 5775   3.455   7.854   0.847  2.6175 -1.8805  1.7955
  784MOL0     H 5776   3.366   7.695   0.865  1.0554  1.0699 -3.8240
  784MOL0     H 5777   3.190   7.817   1.005 -2.0765 -1.2862 -3.0620
  784MOL0     H 5778   3.266   7.967   0.964  0.5834  0.0424 -0.4127
  784MOL0     H 5779   3.219   7.909   0.714  0.4354 -0.6993 -0.6956
  784MOL0     H 5780   3.118   7.784   0.779 -0.0108  0.9228 -3.5599
  784MOL0     H 5781   3.006   7.967   0.920 -3.6109  1.3968 -1.3114
  784MOL0     H 5782   3.108   8.086   0.840  1.1652 -0.3629 -0.4107
  784MOL0     H 5783   3.032   8.045   0.623 -0.3364  1.2013 -0.0914
  784MOL0     H 5784   2.937   7.902   0.653 -1.2914  0.8359  1.0016
  784MOL0     H 5785   2.799   8.007   0.830  2.5104 -3.5376 -0.9491
  784MOL0     H 5786   2.871   8.164   0.782 -0.4717  1.1034 -2.1691
  784MOL0     H 5787   2.796   8.124   0.541 -0.8882  1.2006  0.5270
  784MOL0     H 5788   2.679   8.009   0.619 -3.2750  1.5462  1.3508
  784MOL0     H 5789   2.720   8.293   0.676 -0.3469  0.8957  1.3211
  784MOL0     H 5790   2.589   8.181   0.749  0.3443  0.7730  0.5450
  784MOL0     H 5791   2.639   8.377   0.425 -1.0548 -0.2449 -1.2756
  784MOL0     H 5792   2.495   8.408   0.210 -1.4791  0.2359 -1.2681
  784MOL0     H 5793   2.364   8.294   0.183  0.9482  0.1284 -0.6322
  784MOL0     H 5794   2.385   8.540   0.358 -0.1477 -2.1461  2.5041
  784MOL0     H 5795   2.251   8.434   0.396 -2.9865  2.1368 -1.5278
  784MOL0     H 5796   2.273   8.507   0.099 -2.2031 -1.1170 -1.0609
  784MOL0     H 5797   2.224   8.640   0.192  2.7827  1.0645 -1.3140
  784MOL0     H 5798   2.089   8.353   0.165 -0.3117 -1.0902 -3.3073
  784MOL0     H 5799   2.034   8.516   0.109 -0.2014 -0.2307  0.9850
  784MOL0     H 5800   1.917   8.654   0.455 -0.8450 -0.5575  2.3830
  784MOL0     H 5801   1.603   8.832   0.486  1.1567  0.3659  1.7225
  784MOL0     H 5802   1.761   8.796   0.527  0.4583 -2.3704 -1.1314
  784MOL0     H 5803   1.734   8.903   0.388 -1.6043  1.3202  0.6592
  784MOL0     H 5804   1.291   8.733   0.411  3.5106  2.5496 -2.5276
  784MOL0     H 5805   1.029   8.753   0.430 -0.9889 -0.8875 -0.0694
  784MOL0     H 5806   0.950   8.996   0.167  1.3407 -0.9462 -1.4724
  784MOL0     H 5807   0.813   8.951   0.066 -1.3573  2.5015  0.7358
  784MOL0     H 5808   0.765   9.113   0.239  0.1869  0.2863 -0.7490
  784MOL0     H 5809   0.660   8.965   0.239 -0.1354  1.2451  1.4780
  784MOL0     H 5810   0.912   9.016   0.412 -0.1134 -0.4124  3.4316
  784MOL0     H 5811   0.799   8.889   0.443  2.3478 -0.1514 -1.3850
  784MOL0     H 5812   0.770   9.183   0.466 -0.0949 -0.7950 -3.5506
  784MOL0     H 5813   0.632   9.064   0.494 -0.4706  0.5248  1.4108
  784MOL0     H 5814   0.670   9.129   0.702  1.5327  1.7408  0.6254
  784MOL0     H 5815   0.841   9.151   0.697 -1.5033  1.5560  3.3029
  784MOL0     H 5816   0.712   8.874   0.662 -1.6383  1.2711 -1.2082
  784MOL0     H 5817   0.885   8.917   0.704  0.2272  0.8922  2.6221
  784MOL0     H 5818   0.754   9.040   0.922  1.0701 -1.1156  0.6169
  784MOL0     H 5819   0.826   8.883   0.915  2.3964  0.7181 -1.4787
  784MOL0     H 5820   0.577   8.808   0.853 -0.3031  0.0756 -2.2232
  784MOL0     H 5821   0.545   8.978   0.829 -0.9103  2.2370  3.3994
  784MOL0     H 5822   1.037   8.771  -0.008 -0.2721  0.8378 -0.0859
  784MOL0     H 5823   1.250   8.693  -0.018  2.6667  2.0152  0.8504
  784MOL0     H 5824   1.609   8.505   0.095  1.0079  1.2859 -2.1616
  784MOL0     H 5825   1.828   8.382   0.154  2.8293  0.1548  0.6527
  784MOL0     H 5826   3.471   7.585   1.215  1.6293 -2.3477  1.8261
  784MOL0     H 5827   3.617   7.419   1.217 -1.1793  2.4876  2.1510
  784MOL0     H 5828   3.972   7.231   1.215  0.6668 -0.7307  1.0594
  784MOL0     H 5829   4.134   7.084   1.316  0.3671 -0.2053 -0.4503
  784MOL0     H 5830   4.264   7.015   1.455 -1.2107  0.7749 -2.4781
  784MOL0     H 5831   4.365   6.945   1.327 -1.1015  1.8806 -0.7743
  784MOL0     H 5832   4.446   6.877   1.538  0.0493  0.1472 -1.0517
  784MOL0     H 5833   4.474   7.049   1.583  0.4918  0.2820  0.3724
  784MOL0     H 5834   4.599   6.980   1.321  1.1522 -0.1310 -0.4185
  784MOL0     H 5835   4.654   6.879   1.456  0.4671  0.7356  1.6764
  784MOL0     H 5836   4.682   7.141   1.553  0.5567  2.8073 -1.1844
  784MOL0     H 5837   4.664   7.167   1.387 -0.6477  1.0537  1.2759
  784MOL0     H 5838   5.071   7.051   1.398  1.1384 -2.4309  3.9129
  784MOL0     H 5839   4.423   7.414   1.326 -0.5850  1.7313  2.2116
  784MOL0     H 5840   4.259   7.560   1.240 -0.4152  0.3647  2.7259
  785MOL0     O 5841   4.147   2.313   3.715 -0.0166 -0.1482 -0.3945
  785MOL0     C 5842   4.193   2.370   3.615 -0.2258  0.3929  0.2591
  785MOL0     O 5843   4.318   2.345   3.554 -0.6018 -0.6979 -0.2809
  785MOL0     C 5844   4.416   2.260   3.605  0.5011  0.0078 -0.6749
  785MOL0     C 5845   4.528   2.309   3.671  0.0779 -0.0053 -0.9417
  785MOL0     C 5846   4.623   2.218   3.713 -0.5345  0.9159  0.7809
  785MOL0     C 5847   4.610   2.085   3.686 -0.3535 -0.0488  0.9260
  785MOL0     O 5848   4.727   2.012   3.720 -0.6587  0.5925  0.0598
  785MOL0     C 5849   4.759   1.914   3.618  0.7415  0.2195 -0.5186
  785MOL0     C 5850   4.903   1.880   3.649  0.1644 -0.7175  0.6899
  785MOL0     C 5851   4.995   1.928   3.544 -0.7912 -0.2316  0.2893
  785MOL0     C 5852   5.135   1.883   3.577 -0.1875  0.0035  0.2568
  785MOL0     C 5853   5.237   1.986   3.528 -0.2269  0.3372 -0.8410
  785MOL0     C 5854   5.280   1.983   3.383 -0.5784 -0.7275  0.9816
  785MOL0     C 5855   5.354   1.850   3.353  0.4123  0.0312  0.1379
  785MOL0     C 5856   5.434   1.866   3.220 -0.5477 -0.7102 -0.4031
  785MOL0     N 5857   5.522   1.753   3.188  1.0101  1.4317 -0.2784
  785MOL0     C 5858   5.629   1.714   3.251 -0.5356 -0.9233 -0.3462
  785MOL0     C 5859   5.666   1.599   3.183  0.0688 -0.0036  0.0598
  785MOL0     C 5860   5.793   1.516   3.197 -0.3178 -1.2712  0.5018
  785MOL0     C 5861   5.908   1.591   3.122 -0.4283 -0.3124  0.6602
  785MOL0     C 5862   5.884   1.613   2.978 -1.4925 -0.0073  0.2759
  785MOL0     C 5863   6.025   1.640   2.910  0.5131 -0.1085  0.0817
  785MOL0     O 5864   6.003   1.612   2.770 -0.4648 -0.8815  0.3623
  785MOL0     C 5865   6.114   1.566   2.703 -0.0216 -0.2373  1.0169
  785MOL0     C 5866   6.235   1.634   2.708  0.0938 -0.1875  0.0538
  785MOL0     C 5867   6.353   1.584   2.644  0.2162  0.1574  0.8764
  785MOL0     C 5868   6.480   1.656   2.673 -0.8738 -0.1227 -0.0976
  785MOL0     C 5869   6.337   1.467   2.566 -0.3414 -0.1091 -0.2761
  785MOL0     C 5870   6.445   1.415   2.470 -0.3436  0.6886 -1.3894
  785MOL0     O 5871   6.445   1.284   2.442 -0.0191  0.5790 -0.1495
  785MOL0     C 5872   6.495   1.238   2.322 -0.4637 -0.2598  0.2280
  785MOL0     C 5873   6.410   1.169   2.236 -0.0507 -0.6124 -0.2039
  785MOL0     C 5874   6.462   1.109   2.126 -0.6782 -0.8831  0.0567
  785MOL0     C 5875   6.594   1.128   2.087 -0.6838  1.0530 -1.0752
  785MOL0     O 5876   6.627   1.061   1.972 -0.6122 -0.5895 -0.0065
  785MOL0     C 5877   6.763   1.063   1.933 -0.3840 -0.2512 -0.5940
  785MOL0     C 5878   6.778   0.958   1.829 -0.1358  0.0518 -0.1852
  785MOL0     C 5879   6.671   0.959   1.708 -0.0531  0.5763  0.4674
  785MOL0     C 5880   6.723   0.841   1.619 -0.0305  0.4796  0.0508
  785MOL0     C 5881   6.719   0.881   1.469  0.1035  0.2504  0.6101
  785MOL0     C 5882   6.856   0.932   1.419  0.6962  0.7451  0.2445
  785MOL0     C 5883   6.842   1.017   1.294  0.7578 -0.1699  0.5334
  785MOL0     C 5884   6.978   1.048   1.226  0.7595  0.3960  0.8279
  785MOL0    Cl 5885   6.936   1.104   1.064  0.2831 -0.0744 -0.5178
  785MOL0     C 5886   6.679   1.203   2.174 -0.0254 -0.4686  1.3440
  785MOL0     C 5887   6.637   1.255   2.294  0.4722  0.5521  0.1922
  785MOL0     O 5888   6.498   1.496   2.405 -0.7941  0.2095  0.9045
  785MOL0     C 5889   6.214   1.398   2.562  0.6182 -1.0321 -0.7540
  785MOL0     C 5890   6.105   1.453   2.631 -0.2121 -0.0459 -0.1360
  785MOL0     N 5891   5.575   1.576   3.080  0.2216  0.3738 -0.1214
  785MOL0     N 5892   5.484   1.666   3.101 -0.2897  0.1025 -0.5855
  785MOL0     C 5893   4.499   2.027   3.627 -0.7521  0.0822 -0.4235
  785MOL0     C 5894   4.400   2.119   3.588 -0.3302 -0.0976  0.7523
  785MOL0     C 5895   4.106   2.470   3.554  1.1394 -0.6276  1.0730
  785MOL0     C 5896   3.964   2.486   3.599 -0.0666  1.2224 -0.1642
  785MOL0     C 5897   3.888   2.578   3.523  0.4342 -0.4739 -0.5041
  785MOL0     C 5898   3.938   2.668   3.428 -0.0103 -0.3011  0.5946
  785MOL0     O 5899   3.855   2.751   3.367  0.0437  0.2556  0.2693
  785MOL0     C 5900   3.888   2.860   3.286 -0.3315 -0.4078  0.4480
  785MOL0     C 5901   3.780   2.975   3.269 -0.2471 -0.2666  0.5042
  785MOL0     C 5902   3.645   2.941   3.213 -0.0722 -0.4951 -0.3350
  785MOL0     C 5903   3.562   2.845   3.307  0.2750  0.0644 -0.0699
  785MOL0     C 5904   3.507   2.901   3.427 -0.3138 -0.0055  0.0673
  785MOL0     C 5905   3.443   2.943   3.520 -0.2025  0.5037 -0.0644
  785MOL0     C 5906   4.071   2.646   3.379 -0.1937  0.3976  0.1189
  785MOL0     C 5907   4.151   2.553   3.445 -0.4550 -0.9575  0.5960
  785MOL0     H 5908   4.546   2.408   3.710  0.1649 -0.0827 -0.7878
  785MOL0     H 5909   4.718   2.246   3.759 -0.3432  3.1013 -0.7819
  785MOL0     H 5910   4.699   1.825   3.637 -1.4865  1.5714 -0.8523
  785MOL0     H 5911   4.740   1.955   3.518  2.7720  0.3436 -0.9145
  785MOL0     H 5912   4.934   1.903   3.751 -1.4825 -2.6800  1.7236
  785MOL0     H 5913   4.905   1.771   3.637 -1.5611 -0.5304 -1.9762
  785MOL0     H 5914   4.961   1.897   3.445  2.4590  3.5405 -2.3139
  785MOL0     H 5915   4.988   2.037   3.538  1.8782 -0.0736 -1.9576
  785MOL0     H 5916   5.153   1.871   3.685  0.1380  0.0253  0.2061
  785MOL0     H 5917   5.142   1.788   3.524 -1.3542  1.5283 -2.8919
  785MOL0     H 5918   5.200   2.085   3.555  2.0502  1.3492 -1.2207
  785MOL0     H 5919   5.331   1.968   3.580 -0.1141  1.4466 -0.6385
  785MOL0     H 5920   5.193   1.992   3.317 -0.5773 -1.4174  0.8789
  785MOL0     H 5921   5.353   2.064   3.371 -3.0584  1.2407 -2.7846
  785MOL0     H 5922   5.432   1.820   3.425 -0.6763  1.0451  1.8113
  785MOL0     H 5923   5.284   1.767   3.346  0.5037 -0.3613  2.7873
  785MOL0     H 5924   5.491   1.959   3.224  0.0276 -1.0882  3.0946
  785MOL0     H 5925   5.360   1.877   3.140 -1.1626 -1.7993 -0.0028
  785MOL0     H 5926   5.688   1.781   3.313 -3.5055  2.3536 -0.7776
  785MOL0     H 5927   5.823   1.515   3.302 -0.5348 -0.5262  0.5777
  785MOL0     H 5928   5.784   1.419   3.147  0.6193  0.1671 -2.7989
  785MOL0     H 5929   5.993   1.526   3.143 -0.5824 -0.3344  1.2154
  785MOL0     H 5930   5.930   1.689   3.166 -1.4963 -0.0837  0.7017
  785MOL0     H 5931   5.817   1.699   2.978 -2.0079 -0.3752  1.8427
  785MOL0     H 5932   5.840   1.521   2.938  2.3083 -1.7063 -0.4845
  785MOL0     H 5933   6.102   1.586   2.966  0.4684 -1.1402 -0.8288
  785MOL0     H 5934   6.040   1.748   2.920 -0.5029  0.2126 -1.6161
  785MOL0     H 5935   6.245   1.713   2.782 -0.1441 -1.8139  1.9306
  785MOL0     H 5936   6.549   1.594   2.732 -1.1829  1.3461  1.9060
  785MOL0     H 5937   6.534   1.679   2.581  1.0249 -0.7855  0.8027
  785MOL0     H 5938   6.466   1.747   2.731  1.8455 -1.9226  3.8459
  785MOL0     H 5939   6.303   1.163   2.255 -0.5961  0.8888 -2.4287
  785MOL0     H 5940   6.398   1.062   2.052 -2.6053  2.2158 -0.4502
  785MOL0     H 5941   6.787   1.168   1.912  0.7481  0.5893  3.9162
  785MOL0     H 5942   6.831   1.031   2.012  0.8460  2.0083 -0.6569
  785MOL0     H 5943   6.877   0.967   1.784 -0.9834  2.9480 -1.7160
  785MOL0     H 5944   6.772   0.865   1.886  2.6485  0.1474  0.3840
  785MOL0     H 5945   6.656   1.057   1.661  3.0461  0.8619 -0.1256
  785MOL0     H 5946   6.575   0.917   1.741 -1.4633  0.9402 -2.7797
  785MOL0     H 5947   6.826   0.809   1.637 -0.3813 -0.7885 -0.0976
  785MOL0     H 5948   6.668   0.750   1.643  1.3009 -1.1898 -2.6675
  785MOL0     H 5949   6.633   0.948   1.459 -0.8239 -1.0308 -0.5848
  785MOL0     H 5950   6.684   0.798   1.406 -3.4930  2.6468 -0.9293
  785MOL0     H 5951   6.901   0.987   1.502  1.9144 -1.1654  0.9217
  785MOL0     H 5952   6.924   0.848   1.399  2.0396  1.9650 -0.5535
  785MOL0     H 5953   6.790   1.109   1.320 -0.4844 -0.4498 -0.8087
  785MOL0     H 5954   6.787   0.958   1.219 -0.3332  1.5638 -0.0894
  785MOL0     H 5955   7.030   0.952   1.221  1.4233  0.7373  1.1286
  785MOL0     H 5956   7.028   1.125   1.284  1.2689 -0.8288  2.0844
  785MOL0     H 5957   6.781   1.226   2.146 -1.7757  2.6704 -3.8552
  785MOL0     H 5958   6.696   1.317   2.361 -0.5167  1.2179  0.4589
  785MOL0     H 5959   6.200   1.306   2.506  0.9936 -0.9541 -0.9754
  785MOL0     H 5960   6.005   1.411   2.624  0.2446 -0.8792 -2.9452
  785MOL0     H 5961   4.494   1.921   3.605  2.0128 -0.5854  1.6088
  785MOL0     H 5962   4.309   2.087   3.538 -0.1713  0.0891  0.3354
  785MOL0     H 5963   3.926   2.417   3.673 -0.4014 -0.2597 -1.6454
  785MOL0     H 5964   3.782   2.576   3.547  0.4762 -1.6679 -0.3295
  785MOL0     H 5965   3.982   2.906   3.321 -0.2745 -2.1910  2.8898
  785MOL0     H 5966   3.901   2.813   3.188 -2.4545  2.8329 -1.5991
  785MOL0     H 5967   3.832   3.042   3.200 -3.3614  1.3202 -0.4971
  785MOL0     H 5968   3.766   3.029   3.363  2.1746  0.1938  0.6693
  785MOL0     H 5969   3.662   2.913   3.109  0.7888  0.7555 -0.5529
  785MOL0     H 5970   3.581   3.029   3.201 -0.4607 -0.9041 -1.3586
  785MOL0     H 5971   3.618   2.753   3.327  1.1489  0.6739  0.3817
  785MOL0     H 5972   3.476   2.813   3.248 -0.4835  0.8827  0.5617
  785MOL0     H 5973   3.378   2.978   3.598 -2.5147  1.9984 -2.4691
  785MOL0     H 5974   4.102   2.714   3.300 -0.8087 -1.4446 -1.8123
  785MOL0     H 5975   4.249   2.543   3.400 -0.9476  0.9855 -1.0618
  786MOL0     O 5976   9.638   5.534   4.091  0.1780 -0.7399  0.3605
  786MOL0     C 5977   9.581   5.638   4.058 -0.1341  0.2780  0.5815
  786MOL0     O 5978   9.459   5.647   3.993 -0.5174  0.4023 -0.4311
  786MOL0     C 5979   9.378   5.539   3.956 -0.0705  0.2422  0.5992
  786MOL0     C 5980   9.281   5.565   3.858 -0.5170 -0.8919 -0.1905
  786MOL0     C 5981   9.174   5.477   3.821 -0.5158  0.0185 -0.4145
  786MOL0     C 5982   9.190   5.348   3.874  0.6105 -0.2929 -0.2558
  786MOL0     O 5983   9.102   5.254   3.824  0.3392 -0.4046 -0.9964
  786MOL0     C 5984   8.962   5.263   3.839  0.6803  0.8318  0.4108
  786MOL0     C 5985   8.918   5.154   3.740  0.7274 -0.5063  0.1955
  786MOL0     C 5986   8.768   5.120   3.747 -0.6310  0.7899  0.6027
  786MOL0     C 5987   8.693   5.207   3.648 -0.5195  0.8798  0.6795
  786MOL0     C 5988   8.541   5.210   3.670 -0.5546  0.2043 -0.6798
  786MOL0     C 5989   8.476   5.071   3.658 -1.1663 -0.5923  0.7237
  786MOL0     C 5990   8.345   5.077   3.574 -0.3785  1.2938  0.5174
  786MOL0     C 5991   8.223   5.153   3.632 -0.2494  0.4608  0.4440
  786MOL0     N 5992   8.148   5.055   3.713  0.1516  0.4202  0.0297
  786MOL0     C 5993   8.012   5.039   3.710 -0.1315  0.2337 -0.2404
  786MOL0     C 5994   7.975   4.968   3.819 -0.6105  0.5956 -0.2043
  786MOL0     C 5995   7.841   4.904   3.845 -0.1799 -0.9965  0.1643
  786MOL0     C 5996   7.740   4.947   3.747 -0.0989 -0.3384 -0.0181
  786MOL0     C 5997   7.606   4.868   3.769 -1.0080 -0.4065  0.2076
  786MOL0     C 5998   7.502   4.920   3.659 -0.5975  0.0355 -1.0519
  786MOL0     O 5999   7.375   4.858   3.645 -0.3710  0.2487 -0.1597
  786MOL0     C 6000   7.385   4.724   3.608 -0.2370  1.0577 -0.2822
  786MOL0     C 6001   7.471   4.671   3.511 -0.7561  0.1862  0.3901
  786MOL0     C 6002   7.485   4.534   3.475 -0.0996 -0.2952  0.7496
  786MOL0     C 6003   7.588   4.507   3.364 -0.3808 -0.3458  0.8555
  786MOL0     C 6004   7.390   4.441   3.536  0.5033  0.1223 -0.1484
  786MOL0     C 6005   7.383   4.290   3.492 -0.5963 -0.5666 -0.0709
  786MOL0     O 6006   7.281   4.220   3.545  0.6067 -0.2350 -0.5993
  786MOL0     C 6007   7.275   4.090   3.560 -0.9582 -0.5716  1.1710
  786MOL0     C 6008   7.155   4.045   3.604  0.5685  0.4812  0.8532
  786MOL0     C 6009   7.126   3.915   3.617  0.4172 -0.1751 -1.2796
  786MOL0     C 6010   7.226   3.817   3.616  0.0546  0.9924 -0.1427
  786MOL0     O 6011   7.205   3.680   3.626 -0.3363  0.4189  0.4654
  786MOL0     C 6012   7.076   3.633   3.645  0.1714  1.3219 -0.5099
  786MOL0     C 6013   7.049   3.483   3.652 -0.0480 -0.3087  1.0615
  786MOL0     C 6014   7.113   3.415   3.777 -0.3411 -0.5131  0.6080
  786MOL0     C 6015   7.057   3.273   3.793 -0.5133 -0.5943  0.2042
  786MOL0     C 6016   6.910   3.258   3.842 -0.7795 -0.0904 -0.1754
  786MOL0     C 6017   6.888   3.120   3.907  0.3386 -0.5009  0.0687
  786MOL0     C 6018   6.771   3.052   3.837 -0.8830 -0.1648  0.2206
  786MOL0     C 6019   6.737   2.927   3.915  1.0317  0.7284 -0.0942
  786MOL0    Cl 6020   6.597   2.837   3.822 -0.3111 -0.1970 -0.1012
  786MOL0     C 6021   7.352   3.866   3.580  0.1079  0.6342  0.6413
  786MOL0     C 6022   7.376   4.002   3.562  0.0229 -0.7687  0.6262
  786MOL0     O 6023   7.473   4.243   3.413  0.5813 -0.6459 -0.4423
  786MOL0     C 6024   7.303   4.491   3.636 -0.1244  0.0575  0.3712
  786MOL0     C 6025   7.304   4.627   3.671  0.3708 -0.2137  0.6969
  786MOL0     N 6026   8.092   4.940   3.881  0.2656  0.0792 -0.2416
  786MOL0     N 6027   8.193   4.995   3.830 -0.0515 -0.0936  0.4100
  786MOL0     C 6028   9.304   5.305   3.951  0.0532 -0.4889 -0.1228
  786MOL0     C 6029   9.387   5.406   4.001 -0.9018 -0.5127 -1.2467
  786MOL0     C 6030   9.643   5.771   4.083  0.6054  0.4122  0.0996
  786MOL0     C 6031   9.784   5.796   4.083  0.5704  0.2831 -0.2228
  786MOL0     C 6032   9.838   5.921   4.061 -0.0160 -0.4579  0.3121
  786MOL0     C 6033   9.765   6.033   4.067  0.8524  0.4613  0.6079
  786MOL0     O 6034   9.833   6.152   4.059  0.3687 -0.1198 -0.3405
  786MOL0     C 6035   9.766   6.274   4.021 -0.1280  0.1617  0.0989
  786MOL0     C 6036   9.743   6.285   3.872  0.9592 -0.1979  0.2806
  786MOL0     C 6037   9.851   6.226   3.774 -0.6712 -0.1843  0.8864
  786MOL0     C 6038   9.942   6.339   3.740 -0.0939  0.5784 -0.1374
  786MOL0     C 6039  10.047   6.286   3.657 -0.0060  0.1733  0.7566
  786MOL0     C 6040  10.132   6.241   3.580 -0.0639  0.2050  0.8213
  786MOL0     C 6041   9.628   6.022   4.071 -0.2552 -0.0517  0.5253
  786MOL0     C 6042   9.566   5.889   4.085  0.3969 -0.6560 -0.0066
  786MOL0     H 6043   9.272   5.666   3.820 -2.0989 -0.2290  1.7647
  786MOL0     H 6044   9.095   5.511   3.755 -0.5754 -1.1631 -0.9886
  786MOL0     H 6045   8.925   5.249   3.941 -0.4033 -0.4171 -0.1235
  786MOL0     H 6046   8.922   5.360   3.808  1.2272  1.0015  0.2308
  786MOL0     H 6047   8.944   5.184   3.639  1.6185  0.4681  0.6895
  786MOL0     H 6048   8.962   5.055   3.752 -0.8252 -1.3808 -0.8522
  786MOL0     H 6049   8.759   5.014   3.722 -0.4849  0.6726  1.0322
  786MOL0     H 6050   8.737   5.143   3.849 -1.9954 -0.3638  0.4678
  786MOL0     H 6051   8.731   5.309   3.652  0.2414  0.7231 -1.3479
  786MOL0     H 6052   8.716   5.167   3.549  0.8110 -2.0789  2.0472
  786MOL0     H 6053   8.522   5.240   3.773  3.8260  2.0935 -0.1959
  786MOL0     H 6054   8.507   5.289   3.602  1.9158 -0.3453 -2.7373
  786MOL0     H 6055   8.532   5.019   3.580 -0.7116  2.2875 -1.0453
  786MOL0     H 6056   8.466   5.008   3.747 -0.7929 -0.1351  1.0952
  786MOL0     H 6057   8.375   5.119   3.478  1.2233 -3.6733 -1.4674
  786MOL0     H 6058   8.323   4.973   3.548  3.9221 -0.1174  1.6405
  786MOL0     H 6059   8.173   5.196   3.544  1.1569 -0.3752 -0.8110
  786MOL0     H 6060   8.253   5.236   3.696 -1.8770  1.5417 -0.1348
  786MOL0     H 6061   7.952   5.081   3.630  0.0411  1.1886  0.1211
  786MOL0     H 6062   7.846   4.796   3.831 -1.7664 -0.8511 -2.1547
  786MOL0     H 6063   7.821   4.921   3.951  1.6458 -0.7650  0.4900
  786MOL0     H 6064   7.780   4.928   3.647  0.3413 -1.2903  0.3261
  786MOL0     H 6065   7.712   5.053   3.749 -1.2103 -0.5526 -1.6987
  786MOL0     H 6066   7.566   4.883   3.870  1.5277  0.1366  1.2071
  786MOL0     H 6067   7.625   4.764   3.743  3.4568  0.4278 -0.7295
  786MOL0     H 6068   7.555   4.912   3.564  0.0142 -1.9545 -0.5897
  786MOL0     H 6069   7.487   5.027   3.676  1.2533  0.6179 -2.7839
  786MOL0     H 6070   7.530   4.745   3.457 -0.7203 -0.3116 -0.2602
  786MOL0     H 6071   7.673   4.574   3.375 -0.2464  0.0193 -1.8623
  786MOL0     H 6072   7.628   4.406   3.373 -5.4777 -2.9918 -1.5886
  786MOL0     H 6073   7.536   4.511   3.268  1.4561 -1.5499 -0.2188
  786MOL0     H 6074   7.081   4.121   3.626  1.4773  1.3823  0.9275
  786MOL0     H 6075   7.024   3.886   3.640  0.5258 -0.0188 -0.5566
  786MOL0     H 6076   7.046   3.671   3.743  1.1517  0.4169  0.1655
  786MOL0     H 6077   7.003   3.675   3.574 -3.4763 -1.9593  0.8959
  786MOL0     H 6078   6.941   3.476   3.659 -0.2116 -1.2763 -1.4589
  786MOL0     H 6079   7.068   3.436   3.555 -1.6795  0.8568  0.1311
  786MOL0     H 6080   7.081   3.474   3.863  1.9985  1.1383  0.4661
  786MOL0     H 6081   7.222   3.413   3.765 -0.3095 -0.4485  0.8681
  786MOL0     H 6082   7.060   3.226   3.694 -3.3835 -0.7845  0.1154
  786MOL0     H 6083   7.125   3.223   3.862  1.8021  1.7510 -0.1771
  786MOL0     H 6084   6.840   3.290   3.765  0.2727  3.6967  0.2415
  786MOL0     H 6085   6.904   3.334   3.920  1.6909 -0.5127  0.5211
  786MOL0     H 6086   6.973   3.056   3.931 -1.1394 -2.7404 -0.3040
  786MOL0     H 6087   6.854   3.142   4.009 -0.0259  4.2595 -0.8668
  786MOL0     H 6088   6.811   3.033   3.737  0.3939  0.6373  0.5610
  786MOL0     H 6089   6.684   3.117   3.822 -0.9103  0.0575  1.2517
  786MOL0     H 6090   6.697   2.950   4.015 -0.4624 -0.1088 -0.4690
  786MOL0     H 6091   6.817   2.855   3.933 -0.1603 -0.2711  1.4809
  786MOL0     H 6092   7.433   3.794   3.577  0.5734  1.1868 -0.5929
  786MOL0     H 6093   7.475   4.044   3.559 -1.2137  2.5706  1.8718
  786MOL0     H 6094   7.233   4.431   3.693 -2.8153 -1.3967 -4.0249
  786MOL0     H 6095   7.237   4.660   3.750 -1.7627 -1.8106 -0.3449
  786MOL0     H 6096   9.320   5.199   3.967  0.7777 -0.5857 -1.3944
  786MOL0     H 6097   9.463   5.379   4.074 -0.1090  3.8706 -0.1834
  786MOL0     H 6098   9.855   5.716   4.103  0.0365  0.1744  1.4545
  786MOL0     H 6099   9.946   5.922   4.059  0.0183 -2.4427 -0.7983
  786MOL0     H 6100   9.668   6.291   4.067  0.8031 -1.5203  2.9223
  786MOL0     H 6101   9.827   6.356   4.061 -2.0762  1.2047  1.0822
  786MOL0     H 6102   9.715   6.388   3.846 -0.8541 -0.7043  0.1286
  786MOL0     H 6103   9.652   6.225   3.859 -0.8855  2.7364 -1.6679
  786MOL0     H 6104   9.809   6.191   3.680 -1.9967  1.2880  0.8888
  786MOL0     H 6105   9.894   6.141   3.829 -0.7981  0.4258  1.9563
  786MOL0     H 6106   9.980   6.366   3.838  0.8200  0.4810 -0.4601
  786MOL0     H 6107   9.896   6.428   3.696 -0.7078  0.5215  0.3749
  786MOL0     H 6108  10.206   6.196   3.518 -0.3283 -0.3870  0.9271
  786MOL0     H 6109   9.558   6.103   4.053 -1.1879 -0.8932  0.2318
  786MOL0     H 6110   9.458   5.894   4.081  0.4395 -0.1527 -0.8029
  787MOL0     O 6111   9.037   7.205   7.701 -0.5722 -0.1856 -0.2350
  787MOL0     C 6112   9.154   7.227   7.736  0.3092  0.5380 -0.0208
  787MOL0     O 6113   9.187   7.246   7.871 -0.2784  0.1750 -0.1747
  787MOL0     C 6114   9.099   7.262   7.976  0.2404 -1.0979 -0.1847
  787MOL0     C 6115   9.126   7.208   8.101 -0.3550 -0.0716  0.3008
  787MOL0     C 6116   9.035   7.215   8.207 -0.8129  0.7084 -0.3012
  787MOL0     C 6117   8.915   7.284   8.187 -0.4715  0.5668 -0.1750
  787MOL0     O 6118   8.833   7.307   8.290  0.3231  0.1889  0.0720
  787MOL0     C 6119   8.699   7.246   8.273  0.3208 -0.0712 -0.2280
  787MOL0     C 6120   8.589   7.346   8.306  0.0589 -0.5394  0.3479
  787MOL0     C 6121   8.455   7.288   8.278  0.8833  0.8751 -0.2185
  787MOL0     C 6122   8.344   7.357   8.340 -0.0504 -0.3580 -0.2088
  787MOL0     C 6123   8.219   7.303   8.281 -0.0283 -0.9969 -0.2534
  787MOL0     C 6124   8.103   7.399   8.335  0.0180 -0.9977 -0.3929
  787MOL0     C 6125   7.972   7.351   8.267 -0.8096  0.3039 -0.1682
  787MOL0     C 6126   7.894   7.255   8.356 -0.0913 -0.1407  0.4642
  787MOL0     N 6127   7.771   7.329   8.385 -0.1656 -0.4470  0.6876
  787MOL0     C 6128   7.758   7.429   8.483 -0.0650  0.1795  0.2895
  787MOL0     C 6129   7.625   7.460   8.491  0.1115  0.1711  0.4461
  787MOL0     C 6130   7.580   7.572   8.574  0.1533  0.5136 -0.0789
  787MOL0     C 6131   7.440   7.630   8.549  0.0287 -0.6572  1.0629
  787MOL0     C 6132   7.337   7.513   8.590  0.1043 -0.2862 -0.4344
  787MOL0     C 6133   7.192   7.571   8.578 -0.1686 -0.2957  0.1567
  787MOL0     O 6134   7.176   7.668   8.683 -0.6423  0.0067 -0.2201
  787MOL0     C 6135   7.060   7.727   8.706  0.6610 -0.1036 -0.2267
  787MOL0     C 6136   6.963   7.732   8.609  0.6034 -0.7364  0.0165
  787MOL0     C 6137   6.838   7.786   8.631  0.8252  0.1038 -1.0043
  787MOL0     C 6138   6.729   7.767   8.526  0.9112 -0.0361  0.5131
  787MOL0     C 6139   6.814   7.867   8.751  0.1439  0.5517  0.3858
  787MOL0     C 6140   6.685   7.931   8.779 -0.3897  0.3357  0.2335
  787MOL0     O 6141   6.656   7.940   8.913  0.1457 -0.8988 -0.6070
  787MOL0     C 6142   6.546   7.983   8.981  0.0660 -1.1619 -0.3797
  787MOL0     C 6143   6.550   7.987   9.119  0.1722  0.4351 -0.8702
  787MOL0     C 6144   6.441   8.022   9.201 -0.1573 -0.3438 -0.1716
  787MOL0     C 6145   6.310   8.046   9.146 -0.3282 -0.3266 -0.4016
  787MOL0     O 6146   6.206   8.071   9.228 -0.1714 -0.0650  0.5488
  787MOL0     C 6147   6.074   8.038   9.179  0.9147 -0.1618  0.3937
  787MOL0     C 6148   5.969   8.098   9.275 -0.2787  0.1474  0.0041
  787MOL0     C 6149   5.832   8.050   9.236 -0.6364 -0.4967 -0.0980
  787MOL0     C 6150   5.730   8.100   9.345 -0.6916  0.4690  0.8289
  787MOL0     C 6151   5.581   8.057   9.338  0.2583 -0.0560 -0.1899
  787MOL0     C 6152   5.569   7.910   9.351  0.3938  0.4312 -0.2781
  787MOL0     C 6153   5.422   7.853   9.331  0.3999 -0.0688 -0.1227
  787MOL0     C 6154   5.413   7.710   9.331  0.5702  0.6482  0.0556
  787MOL0    Cl 6155   5.237   7.685   9.318  0.0709  0.1315  0.4106
  787MOL0     C 6156   6.311   8.030   9.003  0.4593  0.4827  0.3333
  787MOL0     C 6157   6.421   8.007   8.923  0.3191 -0.1897  0.8193
  787MOL0     O 6158   6.618   7.971   8.685  0.4852 -0.1813 -0.5657
  787MOL0     C 6159   6.918   7.850   8.851 -0.3217  0.1916 -1.1173
  787MOL0     C 6160   7.038   7.783   8.823  0.9315 -0.1571  0.0909
  787MOL0     N 6161   7.561   7.384   8.397 -0.3695  0.0201  0.3400
  787MOL0     N 6162   7.645   7.295   8.346 -0.5994  0.2020  0.2347
  787MOL0     C 6163   8.893   7.355   8.070  0.2739 -0.3460  0.5074
  787MOL0     C 6164   8.983   7.349   7.960 -0.1968  0.1732 -0.9265
  787MOL0     C 6165   9.265   7.239   7.629  0.1311  0.9719 -0.2454
  787MOL0     C 6166   9.230   7.271   7.492  0.4139  0.8525 -0.3127
  787MOL0     C 6167   9.318   7.266   7.391 -0.4783 -0.3685  0.1962
  787MOL0     C 6168   9.453   7.250   7.414  0.3343 -0.1782 -0.2435
  787MOL0     O 6169   9.554   7.258   7.318  0.2337  0.3633  0.2747
  787MOL0     C 6170   9.515   7.302   7.181 -0.2639 -0.1850 -0.1052
  787MOL0     C 6171   9.643   7.318   7.108  0.1344  0.0935  0.3731
  787MOL0     C 6172   9.629   7.350   6.963 -0.9922  0.2536  0.1714
  787MOL0     C 6173   9.604   7.504   6.928  0.2359 -0.7334  0.5883
  787MOL0     C 6174   9.611   7.507   6.784 -0.4634  0.2846 -0.3445
  787MOL0     C 6175   9.612   7.503   6.660 -0.3698 -0.2754 -0.1245
  787MOL0     C 6176   9.493   7.236   7.552 -0.4459 -0.5111 -0.7477
  787MOL0     C 6177   9.404   7.232   7.661  0.3756  0.3040  0.1027
  787MOL0     H 6178   9.213   7.143   8.099  0.6476  1.1959 -2.8222
  787MOL0     H 6179   9.071   7.160   8.292  0.5146 -1.1062 -1.9555
  787MOL0     H 6180   8.682   7.203   8.174  0.1207 -1.2155  0.2924
  787MOL0     H 6181   8.686   7.173   8.353  2.7082  0.3046  0.5984
  787MOL0     H 6182   8.588   7.366   8.413  1.6980 -0.2604  0.3401
  787MOL0     H 6183   8.619   7.441   8.259  1.1742 -0.2357  1.6079
  787MOL0     H 6184   8.440   7.272   8.171  2.1947 -2.5581 -0.0204
  787MOL0     H 6185   8.456   7.188   8.321 -2.4981  0.7510 -0.1728
  787MOL0     H 6186   8.344   7.331   8.446 -2.0830 -1.8862 -0.5231
  787MOL0     H 6187   8.345   7.466   8.329 -5.4159 -0.2447 -2.6057
  787MOL0     H 6188   8.226   7.312   8.172  1.3173 -0.7875 -0.1749
  787MOL0     H 6189   8.204   7.200   8.314  1.4588 -1.5433 -1.1707
  787MOL0     H 6190   8.093   7.394   8.444 -1.7812  0.3518 -0.4535
  787MOL0     H 6191   8.124   7.505   8.317 -3.7819 -0.1357 -0.5829
  787MOL0     H 6192   7.918   7.436   8.223  0.7655  1.1319 -0.5643
  787MOL0     H 6193   7.998   7.291   8.179 -1.4047  0.0065 -0.1475
  787MOL0     H 6194   7.947   7.217   8.443  0.6631  1.6946  0.8614
  787MOL0     H 6195   7.864   7.165   8.302 -1.0990 -1.5669  3.2199
  787MOL0     H 6196   7.844   7.473   8.534  1.3333  0.0225 -1.8238
  787MOL0     H 6197   7.571   7.537   8.677  0.8245  0.3360 -0.0762
  787MOL0     H 6198   7.654   7.652   8.576 -0.5025  1.1490 -0.8196
  787MOL0     H 6199   7.439   7.668   8.447  4.0266 -0.4717  0.9201
  787MOL0     H 6200   7.431   7.707   8.627  0.2463 -0.8144  1.2424
  787MOL0     H 6201   7.360   7.504   8.696 -4.1711  0.6802  0.7912
  787MOL0     H 6202   7.344   7.424   8.526  0.2539 -0.1097 -0.6650
  787MOL0     H 6203   7.120   7.490   8.598 -1.1680 -0.5365 -3.5445
  787MOL0     H 6204   7.175   7.607   8.476  1.2609 -3.5007 -1.3657
  787MOL0     H 6205   6.976   7.683   8.513  2.8555 -1.3777  0.5933
  787MOL0     H 6206   6.710   7.855   8.463 -3.1690 -1.7379 -0.9957
  787MOL0     H 6207   6.760   7.676   8.474 -2.9349  0.4884 -3.2742
  787MOL0     H 6208   6.634   7.738   8.573  1.3022 -2.4069 -0.0603
  787MOL0     H 6209   6.643   7.987   9.176  0.0011 -4.2092 -0.2419
  787MOL0     H 6210   6.452   8.030   9.309  3.3004 -0.6342 -0.4132
  787MOL0     H 6211   6.062   8.086   9.082  1.1545  0.9306  0.8906
  787MOL0     H 6212   6.073   7.929   9.172 -1.7152 -0.2273  0.9166
  787MOL0     H 6213   5.992   8.048   9.369  1.7320 -1.7611 -1.3903
  787MOL0     H 6214   5.966   8.207   9.274 -2.4156  0.1243  0.0509
  787MOL0     H 6215   5.833   7.940   9.231 -1.1801 -0.5515  0.9059
  787MOL0     H 6216   5.800   8.081   9.136 -0.7831 -0.7897 -0.1417
  787MOL0     H 6217   5.756   8.052   9.440 -0.1868 -3.6480 -1.1415
  787MOL0     H 6218   5.745   8.208   9.345  0.0735  0.3684  0.7970
  787MOL0     H 6219   5.552   8.090   9.238  2.4896  0.6342 -0.6626
  787MOL0     H 6220   5.519   8.101   9.416 -0.9240  3.4586 -2.8740
  787MOL0     H 6221   5.627   7.851   9.280 -0.4861 -2.3837  1.2038
  787MOL0     H 6222   5.603   7.889   9.453 -1.0787  2.8399  0.7979
  787MOL0     H 6223   5.374   7.891   9.240 -4.6205  0.9956  2.5787
  787MOL0     H 6224   5.368   7.889   9.420  1.4667  1.3137 -0.0064
  787MOL0     H 6225   5.444   7.660   9.423 -1.3891 -0.2671  0.2724
  787MOL0     H 6226   5.462   7.660   9.247 -1.0409 -0.6856 -0.1431
  787MOL0     H 6227   6.223   8.041   8.941  2.0619  0.5809 -2.0392
  787MOL0     H 6228   6.402   8.002   8.817  1.0684 -0.2845  0.6851
  787MOL0     H 6229   6.898   7.900   8.945 -0.6987 -0.5647 -0.7854
  787MOL0     H 6230   7.122   7.782   8.892  1.2229  0.9775 -0.2216
  787MOL0     H 6231   8.805   7.418   8.060  0.3937 -0.3930 -1.1414
  787MOL0     H 6232   8.960   7.404   7.869  0.2694  1.6349 -0.2001
  787MOL0     H 6233   9.123   7.275   7.471 -0.9321 -2.2576  4.2555
  787MOL0     H 6234   9.279   7.282   7.291 -0.3418 -1.4296 -0.0405
  787MOL0     H 6235   9.465   7.217   7.133  0.4960 -0.1093 -1.0535
  787MOL0     H 6236   9.454   7.392   7.193 -2.6610 -2.0185  3.3443
  787MOL0     H 6237   9.693   7.220   7.115 -0.3439 -0.2609 -0.8640
  787MOL0     H 6238   9.706   7.393   7.155  3.4523 -1.5934 -1.0245
  787MOL0     H 6239   9.551   7.295   6.909  0.1059  0.3185 -1.5630
  787MOL0     H 6240   9.718   7.308   6.916  1.7029  0.5600  4.4918
  787MOL0     H 6241   9.679   7.568   6.976  1.9190 -0.8667 -1.7038
  787MOL0     H 6242   9.505   7.533   6.963  0.0804 -2.3578  1.6358
  787MOL0     H 6243   9.591   7.502   6.555 -0.9849 -1.4021 -0.0003
  787MOL0     H 6244   9.600   7.226   7.566  0.5145  3.4771 -3.4646
  787MOL0     H 6245   9.435   7.216   7.763  3.1403  2.1019 -0.3645
  788MOL0     O 6246  10.283  10.108   0.134 -0.1383  0.6754 -0.1220
  788MOL0     C 6247  10.236  10.066   0.237  0.2179 -0.5485  0.3401
  788MOL0     O 6248  10.153   9.961   0.260 -0.6209  0.2467 -0.2345
  788MOL0     C 6249  10.070   9.903   0.171  0.1611 -0.3227  0.2608
  788MOL0     C 6250  10.034   9.961   0.046  0.2583 -0.2491 -0.1917
  788MOL0     C 6251   9.928   9.901  -0.031 -1.2371  0.3564  0.7494
  788MOL0     C 6252   9.860   9.789   0.011  0.1189  0.0861 -0.3983
  788MOL0     O 6253   9.754   9.737  -0.059  0.6994 -0.1063 -0.5849
  788MOL0     C 6254   9.679   9.816  -0.151 -0.6207 -0.2382  0.1820
  788MOL0     C 6255   9.550   9.889  -0.104 -0.6921 -0.2236  0.6237
  788MOL0     C 6256   9.556   9.996   0.012  0.0838 -0.4847  0.8403
  788MOL0     C 6257   9.535   9.921   0.150  0.5053  0.7263  1.0112
  788MOL0     C 6258   9.543  10.031   0.260 -0.4851  0.1756 -0.2534
  788MOL0     C 6259   9.476   9.990   0.383  0.2845 -0.5872 -0.6973
  788MOL0     C 6260   9.470  10.102   0.497  0.0793  0.1375  0.1556
  788MOL0     C 6261   9.601  10.180   0.524 -0.1952  0.4746 -0.2991
  788MOL0     N 6262   9.713  10.083   0.540  0.7321 -0.2014  0.3154
  788MOL0     C 6263   9.720   9.992   0.646 -0.2775 -0.7808  1.1304
  788MOL0     C 6264   9.831   9.916   0.610 -0.7143 -0.3814 -0.4795
  788MOL0     C 6265   9.892   9.807   0.698  0.7624  0.7823  0.3877
  788MOL0     C 6266   9.816   9.667   0.705  0.3761  0.1016  0.1491
  788MOL0     C 6267   9.875   9.548   0.788  0.3196 -0.6858 -0.4107
  788MOL0     C 6268   9.876   9.585   0.944  0.6109  0.1515  0.3809
  788MOL0     O 6269   9.745   9.593   0.999 -0.0914 -0.0777  0.6020
  788MOL0     C 6270   9.686   9.484   1.055 -0.2413  0.2272  0.5550
  788MOL0     C 6271   9.552   9.495   1.099  0.4629 -0.6491  0.2689
  788MOL0     C 6272   9.474   9.386   1.152 -0.8281  0.3011  0.1413
  788MOL0     C 6273   9.344   9.416   1.200  0.5412 -0.0059  0.2209
  788MOL0     C 6274   9.537   9.265   1.171  0.7810 -0.0328 -0.0592
  788MOL0     C 6275   9.471   9.138   1.217 -0.7295 -0.5098  0.2347
  788MOL0     O 6276   9.342   9.151   1.262  0.2907 -0.0724  0.3154
  788MOL0     C 6277   9.276   9.045   1.315 -0.2151  0.3741  0.5013
  788MOL0     C 6278   9.321   8.945   1.409 -1.3137  0.2618  0.1095
  788MOL0     C 6279   9.234   8.852   1.462  1.2488 -1.2337  0.9146
  788MOL0     C 6280   9.101   8.847   1.435  0.4309  0.2272 -0.4141
  788MOL0     O 6281   9.019   8.750   1.508  0.2226 -0.7455 -0.3553
  788MOL0     C 6282   8.872   8.743   1.482  0.1202  1.8052 -1.0592
  788MOL0     C 6283   8.801   8.634   1.576  0.0940 -0.3510  0.5853
  788MOL0     C 6284   8.676   8.593   1.509 -0.0661  0.4761  0.2083
  788MOL0     C 6285   8.592   8.523   1.617 -0.9291  0.3728  0.2716
  788MOL0     C 6286   8.450   8.489   1.568 -0.6780 -0.4256  0.2493
  788MOL0     C 6287   8.359   8.464   1.695 -0.0039 -0.1843 -0.5548
  788MOL0     C 6288   8.233   8.413   1.635  1.0542 -0.2399 -0.7601
  788MOL0     C 6289   8.123   8.370   1.734 -0.2598 -0.1083 -0.3162
  788MOL0    Cl 6290   8.009   8.284   1.660  0.0381  0.2110  0.3490
  788MOL0     C 6291   9.049   8.953   1.361  0.2235 -0.9534 -0.7703
  788MOL0     C 6292   9.138   9.039   1.291  0.2442  0.7085 -0.2569
  788MOL0     O 6293   9.526   9.030   1.215  0.2138 -0.3147 -0.0935
  788MOL0     C 6294   9.669   9.256   1.121 -0.1394  1.3462 -0.4235
  788MOL0     C 6295   9.741   9.356   1.061 -0.5219  0.4061 -0.1510
  788MOL0     N 6296   9.882   9.956   0.485 -0.3886  0.9569 -0.1832
  788MOL0     N 6297   9.818  10.067   0.448 -0.2343 -0.0471  0.4401
  788MOL0     C 6298   9.895   9.729   0.128  0.8019  0.8129 -1.2480
  788MOL0     C 6299   9.992   9.786   0.210 -0.1967 -1.2443  0.6300
  788MOL0     C 6300  10.265  10.146   0.360  0.0575  0.2949  0.2775
  788MOL0     C 6301  10.348  10.263   0.347  0.6996  0.4960 -0.9093
  788MOL0     C 6302  10.375  10.349   0.458 -0.0094  0.7627  0.8298
  788MOL0     C 6303  10.314  10.327   0.577 -0.1656 -0.5831 -0.2728
  788MOL0     O 6304  10.340  10.419   0.674 -0.1278 -0.4252  0.0198
  788MOL0     C 6305  10.280  10.383   0.801  0.2753 -0.1615 -0.5482
  788MOL0     C 6306  10.317  10.482   0.905  0.4683  0.0491 -0.2836
  788MOL0     C 6307  10.442  10.458   0.977 -0.1872 -0.6555 -0.3190
  788MOL0     C 6308  10.476  10.562   1.088  0.9475 -0.1108 -0.3767
  788MOL0     C 6309  10.584  10.526   1.173 -0.4628  0.2784 -0.3437
  788MOL0     C 6310  10.666  10.508   1.262  0.1268  1.0719  0.0472
  788MOL0     C 6311  10.228  10.211   0.584 -0.1402  0.0912  0.5255
  788MOL0     C 6312  10.205  10.121   0.481 -0.3806  1.3991  0.0493
  788MOL0     H 6313  10.078  10.053   0.009  1.6061 -1.2674 -1.2214
  788MOL0     H 6314   9.912   9.950  -0.127  1.5569  0.6480  0.3513
  788MOL0     H 6315   9.732   9.894  -0.206  0.5442 -0.0468  1.5312
  788MOL0     H 6316   9.637   9.752  -0.229 -0.0312  0.5145 -0.7775
  788MOL0     H 6317   9.507   9.937  -0.192  2.9938 -0.1203 -1.3280
  788MOL0     H 6318   9.475   9.813  -0.080  0.4513 -2.3268 -1.8250
  788MOL0     H 6319   9.654  10.045   0.013 -1.0292  1.9049  0.0791
  788MOL0     H 6320   9.482  10.072  -0.013 -0.5830 -1.3869 -0.0344
  788MOL0     H 6321   9.444   9.860   0.141  1.0005 -0.4087  3.0185
  788MOL0     H 6322   9.614   9.847   0.168 -1.3669 -1.9790 -0.9838
  788MOL0     H 6323   9.648  10.053   0.279 -0.5919  0.0503  0.4986
  788MOL0     H 6324   9.492  10.123   0.229 -1.4988  0.4585  2.0288
  788MOL0     H 6325   9.380   9.956   0.344  0.4968 -2.2023  0.1140
  788MOL0     H 6326   9.535   9.912   0.432  1.7690 -0.3863 -2.1083
  788MOL0     H 6327   9.406  10.190   0.484  0.8062  1.3172  3.5355
  788MOL0     H 6328   9.426  10.055   0.586  0.2051  4.0489  2.5427
  788MOL0     H 6329   9.594  10.244   0.613  1.4310 -0.6455  0.6843
  788MOL0     H 6330   9.607  10.245   0.437 -2.5461 -0.4159 -1.2339
  788MOL0     H 6331   9.644   9.973   0.721 -2.0541  0.0970 -0.3687
  788MOL0     H 6332   9.997   9.789   0.674  1.0704  2.1782  0.6121
  788MOL0     H 6333   9.888   9.844   0.801 -0.6878 -3.3473  2.0330
  788MOL0     H 6334   9.806   9.616   0.609 -1.0303  0.9561 -0.1759
  788MOL0     H 6335   9.716   9.684   0.747  0.3456  0.5123 -0.0926
  788MOL0     H 6336   9.981   9.538   0.764 -0.1721 -0.2885 -3.0239
  788MOL0     H 6337   9.827   9.450   0.779  0.3034 -0.8499  1.1008
  788MOL0     H 6338   9.921   9.685   0.942  2.5725 -0.6785 -1.2119
  788MOL0     H 6339   9.946   9.535   1.012  0.3734  0.8534  1.1650
  788MOL0     H 6340   9.509   9.595   1.092 -2.2963 -1.5593  2.2194
  788MOL0     H 6341   9.348   9.384   1.304 -0.6994  0.5027  0.4464
  788MOL0     H 6342   9.317   9.522   1.197 -2.9639 -0.7146  1.7625
  788MOL0     H 6343   9.264   9.360   1.151  2.1970 -4.2810  1.9619
  788MOL0     H 6344   9.420   8.937   1.452 -1.8848 -2.8055  1.1296
  788MOL0     H 6345   9.264   8.779   1.537  0.4413 -2.9173 -0.3436
  788MOL0     H 6346   8.829   8.841   1.503  1.2623  1.7158  2.2671
  788MOL0     H 6347   8.856   8.728   1.374 -1.1481 -0.6956 -0.5927
  788MOL0     H 6348   8.868   8.548   1.577  1.8270  0.9312  0.7639
  788MOL0     H 6349   8.787   8.677   1.675 -2.1633  1.7682 -0.5386
  788MOL0     H 6350   8.692   8.531   1.421  1.1012 -2.0131  2.0827
  788MOL0     H 6351   8.624   8.682   1.473  1.9527  1.6746  0.0897
  788MOL0     H 6352   8.647   8.440   1.660  0.8580  1.5121  0.3135
  788MOL0     H 6353   8.593   8.587   1.706  0.1147 -0.7289  1.0838
  788MOL0     H 6354   8.457   8.402   1.502 -4.7080  0.4290 -1.6227
  788MOL0     H 6355   8.409   8.573   1.511 -2.2768 -2.1703 -1.3267
  788MOL0     H 6356   8.402   8.402   1.774 -1.0007  0.8248  0.8331
  788MOL0     H 6357   8.348   8.562   1.743 -1.5562 -0.0565 -1.1247
  788MOL0     H 6358   8.251   8.329   1.567 -1.7096 -2.8372  1.4097
  788MOL0     H 6359   8.189   8.498   1.583 -1.8756 -0.5707  0.9278
  788MOL0     H 6360   8.070   8.448   1.788  0.0588  0.1258 -0.3380
  788MOL0     H 6361   8.170   8.309   1.812 -2.8087  1.3650  2.5783
  788MOL0     H 6362   8.941   8.959   1.358  0.1970 -1.3156 -0.6590
  788MOL0     H 6363   9.114   9.130   1.237 -0.3239  0.7150 -0.0036
  788MOL0     H 6364   9.721   9.162   1.132 -1.7233  0.5064  0.1457
  788MOL0     H 6365   9.842   9.334   1.029 -1.8608 -3.4831 -2.3644
  788MOL0     H 6366   9.837   9.640   0.149 -0.7015  2.2271  1.0047
  788MOL0     H 6367  10.028   9.736   0.299  0.4755 -1.6346  0.1474
  788MOL0     H 6368  10.403  10.271   0.253  0.1101  2.7979 -1.1248
  788MOL0     H 6369  10.435  10.438   0.441  1.0670  0.1546  1.3170
  788MOL0     H 6370  10.172  10.387   0.786  0.1152 -1.6948  0.0358
  788MOL0     H 6371  10.301  10.286   0.847 -0.7167 -0.0643  0.1338
  788MOL0     H 6372  10.235  10.507   0.973 -0.9590  3.2513 -2.9400
  788MOL0     H 6373  10.342  10.575   0.853  1.0971  0.0181 -0.0545
  788MOL0     H 6374  10.511  10.462   0.892 -0.0723 -2.8948 -0.3782
  788MOL0     H 6375  10.446  10.358   1.021 -2.1061 -0.3542  0.6697
  788MOL0     H 6376  10.388  10.576   1.151 -2.3496 -2.2130 -3.9853
  788MOL0     H 6377  10.502  10.653   1.034 -1.3016 -1.7767 -4.7854
  788MOL0     H 6378  10.733  10.472   1.338  0.5847 -0.1256 -0.8937
  788MOL0     H 6379  10.165  10.196   0.671 -0.8381 -0.5020 -0.0718
  788MOL0     H 6380  10.136  10.042   0.509  0.8163  0.7240  1.2241
  789MOL0     O 6381   2.607   3.963   7.007 -0.3286  0.4202 -0.4460
  789MOL0     C 6382   2.652   4.071   7.054  0.1454  0.1184 -0.3175
  789MOL0     O 6383   2.589   4.189   7.051 -0.2056 -0.0788 -0.2106
  789MOL0     C 6384   2.459   4.192   6.997  0.2817 -0.2488  0.6506
  789MOL0     C 6385   2.353   4.258   7.074 -0.6326  0.8638  0.3467
  789MOL0     C 6386   2.228   4.271   7.014 -0.5420 -0.1940  1.1156
  789MOL0     C 6387   2.206   4.232   6.881 -0.2057  0.7465  0.3194
  789MOL0     O 6388   2.084   4.251   6.821  0.1123  0.2784 -1.4825
  789MOL0     C 6389   2.012   4.375   6.831  0.5405  0.3733 -0.2799
  789MOL0     C 6390   2.106   4.490   6.815  0.5227  0.6090  0.9466
  789MOL0     C 6391   2.154   4.512   6.673 -0.8538 -0.1975  0.0970
  789MOL0     C 6392   2.046   4.575   6.581  0.1863  0.3378  0.3062
  789MOL0     C 6393   2.047   4.528   6.430 -0.4611  0.0170 -0.5416
  789MOL0     C 6394   2.039   4.378   6.411 -0.0758  0.3236 -0.2728
  789MOL0     C 6395   2.027   4.334   6.258  0.1227  0.2758 -1.0110
  789MOL0     C 6396   2.159   4.362   6.176 -0.2008 -0.6253 -0.5637
  789MOL0     N 6397   2.270   4.278   6.227  0.6886 -0.1737 -0.9028
  789MOL0     C 6398   2.295   4.145   6.202 -1.0765 -0.8568  0.6948
  789MOL0     C 6399   2.396   4.115   6.280 -0.7487 -0.2737  0.2344
  789MOL0     C 6400   2.472   3.984   6.304  0.5348  0.3858 -0.7430
  789MOL0     C 6401   2.383   3.872   6.358  0.7439  0.4284  0.4743
  789MOL0     C 6402   2.303   3.880   6.492 -0.8428  0.4570 -0.1638
  789MOL0     C 6403   2.406   3.872   6.606  0.1216 -0.4503 -0.2930
  789MOL0     O 6404   2.446   3.737   6.645 -0.1079  0.2720  0.0384
  789MOL0     C 6405   2.573   3.707   6.643 -0.1146  0.4261 -0.4516
  789MOL0     C 6406   2.661   3.771   6.723  0.7559 -0.3583 -0.4656
  789MOL0     C 6407   2.796   3.748   6.718  0.2146  0.2589 -0.0060
  789MOL0     C 6408   2.876   3.812   6.833  0.6374 -0.2279 -0.8343
  789MOL0     C 6409   2.851   3.668   6.620 -1.1043 -0.1433 -0.6674
  789MOL0     C 6410   2.998   3.637   6.616 -0.2085  0.7579 -0.2320
  789MOL0     O 6411   3.061   3.629   6.740  0.1119 -0.1738  0.2628
  789MOL0     C 6412   3.192   3.583   6.747  0.3060 -1.0573  0.3561
  789MOL0     C 6413   3.267   3.647   6.842  0.2113 -0.6429 -0.0438
  789MOL0     C 6414   3.403   3.605   6.857  0.3798 -0.5141 -0.4130
  789MOL0     C 6415   3.460   3.508   6.781 -0.8549  0.7781  0.1220
  789MOL0     O 6416   3.595   3.466   6.780  0.1358 -0.4356  0.3481
  789MOL0     C 6417   3.696   3.565   6.820 -0.3539 -0.1647 -0.0815
  789MOL0     C 6418   3.842   3.504   6.806  0.4743 -0.6729  0.3043
  789MOL0     C 6419   3.879   3.401   6.906  0.6122 -0.1973 -0.4960
  789MOL0     C 6420   4.002   3.328   6.850  0.1165  0.3124  0.0614
  789MOL0     C 6421   4.056   3.213   6.936  1.1746  0.8746 -0.4812
  789MOL0     C 6422   3.955   3.097   6.928  0.3697  0.0256  0.3775
  789MOL0     C 6423   4.011   2.978   7.010  0.5448  0.2374  0.3323
  789MOL0     C 6424   3.922   2.847   6.993 -0.5086 -0.4667 -0.0752
  789MOL0    Cl 6425   3.751   2.877   7.020 -0.2631 -0.5907 -0.4256
  789MOL0     C 6426   3.381   3.446   6.681  0.0791 -0.4708 -0.1601
  789MOL0     C 6427   3.243   3.472   6.679  0.5996 -0.2922 -0.0654
  789MOL0     O 6428   3.054   3.624   6.509 -0.2817  0.6797  0.9854
  789MOL0     C 6429   2.769   3.619   6.525 -0.0531  0.6533  0.2550
  789MOL0     C 6430   2.632   3.634   6.543  1.1526  0.6742  0.1856
  789MOL0     N 6431   2.429   4.227   6.359  0.0430  0.4543  0.8697
  789MOL0     N 6432   2.354   4.324   6.323  1.0334  1.7838 -0.6247
  789MOL0     C 6433   2.311   4.179   6.805  0.6063  0.2406  0.0366
  789MOL0     C 6434   2.440   4.162   6.857 -0.0497  0.2852  0.0546
  789MOL0     C 6435   2.783   4.070   7.111  0.8884  0.0360  0.4577
  789MOL0     C 6436   2.818   3.958   7.179 -0.1456  0.8087  0.2579
  789MOL0     C 6437   2.943   3.940   7.233  0.2130  0.2771  0.8420
  789MOL0     C 6438   3.041   4.038   7.213 -0.9084 -0.1250 -0.9491
  789MOL0     O 6439   3.165   4.008   7.253  0.3922 -0.4325  0.1968
  789MOL0     C 6440   3.262   4.033   7.150  1.2054 -0.5793 -0.0712
  789MOL0     C 6441   3.391   3.979   7.209  0.1355 -0.2686  0.5052
  789MOL0     C 6442   3.504   3.977   7.107  0.5246 -0.6976 -0.1279
  789MOL0     C 6443   3.580   4.110   7.093 -0.2127  0.1365  0.4826
  789MOL0     C 6444   3.705   4.134   7.173 -0.5247  0.4823 -0.0115
  789MOL0     C 6445   3.811   4.151   7.234  0.5656  0.2345 -1.4532
  789MOL0     C 6446   3.007   4.153   7.142 -0.4518  1.0361 -0.0120
  789MOL0     C 6447   2.876   4.174   7.090  0.5597  0.2591  0.5741
  789MOL0     H 6448   2.363   4.293   7.176 -0.0894  1.7124  0.0111
  789MOL0     H 6449   2.135   4.296   7.064 -1.9363  2.3673 -2.3474
  789MOL0     H 6450   1.939   4.366   6.750  0.9551 -0.6898 -0.5562
  789MOL0     H 6451   1.961   4.357   6.926  1.2514  1.9748  0.4309
  789MOL0     H 6452   2.048   4.580   6.840  0.7460  1.9786 -2.8565
  789MOL0     H 6453   2.183   4.505   6.892  0.8951  0.4885  0.6032
  789MOL0     H 6454   2.235   4.585   6.684  1.3191 -2.2827 -1.0848
  789MOL0     H 6455   2.201   4.427   6.622 -0.8774  0.1664 -0.5431
  789MOL0     H 6456   1.943   4.549   6.606  0.0502 -0.0684 -0.6546
  789MOL0     H 6457   2.055   4.684   6.576 -1.6864  0.5008 -0.0773
  789MOL0     H 6458   1.964   4.578   6.380 -1.7444 -1.0259  0.4687
  789MOL0     H 6459   2.140   4.564   6.384 -0.5437 -0.3062 -0.9759
  789MOL0     H 6460   2.128   4.324   6.444 -0.1112  0.7203  0.4881
  789MOL0     H 6461   1.959   4.341   6.475  0.6055  0.9360  0.9713
  789MOL0     H 6462   2.007   4.226   6.254 -0.0527  0.2776 -0.3163
  789MOL0     H 6463   1.944   4.387   6.210 -0.8245 -1.1822 -1.0533
  789MOL0     H 6464   2.193   4.466   6.174  0.4939 -0.8441 -0.3102
  789MOL0     H 6465   2.137   4.338   6.072  2.1878 -0.5223 -1.1385
  789MOL0     H 6466   2.241   4.078   6.136 -1.5447 -0.4090  0.6186
  789MOL0     H 6467   2.527   3.958   6.213 -1.5649  2.8525 -2.8995
  789MOL0     H 6468   2.555   3.992   6.374  1.0110 -3.4354 -0.6439
  789MOL0     H 6469   2.444   3.781   6.365  0.3054 -0.0893 -1.7014
  789MOL0     H 6470   2.309   3.836   6.286  0.0935  2.3566  0.1125
  789MOL0     H 6471   2.234   3.795   6.496 -0.3239  0.0652  2.7980
  789MOL0     H 6472   2.254   3.976   6.505  1.6640  2.1728 -2.3761
  789MOL0     H 6473   2.361   3.918   6.695  0.5283  0.6971 -0.6675
  789MOL0     H 6474   2.495   3.932   6.587 -0.1673  1.6049  3.6872
  789MOL0     H 6475   2.618   3.833   6.802  1.6175 -0.9082  0.4546
  789MOL0     H 6476   2.812   3.887   6.880  2.2830  0.6920 -0.0000
  789MOL0     H 6477   2.892   3.733   6.908  2.5793  0.0571 -0.9019
  789MOL0     H 6478   2.968   3.866   6.809  0.4917  1.3397  1.6876
  789MOL0     H 6479   3.228   3.721   6.912 -2.7814 -1.5081 -0.6641
  789MOL0     H 6480   3.466   3.655   6.930 -0.5135 -0.9608  0.7085
  789MOL0     H 6481   3.697   3.641   6.742  2.4007 -1.1303 -1.0805
  789MOL0     H 6482   3.675   3.598   6.923  1.1092 -0.5857  0.3721
  789MOL0     H 6483   3.854   3.476   6.701  0.9260 -2.4308  0.7914
  789MOL0     H 6484   3.909   3.589   6.821  0.1074  0.3057 -2.8314
  789MOL0     H 6485   3.806   3.322   6.924  0.1470  0.5774  1.2357
  789MOL0     H 6486   3.887   3.454   7.001 -0.8048  0.4879 -0.7403
  789MOL0     H 6487   3.972   3.293   6.751  0.4472  2.2307 -0.7618
  789MOL0     H 6488   4.081   3.400   6.828 -0.1735  1.0467  1.3018
  789MOL0     H 6489   4.068   3.239   7.042  0.0200  2.6064 -0.7365
  789MOL0     H 6490   4.146   3.185   6.881  0.9536 -0.8251 -0.0347
  789MOL0     H 6491   3.861   3.125   6.978  1.9320  2.8009  2.0007
  789MOL0     H 6492   3.939   3.062   6.826  0.4931  2.6187 -0.6112
  789MOL0     H 6493   4.004   3.013   7.113  1.5749 -0.7677  0.7618
  789MOL0     H 6494   4.114   2.962   6.979  0.3382  1.9848 -1.4464
  789MOL0     H 6495   3.954   2.769   7.063  0.0315  1.3652  1.8338
  789MOL0     H 6496   3.921   2.813   6.889 -2.6777  0.1017 -0.2860
  789MOL0     H 6497   3.418   3.369   6.614 -2.6106 -1.1849 -0.9699
  789MOL0     H 6498   3.174   3.416   6.617  0.0411  1.0217 -0.6649
  789MOL0     H 6499   2.805   3.553   6.446  1.3078 -1.3236  2.4076
  789MOL0     H 6500   2.569   3.589   6.467  0.5623  3.9233 -1.4198
  789MOL0     H 6501   2.295   4.161   6.699  1.5037  2.3680 -0.5110
  789MOL0     H 6502   2.524   4.135   6.794 -0.6824 -0.9630 -0.2862
  789MOL0     H 6503   2.743   3.884   7.206  0.4690 -0.0319 -0.2901
  789MOL0     H 6504   2.969   3.847   7.282 -1.9971  0.1795  1.9973
  789MOL0     H 6505   3.221   3.982   7.063 -1.4611  0.1951  0.6243
  789MOL0     H 6506   3.284   4.139   7.131  0.8337 -0.6395 -0.8736
  789MOL0     H 6507   3.368   3.875   7.233 -0.3012 -0.2085  0.3606
  789MOL0     H 6508   3.420   4.028   7.302 -0.9607  2.4867 -0.4875
  789MOL0     H 6509   3.468   3.959   7.006  2.8672  0.8641 -1.3294
  789MOL0     H 6510   3.565   3.889   7.130 -0.4904 -1.9642 -2.0321
  789MOL0     H 6511   3.512   4.192   7.116 -2.3692 -2.0826  2.6749
  789MOL0     H 6512   3.604   4.117   6.986 -1.0941 -1.9402  0.0775
  789MOL0     H 6513   3.897   4.179   7.292  1.6195 -1.1355 -2.2920
  789MOL0     H 6514   3.084   4.227   7.125 -0.9644  1.0380 -2.6508
  789MOL0     H 6515   2.845   4.253   7.024 -1.1998 -2.5021 -2.1566
  790MOL0     O 6516   0.706   3.957   4.764 -0.4933  0.7565 -0.1750
  790MOL0     C 6517   0.642   4.052   4.797  0.5326 -0.5817  1.6740
  790MOL0     O 6518   0.545   4.057   4.897 -0.1418  1.0819 -0.2272
  790MOL0     C 6519   0.475   3.933   4.904  1.0316  0.5921  0.4612
  790MOL0     C 6520   0.410   3.866   4.790  0.0766 -0.1622 -0.5355
  790MOL0     C 6521   0.330   3.746   4.799 -0.2460 -0.4527  0.1260
  790MOL0     C 6522   0.327   3.688   4.925 -0.0076 -0.6295 -0.4021
  790MOL0     O 6523   0.248   3.576   4.938  0.2864  0.0872  0.0404
  790MOL0     C 6524   0.105   3.595   4.913 -1.1386  0.0682 -0.0989
  790MOL0     C 6525   0.032   3.468   4.940  0.7860  0.5398 -0.2371
  790MOL0     C 6526   0.060   3.403   5.075 -0.3714  0.3054  0.2641
  790MOL0     C 6527   0.014   3.494   5.198 -0.4864 -0.7315 -0.6402
  790MOL0     C 6528   0.023   3.424   5.337 -0.4184  0.0179  0.6827
  790MOL0     C 6529  -0.113   3.360   5.372  0.2497 -0.6860 -0.1298
  790MOL0     C 6530  -0.109   3.255   5.478  0.3664 -0.8025  0.3751
  790MOL0     C 6531  -0.253   3.228   5.531 -0.4199  0.1148 -0.1036
  790MOL0     N 6532  -0.243   3.123   5.623  0.0801  0.1355 -0.4046
  790MOL0     C 6533  -0.190   2.994   5.608 -1.3690 -0.0793 -0.2672
  790MOL0     C 6534  -0.192   2.934   5.726 -0.8061 -0.2046 -0.3135
  790MOL0     C 6535  -0.144   2.789   5.748 -0.1508 -0.8834  0.1688
  790MOL0     C 6536  -0.038   2.779   5.858  0.2604 -0.3412  1.4333
  790MOL0     C 6537   0.078   2.680   5.833 -0.1810 -0.3573 -0.4711
  790MOL0     C 6538   0.176   2.653   5.952  0.4166 -1.1869 -0.3206
  790MOL0     O 6539   0.271   2.558   5.904 -0.5257  0.1847  0.4125
  790MOL0     C 6540   0.378   2.510   5.969  0.2252 -0.8279 -0.7047
  790MOL0     C 6541   0.433   2.395   5.915  0.0976 -0.3345 -0.1791
  790MOL0     C 6542   0.537   2.315   5.977  0.3863 -0.9449  0.1791
  790MOL0     C 6543   0.576   2.189   5.905 -0.3733  0.8452  0.6111
  790MOL0     C 6544   0.591   2.361   6.103  0.6198  0.2564  0.0478
  790MOL0     C 6545   0.688   2.284   6.189 -0.3482  0.0724  0.5522
  790MOL0     O 6546   0.759   2.355   6.283 -0.4157  0.5498 -0.2283
  790MOL0     C 6547   0.885   2.322   6.322 -0.8166 -0.8305 -0.2316
  790MOL0     C 6548   0.909   2.300   6.454 -0.2172  0.6111  0.3669
  790MOL0     C 6549   1.041   2.262   6.499  0.7260 -0.4366  0.5131
  790MOL0     C 6550   1.146   2.257   6.408  0.1713 -0.4464 -0.0203
  790MOL0     O 6551   1.270   2.211   6.451 -0.2517 -0.0254 -0.5741
  790MOL0     C 6552   1.377   2.258   6.368  0.3109 -0.0846 -0.3581
  790MOL0     C 6553   1.517   2.241   6.433 -0.6431 -0.7863 -0.5444
  790MOL0     C 6554   1.541   2.092   6.456  0.4201 -0.8122 -1.2414
  790MOL0     C 6555   1.680   2.044   6.490 -0.2526 -0.4687  0.0277
  790MOL0     C 6556   1.734   2.099   6.624 -0.1145 -0.1023  0.4713
  790MOL0     C 6557   1.883   2.110   6.600 -0.4118 -0.1661  0.4519
  790MOL0     C 6558   1.946   2.162   6.726 -0.0098  0.9312 -0.0296
  790MOL0     C 6559   2.078   2.088   6.759  0.2834 -0.1204  0.4377
  790MOL0    Cl 6560   2.201   2.151   6.641  0.1835 -0.1834 -0.3624
  790MOL0     C 6561   1.118   2.282   6.271  0.1735  0.0723 -0.5471
  790MOL0     C 6562   0.994   2.309   6.230  0.4513  0.2409 -0.2303
  790MOL0     O 6563   0.700   2.163   6.175 -0.4145  0.3136  0.3514
  790MOL0     C 6564   0.541   2.480   6.151 -0.6830  0.0504 -0.2474
  790MOL0     C 6565   0.431   2.544   6.094 -1.2285  0.3128  0.1190
  790MOL0     N 6566  -0.246   3.026   5.817 -0.3376 -0.3756  0.1352
  790MOL0     N 6567  -0.281   3.132   5.751 -1.3275 -0.9639  0.3127
  790MOL0     C 6568   0.396   3.734   5.036  0.1954  0.5859  0.9259
  790MOL0     C 6569   0.465   3.861   5.031 -0.0983  1.0124  0.4939
  790MOL0     C 6570   0.658   4.176   4.722 -0.5773  0.0908  0.1559
  790MOL0     C 6571   0.603   4.299   4.772 -1.4127  0.4071  0.5721
  790MOL0     C 6572   0.624   4.417   4.699 -0.1341  0.4796 -0.5017
  790MOL0     C 6573   0.705   4.423   4.587  0.1301  0.6014  0.0559
  790MOL0     O 6574   0.737   4.535   4.508 -0.1558  0.3718 -0.8736
  790MOL0     C 6575   0.674   4.661   4.555  0.2737 -0.1696 -0.6817
  790MOL0     C 6576   0.710   4.759   4.439  0.0390 -1.0402 -0.5385
  790MOL0     C 6577   0.695   4.909   4.480  0.4223 -0.5355  0.5590
  790MOL0     C 6578   0.719   5.000   4.358 -0.4437 -0.2191 -0.3617
  790MOL0     C 6579   0.652   5.125   4.361 -1.2139  0.2085  0.1637
  790MOL0     C 6580   0.572   5.209   4.363  1.2063 -1.2300 -0.1420
  790MOL0     C 6581   0.764   4.305   4.542 -0.2926  0.2963  0.2428
  790MOL0     C 6582   0.744   4.178   4.608  1.0017  0.3050  0.2545
  790MOL0     H 6583   0.406   3.911   4.692 -1.2116 -3.4021 -2.0998
  790MOL0     H 6584   0.278   3.716   4.709 -0.0088 -2.0656  0.4955
  790MOL0     H 6585   0.063   3.684   4.961 -1.8380  0.7594 -1.9182
  790MOL0     H 6586   0.099   3.609   4.805 -0.4371 -0.2287 -0.1817
  790MOL0     H 6587  -0.074   3.479   4.916  0.2617 -3.2554 -0.4229
  790MOL0     H 6588   0.066   3.396   4.864 -0.3301  0.2447 -0.4791
  790MOL0     H 6589  -0.005   3.315   5.081 -2.7096  1.6245 -2.8752
  790MOL0     H 6590   0.165   3.372   5.074 -0.1924  0.9256 -0.3187
  790MOL0     H 6591   0.094   3.568   5.205 -0.3744 -0.8810 -0.3227
  790MOL0     H 6592  -0.083   3.542   5.182  0.1236  0.1475 -1.9215
  790MOL0     H 6593   0.099   3.346   5.327 -0.3280  0.0655  0.9911
  790MOL0     H 6594   0.060   3.497   5.409  2.3377 -0.6353  0.0533
  790MOL0     H 6595  -0.193   3.431   5.397  2.5335  1.1325  2.5778
  790MOL0     H 6596  -0.145   3.304   5.283 -5.7731  2.7887 -0.7518
  790MOL0     H 6597  -0.067   3.166   5.431  1.4171  0.0141 -0.2843
  790MOL0     H 6598  -0.039   3.276   5.559  3.2752 -3.3951 -1.2362
  790MOL0     H 6599  -0.326   3.191   5.458  0.1062 -0.1702 -0.4855
  790MOL0     H 6600  -0.290   3.312   5.590  2.7230  2.3500 -1.1050
  790MOL0     H 6601  -0.150   2.947   5.519  1.3448 -0.3665  1.0088
  790MOL0     H 6602  -0.222   2.719   5.777  1.2855 -1.2093  3.6713
  790MOL0     H 6603  -0.093   2.755   5.657 -1.8320 -0.8064 -0.8604
  790MOL0     H 6604  -0.087   2.744   5.949 -0.5105 -0.0759  1.1308
  790MOL0     H 6605   0.010   2.877   5.864 -0.6329  0.6586 -3.4852
  790MOL0     H 6606   0.145   2.704   5.750  0.8347 -3.1618 -0.5781
  790MOL0     H 6607   0.036   2.579   5.823 -1.9227  0.3721 -0.8168
  790MOL0     H 6608   0.133   2.611   6.043  1.7914 -3.9165 -0.8461
  790MOL0     H 6609   0.226   2.746   5.983  2.0595 -2.4102  0.8632
  790MOL0     H 6610   0.382   2.381   5.820  0.1045  1.2218 -0.4351
  790MOL0     H 6611   0.490   2.127   5.877  1.5696 -4.1080  4.0413
  790MOL0     H 6612   0.625   2.229   5.816 -0.2068 -0.5843  0.0284
  790MOL0     H 6613   0.648   2.127   5.959  1.6366  3.9209  1.7459
  790MOL0     H 6614   0.826   2.315   6.522 -1.1870  0.0994 -0.6680
  790MOL0     H 6615   1.041   2.236   6.604  1.6019 -2.4016  0.0643
  790MOL0     H 6616   1.376   2.203   6.274  2.9178  2.3695 -2.0049
  790MOL0     H 6617   1.371   2.361   6.334  1.8096 -0.3887 -1.6544
  790MOL0     H 6618   1.598   2.263   6.364  0.6397 -2.9943  0.1762
  790MOL0     H 6619   1.520   2.304   6.522  1.7389 -0.3120 -0.9029
  790MOL0     H 6620   1.509   2.037   6.367 -1.3801 -0.0878 -1.0835
  790MOL0     H 6621   1.478   2.058   6.539  1.0087  0.4249 -0.2556
  790MOL0     H 6622   1.675   1.935   6.480 -0.0714 -0.4138 -0.8051
  790MOL0     H 6623   1.742   2.077   6.405  0.2241 -3.9831 -1.1804
  790MOL0     H 6624   1.718   2.025   6.703  0.6941  0.1900  0.9183
  790MOL0     H 6625   1.685   2.196   6.642  2.8266  1.6706 -0.3910
  790MOL0     H 6626   1.925   2.015   6.566 -2.2082 -0.7277 -0.3860
  790MOL0     H 6627   1.905   2.193   6.533 -0.2083 -1.1411 -0.7312
  790MOL0     H 6628   1.872   2.145   6.804 -2.3680  2.3316 -1.8346
  790MOL0     H 6629   1.971   2.269   6.726  0.6702  0.7784 -0.2579
  790MOL0     H 6630   2.074   1.979   6.756  0.3741 -0.2077  2.3455
  790MOL0     H 6631   2.115   2.111   6.859  0.9430 -0.3851  0.2611
  790MOL0     H 6632   1.197   2.293   6.198 -0.1381  0.2834 -0.8550
  790MOL0     H 6633   0.992   2.329   6.123  2.3107  0.2810 -0.2994
  790MOL0     H 6634   0.583   2.527   6.239 -3.0707  0.3565  0.7843
  790MOL0     H 6635   0.376   2.628   6.137 -3.6780 -1.4629  0.6890
  790MOL0     H 6636   0.395   3.675   5.127  1.6099  2.1986  2.0659
  790MOL0     H 6637   0.513   3.892   5.124  0.6115  0.5483  0.2874
  790MOL0     H 6638   0.544   4.300   4.863 -0.7439 -2.7059  1.1607
  790MOL0     H 6639   0.584   4.510   4.740 -2.7042 -0.9401  0.4606
  790MOL0     H 6640   0.567   4.641   4.558  0.8239 -3.6532  0.5828
  790MOL0     H 6641   0.701   4.690   4.657 -3.8935  0.9678  0.2869
  790MOL0     H 6642   0.633   4.739   4.364 -0.7785  2.7295 -0.9076
  790MOL0     H 6643   0.810   4.736   4.404 -0.1883 -1.6560 -0.8042
  790MOL0     H 6644   0.763   4.938   4.560 -1.9664  0.5052  2.2949
  790MOL0     H 6645   0.593   4.928   4.514  1.2820  2.7745  1.6067
  790MOL0     H 6646   0.701   4.957   4.259  1.6558  2.0875 -1.8933
  790MOL0     H 6647   0.827   5.014   4.365 -0.4868 -0.2188  0.3476
  790MOL0     H 6648   0.500   5.287   4.351  2.3906  0.5001  2.9059
  790MOL0     H 6649   0.837   4.293   4.463  0.9887 -0.2210  1.4514
  790MOL0     H 6650   0.805   4.096   4.572 -2.5138 -2.2575 -0.2926
  791MOL0     O 6651   1.745   3.619   9.996  0.5810  0.0348  0.2843
  791MOL0     C 6652   1.800   3.596  10.107  0.6926  0.0704 -0.1485
  791MOL0     O 6653   1.743   3.614  10.233 -0.4982 -0.5290  0.0605
  791MOL0     C 6654   1.615   3.659  10.259  0.1000  1.5103 -0.1136
  791MOL0     C 6655   1.511   3.610  10.184 -1.2087  0.2110  0.5244
  791MOL0     C 6656   1.379   3.653  10.205 -0.0158  0.0452  0.2266
  791MOL0     C 6657   1.357   3.751  10.302  0.0757  0.0534  0.1037
  791MOL0     O 6658   1.234   3.806  10.334  0.4619  0.9119 -0.0494
  791MOL0     C 6659   1.113   3.760  10.272  0.1141 -0.3444  1.0720
  791MOL0     C 6660   1.066   3.621  10.333  0.0721 -0.7115  0.0594
  791MOL0     C 6661   0.913   3.616  10.309 -0.3240 -0.5324  0.0738
  791MOL0     C 6662   0.862   3.475  10.355  0.6383 -0.0987 -0.0162
  791MOL0     C 6663   0.713   3.448  10.337 -0.3269 -0.8000  0.6207
  791MOL0     C 6664   0.660   3.450  10.193  0.9354  0.2282  0.2685
  791MOL0     C 6665   0.517   3.423  10.211  1.0607 -0.1618  0.6099
  791MOL0     C 6666   0.451   3.426  10.074 -0.1976  0.4280  0.0157
  791MOL0     N 6667   0.308   3.451  10.080  0.2148 -0.6829 -0.2626
  791MOL0     C 6668   0.221   3.366  10.148  0.1495  0.5787 -0.5928
  791MOL0     C 6669   0.097   3.405  10.110  0.5326 -0.1591  0.1329
  791MOL0     C 6670  -0.033   3.330  10.133  0.2168 -0.6106  0.5981
  791MOL0     C 6671  -0.154   3.422  10.104  0.8683  0.1319 -0.8967
  791MOL0     C 6672  -0.278   3.335  10.130  0.7193 -0.3615  1.4141
  791MOL0     C 6673  -0.372   3.395  10.240 -0.0647 -0.8166 -0.2082
  791MOL0     O 6674  -0.469   3.297  10.254  0.7855  0.2458  0.4768
  791MOL0     C 6675  -0.592   3.318  10.325 -0.9900  0.4186  0.3285
  791MOL0     C 6676  -0.682   3.213  10.344  0.1840 -0.4226 -0.0316
  791MOL0     C 6677  -0.800   3.238  10.418  0.2759 -0.5354  1.0733
  791MOL0     C 6678  -0.885   3.113  10.446 -1.0487 -0.7523  0.0821
  791MOL0     C 6679  -0.834   3.366  10.468 -1.1178 -0.5247 -0.4027
  791MOL0     C 6680  -0.944   3.396  10.549  0.5522  0.1586  0.4974
  791MOL0     O 6681  -0.938   3.513  10.627 -0.2187  0.5652 -0.7282
  791MOL0     C 6682  -1.001   3.500  10.751  0.2280  0.1033 -1.1199
  791MOL0     C 6683  -1.044   3.376  10.815 -0.2552  0.3880  0.4709
  791MOL0     C 6684  -1.085   3.365  10.946 -0.0575 -0.4175  0.1390
  791MOL0     C 6685  -1.082   3.488  11.017 -0.9960  0.0786 -0.3797
  791MOL0     O 6686  -1.129   3.488  11.146 -0.0162 -0.3713  0.0632
  791MOL0     C 6687  -1.061   3.394  11.236  0.0044 -0.9396  0.2162
  791MOL0     C 6688  -0.914   3.438  11.252 -1.0004  0.0293  0.7303
  791MOL0     C 6689  -0.829   3.341  11.326 -1.1244 -0.2540  0.3016
  791MOL0     C 6690  -0.700   3.408  11.370 -0.5307 -0.2324  0.0546
  791MOL0     C 6691  -0.609   3.324  11.457 -1.2981 -0.0509 -0.1020
  791MOL0     C 6692  -0.498   3.411  11.531  0.3407  0.3879 -0.7860
  791MOL0     C 6693  -0.378   3.318  11.553 -0.0559 -0.0616  0.6688
  791MOL0     C 6694  -0.395   3.217  11.662 -0.0390 -0.4557 -0.8650
  791MOL0    Cl 6695  -0.423   3.070  11.567 -0.4579 -0.3605  0.1789
  791MOL0     C 6696  -1.048   3.610  10.963  0.1967 -0.4562 -0.5265
  791MOL0     C 6697  -1.008   3.622  10.828 -0.3887  0.5254 -0.5673
  791MOL0     O 6698  -1.044   3.325  10.530  0.0064 -0.8175 -0.0824
  791MOL0     C 6699  -0.742   3.473  10.438  0.4028 -0.2601 -0.3582
  791MOL0     C 6700  -0.634   3.447  10.366 -0.0631 -0.2556  0.8944
  791MOL0     N 6701   0.108   3.502  10.016 -0.4549  0.6001  0.2433
  791MOL0     N 6702   0.233   3.523   9.995 -1.0188 -1.0828  0.5590
  791MOL0     C 6703   1.464   3.799  10.374 -0.7116  0.9334 -0.0782
  791MOL0     C 6704   1.593   3.747  10.364 -0.2210  0.6308  0.2456
  791MOL0     C 6705   1.946   3.555  10.105  0.4809 -0.4405 -0.1760
  791MOL0     C 6706   2.026   3.543  10.220  0.1696 -0.5672 -0.1697
  791MOL0     C 6707   2.162   3.510  10.210  0.4504 -0.2984 -0.4979
  791MOL0     C 6708   2.214   3.467  10.089 -0.1879 -0.1943  0.8515
  791MOL0     O 6709   2.346   3.437  10.066  0.2812 -0.1266  0.8565
  791MOL0     C 6710   2.440   3.537  10.090 -0.2762 -1.8043 -0.1600
  791MOL0     C 6711   2.574   3.487  10.041  0.5132  0.3097  0.0913
  791MOL0     C 6712   2.631   3.393  10.138  0.0685 -0.1817  0.2750
  791MOL0     C 6713   2.771   3.351  10.098  0.1732  0.0992 -0.3455
  791MOL0     C 6714   2.831   3.257  10.196 -0.3124 -0.0816 -1.1160
  791MOL0     C 6715   2.868   3.181  10.281 -0.6861  0.5859 -0.5604
  791MOL0     C 6716   2.137   3.480   9.979 -0.1180 -0.3000  0.1498
  791MOL0     C 6717   2.004   3.518   9.980  0.1318  0.2878  0.3346
  791MOL0     H 6718   1.524   3.533  10.108 -1.5224  0.8730 -0.2109
  791MOL0     H 6719   1.302   3.605  10.145  0.4814  0.2836 -0.6240
  791MOL0     H 6720   1.031   3.830  10.293 -0.2868  0.0159 -1.4263
  791MOL0     H 6721   1.117   3.746  10.164 -2.4345  0.4794  0.8144
  791MOL0     H 6722   1.118   3.539  10.284  0.3148 -0.9204  0.6598
  791MOL0     H 6723   1.089   3.605  10.439  3.4961 -0.6252 -0.5610
  791MOL0     H 6724   0.855   3.693  10.360 -0.5773 -1.1361  0.7046
  791MOL0     H 6725   0.896   3.627  10.201 -0.5154  0.0405  0.1609
  791MOL0     H 6726   0.913   3.403  10.290 -3.1158 -3.1770  0.0763
  791MOL0     H 6727   0.895   3.440  10.453  2.1023 -2.0864 -1.1311
  791MOL0     H 6728   0.695   3.347  10.375  0.1875 -0.9363  0.5189
  791MOL0     H 6729   0.647   3.513  10.395 -0.6081  0.6117 -1.2022
  791MOL0     H 6730   0.665   3.553  10.155  1.5575 -0.1106 -0.5874
  791MOL0     H 6731   0.712   3.382  10.125  2.6701  1.3126  0.4239
  791MOL0     H 6732   0.504   3.320  10.245  0.0526 -0.9628 -1.9406
  791MOL0     H 6733   0.463   3.497  10.272 -0.6025  1.1292 -2.2132
  791MOL0     H 6734   0.476   3.330  10.028 -2.0031 -1.0742  1.9580
  791MOL0     H 6735   0.493   3.508  10.015  0.1482 -0.9575 -1.7510
  791MOL0     H 6736   0.253   3.286  10.214 -0.9979  1.3381  0.9380
  791MOL0     H 6737  -0.041   3.238  10.074 -1.4673  0.0343 -0.2544
  791MOL0     H 6738  -0.026   3.310  10.240  0.7239 -0.9150  0.5092
  791MOL0     H 6739  -0.154   3.452   9.999 -0.4679 -1.6414 -1.4635
  791MOL0     H 6740  -0.153   3.512  10.165 -1.0048 -0.3647 -0.0470
  791MOL0     H 6741  -0.254   3.232  10.157  1.1202 -1.2670 -1.9398
  791MOL0     H 6742  -0.339   3.328  10.040  2.2109  0.8042  0.2521
  791MOL0     H 6743  -0.433   3.478  10.202 -2.4252 -2.2353  0.3063
  791MOL0     H 6744  -0.328   3.423  10.336  1.7239 -0.4751 -1.0926
  791MOL0     H 6745  -0.659   3.114  10.306  1.9259 -1.0104  2.3266
  791MOL0     H 6746  -0.826   3.022  10.430 -1.1483 -0.7395 -0.3629
  791MOL0     H 6747  -0.919   3.120  10.550 -0.9344  1.1449  0.0299
  791MOL0     H 6748  -0.970   3.104  10.377  0.1839 -4.4447 -1.2054
  791MOL0     H 6749  -1.035   3.279  10.768 -0.0145  0.9974 -0.8008
  791MOL0     H 6750  -1.103   3.274  11.002  0.4094 -1.5730 -1.5475
  791MOL0     H 6751  -1.108   3.409  11.334 -0.4043 -0.6279 -0.0214
  791MOL0     H 6752  -1.071   3.288  11.214 -0.0696 -2.0530  4.7537
  791MOL0     H 6753  -0.864   3.454  11.157 -1.0603 -0.3694  0.6293
  791MOL0     H 6754  -0.913   3.530  11.312  3.0563  1.1941 -0.8147
  791MOL0     H 6755  -0.808   3.252  11.266 -4.4380 -1.2217  0.3903
  791MOL0     H 6756  -0.889   3.320  11.415 -0.3136  1.1732  1.2247
  791MOL0     H 6757  -0.643   3.440  11.282 -0.1974  0.2061  0.4240
  791MOL0     H 6758  -0.727   3.488  11.440  1.5065 -2.7132  4.0151
  791MOL0     H 6759  -0.562   3.236  11.413 -2.2029 -1.9715  2.5564
  791MOL0     H 6760  -0.666   3.282  11.540 -2.3392  1.4258 -0.0279
  791MOL0     H 6761  -0.477   3.489  11.458 -4.7187  0.7905 -2.1635
  791MOL0     H 6762  -0.532   3.455  11.626 -1.7824  0.7655 -1.6561
  791MOL0     H 6763  -0.293   3.379  11.586  0.2288 -0.6783  1.1139
  791MOL0     H 6764  -0.346   3.286  11.454 -2.3801 -3.0949  0.7451
  791MOL0     H 6765  -0.476   3.238  11.732  1.0744  1.1689  0.0027
  791MOL0     H 6766  -0.310   3.204  11.730 -0.4485 -1.0954 -0.4769
  791MOL0     H 6767  -1.047   3.686  11.040  1.5846 -0.6319 -0.3506
  791MOL0     H 6768  -0.967   3.713  10.785  2.3446  0.0353  0.7850
  791MOL0     H 6769  -0.765   3.574  10.471 -0.5800 -1.2313  2.1771
  791MOL0     H 6770  -0.579   3.539  10.351  0.1613 -0.4140  0.7450
  791MOL0     H 6771   1.446   3.872  10.453  1.7760 -0.1114  1.6030
  791MOL0     H 6772   1.674   3.796  10.416 -1.7196  2.4082  1.0246
  791MOL0     H 6773   1.975   3.577  10.310  0.5248 -0.7508  0.1061
  791MOL0     H 6774   2.212   3.504  10.307 -2.3757 -2.1530  0.9892
  791MOL0     H 6775   2.424   3.623  10.023  0.0925 -0.0658  1.9008
  791MOL0     H 6776   2.448   3.569  10.194 -4.5118  1.7724 -0.5979
  791MOL0     H 6777   2.643   3.572  10.034  0.6446  0.3730  1.6261
  791MOL0     H 6778   2.566   3.452   9.938  1.4178  2.9528 -0.9446
  791MOL0     H 6779   2.562   3.309  10.128 -0.1538  0.0583 -0.2078
  791MOL0     H 6780   2.619   3.440  10.237 -1.2877  1.5018 -0.6374
  791MOL0     H 6781   2.834   3.439  10.083 -0.7180  0.6738 -0.8479
  791MOL0     H 6782   2.770   3.305   9.999 -1.2984  2.8085 -1.6958
  791MOL0     H 6783   2.914   3.121  10.357 -4.2357 -2.4305 -0.5537
  791MOL0     H 6784   2.195   3.462   9.889  1.5795 -0.2974  1.1946
  791MOL0     H 6785   1.955   3.523   9.883 -2.5087 -2.7754  1.3145
  792MOL0     O 6786   1.707   9.914   8.219  0.7342  0.2675  0.4118
  792MOL0     C 6787   1.735   9.845   8.124 -0.1412  0.3037  0.6668
  792MOL0     O 6788   1.661   9.846   8.005  1.0447 -0.0128  0.1992
  792MOL0     C 6789   1.553   9.923   7.981  0.0612  0.1882 -0.0664
  792MOL0     C 6790   1.460   9.954   8.084 -0.4230  0.4501 -0.3103
  792MOL0     C 6791   1.355  10.034   8.047  0.1066  0.6289 -0.3834
  792MOL0     C 6792   1.330  10.089   7.919  0.0388 -0.6852 -0.0835
  792MOL0     O 6793   1.226  10.178   7.908 -0.2478  0.1544  0.0203
  792MOL0     C 6794   1.215  10.232   7.776  0.1824 -0.1590  0.8669
  792MOL0     C 6795   1.067  10.286   7.763 -0.6970 -0.5731 -0.2078
  792MOL0     C 6796   0.981  10.171   7.707 -0.3898 -0.1236  0.0062
  792MOL0     C 6797   0.834  10.193   7.738  0.7106 -0.6021  0.7429
  792MOL0     C 6798   0.742  10.087   7.664 -0.3521  0.1310 -0.5779
  792MOL0     C 6799   0.595  10.100   7.705  0.0187 -0.4871  0.3226
  792MOL0     C 6800   0.509  10.011   7.607 -0.1202 -0.1660  0.2218
  792MOL0     C 6801   0.471  10.095   7.482  0.6975  0.6138 -0.2857
  792MOL0     N 6802   0.351  10.183   7.508  0.3416  0.0618 -0.0913
  792MOL0     C 6803   0.230  10.176   7.442  0.5544 -0.0087  0.8748
  792MOL0     C 6804   0.159  10.286   7.485  0.0124 -0.5944 -1.2201
  792MOL0     C 6805   0.018  10.304   7.445 -0.4684 -1.0830 -0.1876
  792MOL0     C 6806  -0.065  10.220   7.542 -0.0679  0.3015  0.0205
  792MOL0     C 6807  -0.216  10.251   7.537 -0.0213 -0.6819 -0.4621
  792MOL0     C 6808  -0.290  10.162   7.647  0.1878  0.1746 -0.5440
  792MOL0     O 6809  -0.261  10.026   7.612  0.2250 -0.3214 -0.6961
  792MOL0     C 6810  -0.350   9.930   7.641  0.0182 -0.2246  0.0200
  792MOL0     C 6811  -0.452   9.940   7.740 -0.1389 -0.5960  0.3074
  792MOL0     C 6812  -0.532   9.832   7.768  1.2252  1.0299 -0.2210
  792MOL0     C 6813  -0.630   9.849   7.884 -0.3799  0.5223  0.0141
  792MOL0     C 6814  -0.523   9.718   7.691 -1.0635 -0.0671  0.3827
  792MOL0     C 6815  -0.608   9.595   7.700 -0.7599  0.3048 -0.2345
  792MOL0     O 6816  -0.550   9.489   7.652 -0.1619 -0.0843 -0.1688
  792MOL0     C 6817  -0.593   9.365   7.685  0.2196  0.3300 -0.0151
  792MOL0     C 6818  -0.589   9.270   7.586 -0.4262 -0.1042 -0.8908
  792MOL0     C 6819  -0.621   9.139   7.624  0.5546 -0.0706  0.2548
  792MOL0     C 6820  -0.671   9.103   7.749  0.7878 -0.6486  0.4091
  792MOL0     O 6821  -0.702   8.977   7.787  0.7318  0.6154  0.1187
  792MOL0     C 6822  -0.634   8.940   7.914  0.3087 -0.2434 -0.0292
  792MOL0     C 6823  -0.600   8.791   7.916  0.3524 -0.1837  0.7606
  792MOL0     C 6824  -0.449   8.770   7.887  0.3788  0.2382 -0.4076
  792MOL0     C 6825  -0.402   8.801   7.743 -0.6751  0.3902  0.1623
  792MOL0     C 6826  -0.251   8.783   7.734 -0.8197  0.0150 -0.0588
  792MOL0     C 6827  -0.208   8.802   7.585 -0.1857 -0.0510  0.1773
  792MOL0     C 6828  -0.055   8.788   7.575  0.0169  0.3062 -0.4097
  792MOL0     C 6829  -0.016   8.836   7.438 -0.5263  0.0237  0.4835
  792MOL0    Cl 6830  -0.092   8.733   7.306  0.1385 -0.2505 -0.3269
  792MOL0     C 6831  -0.688   9.209   7.839 -0.4512  1.1330 -0.0099
  792MOL0     C 6832  -0.633   9.333   7.815  1.4097  0.3115 -0.0547
  792MOL0     O 6833  -0.716   9.603   7.759  0.3084 -0.2851 -0.2773
  792MOL0     C 6834  -0.410   9.709   7.605  0.3864  0.2604  0.2541
  792MOL0     C 6835  -0.327   9.809   7.579 -0.5868  0.3459  0.5641
  792MOL0     N 6836   0.247  10.362   7.572  0.1549 -0.1911  0.1411
  792MOL0     N 6837   0.358  10.300   7.575 -0.5839 -0.0830  0.0426
  792MOL0     C 6838   1.422  10.052   7.821  0.3807 -0.7081  0.7638
  792MOL0     C 6839   1.536   9.968   7.853 -0.4265  0.3706  0.5728
  792MOL0     C 6840   1.857   9.763   8.143  0.3317 -0.5200 -0.1378
  792MOL0     C 6841   1.882   9.639   8.077 -0.3065  0.5513 -0.5869
  792MOL0     C 6842   2.010   9.580   8.099 -0.3729  1.1488  0.2667
  792MOL0     C 6843   2.104   9.626   8.195 -0.1427 -0.9801 -1.0146
  792MOL0     O 6844   2.225   9.570   8.219  0.4448 -0.6624 -0.3814
  792MOL0     C 6845   2.250   9.439   8.167 -0.1343 -0.4369  0.4216
  792MOL0     C 6846   2.397   9.387   8.167  0.2592 -0.1585  0.6642
  792MOL0     C 6847   2.453   9.378   8.304  0.2326  0.1771 -0.5951
  792MOL0     C 6848   2.603   9.387   8.300  0.8342 -0.0273 -0.5908
  792MOL0     C 6849   2.660   9.258   8.261 -0.2841  0.5979  0.1920
  792MOL0     C 6850   2.684   9.143   8.248  0.4143  0.6501  0.0218
  792MOL0     C 6851   2.079   9.743   8.262  0.1432 -0.6228  0.2736
  792MOL0     C 6852   1.957   9.813   8.232 -0.3133 -0.6373  0.0176
  792MOL0     H 6853   1.472   9.918   8.185  0.0409 -1.2635 -0.9423
  792MOL0     H 6854   1.265  10.047   8.106 -0.5663  0.6297 -1.3885
  792MOL0     H 6855   1.289  10.312   7.774 -0.8276  0.8723  2.5831
  792MOL0     H 6856   1.222  10.157   7.697 -1.6576 -2.6345  2.8715
  792MOL0     H 6857   1.038  10.314   7.864  1.1029 -0.7589  0.3939
  792MOL0     H 6858   1.056  10.382   7.712 -0.3313  0.3706  1.4150
  792MOL0     H 6859   1.010  10.153   7.603  2.1795 -0.6581  0.7540
  792MOL0     H 6860   1.001  10.076   7.757  0.9668 -0.1561 -0.5753
  792MOL0     H 6861   0.816  10.197   7.846 -2.0801 -0.5009  0.3474
  792MOL0     H 6862   0.790  10.289   7.707  1.3002 -0.7829 -0.7360
  792MOL0     H 6863   0.760  10.116   7.560  1.8583 -0.8617 -0.5298
  792MOL0     H 6864   0.783   9.988   7.687  0.0556  0.5789  0.7537
  792MOL0     H 6865   0.572  10.070   7.807  1.7129 -0.8680  0.6204
  792MOL0     H 6866   0.567  10.205   7.690  1.2654 -0.0758  0.7449
  792MOL0     H 6867   0.564   9.924   7.571 -1.4082 -0.5921 -0.8002
  792MOL0     H 6868   0.417   9.971   7.651  0.9914 -0.4030  2.4819
  792MOL0     H 6869   0.436  10.029   7.402  2.2855  0.4112 -0.8562
  792MOL0     H 6870   0.560  10.147   7.446  2.6006 -0.5011  2.4686
  792MOL0     H 6871   0.208  10.115   7.355  0.9534  0.5416  0.3814
  792MOL0     H 6872  -0.004  10.411   7.439 -0.4386 -1.0955 -0.5643
  792MOL0     H 6873   0.010  10.256   7.346 -1.5949  0.1520 -0.7183
  792MOL0     H 6874  -0.040  10.257   7.642  0.2186  2.0261 -0.6497
  792MOL0     H 6875  -0.049  10.117   7.511 -0.2298 -0.2873  1.7991
  792MOL0     H 6876  -0.259  10.236   7.438  0.8042  1.8900 -1.2813
  792MOL0     H 6877  -0.231  10.355   7.569 -1.7871 -0.6424 -1.3121
  792MOL0     H 6878  -0.397  10.182   7.637  0.1932 -0.0221 -1.0381
  792MOL0     H 6879  -0.263  10.200   7.746  1.2646  0.0239 -0.7640
  792MOL0     H 6880  -0.471  10.033   7.793  3.5137 -0.4129  1.6159
  792MOL0     H 6881  -0.607   9.764   7.949 -0.5377 -0.8754 -1.6750
  792MOL0     H 6882  -0.608   9.941   7.938  2.3647 -1.8339  3.3554
  792MOL0     H 6883  -0.735   9.841   7.856  0.1661  0.4224 -2.1953
  792MOL0     H 6884  -0.566   9.286   7.481 -3.5734 -0.7365 -1.7654
  792MOL0     H 6885  -0.607   9.065   7.547  0.2890  0.6016 -0.4509
  792MOL0     H 6886  -0.542   8.996   7.934  0.4270 -1.0743  1.9531
  792MOL0     H 6887  -0.692   8.957   8.005 -0.7935 -1.5131 -0.4684
  792MOL0     H 6888  -0.633   8.748   8.011 -3.0343  1.8448  0.6905
  792MOL0     H 6889  -0.661   8.740   7.840  1.9529  0.7827 -1.2651
  792MOL0     H 6890  -0.415   8.672   7.920 -1.9935 -0.4433  0.1903
  792MOL0     H 6891  -0.394   8.835   7.956  2.1600  0.7778 -2.2171
  792MOL0     H 6892  -0.458   8.742   7.670  0.5980 -0.3883 -0.2220
  792MOL0     H 6893  -0.427   8.905   7.719  0.4229  0.2418 -1.8519
  792MOL0     H 6894  -0.220   8.687   7.776  0.4699 -0.3511 -1.7473
  792MOL0     H 6895  -0.195   8.851   7.798 -1.6348  1.4263 -0.7973
  792MOL0     H 6896  -0.255   8.726   7.523 -2.5627  0.7901  0.8402
  792MOL0     H 6897  -0.233   8.906   7.563 -0.7358  0.0692  1.3319
  792MOL0     H 6898  -0.021   8.687   7.597 -2.5580 -1.6870 -4.3770
  792MOL0     H 6899  -0.014   8.851   7.655  0.1044  0.2650 -0.4208
  792MOL0     H 6900   0.092   8.823   7.430 -0.3097  0.8795  1.6914
  792MOL0     H 6901  -0.048   8.940   7.426 -0.5446 -0.2387 -2.4139
  792MOL0     H 6902  -0.728   9.188   7.938  0.8714  0.1828  0.3526
  792MOL0     H 6903  -0.630   9.409   7.892  0.0984  0.1616  0.1622
  792MOL0     H 6904  -0.402   9.620   7.543 -0.8069  0.7380 -0.6060
  792MOL0     H 6905  -0.244   9.814   7.510 -2.3682  1.1061 -1.6399
  792MOL0     H 6906   1.430  10.088   7.720  3.1384 -4.1724 -0.4459
  792MOL0     H 6907   1.604   9.934   7.776  0.2242  2.8184 -0.0497
  792MOL0     H 6908   1.812   9.599   8.004  1.0930 -1.2789 -0.9728
  792MOL0     H 6909   2.019   9.490   8.039 -1.7442  0.7674  0.6068
  792MOL0     H 6910   2.190   9.361   8.215  0.6150 -1.5732 -0.4007
  792MOL0     H 6911   2.226   9.435   8.060 -1.2737  0.4476  0.6322
  792MOL0     H 6912   2.453   9.465   8.114 -1.6662 -1.0025 -2.9102
  792MOL0     H 6913   2.414   9.297   8.107  2.5304  1.2736 -1.0187
  792MOL0     H 6914   2.416   9.298   8.368  0.9902  1.1252  1.0856
  792MOL0     H 6915   2.417   9.469   8.353 -1.2206 -0.5378 -0.3100
  792MOL0     H 6916   2.633   9.414   8.401 -1.8530 -0.7376  0.4894
  792MOL0     H 6917   2.639   9.460   8.227 -0.0541  1.7647  0.6956
  792MOL0     H 6918   2.710   9.039   8.245 -0.5002  0.4294 -1.6651
  792MOL0     H 6919   2.144   9.784   8.339  1.3489 -0.6045 -0.7142
  792MOL0     H 6920   1.928   9.904   8.282 -0.9408 -1.2428  0.7903
  793MOL0     O 6921   1.814   3.966   1.914 -0.1531 -0.3065  0.4421
  793MOL0     C 6922   1.896   3.874   1.912  0.1040  0.4452 -0.4868
  793MOL0     O 6923   1.889   3.761   1.989  0.4577  0.3070  0.5339
  793MOL0     C 6924   1.803   3.735   2.093 -0.3266  0.1074 -0.1972
  793MOL0     C 6925   1.792   3.606   2.160  0.8333  0.5562  0.4468
  793MOL0     C 6926   1.732   3.585   2.284  0.5799  0.7945  0.9109
  793MOL0     C 6927   1.647   3.684   2.334 -0.1365  1.1996 -0.0872
  793MOL0     O 6928   1.573   3.671   2.453 -0.6386  0.1391  0.0963
  793MOL0     C 6929   1.503   3.551   2.458  0.0085 -0.0620  0.3836
  793MOL0     C 6930   1.424   3.556   2.583 -0.0651  0.1238  0.4252
  793MOL0     C 6931   1.290   3.636   2.565 -1.1940 -0.3394  0.3789
  793MOL0     C 6932   1.208   3.612   2.691 -0.4408  0.0659  0.6801
  793MOL0     C 6933   1.092   3.704   2.710  0.3045 -0.0092  0.1333
  793MOL0     C 6934   1.022   3.671   2.845  0.2421  0.1229 -0.0647
  793MOL0     C 6935   0.886   3.734   2.853  0.1969 -0.3515  0.5174
  793MOL0     C 6936   0.836   3.735   3.004 -0.5356  0.3374 -0.3253
  793MOL0     N 6937   0.735   3.824   3.039  0.5839 -0.4316 -0.0905
  793MOL0     C 6938   0.605   3.812   2.989 -0.0553  0.2277  0.1173
  793MOL0     C 6939   0.535   3.903   3.059  0.4654  0.0133  0.1284
  793MOL0     C 6940   0.399   3.964   3.041  0.5612  1.1872  0.1936
  793MOL0     C 6941   0.304   3.864   3.111  0.2536 -0.3552  0.4014
  793MOL0     C 6942   0.169   3.921   3.125  0.1632 -0.7248 -0.9188
  793MOL0     C 6943   0.059   3.818   3.175 -1.1719  0.0297  1.2856
  793MOL0     O 6944  -0.063   3.885   3.169  0.5988  0.7844  0.0813
  793MOL0     C 6945  -0.178   3.824   3.145 -0.3941 -1.2471  0.3615
  793MOL0     C 6946  -0.284   3.917   3.121 -0.4458 -0.0535  0.4326
  793MOL0     C 6947  -0.407   3.876   3.068  1.3140 -0.1657 -0.2930
  793MOL0     C 6948  -0.507   3.984   3.034 -0.0567 -0.1699  0.6661
  793MOL0     C 6949  -0.421   3.740   3.045 -0.9918  0.6367 -0.4942
  793MOL0     C 6950  -0.543   3.680   2.995 -0.4091 -1.0480 -0.4007
  793MOL0     O 6951  -0.663   3.721   3.048  0.1272 -0.1841 -0.1899
  793MOL0     C 6952  -0.779   3.665   3.008  0.2383 -0.0431 -0.2385
  793MOL0     C 6953  -0.895   3.744   3.005 -0.5250  0.0705 -0.4453
  793MOL0     C 6954  -1.026   3.689   2.977 -0.1393 -0.4620  0.1651
  793MOL0     C 6955  -1.035   3.556   2.941  0.5696 -0.8711  0.1043
  793MOL0     O 6956  -1.160   3.513   2.917 -0.3537  0.0612 -0.8434
  793MOL0     C 6957  -1.180   3.386   2.865 -0.2499  0.3776  0.2340
  793MOL0     C 6958  -1.333   3.377   2.840  0.0956 -0.1045  0.5250
  793MOL0     C 6959  -1.396   3.466   2.729 -0.0619 -0.3829  1.1030
  793MOL0     C 6960  -1.545   3.427   2.703  0.7668 -0.3244 -0.2108
  793MOL0     C 6961  -1.618   3.551   2.636  1.0485  0.2708 -0.1823
  793MOL0     C 6962  -1.750   3.502   2.570 -0.3036 -0.2800 -0.1703
  793MOL0     C 6963  -1.792   3.613   2.473  0.3189 -0.1991 -0.6284
  793MOL0     C 6964  -1.919   3.565   2.407 -0.0697 -1.1537  0.1178
  793MOL0    Cl 6965  -1.874   3.430   2.299  0.1025  0.1704  0.4092
  793MOL0     C 6966  -0.919   3.471   2.941  0.4694 -0.4781  0.2982
  793MOL0     C 6967  -0.790   3.524   2.976  0.0824 -0.2509  0.2893
  793MOL0     O 6968  -0.529   3.602   2.903 -0.3109 -0.0935 -1.1115
  793MOL0     C 6969  -0.316   3.649   3.073  1.0043  0.0287  0.3812
  793MOL0     C 6970  -0.199   3.690   3.122 -1.1161 -0.3191 -0.1661
  793MOL0     N 6971   0.606   3.945   3.165 -0.2624  0.7781  0.1775
  793MOL0     N 6972   0.723   3.884   3.156 -0.3931 -0.2769 -0.2088
  793MOL0     C 6973   1.643   3.803   2.271  0.2490  0.2137  0.8613
  793MOL0     C 6974   1.724   3.832   2.153  0.0336  0.3823  0.3305
  793MOL0     C 6975   2.021   3.888   1.837 -0.1737 -0.7108  0.5585
  793MOL0     C 6976   2.133   3.802   1.858 -0.6477  0.4372 -0.5268
  793MOL0     C 6977   2.250   3.818   1.787 -0.1792 -0.0053  0.0883
  793MOL0     C 6978   2.265   3.921   1.682 -1.0025 -0.2090 -0.2543
  793MOL0     O 6979   2.385   3.947   1.622  0.2631  0.0496  0.1512
  793MOL0     C 6980   2.440   3.841   1.540  0.5162  0.0017 -0.7578
  793MOL0     C 6981   2.554   3.903   1.476  1.1946 -0.2899  0.0197
  793MOL0     C 6982   2.616   3.815   1.361  0.1948 -0.3148 -0.6446
  793MOL0     C 6983   2.737   3.901   1.308  0.8222 -0.1249 -0.2177
  793MOL0     C 6984   2.674   3.999   1.218 -1.3958  0.2206 -0.6245
  793MOL0     C 6985   2.623   4.098   1.172  0.2782  0.4523  0.5116
  793MOL0     C 6986   2.155   3.997   1.657 -0.0531  0.2661 -0.4673
  793MOL0     C 6987   2.033   3.986   1.731  0.0963 -1.0430  0.0005
  793MOL0     H 6988   1.850   3.527   2.114 -0.6909 -0.6730  0.5527
  793MOL0     H 6989   1.740   3.485   2.325 -2.3424 -0.5096 -1.3435
  793MOL0     H 6990   1.449   3.523   2.367  3.3982 -0.4175 -1.7000
  793MOL0     H 6991   1.575   3.469   2.466  1.9482  1.5866  0.4716
  793MOL0     H 6992   1.389   3.455   2.606 -0.6508  0.1557 -0.2637
  793MOL0     H 6993   1.476   3.596   2.670  0.4497 -0.7658  0.5311
  793MOL0     H 6994   1.317   3.741   2.554  0.7893 -1.0437 -2.8253
  793MOL0     H 6995   1.234   3.615   2.474 -0.8698 -2.0264  0.5405
  793MOL0     H 6996   1.172   3.508   2.694 -1.1586  0.2121 -1.3208
  793MOL0     H 6997   1.269   3.631   2.780 -0.0484  0.6951  0.2837
  793MOL0     H 6998   1.133   3.804   2.718 -1.3735  1.0166 -2.5712
  793MOL0     H 6999   1.024   3.686   2.626  2.4610 -1.8132 -1.3531
  793MOL0     H 7000   1.007   3.563   2.847 -1.8805  0.3783  0.7784
  793MOL0     H 7001   1.089   3.695   2.928 -1.0396 -0.8919  1.3036
  793MOL0     H 7002   0.897   3.838   2.819 -0.8147 -0.9896 -2.0439
  793MOL0     H 7003   0.824   3.678   2.782 -2.2096  0.1709  2.0726
  793MOL0     H 7004   0.925   3.762   3.062 -0.4369  1.6263 -1.0317
  793MOL0     H 7005   0.794   3.641   3.041  2.1766 -1.3021 -1.1448
  793MOL0     H 7006   0.557   3.759   2.908 -2.3741  1.6540  0.4617
  793MOL0     H 7007   0.374   4.062   3.082 -2.9414  0.4876  0.0229
  793MOL0     H 7008   0.369   3.972   2.936  3.2867  0.6382 -0.7153
  793MOL0     H 7009   0.339   3.840   3.211  0.8322  1.1292  0.5829
  793MOL0     H 7010   0.302   3.777   3.045  2.7473 -0.2415  0.0809
  793MOL0     H 7011   0.132   3.949   3.025  2.0037  0.0632 -1.4206
  793MOL0     H 7012   0.192   4.009   3.186 -0.9479  0.8561 -2.6400
  793MOL0     H 7013   0.072   3.785   3.278 -0.6270  0.4540  1.3564
  793MOL0     H 7014   0.053   3.735   3.104 -1.4699  0.0686  1.2633
  793MOL0     H 7015  -0.251   4.021   3.128 -2.0155  0.4080  1.2738
  793MOL0     H 7016  -0.456   4.080   3.027 -3.4468  1.6582 -3.1654
  793MOL0     H 7017  -0.557   3.961   2.940  1.4301  1.7026 -0.6399
  793MOL0     H 7018  -0.580   3.996   3.115 -1.4222 -3.1195  0.0038
  793MOL0     H 7019  -0.883   3.850   3.025  1.2309 -0.3812  1.2217
  793MOL0     H 7020  -1.103   3.763   2.955  1.1650  0.6690 -0.7882
  793MOL0     H 7021  -1.138   3.377   2.765 -1.1127 -1.5862 -0.0010
  793MOL0     H 7022  -1.151   3.306   2.934 -2.3303 -0.7269 -0.0914
  793MOL0     H 7023  -1.366   3.275   2.815 -0.2709  0.5591 -1.9763
  793MOL0     H 7024  -1.380   3.395   2.936  0.3286 -0.0981  0.6390
  793MOL0     H 7025  -1.352   3.445   2.631 -2.1461  1.1742 -0.2607
  793MOL0     H 7026  -1.393   3.572   2.755 -0.7063  0.5400 -2.0619
  793MOL0     H 7027  -1.556   3.336   2.643  1.7542  0.3529 -1.4641
  793MOL0     H 7028  -1.600   3.414   2.797 -1.1249  2.5833 -0.7617
  793MOL0     H 7029  -1.562   3.590   2.551 -3.4294 -1.0595 -4.2196
  793MOL0     H 7030  -1.639   3.633   2.705 -2.3276 -1.2445  0.8043
  793MOL0     H 7031  -1.723   3.418   2.506  2.7690  1.8285 -1.8674
  793MOL0     H 7032  -1.835   3.473   2.633 -0.7774 -0.3357 -0.8261
  793MOL0     H 7033  -1.710   3.627   2.402 -0.0934 -0.2117 -1.1122
  793MOL0     H 7034  -1.811   3.707   2.526  2.8484  0.2981 -0.5188
  793MOL0     H 7035  -1.959   3.652   2.353  0.6013  0.9823  2.8415
  793MOL0     H 7036  -1.998   3.542   2.479  1.8240 -0.7061  2.4699
  793MOL0     H 7037  -0.938   3.370   2.905 -2.0965  0.3520 -0.9294
  793MOL0     H 7038  -0.700   3.465   2.965  1.0304  1.5380 -2.6246
  793MOL0     H 7039  -0.332   3.542   3.061 -1.9984  0.2678  1.3484
  793MOL0     H 7040  -0.122   3.615   3.141 -0.3662 -0.0448 -1.9303
  793MOL0     H 7041   1.575   3.878   2.310 -0.1363  1.4387 -1.9071
  793MOL0     H 7042   1.709   3.932   2.113  1.5181 -0.0043 -1.3111
  793MOL0     H 7043   2.119   3.729   1.938 -4.9894  0.9041 -0.6465
  793MOL0     H 7044   2.340   3.762   1.811  1.7908  2.5203 -0.9143
  793MOL0     H 7045   2.464   3.758   1.606  0.0985 -1.1424 -2.0002
  793MOL0     H 7046   2.366   3.803   1.469 -1.1364 -0.8188  1.2865
  793MOL0     H 7047   2.620   3.931   1.559 -0.1565  0.6692  0.8071
  793MOL0     H 7048   2.518   3.986   1.414  1.6718  0.2734  0.4853
  793MOL0     H 7049   2.541   3.809   1.282 -0.1387 -0.2568 -0.3350
  793MOL0     H 7050   2.664   3.721   1.390 -2.0947 -1.2803  0.2162
  793MOL0     H 7051   2.812   3.849   1.247 -0.4777 -0.9437 -1.1488
  793MOL0     H 7052   2.797   3.961   1.378  0.3580  0.7467 -0.5499
  793MOL0     H 7053   2.554   4.178   1.155 -1.3349 -1.0190 -0.3152
  793MOL0     H 7054   2.166   4.075   1.583 -0.3092  1.1183  0.3678
  793MOL0     H 7055   1.949   4.054   1.720  1.4156  0.7343  0.4488
  794MOL0     O 7056   1.904   9.309   3.151 -0.0868 -0.2037  0.0440
  794MOL0     C 7057   2.019   9.261   3.160  1.0457  0.3866  0.0412
  794MOL0     O 7058   2.046   9.120   3.178 -0.4443 -0.1662 -0.0471
  794MOL0     C 7059   1.942   9.042   3.211 -0.2166  0.4350 -0.1260
  794MOL0     C 7060   1.865   8.986   3.108 -0.2338 -0.9147 -0.6391
  794MOL0     C 7061   1.767   8.893   3.140  1.0823  0.8756  0.1409
  794MOL0     C 7062   1.736   8.859   3.271 -0.1287  0.2008  0.4620
  794MOL0     O 7063   1.632   8.775   3.298  0.6575  0.0438 -0.2926
  794MOL0     C 7064   1.507   8.787   3.221 -1.3862  0.3750 -0.5432
  794MOL0     C 7065   1.400   8.782   3.328  0.7098 -0.0343  1.2104
  794MOL0     C 7066   1.255   8.779   3.265 -0.4204  0.5267 -0.9333
  794MOL0     C 7067   1.154   8.817   3.386  0.2724 -0.0306  0.3169
  794MOL0     C 7068   1.101   8.702   3.462 -0.7339 -0.0206 -0.8320
  794MOL0     C 7069   0.969   8.642   3.386 -0.3008 -0.3722  0.4961
  794MOL0     C 7070   0.897   8.534   3.466 -0.0725  0.0820  0.1191
  794MOL0     C 7071   0.992   8.401   3.449  0.8077 -0.5485  0.1504
  794MOL0     N 7072   0.906   8.277   3.476 -0.3482 -0.3163  0.4567
  794MOL0     C 7073   0.952   8.149   3.473 -0.5262 -0.4685 -0.5493
  794MOL0     C 7074   0.846   8.069   3.490 -1.0417  0.5433  0.4538
  794MOL0     C 7075   0.839   7.920   3.479 -0.2398  0.7188 -0.0004
  794MOL0     C 7076   0.798   7.862   3.615  0.5568 -0.6453  0.6447
  794MOL0     C 7077   0.653   7.886   3.642  0.2918  0.7566 -0.3164
  794MOL0     C 7078   0.611   7.808   3.767  0.6301 -0.5360 -0.7044
  794MOL0     O 7079   0.468   7.815   3.777 -0.5269  0.9027  0.2104
  794MOL0     C 7080   0.393   7.711   3.721 -0.0991 -0.6857  0.6503
  794MOL0     C 7081   0.260   7.726   3.737  0.1423 -0.3427  0.2329
  794MOL0     C 7082   0.165   7.633   3.695  0.2540  0.8237  0.0279
  794MOL0     C 7083   0.022   7.654   3.746 -0.6645  0.2858 -1.4150
  794MOL0     C 7084   0.208   7.528   3.605 -0.3173  0.2156  0.2477
  794MOL0     C 7085   0.123   7.414   3.553  0.5468 -0.2367  0.6367
  794MOL0     O 7086   0.174   7.299   3.521  0.0263  0.3586 -0.6424
  794MOL0     C 7087   0.087   7.201   3.475  0.7205 -0.9449 -0.3400
  794MOL0     C 7088   0.042   7.092   3.547  0.1806  0.3191 -0.4929
  794MOL0     C 7089  -0.052   7.003   3.499 -0.0396 -0.8914  0.0176
  794MOL0     C 7090  -0.107   7.017   3.370  0.3457  0.3593 -0.0712
  794MOL0     O 7091  -0.200   6.926   3.324  0.1518 -0.2133  0.5278
  794MOL0     C 7092  -0.202   6.780   3.348  0.3091  0.3393  0.1304
  794MOL0     C 7093  -0.262   6.710   3.224 -0.3191 -0.7172  0.1371
  794MOL0     C 7094  -0.203   6.750   3.091  0.8371 -0.5754  0.2018
  794MOL0     C 7095  -0.243   6.661   2.974  0.4176  0.8488 -0.1479
  794MOL0     C 7096  -0.211   6.711   2.832  0.4299 -1.2193  0.3319
  794MOL0     C 7097  -0.211   6.595   2.732  0.3694  0.3385  0.2410
  794MOL0     C 7098  -0.161   6.643   2.599 -0.5540  0.6358  0.0900
  794MOL0     C 7099  -0.164   6.539   2.488 -0.3333 -0.0828  0.5817
  794MOL0    Cl 7100  -0.092   6.391   2.538  0.2027  0.0197 -0.2405
  794MOL0     C 7101  -0.064   7.125   3.296 -0.0402 -0.7249 -0.3260
  794MOL0     C 7102   0.033   7.220   3.344  0.4162  0.6032  0.1325
  794MOL0     O 7103   0.006   7.443   3.542  0.2561  0.3988  0.9038
  794MOL0     C 7104   0.341   7.521   3.580  0.4863  0.0949  0.3654
  794MOL0     C 7105   0.436   7.602   3.636  0.2011 -0.3885 -0.5615
  794MOL0     N 7106   0.733   8.153   3.503  0.1093  0.1382 -0.1867
  794MOL0     N 7107   0.771   8.271   3.492  0.1353 -0.3868 -0.2559
  794MOL0     C 7108   1.812   8.910   3.376  0.2871  0.2584  0.1209
  794MOL0     C 7109   1.914   9.005   3.349  0.2284 -0.4553  0.6881
  794MOL0     C 7110   2.131   9.361   3.173  0.5484 -0.3369 -0.4024
  794MOL0     C 7111   2.107   9.509   3.164  0.0670  0.3719  1.4407
  794MOL0     C 7112   2.200   9.594   3.207  0.2996  0.3147 -0.0899
  794MOL0     C 7113   2.330   9.550   3.241 -0.0612  0.7070  0.0190
  794MOL0     O 7114   2.432   9.644   3.272  0.6723  1.5667  0.5499
  794MOL0     C 7115   2.408   9.782   3.247 -0.1576  1.0917 -0.3145
  794MOL0     C 7116   2.549   9.840   3.248  0.3090 -0.5466  0.8700
  794MOL0     C 7117   2.630   9.868   3.374  1.0771  0.0574  0.5659
  794MOL0     C 7118   2.686   9.736   3.432 -0.8431  0.0235  0.3571
  794MOL0     C 7119   2.740   9.764   3.569 -0.0223  0.6408  0.1170
  794MOL0     C 7120   2.791   9.781   3.680  0.2719 -0.0875 -0.4892
  794MOL0     C 7121   2.358   9.409   3.237  0.2249 -1.3735 -0.2415
  794MOL0     C 7122   2.258   9.320   3.202 -0.6632 -0.1231 -0.5120
  794MOL0     H 7123   1.877   9.025   3.007 -1.4789  1.5342  0.0821
  794MOL0     H 7124   1.705   8.858   3.058  0.9293  0.0557  0.5992
  794MOL0     H 7125   1.512   8.882   3.168 -1.1143  0.4540 -0.3739
  794MOL0     H 7126   1.503   8.707   3.146  1.2126  0.9747 -1.4350
  794MOL0     H 7127   1.408   8.691   3.389 -0.3766 -0.4484  0.7566
  794MOL0     H 7128   1.416   8.872   3.387  3.1263 -0.3984  1.2091
  794MOL0     H 7129   1.250   8.862   3.194  1.3078  1.3050 -0.2162
  794MOL0     H 7130   1.242   8.684   3.214 -0.6846  0.7399 -1.2628
  794MOL0     H 7131   1.201   8.888   3.454  0.5720  1.5771 -1.4888
  794MOL0     H 7132   1.075   8.876   3.339  0.6249 -0.4878 -0.8830
  794MOL0     H 7133   1.176   8.626   3.484 -0.4105  0.7920  1.0859
  794MOL0     H 7134   1.081   8.746   3.560 -0.3970  3.5722 -2.2340
  794MOL0     H 7135   0.909   8.733   3.392  3.2956  2.2305 -0.3203
  794MOL0     H 7136   0.997   8.605   3.287 -1.4079  1.4038 -0.5216
  794MOL0     H 7137   0.914   8.576   3.565  0.8770  1.1877 -0.5021
  794MOL0     H 7138   0.797   8.504   3.432 -0.3890 -0.1763  1.2192
  794MOL0     H 7139   1.079   8.398   3.515  2.6351  2.4941 -1.8555
  794MOL0     H 7140   1.028   8.389   3.347  1.2540 -4.6549  0.6499
  794MOL0     H 7141   1.054   8.113   3.465  0.4709  1.9208  0.5725
  794MOL0     H 7142   0.762   7.886   3.409 -0.7274 -0.5730  1.1123
  794MOL0     H 7143   0.934   7.877   3.446 -0.7279 -0.9309  0.6289
  794MOL0     H 7144   0.861   7.916   3.685 -0.3128  0.9071  0.2653
  794MOL0     H 7145   0.827   7.756   3.606  1.1774 -0.3317 -2.1133
  794MOL0     H 7146   0.591   7.843   3.562  1.5982 -3.0064  0.5018
  794MOL0     H 7147   0.640   7.992   3.665 -3.0553  0.4300 -0.1833
  794MOL0     H 7148   0.649   7.850   3.860 -1.8344  0.1697  0.0623
  794MOL0     H 7149   0.651   7.706   3.754  0.4296 -0.8233  0.7979
  794MOL0     H 7150   0.234   7.815   3.793 -0.9874 -1.3097  1.2865
  794MOL0     H 7151   0.017   7.736   3.818  0.3293 -2.2036  1.7367
  794MOL0     H 7152  -0.049   7.686   3.669 -2.2924  0.0172 -0.0850
  794MOL0     H 7153  -0.021   7.562   3.788  2.0174 -0.5469 -0.2230
  794MOL0     H 7154   0.074   7.068   3.648 -2.0049 -1.5992 -0.1649
  794MOL0     H 7155  -0.075   6.919   3.564 -2.4691  0.5742  1.1893
  794MOL0     H 7156  -0.100   6.749   3.374  2.4194  2.7679 -4.1072
  794MOL0     H 7157  -0.274   6.764   3.429 -0.3625  0.3830 -0.4493
  794MOL0     H 7158  -0.252   6.602   3.236 -0.5812 -0.8482 -0.7131
  794MOL0     H 7159  -0.364   6.748   3.236  0.1768 -0.0590  2.7534
  794MOL0     H 7160  -0.094   6.762   3.084  0.6314  1.0142 -0.6563
  794MOL0     H 7161  -0.246   6.849   3.076  1.2198 -0.2429  1.2331
  794MOL0     H 7162  -0.173   6.577   2.980  1.6494  1.9312  1.3677
  794MOL0     H 7163  -0.349   6.634   2.985  0.8172 -0.1140  1.7532
  794MOL0     H 7164  -0.118   6.769   2.832 -0.3516  0.3569 -3.3735
  794MOL0     H 7165  -0.279   6.793   2.805 -0.3987 -1.5353  1.4034
  794MOL0     H 7166  -0.154   6.506   2.759  0.1246 -0.0443 -0.4698
  794MOL0     H 7167  -0.316   6.565   2.731  0.1732  1.0201 -0.1856
  794MOL0     H 7168  -0.055   6.666   2.612 -0.7035  1.2532  0.2337
  794MOL0     H 7169  -0.216   6.727   2.557  0.3052  1.9263  1.4374
  794MOL0     H 7170  -0.093   6.568   2.410 -1.4153 -2.1214 -1.2606
  794MOL0     H 7171  -0.268   6.543   2.455 -0.9627  0.1569  2.4535
  794MOL0     H 7172  -0.104   7.143   3.196  2.3466  1.5446 -0.9790
  794MOL0     H 7173   0.048   7.313   3.289  0.4461  0.1651 -0.6239
  794MOL0     H 7174   0.370   7.451   3.502 -0.1847 -0.7238  0.8341
  794MOL0     H 7175   0.539   7.595   3.604  0.5479  1.8781 -0.1516
  794MOL0     H 7176   1.802   8.874   3.478  4.4314 -1.4662  0.1261
  794MOL0     H 7177   1.964   9.048   3.435 -0.6076  1.5136  0.2400
  794MOL0     H 7178   2.011   9.553   3.136 -1.1227 -1.8751  1.7478
  794MOL0     H 7179   2.164   9.697   3.208  1.2935  0.6773 -0.8437
  794MOL0     H 7180   2.352   9.799   3.154 -2.9645  2.7569  1.5109
  794MOL0     H 7181   2.345   9.827   3.325  0.1565 -0.6419  0.9888
  794MOL0     H 7182   2.533   9.941   3.209 -1.6884 -1.7897 -1.8758
  794MOL0     H 7183   2.610   9.799   3.167  0.3756  1.8012 -0.3710
  794MOL0     H 7184   2.568   9.903   3.456 -0.6768  0.9910 -1.0894
  794MOL0     H 7185   2.705   9.944   3.347  0.0755  1.6577  2.0738
  794MOL0     H 7186   2.769   9.704   3.369 -1.8639  2.5619 -2.5465
  794MOL0     H 7187   2.607   9.661   3.439 -0.6767 -0.1328  0.5910
  794MOL0     H 7188   2.835   9.796   3.777 -2.5680  2.9210  0.4863
  794MOL0     H 7189   2.457   9.382   3.273  0.3706 -0.2539  0.2720
  794MOL0     H 7190   2.275   9.213   3.209  2.0870  0.2044 -1.1853
  795MOL0     O 7191   9.762   8.055   5.897 -0.4283 -0.1100  0.5638
  795MOL0     C 7192   9.784   7.986   5.996 -0.4623  0.0262 -1.0674
  795MOL0     O 7193   9.694   7.959   6.088  0.4136  1.0593 -0.0453
  795MOL0     C 7194   9.570   8.020   6.080  0.4511  0.5576  0.3361
  795MOL0     C 7195   9.482   7.968   5.985  0.1923 -0.3232  1.0267
  795MOL0     C 7196   9.348   8.009   5.981  0.0712  0.2136  0.3631
  795MOL0     C 7197   9.305   8.111   6.071  0.6671 -0.7330 -0.8855
  795MOL0     O 7198   9.172   8.154   6.084 -0.8490  0.5321 -0.7194
  795MOL0     C 7199   9.075   8.050   6.110  0.1842  0.0003 -0.2606
  795MOL0     C 7200   8.943   8.093   6.058  0.2852 -1.0258 -0.1485
  795MOL0     C 7201   8.875   8.208   6.137  0.3482  0.2122  0.8147
  795MOL0     C 7202   8.733   8.221   6.081 -0.5513  0.2233 -0.0971
  795MOL0     C 7203   8.666   8.336   6.163  0.2245  0.8142  0.4805
  795MOL0     C 7204   8.514   8.309   6.178 -0.3148 -0.1613  0.0855
  795MOL0     C 7205   8.450   8.308   6.037  0.2214 -0.4596  0.0447
  795MOL0     C 7206   8.303   8.333   6.044  0.5169  0.4884 -0.1141
  795MOL0     N 7207   8.240   8.236   6.136 -0.2132 -0.2923 -0.0554
  795MOL0     C 7208   8.249   8.098   6.128  0.2995 -0.2225  0.3036
  795MOL0     C 7209   8.151   8.057   6.218  0.4322 -0.1966 -1.1443
  795MOL0     C 7210   8.109   7.920   6.247 -0.4000 -0.2472 -0.3528
  795MOL0     C 7211   8.027   7.878   6.129  0.8204 -0.0444  0.4129
  795MOL0     C 7212   7.975   7.732   6.139  0.1559  0.2223 -0.1020
  795MOL0     C 7213   7.908   7.689   6.012  0.0172 -0.0099 -0.7007
  795MOL0     O 7214   7.851   7.563   6.042 -0.4940  0.4109 -0.7857
  795MOL0     C 7215   7.747   7.516   5.964  0.6241 -0.6693  0.4191
  795MOL0     C 7216   7.698   7.387   5.992  0.8493  0.1779  0.2454
  795MOL0     C 7217   7.597   7.338   5.910 -0.0344 -0.2795  0.4785
  795MOL0     C 7218   7.568   7.198   5.931  0.1686  0.0228 -0.3930
  795MOL0     C 7219   7.533   7.413   5.808  0.1579  0.6740  0.4795
  795MOL0     C 7220   7.427   7.375   5.719 -0.7163 -1.6171 -0.2988
  795MOL0     O 7221   7.443   7.417   5.589  0.0225  0.3455  0.2559
  795MOL0     C 7222   7.336   7.417   5.503  0.8117  0.8324  0.1594
  795MOL0     C 7223   7.348   7.396   5.363 -0.5286 -0.2948 -0.4708
  795MOL0     C 7224   7.248   7.387   5.268 -0.3919 -0.3426 -0.2304
  795MOL0     C 7225   7.123   7.407   5.321 -0.2386 -0.1556 -0.1378
  795MOL0     O 7226   7.006   7.373   5.258 -0.2244  0.8170 -0.2914
  795MOL0     C 7227   7.007   7.314   5.134  0.2046 -0.3183  0.0637
  795MOL0     C 7228   6.867   7.326   5.089  0.4855 -0.1696 -0.2368
  795MOL0     C 7229   6.831   7.227   4.982  0.8638  0.2757  0.0694
  795MOL0     C 7230   6.701   7.277   4.920  0.7330  0.3068 -0.0393
  795MOL0     C 7231   6.630   7.180   4.824 -0.8329  0.5699  0.2563
  795MOL0     C 7232   6.707   7.167   4.693  0.1315 -0.4027  0.9965
  795MOL0     C 7233   6.620   7.089   4.596 -0.1487  0.2107  0.5475
  795MOL0     C 7234   6.665   7.124   4.451  0.2533 -1.1585 -0.0362
  795MOL0    Cl 7235   6.570   7.265   4.394 -0.0784 -0.0363  0.0505
  795MOL0     C 7236   7.100   7.438   5.458 -0.0444  0.2041  0.3533
  795MOL0     C 7237   7.205   7.436   5.545  1.0186 -1.3938  0.4536
  795MOL0     O 7238   7.331   7.307   5.763  0.0350  0.3822 -0.0742
  795MOL0     C 7239   7.584   7.544   5.780 -0.5885  0.3698 -0.4154
  795MOL0     C 7240   7.683   7.599   5.861  0.2766 -0.1489 -0.2761
  795MOL0     N 7241   8.097   8.167   6.288 -0.7791  0.2632  0.0213
  795MOL0     N 7242   8.149   8.269   6.234 -0.0948  0.7402  0.0043
  795MOL0     C 7243   9.390   8.162   6.169 -0.3277  0.0820 -0.2806
  795MOL0     C 7244   9.521   8.113   6.176 -0.2539  0.4736 -0.7042
  795MOL0     C 7245   9.911   7.891   5.982 -0.6180 -1.2344 -0.2119
  795MOL0     C 7246   9.917   7.765   6.055  0.5974  0.1210  0.8329
  795MOL0     C 7247  10.030   7.683   6.038  0.7751  0.1394  0.2722
  795MOL0     C 7248  10.143   7.716   5.946  0.8584 -0.0068 -0.1760
  795MOL0     O 7249  10.257   7.635   5.955  0.6660 -0.0196  0.6394
  795MOL0     C 7250  10.356   7.634   5.845 -0.4312  0.3442  0.1850
  795MOL0     C 7251  10.421   7.502   5.813 -0.2674 -0.9799  0.4044
  795MOL0     C 7252  10.513   7.517   5.694 -0.2080 -0.3977  0.2598
  795MOL0     C 7253  10.569   7.388   5.650 -0.1309 -0.7458 -0.2000
  795MOL0     C 7254  10.677   7.345   5.735  0.2721 -0.5082  0.8007
  795MOL0     C 7255  10.770   7.300   5.799 -0.3096 -0.0255 -0.2582
  795MOL0     C 7256  10.120   7.839   5.869  0.2670  0.2172 -0.9997
  795MOL0     C 7257  10.016   7.923   5.901 -0.6534 -0.8935  0.1263
  795MOL0     H 7258   9.512   7.891   5.914 -4.1266 -1.2582 -0.1252
  795MOL0     H 7259   9.280   7.963   5.910  1.9343  1.8551 -2.6867
  795MOL0     H 7260   9.114   7.960   6.063  1.4210  0.6063 -0.4459
  795MOL0     H 7261   9.071   8.037   6.218  0.4232  3.0235  0.2118
  795MOL0     H 7262   8.960   8.126   5.955  4.0090  3.8038  1.6240
  795MOL0     H 7263   8.881   8.003   6.065  0.7063 -1.3290 -0.2789
  795MOL0     H 7264   8.879   8.178   6.242 -3.0806 -0.0569  0.9846
  795MOL0     H 7265   8.926   8.304   6.129  1.1211 -0.1528  1.2598
  795MOL0     H 7266   8.722   8.234   5.973 -1.9260  3.0487  0.2791
  795MOL0     H 7267   8.690   8.123   6.104  2.0542 -0.8608  0.4502
  795MOL0     H 7268   8.708   8.354   6.263 -0.8861  2.6305  0.6501
  795MOL0     H 7269   8.673   8.423   6.098 -1.4351 -0.2436 -1.1888
  795MOL0     H 7270   8.504   8.221   6.242  3.7924 -2.0968 -1.5703
  795MOL0     H 7271   8.475   8.396   6.231 -1.8369  0.1875 -1.4985
  795MOL0     H 7272   8.496   8.394   5.988 -0.7227 -0.0250 -0.1175
  795MOL0     H 7273   8.473   8.223   5.972  1.1049  0.6079 -1.0574
  795MOL0     H 7274   8.257   8.308   5.948 -0.1920 -1.0354  0.5758
  795MOL0     H 7275   8.281   8.437   6.068 -1.5944  0.8903 -3.2029
  795MOL0     H 7276   8.313   8.029   6.075 -1.0198 -0.3789 -1.1788
  795MOL0     H 7277   8.193   7.853   6.261 -1.0130 -1.1897 -1.0572
  795MOL0     H 7278   8.040   7.911   6.331  0.3189 -0.9489  0.1658
  795MOL0     H 7279   8.086   7.875   6.036  0.0617 -0.4468 -0.0687
  795MOL0     H 7280   7.953   7.957   6.116  1.5547  0.7843  1.1575
  795MOL0     H 7281   7.908   7.716   6.224 -1.1216  0.4452 -1.0431
  795MOL0     H 7282   8.063   7.670   6.155  0.7177  1.2393  0.8648
  795MOL0     H 7283   7.981   7.677   5.931  0.9772 -2.7457  0.4503
  795MOL0     H 7284   7.836   7.771   6.007  0.2156  0.5890  3.3947
  795MOL0     H 7285   7.743   7.335   6.076 -1.4315 -0.5425  1.0839
  795MOL0     H 7286   7.597   7.156   5.834 -2.8262  0.3634 -1.5437
  795MOL0     H 7287   7.627   7.151   6.010 -0.3754 -0.3439 -0.1995
  795MOL0     H 7288   7.463   7.173   5.944  0.5742 -1.6318 -0.0422
  795MOL0     H 7289   7.449   7.390   5.324 -1.1525 -1.6019 -1.9854
  795MOL0     H 7290   7.270   7.364   5.164 -0.9834 -2.1340  0.0129
  795MOL0     H 7291   7.072   7.376   5.071  1.1170 -0.1870  1.0922
  795MOL0     H 7292   7.029   7.207   5.135 -4.2957 -1.4731 -1.8562
  795MOL0     H 7293   6.801   7.293   5.170 -1.2012 -1.5920 -2.0694
  795MOL0     H 7294   6.846   7.429   5.059  1.2543  0.0611  0.0018
  795MOL0     H 7295   6.816   7.126   5.020  2.0520  0.3052  0.6431
  795MOL0     H 7296   6.912   7.208   4.911 -0.1196  1.1798 -1.3677
  795MOL0     H 7297   6.631   7.308   4.998 -2.2716 -3.2097 -1.0873
  795MOL0     H 7298   6.720   7.366   4.860 -0.4736 -0.6089 -1.8634
  795MOL0     H 7299   6.528   7.217   4.812 -1.8839 -1.5952  1.9116
  795MOL0     H 7300   6.622   7.081   4.868  1.0619  0.3307  0.1588
  795MOL0     H 7301   6.721   7.270   4.657 -2.1023 -0.4890 -0.3052
  795MOL0     H 7302   6.810   7.132   4.698 -0.2269 -1.9062 -0.9656
  795MOL0     H 7303   6.512   7.104   4.605 -0.5882 -2.5453  0.7195
  795MOL0     H 7304   6.634   6.985   4.626  1.2259 -0.1744 -1.2045
  795MOL0     H 7305   6.641   7.042   4.382 -0.9795  0.9787 -2.3052
  795MOL0     H 7306   6.770   7.153   4.446 -0.3500  1.1621 -0.3343
  795MOL0     H 7307   7.007   7.473   5.501  0.1833  3.0258 -1.2470
  795MOL0     H 7308   7.180   7.473   5.643 -1.1816  3.2905 -1.5642
  795MOL0     H 7309   7.538   7.604   5.702  0.8089  1.5136 -0.3920
  795MOL0     H 7310   7.721   7.695   5.826 -3.5527  2.3624  1.7680
  795MOL0     H 7311   9.368   8.227   6.253 -1.0816 -2.2310  1.4073
  795MOL0     H 7312   9.581   8.145   6.261  1.0851 -2.9757 -0.2001
  795MOL0     H 7313   9.834   7.740   6.119 -0.4315  1.9964  0.3189
  795MOL0     H 7314  10.048   7.583   6.077  1.9906 -0.4986 -1.8108
  795MOL0     H 7315  10.313   7.675   5.753  0.9635 -2.4517 -1.8484
  795MOL0     H 7316  10.435   7.698   5.884  0.5532 -0.8734  0.2661
  795MOL0     H 7317  10.351   7.425   5.779  1.7989 -2.1658 -1.4475
  795MOL0     H 7318  10.475   7.471   5.902 -0.8590 -1.2319  0.6791
  795MOL0     H 7319  10.604   7.574   5.714  0.5775 -1.1077 -1.1735
  795MOL0     H 7320  10.447   7.565   5.622 -0.9204  2.7125  2.7609
  795MOL0     H 7321  10.600   7.401   5.546 -0.2324  0.4930 -0.1000
  795MOL0     H 7322  10.486   7.317   5.648  0.5413 -1.5201 -1.4660
  795MOL0     H 7323  10.856   7.280   5.861  0.1208 -1.5025 -1.2787
  795MOL0     H 7324  10.198   7.867   5.798  2.2641  0.9234  1.3277
  795MOL0     H 7325  10.005   8.017   5.848  0.8047  0.1943  1.6280
  796MOL0     O 7326   5.945   3.281  10.269 -0.5403 -0.0698 -0.5724
  796MOL0     C 7327   5.879   3.343  10.190 -0.1697  0.2503 -0.6058
  796MOL0     O 7328   5.908   3.373  10.064 -1.1587 -0.2364 -0.0013
  796MOL0     C 7329   6.035   3.339  10.019  0.2371  0.4980 -0.1364
  796MOL0     C 7330   6.062   3.235   9.930 -0.5432  0.0836 -0.3335
  796MOL0     C 7331   6.197   3.203   9.881  0.2800 -0.1585  0.0329
  796MOL0     C 7332   6.304   3.281   9.938  1.2474  0.7688  0.1991
  796MOL0     O 7333   6.418   3.245   9.897 -0.1353 -0.5975  0.4762
  796MOL0     C 7334   6.507   3.364   9.876  0.6319  0.3442  0.3931
  796MOL0     C 7335   6.616   3.326   9.785 -0.6472  0.0199  0.8258
  796MOL0     C 7336   6.712   3.441   9.763  1.0899  0.2883 -0.7064
  796MOL0     C 7337   6.640   3.560   9.707  0.2999  0.3382  0.9630
  796MOL0     C 7338   6.718   3.677   9.655  0.5291  0.2397  0.3994
  796MOL0     C 7339   6.809   3.740   9.750 -0.3688 -0.2659 -1.2818
  796MOL0     C 7340   6.877   3.867   9.696  0.3395 -0.0699 -0.4700
  796MOL0     C 7341   6.930   3.969   9.806 -0.7290  0.3370  0.4411
  796MOL0     N 7342   6.832   4.071   9.839  0.3637 -0.9335  0.4375
  796MOL0     C 7343   6.783   4.163   9.750 -0.2391  0.3966 -0.0988
  796MOL0     C 7344   6.690   4.233   9.819 -0.1133 -0.0706  1.2195
  796MOL0     C 7345   6.600   4.342   9.758  0.3895 -0.3049  0.1121
  796MOL0     C 7346   6.456   4.281   9.750 -0.4815  0.0891 -0.8734
  796MOL0     C 7347   6.349   4.371   9.829  0.4452  0.4100  0.2960
  796MOL0     C 7348   6.207   4.330   9.790 -0.3997  0.9614 -0.4262
  796MOL0     O 7349   6.115   4.394   9.884 -0.2606  0.4205 -0.5656
  796MOL0     C 7350   5.979   4.384   9.866  0.3044 -0.5042  0.0031
  796MOL0     C 7351   5.895   4.438   9.969 -0.5812 -0.0252  0.7564
  796MOL0     C 7352   5.757   4.446   9.959  0.0703 -0.8800  0.1588
  796MOL0     C 7353   5.684   4.520  10.067 -0.5921 -0.3279 -0.4594
  796MOL0     C 7354   5.696   4.403   9.839 -0.2181 -0.2784  0.5629
  796MOL0     C 7355   5.548   4.397   9.817 -0.4517  0.3946  0.5431
  796MOL0     O 7356   5.499   4.332   9.706  0.5281 -0.0846 -0.1641
  796MOL0     C 7357   5.359   4.326   9.692 -0.5164 -0.0547  0.0024
  796MOL0     C 7358   5.287   4.219   9.724 -0.3519 -0.4039  0.2814
  796MOL0     C 7359   5.144   4.226   9.705  0.3499 -0.1769 -0.5735
  796MOL0     C 7360   5.088   4.343   9.671  0.2440 -0.6968  0.7382
  796MOL0     O 7361   4.950   4.356   9.651  0.5494  0.0261  0.3249
  796MOL0     C 7362   4.867   4.364   9.770  0.9147  0.1761 -0.6683
  796MOL0     C 7363   4.893   4.486   9.865  0.4551  0.0802  0.0210
  796MOL0     C 7364   4.846   4.621   9.819 -0.1830  0.0833  0.9328
  796MOL0     C 7365   4.950   4.733   9.821  0.5150  0.2266 -0.5013
  796MOL0     C 7366   4.997   4.775   9.957 -0.0366  0.4522 -0.2717
  796MOL0     C 7367   5.103   4.889   9.974 -0.4890  0.4720  0.4935
  796MOL0     C 7368   5.243   4.853   9.916 -0.9386 -0.3729 -0.2398
  796MOL0     C 7369   5.309   4.732   9.979  0.1278 -0.2726  0.2962
  796MOL0    Cl 7370   5.440   4.795  10.091  0.2716 -0.3511  0.0150
  796MOL0     C 7371   5.163   4.456   9.633 -0.8982  0.1104  0.5305
  796MOL0     C 7372   5.305   4.447   9.648 -0.3293  1.3246  0.2146
  796MOL0     O 7373   5.476   4.428   9.913 -0.2889  0.3389  0.4507
  796MOL0     C 7374   5.775   4.348   9.745 -0.7877 -0.3681  0.3767
  796MOL0     C 7375   5.915   4.331   9.753 -0.7332 -2.1389 -0.4607
  796MOL0     N 7376   6.682   4.180   9.950  0.6556 -0.8968  0.2220
  796MOL0     N 7377   6.759   4.074   9.953 -0.5876  0.0692 -0.1338
  796MOL0     C 7378   6.271   3.387  10.030 -0.1966  0.5522 -0.0527
  796MOL0     C 7379   6.136   3.411  10.067 -0.3683 -1.2389  0.2186
  796MOL0     C 7380   5.734   3.373  10.223  0.5603 -0.3219  0.8972
  796MOL0     C 7381   5.661   3.457  10.134 -0.0319  0.3314 -0.8812
  796MOL0     C 7382   5.536   3.497  10.156  0.1567 -0.4500 -0.8104
  796MOL0     C 7383   5.466   3.466  10.273  0.5681  1.3144  0.2818
  796MOL0     O 7384   5.329   3.480  10.301 -0.2009 -0.2755  0.2102
  796MOL0     C 7385   5.267   3.575  10.219  0.3769 -0.2338  0.2296
  796MOL0     C 7386   5.141   3.613  10.288  0.8681 -0.0610 -0.0381
  796MOL0     C 7387   5.063   3.693  10.184  0.0113  0.1371  0.3398
  796MOL0     C 7388   4.960   3.790  10.256  0.0051  0.4813  0.9948
  796MOL0     C 7389   4.828   3.725  10.262 -0.2167  0.5821  0.8333
  796MOL0     C 7390   4.714   3.687  10.249 -1.0517  0.0849 -0.5846
  796MOL0     C 7391   5.538   3.394  10.370 -0.6385 -0.1533 -0.9394
  796MOL0     C 7392   5.667   3.334  10.339  0.4101  0.2045  0.1051
  796MOL0     H 7393   5.986   3.170   9.889  0.5287  0.5422 -3.2972
  796MOL0     H 7394   6.210   3.128   9.804 -2.4908  2.0903 -2.8488
  796MOL0     H 7395   6.445   3.443   9.834 -0.9239 -2.1098 -2.3462
  796MOL0     H 7396   6.548   3.385   9.975  1.5787  1.3930 -0.2077
  796MOL0     H 7397   6.659   3.249   9.851 -0.8271  1.1224  2.2735
  796MOL0     H 7398   6.590   3.284   9.688 -0.8447  2.7683 -0.3911
  796MOL0     H 7399   6.758   3.480   9.855  1.8276  3.3612 -2.2467
  796MOL0     H 7400   6.783   3.407   9.687 -0.9185 -4.4674 -0.7836
  796MOL0     H 7401   6.585   3.518   9.622 -2.0020  1.1707  1.9383
  796MOL0     H 7402   6.571   3.595   9.785 -2.5638 -1.1172 -0.7255
  796MOL0     H 7403   6.781   3.641   9.573 -0.0650 -2.6336  1.0898
  796MOL0     H 7404   6.643   3.750   9.625 -0.4395 -0.0844  1.9161
  796MOL0     H 7405   6.756   3.775   9.839  4.4018  0.4004  1.6664
  796MOL0     H 7406   6.880   3.664   9.784  0.8590  0.6935 -1.6263
  796MOL0     H 7407   6.958   3.847   9.625  0.0733  1.6075 -1.2966
  796MOL0     H 7408   6.797   3.919   9.643  1.4406  3.0716  0.7256
  796MOL0     H 7409   7.026   4.018   9.788  0.4660 -2.2406 -0.7630
  796MOL0     H 7410   6.962   3.907   9.891  1.7985  0.0436 -0.6116
  796MOL0     H 7411   6.810   4.189   9.648 -0.5761 -1.6731 -0.7745
  796MOL0     H 7412   6.598   4.428   9.825  0.4379 -1.9330  2.3492
  796MOL0     H 7413   6.641   4.364   9.659  2.4624  0.3445  1.0509
  796MOL0     H 7414   6.451   4.193   9.814 -0.4593  1.0632  0.5062
  796MOL0     H 7415   6.423   4.258   9.648 -0.9906 -3.7980  0.0269
  796MOL0     H 7416   6.366   4.473   9.792  2.3747 -0.8011 -2.5218
  796MOL0     H 7417   6.363   4.379   9.937  2.4257  0.7995  0.0580
  796MOL0     H 7418   6.196   4.221   9.792 -2.8470  1.1514  1.1404
  796MOL0     H 7419   6.181   4.366   9.691 -1.1795  1.9891  0.1367
  796MOL0     H 7420   5.953   4.479  10.051 -0.2127 -0.2851  0.6270
  796MOL0     H 7421   5.606   4.466  10.122  0.3095  0.7477  2.0431
  796MOL0     H 7422   5.763   4.547  10.138  0.5956  1.5409 -2.3908
  796MOL0     H 7423   5.645   4.616  10.033  3.2518  0.8641 -1.9629
  796MOL0     H 7424   5.334   4.131   9.767  0.7304  0.1365  0.2291
  796MOL0     H 7425   5.087   4.146   9.750  1.5548 -1.3231 -0.9913
  796MOL0     H 7426   4.760   4.364   9.747  0.4975 -2.0550  0.8897
  796MOL0     H 7427   4.875   4.273   9.830 -1.5042  0.3527  0.0584
  796MOL0     H 7428   4.839   4.466   9.958  3.6050  1.2934  2.2736
  796MOL0     H 7429   4.996   4.495   9.901 -0.1227 -1.2877  2.1796
  796MOL0     H 7430   4.748   4.657   9.853  0.4804  3.5879 -0.4320
  796MOL0     H 7431   4.841   4.595   9.713  2.2977 -0.1513  0.8013
  796MOL0     H 7432   5.040   4.693   9.773  0.6448  0.8983 -0.8303
  796MOL0     H 7433   4.929   4.821   9.760  1.3758  0.1408 -0.9498
  796MOL0     H 7434   5.031   4.685  10.008  0.5904  0.3333 -0.8924
  796MOL0     H 7435   4.913   4.805  10.022  0.3786 -1.2342  1.1136
  796MOL0     H 7436   5.071   4.982   9.927 -0.1361  0.0960 -0.5177
  796MOL0     H 7437   5.103   4.914  10.081  0.4397 -2.2002  1.2110
  796MOL0     H 7438   5.319   4.931   9.922  1.5249 -2.3693 -2.8861
  796MOL0     H 7439   5.233   4.828   9.810  0.5318 -1.3026 -0.1906
  796MOL0     H 7440   5.358   4.669   9.903 -0.0093 -0.3525  0.2742
  796MOL0     H 7441   5.233   4.676  10.034  1.6609 -0.3077  2.5010
  796MOL0     H 7442   5.133   4.557   9.605  3.2442  1.2276 -0.6126
  796MOL0     H 7443   5.369   4.530   9.625  1.5923 -0.3533 -0.7838
  796MOL0     H 7444   5.729   4.318   9.652 -1.4767 -3.9519  1.7145
  796MOL0     H 7445   5.974   4.291   9.671  0.7501  2.4410 -1.8994
  796MOL0     H 7446   6.348   3.440  10.085  1.3949 -1.3742 -0.2993
  796MOL0     H 7447   6.112   3.494  10.133 -1.7549  1.1410 -3.0214
  796MOL0     H 7448   5.707   3.494  10.043 -0.8370  1.2147 -0.9428
  796MOL0     H 7449   5.491   3.550  10.073 -1.7025  2.2645  1.7052
  796MOL0     H 7450   5.329   3.666  10.218 -1.5912  1.1623 -0.4540
  796MOL0     H 7451   5.259   3.547  10.113  3.8539  0.9702 -0.5173
  796MOL0     H 7452   5.159   3.677  10.375  1.3387 -0.0355 -0.1548
  796MOL0     H 7453   5.076   3.531  10.320  0.2129  1.1433  1.9144
  796MOL0     H 7454   5.014   3.625  10.114  0.4718 -1.2570  1.3396
  796MOL0     H 7455   5.134   3.758  10.131  0.6270 -0.1641  0.7854
  796MOL0     H 7456   4.963   3.883  10.197 -0.2495  0.2248  0.5668
  796MOL0     H 7457   5.000   3.809  10.356  2.5127  0.1982  0.1251
  796MOL0     H 7458   4.611   3.660  10.245 -1.3988  0.7258  2.0891
  796MOL0     H 7459   5.501   3.376  10.471 -1.3238  2.2139 -0.7014
  796MOL0     H 7460   5.713   3.281  10.421  0.0471  2.9717  2.2268
  797MOL0     O 7461   7.229   0.115   6.677 -0.1843 -0.5895 -0.1343
  797MOL0     C 7462   7.240   0.156   6.567 -0.3597 -0.6350 -0.3254
  797MOL0     O 7463   7.136   0.169   6.485  0.1932  0.3947 -0.2181
  797MOL0     C 7464   7.008   0.176   6.545  0.8245 -0.1454  0.8521
  797MOL0     C 7465   6.940   0.299   6.558 -0.3985  0.2438  0.0795
  797MOL0     C 7466   6.810   0.304   6.592  0.4038  0.8822  0.9657
  797MOL0     C 7467   6.736   0.192   6.632  0.3109 -0.4395 -0.5960
  797MOL0     O 7468   6.604   0.187   6.646 -1.0079  0.9629 -0.0299
  797MOL0     C 7469   6.532   0.265   6.735  0.1515 -0.6310  0.4338
  797MOL0     C 7470   6.380   0.235   6.740 -0.3154 -0.0829  0.3203
  797MOL0     C 7471   6.336   0.217   6.886  0.4803  0.2826 -0.1269
  797MOL0     C 7472   6.189   0.200   6.910  0.2000  0.0203  1.3188
  797MOL0     C 7473   6.161   0.196   7.058  0.3415 -0.2764 -0.1955
  797MOL0     C 7474   6.258   0.124   7.150 -0.4638  0.0118  1.6289
  797MOL0     C 7475   6.223   0.120   7.302 -0.1328  0.6120 -0.7952
  797MOL0     C 7476   6.339   0.030   7.375 -0.8084 -0.3758 -0.0234
  797MOL0     N 7477   6.328  -0.116   7.347 -1.3360 -0.4014  0.2115
  797MOL0     C 7478   6.212  -0.193   7.364  0.3042 -0.5143 -0.0652
  797MOL0     C 7479   6.251  -0.319   7.326  0.0825 -0.8367 -1.3176
  797MOL0     C 7480   6.154  -0.444   7.325 -0.0285 -0.1157  0.1555
  797MOL0     C 7481   6.051  -0.456   7.436 -0.5062  0.1983 -0.2979
  797MOL0     C 7482   5.995  -0.599   7.429  0.1993 -0.3270  0.5376
  797MOL0     C 7483   5.859  -0.609   7.512 -0.3494  0.2526  0.4988
  797MOL0     O 7484   5.756  -0.565   7.417  0.6836  0.3558 -0.3081
  797MOL0     C 7485   5.627  -0.527   7.466  0.3989  0.6217  0.2666
  797MOL0     C 7486   5.538  -0.486   7.371  0.4656  0.9546 -0.4082
  797MOL0     C 7487   5.399  -0.461   7.381  0.1576  0.5197  0.8606
  797MOL0     C 7488   5.333  -0.414   7.259 -0.5833  0.0779 -0.1905
  797MOL0     C 7489   5.346  -0.487   7.507 -0.4352 -0.5739  0.2112
  797MOL0     C 7490   5.203  -0.463   7.533  0.8779 -0.2552  0.5039
  797MOL0     O 7491   5.169  -0.447   7.657 -0.2305  0.4444  0.2773
  797MOL0     C 7492   5.038  -0.436   7.697  0.2921  0.4207  1.1155
  797MOL0     C 7493   4.940  -0.341   7.667  0.3558  0.1897 -0.5126
  797MOL0     C 7494   4.810  -0.347   7.715 -0.4534 -0.8222 -0.2191
  797MOL0     C 7495   4.776  -0.439   7.811  0.7381  1.1997  0.3558
  797MOL0     O 7496   4.654  -0.441   7.874 -0.4781 -0.5452  0.1965
  797MOL0     C 7497   4.530  -0.398   7.808  0.0309 -0.5669 -0.2807
  797MOL0     C 7498   4.430  -0.518   7.824 -0.2871 -0.6986  0.6151
  797MOL0     C 7499   4.374  -0.520   7.967  0.2019 -0.4323 -0.2695
  797MOL0     C 7500   4.245  -0.434   7.970 -0.5037 -0.1615  0.4582
  797MOL0     C 7501   4.192  -0.399   8.111 -0.6152  0.3966 -0.4869
  797MOL0     C 7502   4.150  -0.529   8.198  0.0458  0.4553  0.2342
  797MOL0     C 7503   4.054  -0.621   8.120  0.4636 -0.1708  0.4140
  797MOL0     C 7504   3.971  -0.713   8.207 -0.1525 -0.0015  0.0982
  797MOL0    Cl 7505   3.910  -0.839   8.091  0.3086 -0.1912 -0.0119
  797MOL0     C 7506   4.873  -0.533   7.852  0.3125 -0.3504 -0.7336
  797MOL0     C 7507   5.006  -0.534   7.797  0.3854 -0.4607 -0.2734
  797MOL0     O 7508   5.124  -0.477   7.440  0.5586  0.8253 -0.3108
  797MOL0     C 7509   5.424  -0.529   7.606  0.3827  0.3273 -0.3451
  797MOL0     C 7510   5.570  -0.542   7.593  0.3881  0.5372 -0.1697
  797MOL0     N 7511   6.382  -0.314   7.286  0.8145 -0.1855 -0.1242
  797MOL0     N 7512   6.428  -0.195   7.293 -0.8738  0.5245 -0.2384
  797MOL0     C 7513   6.810   0.073   6.630 -0.1054  0.8267  0.3171
  797MOL0     C 7514   6.943   0.059   6.593  0.7760  0.5103 -0.0899
  797MOL0     C 7515   7.374   0.183   6.524 -0.0419  0.4831  0.3252
  797MOL0     C 7516   7.483   0.163   6.613  0.1914 -0.8245  0.4465
  797MOL0     C 7517   7.614   0.157   6.566  0.8179 -0.2217  0.8395
  797MOL0     C 7518   7.646   0.184   6.431 -0.3972  0.3329  0.7534
  797MOL0     O 7519   7.786   0.171   6.402 -0.1695  0.4814  0.1001
  797MOL0     C 7520   7.819   0.200   6.267  0.2437 -0.4536  0.1127
  797MOL0     C 7521   7.963   0.153   6.243 -0.0837 -0.0846  0.0763
  797MOL0     C 7522   8.066   0.251   6.290  0.0664 -0.8952  0.3493
  797MOL0     C 7523   8.199   0.234   6.214 -0.5906 -1.0190  0.2484
  797MOL0     C 7524   8.253   0.100   6.221 -0.8809 -0.5273  0.2706
  797MOL0     C 7525   8.317  -0.002   6.232  0.5203  0.4733 -0.3681
  797MOL0     C 7526   7.543   0.217   6.345  0.1646  1.6026  0.1040
  797MOL0     C 7527   7.403   0.219   6.390  0.2842  0.6109 -0.4083
  797MOL0     H 7528   6.984   0.394   6.528 -0.3791  0.4215  0.6676
  797MOL0     H 7529   6.762   0.401   6.584  0.5601  1.3061  3.8392
  797MOL0     H 7530   6.588   0.260   6.830  2.0900 -0.7906 -0.6534
  797MOL0     H 7531   6.545   0.369   6.705  0.3244 -0.8196 -0.1637
  797MOL0     H 7532   6.349   0.331   6.700  1.2863 -0.3319 -1.7099
  797MOL0     H 7533   6.350   0.160   6.666 -2.0612  1.3934 -0.5360
  797MOL0     H 7534   6.384   0.128   6.927 -0.7600  0.4261  1.7626
  797MOL0     H 7535   6.379   0.304   6.936  2.0800 -0.0370 -0.8972
  797MOL0     H 7536   6.138   0.284   6.862  1.7540  1.2046  1.6487
  797MOL0     H 7537   6.165   0.107   6.859  2.3503  0.4260 -0.5910
  797MOL0     H 7538   6.152   0.299   7.094  0.3943  0.4749 -2.1773
  797MOL0     H 7539   6.061   0.152   7.067 -0.0538  0.8509  1.1787
  797MOL0     H 7540   6.294   0.025   7.120 -0.7720 -0.3620  2.4455
  797MOL0     H 7541   6.352   0.179   7.139 -1.2730  1.1519  0.1538
  797MOL0     H 7542   6.221   0.218   7.349  1.9613 -0.6287  2.2034
  797MOL0     H 7543   6.124   0.078   7.323  0.1401  1.1243  1.9990
  797MOL0     H 7544   6.337   0.042   7.484 -0.8540 -0.4864 -0.0117
  797MOL0     H 7545   6.436   0.075   7.354 -0.8235  0.0764  0.8086
  797MOL0     H 7546   6.116  -0.154   7.396  0.7352  1.8012 -1.3401
  797MOL0     H 7547   6.103  -0.439   7.228  1.7482  0.1543 -0.8055
  797MOL0     H 7548   6.216  -0.533   7.316 -1.5941 -1.0108 -3.1925
  797MOL0     H 7549   5.971  -0.382   7.443 -0.5933 -0.0515  2.9654
  797MOL0     H 7550   6.104  -0.442   7.531  0.3867  2.1859 -1.0544
  797MOL0     H 7551   6.067  -0.673   7.465  1.3988  1.3689  1.7389
  797MOL0     H 7552   5.973  -0.646   7.332  0.4910  1.7765 -0.6104
  797MOL0     H 7553   5.866  -0.534   7.591  1.2499 -0.1996  0.8277
  797MOL0     H 7554   5.844  -0.709   7.554  0.1757 -1.4138 -2.9150
  797MOL0     H 7555   5.577  -0.466   7.272  3.5272 -2.0133  0.0097
  797MOL0     H 7556   5.248  -0.475   7.226  1.3916 -2.0220 -1.7685
  797MOL0     H 7557   5.324  -0.305   7.263  0.3238  0.1293  2.9749
  797MOL0     H 7558   5.396  -0.437   7.172 -1.2747 -0.1805 -0.6345
  797MOL0     H 7559   4.955  -0.263   7.594 -1.0866 -0.6158 -1.7308
  797MOL0     H 7560   4.743  -0.264   7.700  0.4940  0.0040  0.0106
  797MOL0     H 7561   4.487  -0.315   7.863 -0.7808 -1.7377  0.9131
  797MOL0     H 7562   4.542  -0.376   7.702 -4.1612 -1.2103 -1.0244
  797MOL0     H 7563   4.349  -0.515   7.750  0.0892  1.9033  0.1941
  797MOL0     H 7564   4.492  -0.603   7.795 -0.4626 -0.2302 -1.2341
  797MOL0     H 7565   4.447  -0.464   8.027 -0.2700 -0.4327  0.3075
  797MOL0     H 7566   4.359  -0.619   8.009  0.1717  1.2382  4.2624
  797MOL0     H 7567   4.263  -0.351   7.902  1.9874 -3.1896 -2.9987
  797MOL0     H 7568   4.165  -0.494   7.923  1.9587 -0.4078 -4.0103
  797MOL0     H 7569   4.097  -0.346   8.106 -0.4766  0.7516  0.4310
  797MOL0     H 7570   4.272  -0.350   8.169  0.8231 -0.8953 -1.3073
  797MOL0     H 7571   4.229  -0.596   8.233 -0.7084 -0.5613  0.0542
  797MOL0     H 7572   4.108  -0.495   8.293 -2.7444 -0.1416 -0.6582
  797MOL0     H 7573   4.112  -0.686   8.054 -1.1359  1.7709 -3.1772
  797MOL0     H 7574   3.988  -0.562   8.056  0.2278 -1.2815 -0.3970
  797MOL0     H 7575   3.884  -0.656   8.242  0.1977  1.4593 -1.2467
  797MOL0     H 7576   4.007  -0.777   8.288 -1.1310  1.5017  1.7866
  797MOL0     H 7577   4.858  -0.614   7.923 -0.1283 -1.8901 -2.4995
  797MOL0     H 7578   5.079  -0.614   7.806 -0.6625 -1.4416 -0.3445
  797MOL0     H 7579   5.396  -0.544   7.710 -1.0940 -2.6910 -1.0819
  797MOL0     H 7580   5.627  -0.573   7.679 -1.0049  1.7768  1.2601
  797MOL0     H 7581   6.768  -0.022   6.661 -0.8873  1.8037  2.4273
  797MOL0     H 7582   6.999  -0.033   6.585  1.0739  0.6647  0.1491
  797MOL0     H 7583   7.467   0.162   6.720  0.0779 -0.0061  0.4436
  797MOL0     H 7584   7.690   0.135   6.640 -1.2852 -2.4142  2.5264
  797MOL0     H 7585   7.760   0.135   6.201 -0.2852 -1.2409  1.3107
  797MOL0     H 7586   7.812   0.305   6.240 -0.0576 -0.7110 -0.8504
  797MOL0     H 7587   7.978   0.138   6.135 -1.2335  2.4407 -0.4999
  797MOL0     H 7588   7.975   0.053   6.285 -3.8375  0.4053  2.7677
  797MOL0     H 7589   8.081   0.237   6.398 -0.5932  1.2355  0.7599
  797MOL0     H 7590   8.033   0.351   6.263  1.9518 -0.3975 -0.2955
  797MOL0     H 7591   8.278   0.299   6.254 -2.2600 -0.2447  2.5363
  797MOL0     H 7592   8.181   0.248   6.107 -0.2197 -2.0160  0.0474
  797MOL0     H 7593   8.377  -0.090   6.241 -2.0292 -1.4760 -1.4788
  797MOL0     H 7594   7.552   0.223   6.237  0.9792 -2.3811 -0.2068
  797MOL0     H 7595   7.326   0.240   6.317 -1.6621 -1.2210  1.0021
  798MOL0     O 7596   9.220   0.057   0.955  0.5919  0.1496 -0.0898
  798MOL0     C 7597   9.227   0.176   0.988 -0.4427 -0.5735  0.9587
  798MOL0     O 7598   9.333   0.230   1.042 -0.2938  0.1868 -0.0057
  798MOL0     C 7599   9.461   0.180   1.005  0.5912  0.1286 -0.5369
  798MOL0     C 7600   9.564   0.181   1.099  0.2183  0.6672  0.5269
  798MOL0     C 7601   9.690   0.129   1.066 -0.1904 -0.6826 -0.2929
  798MOL0     C 7602   9.719   0.073   0.941 -0.4671  0.6754  0.4612
  798MOL0     O 7603   9.841   0.014   0.908  0.1865  0.3493  0.1200
  798MOL0     C 7604   9.955   0.014   1.003 -0.6789  0.0689  0.3800
  798MOL0     C 7605  10.074  -0.060   0.943 -0.0458  0.6215 -0.2843
  798MOL0     C 7606  10.041  -0.201   0.884  0.0970 -0.1577 -0.2855
  798MOL0     C 7607  10.013  -0.204   0.736 -0.2981 -0.6732 -0.9307
  798MOL0     C 7608   9.905  -0.306   0.693 -1.3399  0.1301  0.0435
  798MOL0     C 7609   9.924  -0.352   0.551  1.1853 -0.2267 -0.7367
  798MOL0     C 7610   9.799  -0.421   0.498 -0.3708  0.1172 -0.1258
  798MOL0     C 7611   9.786  -0.568   0.531  0.3279 -0.4398 -0.1463
  798MOL0     N 7612   9.671  -0.628   0.466  0.8756 -0.0124  0.2937
  798MOL0     C 7613   9.635  -0.607   0.340  0.8871  1.4207  0.6641
  798MOL0     C 7614   9.511  -0.661   0.324  0.3088  0.1465 -0.5507
  798MOL0     C 7615   9.432  -0.674   0.196 -0.0543 -0.3520 -1.4175
  798MOL0     C 7616   9.507  -0.768   0.098 -0.7451 -0.7025  0.3899
  798MOL0     C 7617   9.532  -0.911   0.164 -0.7372  0.8188  0.5857
  798MOL0     C 7618   9.399  -0.989   0.166 -0.0990 -0.1011 -0.1790
  798MOL0     O 7619   9.362  -1.030   0.033 -0.2815  0.5153 -0.0872
  798MOL0     C 7620   9.280  -1.138   0.013  0.5227  0.0267 -0.8924
  798MOL0     C 7621   9.203  -1.188   0.114  0.0779  0.2080 -0.1536
  798MOL0     C 7622   9.128  -1.306   0.098  0.0732 -0.1375 -1.2848
  798MOL0     C 7623   9.041  -1.333   0.222 -0.4935 -0.3736  0.8976
  798MOL0     C 7624   9.140  -1.381  -0.021  0.4055 -0.0429  0.3175
  798MOL0     C 7625   9.093  -1.523  -0.040  0.2582  0.2355  0.6622
  798MOL0     O 7626   9.039  -1.560  -0.159 -0.3088 -0.3028  0.1182
  798MOL0     C 7627   8.972  -1.679  -0.170  0.2539 -0.4113  0.1566
  798MOL0     C 7628   8.854  -1.705  -0.092 -0.3398  0.8205  0.1931
  798MOL0     C 7629   8.794  -1.831  -0.105  0.3014 -0.4232  0.3185
  798MOL0     C 7630   8.840  -1.927  -0.192  0.4277 -0.4836  1.2726
  798MOL0     O 7631   8.763  -2.042  -0.204  0.0654 -0.1690  0.0780
  798MOL0     C 7632   8.815  -2.164  -0.256 -0.5548 -0.1350 -0.0614
  798MOL0     C 7633   8.711  -2.263  -0.239  0.4239 -0.5325  2.0199
  798MOL0     C 7634   8.598  -2.238  -0.336  0.7907  0.3157 -0.9666
  798MOL0     C 7635   8.518  -2.374  -0.342 -0.0681 -1.0839  0.3494
  798MOL0     C 7636   8.391  -2.379  -0.436 -0.7581 -0.2496 -0.3800
  798MOL0     C 7637   8.313  -2.514  -0.447 -0.5382  0.6760  0.8497
  798MOL0     C 7638   8.203  -2.478  -0.543  0.5993 -0.6979 -0.2207
  798MOL0     C 7639   8.135  -2.606  -0.598 -0.3970 -0.0295 -0.6680
  798MOL0    Cl 7640   8.010  -2.560  -0.711  0.2128  0.2807 -0.4821
  798MOL0     C 7641   8.958  -1.906  -0.253  0.7985  0.6305 -1.0437
  798MOL0     C 7642   9.022  -1.782  -0.251  0.2244 -0.1600 -0.1376
  798MOL0     O 7643   9.104  -1.601   0.053  0.0200  0.5310  0.2419
  798MOL0     C 7644   9.206  -1.326  -0.132 -0.7840  0.5753 -0.2454
  798MOL0     C 7645   9.279  -1.204  -0.111  0.1149 -0.0331  0.1074
  798MOL0     N 7646   9.471  -0.703   0.447  0.1866  0.4517  0.1275
  798MOL0     N 7647   9.563  -0.687   0.528  0.0705 -0.7699  0.0408
  798MOL0     C 7648   9.614   0.073   0.853  0.1628  0.3953 -0.0419
  798MOL0     C 7649   9.487   0.130   0.879 -0.6998 -0.3397 -0.0597
  798MOL0     C 7650   9.112   0.269   0.986 -0.7127  0.3248 -0.3295
  798MOL0     C 7651   9.105   0.401   1.037 -0.3786 -0.0072 -0.6107
  798MOL0     C 7652   8.992   0.480   1.018 -1.0577 -0.3185  0.2580
  798MOL0     C 7653   8.878   0.429   0.950  0.0941 -0.1326 -0.2812
  798MOL0     O 7654   8.759   0.505   0.944 -0.5485  0.5162  0.1818
  798MOL0     C 7655   8.649   0.458   0.870  0.3887  0.1412 -0.1032
  798MOL0     C 7656   8.559   0.355   0.937  0.1884 -0.3209 -0.0652
  798MOL0     C 7657   8.434   0.413   0.995  0.3206 -1.1296 -0.4284
  798MOL0     C 7658   8.321   0.402   0.888  0.0226  0.7980 -0.2173
  798MOL0     C 7659   8.348   0.466   0.758 -0.4200  0.3362  0.7527
  798MOL0     C 7660   8.375   0.536   0.661 -0.6963  0.1538  0.1454
  798MOL0     C 7661   8.889   0.299   0.904  0.0281 -0.1407 -0.1133
  798MOL0     C 7662   8.999   0.213   0.925  0.0045  0.4547 -0.3106
  798MOL0     H 7663   9.551   0.200   1.205 -0.0479  1.5110  0.3479
  798MOL0     H 7664   9.770   0.134   1.140  1.1062 -0.8451 -1.6311
  798MOL0     H 7665   9.976   0.119   1.025  1.5464 -0.3882  0.7847
  798MOL0     H 7666   9.930  -0.042   1.094 -2.9999  1.4846  0.6831
  798MOL0     H 7667  10.126  -0.000   0.867 -1.5217  1.4881 -0.6498
  798MOL0     H 7668  10.144  -0.078   1.025 -0.8014  1.4095  0.5389
  798MOL0     H 7669  10.121  -0.272   0.906 -0.1463 -0.4924 -0.4658
  798MOL0     H 7670   9.954  -0.251   0.927 -0.0194  0.6700  0.4724
  798MOL0     H 7671   9.971  -0.105   0.714 -0.9772 -0.2414  1.9351
  798MOL0     H 7672  10.107  -0.229   0.686 -0.2843 -3.2977  0.2312
  798MOL0     H 7673   9.897  -0.394   0.757 -3.1257  0.7964  0.8140
  798MOL0     H 7674   9.812  -0.253   0.718 -0.0225  1.2668  2.9650
  798MOL0     H 7675   9.934  -0.259   0.494 -1.4644 -0.6556 -2.0625
  798MOL0     H 7676  10.017  -0.408   0.549  2.4133  1.6379  0.8015
  798MOL0     H 7677   9.705  -0.371   0.520 -0.1003  0.3402  0.5488
  798MOL0     H 7678   9.824  -0.408   0.392  0.3420  0.9580  0.1380
  798MOL0     H 7679   9.787  -0.584   0.639 -2.6317 -1.2894 -0.1618
  798MOL0     H 7680   9.874  -0.625   0.501 -1.0847 -1.0728 -3.5873
  798MOL0     H 7681   9.677  -0.547   0.260  0.1676  1.9694  0.6866
  798MOL0     H 7682   9.334  -0.711   0.225  0.1803  0.4739  0.6335
  798MOL0     H 7683   9.415  -0.578   0.146 -2.9735  1.8061  3.0306
  798MOL0     H 7684   9.601  -0.717   0.072 -1.2968  0.9328  1.4505
  798MOL0     H 7685   9.452  -0.775   0.004  0.5856  0.9057 -0.5591
  798MOL0     H 7686   9.563  -0.909   0.269  0.7222  1.5171  0.1626
  798MOL0     H 7687   9.600  -0.949   0.088 -3.1123  3.1537 -2.9936
  798MOL0     H 7688   9.319  -0.932   0.215 -1.1092 -1.9397  0.4107
  798MOL0     H 7689   9.404  -1.077   0.230 -2.3639 -0.5434 -0.5136
  798MOL0     H 7690   9.204  -1.135   0.209 -0.5841  1.6464 -0.9184
  798MOL0     H 7691   9.089  -1.419   0.269  0.7873  0.4379  1.1175
  798MOL0     H 7692   9.024  -1.254   0.297 -3.1377  0.5965 -0.5705
  798MOL0     H 7693   8.940  -1.360   0.189 -0.6693 -1.8733  2.5352
  798MOL0     H 7694   8.819  -1.635  -0.016  0.4917  2.6013 -1.0010
  798MOL0     H 7695   8.712  -1.861  -0.040  3.1728 -1.6105  3.7530
  798MOL0     H 7696   8.846  -2.136  -0.357 -0.0330  3.9392  1.0695
  798MOL0     H 7697   8.895  -2.199  -0.191 -1.0875  0.0066  0.6822
  798MOL0     H 7698   8.755  -2.359  -0.266 -1.1086 -1.0396  1.2114
  798MOL0     H 7699   8.691  -2.273  -0.131  0.1091 -1.4133  1.8849
  798MOL0     H 7700   8.620  -2.211  -0.440 -0.5833 -3.1293 -2.2733
  798MOL0     H 7701   8.524  -2.164  -0.304 -1.4814 -1.0761 -2.6878
  798MOL0     H 7702   8.573  -2.460  -0.382 -0.9506 -1.8787  0.7935
  798MOL0     H 7703   8.488  -2.399  -0.240 -1.6148  1.5995  0.6422
  798MOL0     H 7704   8.431  -2.341  -0.531 -1.0894  0.5882 -0.1955
  798MOL0     H 7705   8.311  -2.312  -0.403 -0.5775  0.6633 -1.6969
  798MOL0     H 7706   8.373  -2.599  -0.480  0.6678  0.0701  4.1815
  798MOL0     H 7707   8.265  -2.544  -0.353 -2.7125  0.2681 -0.3372
  798MOL0     H 7708   8.238  -2.411  -0.622 -0.2649  0.1065  0.0538
  798MOL0     H 7709   8.134  -2.428  -0.474  0.6561 -1.3479  0.3290
  798MOL0     H 7710   8.088  -2.675  -0.528  0.7071  0.3512  0.4723
  798MOL0     H 7711   8.205  -2.667  -0.656 -1.3070 -1.5528 -0.2173
  798MOL0     H 7712   8.996  -1.998  -0.298  0.1598  0.6795 -1.6996
  798MOL0     H 7713   9.109  -1.757  -0.310 -1.6135  1.1964 -2.4461
  798MOL0     H 7714   9.215  -1.375  -0.228  0.5720 -2.3074  1.2316
  798MOL0     H 7715   9.329  -1.156  -0.193  1.5939 -0.2028  0.8793
  798MOL0     H 7716   9.631   0.023   0.758  0.4222 -0.1999  0.3104
  798MOL0     H 7717   9.419   0.125   0.794 -0.1731  1.5313 -0.6490
  798MOL0     H 7718   9.195   0.443   1.079  0.9702  0.1700 -3.4316
  798MOL0     H 7719   8.990   0.584   1.051 -0.0678 -0.6165  1.3130
  798MOL0     H 7720   8.589   0.547   0.851  1.1172  0.6510 -0.0499
  798MOL0     H 7721   8.679   0.421   0.772  2.9958 -2.0902  1.3821
  798MOL0     H 7722   8.612   0.301   1.016  0.7287 -0.1046 -0.2729
  798MOL0     H 7723   8.543   0.269   0.872  0.2952 -0.7627  0.4881
  798MOL0     H 7724   8.455   0.511   1.038 -3.2159 -0.7939  0.8688
  798MOL0     H 7725   8.398   0.354   1.080  3.2723 -2.0969  0.2523
  798MOL0     H 7726   8.225   0.445   0.917 -1.0991 -2.2723  1.0725
  798MOL0     H 7727   8.297   0.296   0.876 -1.9839  1.3871 -2.1591
  798MOL0     H 7728   8.394   0.608   0.584  4.3887 -1.3615 -0.3964
  798MOL0     H 7729   8.808   0.242   0.858 -0.6014 -1.4470  2.4212
  798MOL0     H 7730   8.999   0.109   0.895 -0.9995  0.7755 -1.4867
  799MOL0     O 7731  10.787   7.256   5.340  0.8688 -0.3493 -0.4455
  799MOL0     C 7732  10.845   7.204   5.250 -0.4835 -0.4076 -1.6443
  799MOL0     O 7733  10.845   7.247   5.123 -0.2460  0.8481  0.1247
  799MOL0     C 7734  10.774   7.349   5.096  0.7013  0.1625 -0.0163
  799MOL0     C 7735  10.639   7.343   5.056 -0.5149 -1.0167 -0.0126
  799MOL0     C 7736  10.576   7.462   5.015 -0.3550 -0.7316  0.4643
  799MOL0     C 7737  10.646   7.584   5.001 -0.5729 -0.6097  0.1631
  799MOL0     O 7738  10.578   7.693   4.945  0.6975  0.6729 -1.1715
  799MOL0     C 7739  10.617   7.821   4.986  0.0042  0.6629  0.2963
  799MOL0     C 7740  10.568   7.940   4.915  0.2624  0.3634 -0.6847
  799MOL0     C 7741  10.605   7.952   4.773 -0.0621 -0.3087  0.0686
  799MOL0     C 7742  10.574   8.092   4.724  0.4470 -0.3229 -0.1208
  799MOL0     C 7743  10.620   8.103   4.578  0.1281  1.2934  0.4801
  799MOL0     C 7744  10.580   8.241   4.520 -0.3932  0.1218 -0.9360
  799MOL0     C 7745  10.613   8.233   4.368  0.6030 -0.5019  0.4554
  799MOL0     C 7746  10.625   8.368   4.303 -0.5875  0.5262 -0.4412
  799MOL0     N 7747  10.495   8.436   4.298  0.2999  0.7070 -0.8157
  799MOL0     C 7748  10.450   8.504   4.410 -0.1646 -0.3150  1.0503
  799MOL0     C 7749  10.323   8.527   4.383  0.4662 -0.3556  0.8421
  799MOL0     C 7750  10.213   8.599   4.469  0.0984  0.3362 -0.3030
  799MOL0     C 7751  10.090   8.670   4.388 -0.6071  0.5778 -0.7484
  799MOL0     C 7752   9.997   8.569   4.326 -0.1674 -0.7168  0.7387
  799MOL0     C 7753   9.864   8.619   4.294  0.2178  0.9838 -0.8256
  799MOL0     O 7754   9.798   8.615   4.415  0.3809  0.5144 -0.5571
  799MOL0     C 7755   9.664   8.644   4.417  0.2799 -1.2164 -0.6332
  799MOL0     C 7756   9.604   8.715   4.310 -0.2485 -0.7795 -0.1671
  799MOL0     C 7757   9.470   8.746   4.326  0.4249  1.1783  0.9716
  799MOL0     C 7758   9.403   8.807   4.199 -0.3431 -0.0116 -0.3883
  799MOL0     C 7759   9.397   8.707   4.441 -0.2578 -0.8109  0.7102
  799MOL0     C 7760   9.253   8.714   4.456 -0.5117  0.2800 -0.1685
  799MOL0     O 7761   9.181   8.672   4.346 -0.0852 -0.8757  0.1190
  799MOL0     C 7762   9.053   8.705   4.338  0.8654 -0.2634  0.1967
  799MOL0     C 7763   9.013   8.775   4.224  0.1927  0.6989 -0.7493
  799MOL0     C 7764   8.887   8.804   4.202  0.1701  0.1320 -0.1233
  799MOL0     C 7765   8.786   8.784   4.299  0.7901  0.0158 -0.3366
  799MOL0     O 7766   8.653   8.826   4.268 -0.1119  0.1788 -0.3523
  799MOL0     C 7767   8.550   8.807   4.378 -0.1726 -0.0546  0.2272
  799MOL0     C 7768   8.418   8.825   4.298  0.7148  0.1365 -0.5239
  799MOL0     C 7769   8.299   8.750   4.359  1.1451  0.1992 -0.9365
  799MOL0     C 7770   8.222   8.837   4.464  0.2848 -0.5230  0.1631
  799MOL0     C 7771   8.245   8.780   4.601 -0.6936 -0.4156  0.2229
  799MOL0     C 7772   8.154   8.663   4.626 -1.0010  0.6358 -0.1028
  799MOL0     C 7773   8.189   8.574   4.752  0.5176 -0.2950 -0.2414
  799MOL0     C 7774   8.319   8.481   4.729  0.8217  0.1773 -0.1829
  799MOL0    Cl 7775   8.261   8.357   4.609  0.2377 -0.4073 -0.3721
  799MOL0     C 7776   8.824   8.720   4.419 -0.0641  0.2496 -0.3565
  799MOL0     C 7777   8.961   8.669   4.433  0.4346 -0.0324 -0.3314
  799MOL0     O 7778   9.212   8.743   4.570  0.5380  0.1142  0.7108
  799MOL0     C 7779   9.468   8.647   4.550 -0.1678  0.3614 -0.3809
  799MOL0     C 7780   9.603   8.614   4.541  0.1371 -0.4314 -0.3122
  799MOL0     N 7781  10.287   8.471   4.261 -0.3480  0.5535  0.8800
  799MOL0     N 7782  10.391   8.412   4.212  0.3944  0.2384  0.1921
  799MOL0     C 7783  10.779   7.593   5.050 -0.1686 -0.8325  0.7950
  799MOL0     C 7784  10.839   7.473   5.086  0.0880  0.4800 -0.9521
  799MOL0     C 7785  10.940   7.090   5.288  0.2983 -1.5218  0.3047
  799MOL0     C 7786  10.947   7.033   5.415 -0.6707  0.1064  0.1815
  799MOL0     C 7787  11.027   6.914   5.423  0.1871  0.0775 -0.1799
  799MOL0     C 7788  11.098   6.858   5.319 -0.0975  1.1957 -0.0870
  799MOL0     O 7789  11.172   6.744   5.334 -0.0929  0.0560  0.0276
  799MOL0     C 7790  11.285   6.768   5.422 -0.1416  0.9884  0.6627
  799MOL0     C 7791  11.290   6.665   5.534 -0.0180 -0.6656 -0.1635
  799MOL0     C 7792  11.248   6.733   5.658 -0.1583 -0.1949  0.0711
  799MOL0     C 7793  11.260   6.628   5.771 -0.1105 -0.0079  0.4599
  799MOL0     C 7794  11.340   6.689   5.888  0.2348 -0.9261  0.6216
  799MOL0     C 7795  11.399   6.738   5.984 -0.4582  0.4334  0.4856
  799MOL0     C 7796  11.103   6.930   5.202  0.3347  1.0304 -0.0086
  799MOL0     C 7797  11.029   7.046   5.190 -0.4563  0.8909 -0.5408
  799MOL0     H 7798  10.588   7.247   5.057  1.3476 -2.0979  2.6888
  799MOL0     H 7799  10.475   7.455   4.976  0.1951  2.5005 -1.8811
  799MOL0     H 7800  10.614   7.830   5.095 -0.7226  2.1460  0.1855
  799MOL0     H 7801  10.724   7.839   4.970  0.7001 -2.3222  0.9991
  799MOL0     H 7802  10.460   7.953   4.928  0.2925 -2.0644  4.2863
  799MOL0     H 7803  10.613   8.023   4.970  1.2019 -1.6430  1.7701
  799MOL0     H 7804  10.712   7.933   4.758 -0.0530 -0.5819  0.4609
  799MOL0     H 7805  10.555   7.878   4.710 -1.7981  0.1660  0.8359
  799MOL0     H 7806  10.472   8.129   4.738 -0.0967 -0.8851 -2.2428
  799MOL0     H 7807  10.632   8.159   4.787 -1.9469  2.8693 -1.0635
  799MOL0     H 7808  10.725   8.080   4.557 -0.7858 -1.7018 -1.4768
  799MOL0     H 7809  10.573   8.026   4.516  1.6664  1.3369 -0.8177
  799MOL0     H 7810  10.477   8.256   4.554  0.0857 -2.1091  1.8535
  799MOL0     H 7811  10.642   8.313   4.574 -1.4329  0.5494 -0.2905
  799MOL0     H 7812  10.713   8.189   4.366  0.1972 -1.5074 -2.4206
  799MOL0     H 7813  10.534   8.170   4.326  0.7314 -1.0392  0.9926
  799MOL0     H 7814  10.673   8.367   4.205  1.9675  1.9652  0.6910
  799MOL0     H 7815  10.690   8.443   4.349 -0.3157  1.1549 -1.8165
  799MOL0     H 7816  10.505   8.531   4.499  0.9805 -1.3227  0.6672
  799MOL0     H 7817  10.174   8.527   4.541 -0.3275 -0.4189 -1.2539
  799MOL0     H 7818  10.259   8.682   4.523  1.2067 -0.0129 -0.6750
  799MOL0     H 7819  10.135   8.732   4.310  1.8614  0.2480  0.3367
  799MOL0     H 7820  10.037   8.733   4.459 -2.5688 -0.1959 -1.4538
  799MOL0     H 7821   9.992   8.485   4.397 -0.6350 -0.2423  1.2746
  799MOL0     H 7822  10.051   8.538   4.236  0.6314  1.0115  0.5791
  799MOL0     H 7823   9.823   8.550   4.219  0.7038  1.8115 -1.8832
  799MOL0     H 7824   9.876   8.725   4.270 -0.2867  1.5073  1.0992
  799MOL0     H 7825   9.661   8.749   4.225  0.8201  0.1898  0.9098
  799MOL0     H 7826   9.328   8.885   4.218  1.2233  2.1416 -2.5243
  799MOL0     H 7827   9.477   8.850   4.131  0.1449 -1.0982 -0.5634
  799MOL0     H 7828   9.350   8.726   4.148  0.9571 -1.4551  0.4603
  799MOL0     H 7829   9.078   8.800   4.141  0.5037  0.1253 -0.6836
  799MOL0     H 7830   8.852   8.844   4.107 -3.4427  1.3831  1.5647
  799MOL0     H 7831   8.546   8.706   4.418  1.9975  0.3242  1.5309
  799MOL0     H 7832   8.552   8.880   4.459  1.3981 -0.7573  0.8470
  799MOL0     H 7833   8.395   8.931   4.287  1.8451  0.6133  1.3441
  799MOL0     H 7834   8.438   8.782   4.199  3.0518  4.3215 -2.1271
  799MOL0     H 7835   8.339   8.658   4.401  1.4503  0.0812 -1.4800
  799MOL0     H 7836   8.225   8.713   4.287  1.6518 -4.0468  0.4518
  799MOL0     H 7837   8.254   8.941   4.466  1.2473 -0.8168  1.2096
  799MOL0     H 7838   8.115   8.831   4.445  0.4224 -0.8511 -0.5282
  799MOL0     H 7839   8.240   8.857   4.678 -1.4622 -1.0289  0.7985
  799MOL0     H 7840   8.347   8.740   4.607 -0.0637  0.7630 -1.7292
  799MOL0     H 7841   8.053   8.704   4.635 -1.8221 -0.5739 -2.8522
  799MOL0     H 7842   8.153   8.603   4.535  4.1344  1.1873 -0.8063
  799MOL0     H 7843   8.098   8.515   4.767  0.1002  0.2796 -0.4457
  799MOL0     H 7844   8.202   8.640   4.838  0.6547 -1.7559  0.9054
  799MOL0     H 7845   8.346   8.422   4.817 -2.3921  0.1361  0.8892
  799MOL0     H 7846   8.408   8.534   4.694 -0.2879  1.0477 -1.7993
  799MOL0     H 7847   8.749   8.703   4.496  1.1529 -2.1653  0.3854
  799MOL0     H 7848   9.003   8.605   4.510  0.5271  0.5146  0.0708
  799MOL0     H 7849   9.404   8.629   4.636 -3.0700  3.0830 -1.7841
  799MOL0     H 7850   9.651   8.567   4.627  0.7264  0.5172 -0.1058
  799MOL0     H 7851  10.838   7.684   5.055 -2.0131  0.3370  3.3187
  799MOL0     H 7852  10.940   7.481   5.125  0.0926 -0.3859 -0.7705
  799MOL0     H 7853  10.884   7.066   5.498 -1.0058 -1.5675  0.6356
  799MOL0     H 7854  11.011   6.874   5.523  0.4181  2.2733  0.8100
  799MOL0     H 7855  11.377   6.762   5.364 -0.2404  0.2218  0.5713
  799MOL0     H 7856  11.282   6.870   5.462  3.4429  0.7718  1.8279
  799MOL0     H 7857  11.388   6.617   5.536 -0.7503 -2.1788  0.0555
  799MOL0     H 7858  11.218   6.588   5.505  0.6747 -1.6080  0.5695
  799MOL0     H 7859  11.155   6.790   5.646 -0.6322 -1.2400 -1.6823
  799MOL0     H 7860  11.328   6.803   5.684  0.8428 -1.8794  1.7296
  799MOL0     H 7861  11.300   6.530   5.742 -0.6515  0.0894 -0.6706
  799MOL0     H 7862  11.161   6.604   5.811 -0.9661  1.7716 -0.4559
  799MOL0     H 7863  11.435   6.776   6.077 -0.3185 -1.8743  1.4479
  799MOL0     H 7864  11.157   6.898   5.114  0.6070 -1.8529  1.0926
  799MOL0     H 7865  11.048   7.095   5.095  3.2562 -0.5405 -0.7073
  800MOL0     O 7866   4.641   1.834   4.016  0.1362 -0.3123  0.3759
  800MOL0     C 7867   4.659   1.953   4.032  0.2515  0.6337  1.1895
  800MOL0     O 7868   4.567   2.046   4.025 -0.4764  0.1230 -0.4638
  800MOL0     C 7869   4.436   2.023   4.016 -1.1572  0.6813 -0.5224
  800MOL0     C 7870   4.372   2.128   3.971 -1.0055 -0.2221 -0.0858
  800MOL0     C 7871   4.228   2.133   3.963  0.0764 -0.1232  0.0384
  800MOL0     C 7872   4.152   2.027   4.013 -0.6208 -0.0824  0.8653
  800MOL0     O 7873   4.017   2.026   4.013 -0.3374  0.1359  0.2519
  800MOL0     C 7874   3.941   2.147   3.979 -0.1632  0.6432 -0.1544
  800MOL0     C 7875   3.791   2.104   3.984  0.4826 -0.5308  0.3554
  800MOL0     C 7876   3.745   2.005   3.874  0.7220  0.3528  0.1367
  800MOL0     C 7877   3.588   1.967   3.890  0.6569 -0.2746 -0.2872
  800MOL0     C 7878   3.487   2.085   3.909 -0.3459  0.2150  0.4926
  800MOL0     C 7879   3.446   2.095   4.049 -0.4352 -0.6828 -0.8654
  800MOL0     C 7880   3.335   2.201   4.081 -0.2945  0.7955 -0.4481
  800MOL0     C 7881   3.197   2.169   4.015  0.4225 -0.2553 -0.5954
  800MOL0     N 7882   3.091   2.241   4.069 -0.3623  0.1786 -0.4871
  800MOL0     C 7883   3.069   2.379   4.080 -0.5521 -0.0137 -0.0084
  800MOL0     C 7884   2.958   2.399   4.156 -0.3148  0.9389  0.6550
  800MOL0     C 7885   2.913   2.530   4.215 -0.0531 -0.0034  0.2910
  800MOL0     C 7886   2.771   2.527   4.277  0.4255 -0.8835 -0.3238
  800MOL0     C 7887   2.677   2.641   4.235  0.5353  0.0267  0.2081
  800MOL0     C 7888   2.547   2.635   4.311  0.3625 -0.0750 -0.6722
  800MOL0     O 7889   2.449   2.692   4.225  0.5413 -0.0378 -0.3317
  800MOL0     C 7890   2.344   2.747   4.294 -0.5992 -0.1088  0.0405
  800MOL0     C 7891   2.258   2.686   4.386  0.4809  1.1466  0.7122
  800MOL0     C 7892   2.144   2.738   4.436  0.4244 -0.0715  0.6882
  800MOL0     C 7893   2.069   2.638   4.523  0.2950  0.6901  0.5685
  800MOL0     C 7894   2.118   2.875   4.410  0.3530  0.5563  0.3023
  800MOL0     C 7895   2.007   2.939   4.481  0.3459 -0.4190  0.5561
  800MOL0     O 7896   2.006   3.073   4.466  0.6303 -0.1506 -0.4815
  800MOL0     C 7897   1.891   3.143   4.495  1.1745 -0.1802 -0.3782
  800MOL0     C 7898   1.798   3.167   4.393 -0.2878 -0.6468  0.1845
  800MOL0     C 7899   1.683   3.242   4.411  0.1757 -0.7191  0.6121
  800MOL0     C 7900   1.664   3.293   4.544 -0.1663  0.0270 -0.4436
  800MOL0     O 7901   1.553   3.364   4.559 -0.5845 -0.7997 -0.2116
  800MOL0     C 7902   1.490   3.354   4.684 -0.2855 -0.6584  0.4351
  800MOL0     C 7903   1.350   3.409   4.695  0.2504  0.4295 -0.1428
  800MOL0     C 7904   1.300   3.462   4.831 -1.0517 -1.0837 -0.2458
  800MOL0     C 7905   1.147   3.464   4.829 -0.2727  0.5220  0.0967
  800MOL0     C 7906   1.094   3.555   4.936 -0.2922 -0.0454 -0.6116
  800MOL0     C 7907   0.938   3.574   4.931  0.2640  0.2268  0.9872
  800MOL0     C 7908   0.876   3.617   5.062  0.5076 -0.2571  0.4778
  800MOL0     C 7909   0.732   3.644   5.038 -0.2154  1.2012 -0.0648
  800MOL0    Cl 7910   0.651   3.681   5.198 -0.0661  0.7447  0.0113
  800MOL0     C 7911   1.745   3.259   4.652  0.6746  0.0873 -0.6369
  800MOL0     C 7912   1.863   3.192   4.621 -0.4219  0.3632  0.1977
  800MOL0     O 7913   1.934   2.879   4.555 -0.9634  0.3948 -0.9169
  800MOL0     C 7914   2.207   2.943   4.327  0.3562 -0.1303 -0.5363
  800MOL0     C 7915   2.314   2.880   4.273 -0.1915  0.3838 -0.0669
  800MOL0     N 7916   2.919   2.273   4.197  0.2572 -0.0577  0.0482
  800MOL0     N 7917   2.987   2.179   4.142 -0.7597  0.6187  0.0170
  800MOL0     C 7918   4.217   1.921   4.072  0.0726 -0.7170  0.5596
  800MOL0     C 7919   4.355   1.912   4.067  1.0603 -0.7601  0.7397
  800MOL0     C 7920   4.805   1.986   4.050 -0.2638 -1.0398 -0.1188
  800MOL0     C 7921   4.844   2.117   4.051  0.1564 -0.6965  0.1032
  800MOL0     C 7922   4.981   2.151   4.046 -0.2942 -0.2386  0.6018
  800MOL0     C 7923   5.078   2.053   4.050 -0.2544 -0.1227 -0.5051
  800MOL0     O 7924   5.214   2.068   4.014  0.3533  0.6633 -0.0132
  800MOL0     C 7925   5.272   2.197   4.020  1.0514  0.3253 -0.0130
  800MOL0     C 7926   5.266   2.273   3.882  0.0349  0.4403 -0.2686
  800MOL0     C 7927   5.362   2.203   3.789  0.4487 -0.4717  0.4072
  800MOL0     C 7928   5.496   2.283   3.779  1.1361  0.0641 -0.6471
  800MOL0     C 7929   5.591   2.284   3.892  0.2385 -0.0936 -0.0928
  800MOL0     C 7930   5.664   2.294   3.988 -0.5876 -0.8153  0.0048
  800MOL0     C 7931   5.037   1.926   4.071  0.5593  0.1760 -0.0774
  800MOL0     C 7932   4.905   1.887   4.061 -0.0267 -0.2037  1.0151
  800MOL0     H 7933   4.433   2.210   3.936 -1.5391 -1.0249 -3.1807
  800MOL0     H 7934   4.177   2.222   3.928 -1.9976 -0.9038  0.8932
  800MOL0     H 7935   3.963   2.227   4.051  0.5050  0.6544 -0.3648
  800MOL0     H 7936   3.971   2.188   3.882  1.8772  0.1654  0.2192
  800MOL0     H 7937   3.762   2.067   4.083 -2.8059 -1.7692 -0.9264
  800MOL0     H 7938   3.731   2.192   3.963  0.0899 -0.7340  0.6201
  800MOL0     H 7939   3.774   2.059   3.783  2.2054  1.0746  1.0224
  800MOL0     H 7940   3.800   1.911   3.877  2.8061  1.5286  0.0743
  800MOL0     H 7941   3.554   1.918   3.798  3.0808 -0.5220 -1.1244
  800MOL0     H 7942   3.583   1.890   3.967 -1.1776 -2.4861 -2.4638
  800MOL0     H 7943   3.523   2.178   3.865 -0.8423  0.6381  0.9770
  800MOL0     H 7944   3.400   2.059   3.848  0.0710 -2.4701  0.8899
  800MOL0     H 7945   3.412   1.998   4.086 -0.8206 -0.5250 -0.7992
  800MOL0     H 7946   3.535   2.126   4.104 -0.5346 -3.4747  1.0879
  800MOL0     H 7947   3.331   2.212   4.190  1.6116  0.0297 -0.2637
  800MOL0     H 7948   3.375   2.298   4.053  0.8710 -0.7696 -5.2396
  800MOL0     H 7949   3.178   2.064   4.041  2.4108 -0.3635  0.6247
  800MOL0     H 7950   3.202   2.189   3.907 -3.1648 -0.6317 -0.9466
  800MOL0     H 7951   3.137   2.453   4.042  1.6083 -2.0107 -0.2812
  800MOL0     H 7952   2.983   2.556   4.295 -0.2032  0.6277  0.2172
  800MOL0     H 7953   2.918   2.603   4.134  0.9469 -2.7988 -2.3612
  800MOL0     H 7954   2.772   2.518   4.386  1.3780 -0.6731 -0.3094
  800MOL0     H 7955   2.719   2.440   4.236  0.8065  0.3835 -3.7650
  800MOL0     H 7956   2.641   2.628   4.133  0.9299 -2.6223  0.3447
  800MOL0     H 7957   2.728   2.734   4.262  2.0023 -1.0073  1.1940
  800MOL0     H 7958   2.556   2.690   4.405  0.8706 -0.8477 -0.2560
  800MOL0     H 7959   2.522   2.533   4.343  0.4855  0.0366 -0.2063
  800MOL0     H 7960   2.267   2.578   4.400 -1.9101  0.1860 -3.2934
  800MOL0     H 7961   2.101   2.534   4.518 -0.2698  0.5537 -0.4911
  800MOL0     H 7962   2.087   2.677   4.624  3.0910  1.3890 -0.1040
  800MOL0     H 7963   1.964   2.642   4.491 -0.1396  0.9323  1.9473
  800MOL0     H 7964   1.828   3.148   4.291 -0.4351  3.2459 -0.7468
  800MOL0     H 7965   1.603   3.269   4.343  0.9967  1.7326  0.5514
  800MOL0     H 7966   1.494   3.248   4.712  2.2491 -1.1141 -1.3013
  800MOL0     H 7967   1.547   3.420   4.751 -0.7576  0.2028  0.0049
  800MOL0     H 7968   1.343   3.501   4.636  3.2541  2.7398  2.7032
  800MOL0     H 7969   1.277   3.333   4.664 -0.0911  0.9775 -0.6937
  800MOL0     H 7970   1.342   3.562   4.839  2.2646 -2.5035  3.5366
  800MOL0     H 7971   1.337   3.410   4.920 -1.3302  1.9051  1.7806
  800MOL0     H 7972   1.111   3.501   4.733  0.7836  0.4625 -0.3336
  800MOL0     H 7973   1.116   3.359   4.836  4.0991 -0.9006  1.2675
  800MOL0     H 7974   1.141   3.654   4.939 -1.8154  0.7118  2.0943
  800MOL0     H 7975   1.124   3.513   5.033 -0.5736 -1.0846 -0.9677
  800MOL0     H 7976   0.907   3.649   4.858 -0.4041 -0.8612  0.1088
  800MOL0     H 7977   0.883   3.482   4.909 -1.5971  1.6407 -0.6019
  800MOL0     H 7978   0.919   3.702   5.115  0.9549 -1.3486  1.9140
  800MOL0     H 7979   0.895   3.535   5.132  1.0530 -0.6283 -0.0947
  800MOL0     H 7980   0.689   3.546   5.015  3.3669 -0.6471  0.3798
  800MOL0     H 7981   0.721   3.727   4.968 -2.5750  2.6060  1.8158
  800MOL0     H 7982   1.717   3.293   4.751 -4.4929 -0.4756 -1.5943
  800MOL0     H 7983   1.936   3.172   4.699 -2.2242  0.2160  1.9164
  800MOL0     H 7984   2.192   3.048   4.302 -3.0852 -0.0954  1.0894
  800MOL0     H 7985   2.386   2.942   4.221  0.5235  1.5612  2.1844
  800MOL0     H 7986   4.151   1.849   4.119 -0.5897 -1.4042 -1.3446
  800MOL0     H 7987   4.392   1.814   4.095 -0.4625 -1.3918  0.6440
  800MOL0     H 7988   4.770   2.196   4.050 -0.8292 -1.5918 -1.3696
  800MOL0     H 7989   4.995   2.257   4.026 -3.0950 -0.1365 -1.4029
  800MOL0     H 7990   5.217   2.260   4.091 -1.1686  1.3786 -2.5184
  800MOL0     H 7991   5.377   2.197   4.049  0.9719  0.4485  0.2827
  800MOL0     H 7992   5.295   2.376   3.903  1.3279  0.0436  0.0141
  800MOL0     H 7993   5.165   2.275   3.839  0.7125 -0.5747 -2.0186
  800MOL0     H 7994   5.316   2.200   3.690  1.0687  1.5575  0.0098
  800MOL0     H 7995   5.381   2.103   3.829 -2.1288 -0.8734  0.7682
  800MOL0     H 7996   5.471   2.384   3.747 -2.8011 -0.5498  0.0403
  800MOL0     H 7997   5.553   2.246   3.692  0.4333  1.1449 -1.5996
  800MOL0     H 7998   5.727   2.321   4.071 -0.0085  0.2140 -0.7534
  800MOL0     H 7999   5.105   1.843   4.088  0.1727 -0.7044 -2.4257
  800MOL0     H 8000   4.870   1.785   4.066 -2.3433  0.5301  1.0446
  801MOL0     O 8001   0.248   7.764   4.711 -0.5026  0.6891  0.4069
  801MOL0     C 8002   0.127   7.759   4.691  0.8348 -0.6010 -0.1472
  801MOL0     O 8003   0.037   7.648   4.723  0.3349  0.4843  0.5497
  801MOL0     C 8004   0.088   7.534   4.783  1.0136 -0.3512 -0.3701
  801MOL0     C 8005   0.054   7.406   4.734 -0.3681 -0.7810  0.2113
  801MOL0     C 8006   0.104   7.289   4.792 -0.3448 -0.8691  0.5675
  801MOL0     C 8007   0.202   7.298   4.896  0.5242  0.1619 -0.7653
  801MOL0     O 8008   0.258   7.197   4.971 -0.1582  0.5195 -0.4645
  801MOL0     C 8009   0.286   7.074   4.906 -1.0350  0.5819  0.9460
  801MOL0     C 8010   0.436   7.066   4.871  0.0730  0.6566 -0.3335
  801MOL0     C 8011   0.478   6.938   4.791  0.2184 -0.3663 -0.5737
  801MOL0     C 8012   0.615   6.944   4.715 -0.5208  0.5943  0.1890
  801MOL0     C 8013   0.682   6.803   4.705 -1.1723  0.0746 -0.7776
  801MOL0     C 8014   0.814   6.808   4.634 -0.6615 -0.0688  0.1502
  801MOL0     C 8015   0.908   6.698   4.681 -0.3394  0.2333  0.4754
  801MOL0     C 8016   0.854   6.556   4.661  0.1433 -0.0941  0.7603
  801MOL0     N 8017   0.821   6.511   4.520 -0.7362 -0.1741  0.6672
  801MOL0     C 8018   0.889   6.424   4.447  0.8556  0.8002 -0.0687
  801MOL0     C 8019   0.813   6.400   4.332 -0.1882 -1.1572  0.2185
  801MOL0     C 8020   0.867   6.327   4.209  0.9086 -0.1676 -0.2697
  801MOL0     C 8021   0.936   6.193   4.254 -0.1608 -0.9007 -0.3071
  801MOL0     C 8022   0.947   6.099   4.137  0.5805 -0.4543  0.5804
  801MOL0     C 8023   1.031   5.973   4.162  0.8451  0.9196  0.0503
  801MOL0     O 8024   0.940   5.876   4.210  0.5929  0.0405  0.5027
  801MOL0     C 8025   0.981   5.745   4.250 -0.7287 -0.2269  0.0348
  801MOL0     C 8026   0.888   5.660   4.307 -1.0208 -0.9042 -0.3955
  801MOL0     C 8027   0.911   5.527   4.326 -0.4341 -0.4293 -1.3286
  801MOL0     C 8028   0.794   5.455   4.393 -0.1155 -0.1190  0.3360
  801MOL0     C 8029   1.037   5.469   4.286 -0.6594 -0.1355 -0.4569
  801MOL0     C 8030   1.069   5.327   4.307 -0.2612  0.2535 -0.4647
  801MOL0     O 8031   1.102   5.241   4.201 -0.0061  0.5830 -0.1571
  801MOL0     C 8032   1.201   5.145   4.210 -0.2685 -0.5029  0.1886
  801MOL0     C 8033   1.311   5.148   4.306 -0.1957  0.1949 -0.8089
  801MOL0     C 8034   1.410   5.059   4.306  0.7552  0.6466  0.0576
  801MOL0     C 8035   1.408   4.960   4.200 -0.2505 -0.5457 -0.8296
  801MOL0     O 8036   1.499   4.857   4.187  0.1448  0.0092  0.4931
  801MOL0     C 8037   1.590   4.836   4.291 -0.4241 -0.1035 -0.6075
  801MOL0     C 8038   1.707   4.749   4.240  0.4399 -0.7684  1.1001
  801MOL0     C 8039   1.802   4.710   4.347 -0.6290 -0.4937  0.1814
  801MOL0     C 8040   1.888   4.598   4.296 -0.2209  0.0075 -0.1977
  801MOL0     C 8041   1.978   4.529   4.396  0.4487 -0.1195  0.1961
  801MOL0     C 8042   2.042   4.629   4.488  0.2986 -0.6099 -1.0682
  801MOL0     C 8043   2.157   4.572   4.580  0.2895 -0.3629  0.1021
  801MOL0     C 8044   2.292   4.562   4.512  0.2512 -0.3330 -0.2395
  801MOL0    Cl 8045   2.293   4.413   4.404 -0.0796 -0.7539 -0.1346
  801MOL0     C 8046   1.308   4.960   4.111 -0.1694 -0.4005  0.5397
  801MOL0     C 8047   1.205   5.055   4.107 -0.0970  0.0752  0.2348
  801MOL0     O 8048   1.066   5.285   4.421 -0.3759  0.7039 -0.2866
  801MOL0     C 8049   1.125   5.545   4.212 -0.1228 -0.1870  0.8681
  801MOL0     C 8050   1.099   5.681   4.194  0.3368  0.5256 -1.4415
  801MOL0     N 8051   0.701   6.473   4.337 -0.1290 -1.1716 -0.5205
  801MOL0     N 8052   0.707   6.525   4.456  0.7227  0.0063 -0.4163
  801MOL0     C 8053   0.242   7.421   4.941  0.0984 -0.0379  0.7767
  801MOL0     C 8054   0.182   7.537   4.893  0.0350 -0.6192  0.5265
  801MOL0     C 8055   0.069   7.878   4.626  0.4921  0.7301  0.0657
  801MOL0     C 8056   0.126   8.001   4.648 -0.3250 -0.0584 -0.3582
  801MOL0     C 8057   0.073   8.109   4.581  0.3478  0.1688 -0.1283
  801MOL0     C 8058  -0.039   8.096   4.501 -1.1800 -0.6897 -0.0935
  801MOL0     O 8059  -0.070   8.216   4.448  0.0614  0.0556 -0.6991
  801MOL0     C 8060  -0.149   8.213   4.333  0.4592 -0.3162  1.3353
  801MOL0     C 8061  -0.297   8.227   4.358  0.7908  0.1947  0.6131
  801MOL0     C 8062  -0.389   8.214   4.240  0.3000  0.5846  0.0813
  801MOL0     C 8063  -0.358   8.320   4.137  0.1506 -0.7362 -0.6194
  801MOL0     C 8064  -0.461   8.347   4.041  0.2601 -0.0786 -0.4008
  801MOL0     C 8065  -0.548   8.352   3.963  0.4884 -0.3017  0.3852
  801MOL0     C 8066  -0.096   7.969   4.480  0.1354 -0.4330 -0.2531
  801MOL0     C 8067  -0.046   7.862   4.545 -0.8712  0.3858 -0.0266
  801MOL0     H 8068  -0.013   7.398   4.649 -1.9248  3.6601  0.7660
  801MOL0     H 8069   0.075   7.192   4.753  0.6908 -0.1920 -2.1830
  801MOL0     H 8070   0.257   6.993   4.973  2.3229 -2.0403 -0.5270
  801MOL0     H 8071   0.229   7.063   4.813  2.8609  0.2724 -1.6241
  801MOL0     H 8072   0.458   7.154   4.809  3.2562 -0.3371 -0.8127
  801MOL0     H 8073   0.490   7.061   4.966  0.9428 -2.2040 -0.8936
  801MOL0     H 8074   0.483   6.853   4.861  2.3674  1.0876  1.1509
  801MOL0     H 8075   0.401   6.924   4.715  0.0727 -1.2512 -0.2769
  801MOL0     H 8076   0.580   6.991   4.623 -0.6558  2.1169  0.9815
  801MOL0     H 8077   0.681   7.015   4.766  1.2868 -0.5030 -0.5483
  801MOL0     H 8078   0.699   6.765   4.807 -0.9262  3.1393  0.4173
  801MOL0     H 8079   0.622   6.728   4.652  1.4476 -2.5885 -0.2904
  801MOL0     H 8080   0.805   6.786   4.527  2.2627 -1.1014  0.0116
  801MOL0     H 8081   0.856   6.908   4.649 -2.3744  1.0434 -1.9262
  801MOL0     H 8082   1.010   6.699   4.641 -0.1079 -2.0546  0.8925
  801MOL0     H 8083   0.920   6.714   4.789  0.2002  0.2448  0.4159
  801MOL0     H 8084   0.758   6.542   4.712 -1.3974 -1.4868 -2.2151
  801MOL0     H 8085   0.916   6.482   4.712  3.0502 -0.0808 -2.4184
  801MOL0     H 8086   0.984   6.378   4.472  0.1088 -0.3614  0.7476
  801MOL0     H 8087   0.776   6.303   4.154 -1.1426  2.0087  1.9256
  801MOL0     H 8088   0.928   6.402   4.157 -0.4111  1.1183 -0.0330
  801MOL0     H 8089   0.867   6.154   4.330 -1.0250  0.0947 -0.5666
  801MOL0     H 8090   1.036   6.213   4.293 -0.4516  0.3195 -0.1626
  801MOL0     H 8091   1.015   6.160   4.077 -0.9689  2.3281  1.4476
  801MOL0     H 8092   0.857   6.075   4.079  1.2652 -0.1202 -0.6505
  801MOL0     H 8093   1.105   5.989   4.240 -0.4156  0.0777  1.4770
  801MOL0     H 8094   1.087   5.951   4.070  1.2720  0.5995  0.3864
  801MOL0     H 8095   0.796   5.707   4.338 -1.4961 -1.3928 -1.0223
  801MOL0     H 8096   0.776   5.495   4.493 -1.6341  2.9447 -1.0307
  801MOL0     H 8097   0.694   5.464   4.349 -0.7550  0.8505  1.9053
  801MOL0     H 8098   0.815   5.348   4.386  1.3847  0.2851 -3.5616
  801MOL0     H 8099   1.308   5.224   4.384 -1.3325  0.2579 -0.8925
  801MOL0     H 8100   1.495   5.055   4.373 -0.6525  1.9887  2.0265
  801MOL0     H 8101   1.638   4.932   4.313 -0.4942 -0.6096  1.9937
  801MOL0     H 8102   1.533   4.799   4.376  1.6371 -3.1470 -0.4156
  801MOL0     H 8103   1.678   4.662   4.181  1.2577  0.2286 -0.8291
  801MOL0     H 8104   1.759   4.809   4.165 -0.7743 -0.5448  0.3971
  801MOL0     H 8105   1.751   4.677   4.438  1.1527  0.9121  1.7845
  801MOL0     H 8106   1.866   4.792   4.380  1.9652 -1.9519 -0.9066
  801MOL0     H 8107   1.818   4.526   4.251  0.7855 -0.5976 -0.8150
  801MOL0     H 8108   1.946   4.624   4.208  1.7816 -1.5999  0.5769
  801MOL0     H 8109   2.048   4.473   4.333  1.0567  4.3745 -3.6826
  801MOL0     H 8110   1.917   4.473   4.467  1.6726 -1.7418  0.0248
  801MOL0     H 8111   2.074   4.718   4.431  0.5600  1.6297  2.2796
  801MOL0     H 8112   1.957   4.666   4.545  0.0424 -1.3107 -0.9921
  801MOL0     H 8113   2.141   4.472   4.622  0.5338  0.1104  1.3625
  801MOL0     H 8114   2.168   4.637   4.667  2.1895 -2.4377  1.5246
  801MOL0     H 8115   2.372   4.556   4.587 -0.0445  1.9591  0.3477
  801MOL0     H 8116   2.318   4.651   4.453 -2.6570 -0.0393 -1.2372
  801MOL0     H 8117   1.318   4.895   4.025  0.0100 -0.4638  0.6085
  801MOL0     H 8118   1.122   5.051   4.038 -0.3987 -0.0972  0.6037
  801MOL0     H 8119   1.219   5.504   4.179 -0.8716 -0.2539 -1.4165
  801MOL0     H 8120   1.168   5.739   4.134  3.1008  0.3353  1.3204
  801MOL0     H 8121   0.315   7.427   5.021  2.0856 -2.0106 -0.7747
  801MOL0     H 8122   0.213   7.635   4.928  1.3770 -0.3985 -1.1472
  801MOL0     H 8123   0.216   8.017   4.706  0.5333  0.4253 -1.7775
  801MOL0     H 8124   0.129   8.200   4.599  2.5743 -1.4524  1.7704
  801MOL0     H 8125  -0.110   8.301   4.281  0.4351 -1.4672 -0.7415
  801MOL0     H 8126  -0.139   8.127   4.266 -0.7104 -0.5500  1.4257
  801MOL0     H 8127  -0.307   8.328   4.399 -1.0156  0.8035 -1.1600
  801MOL0     H 8128  -0.326   8.154   4.434  2.8350 -1.6918 -0.2917
  801MOL0     H 8129  -0.488   8.230   4.283  0.2906  0.3260  0.1545
  801MOL0     H 8130  -0.385   8.116   4.192 -2.3277  0.6736 -0.4688
  801MOL0     H 8131  -0.264   8.304   4.082 -0.9172 -1.8648 -2.2116
  801MOL0     H 8132  -0.347   8.412   4.195  2.8579 -0.1969 -1.8604
  801MOL0     H 8133  -0.620   8.360   3.884 -0.6630 -3.4085  0.9823
  801MOL0     H 8134  -0.190   7.954   4.430 -0.6683 -1.1725  1.3798
  801MOL0     H 8135  -0.095   7.767   4.528  0.1184 -0.3296  0.9491
  802MOL0     O 8136   7.570   7.297   9.517 -0.5811  0.1867  0.0495
  802MOL0     C 8137   7.629   7.190   9.541  0.7920 -0.8064 -0.5086
  802MOL0     O 8138   7.567   7.068   9.571  0.0747  0.2776 -0.1038
  802MOL0     C 8139   7.428   7.059   9.593 -0.1765  0.3574 -0.1032
  802MOL0     C 8140   7.349   7.160   9.646  0.0038  0.1240 -1.2221
  802MOL0     C 8141   7.219   7.144   9.666 -0.8317 -0.7084 -0.7767
  802MOL0     C 8142   7.155   7.017   9.640  0.4897  1.0197 -0.0305
  802MOL0     O 8143   7.030   6.978   9.683  0.2009 -0.5392 -0.4120
  802MOL0     C 8144   6.933   7.091   9.693 -0.3015  0.2828 -0.2089
  802MOL0     C 8145   6.790   7.054   9.721 -0.0527  0.5766  0.1033
  802MOL0     C 8146   6.726   6.971   9.611 -0.6405 -0.4496 -0.4590
  802MOL0     C 8147   6.576   6.935   9.650 -0.0084 -0.1972  0.3355
  802MOL0     C 8148   6.518   6.815   9.571 -0.1806  0.2118 -0.0786
  802MOL0     C 8149   6.364   6.810   9.607 -1.0848  0.4631  0.1066
  802MOL0     C 8150   6.293   6.694   9.534  0.2024  0.6096 -0.7554
  802MOL0     C 8151   6.145   6.726   9.549 -0.1949 -0.2941  0.0134
  802MOL0     N 8152   6.063   6.608   9.515 -0.2794 -1.0348 -0.3781
  802MOL0     C 8153   5.990   6.525   9.594  0.4249 -0.3639 -0.7971
  802MOL0     C 8154   5.930   6.445   9.508 -0.0105  0.0452 -0.8707
  802MOL0     C 8155   5.861   6.326   9.548 -0.4497 -0.2101 -0.1399
  802MOL0     C 8156   5.788   6.247   9.435 -0.8555 -0.1548 -0.3625
  802MOL0     C 8157   5.757   6.111   9.488 -0.8535 -0.7341 -0.0632
  802MOL0     C 8158   5.652   6.115   9.608  0.9041 -0.8973 -0.5303
  802MOL0     O 8159   5.520   6.154   9.569 -0.1648 -0.1177 -0.2633
  802MOL0     C 8160   5.431   6.072   9.507  0.4710  0.5864 -0.2149
  802MOL0     C 8161   5.313   6.130   9.450  0.1161  0.3597  0.2867
  802MOL0     C 8162   5.216   6.055   9.382  0.0435 -0.7195  0.1568
  802MOL0     C 8163   5.087   6.130   9.346 -0.6465 -0.3651 -0.0828
  802MOL0     C 8164   5.248   5.915   9.365 -0.0172  0.1362 -0.5698
  802MOL0     C 8165   5.164   5.829   9.281  0.7117  0.6057  0.3428
  802MOL0     O 8166   5.156   5.691   9.304  0.3077  0.5506  0.4631
  802MOL0     C 8167   5.058   5.609   9.257  0.1113 -0.0850  0.2547
  802MOL0     C 8168   5.033   5.492   9.332 -0.2525  0.0310  0.7386
  802MOL0     C 8169   4.941   5.396   9.287 -0.1774 -0.1363  0.3871
  802MOL0     C 8170   4.869   5.418   9.160 -0.3260  0.2888 -0.6029
  802MOL0     O 8171   4.772   5.329   9.131 -0.6377  0.7139  0.1855
  802MOL0     C 8172   4.679   5.356   9.025 -0.8784 -0.0011  0.0376
  802MOL0     C 8173   4.581   5.237   8.980 -0.4409 -0.4712 -0.7903
  802MOL0     C 8174   4.449   5.249   9.059 -0.1039 -0.1194 -0.1183
  802MOL0     C 8175   4.359   5.120   9.035 -1.0234  0.6338 -0.3704
  802MOL0     C 8176   4.288   5.117   8.899  0.1751  0.6661  0.1089
  802MOL0     C 8177   4.204   5.249   8.865 -0.0881 -0.9581  0.5208
  802MOL0     C 8178   4.116   5.244   8.741  0.4217 -0.4150 -0.1694
  802MOL0     C 8179   3.999   5.138   8.761  0.7003  0.2747  0.1577
  802MOL0    Cl 8180   3.903   5.134   8.609  0.0981 -0.2124 -0.2092
  802MOL0     C 8181   4.895   5.537   9.080 -0.7250  0.3473 -0.5237
  802MOL0     C 8182   4.993   5.623   9.133 -0.3232 -0.5074  0.4160
  802MOL0     O 8183   5.081   5.881   9.200 -0.7230  0.1950 -0.2799
  802MOL0     C 8184   5.364   5.854   9.418 -0.3579 -0.6024  0.7449
  802MOL0     C 8185   5.458   5.932   9.484 -0.3556  0.5040 -0.3538
  802MOL0     N 8186   5.952   6.483   9.380 -0.5913 -0.2830  0.6111
  802MOL0     N 8187   6.031   6.585   9.385 -0.9661 -0.0720 -0.1331
  802MOL0     C 8188   7.230   6.909   9.586 -0.1752 -0.8726 -0.0158
  802MOL0     C 8189   7.369   6.933   9.566  1.1017 -0.2602  0.5864
  802MOL0     C 8190   7.780   7.179   9.530 -0.2637  0.3327 -0.6536
  802MOL0     C 8191   7.846   7.058   9.549  0.0494 -0.6246 -0.6022
  802MOL0     C 8192   7.987   7.049   9.567  0.4714 -0.1747  0.3223
  802MOL0     C 8193   8.071   7.159   9.556  0.6449 -0.1397 -0.0257
  802MOL0     O 8194   8.206   7.130   9.574  0.0798  0.3749  0.3391
  802MOL0     C 8195   8.293   7.239   9.540  0.0991  0.9361 -0.1235
  802MOL0     C 8196   8.444   7.194   9.550 -0.0473  0.0811 -0.0012
  802MOL0     C 8197   8.535   7.294   9.478  1.0329  0.1552  0.0256
  802MOL0     C 8198   8.666   7.292   9.543 -0.5355 -0.2983 -0.0136
  802MOL0     C 8199   8.772   7.336   9.443  0.7720 -0.1242  0.0280
  802MOL0     C 8200   8.858   7.377   9.372  0.4255 -0.4436 -0.1890
  802MOL0     C 8201   8.008   7.289   9.528  0.5803 -0.5272  0.3467
  802MOL0     C 8202   7.862   7.290   9.520 -0.6259 -0.4448  0.2765
  802MOL0     H 8203   7.394   7.252   9.682  2.1404 -1.0363 -0.7465
  802MOL0     H 8204   7.157   7.228   9.698 -2.0908 -2.1180  0.6450
  802MOL0     H 8205   6.959   7.166   9.768 -0.5844  1.4529 -1.2447
  802MOL0     H 8206   6.933   7.143   9.597  5.2169  2.2667  0.4964
  802MOL0     H 8207   6.778   7.011   9.821 -0.6142  1.7722  0.5763
  802MOL0     H 8208   6.736   7.149   9.714 -2.0814 -0.5553 -0.4556
  802MOL0     H 8209   6.728   7.021   9.513  0.6400  1.1013  0.3148
  802MOL0     H 8210   6.770   6.871   9.604 -2.4357 -1.3074 -0.3174
  802MOL0     H 8211   6.571   6.909   9.757  0.3443 -1.0011  0.1587
  802MOL0     H 8212   6.514   7.022   9.626 -1.1767 -1.2424 -0.5339
  802MOL0     H 8213   6.521   6.830   9.463  1.5108 -1.2068 -0.2741
  802MOL0     H 8214   6.564   6.720   9.600 -1.6674 -0.6250 -0.3544
  802MOL0     H 8215   6.354   6.788   9.713  0.4542 -1.1653 -0.0433
  802MOL0     H 8216   6.319   6.909   9.595  0.2700  1.1455  0.4244
  802MOL0     H 8217   6.316   6.697   9.427  1.5977 -0.9671 -0.5480
  802MOL0     H 8218   6.323   6.596   9.574 -0.7662  0.0787 -1.2833
  802MOL0     H 8219   6.126   6.811   9.484  1.4999 -0.6991 -1.0579
  802MOL0     H 8220   6.142   6.740   9.658  2.2591  0.8053 -0.0219
  802MOL0     H 8221   5.985   6.522   9.702  0.3349  1.8674 -0.7094
  802MOL0     H 8222   5.932   6.252   9.587  1.0078  1.3102  0.2089
  802MOL0     H 8223   5.794   6.360   9.628  0.7652  3.6020 -0.5407
  802MOL0     H 8224   5.844   6.236   9.342 -0.4284  2.2707 -0.4516
  802MOL0     H 8225   5.691   6.296   9.419 -1.9307 -1.4794  1.5740
  802MOL0     H 8226   5.845   6.063   9.531 -0.1153  0.3605 -0.3208
  802MOL0     H 8227   5.723   6.045   9.407 -0.3100  1.0972 -1.8680
  802MOL0     H 8228   5.681   6.190   9.681 -0.9346  0.6688 -1.3262
  802MOL0     H 8229   5.635   6.020   9.661 -1.4670 -1.9399 -2.9222
  802MOL0     H 8230   5.299   6.236   9.465  0.7830  0.9333 -2.5213
  802MOL0     H 8231   4.997   6.072   9.371  0.1957 -1.7937 -0.2397
  802MOL0     H 8232   5.061   6.224   9.396 -3.7988 -1.1387 -0.0297
  802MOL0     H 8233   5.082   6.147   9.238 -1.3601  0.3914  0.0640
  802MOL0     H 8234   5.087   5.459   9.420 -1.7049 -2.7091  0.7014
  802MOL0     H 8235   4.913   5.312   9.350 -1.4756  1.0223  1.4049
  802MOL0     H 8236   4.622   5.449   9.034  0.9834  1.2511 -0.7057
  802MOL0     H 8237   4.750   5.370   8.943  1.3910 -0.6737  1.7773
  802MOL0     H 8238   4.572   5.243   8.871 -1.8663  2.3094 -0.6397
  802MOL0     H 8239   4.637   5.151   9.015 -0.9258 -2.0220 -3.5450
  802MOL0     H 8240   4.387   5.332   9.025 -1.9830 -1.0279  0.8907
  802MOL0     H 8241   4.471   5.259   9.165  2.8911 -0.5122 -0.6129
  802MOL0     H 8242   4.420   5.029   9.046  2.2248  2.6754  0.0601
  802MOL0     H 8243   4.291   5.113   9.119  0.9118  0.9634  1.3065
  802MOL0     H 8244   4.224   5.028   8.899 -0.5754  1.0917  3.3544
  802MOL0     H 8245   4.364   5.110   8.820 -0.9790 -1.2921 -0.9034
  802MOL0     H 8246   4.137   5.267   8.950  0.5771 -0.9838  1.0545
  802MOL0     H 8247   4.276   5.329   8.844  0.5038 -1.9495 -1.4375
  802MOL0     H 8248   4.189   5.223   8.663  1.1116  3.5471 -0.8102
  802MOL0     H 8249   4.076   5.343   8.717 -0.5081 -1.1301 -1.7000
  802MOL0     H 8250   3.929   5.173   8.837 -1.4978 -1.2042 -1.0682
  802MOL0     H 8251   4.034   5.037   8.785 -2.5341 -1.1721 -0.6117
  802MOL0     H 8252   4.848   5.568   8.987 -0.4830 -3.1626 -1.9837
  802MOL0     H 8253   5.026   5.700   9.065 -1.5756  0.4949  0.9171
  802MOL0     H 8254   5.395   5.749   9.416 -0.8730 -0.7732  1.5324
  802MOL0     H 8255   5.549   5.886   9.521  0.0278  0.9388 -0.7370
  802MOL0     H 8256   7.180   6.817   9.559 -0.3906  0.0298 -3.0712
  802MOL0     H 8257   7.417   6.854   9.510  3.0392  0.5292  1.0653
  802MOL0     H 8258   7.794   6.963   9.559  0.0999 -0.5302  0.6839
  802MOL0     H 8259   8.027   6.948   9.563  0.5239 -0.1099 -1.6174
  802MOL0     H 8260   8.263   7.277   9.442 -1.1810 -0.6657 -0.3854
  802MOL0     H 8261   8.270   7.322   9.609 -0.8340 -0.5516  1.4275
  802MOL0     H 8262   8.467   7.095   9.510  1.4931  1.0557 -1.6685
  802MOL0     H 8263   8.461   7.196   9.658 -2.0148 -0.9903  0.3845
  802MOL0     H 8264   8.491   7.395   9.486  0.4714  0.1199 -1.9370
  802MOL0     H 8265   8.538   7.268   9.372 -1.8190  0.5397 -0.2374
  802MOL0     H 8266   8.687   7.191   9.579 -0.5175 -0.1836  0.2984
  802MOL0     H 8267   8.667   7.365   9.624  1.3120 -0.7244  0.3916
  802MOL0     H 8268   8.942   7.420   9.321  0.1322 -0.5827 -0.8066
  802MOL0     H 8269   8.061   7.382   9.515 -0.3805 -0.1332 -0.8943
  802MOL0     H 8270   7.817   7.387   9.501  0.8046  0.7446  2.5085
  803MOL0     O 8271   0.596   0.608   0.345  0.2217 -0.3453 -0.8925
  803MOL0     C 8272   0.583   0.730   0.327 -0.1543 -0.4343  0.2324
  803MOL0     O 8273   0.495   0.782   0.232  0.1688 -0.6443 -0.1429
  803MOL0     C 8274   0.404   0.700   0.172  0.2823 -0.2434 -0.2120
  803MOL0     C 8275   0.272   0.710   0.206  0.8384 -0.0432  0.3166
  803MOL0     C 8276   0.178   0.645   0.129 -0.3137 -0.4152  0.5826
  803MOL0     C 8277   0.222   0.565   0.016  0.3707 -0.8422 -0.6011
  803MOL0     O 8278   0.142   0.500  -0.063  0.4025 -0.0678  0.3685
  803MOL0     C 8279   0.016   0.553  -0.105 -0.1201  0.2983 -1.2356
  803MOL0     C 8280   0.033   0.680  -0.180 -0.3308 -0.3839  0.2511
  803MOL0     C 8281  -0.105   0.721  -0.244  0.3352 -0.4720 -0.4056
  803MOL0     C 8282  -0.151   0.858  -0.199  0.3191 -0.8690 -0.0037
  803MOL0     C 8283  -0.282   0.915  -0.267  0.9015  0.0273 -0.5942
  803MOL0     C 8284  -0.413   0.831  -0.236  0.3111 -0.3546 -0.0365
  803MOL0     C 8285  -0.531   0.915  -0.280 -0.6883 -0.5352 -0.6675
  803MOL0     C 8286  -0.651   0.825  -0.265  0.6320 -0.6055  0.1889
  803MOL0     N 8287  -0.771   0.890  -0.319 -0.1688 -0.9175  0.5899
  803MOL0     C 8288  -0.826   0.993  -0.247  0.2893 -0.0689 -1.8384
  803MOL0     C 8289  -0.947   1.004  -0.305  0.0850  1.4482 -0.0976
  803MOL0     C 8290  -1.062   1.083  -0.256  0.8594 -0.4245 -0.3964
  803MOL0     C 8291  -1.186   1.088  -0.349  0.0354  0.2508  0.2948
  803MOL0     C 8292  -1.279   1.203  -0.294 -0.3304 -0.5725  0.7634
  803MOL0     C 8293  -1.397   1.229  -0.385  0.2462 -0.1604 -0.2550
  803MOL0     O 8294  -1.506   1.139  -0.383  0.1779 -0.1088 -0.2578
  803MOL0     C 8295  -1.624   1.180  -0.449 -0.1599 -0.3883  0.2421
  803MOL0     C 8296  -1.741   1.107  -0.423 -0.1103 -0.0349  0.1534
  803MOL0     C 8297  -1.864   1.135  -0.484 -0.1664 -0.4974  0.2528
  803MOL0     C 8298  -1.988   1.051  -0.463 -0.0908  0.1646 -0.0468
  803MOL0     C 8299  -1.862   1.258  -0.568 -0.4842 -0.0331 -0.1523
  803MOL0     C 8300  -1.993   1.303  -0.630 -0.5378 -0.0525 -0.5999
  803MOL0     O 8301  -2.093   1.337  -0.546 -0.8628  0.3450 -0.3108
  803MOL0     C 8302  -2.222   1.341  -0.593  0.2037 -0.2455 -0.2667
  803MOL0     C 8303  -2.305   1.231  -0.572 -0.5982 -0.7732  0.0083
  803MOL0     C 8304  -2.444   1.242  -0.604 -0.5737  0.4690  0.9427
  803MOL0     C 8305  -2.484   1.356  -0.684  0.5156  0.6169  0.1710
  803MOL0     O 8306  -2.612   1.379  -0.722  0.0557 -0.5984  0.1834
  803MOL0     C 8307  -2.719   1.329  -0.646  0.4719  0.2856  0.0979
  803MOL0     C 8308  -2.728   1.390  -0.511 -0.2400  0.0867 -0.6468
  803MOL0     C 8309  -2.732   1.546  -0.510  0.3641  0.0071  0.3991
  803MOL0     C 8310  -2.710   1.592  -0.364  0.5034 -0.5623  0.0691
  803MOL0     C 8311  -2.750   1.740  -0.336  0.1038 -1.5343  0.4135
  803MOL0     C 8312  -2.707   1.845  -0.448 -0.0509  0.0073 -0.4982
  803MOL0     C 8313  -2.759   1.985  -0.420 -0.1868  0.5892  0.5199
  803MOL0     C 8314  -2.746   2.073  -0.544  0.9108 -0.3135 -0.9360
  803MOL0    Cl 8315  -2.581   2.120  -0.595  0.1407 -0.2873 -0.1521
  803MOL0     C 8316  -2.390   1.450  -0.725  0.2945 -0.9906  0.1426
  803MOL0     C 8317  -2.266   1.444  -0.672 -0.5817 -0.1176  0.8498
  803MOL0     O 8318  -2.002   1.310  -0.746  0.2637 -0.0506  0.7497
  803MOL0     C 8319  -1.748   1.329  -0.590 -0.6347  0.6079  0.6443
  803MOL0     C 8320  -1.630   1.293  -0.536 -0.1625 -0.0518  0.0222
  803MOL0     N 8321  -0.954   0.918  -0.417 -0.2790  0.1456 -0.2343
  803MOL0     N 8322  -0.848   0.846  -0.423 -0.8825  0.1212 -0.1111
  803MOL0     C 8323   0.358   0.546  -0.007 -0.1251 -0.1168  0.8038
  803MOL0     C 8324   0.450   0.607   0.078  0.6059  0.1885 -0.6249
  803MOL0     C 8325   0.689   0.810   0.380  0.4842  0.4226  0.3652
  803MOL0     C 8326   0.757   0.765   0.503  0.3603 -0.0746 -0.5214
  803MOL0     C 8327   0.839   0.849   0.575  0.2739 -0.2738 -0.4067
  803MOL0     C 8328   0.864   0.978   0.535  0.1402 -0.3443 -0.9390
  803MOL0     O 8329   0.961   1.059   0.593  0.0586  0.6689 -0.0683
  803MOL0     C 8330   0.989   1.053   0.737 -0.3967 -0.7049  0.0927
  803MOL0     C 8331   0.874   1.089   0.829 -1.1622  0.5105 -0.1593
  803MOL0     C 8332   0.804   1.217   0.787  0.2482 -1.5186 -0.5164
  803MOL0     C 8333   0.674   1.228   0.867  0.4384 -0.4282  0.2969
  803MOL0     C 8334   0.561   1.146   0.825  0.4766  0.4300 -0.3866
  803MOL0     C 8335   0.464   1.091   0.776 -0.0581  0.4859  0.0739
  803MOL0     C 8336   0.801   1.028   0.428  0.4387  0.0764  0.5470
  803MOL0     C 8337   0.711   0.946   0.352 -0.0711  1.0628  0.5868
  803MOL0     H 8338   0.223   0.767   0.284 -2.5899 -1.9227 -0.2587
  803MOL0     H 8339   0.074   0.667   0.148  0.2873  2.6404  0.8733
  803MOL0     H 8340  -0.033   0.481  -0.172 -0.3222 -0.0032 -0.7690
  803MOL0     H 8341  -0.043   0.569  -0.014  0.7065 -0.6121 -0.5262
  803MOL0     H 8342   0.076   0.755  -0.112  1.5049 -2.0261  0.9885
  803MOL0     H 8343   0.100   0.654  -0.262 -0.8190 -0.3279 -0.1650
  803MOL0     H 8344  -0.097   0.727  -0.353  1.2457 -2.4154 -0.4829
  803MOL0     H 8345  -0.183   0.647  -0.223  0.8349 -1.1779 -1.0210
  803MOL0     H 8346  -0.164   0.849  -0.091 -1.0848  1.8150  0.1172
  803MOL0     H 8347  -0.074   0.932  -0.222 -1.3182  1.7917  2.5437
  803MOL0     H 8348  -0.298   1.021  -0.244  3.3837  0.7240 -1.7552
  803MOL0     H 8349  -0.262   0.908  -0.374  2.4998 -0.8230 -0.2768
  803MOL0     H 8350  -0.412   0.737  -0.292 -2.3045  1.2924 -3.2050
  803MOL0     H 8351  -0.411   0.816  -0.128 -3.3049  0.1277  0.2202
  803MOL0     H 8352  -0.532   1.007  -0.221 -0.4216 -0.5509 -0.6404
  803MOL0     H 8353  -0.503   0.947  -0.381 -2.4713  0.0944 -1.0028
  803MOL0     H 8354  -0.652   0.803  -0.158  2.4643  1.2537  0.6558
  803MOL0     H 8355  -0.636   0.728  -0.313 -1.7888 -0.5441 -0.8143
  803MOL0     H 8356  -0.787   1.057  -0.168  1.0221 -1.0317 -1.3976
  803MOL0     H 8357  -1.104   1.041  -0.164 -0.0351  1.3220  0.0381
  803MOL0     H 8358  -1.016   1.178  -0.229  0.1716  0.0195 -0.7593
  803MOL0     H 8359  -1.236   0.991  -0.357  4.0559 -1.8986 -2.5842
  803MOL0     H 8360  -1.158   1.122  -0.449 -2.5764  0.7128 -0.3477
  803MOL0     H 8361  -1.221   1.295  -0.292  0.6235 -1.0910 -1.2049
  803MOL0     H 8362  -1.322   1.187  -0.194 -0.3607  2.0575  1.2280
  803MOL0     H 8363  -1.354   1.248  -0.484  0.1261  1.2593 -0.0608
  803MOL0     H 8364  -1.433   1.329  -0.357 -1.3354 -0.1878 -1.9598
  803MOL0     H 8365  -1.735   1.022  -0.356  1.9272 -0.0619 -0.0021
  803MOL0     H 8366  -2.036   1.043  -0.561  2.0793  2.1063 -1.3671
  803MOL0     H 8367  -1.964   0.951  -0.425  1.9158  0.3204 -0.7822
  803MOL0     H 8368  -2.047   1.095  -0.383  2.6602  2.3598  0.9094
  803MOL0     H 8369  -2.253   1.146  -0.529  1.6288  0.9290  0.8620
  803MOL0     H 8370  -2.489   1.153  -0.562  3.5492 -1.4219  1.8124
  803MOL0     H 8371  -2.809   1.335  -0.707  0.4794  0.5720  0.1138
  803MOL0     H 8372  -2.723   1.220  -0.638 -0.7473  0.4066  1.9751
  803MOL0     H 8373  -2.822   1.354  -0.469 -0.1670 -0.0036 -0.5625
  803MOL0     H 8374  -2.644   1.366  -0.447 -2.4694 -0.9244  2.0884
  803MOL0     H 8375  -2.824   1.579  -0.558  0.7704 -2.3146 -2.3100
  803MOL0     H 8376  -2.646   1.575  -0.571  0.4645 -1.0735  0.0012
  803MOL0     H 8377  -2.756   1.524  -0.291 -1.6859  0.4605 -0.2653
  803MOL0     H 8378  -2.601   1.589  -0.355  0.4600  1.2325  2.1421
  803MOL0     H 8379  -2.699   1.764  -0.242 -2.8545 -0.4825  1.8644
  803MOL0     H 8380  -2.857   1.749  -0.315 -0.0560 -0.1064 -0.8658
  803MOL0     H 8381  -2.598   1.853  -0.453  0.0716  0.0938  1.6135
  803MOL0     H 8382  -2.741   1.807  -0.545  2.6960 -1.8672 -0.8471
  803MOL0     H 8383  -2.702   2.029  -0.338  0.0126 -0.2703  0.8492
  803MOL0     H 8384  -2.865   1.965  -0.398  0.5854 -1.0562  3.1408
  803MOL0     H 8385  -2.816   2.157  -0.535 -1.1113 -1.9860 -0.4606
  803MOL0     H 8386  -2.787   2.017  -0.629 -1.5385 -1.8083  1.0900
  803MOL0     H 8387  -2.414   1.531  -0.793  1.2060 -0.2135  0.7316
  803MOL0     H 8388  -2.209   1.535  -0.691  0.1242 -0.5035  1.0807
  803MOL0     H 8389  -1.758   1.406  -0.666 -1.5921 -0.5528 -0.4310
  803MOL0     H 8390  -1.545   1.351  -0.571 -0.4893 -0.5573 -1.6931
  803MOL0     H 8391   0.383   0.482  -0.091 -3.6840  0.6258 -1.0426
  803MOL0     H 8392   0.554   0.585   0.054  1.2965  1.4770  0.9914
  803MOL0     H 8393   0.744   0.668   0.549  1.7890 -0.6521 -1.2715
  803MOL0     H 8394   0.891   0.815   0.664 -1.1533 -1.2359  0.0910
  803MOL0     H 8395   1.033   0.957   0.766 -3.2897 -1.6703  1.6093
  803MOL0     H 8396   1.072   1.122   0.755  0.1926 -0.2138 -3.7583
  803MOL0     H 8397   0.907   1.090   0.934 -0.5386  0.8427 -0.3526
  803MOL0     H 8398   0.796   1.012   0.827 -0.3333 -0.3883  0.9796
  803MOL0     H 8399   0.779   1.221   0.681 -1.1682 -0.7791 -0.1780
  803MOL0     H 8400   0.861   1.306   0.814 -0.6547 -0.3501 -2.2673
  803MOL0     H 8401   0.637   1.328   0.841 -1.8513 -0.9793  1.1723
  803MOL0     H 8402   0.701   1.233   0.972  1.8586  2.1862 -0.0961
  803MOL0     H 8403   0.378   1.054   0.724  0.5751  1.5230 -1.8215
  803MOL0     H 8404   0.807   1.130   0.391  2.5452  0.3877  1.6018
  803MOL0     H 8405   0.656   0.996   0.272 -1.9596  0.3604  1.3821
  804MOL0     O 8406   7.828   1.745   4.226 -0.0960 -0.1716 -0.5434
  804MOL0     C 8407   7.873   1.630   4.204  0.5185 -0.8660  0.0039
  804MOL0     O 8408   7.811   1.514   4.244  0.3155 -0.0826  0.1319
  804MOL0     C 8409   7.685   1.527   4.295 -0.2120  0.0722  0.0312
  804MOL0     C 8410   7.660   1.615   4.399 -0.5910  0.8721  0.3913
  804MOL0     C 8411   7.537   1.614   4.462 -0.0408  0.1133 -0.2496
  804MOL0     C 8412   7.434   1.542   4.415 -0.4659  0.7204  0.4291
  804MOL0     O 8413   7.296   1.548   4.458  0.3732  0.3794 -0.6139
  804MOL0     C 8414   7.265   1.659   4.550 -0.1816 -0.2252  1.4118
  804MOL0     C 8415   7.264   1.612   4.694 -0.1792 -1.0889 -1.1447
  804MOL0     C 8416   7.170   1.496   4.727  0.4225 -0.4817  1.0859
  804MOL0     C 8417   7.227   1.428   4.861 -0.0071 -0.4002 -0.6958
  804MOL0     C 8418   7.125   1.333   4.923  0.2349  0.0633  0.4793
  804MOL0     C 8419   6.979   1.385   4.935 -0.1757 -0.7141 -0.9663
  804MOL0     C 8420   6.917   1.285   5.034 -0.2369 -0.6481  0.4040
  804MOL0     C 8421   6.766   1.308   5.037  0.1645 -0.2164 -0.5190
  804MOL0     N 8422   6.732   1.428   5.119 -0.0353 -0.6652  0.1658
  804MOL0     C 8423   6.702   1.431   5.250 -0.4408 -0.1709 -0.5567
  804MOL0     C 8424   6.685   1.560   5.281 -0.1042 -0.4854  0.2287
  804MOL0     C 8425   6.630   1.626   5.412 -0.5094 -0.2047  0.3123
  804MOL0     C 8426   6.652   1.777   5.410 -0.0117 -0.7307  0.5803
  804MOL0     C 8427   6.540   1.852   5.329 -0.0193  0.5165  1.0713
  804MOL0     C 8428   6.402   1.876   5.390 -0.5660  0.5025 -0.2800
  804MOL0     O 8429   6.338   1.962   5.296 -0.2489  0.5497 -0.4246
  804MOL0     C 8430   6.220   2.034   5.327 -0.5631  0.6127 -0.3144
  804MOL0     C 8431   6.147   2.005   5.443  0.1865  0.0969  0.7854
  804MOL0     C 8432   6.024   2.065   5.472  0.1012 -0.4292 -1.0689
  804MOL0     C 8433   5.956   2.012   5.600  0.3842  0.3817  0.8032
  804MOL0     C 8434   5.969   2.155   5.377 -0.9510  0.0072 -0.7387
  804MOL0     C 8435   5.828   2.218   5.397 -1.3475 -0.1993  0.2180
  804MOL0     O 8436   5.770   2.217   5.527 -0.6520 -0.6080  0.2255
  804MOL0     C 8437   5.639   2.259   5.546 -0.0620 -0.5095  1.1692
  804MOL0     C 8438   5.543   2.224   5.458  1.3886  0.6883  0.1221
  804MOL0     C 8439   5.410   2.250   5.476 -0.7793  0.3142  0.2523
  804MOL0     C 8440   5.370   2.324   5.594  0.0999 -0.7494  0.1321
  804MOL0     O 8441   5.235   2.351   5.599 -0.1108  0.8481 -0.1672
  804MOL0     C 8442   5.176   2.413   5.708 -0.6503 -0.3189 -0.1913
  804MOL0     C 8443   5.166   2.329   5.838 -0.6997 -0.2638 -0.2245
  804MOL0     C 8444   5.168   2.425   5.966  1.2429  0.3072  0.1414
  804MOL0     C 8445   5.064   2.385   6.079 -0.2965  0.7023  0.9673
  804MOL0     C 8446   5.083   2.478   6.202 -0.3978  0.6950  0.0539
  804MOL0     C 8447   4.977   2.438   6.297  0.5745  0.2501 -0.3614
  804MOL0     C 8448   4.998   2.495   6.439  0.1367 -0.8235 -0.6302
  804MOL0     C 8449   5.036   2.653   6.423 -0.2861  0.4954  0.1006
  804MOL0    Cl 8450   5.028   2.717   6.584  0.0457 -0.2174  0.3918
  804MOL0     C 8451   5.466   2.365   5.683  0.6499 -0.3603  0.4517
  804MOL0     C 8452   5.596   2.326   5.662  0.5221 -0.2663  0.4876
  804MOL0     O 8453   5.788   2.283   5.305 -0.2046 -0.5482  0.3664
  804MOL0     C 8454   6.050   2.187   5.262  0.0473 -1.0786 -0.6169
  804MOL0     C 8455   6.168   2.127   5.239  0.2415  0.8045 -0.2543
  804MOL0     N 8456   6.718   1.635   5.171 -0.0772 -0.5564  0.0553
  804MOL0     N 8457   6.736   1.553   5.073  0.5072  0.4201  0.8173
  804MOL0     C 8458   7.451   1.452   4.312 -1.2117  0.1310  0.0355
  804MOL0     C 8459   7.579   1.441   4.247  0.3184 -0.6316 -0.1982
  804MOL0     C 8460   7.988   1.615   4.108  0.6818 -0.3504 -0.0815
  804MOL0     C 8461   8.056   1.723   4.057 -1.4276  0.0660 -0.7981
  804MOL0     C 8462   8.176   1.697   3.986 -0.3678 -0.3724 -0.1871
  804MOL0     C 8463   8.220   1.568   3.952  0.3333  0.1956  0.0821
  804MOL0     O 8464   8.344   1.550   3.891 -0.0142  0.4951 -0.5619
  804MOL0     C 8465   8.364   1.619   3.765  0.5770  0.0146 -0.2153
  804MOL0     C 8466   8.260   1.563   3.662  1.6230 -0.3745 -0.3863
  804MOL0     C 8467   8.263   1.640   3.527 -0.2999 -0.0695 -0.1148
  804MOL0     C 8468   8.172   1.581   3.419 -0.2556  0.3427  0.1761
  804MOL0     C 8469   8.027   1.577   3.452 -0.4312  0.7440  0.1047
  804MOL0     C 8470   7.907   1.584   3.472  0.2290 -0.7855  0.7628
  804MOL0     C 8471   8.141   1.463   3.996  0.0676  0.2269 -0.1478
  804MOL0     C 8472   8.029   1.479   4.075 -0.3523 -0.0280 -0.3334
  804MOL0     H 8473   7.747   1.661   4.446  0.2778  0.8138 -1.1158
  804MOL0     H 8474   7.531   1.684   4.545 -2.6613  0.4565 -0.6325
  804MOL0     H 8475   7.329   1.745   4.529  2.0636 -1.7934  1.4970
  804MOL0     H 8476   7.161   1.687   4.530 -0.1916 -1.8984 -1.5156
  804MOL0     H 8477   7.366   1.578   4.718 -0.4516 -0.7469  0.6276
  804MOL0     H 8478   7.254   1.699   4.760  2.4189 -0.4363 -1.5042
  804MOL0     H 8479   7.065   1.520   4.742  0.7287  0.0777  2.6025
  804MOL0     H 8480   7.178   1.425   4.645  1.1397 -0.7100  1.3374
  804MOL0     H 8481   7.325   1.384   4.841  0.4174  0.6321 -0.9240
  804MOL0     H 8482   7.251   1.502   4.937  1.6487 -4.8078  3.6014
  804MOL0     H 8483   7.118   1.244   4.859 -0.5742 -0.0625  0.7346
  804MOL0     H 8484   7.154   1.293   5.020  0.1182 -0.5503  0.2685
  804MOL0     H 8485   6.981   1.478   4.992 -1.0395 -0.0080 -2.0447
  804MOL0     H 8486   6.915   1.391   4.846 -0.6275 -2.5129 -0.8084
  804MOL0     H 8487   6.945   1.183   5.007 -2.0977 -0.7398 -1.4798
  804MOL0     H 8488   6.960   1.306   5.132  1.3937  0.1941 -0.4650
  804MOL0     H 8489   6.715   1.228   5.090 -1.3230  2.2045  1.9727
  804MOL0     H 8490   6.722   1.322   4.937  0.2489  2.4807 -0.2667
  804MOL0     H 8491   6.688   1.345   5.314  3.1672 -2.0762 -2.0674
  804MOL0     H 8492   6.525   1.601   5.428 -0.7363 -1.1843 -2.1995
  804MOL0     H 8493   6.685   1.591   5.499  1.6860  1.3337 -0.3654
  804MOL0     H 8494   6.751   1.791   5.366  0.1687 -1.2016  0.8256
  804MOL0     H 8495   6.661   1.807   5.515  2.4871 -1.2638  0.5760
  804MOL0     H 8496   6.517   1.797   5.238  0.6831  1.1085  0.5323
  804MOL0     H 8497   6.588   1.948   5.309 -0.4297  0.9214  1.9462
  804MOL0     H 8498   6.409   1.932   5.483  0.8075  0.5920 -0.4206
  804MOL0     H 8499   6.359   1.776   5.398 -0.4709  0.6302  2.8068
  804MOL0     H 8500   6.186   1.937   5.519 -0.5649 -0.9575  0.2520
  804MOL0     H 8501   5.906   2.091   5.656 -0.2737  0.3253  0.3067
  804MOL0     H 8502   5.882   1.933   5.582  2.2681 -1.2001 -0.4611
  804MOL0     H 8503   6.028   1.967   5.669  0.7364 -0.9424 -0.3668
  804MOL0     H 8504   5.569   2.177   5.364 -0.9489  0.2099 -0.3470
  804MOL0     H 8505   5.334   2.225   5.402  0.3319  0.5349 -1.0018
  804MOL0     H 8506   5.226   2.508   5.727  0.0017 -0.7429  0.3100
  804MOL0     H 8507   5.074   2.442   5.682  0.1511  4.8443  1.3139
  804MOL0     H 8508   5.076   2.267   5.845 -2.3992  2.2700  3.0261
  804MOL0     H 8509   5.258   2.270   5.845 -1.8471 -1.9613  1.2713
  804MOL0     H 8510   5.150   2.526   5.928  1.5169 -0.2191 -1.4875
  804MOL0     H 8511   5.268   2.423   6.010  0.2657 -2.5616  2.5539
  804MOL0     H 8512   4.962   2.400   6.042 -1.4483 -1.8920  2.7848
  804MOL0     H 8513   5.073   2.276   6.089 -2.2563  0.5293  1.3380
  804MOL0     H 8514   5.064   2.583   6.177  0.8061  0.4468 -2.2539
  804MOL0     H 8515   5.184   2.466   6.241 -1.0559 -2.0484  1.2057
  804MOL0     H 8516   4.880   2.466   6.255  1.4022  3.2065 -0.5020
  804MOL0     H 8517   4.968   2.330   6.314 -0.2014  0.2636 -0.6182
  804MOL0     H 8518   5.087   2.455   6.488  3.9642  1.2668 -5.0671
  804MOL0     H 8519   4.908   2.481   6.500  1.6067 -1.2832  1.5208
  804MOL0     H 8520   4.952   2.700   6.372 -1.4272  0.9953  2.3197
  804MOL0     H 8521   5.124   2.681   6.363 -0.0585 -1.2781 -0.4572
  804MOL0     H 8522   5.445   2.417   5.776  2.6744 -1.6603  1.7157
  804MOL0     H 8523   5.663   2.369   5.735 -0.8529  2.3780  0.3066
  804MOL0     H 8524   6.021   2.269   5.197 -0.2372  1.0071  1.9567
  804MOL0     H 8525   6.231   2.157   5.156  0.8124 -0.3428 -0.2459
  804MOL0     H 8526   7.365   1.393   4.281 -1.8000 -0.8213  3.1047
  804MOL0     H 8527   7.587   1.371   4.164 -2.2648 -2.1094  0.6737
  804MOL0     H 8528   8.028   1.825   4.084 -0.4086  0.4889 -1.2828
  804MOL0     H 8529   8.233   1.788   3.969 -0.8919 -0.3562 -2.0515
  804MOL0     H 8530   8.359   1.726   3.785 -0.8910  0.7185 -3.6133
  804MOL0     H 8531   8.467   1.596   3.736  1.3482 -0.1384  2.4016
  804MOL0     H 8532   8.160   1.559   3.707  0.1454 -3.1242 -3.4625
  804MOL0     H 8533   8.280   1.461   3.626  1.3217 -0.3156 -0.7236
  804MOL0     H 8534   8.366   1.655   3.493 -0.3816 -1.8115 -1.2821
  804MOL0     H 8535   8.219   1.739   3.544 -1.5933 -0.5099 -0.7674
  804MOL0     H 8536   8.210   1.479   3.404  1.7227  0.1389  4.7737
  804MOL0     H 8537   8.197   1.634   3.326 -1.2098 -1.4372 -1.1536
  804MOL0     H 8538   7.802   1.594   3.488  0.1415  1.0134 -0.5695
  804MOL0     H 8539   8.164   1.361   3.969 -4.1424  0.0212 -4.2887
  804MOL0     H 8540   7.984   1.392   4.123  0.2128  0.4552  1.1290
  805MOL0     O 8541   8.924   8.222   0.424 -0.6864 -0.1937  0.1551
  805MOL0     C 8542   8.978   8.289   0.513 -0.9604 -1.3644 -0.3723
  805MOL0     O 8543   8.921   8.328   0.628  0.1299  0.5561  0.1121
  805MOL0     C 8544   8.809   8.255   0.672 -0.3005 -1.0050 -0.6551
  805MOL0     C 8545   8.812   8.126   0.713 -0.0125  0.4652 -0.1372
  805MOL0     C 8546   8.692   8.060   0.749 -0.0311  0.3317  0.8874
  805MOL0     C 8547   8.571   8.118   0.760  1.0423 -0.4189  0.3395
  805MOL0     O 8548   8.456   8.057   0.796 -0.9322 -0.4559  0.3937
  805MOL0     C 8549   8.388   7.992   0.690 -0.3689  0.7139 -0.7211
  805MOL0     C 8550   8.297   8.092   0.628 -0.2350  0.0236 -0.1837
  805MOL0     C 8551   8.178   8.146   0.718 -0.7895 -0.2306  0.6344
  805MOL0     C 8552   8.055   8.051   0.718 -0.5912 -0.6956  0.1560
  805MOL0     C 8553   7.960   8.078   0.839  0.2939  0.4235 -0.3925
  805MOL0     C 8554   7.878   7.952   0.888  0.1196 -0.8892  1.1412
  805MOL0     C 8555   7.800   7.981   1.019  0.5446  0.1638  1.1624
  805MOL0     C 8556   7.703   7.866   1.057  0.9408  0.7950  1.2411
  805MOL0     N 8557   7.582   7.874   0.969  0.3078  0.7192  0.4229
  805MOL0     C 8558   7.508   7.986   0.958 -0.6222 -0.2747  0.3375
  805MOL0     C 8559   7.409   7.963   0.860 -0.0896  0.0251 -0.0656
  805MOL0     C 8560   7.288   8.054   0.855 -0.9978  0.4488  0.9527
  805MOL0     C 8561   7.217   8.055   0.724 -0.1465 -0.2655  0.5060
  805MOL0     C 8562   7.137   7.918   0.703  0.4634 -0.7606 -0.5792
  805MOL0     C 8563   7.037   7.923   0.586  0.1740  0.2705  0.4067
  805MOL0     O 8564   6.909   7.972   0.637  0.0469 -0.5528 -0.2044
  805MOL0     C 8565   6.815   8.010   0.544  0.5730 -0.6161 -0.1436
  805MOL0     C 8566   6.768   8.138   0.525 -0.0134 -0.7886  0.1427
  805MOL0     C 8567   6.691   8.181   0.416 -0.3456  0.7540  0.2545
  805MOL0     C 8568   6.644   8.324   0.409  0.5677 -0.0641  0.3987
  805MOL0     C 8569   6.641   8.085   0.323  0.2059  0.5739  0.0861
  805MOL0     C 8570   6.547   8.132   0.214 -0.1348 -0.2547  0.0107
  805MOL0     O 8571   6.417   8.072   0.213 -0.0929 -0.3833  0.0326
  805MOL0     C 8572   6.354   8.062   0.334 -0.0405 -0.3815 -0.1311
  805MOL0     C 8573   6.346   7.938   0.399  1.8884  0.1151  1.5047
  805MOL0     C 8574   6.291   7.929   0.527  0.3123 -0.4412  0.3960
  805MOL0     C 8575   6.231   8.038   0.594  0.6275 -0.3310 -0.3324
  805MOL0     O 8576   6.178   8.042   0.717  0.7623 -0.2722 -0.4193
  805MOL0     C 8577   6.188   7.929   0.802 -0.1404 -0.9294 -0.1409
  805MOL0     C 8578   6.150   7.966   0.948  0.7380 -0.3368 -0.1663
  805MOL0     C 8579   6.039   8.075   0.959  0.4903  0.3908 -1.1815
  805MOL0     C 8580   5.893   8.026   0.939  0.1932 -0.7729  0.1915
  805MOL0     C 8581   5.802   8.107   1.029  0.6522  0.6098  0.0691
  805MOL0     C 8582   5.653   8.087   0.989 -0.4224  0.3095  0.6958
  805MOL0     C 8583   5.568   8.173   1.082 -0.2322  0.2661 -0.3044
  805MOL0     C 8584   5.419   8.153   1.049  0.2460  1.0842 -0.0555
  805MOL0    Cl 8585   5.326   8.256   1.154  0.0611  0.0965 -0.0467
  805MOL0     C 8586   6.231   8.161   0.520  0.5819  0.3086  0.2696
  805MOL0     C 8587   6.306   8.178   0.402  0.5127  0.5111  0.3590
  805MOL0     O 8588   6.596   8.200   0.128 -0.4470  0.0706  0.6440
  805MOL0     C 8589   6.679   7.954   0.344  0.7983 -0.0863  0.3645
  805MOL0     C 8590   6.761   7.915   0.450 -0.2254 -0.4218  0.9418
  805MOL0     N 8591   7.433   7.838   0.812  0.1350  0.0808 -0.2025
  805MOL0     N 8592   7.542   7.785   0.869  0.7674  1.3004 -0.1508
  805MOL0     C 8593   8.565   8.254   0.720 -0.5613 -0.4025  0.0339
  805MOL0     C 8594   8.686   8.321   0.683  0.0275 -1.3853 -0.4574
  805MOL0     C 8595   9.114   8.345   0.480 -0.4537 -0.2108 -0.1658
  805MOL0     C 8596   9.178   8.327   0.354  0.7859  0.1396  0.7201
  805MOL0     C 8597   9.291   8.389   0.328 -0.0116 -0.2250  0.4128
  805MOL0     C 8598   9.359   8.462   0.419 -0.6902  0.6283  0.6802
  805MOL0     O 8599   9.480   8.509   0.374  0.3245 -0.2162  0.0396
  805MOL0     C 8600   9.572   8.528   0.478 -0.0797  0.2810  0.6363
  805MOL0     C 8601   9.708   8.567   0.441  1.0636 -0.5559  0.3314
  805MOL0     C 8602   9.806   8.593   0.563 -0.6135 -0.6339  0.3390
  805MOL0     C 8603   9.952   8.546   0.535  0.6211  0.1805 -0.2527
  805MOL0     C 8604  10.023   8.562   0.661 -0.0710 -0.2261 -1.0449
  805MOL0     C 8605  10.100   8.573   0.751 -0.2123 -0.7619 -0.7661
  805MOL0     C 8606   9.302   8.487   0.538  0.2576 -0.2532  0.0405
  805MOL0     C 8607   9.172   8.441   0.570  0.9397 -0.3795  1.0927
  805MOL0     H 8608   8.900   8.063   0.711 -1.2059 -1.2970 -0.7615
  805MOL0     H 8609   8.707   7.954   0.764  1.3531  0.7124  2.5815
  805MOL0     H 8610   8.470   7.964   0.623  1.2156  3.3252 -0.0297
  805MOL0     H 8611   8.333   7.908   0.733 -0.0540 -0.0183 -1.7223
  805MOL0     H 8612   8.352   8.179   0.593 -0.4324  1.9017  3.5875
  805MOL0     H 8613   8.255   8.043   0.541  1.0742 -2.0434  0.2698
  805MOL0     H 8614   8.194   8.160   0.825 -2.9655 -2.1519  1.2932
  805MOL0     H 8615   8.150   8.239   0.667  1.0074  1.4276  2.4956
  805MOL0     H 8616   7.993   8.063   0.628 -0.1651  1.5953  0.1189
  805MOL0     H 8617   8.096   7.950   0.728 -0.1906 -0.6977 -1.2672
  805MOL0     H 8618   8.025   8.110   0.921  2.1591  1.9789 -2.3601
  805MOL0     H 8619   7.898   8.166   0.820  1.5755  0.9677 -2.3549
  805MOL0     H 8620   7.799   7.941   0.812 -2.5506  1.8044  3.2946
  805MOL0     H 8621   7.949   7.869   0.897  1.9609  0.6695  1.4546
  805MOL0     H 8622   7.867   8.016   1.099 -2.2392  3.4930  2.3298
  805MOL0     H 8623   7.741   8.069   0.991 -1.9793 -1.9450 -0.5379
  805MOL0     H 8624   7.676   7.864   1.163  2.0642  1.8638  1.5640
  805MOL0     H 8625   7.763   7.779   1.025  1.8360  2.4901 -2.1921
  805MOL0     H 8626   7.494   8.068   1.028 -1.9543  0.1520 -0.3773
  805MOL0     H 8627   7.227   8.036   0.944 -0.7620  1.0128  1.2361
  805MOL0     H 8628   7.321   8.157   0.870  0.7591  0.0214  0.3446
  805MOL0     H 8629   7.289   8.066   0.642 -1.0070 -1.5488 -0.4727
  805MOL0     H 8630   7.154   8.143   0.716  0.6290  0.3622  1.1827
  805MOL0     H 8631   7.075   7.909   0.793 -0.2321  1.3178 -0.7839
  805MOL0     H 8632   7.223   7.855   0.684  0.3832 -0.4515 -2.1119
  805MOL0     H 8633   7.024   7.820   0.551 -0.8148 -0.1145  1.8027
  805MOL0     H 8634   7.073   7.992   0.509 -0.5088  2.2637  1.7890
  805MOL0     H 8635   6.791   8.213   0.600 -0.4001 -0.4335 -0.0954
  805MOL0     H 8636   6.681   8.367   0.316 -0.9814  3.6598  1.3487
  805MOL0     H 8637   6.535   8.327   0.419  0.7580 -0.0076  3.1132
  805MOL0     H 8638   6.673   8.374   0.502  0.9825 -0.5900  0.5611
  805MOL0     H 8639   6.380   7.851   0.345 -1.3232 -1.0945  1.2353
  805MOL0     H 8640   6.284   7.831   0.573 -0.3344  0.2673  1.8818
  805MOL0     H 8641   6.131   7.843   0.765 -0.1782 -1.5270  1.2513
  805MOL0     H 8642   6.294   7.903   0.811  0.4650  1.9265  2.8313
  805MOL0     H 8643   6.120   7.882   1.012  0.4417  0.5139  0.8563
  805MOL0     H 8644   6.241   8.002   0.997  1.0425  1.8032 -2.0981
  805MOL0     H 8645   6.054   8.163   0.895  1.4171 -0.0529 -1.5845
  805MOL0     H 8646   6.057   8.102   1.063 -0.3570 -0.2700 -0.8531
  805MOL0     H 8647   5.857   8.023   0.836  1.4979  2.1511 -0.4473
  805MOL0     H 8648   5.880   7.928   0.985  0.6091 -1.5929 -1.3620
  805MOL0     H 8649   5.824   8.214   1.032  3.7958  0.0502  1.7787
  805MOL0     H 8650   5.808   8.070   1.132  1.5002 -0.7821 -0.4535
  805MOL0     H 8651   5.640   8.123   0.887  3.7334  1.3432  0.3366
  805MOL0     H 8652   5.625   7.981   0.994  1.9457 -0.5269 -1.4725
  805MOL0     H 8653   5.596   8.276   1.059  0.9630  0.4105  1.5450
  805MOL0     H 8654   5.597   8.146   1.184  1.6835 -0.8416 -1.0824
  805MOL0     H 8655   5.388   8.048   1.058 -0.5409  0.8352 -3.8834
  805MOL0     H 8656   5.387   8.180   0.948  0.2606 -1.2399 -0.7397
  805MOL0     H 8657   6.193   8.244   0.578 -0.9727 -1.1835  1.5075
  805MOL0     H 8658   6.308   8.274   0.352 -2.7703  1.6369  2.1076
  805MOL0     H 8659   6.637   7.878   0.279  1.2235 -0.1317  0.1379
  805MOL0     H 8660   6.800   7.815   0.469 -1.0742 -0.3192  3.4829
  805MOL0     H 8661   8.470   8.306   0.734 -0.2916 -0.1830  1.1425
  805MOL0     H 8662   8.682   8.426   0.660  0.4151 -0.7711  1.9468
  805MOL0     H 8663   9.130   8.262   0.280 -1.3665  2.4562 -0.0530
  805MOL0     H 8664   9.324   8.399   0.225  3.0071 -4.8826  0.6512
  805MOL0     H 8665   9.540   8.602   0.552  0.6434 -1.0540  2.3516
  805MOL0     H 8666   9.585   8.438   0.539  2.9445  0.0490 -0.2235
  805MOL0     H 8667   9.702   8.664   0.390 -0.7205  0.6419  2.5909
  805MOL0     H 8668   9.751   8.492   0.374  1.3057  1.9252 -2.5200
  805MOL0     H 8669   9.768   8.533   0.645 -3.1131  0.1049 -0.1932
  805MOL0     H 8670   9.804   8.700   0.588 -0.4617 -0.9180  1.5954
  805MOL0     H 8671  10.006   8.599   0.457  2.4874 -2.0198 -0.5558
  805MOL0     H 8672   9.946   8.437   0.520 -3.0578  0.2786 -0.5671
  805MOL0     H 8673  10.164   8.597   0.833 -1.3725 -0.7863  0.1762
  805MOL0     H 8674   9.345   8.553   0.612  0.0143  2.5747 -2.2004
  805MOL0     H 8675   9.118   8.460   0.662 -0.5196  1.1606  0.0049
  806MOL0     O 8676   1.241   4.423   9.797 -0.0086 -0.4067  0.3816
  806MOL0     C 8677   1.347   4.427   9.723 -0.8196 -0.4760  0.1820
  806MOL0     O 8678   1.353   4.420   9.587  0.4235 -0.1887  0.0363
  806MOL0     C 8679   1.245   4.486   9.531 -0.2336 -0.9243  1.0305
  806MOL0     C 8680   1.210   4.609   9.581  0.4416 -0.2121 -0.8295
  806MOL0     C 8681   1.111   4.685   9.520 -0.0725  0.4990  0.2301
  806MOL0     C 8682   1.050   4.632   9.398 -1.0250  0.0643 -0.0784
  806MOL0     O 8683   0.963   4.709   9.328 -0.4352  0.0679  0.5652
  806MOL0     C 8684   0.848   4.732   9.409 -0.4193  0.5829 -0.4119
  806MOL0     C 8685   0.747   4.621   9.419  0.1408 -0.0336 -0.5902
  806MOL0     C 8686   0.711   4.575   9.274 -0.1138 -0.1519  0.0445
  806MOL0     C 8687   0.588   4.488   9.254  0.6928  0.5889  0.4444
  806MOL0     C 8688   0.589   4.425   9.107 -0.3332 -0.5843 -0.1084
  806MOL0     C 8689   0.463   4.353   9.076  0.0564 -0.0911 -0.3886
  806MOL0     C 8690   0.456   4.328   8.924 -0.1453 -0.7101  0.5589
  806MOL0     C 8691   0.327   4.253   8.866  0.1181 -0.4620 -0.1262
  806MOL0     N 8692   0.328   4.246   8.719 -0.3414  0.2519  0.4615
  806MOL0     C 8693   0.318   4.344   8.622  0.1477 -0.3513 -0.3534
  806MOL0     C 8694   0.351   4.282   8.504 -0.3482  0.4779 -0.2421
  806MOL0     C 8695   0.364   4.348   8.369  0.1533  0.3346 -0.3745
  806MOL0     C 8696   0.233   4.354   8.291 -0.1450 -0.4473 -0.0405
  806MOL0     C 8697   0.251   4.458   8.186  0.3566 -0.5551  0.6819
  806MOL0     C 8698   0.117   4.486   8.110 -0.3192 -0.7065  0.0390
  806MOL0     O 8699   0.141   4.621   8.063 -0.1772  0.6296  0.0247
  806MOL0     C 8700   0.068   4.651   7.950 -0.3250 -0.6024  0.7064
  806MOL0     C 8701   0.142   4.701   7.837 -0.8881 -0.4434  0.1957
  806MOL0     C 8702   0.080   4.725   7.719  0.3977 -0.3921 -0.2517
  806MOL0     C 8703   0.156   4.790   7.606  0.2757 -0.0344 -0.7305
  806MOL0     C 8704  -0.063   4.691   7.704 -0.5302  1.1461 -0.0141
  806MOL0     C 8705  -0.131   4.707   7.573  0.9405  0.5899  0.0285
  806MOL0     O 8706  -0.220   4.602   7.551 -0.2065  0.1079  0.0616
  806MOL0     C 8707  -0.286   4.603   7.433  0.8300 -0.0128  0.6698
  806MOL0     C 8708  -0.428   4.585   7.440  0.0028 -0.0676  0.4120
  806MOL0     C 8709  -0.494   4.570   7.316 -0.1204  0.2958 -0.3172
  806MOL0     C 8710  -0.430   4.586   7.193 -0.8686  0.4207  0.2062
  806MOL0     O 8711  -0.510   4.580   7.080  0.1755 -0.6373  0.4905
  806MOL0     C 8712  -0.498   4.689   6.985  0.0920  0.0915 -0.2982
  806MOL0     C 8713  -0.505   4.841   7.038  0.8370  0.3771  0.3457
  806MOL0     C 8714  -0.630   4.914   6.983  0.5883  0.1011 -0.4025
  806MOL0     C 8715  -0.650   5.046   7.048  0.2338  0.2294 -0.9317
  806MOL0     C 8716  -0.752   5.136   6.985 -0.5313  0.2941  0.1716
  806MOL0     C 8717  -0.884   5.078   7.001  0.3113 -0.4970  0.5987
  806MOL0     C 8718  -0.964   5.084   6.874 -0.2566  0.5567  0.0963
  806MOL0     C 8719  -1.074   5.186   6.875  0.0278  1.1069 -0.1314
  806MOL0    Cl 8720  -1.006   5.339   6.917 -0.1311 -0.3461 -0.0190
  806MOL0     C 8721  -0.292   4.606   7.187  0.0728  0.3172  0.3691
  806MOL0     C 8722  -0.223   4.613   7.304 -0.3540 -0.2111 -0.0430
  806MOL0     O 8723  -0.108   4.797   7.496  0.4102 -0.1319  0.1099
  806MOL0     C 8724  -0.129   4.630   7.809  0.4240  0.0951 -0.3158
  806MOL0     C 8725  -0.065   4.609   7.936 -0.2444 -0.3454  0.2349
  806MOL0     N 8726   0.393   4.149   8.528 -0.6221 -0.9313 -0.0855
  806MOL0     N 8727   0.371   4.128   8.656  0.4832  0.2207 -0.5252
  806MOL0     C 8728   1.084   4.506   9.345 -0.3433  0.3470 -1.2132
  806MOL0     C 8729   1.179   4.433   9.419 -0.3627  0.5414  0.6542
  806MOL0     C 8730   1.474   4.413   9.802 -0.2998 -0.7489  0.4836
  806MOL0     C 8731   1.473   4.411   9.941  0.0610  0.0100  0.3712
  806MOL0     C 8732   1.588   4.372  10.020  1.0310  0.5264 -0.1318
  806MOL0     C 8733   1.715   4.349   9.953  0.4620 -0.5275  0.7724
  806MOL0     O 8734   1.822   4.329  10.034 -0.0099  0.1124  0.2217
  806MOL0     C 8735   1.950   4.362   9.972 -0.2455 -0.1893 -0.5508
  806MOL0     C 8736   2.067   4.352  10.075  0.0837 -0.7016  0.9580
  806MOL0     C 8737   2.044   4.446  10.186 -0.3714 -0.6062  0.5707
  806MOL0     C 8738   2.175   4.432  10.278  0.6875  0.2757 -0.4656
  806MOL0     C 8739   2.193   4.312  10.358 -0.6688 -0.1713 -0.1944
  806MOL0     C 8740   2.198   4.206  10.421  0.2495 -0.8052 -0.0131
  806MOL0     C 8741   1.719   4.353   9.810  0.1303 -0.4142 -0.0367
  806MOL0     C 8742   1.604   4.391   9.737 -0.2847  0.5017 -0.1384
  806MOL0     H 8743   1.250   4.652   9.673  1.1756 -0.3513 -1.0819
  806MOL0     H 8744   1.083   4.786   9.546  0.6624  1.1546 -1.3695
  806MOL0     H 8745   0.874   4.753   9.514 -1.9509 -1.5237  0.4517
  806MOL0     H 8746   0.799   4.820   9.367 -0.4943  2.4205  3.1230
  806MOL0     H 8747   0.796   4.540   9.474  0.3055 -0.7750 -1.7951
  806MOL0     H 8748   0.660   4.654   9.477 -1.6537 -1.5601 -2.2368
  806MOL0     H 8749   0.711   4.657   9.201 -1.5897  1.8698  2.1554
  806MOL0     H 8750   0.791   4.505   9.250 -1.9798 -2.9409  1.3759
  806MOL0     H 8751   0.555   4.425   9.338  0.7980  1.9862  1.5719
  806MOL0     H 8752   0.499   4.552   9.256  1.3024  1.4540  0.2810
  806MOL0     H 8753   0.622   4.511   9.048 -0.1781 -0.3290  0.3454
  806MOL0     H 8754   0.673   4.357   9.128 -0.6496 -0.6244  1.1054
  806MOL0     H 8755   0.452   4.253   9.121 -1.5562  0.5764  0.7818
  806MOL0     H 8756   0.381   4.417   9.109 -0.1992 -1.6264  2.2770
  806MOL0     H 8757   0.471   4.424   8.873 -0.3243 -0.5612  0.7805
  806MOL0     H 8758   0.532   4.261   8.884 -2.2715 -2.6712 -0.4199
  806MOL0     H 8759   0.237   4.299   8.907  0.6744 -0.7872  1.5538
  806MOL0     H 8760   0.329   4.154   8.913  2.0553 -0.4722 -0.1204
  806MOL0     H 8761   0.282   4.444   8.643  2.6310  0.3006  1.2611
  806MOL0     H 8762   0.398   4.451   8.385 -0.6131  1.2743 -3.9064
  806MOL0     H 8763   0.429   4.286   8.308  0.0800 -3.1070  2.7074
  806MOL0     H 8764   0.159   4.387   8.365  0.5971 -0.8108  0.8796
  806MOL0     H 8765   0.203   4.261   8.242 -0.3543 -0.0955 -0.5976
  806MOL0     H 8766   0.328   4.426   8.114  1.6988  4.0930 -0.3099
  806MOL0     H 8767   0.286   4.548   8.238 -0.6600  0.8858 -1.0092
  806MOL0     H 8768   0.034   4.481   8.181  1.2659  1.6807  2.2175
  806MOL0     H 8769   0.097   4.420   8.025 -1.0809 -0.7429  0.2388
  806MOL0     H 8770   0.249   4.716   7.845 -1.1994  2.4028  0.2267
  806MOL0     H 8771   0.263   4.799   7.627 -0.1114  2.0474  0.6615
  806MOL0     H 8772   0.152   4.730   7.515  3.9492 -0.3167 -0.8313
  806MOL0     H 8773   0.122   4.894   7.603  1.5061  0.3725 -3.4279
  806MOL0     H 8774  -0.476   4.575   7.537 -1.9770  0.9872 -0.4175
  806MOL0     H 8775  -0.597   4.536   7.324 -0.1306  0.4361  0.2556
  806MOL0     H 8776  -0.408   4.686   6.923  2.1062  3.5836  2.1134
  806MOL0     H 8777  -0.587   4.678   6.922  1.4934 -0.2288 -2.3288
  806MOL0     H 8778  -0.496   4.840   7.147 -2.4926 -0.9738  0.7343
  806MOL0     H 8779  -0.419   4.884   6.986  2.5605 -3.2773 -0.1034
  806MOL0     H 8780  -0.717   4.848   6.991 -1.4993  2.4304 -1.9320
  806MOL0     H 8781  -0.611   4.929   6.876  0.6474 -1.0238 -0.5618
  806MOL0     H 8782  -0.673   5.024   7.153  2.5655 -0.3778 -0.4917
  806MOL0     H 8783  -0.551   5.092   7.059 -0.2525  1.5921 -1.8669
  806MOL0     H 8784  -0.728   5.142   6.878  2.3940  2.3783  0.8142
  806MOL0     H 8785  -0.750   5.240   7.020 -1.0451  0.9846 -1.7131
  806MOL0     H 8786  -0.886   4.974   7.034 -0.4334 -1.0840 -1.1545
  806MOL0     H 8787  -0.937   5.138   7.076 -3.4742 -0.7937 -1.5388
  806MOL0     H 8788  -1.002   4.981   6.871  1.5321 -0.1592  0.7037
  806MOL0     H 8789  -0.904   5.098   6.784  0.2565  1.5081  0.5773
  806MOL0     H 8790  -1.156   5.175   6.947 -0.3080  0.6437 -0.5710
  806MOL0     H 8791  -1.127   5.186   6.779  0.9306 -1.3281 -0.7021
  806MOL0     H 8792  -0.240   4.617   7.092 -0.7284  0.0126 -0.1137
  806MOL0     H 8793  -0.114   4.620   7.298 -0.3574 -0.3235 -0.2514
  806MOL0     H 8794  -0.228   4.585   7.815  0.4345  0.2287  1.1709
  806MOL0     H 8795  -0.115   4.576   8.027  1.9581 -1.8147  0.9737
  806MOL0     H 8796   1.050   4.473   9.247  0.7690 -0.0775 -1.4650
  806MOL0     H 8797   1.212   4.334   9.390  0.4732  0.1605  2.7896
  806MOL0     H 8798   1.381   4.422   9.997 -0.5854  0.4204 -0.7489
  806MOL0     H 8799   1.582   4.369  10.129 -2.9332  0.0998 -0.2413
  806MOL0     H 8800   1.971   4.298   9.886 -2.1582  0.5902 -1.6638
  806MOL0     H 8801   1.960   4.462   9.928  0.3192 -0.8815 -2.0360
  806MOL0     H 8802   2.166   4.382  10.040 -0.0633  1.2888  2.1027
  806MOL0     H 8803   2.077   4.253  10.121  0.6775 -1.1511 -0.0977
  806MOL0     H 8804   1.952   4.428  10.242 -1.7747  4.9855  0.6077
  806MOL0     H 8805   2.042   4.545  10.140  2.1937 -0.1582  1.2813
  806MOL0     H 8806   2.180   4.520  10.343 -2.2129 -0.1741  0.5028
  806MOL0     H 8807   2.261   4.445  10.213  0.5822 -0.1385 -0.6906
  806MOL0     H 8808   2.211   4.107  10.460 -0.0231 -1.8812 -2.4370
  806MOL0     H 8809   1.803   4.338   9.743  1.1946  2.1718  0.6215
  806MOL0     H 8810   1.621   4.396   9.630  0.9373 -0.8213 -0.0299
  807MOL0     O 8811   7.479   6.604   8.070  1.0498  0.4052  0.6709
  807MOL0     C 8812   7.483   6.676   8.168  0.2298 -1.0828  0.1875
  807MOL0     O 8813   7.574   6.777   8.187 -0.0973  0.0806  0.5125
  807MOL0     C 8814   7.684   6.808   8.109  0.1115 -0.3303  0.0509
  807MOL0     C 8815   7.722   6.943   8.102 -0.1951 -0.3323  0.6625
  807MOL0     C 8816   7.832   6.992   8.035 -0.9231 -0.1136  0.6697
  807MOL0     C 8817   7.924   6.902   7.979 -0.4017  0.2248 -0.8270
  807MOL0     O 8818   8.031   6.940   7.900  0.0669  0.3810  0.0729
  807MOL0     C 8819   8.092   7.074   7.927  0.1525 -0.1606  0.2552
  807MOL0     C 8820   8.218   7.085   7.842 -0.6993 -0.2345 -0.1592
  807MOL0     C 8821   8.277   7.222   7.868 -0.0733 -0.0292 -0.0420
  807MOL0     C 8822   8.402   7.241   7.771  0.4839 -0.4908 -0.9043
  807MOL0     C 8823   8.521   7.145   7.775 -0.0543 -0.4991  0.0302
  807MOL0     C 8824   8.593   7.163   7.902 -0.3656 -0.6089 -0.1224
  807MOL0     C 8825   8.725   7.085   7.904 -0.0756 -0.1851  0.0110
  807MOL0     C 8826   8.719   6.935   7.873  0.2420 -0.5261 -0.0384
  807MOL0     N 8827   8.848   6.873   7.896 -0.3498  0.1823 -0.1743
  807MOL0     C 8828   8.969   6.942   7.898  0.2589  0.0460 -0.8942
  807MOL0     C 8829   9.061   6.843   7.888  0.8455 -0.0291 -0.2217
  807MOL0     C 8830   9.211   6.875   7.865 -0.3170  0.1816 -0.8161
  807MOL0     C 8831   9.291   6.884   7.996  0.4426 -0.2023  0.0457
  807MOL0     C 8832   9.405   6.987   7.987 -0.3878 -0.4177  0.0473
  807MOL0     C 8833   9.509   6.960   7.874  0.6072  0.1542 -0.5619
  807MOL0     O 8834   9.609   7.051   7.891  0.2357 -0.1037 -0.7146
  807MOL0     C 8835   9.735   7.020   7.941 -0.1514 -0.4294  0.2452
  807MOL0     C 8836   9.764   6.902   8.011  0.7131  0.0251 -0.9274
  807MOL0     C 8837   9.887   6.871   8.067 -0.6412  0.7411  0.2274
  807MOL0     C 8838   9.904   6.742   8.154  0.2706  0.2587 -0.4544
  807MOL0     C 8839   9.992   6.965   8.043 -0.4235 -0.0038 -0.4222
  807MOL0     C 8840  10.133   6.931   8.076  0.5258  0.0306  0.2997
  807MOL0     O 8841  10.223   7.031   8.082  0.1911 -0.5940 -0.3841
  807MOL0     C 8842  10.327   7.006   8.161 -0.9709 -0.0722 -0.8310
  807MOL0     C 8843  10.335   7.038   8.302 -0.4944  0.3793 -0.4454
  807MOL0     C 8844  10.449   7.011   8.385 -0.2489 -1.0374 -1.1256
  807MOL0     C 8845  10.565   6.966   8.326 -0.1109 -0.6042  0.2202
  807MOL0     O 8846  10.681   6.946   8.391 -0.7310  0.0482  0.2951
  807MOL0     C 8847  10.702   7.010   8.523  0.1146  0.1423 -0.7014
  807MOL0     C 8848  10.706   7.166   8.525 -1.0332  0.0625  0.2956
  807MOL0     C 8849  10.794   7.220   8.416 -0.6653 -0.7442 -0.4220
  807MOL0     C 8850  10.815   7.369   8.436  0.1394 -0.9559  0.0508
  807MOL0     C 8851  10.694   7.445   8.380  0.2236  0.1553 -0.1625
  807MOL0     C 8852  10.709   7.587   8.427  0.2224 -1.0782  0.6364
  807MOL0     C 8853  10.819   7.661   8.349 -0.0351 -0.4427  0.3364
  807MOL0     C 8854  10.789   7.814   8.386 -0.0554 -0.8354  0.3902
  807MOL0    Cl 8855  10.897   7.922   8.309  0.6682  0.1273 -0.7119
  807MOL0     C 8856  10.567   6.942   8.188  0.6335  0.5836 -0.5171
  807MOL0     C 8857  10.444   6.956   8.108 -0.1268  0.1102 -0.4255
  807MOL0     O 8858  10.167   6.814   8.077 -0.5095  0.9780 -0.0795
  807MOL0     C 8859   9.969   7.080   7.962 -0.1161  0.5927  0.4335
  807MOL0     C 8860   9.843   7.096   7.902 -0.2837  0.4211  0.5764
  807MOL0     N 8861   8.992   6.722   7.874 -0.0165  0.4871  0.2357
  807MOL0     N 8862   8.868   6.736   7.884 -0.1486  0.1673 -0.2547
  807MOL0     C 8863   7.886   6.761   7.980 -0.6950  0.5315 -0.7292
  807MOL0     C 8864   7.767   6.718   8.046 -0.7322  0.4378 -0.5051
  807MOL0     C 8865   7.372   6.670   8.267  0.7579 -0.1782 -0.1665
  807MOL0     C 8866   7.359   6.769   8.368 -0.6571  0.1612  0.3862
  807MOL0     C 8867   7.258   6.763   8.457 -0.4270  0.1419 -0.5966
  807MOL0     C 8868   7.164   6.657   8.458  0.3915 -0.2888  0.3062
  807MOL0     O 8869   7.063   6.643   8.539  0.4701 -0.3177  0.4650
  807MOL0     C 8870   7.019   6.755   8.617 -0.3227 -0.2369 -0.3975
  807MOL0     C 8871   6.886   6.707   8.679  0.0993 -0.2791 -0.1676
  807MOL0     C 8872   6.827   6.835   8.756  0.2625 -1.1508 -0.5960
  807MOL0     C 8873   6.695   6.799   8.837  0.3150  0.5983 -0.5252
  807MOL0     C 8874   6.593   6.747   8.744 -0.0749 -0.0166 -0.0754
  807MOL0     C 8875   6.492   6.721   8.681 -0.0923  0.6399  0.2969
  807MOL0     C 8876   7.176   6.566   8.357  0.5093 -0.1342  0.9486
  807MOL0     C 8877   7.278   6.569   8.264  0.1458 -0.5057 -0.9971
  807MOL0     H 8878   7.660   7.016   8.153  0.3344 -0.3352  1.3202
  807MOL0     H 8879   7.845   7.100   8.034 -1.8356  0.0057  0.7815
  807MOL0     H 8880   8.025   7.158   7.905 -0.8596 -1.2542 -1.0226
  807MOL0     H 8881   8.110   7.074   8.035  0.6906  2.2627  0.2059
  807MOL0     H 8882   8.294   7.008   7.854 -0.1467  0.2729 -0.3239
  807MOL0     H 8883   8.183   7.079   7.738  2.4867  2.4015 -1.5679
  807MOL0     H 8884   8.209   7.307   7.854 -0.5710 -0.1281  1.5948
  807MOL0     H 8885   8.315   7.219   7.971 -0.1205 -1.2221 -0.0444
  807MOL0     H 8886   8.367   7.254   7.668 -1.3468 -1.5633 -0.4599
  807MOL0     H 8887   8.443   7.339   7.798 -2.6262  0.5159  0.5494
  807MOL0     H 8888   8.490   7.041   7.762 -3.1448  0.0493  1.9466
  807MOL0     H 8889   8.580   7.173   7.688 -1.2517  1.8933 -0.0868
  807MOL0     H 8890   8.629   7.264   7.922  0.7997 -0.0501 -4.0599
  807MOL0     H 8891   8.529   7.129   7.984 -0.2100  3.3154  1.8607
  807MOL0     H 8892   8.787   7.136   7.830  1.3640  1.3818  2.1823
  807MOL0     H 8893   8.764   7.101   8.005 -2.5420  1.3578  0.7986
  807MOL0     H 8894   8.694   6.923   7.767  0.0432  0.6530 -0.1299
  807MOL0     H 8895   8.657   6.889   7.951  3.3373 -1.9593  1.8070
  807MOL0     H 8896   8.978   7.050   7.892  0.9343  0.0282 -0.2931
  807MOL0     H 8897   9.247   6.799   7.794  0.7583 -0.2915  0.2073
  807MOL0     H 8898   9.217   6.976   7.823  1.4100  0.6927  0.5341
  807MOL0     H 8899   9.330   6.787   8.028  0.1432 -0.3355  0.0166
  807MOL0     H 8900   9.221   6.908   8.077 -0.4514  2.8663 -1.4947
  807MOL0     H 8901   9.465   6.984   8.079 -2.0795  1.2296  1.2936
  807MOL0     H 8902   9.362   7.086   7.970  1.2344 -0.0422 -2.3882
  807MOL0     H 8903   9.458   6.980   7.779  1.3067  0.7374 -0.8203
  807MOL0     H 8904   9.555   6.861   7.865  2.1583  0.3892  2.9627
  807MOL0     H 8905   9.674   6.844   8.031  0.8919 -0.0344 -0.2731
  807MOL0     H 8906   9.806   6.706   8.185  0.7039 -0.2749  0.3359
  807MOL0     H 8907   9.950   6.668   8.088 -0.8197 -1.1622  0.3407
  807MOL0     H 8908   9.962   6.751   8.246 -1.0797  0.5707  0.3791
  807MOL0     H 8909  10.238   7.068   8.341 -0.3936 -0.4538  0.5024
  807MOL0     H 8910  10.442   7.030   8.491 -3.0834  0.9416 -1.5301
  807MOL0     H 8911  10.626   6.970   8.591 -0.0339  0.1648 -0.8531
  807MOL0     H 8912  10.801   6.975   8.552 -0.3047 -1.1030 -0.7101
  807MOL0     H 8913  10.608   7.214   8.515  0.4874  3.0348 -1.8789
  807MOL0     H 8914  10.747   7.197   8.622 -0.2541 -1.4063  0.4548
  807MOL0     H 8915  10.772   7.196   8.311  3.5460 -0.6490 -1.5173
  807MOL0     H 8916  10.890   7.168   8.429 -0.9753 -0.9518  1.2421
  807MOL0     H 8917  10.836   7.400   8.539  3.2759  1.2186 -1.0913
  807MOL0     H 8918  10.906   7.396   8.381  0.1049 -2.1597 -0.6160
  807MOL0     H 8919  10.601   7.413   8.428  0.3042 -1.4115 -0.9810
  807MOL0     H 8920  10.683   7.436   8.272 -0.9524  2.9652 -0.3704
  807MOL0     H 8921  10.611   7.628   8.402 -0.1805 -2.6721 -0.4944
  807MOL0     H 8922  10.716   7.588   8.537 -4.4067 -0.3661  1.1141
  807MOL0     H 8923  10.806   7.641   8.242 -0.0692  2.5237 -0.2899
  807MOL0     H 8924  10.921   7.632   8.378 -0.1436 -1.6288 -0.4001
  807MOL0     H 8925  10.806   7.821   8.494 -1.1862 -1.8186  0.6506
  807MOL0     H 8926  10.690   7.851   8.358  0.4880  0.9881  0.7278
  807MOL0     H 8927  10.667   6.927   8.149  1.5028 -1.0795  2.0825
  807MOL0     H 8928  10.437   6.946   8.000 -0.3318  0.4617 -0.4456
  807MOL0     H 8929  10.053   7.147   7.953  0.1958  0.5968  2.7563
  807MOL0     H 8930   9.828   7.183   7.838  1.2192  0.3853  0.1414
  807MOL0     H 8931   7.946   6.685   7.932  0.5758  1.4194 -0.5850
  807MOL0     H 8932   7.737   6.613   8.046 -0.9457  0.4859 -1.7031
  807MOL0     H 8933   7.434   6.847   8.371 -0.4361  0.0764 -1.7316
  807MOL0     H 8934   7.243   6.843   8.529  1.7677 -0.5778  0.7427
  807MOL0     H 8935   7.085   6.778   8.701  1.6905 -1.9041 -1.4571
  807MOL0     H 8936   7.021   6.849   8.561  7.0881  0.5595  0.3114
  807MOL0     H 8937   6.893   6.634   8.760 -1.9175  1.1141  1.3751
  807MOL0     H 8938   6.811   6.681   8.604 -0.3797  1.5419 -0.3879
  807MOL0     H 8939   6.810   6.921   8.691  1.8912 -0.4729 -0.1822
  807MOL0     H 8940   6.907   6.863   8.825 -0.4861 -3.2566  1.2296
  807MOL0     H 8941   6.657   6.892   8.881 -0.7584 -0.9209  1.9256
  807MOL0     H 8942   6.704   6.731   8.922 -0.7786  2.6852  1.3772
  807MOL0     H 8943   6.407   6.705   8.619 -0.1627  0.9989  0.3021
  807MOL0     H 8944   7.104   6.485   8.354  0.5433 -0.1614  0.8728
  807MOL0     H 8945   7.278   6.494   8.185 -0.8128 -2.3849  0.6985
  808MOL0     O 8946  10.562   0.534   1.539  0.0643 -0.5816 -0.5904
  808MOL0     C 8947  10.645   0.554   1.455  0.7394 -0.2587  0.3536
  808MOL0     O 8948  10.620   0.630   1.344 -0.5119 -0.6119 -0.3266
  808MOL0     C 8949  10.495   0.658   1.303  0.7474  0.4413 -0.4894
  808MOL0     C 8950  10.380   0.569   1.309 -0.4177  0.0700 -0.4829
  808MOL0     C 8951  10.256   0.619   1.260 -0.2930  1.1488 -0.1195
  808MOL0     C 8952  10.247   0.740   1.190 -0.2369 -0.8810  0.4870
  808MOL0     O 8953  10.124   0.785   1.151 -1.0027 -0.4806  0.3350
  808MOL0     C 8954  10.098   0.921   1.162 -0.3689  1.4345 -0.0277
  808MOL0     C 8955   9.944   0.936   1.183  0.4819 -0.0027 -0.3362
  808MOL0     C 8956   9.920   1.092   1.178 -0.0451  0.5503 -0.3849
  808MOL0     C 8957   9.782   1.132   1.211 -0.1078 -0.4479 -0.4611
  808MOL0     C 8958   9.681   1.089   1.103  0.0059 -0.7899  0.1682
  808MOL0     C 8959   9.538   1.144   1.113 -1.0741 -0.4133 -0.2321
  808MOL0     C 8960   9.449   1.099   0.994  0.4091 -0.1715  0.2296
  808MOL0     C 8961   9.398   0.955   1.036  0.1599 -0.4969  0.1441
  808MOL0     N 8962   9.291   0.909   0.946  0.1979 -0.3837 -0.3251
  808MOL0     C 8963   9.243   0.969   0.830 -0.3752  0.5238  0.3869
  808MOL0     C 8964   9.164   0.869   0.774 -0.7307  0.6254  0.0455
  808MOL0     C 8965   9.100   0.869   0.644 -0.0585  0.8504  0.2768
  808MOL0     C 8966   8.949   0.856   0.643  0.6281  0.5330 -0.0972
  808MOL0     C 8967   8.875   0.995   0.652  0.8947  0.1641 -0.5332
  808MOL0     C 8968   8.723   0.976   0.641 -0.2843  0.8152  0.4194
  808MOL0     O 8969   8.697   0.947   0.503  0.0479  0.6088  0.2711
  808MOL0     C 8970   8.566   0.921   0.457 -0.0001  0.5467 -0.2931
  808MOL0     C 8971   8.550   0.856   0.335 -0.1747 -0.1442  0.8752
  808MOL0     C 8972   8.426   0.824   0.272 -0.6947 -0.3475 -0.7665
  808MOL0     C 8973   8.449   0.752   0.133  0.4267 -0.5219 -0.1528
  808MOL0     C 8974   8.310   0.860   0.340  0.8849 -0.3677 -0.3892
  808MOL0     C 8975   8.174   0.831   0.302  0.1014 -1.1195  0.1181
  808MOL0     O 8976   8.083   0.932   0.332 -0.1341  0.5073  0.1153
  808MOL0     C 8977   7.950   0.908   0.338  0.0383 -0.1191  0.1907
  808MOL0     C 8978   7.867   1.017   0.304  0.9574 -0.1494  0.3041
  808MOL0     C 8979   7.727   0.991   0.311 -0.4092  0.3388 -0.4769
  808MOL0     C 8980   7.677   0.876   0.357 -0.1846  0.2639  0.4962
  808MOL0     O 8981   7.540   0.851   0.343 -0.2632  0.3459  0.5509
  808MOL0     C 8982   7.496   0.838   0.206 -0.1743 -0.0372 -0.0813
  808MOL0     C 8983   7.379   0.738   0.203 -0.2651  0.6172  0.2190
  808MOL0     C 8984   7.422   0.593   0.235  0.2898 -0.2967 -0.2435
  808MOL0     C 8985   7.306   0.490   0.222 -1.0832 -0.2107  0.0611
  808MOL0     C 8986   7.332   0.360   0.304  0.4909  0.7489  0.3798
  808MOL0     C 8987   7.417   0.262   0.229 -0.5948 -0.3359  0.2716
  808MOL0     C 8988   7.455   0.144   0.331  0.0043  0.5319 -0.0281
  808MOL0     C 8989   7.512   0.013   0.260 -0.4246  0.0656 -0.2021
  808MOL0    Cl 8990   7.673   0.078   0.223  0.2796  0.3807  0.1572
  808MOL0     C 8991   7.755   0.772   0.405 -1.4356 -0.3753  0.7305
  808MOL0     C 8992   7.891   0.787   0.386 -0.1106 -1.1074  1.0565
  808MOL0     O 8993   8.150   0.724   0.244  0.4347 -0.4247  0.0354
  808MOL0     C 8994   8.326   0.929   0.460  0.1162 -0.4055  0.1183
  808MOL0     C 8995   8.451   0.947   0.529  0.8331 -0.5619 -0.8424
  808MOL0     N 8996   9.176   0.759   0.854 -0.7135  0.1575 -0.4326
  808MOL0     N 8997   9.249   0.783   0.953 -0.4054  0.9886  0.3476
  808MOL0     C 8998  10.368   0.822   1.178  0.5870  0.3793 -0.2773
  808MOL0     C 8999  10.490   0.778   1.235 -0.5544 -0.0773 -0.6308
  808MOL0     C 9000  10.768   0.479   1.467  0.7361 -0.4448  0.0539
  808MOL0     C 9001  10.846   0.456   1.350  0.9192  0.7966 -0.1066
  808MOL0     C 9002  10.966   0.393   1.366  0.1391 -1.1069  0.2498
  808MOL0     C 9003  11.018   0.356   1.489  0.3797 -0.3183  0.9370
  808MOL0     O 9004  11.139   0.301   1.514 -0.3149  0.3068 -0.3179
  808MOL0     C 9005  11.219   0.254   1.401 -0.9146  0.1389 -0.3744
  808MOL0     C 9006  11.357   0.199   1.451  0.4273  0.9501  0.6451
  808MOL0     C 9007  11.420   0.120   1.337 -0.1229  0.5605 -0.8461
  808MOL0     C 9008  11.571   0.095   1.374  0.1676  0.2025  0.8260
  808MOL0     C 9009  11.583   0.015   1.492  0.0055 -0.3954 -0.0643
  808MOL0     C 9010  11.604  -0.054   1.587  0.5760 -0.9416 -0.5750
  808MOL0     C 9011  10.936   0.367   1.595  0.8409  1.3761  0.0308
  808MOL0     C 9012  10.813   0.431   1.588  0.3294  0.4303 -0.2722
  808MOL0     H 9013  10.403   0.477   1.362  0.5403  0.8798  0.5584
  808MOL0     H 9014  10.165   0.560   1.266  0.6242 -1.1628 -4.4098
  808MOL0     H 9015  10.158   0.971   1.239 -2.5792  3.0428  0.7647
  808MOL0     H 9016  10.122   0.970   1.067 -0.7561 -2.1798 -2.1336
  808MOL0     H 9017   9.869   0.891   1.117  0.8651 -0.6363 -0.3511
  808MOL0     H 9018   9.927   0.894   1.283 -0.5626  3.2666  1.0045
  808MOL0     H 9019   9.982   1.136   1.257  0.3145 -0.1076 -0.2945
  808MOL0     H 9020   9.952   1.138   1.084  4.3790  3.0495  2.0057
  808MOL0     H 9021   9.763   1.079   1.305 -0.9398 -2.4311 -1.6690
  808MOL0     H 9022   9.778   1.240   1.227  2.8146  0.2291 -3.3745
  808MOL0     H 9023   9.712   1.114   1.001 -2.6321 -2.7798 -1.2564
  808MOL0     H 9024   9.670   0.980   1.099 -1.9507 -0.6796  1.1412
  808MOL0     H 9025   9.487   1.109   1.203  3.8120  0.9927  3.5522
  808MOL0     H 9026   9.542   1.254   1.117 -0.3561 -0.4492  0.1912
  808MOL0     H 9027   9.355   1.156   0.995 -0.2808 -1.0936  3.5654
  808MOL0     H 9028   9.504   1.084   0.901 -0.7524 -2.6521 -0.1488
  808MOL0     H 9029   9.367   0.947   1.141 -1.1372 -0.8759 -0.2360
  808MOL0     H 9030   9.482   0.885   1.030 -0.8744 -1.6841 -4.4575
  808MOL0     H 9031   9.253   1.063   0.778  2.3535 -0.1755 -0.4911
  808MOL0     H 9032   9.148   0.956   0.599  1.5367 -0.3894 -0.5286
  808MOL0     H 9033   9.149   0.781   0.600 -2.9840 -2.2109  2.6150
  808MOL0     H 9034   8.915   0.798   0.729 -0.8195  0.8125 -0.4597
  808MOL0     H 9035   8.913   0.810   0.551 -0.6989 -1.5553  1.3769
  808MOL0     H 9036   8.910   1.067   0.577  0.0105  1.9592  0.7082
  808MOL0     H 9037   8.885   1.034   0.753 -0.3110 -2.5562  0.7343
  808MOL0     H 9038   8.669   1.070   0.659  0.2872  1.1308  0.5015
  808MOL0     H 9039   8.687   0.898   0.708  0.4249 -1.0851 -1.3132
  808MOL0     H 9040   8.646   0.847   0.285 -0.9576 -1.4481 -0.4604
  808MOL0     H 9041   8.430   0.809   0.041  0.3508  2.0955  1.3824
  808MOL0     H 9042   8.554   0.724   0.131  1.1216  1.6127  1.6124
  808MOL0     H 9043   8.386   0.663   0.137 -0.0573 -0.1487  0.7370
  808MOL0     H 9044   7.917   1.109   0.277  2.0702 -1.0332 -0.7331
  808MOL0     H 9045   7.666   1.077   0.285  1.7801  2.2854  0.4503
  808MOL0     H 9046   7.471   0.941   0.180  1.3854  0.3337 -0.2048
  808MOL0     H 9047   7.581   0.813   0.141 -1.6547  0.5924 -2.3722
  808MOL0     H 9048   7.298   0.778   0.264 -0.4815  0.2882  0.1445
  808MOL0     H 9049   7.340   0.740   0.101  2.0824 -1.4487 -0.8359
  808MOL0     H 9050   7.450   0.578   0.340  1.6785 -0.2026 -0.5781
  808MOL0     H 9051   7.503   0.559   0.170 -0.5109  1.2532 -2.1175
  808MOL0     H 9052   7.214   0.531   0.264 -0.3209  0.3408  1.2522
  808MOL0     H 9053   7.281   0.464   0.119 -2.2915  1.5283 -0.1238
  808MOL0     H 9054   7.251   0.288   0.320  3.0727 -2.1021  1.7309
  808MOL0     H 9055   7.374   0.394   0.399  2.8680  3.3620 -1.4516
  808MOL0     H 9056   7.374   0.229   0.134  0.2327  1.7412 -0.8981
  808MOL0     H 9057   7.509   0.314   0.200 -0.2746 -1.9245 -1.8778
  808MOL0     H 9058   7.365   0.111   0.383  1.8026 -1.0502  2.2748
  808MOL0     H 9059   7.529   0.184   0.401  0.1103 -1.3188  0.9723
  808MOL0     H 9060   7.462  -0.012   0.166 -2.4432  0.5627  0.6758
  808MOL0     H 9061   7.518  -0.078   0.320  4.0984  0.3240  0.0861
  808MOL0     H 9062   7.710   0.682   0.446  0.6343 -1.5262  0.6149
  808MOL0     H 9063   7.959   0.707   0.414  1.7411 -0.1843 -0.5075
  808MOL0     H 9064   8.248   0.974   0.521 -0.4456  0.2327 -1.0438
  808MOL0     H 9065   8.445   1.002   0.623  0.4428 -0.1114 -1.1262
  808MOL0     H 9066  10.353   0.918   1.129  0.7850 -0.1758 -1.4721
  808MOL0     H 9067  10.581   0.837   1.225  0.1254 -1.1968 -1.3556
  808MOL0     H 9068  10.814   0.492   1.252 -0.7830 -2.3869 -0.8662
  808MOL0     H 9069  11.035   0.375   1.284  0.4992 -0.8622  0.4987
  808MOL0     H 9070  11.150   0.182   1.355 -1.1209 -0.0907  0.2737
  808MOL0     H 9071  11.231   0.333   1.327  1.3504 -1.4040 -1.7677
  808MOL0     H 9072  11.337   0.144   1.543  0.2540  0.0806  0.1059
  808MOL0     H 9073  11.420   0.287   1.465  2.6120  0.1662 -3.0011
  808MOL0     H 9074  11.423   0.189   1.252  0.3246 -1.4764 -2.5558
  808MOL0     H 9075  11.374   0.026   1.307  0.2679  0.2623 -0.5166
  808MOL0     H 9076  11.613   0.194   1.398 -1.1464  0.5487  1.8589
  808MOL0     H 9077  11.626   0.055   1.289 -0.9057  2.9453 -1.3168
  808MOL0     H 9078  11.616  -0.119   1.672  0.3467 -0.4205 -0.1355
  808MOL0     H 9079  10.973   0.318   1.685  4.5319 -4.9514 -4.1076
  808MOL0     H 9080  10.759   0.436   1.682  1.7568  0.0624  0.6061
  809MOL0     O 9081   7.906   3.417   6.924 -0.3972  0.1113 -0.1124
  809MOL0     C 9082   7.904   3.483   6.820  0.7759 -0.1436 -0.3881
  809MOL0     O 9083   7.796   3.540   6.763 -0.3635  0.7769 -0.5181
  809MOL0     C 9084   7.682   3.544   6.835 -0.0756  0.2523  0.0838
  809MOL0     C 9085   7.615   3.434   6.881 -0.6318 -0.0516  0.1674
  809MOL0     C 9086   7.501   3.444   6.963  0.8382  0.1299  0.0388
  809MOL0     C 9087   7.438   3.567   6.984 -0.7127  0.2131 -0.6201
  809MOL0     O 9088   7.326   3.579   7.052  0.3265  0.0774  0.3827
  809MOL0     C 9089   7.323   3.686   7.150  0.9759  0.4472  0.2064
  809MOL0     C 9090   7.186   3.691   7.235 -0.3142  0.2765  0.7803
  809MOL0     C 9091   7.186   3.810   7.322 -0.1854 -0.8870 -0.7751
  809MOL0     C 9092   7.061   3.812   7.417  0.0623  0.5712 -0.0769
  809MOL0     C 9093   6.999   3.952   7.444 -0.7406  0.5198 -0.0608
  809MOL0     C 9094   6.861   3.948   7.519 -0.2260 -0.2824  0.5016
  809MOL0     C 9095   6.745   3.915   7.424 -0.9374 -0.0648 -0.8580
  809MOL0     C 9096   6.603   3.957   7.472 -0.5800  0.9480  0.2651
  809MOL0     N 9097   6.552   3.914   7.606 -0.0959  0.8339  0.0681
  809MOL0     C 9098   6.517   3.792   7.647  0.5012  0.0053  1.0183
  809MOL0     C 9099   6.480   3.807   7.775 -0.6565  0.5569 -0.1258
  809MOL0     C 9100   6.408   3.706   7.857 -0.0854 -0.0700 -0.0669
  809MOL0     C 9101   6.294   3.778   7.940  0.6121  0.2371 -0.8189
  809MOL0     C 9102   6.179   3.829   7.865 -0.3372 -0.3648  0.6223
  809MOL0     C 9103   6.058   3.871   7.952 -0.4015  0.2330  1.0750
  809MOL0     O 9104   5.947   3.906   7.865 -0.1779  0.0469 -0.0172
  809MOL0     C 9105   5.830   3.928   7.920  0.1133 -1.1372 -0.8416
  809MOL0     C 9106   5.717   3.888   7.848 -0.2567 -0.5481  0.8249
  809MOL0     C 9107   5.584   3.905   7.870  0.1814  0.1014 -0.3608
  809MOL0     C 9108   5.487   3.836   7.777 -0.4979  0.3808 -0.7988
  809MOL0     C 9109   5.545   3.984   7.982 -0.8579 -0.3817  0.1033
  809MOL0     C 9110   5.409   4.005   8.037  0.0507  0.7400  0.7357
  809MOL0     O 9111   5.391   4.098   8.126  0.2055  0.0752  0.4011
  809MOL0     C 9112   5.260   4.122   8.174 -0.1386  0.4496  0.6572
  809MOL0     C 9113   5.226   4.251   8.186 -0.4339 -0.9774 -0.0271
  809MOL0     C 9114   5.095   4.297   8.234 -0.6570  0.6310 -0.4816
  809MOL0     C 9115   4.997   4.204   8.260  1.5267  0.1330 -0.3531
  809MOL0     O 9116   4.867   4.255   8.294  0.4953  0.3165 -0.7353
  809MOL0     C 9117   4.748   4.179   8.259  0.3995 -0.7426 -0.4339
  809MOL0     C 9118   4.619   4.253   8.311 -0.4519 -0.6529 -0.0115
  809MOL0     C 9119   4.502   4.230   8.220 -0.4973  0.1738 -0.5681
  809MOL0     C 9120   4.444   4.091   8.257  0.0309 -0.4808  0.3527
  809MOL0     C 9121   4.325   4.039   8.168 -0.5206  0.2059  0.2733
  809MOL0     C 9122   4.328   4.075   8.015  0.1237  0.0143  0.2375
  809MOL0     C 9123   4.205   4.018   7.938  0.1345 -0.0450  0.3958
  809MOL0     C 9124   4.246   4.010   7.797 -0.1313 -0.5175 -0.0013
  809MOL0    Cl 9125   4.107   3.987   7.699 -0.0633 -0.1121  0.0368
  809MOL0     C 9126   5.035   4.067   8.263 -0.3145 -0.2673  0.4997
  809MOL0     C 9127   5.163   4.023   8.206  0.6956  0.6113 -0.2228
  809MOL0     O 9128   5.325   3.922   7.992 -0.0045  0.7818 -0.0854
  809MOL0     C 9129   5.657   4.032   8.060  0.1294  0.9967  0.6643
  809MOL0     C 9130   5.794   4.018   8.023 -0.2975  0.6505 -0.3911
  809MOL0     N 9131   6.511   3.925   7.818 -0.2612 -0.0836 -0.4205
  809MOL0     N 9132   6.546   3.996   7.719 -0.5284 -0.0763  0.7958
  809MOL0     C 9133   7.491   3.687   6.924 -0.2349 -0.0919  0.1977
  809MOL0     C 9134   7.613   3.665   6.851 -0.3090  0.0573  0.0738
  809MOL0     C 9135   8.032   3.490   6.742  0.4841  0.2996 -0.5788
  809MOL0     C 9136   8.153   3.431   6.786  0.0633 -1.0918  0.4312
  809MOL0     C 9137   8.271   3.443   6.699  0.5771  1.1472 -0.4993
  809MOL0     C 9138   8.273   3.508   6.576  0.9543 -0.9525  1.6280
  809MOL0     O 9139   8.386   3.517   6.497 -0.7527 -0.2769  0.6125
  809MOL0     C 9140   8.367   3.498   6.356  0.7091  0.1406 -0.0263
  809MOL0     C 9141   8.485   3.526   6.266  0.4061  1.6516 -0.0353
  809MOL0     C 9142   8.568   3.646   6.308  0.4355 -1.1511 -1.4143
  809MOL0     C 9143   8.687   3.679   6.223  0.0818 -0.6655 -0.2112
  809MOL0     C 9144   8.771   3.559   6.207  0.0098  0.3548 -0.0374
  809MOL0     C 9145   8.850   3.458   6.185 -0.3125 -1.6155 -0.2104
  809MOL0     C 9146   8.148   3.555   6.528  0.2124  0.1306  0.6470
  809MOL0     C 9147   8.036   3.553   6.615 -0.2778 -0.6168  0.2668
  809MOL0     H 9148   7.639   3.334   6.848 -0.1135  0.4000 -0.8644
  809MOL0     H 9149   7.443   3.359   6.996 -1.6864  0.9848 -1.8566
  809MOL0     H 9150   7.409   3.686   7.217  0.1571  0.3579  1.2953
  809MOL0     H 9151   7.319   3.783   7.098 -0.1794  0.7308  0.7854
  809MOL0     H 9152   7.102   3.705   7.166  0.7049  4.1601  0.0751
  809MOL0     H 9153   7.175   3.603   7.299 -0.2284 -1.6538 -1.6952
  809MOL0     H 9154   7.274   3.818   7.386 -2.4370  0.3497  2.4457
  809MOL0     H 9155   7.183   3.893   7.251 -0.0385 -1.4744 -1.4768
  809MOL0     H 9156   6.981   3.753   7.370 -0.0236  1.1490 -0.6730
  809MOL0     H 9157   7.074   3.771   7.517 -0.6417  3.6637  1.3936
  809MOL0     H 9158   7.071   3.998   7.512 -2.0443  2.0033  0.3802
  809MOL0     H 9159   6.991   3.998   7.345  2.4566  2.3169  0.3617
  809MOL0     H 9160   6.861   3.878   7.603  0.8237  0.9451  1.5726
  809MOL0     H 9161   6.853   4.053   7.548  1.0886 -0.1908  0.5968
  809MOL0     H 9162   6.771   3.959   7.327  1.9046  0.6527  0.1391
  809MOL0     H 9163   6.736   3.806   7.428 -0.3980 -0.1371 -1.4296
  809MOL0     H 9164   6.552   3.913   7.386  3.3294 -3.4056 -0.2001
  809MOL0     H 9165   6.597   4.065   7.454  1.0011  0.9054 -0.6359
  809MOL0     H 9166   6.496   3.707   7.582 -0.2151 -0.4010  1.7696
  809MOL0     H 9167   6.361   3.632   7.792 -0.3065  0.7669 -0.8780
  809MOL0     H 9168   6.475   3.659   7.930  0.7956  0.2053 -0.6868
  809MOL0     H 9169   6.339   3.854   8.004  0.7591 -1.8827  1.8045
  809MOL0     H 9170   6.256   3.701   8.008 -0.6594  1.7179  0.2090
  809MOL0     H 9171   6.147   3.747   7.800  0.0333  1.7376 -2.4260
  809MOL0     H 9172   6.221   3.904   7.797 -1.2278  2.8186  3.2795
  809MOL0     H 9173   6.073   3.964   8.007 -1.5693  0.5928  0.8296
  809MOL0     H 9174   6.041   3.794   8.027  0.1516 -2.4358 -1.3602
  809MOL0     H 9175   5.742   3.829   7.761  0.5681 -2.5438  2.3509
  809MOL0     H 9176   5.396   3.892   7.751 -0.7743  0.7826  0.8973
  809MOL0     H 9177   5.535   3.802   7.685 -2.9555 -4.5735 -0.5680
  809MOL0     H 9178   5.466   3.737   7.819  1.9182  0.6228  1.2233
  809MOL0     H 9179   5.304   4.319   8.153  0.3469 -2.6553 -1.8015
  809MOL0     H 9180   5.077   4.404   8.239 -0.8091  0.5448  1.2707
  809MOL0     H 9181   4.753   4.172   8.150 -0.9850  3.6629 -0.9758
  809MOL0     H 9182   4.745   4.081   8.307 -2.3151 -1.7053 -2.2838
  809MOL0     H 9183   4.603   4.229   8.416 -1.4817 -1.7483 -0.4052
  809MOL0     H 9184   4.617   4.363   8.306 -3.3495 -0.3684  3.1293
  809MOL0     H 9185   4.531   4.232   8.115 -0.0182 -0.7740 -0.4726
  809MOL0     H 9186   4.429   4.310   8.235 -1.3685 -0.2501 -2.3125
  809MOL0     H 9187   4.522   4.015   8.249  0.9856  0.5579 -0.4595
  809MOL0     H 9188   4.406   4.085   8.360 -4.6265 -1.5676 -1.2196
  809MOL0     H 9189   4.227   4.064   8.207 -0.3737  0.5505  0.4245
  809MOL0     H 9190   4.326   3.930   8.183  2.8778  0.0184 -0.4425
  809MOL0     H 9191   4.336   4.184   8.003  4.0510 -0.3917 -2.9990
  809MOL0     H 9192   4.419   4.043   7.964  1.0309 -0.1162  1.8497
  809MOL0     H 9193   4.122   4.075   7.980  1.4196  1.4787  0.9913
  809MOL0     H 9194   4.193   3.916   7.975 -0.5707  0.0695  0.5053
  809MOL0     H 9195   4.321   3.931   7.785 -1.1420 -1.5501  0.3028
  809MOL0     H 9196   4.284   4.108   7.767 -0.6599 -0.4267 -0.3844
  809MOL0     H 9197   4.965   3.996   8.305  0.0211 -0.0263  1.4910
  809MOL0     H 9198   5.198   3.921   8.211  1.4942  0.9177  1.1527
  809MOL0     H 9199   5.656   4.109   8.137 -0.2676  2.8272 -1.0940
  809MOL0     H 9200   5.863   4.087   8.070  0.3936 -1.8225  2.6075
  809MOL0     H 9201   7.448   3.786   6.915  1.4020  0.5345 -1.2664
  809MOL0     H 9202   7.653   3.758   6.811 -0.7865  1.0763  1.8394
  809MOL0     H 9203   8.154   3.377   6.880 -0.7384 -0.0733  1.0514
  809MOL0     H 9204   8.360   3.399   6.742 -0.4461  0.1803  0.6883
  809MOL0     H 9205   8.333   3.395   6.348 -1.4565  0.4596  3.0553
  809MOL0     H 9206   8.285   3.563   6.322  1.0376  0.6059  0.0508
  809MOL0     H 9207   8.451   3.528   6.161  1.9626 -2.1862 -0.7698
  809MOL0     H 9208   8.545   3.435   6.261  1.5259  2.3036  1.2557
  809MOL0     H 9209   8.600   3.632   6.412 -3.8138 -2.4178 -0.0851
  809MOL0     H 9210   8.508   3.737   6.313  2.7238  0.4104  0.9604
  809MOL0     H 9211   8.729   3.758   6.286  3.3634 -0.8578 -1.9301
  809MOL0     H 9212   8.656   3.729   6.131 -1.2298  0.8906  1.0128
  809MOL0     H 9213   8.925   3.383   6.180  1.0998 -0.2530 -0.3640
  809MOL0     H 9214   8.137   3.602   6.431  1.4632  0.3249  0.5788
  809MOL0     H 9215   7.941   3.577   6.566 -1.1739 -1.6036  1.4631
  810MOL0     O 9216   2.259   1.808   6.994  0.1834  0.3678 -0.3788
  810MOL0     C 9217   2.235   1.780   7.113  0.7364  0.7506  0.1078
  810MOL0     O 9218   2.112   1.772   7.168  0.0513  1.0220  0.2135
  810MOL0     C 9219   1.999   1.795   7.098  0.7998  0.1286 -0.0730
  810MOL0     C 9220   1.899   1.873   7.160  0.0399  0.6978 -0.1557
  810MOL0     C 9221   1.772   1.879   7.108  0.0249 -0.4112  0.4716
  810MOL0     C 9222   1.750   1.842   6.972 -0.0439  0.4483  0.0646
  810MOL0     O 9223   1.627   1.869   6.908 -0.6657  0.0479  0.7088
  810MOL0     C 9224   1.514   1.908   6.977  0.2540 -0.1182 -0.0278
  810MOL0     C 9225   1.407   1.952   6.881  0.3418 -0.2383  0.1161
  810MOL0     C 9226   1.346   1.832   6.814 -0.2364  0.3229 -0.6377
  810MOL0     C 9227   1.288   1.855   6.663  0.2387 -0.9611  0.1305
  810MOL0     C 9228   1.176   1.758   6.625 -0.8821  0.2514  0.0027
  810MOL0     C 9229   1.086   1.824   6.515 -0.2378 -1.2798  0.2495
  810MOL0     C 9230   0.992   1.710   6.474 -0.5742  0.2445 -0.4543
  810MOL0     C 9231   0.882   1.775   6.388  0.9386 -0.6087 -0.9460
  810MOL0     N 9232   0.770   1.825   6.478  0.7737 -0.8823 -0.0797
  810MOL0     C 9233   0.732   1.958   6.500  1.0159  0.7210 -0.3337
  810MOL0     C 9234   0.621   1.947   6.575 -1.1313  0.1262 -0.4591
  810MOL0     C 9235   0.524   2.058   6.613 -1.0184  0.5463 -0.2610
  810MOL0     C 9236   0.570   2.133   6.737 -0.3571  0.4216  0.6211
  810MOL0     C 9237   0.571   2.056   6.868 -0.2650  0.6045 -0.3295
  810MOL0     C 9238   0.415   2.020   6.896  1.3258  0.8510 -0.1877
  810MOL0     O 9239   0.397   1.944   7.020  0.1157  0.7626 -0.0989
  810MOL0     C 9240   0.431   1.813   7.035  0.2024  1.2102 -0.5598
  810MOL0     C 9241   0.439   1.763   7.162  0.3338  0.4767 -0.5044
  810MOL0     C 9242   0.479   1.633   7.195 -0.2288  1.0385  1.5781
  810MOL0     C 9243   0.489   1.589   7.340 -0.2118 -0.5339 -0.5652
  810MOL0     C 9244   0.510   1.532   7.092  0.6348  0.2416  0.3556
  810MOL0     C 9245   0.533   1.387   7.111 -0.0410  0.3184  0.2643
  810MOL0     O 9246   0.523   1.294   7.005 -0.0205 -0.1745  0.0507
  810MOL0     C 9247   0.575   1.171   7.020 -0.2846  0.4259  0.3218
  810MOL0     C 9248   0.706   1.150   7.071  0.4290 -0.9832  0.1836
  810MOL0     C 9249   0.759   1.025   7.075 -0.0207 -0.1057 -0.8238
  810MOL0     C 9250   0.685   0.912   7.031 -0.3130 -0.0833  0.1585
  810MOL0     O 9251   0.757   0.799   7.021 -0.4190 -0.3448  0.7522
  810MOL0     C 9252   0.705   0.678   7.076  0.3415 -0.0495  0.0664
  810MOL0     C 9253   0.819   0.585   7.072  0.2932 -0.9310  0.4052
  810MOL0     C 9254   0.932   0.621   7.169  0.1836  0.5323 -0.4657
  810MOL0     C 9255   1.066   0.572   7.114  0.3712  0.1221  0.0060
  810MOL0     C 9256   1.183   0.633   7.189 -0.9177 -0.9002 -0.3533
  810MOL0     C 9257   1.186   0.599   7.341 -1.3453  0.0506  0.4671
  810MOL0     C 9258   1.175   0.455   7.379  0.3300  0.4033 -0.2669
  810MOL0     C 9259   1.182   0.429   7.531  0.1161  0.2777 -0.2411
  810MOL0    Cl 9260   1.050   0.473   7.627  0.1686  0.4400 -0.1173
  810MOL0     C 9261   0.548   0.926   6.998  0.1833 -0.7582  0.1792
  810MOL0     C 9262   0.489   1.060   6.988  0.2382  0.9875 -0.7614
  810MOL0     O 9263   0.590   1.357   7.214 -1.3425 -0.8073 -0.2959
  810MOL0     C 9264   0.509   1.583   6.957  0.1805  0.0595  0.0653
  810MOL0     C 9265   0.468   1.721   6.931 -0.0656  0.1879  0.1631
  810MOL0     N 9266   0.594   1.818   6.612  0.3720  0.2794 -0.3954
  810MOL0     N 9267   0.685   1.744   6.541  0.3341 -0.3975 -0.7683
  810MOL0     C 9268   1.857   1.783   6.900  1.0279  0.5688  0.2915
  810MOL0     C 9269   1.978   1.757   6.965  0.4773  0.3646  0.2897
  810MOL0     C 9270   2.355   1.773   7.201  0.0592  0.1461 -0.5299
  810MOL0     C 9271   2.341   1.744   7.344  0.0805 -0.3293  0.2810
  810MOL0     C 9272   2.452   1.727   7.433  0.2546  0.0453 -0.2651
  810MOL0     C 9273   2.579   1.755   7.374  0.1605  0.1072  0.4431
  810MOL0     O 9274   2.691   1.750   7.459  0.1968 -0.1300  0.4935
  810MOL0     C 9275   2.759   1.877   7.482  0.4503  0.4101 -0.3895
  810MOL0     C 9276   2.733   1.923   7.630  0.2528  0.5341 -0.0624
  810MOL0     C 9277   2.604   1.988   7.635 -0.2796  0.6298 -1.1049
  810MOL0     C 9278   2.589   2.053   7.774  0.4486 -0.6638 -0.0222
  810MOL0     C 9279   2.448   2.092   7.795 -0.5599  0.0945 -1.3015
  810MOL0     C 9280   2.333   2.107   7.820  0.4932 -1.4240  0.1137
  810MOL0     C 9281   2.590   1.776   7.235  0.4388  0.4250 -0.1245
  810MOL0     C 9282   2.482   1.777   7.148  0.2009 -0.6386 -0.0963
  810MOL0     H 9283   1.919   1.920   7.255  0.6459 -0.1003  0.1193
  810MOL0     H 9284   1.695   1.924   7.170  1.1405  2.0140  0.2176
  810MOL0     H 9285   1.487   1.822   7.039 -1.4458  0.7369  0.4933
  810MOL0     H 9286   1.532   1.989   7.048 -1.4873 -0.7925  1.2605
  810MOL0     H 9287   1.328   2.004   6.937  1.7656 -0.3851  2.3615
  810MOL0     H 9288   1.448   2.019   6.805 -2.7399  0.3457 -1.2041
  810MOL0     H 9289   1.413   1.745   6.810 -1.0197 -0.2507 -2.5542
  810MOL0     H 9290   1.257   1.812   6.873  1.9763 -0.1063  2.8474
  810MOL0     H 9291   1.251   1.957   6.657 -0.6130 -0.9971  3.1304
  810MOL0     H 9292   1.375   1.851   6.596  0.8613  3.1177  0.4389
  810MOL0     H 9293   1.223   1.663   6.600  2.4417  2.0151 -1.0519
  810MOL0     H 9294   1.117   1.737   6.715 -0.9438 -1.3577 -0.3914
  810MOL0     H 9295   1.029   1.913   6.544  2.6683  0.9429 -0.3517
  810MOL0     H 9296   1.155   1.846   6.432  2.3301  1.9790  2.9373
  810MOL0     H 9297   1.055   1.638   6.422 -0.6080 -0.0950 -0.0297
  810MOL0     H 9298   0.946   1.663   6.562 -2.2291  0.8030 -0.9867
  810MOL0     H 9299   0.834   1.700   6.324 -3.1302  0.0668  0.9490
  810MOL0     H 9300   0.930   1.854   6.330  0.3557  1.9327  1.8143
  810MOL0     H 9301   0.779   2.045   6.454 -0.8606  1.4261 -1.0299
  810MOL0     H 9302   0.521   2.108   6.516 -3.6165 -1.5274 -1.3887
  810MOL0     H 9303   0.423   2.016   6.623 -1.1440  1.2432  1.6427
  810MOL0     H 9304   0.515   2.228   6.741  1.9336  1.8457  0.3962
  810MOL0     H 9305   0.676   2.158   6.729  0.0355 -1.4670 -0.5607
  810MOL0     H 9306   0.597   2.138   6.935  0.3743  0.6048 -0.5749
  810MOL0     H 9307   0.635   1.968   6.878  0.6797  0.8783 -3.0717
  810MOL0     H 9308   0.376   1.965   6.810  1.7781  2.2860 -1.3506
  810MOL0     H 9309   0.358   2.113   6.898  1.0902  0.7131 -0.4330
  810MOL0     H 9310   0.424   1.834   7.242  2.3045 -0.1580  0.4907
  810MOL0     H 9311   0.447   1.661   7.410 -1.5319 -2.2303  0.4474
  810MOL0     H 9312   0.445   1.489   7.349  1.0590 -0.9304  2.2197
  810MOL0     H 9313   0.590   1.572   7.379 -0.4452  0.1181  0.3307
  810MOL0     H 9314   0.761   1.236   7.106 -1.8994  0.6897 -0.0452
  810MOL0     H 9315   0.867   1.014   7.088 -0.1032  0.3455  0.3701
  810MOL0     H 9316   0.671   0.683   7.179 -0.9429  0.2933 -0.3540
  810MOL0     H 9317   0.627   0.641   7.009 -0.0916  1.2492 -0.1723
  810MOL0     H 9318   0.783   0.484   7.093 -2.7690  0.0598  0.4907
  810MOL0     H 9319   0.846   0.577   6.966  1.6279 -1.4130  0.7630
  810MOL0     H 9320   0.893   0.588   7.265  0.6957  1.4297  0.0620
  810MOL0     H 9321   0.940   0.730   7.177  0.1401  0.8101 -3.2500
  810MOL0     H 9322   1.070   0.463   7.122  2.6949  0.1693  0.3785
  810MOL0     H 9323   1.072   0.606   7.010  0.7578  0.8085  0.2438
  810MOL0     H 9324   1.189   0.740   7.170  1.3911 -0.6035  1.5119
  810MOL0     H 9325   1.273   0.594   7.140  0.5349 -0.2339  1.6395
  810MOL0     H 9326   1.273   0.646   7.387 -1.0044 -0.4553  0.3533
  810MOL0     H 9327   1.102   0.657   7.381  0.0252  2.2946  0.2406
  810MOL0     H 9328   1.252   0.408   7.318  1.3917  0.2194  1.1537
  810MOL0     H 9329   1.073   0.420   7.359 -0.5113  1.4584  1.8289
  810MOL0     H 9330   1.269   0.480   7.574  0.1061 -0.6802  0.9603
  810MOL0     H 9331   1.182   0.321   7.544  2.8783  0.4982  2.7152
  810MOL0     H 9332   0.491   0.837   6.971 -0.5617 -0.7245  1.5637
  810MOL0     H 9333   0.391   1.079   6.945  1.5841  2.1724 -3.6082
  810MOL0     H 9334   0.531   1.528   6.866 -0.1008  1.8787 -1.1760
  810MOL0     H 9335   0.476   1.755   6.829  2.1482 -2.0368 -0.4994
  810MOL0     H 9336   1.833   1.757   6.797  0.3698  3.5095 -0.4041
  810MOL0     H 9337   2.051   1.708   6.902  0.6429  1.3208 -0.2912
  810MOL0     H 9338   2.238   1.736   7.379  0.0221  0.3308  0.2734
  810MOL0     H 9339   2.445   1.704   7.539 -0.5600 -1.9430 -0.7192
  810MOL0     H 9340   2.865   1.852   7.486  1.1276  2.8220 -1.6607
  810MOL0     H 9341   2.728   1.951   7.407 -0.8258  3.2793  2.6901
  810MOL0     H 9342   2.811   1.981   7.680  0.2149  0.1286  0.4788
  810MOL0     H 9343   2.731   1.835   7.695 -2.0502  0.5271 -0.0573
  810MOL0     H 9344   2.528   1.914   7.612 -1.0845  1.5331 -1.4243
  810MOL0     H 9345   2.586   2.070   7.564  0.1475  0.5989 -1.2531
  810MOL0     H 9346   2.656   2.139   7.778 -2.7515  2.2392 -2.4315
  810MOL0     H 9347   2.624   1.981   7.849  0.5942 -1.3712 -0.7611
  810MOL0     H 9348   2.234   2.146   7.832  1.8661  4.5437 -3.5480
  810MOL0     H 9349   2.693   1.785   7.203  0.6350 -2.2853 -0.4756
  810MOL0     H 9350   2.485   1.776   7.040  0.7282 -2.6894 -0.0997
  811MOL0     O 9351   6.037   4.081   1.064 -0.5125  0.9056 -1.0835
  811MOL0     C 9352   5.974   4.119   0.967 -0.2422  0.2428 -0.4468
  811MOL0     O 9353   6.003   4.093   0.837  1.3225 -0.3725 -0.2823
  811MOL0     C 9354   6.117   4.018   0.806 -0.4723  0.3672  0.0589
  811MOL0     C 9355   6.116   3.903   0.729  0.3454  0.6291  0.3654
  811MOL0     C 9356   6.232   3.825   0.712  0.0057  0.2258 -1.1765
  811MOL0     C 9357   6.352   3.852   0.779  0.2242 -0.6276  0.4580
  811MOL0     O 9358   6.467   3.774   0.776 -0.5504 -0.3851  0.1112
  811MOL0     C 9359   6.506   3.715   0.655 -0.8809  0.4556  0.1017
  811MOL0     C 9360   6.661   3.700   0.652  0.0090  0.7498 -0.1028
  811MOL0     C 9361   6.709   3.588   0.739 -0.1953 -0.6289 -0.0214
  811MOL0     C 9362   6.855   3.557   0.704  0.4365  0.8839  0.3741
  811MOL0     C 9363   6.909   3.436   0.788 -0.3259  0.4706  0.3361
  811MOL0     C 9364   7.015   3.351   0.719  0.0158  0.4328  0.1575
  811MOL0     C 9365   7.095   3.415   0.613 -0.5991 -0.3603  0.6442
  811MOL0     C 9366   7.241   3.361   0.613  0.1592 -0.0011 -0.3055
  811MOL0     N 9367   7.265   3.223   0.607  0.0719  0.0101 -0.3439
  811MOL0     C 9368   7.229   3.125   0.702  0.0876 -0.0408 -0.5930
  811MOL0     C 9369   7.258   3.006   0.640 -0.6072  0.2247  0.0218
  811MOL0     C 9370   7.242   2.864   0.688  0.7632  0.7719 -0.0553
  811MOL0     C 9371   7.102   2.817   0.657  0.0325  0.3185  0.0921
  811MOL0     C 9372   7.062   2.700   0.749 -0.6483 -0.2112 -0.0447
  811MOL0     C 9373   6.912   2.678   0.727  0.6226 -0.8151 -0.4330
  811MOL0     O 9374   6.857   2.661   0.856  0.1742 -1.2071 -0.5497
  811MOL0     C 9375   6.724   2.684   0.879  0.0139 -0.2053 -0.1775
  811MOL0     C 9376   6.644   2.595   0.952 -0.4955  0.9233 -0.1224
  811MOL0     C 9377   6.512   2.618   0.987 -0.7377 -0.0656  0.1063
  811MOL0     C 9378   6.441   2.511   1.063  0.6681  0.2765 -0.5725
  811MOL0     C 9379   6.452   2.743   0.948 -0.6400  0.0596 -0.2551
  811MOL0     C 9380   6.300   2.772   0.951  0.0759 -0.1822  0.0028
  811MOL0     O 9381   6.262   2.897   0.915  0.5784 -0.2782  0.0577
  811MOL0     C 9382   6.123   2.920   0.900 -0.7839  0.1780 -0.5244
  811MOL0     C 9383   6.032   2.910   1.005  0.2034 -0.4984  0.7338
  811MOL0     C 9384   5.897   2.943   0.981 -0.3401  1.2472  0.1788
  811MOL0     C 9385   5.863   2.997   0.861  0.4259  1.0799  0.6488
  811MOL0     O 9386   5.726   3.022   0.836 -1.1908  0.1389 -0.2120
  811MOL0     C 9387   5.657   3.097   0.937 -0.2731  0.4587  0.4517
  811MOL0     C 9388   5.497   3.088   0.929  0.5636 -0.2650 -0.1070
  811MOL0     C 9389   5.430   2.947   0.915  0.1065 -0.7309  0.3116
  811MOL0     C 9390   5.451   2.870   1.042 -0.0226  0.1116 -0.2053
  811MOL0     C 9391   5.360   2.752   1.043 -0.6072  0.4617 -1.0847
  811MOL0     C 9392   5.355   2.692   1.187 -0.3883  0.0342 -0.2513
  811MOL0     C 9393   5.264   2.560   1.201  0.3745  0.0694 -0.2444
  811MOL0     C 9394   5.277   2.499   1.339 -0.7973  0.0917  0.0029
  811MOL0    Cl 9395   5.245   2.607   1.483  0.1386 -0.0114 -0.4085
  811MOL0     C 9396   5.951   3.010   0.755 -0.5834 -0.9894  0.1837
  811MOL0     C 9397   6.078   2.970   0.779 -0.5786  0.6191 -0.2367
  811MOL0     O 9398   6.222   2.678   0.979  0.5033 -0.4925 -0.2021
  811MOL0     C 9399   6.536   2.835   0.885  0.1049  0.8686 -0.5146
  811MOL0     C 9400   6.665   2.804   0.857 -0.7284 -0.2521 -0.0802
  811MOL0     N 9401   7.308   3.027   0.517 -1.0035 -0.3194  0.6461
  811MOL0     N 9402   7.325   3.157   0.503 -0.1608  0.0462 -0.1364
  811MOL0     C 9403   6.354   3.971   0.852  0.0182 -0.2546 -0.2676
  811MOL0     C 9404   6.237   4.046   0.871  0.1989  0.7455 -0.0567
  811MOL0     C 9405   5.861   4.211   0.992 -1.0093  0.1127 -0.0117
  811MOL0     C 9406   5.793   4.281   0.890  0.1626  0.0940  0.2659
  811MOL0     C 9407   5.672   4.348   0.908  0.2096 -0.0470 -0.0081
  811MOL0     C 9408   5.614   4.360   1.034 -0.3249  0.1498 -0.0406
  811MOL0     O 9409   5.497   4.420   1.065  0.6859  0.2282 -0.8964
  811MOL0     C 9410   5.382   4.332   1.047  0.0246  0.1829  1.0468
  811MOL0     C 9411   5.262   4.370   1.126  0.7960  0.4490  0.0445
  811MOL0     C 9412   5.207   4.507   1.100 -0.4178  0.3542 -0.1988
  811MOL0     C 9413   5.078   4.542   1.178  0.1913 -0.3206  0.9729
  811MOL0     C 9414   4.998   4.646   1.100 -0.5040  0.2820  0.0818
  811MOL0     C 9415   4.944   4.747   1.073 -0.3332 -0.8398 -0.0687
  811MOL0     C 9416   5.688   4.301   1.135  0.3255 -0.1480  0.0162
  811MOL0     C 9417   5.802   4.221   1.117  0.4507 -0.6713 -0.0679
  811MOL0     H 9418   6.029   3.862   0.679  0.9766  2.2361 -2.2930
  811MOL0     H 9419   6.224   3.727   0.667 -1.5826  0.0827 -0.6598
  811MOL0     H 9420   6.457   3.618   0.641  1.5017 -0.9423  0.9106
  811MOL0     H 9421   6.485   3.787   0.576 -0.0245  3.0380  2.0714
  811MOL0     H 9422   6.687   3.671   0.550  0.9917  0.5714  0.1822
  811MOL0     H 9423   6.705   3.795   0.684  0.2953  0.2006  1.1978
  811MOL0     H 9424   6.693   3.606   0.845 -1.9954 -0.6944 -0.2583
  811MOL0     H 9425   6.658   3.494   0.717  0.7463 -1.7296  2.1604
  811MOL0     H 9426   6.864   3.527   0.599 -0.2031  2.2944 -0.1158
  811MOL0     H 9427   6.919   3.639   0.734  0.8496  0.2294  1.3192
  811MOL0     H 9428   6.963   3.473   0.876  0.9207  0.9581 -0.5973
  811MOL0     H 9429   6.827   3.368   0.811 -1.2635 -0.1217 -3.8478
  811MOL0     H 9430   7.083   3.312   0.796 -2.2580 -0.1951  1.9439
  811MOL0     H 9431   6.953   3.270   0.680 -1.4947  0.0530  3.1173
  811MOL0     H 9432   7.052   3.404   0.513 -2.2452  5.1196  0.4339
  811MOL0     H 9433   7.105   3.519   0.646  1.2751 -0.6147  1.0368
  811MOL0     H 9434   7.290   3.397   0.704  1.7487 -1.4450 -0.5279
  811MOL0     H 9435   7.297   3.416   0.536 -2.8256  1.1080 -1.8597
  811MOL0     H 9436   7.191   3.138   0.803  0.6826  0.5072 -0.4337
  811MOL0     H 9437   7.314   2.797   0.640  0.8828 -0.3491  1.5977
  811MOL0     H 9438   7.270   2.863   0.794 -2.2665  0.3927  0.8510
  811MOL0     H 9439   7.101   2.775   0.556 -1.3919 -0.1457  0.2643
  811MOL0     H 9440   7.024   2.893   0.665 -0.4300 -0.1225 -0.1483
  811MOL0     H 9441   7.088   2.729   0.851 -1.6989  1.7182 -0.2847
  811MOL0     H 9442   7.115   2.609   0.720 -1.4833 -1.2802  1.6207
  811MOL0     H 9443   6.903   2.597   0.653 -0.0630 -1.8333  0.7264
  811MOL0     H 9444   6.863   2.763   0.679  0.1963  0.6261  2.3848
  811MOL0     H 9445   6.698   2.502   0.963 -2.1095  0.1326  1.7397
  811MOL0     H 9446   6.366   2.557   1.127 -0.7086  1.0970 -2.6581
  811MOL0     H 9447   6.382   2.441   1.002 -0.1166 -1.4987  2.0560
  811MOL0     H 9448   6.509   2.458   1.130 -0.1314 -2.1727 -1.5784
  811MOL0     H 9449   6.065   2.883   1.105 -1.7006  0.5357  1.6896
  811MOL0     H 9450   5.828   2.935   1.064 -0.3316  2.6229  0.3434
  811MOL0     H 9451   5.680   3.057   1.037 -0.0554  1.8379  0.9790
  811MOL0     H 9452   5.690   3.202   0.933  1.1167  0.0498  0.4704
  811MOL0     H 9453   5.456   3.138   1.017 -0.2524 -3.4622  1.5052
  811MOL0     H 9454   5.469   3.152   0.845 -1.1180 -0.1687  0.4847
  811MOL0     H 9455   5.482   2.902   0.830 -2.7142  2.0800 -3.2577
  811MOL0     H 9456   5.325   2.956   0.885 -0.4330  0.2789  2.3045
  811MOL0     H 9457   5.548   2.828   1.071 -1.0336 -1.1569  1.4915
  811MOL0     H 9458   5.426   2.929   1.130  0.9333  0.6506 -0.2788
  811MOL0     H 9459   5.391   2.672   0.975 -2.4459 -0.9539 -0.3392
  811MOL0     H 9460   5.255   2.776   1.024 -0.6917  0.2331 -0.9055
  811MOL0     H 9461   5.456   2.664   1.219 -1.1989 -1.7063  0.9759
  811MOL0     H 9462   5.327   2.763   1.265  1.0774  0.0937  0.2533
  811MOL0     H 9463   5.289   2.488   1.122 -4.3171 -1.1798 -0.9521
  811MOL0     H 9464   5.167   2.600   1.171  1.4519  0.0250 -4.3017
  811MOL0     H 9465   5.380   2.465   1.349 -0.2966 -0.6341 -4.9791
  811MOL0     H 9466   5.217   2.410   1.363  1.8011 -0.9848  3.2116
  811MOL0     H 9467   5.921   3.063   0.665  0.1404 -0.6774  0.1187
  811MOL0     H 9468   6.145   2.982   0.695 -0.9145 -0.4823 -0.6657
  811MOL0     H 9469   6.496   2.933   0.863 -3.7192 -0.1645  1.0826
  811MOL0     H 9470   6.736   2.876   0.816 -0.3620 -0.8940 -0.6019
  811MOL0     H 9471   6.437   3.993   0.919  0.1721  1.0398 -0.8561
  811MOL0     H 9472   6.239   4.126   0.943 -1.7942 -1.1928  2.3250
  811MOL0     H 9473   5.834   4.270   0.790  0.0539  3.0996 -0.2307
  811MOL0     H 9474   5.613   4.383   0.824 -1.6596  0.4533  1.4302
  811MOL0     H 9475   5.353   4.332   0.941 -2.8977 -2.0644  1.7037
  811MOL0     H 9476   5.406   4.227   1.067  0.6968  0.7992  3.9750
  811MOL0     H 9477   5.277   4.371   1.235 -0.9108  1.7327  0.3290
  811MOL0     H 9478   5.186   4.294   1.104  3.0124 -3.5384  4.2251
  811MOL0     H 9479   5.182   4.507   0.993 -0.1063 -1.3752 -0.2996
  811MOL0     H 9480   5.281   4.587   1.093 -0.1111 -0.0541 -3.3029
  811MOL0     H 9481   5.107   4.577   1.278  1.4697 -1.2141  0.9419
  811MOL0     H 9482   5.007   4.460   1.187 -1.7162  1.1894  0.4738
  811MOL0     H 9483   4.902   4.843   1.051  2.8174  0.1361 -2.6725
  811MOL0     H 9484   5.656   4.309   1.238 -0.5663  2.7313 -0.4076
  811MOL0     H 9485   5.834   4.166   1.205 -0.8994  0.3589  1.1126
  812MOL0     O 9486   0.267   9.818   0.901 -0.5718 -0.2019  0.5699
  812MOL0     C 9487   0.328   9.866   0.990 -0.1093 -0.4051 -0.6382
  812MOL0     O 9488   0.275   9.900   1.110  0.4246  0.1145  0.3320
  812MOL0     C 9489   0.143   9.883   1.130  0.8738 -0.1481  0.5463
  812MOL0     C 9490   0.050   9.783   1.088  0.3248 -0.9755  0.1321
  812MOL0     C 9491  -0.093   9.791   1.111 -0.1928  0.4521  0.5907
  812MOL0     C 9492  -0.145   9.905   1.167  0.1687  0.9742 -0.3034
  812MOL0     O 9493  -0.278   9.932   1.200  0.2652 -0.4088  0.6586
  812MOL0     C 9494  -0.380   9.829   1.185  0.5226  0.9107 -0.1457
  812MOL0     C 9495  -0.514   9.883   1.245 -0.1310  0.8108  0.5425
  812MOL0     C 9496  -0.617   9.770   1.232 -0.2511 -0.6081  0.5181
  812MOL0     C 9497  -0.726   9.792   1.343 -0.1603 -0.0255  0.0865
  812MOL0     C 9498  -0.834   9.886   1.279  0.6011  0.7383  0.2629
  812MOL0     C 9499  -0.828  10.021   1.345 -1.0432  0.1279 -0.0401
  812MOL0     C 9500  -0.916  10.124   1.289  0.4866  0.3208  0.0126
  812MOL0     C 9501  -1.067  10.092   1.321 -0.7232  0.0468  0.6100
  812MOL0     N 9502  -1.147  10.203   1.283  0.4914  0.4187  0.0315
  812MOL0     C 9503  -1.197  10.297   1.368 -0.3073  1.0084  0.0083
  812MOL0     C 9504  -1.249  10.395   1.297  0.0159  0.1578  0.9197
  812MOL0     C 9505  -1.284  10.528   1.357  0.8948  0.2204  0.3484
  812MOL0     C 9506  -1.424  10.568   1.309  0.5752 -1.2604  0.1692
  812MOL0     C 9507  -1.486  10.668   1.404  0.2689  0.3529  0.4210
  812MOL0     C 9508  -1.619  10.743   1.362 -0.3705  0.3249 -0.1475
  812MOL0     O 9509  -1.644  10.854   1.447 -0.3310  0.3295  0.2541
  812MOL0     C 9510  -1.770  10.913   1.448 -0.5393  0.4722  0.5921
  812MOL0     C 9511  -1.876  10.884   1.360 -0.8324 -0.9298 -0.0365
  812MOL0     C 9512  -1.994  10.960   1.348 -0.5328  0.7449  0.3133
  812MOL0     C 9513  -2.084  10.912   1.232  0.8068  0.5089 -0.0295
  812MOL0     C 9514  -2.014  11.063   1.442  0.5175 -0.1388 -0.6548
  812MOL0     C 9515  -2.134  11.146   1.439  0.3846  0.0206  0.0833
  812MOL0     O 9516  -2.113  11.259   1.511 -0.2329 -0.6155 -0.0767
  812MOL0     C 9517  -2.179  11.380   1.487 -0.0153 -0.1741 -0.7221
  812MOL0     C 9518  -2.168  11.483   1.585 -0.1693 -0.1019  0.6622
  812MOL0     C 9519  -2.195  11.614   1.538 -0.4119 -0.5466 -0.1923
  812MOL0     C 9520  -2.251  11.644   1.418 -0.1648  0.5904 -0.5394
  812MOL0     O 9521  -2.272  11.766   1.364  1.0737 -0.0419 -0.3024
  812MOL0     C 9522  -2.204  11.875   1.433 -0.5634  0.5456  0.3885
  812MOL0     C 9523  -2.181  11.997   1.335  0.5479  0.3126 -0.1771
  812MOL0     C 9524  -2.129  12.115   1.415  0.6552 -0.4229  0.1083
  812MOL0     C 9525  -1.998  12.090   1.473 -0.4219 -0.3833  0.0209
  812MOL0     C 9526  -1.906  12.217   1.488 -0.0793 -0.8106  1.0476
  812MOL0     C 9527  -1.780  12.187   1.569  0.0605  0.1466  0.0893
  812MOL0     C 9528  -1.697  12.310   1.571  0.3503  0.1663 -0.3673
  812MOL0     C 9529  -1.639  12.341   1.712  0.2364  0.3144  0.6446
  812MOL0    Cl 9530  -1.783  12.386   1.807  0.4213  0.9854  0.0928
  812MOL0     C 9531  -2.275  11.539   1.330 -0.2393  0.0691  0.0839
  812MOL0     C 9532  -2.236  11.410   1.363  0.1712 -0.0174  0.0730
  812MOL0     O 9533  -2.238  11.104   1.388 -0.1869 -0.7035  0.5423
  812MOL0     C 9534  -1.907  11.100   1.534  1.2749  0.3177  0.4154
  812MOL0     C 9535  -1.785  11.024   1.533  0.9336 -0.4504 -0.1836
  812MOL0     N 9536  -1.246  10.347   1.170 -0.0055 -0.1652 -0.3600
  812MOL0     N 9537  -1.186  10.232   1.158  0.9007  0.5911 -0.1180
  812MOL0     C 9538  -0.056  10.002   1.210  0.5235  0.9869  0.0752
  812MOL0     C 9539   0.082   9.994   1.196  0.5728 -0.3394  0.5336
  812MOL0     C 9540   0.460   9.913   0.963 -0.3207  0.3092  0.3413
  812MOL0     C 9541   0.523   9.888   0.842  0.0550 -1.3825  0.5776
  812MOL0     C 9542   0.647   9.947   0.814  0.4927 -0.5125  0.1643
  812MOL0     C 9543   0.720  10.019   0.914  0.8849 -0.2840 -0.4774
  812MOL0     O 9544   0.835  10.081   0.876 -0.7073  0.1630 -1.0098
  812MOL0     C 9545   0.934  10.106   0.978 -1.2731 -0.3096  0.0767
  812MOL0     C 9546   0.991   9.976   1.020  0.1234  1.0443 -0.1909
  812MOL0     C 9547   1.114  10.002   1.114  0.5612  0.4580  0.0022
  812MOL0     C 9548   1.155   9.880   1.182 -0.1531  0.8375 -0.3089
  812MOL0     C 9549   1.179   9.767   1.087  0.3672 -1.1209  0.6567
  812MOL0     C 9550   1.182   9.669   1.017 -0.0856  0.1327 -0.5467
  812MOL0     C 9551   0.654  10.038   1.035 -0.1429  0.5093 -0.2651
  812MOL0     C 9552   0.532   9.979   1.066  0.3964 -0.0832  0.0221
  812MOL0     H 9553   0.091   9.705   1.024 -1.1035  0.0208 -2.0974
  812MOL0     H 9554  -0.160   9.713   1.076 -0.4600  1.6009 -1.6534
  812MOL0     H 9555  -0.393   9.805   1.079  1.2819 -0.1194 -0.0253
  812MOL0     H 9556  -0.341   9.741   1.235  1.0086 -0.5393 -2.8699
  812MOL0     H 9557  -0.505   9.905   1.352 -3.3747  3.1960  0.4750
  812MOL0     H 9558  -0.546   9.980   1.206 -1.7760  0.4989  1.0136
  812MOL0     H 9559  -0.647   9.759   1.127  3.1257 -0.4083 -0.6109
  812MOL0     H 9560  -0.568   9.680   1.269  1.1596 -0.2791 -0.4626
  812MOL0     H 9561  -0.781   9.702   1.372 -2.7037  1.6298  0.7691
  812MOL0     H 9562  -0.680   9.825   1.436  1.7776  0.2774 -0.9432
  812MOL0     H 9563  -0.824   9.879   1.171  1.9478 -0.4920  0.4270
  812MOL0     H 9564  -0.931   9.841   1.300  1.1351 -1.0659 -0.8861
  812MOL0     H 9565  -0.835  10.023   1.454  2.0648  0.8916  0.2221
  812MOL0     H 9566  -0.725  10.048   1.323 -1.3605  0.8054 -0.7736
  812MOL0     H 9567  -0.900  10.220   1.339 -1.4126  0.2047  0.9192
  812MOL0     H 9568  -0.899  10.135   1.181 -0.9106 -0.2958 -0.3028
  812MOL0     H 9569  -1.072  10.070   1.428  1.5039  1.5154  1.0601
  812MOL0     H 9570  -1.099  10.005   1.262 -1.1846 -1.1605  2.5389
  812MOL0     H 9571  -1.188  10.300   1.476 -1.1568 -0.5264  0.1582
  812MOL0     H 9572  -1.278  10.524   1.466  2.0154 -0.3131  0.2830
  812MOL0     H 9573  -1.220  10.609   1.321  0.8637 -0.1816 -0.6528
  812MOL0     H 9574  -1.492  10.481   1.310 -1.5437  0.2401 -1.7827
  812MOL0     H 9575  -1.425  10.607   1.207 -0.3951  1.9255  1.2857
  812MOL0     H 9576  -1.416  10.751   1.420 -0.5023  1.2607 -0.7459
  812MOL0     H 9577  -1.514  10.622   1.499 -0.7861  2.3514  1.1438
  812MOL0     H 9578  -1.706  10.678   1.375 -0.7202  0.6220 -0.9222
  812MOL0     H 9579  -1.628  10.782   1.260 -2.3887  1.9801  0.5874
  812MOL0     H 9580  -1.857  10.806   1.287  0.7036 -0.3982 -0.2355
  812MOL0     H 9581  -2.156  10.845   1.280  1.1726  0.6498  0.7343
  812MOL0     H 9582  -2.132  10.996   1.181  2.0820  0.6391 -1.0785
  812MOL0     H 9583  -2.026  10.851   1.162  0.1099  0.2032 -0.3438
  812MOL0     H 9584  -2.110  11.470   1.676  4.5262 -0.5855 -2.0640
  812MOL0     H 9585  -2.166  11.693   1.607  3.5207 -2.0579  0.1320
  812MOL0     H 9586  -2.251  11.902   1.528 -0.8303 -1.3237  0.8258
  812MOL0     H 9587  -2.107  11.838   1.469 -0.0700 -2.0678 -3.1078
  812MOL0     H 9588  -2.103  11.960   1.267  1.2726 -2.5126  1.9860
  812MOL0     H 9589  -2.283  11.999   1.296  0.9154 -3.3191 -1.7858
  812MOL0     H 9590  -2.203  12.134   1.494  1.9328  1.5669  0.8986
  812MOL0     H 9591  -2.126  12.201   1.348 -3.0512  1.1115  1.6250
  812MOL0     H 9592  -2.007  12.037   1.568 -2.1631  0.5808  0.4252
  812MOL0     H 9593  -1.942  12.028   1.402 -2.0019 -0.8872 -0.8140
  812MOL0     H 9594  -1.958  12.290   1.551  0.3500 -2.1629  3.0582
  812MOL0     H 9595  -1.894  12.278   1.398  0.0499  2.3696  3.0254
  812MOL0     H 9596  -1.823  12.165   1.667 -0.5989  4.2017  0.8652
  812MOL0     H 9597  -1.712  12.107   1.536  0.4623  0.4558  0.1553
  812MOL0     H 9598  -1.741  12.401   1.531 -0.0694  1.1248  2.0956
  812MOL0     H 9599  -1.608  12.300   1.509  1.9055  3.0353  1.1942
  812MOL0     H 9600  -1.577  12.431   1.710  0.3553  0.3528 -3.6008
  812MOL0     H 9601  -1.593  12.254   1.761 -0.2718 -0.0132  0.5499
  812MOL0     H 9602  -2.327  11.575   1.242 -0.0914 -1.6187 -0.7275
  812MOL0     H 9603  -2.233  11.337   1.283 -0.5778  0.2428 -0.2051
  812MOL0     H 9604  -1.907  11.192   1.591 -3.8161  2.2281 -2.0931
  812MOL0     H 9605  -1.704  11.049   1.600  1.6523 -0.8624 -0.8813
  812MOL0     H 9606  -0.083  10.089   1.269  2.9153  1.3820  0.6702
  812MOL0     H 9607   0.149  10.070   1.234  0.2356  1.2201 -1.7364
  812MOL0     H 9608   0.479   9.833   0.759 -1.1417 -1.5237  1.2893
  812MOL0     H 9609   0.675   9.938   0.709 -3.1098  4.1958 -1.5469
  812MOL0     H 9610   1.007  10.176   0.937 -0.3150  0.2514  2.5597
  812MOL0     H 9611   0.888  10.163   1.059 -0.4020 -1.4521  1.4272
  812MOL0     H 9612   1.034   9.926   0.932  1.4402  0.5044  0.7231
  812MOL0     H 9613   0.926   9.903   1.069 -0.7172 -1.3106 -4.3313
  812MOL0     H 9614   1.088  10.072   1.194  0.5432  0.3024  0.1350
  812MOL0     H 9615   1.189  10.055   1.055 -0.1701  0.4243 -0.9824
  812MOL0     H 9616   1.090   9.860   1.268  0.1436  1.6965  0.1275
  812MOL0     H 9617   1.256   9.892   1.222  0.0467 -1.6059  0.0587
  812MOL0     H 9618   1.176   9.581   0.956 -0.3640 -1.2326  1.3928
  812MOL0     H 9619   0.702  10.083   1.121 -0.2645 -4.5011  2.8344
  812MOL0     H 9620   0.492   9.975   1.167 -0.1675 -0.9393 -0.2250
  813MOL0     O 9621   6.043   3.672   6.125  0.1567 -0.1876 -0.1856
  813MOL0     C 9622   6.059   3.550   6.135 -0.3874  0.0427 -0.2298
  813MOL0     O 9623   5.980   3.466   6.200 -0.4191 -0.8339  0.3888
  813MOL0     C 9624   5.877   3.501   6.277 -0.1009  0.3199 -0.6738
  813MOL0     C 9625   5.783   3.409   6.302  0.6122 -0.2006  0.0965
  813MOL0     C 9626   5.675   3.428   6.389  0.0446  0.6866  0.1812
  813MOL0     C 9627   5.669   3.548   6.464  0.9405 -0.0746  0.2697
  813MOL0     O 9628   5.564   3.578   6.547  0.0371 -0.5917  0.5386
  813MOL0     C 9629   5.462   3.482   6.577  0.0428  0.4584 -0.1779
  813MOL0     C 9630   5.348   3.484   6.480  0.0466 -1.0537  0.9194
  813MOL0     C 9631   5.279   3.621   6.475 -0.5199 -0.1371  1.0438
  813MOL0     C 9632   5.134   3.617   6.518  0.6451  0.5726 -0.5310
  813MOL0     C 9633   5.069   3.747   6.479  0.5686  0.2516  0.5273
  813MOL0     C 9634   5.093   3.858   6.594 -0.0468 -0.3131 -0.1675
  813MOL0     C 9635   5.043   4.009   6.577 -0.1825  0.0390 -0.1108
  813MOL0     C 9636   5.110   4.068   6.459 -0.1473 -0.4816 -0.3467
  813MOL0     N 9637   5.259   4.076   6.474 -0.6616 -0.1500 -0.4974
  813MOL0     C 9638   5.358   3.985   6.442  0.1305  0.2108  0.4797
  813MOL0     C 9639   5.467   4.026   6.506 -0.9198  0.0555 -0.2614
  813MOL0     C 9640   5.606   3.969   6.514 -0.7200  0.1726  0.1792
  813MOL0     C 9641   5.707   4.022   6.425 -0.0889 -1.0015  0.4143
  813MOL0     C 9642   5.773   4.145   6.487 -0.4208 -0.2956 -0.6254
  813MOL0     C 9643   5.858   4.229   6.382  0.3164  0.2957  0.4151
  813MOL0     O 9644   5.911   4.157   6.266  0.7775  0.0110  0.0727
  813MOL0     C 9645   6.003   4.216   6.179 -0.6199  0.0317  0.0835
  813MOL0     C 9646   6.010   4.135   6.060 -1.2185  1.7561 -0.7825
  813MOL0     C 9647   6.087   4.187   5.954 -0.1210 -0.3476 -0.7756
  813MOL0     C 9648   6.130   4.095   5.851 -0.3614  0.1325  0.2733
  813MOL0     C 9649   6.126   4.319   5.956 -0.6163  0.0016  0.1436
  813MOL0     C 9650   6.190   4.380   5.843  0.2843 -0.7197  0.0603
  813MOL0     O 9651   6.282   4.473   5.874 -0.0550  0.0650 -0.7397
  813MOL0     C 9652   6.357   4.540   5.780  0.3780 -0.2444  0.5012
  813MOL0     C 9653   6.325   4.673   5.732 -0.1316 -0.5456 -0.1519
  813MOL0     C 9654   6.395   4.735   5.629 -0.5029  0.1463  0.6139
  813MOL0     C 9655   6.501   4.666   5.575 -0.3796  0.0913 -0.2735
  813MOL0     O 9656   6.575   4.722   5.469  0.1789 -0.0068  0.6246
  813MOL0     C 9657   6.608   4.859   5.488  0.6250  0.6566  0.0412
  813MOL0     C 9658   6.744   4.893   5.420 -0.2958  0.2690 -0.1458
  813MOL0     C 9659   6.750   4.859   5.269 -0.3897  0.2789 -0.5896
  813MOL0     C 9660   6.878   4.929   5.208  0.4838  0.7729  0.6016
  813MOL0     C 9661   7.022   4.912   5.271 -0.2986  0.2286 -0.1018
  813MOL0     C 9662   7.056   4.756   5.273 -0.4172  0.1862  0.1269
  813MOL0     C 9663   7.201   4.728   5.319  0.3488  0.7120  0.5685
  813MOL0     C 9664   7.322   4.779   5.232 -0.0432  0.4330  0.0745
  813MOL0    Cl 9665   7.472   4.761   5.322  0.3964  0.3405  0.0133
  813MOL0     C 9666   6.536   4.538   5.623 -1.0045  0.2851 -0.1692
  813MOL0     C 9667   6.462   4.468   5.721  0.1245 -0.8792  0.3623
  813MOL0     O 9668   6.157   4.346   5.735  0.0139 -0.8667  0.2666
  813MOL0     C 9669   6.117   4.405   6.071  0.0599  0.0167 -0.0577
  813MOL0     C 9670   6.061   4.348   6.184 -1.0958  0.9152 -1.1532
  813MOL0     N 9671   5.435   4.146   6.571 -0.3587 -0.4088 -0.3366
  813MOL0     N 9672   5.311   4.184   6.548 -0.2295  1.2189  0.4918
  813MOL0     C 9673   5.777   3.638   6.446  0.3431  0.2029 -0.2060
  813MOL0     C 9674   5.889   3.609   6.363 -0.7188 -1.4581 -0.8075
  813MOL0     C 9675   6.160   3.496   6.046  0.5619  0.6989 -0.5442
  813MOL0     C 9676   6.221   3.567   5.946 -0.0961  0.5463  0.5446
  813MOL0     C 9677   6.312   3.507   5.855 -0.1406 -0.9352 -0.3902
  813MOL0     C 9678   6.342   3.371   5.857  1.1513  0.8473 -0.0754
  813MOL0     O 9679   6.423   3.301   5.765  0.7465 -0.1652 -0.5485
  813MOL0     C 9680   6.495   3.384   5.671  0.0407  0.6428  0.3736
  813MOL0     C 9681   6.609   3.296   5.619 -0.8482  0.2020  0.7963
  813MOL0     C 9682   6.688   3.368   5.514  0.4844 -1.4121 -0.0937
  813MOL0     C 9683   6.816   3.295   5.475 -0.5856 -0.3190  0.0166
  813MOL0     C 9684   6.904   3.379   5.391  0.9599  0.1807 -0.3051
  813MOL0     C 9685   6.978   3.453   5.335  0.3273 -0.1053  0.3734
  813MOL0     C 9686   6.280   3.294   5.956  0.0619 -0.4128 -0.1754
  813MOL0     C 9687   6.190   3.356   6.044 -0.7847  1.0667  0.6446
  813MOL0     H 9688   5.794   3.321   6.239  1.1832 -2.4650  3.1459
  813MOL0     H 9689   5.594   3.356   6.391  0.0580  0.6536 -0.2905
  813MOL0     H 9690   5.512   3.388   6.604 -1.2195 -1.4064 -3.6664
  813MOL0     H 9691   5.428   3.520   6.673 -0.0898  2.0490 -0.8249
  813MOL0     H 9692   5.381   3.453   6.381  0.6800 -1.1972  1.1661
  813MOL0     H 9693   5.277   3.407   6.511  1.6450 -2.0975  2.1943
  813MOL0     H 9694   5.347   3.685   6.531  2.4607 -2.2124  0.0593
  813MOL0     H 9695   5.280   3.661   6.373 -1.2129 -2.3780  0.0805
  813MOL0     H 9696   5.074   3.544   6.464 -1.9983  0.0782  2.6877
  813MOL0     H 9697   5.117   3.609   6.626 -0.2702  3.2858 -0.3904
  813MOL0     H 9698   5.107   3.795   6.388  0.2716  0.2562  0.4027
  813MOL0     H 9699   4.960   3.732   6.475  0.5312  0.7478 -1.4362
  813MOL0     H 9700   5.045   3.815   6.682 -2.0003 -2.4688 -2.1474
  813MOL0     H 9701   5.199   3.863   6.621 -0.2622  1.8236  0.4337
  813MOL0     H 9702   4.938   4.017   6.547  0.2798  2.2183 -1.4319
  813MOL0     H 9703   5.059   4.066   6.669 -3.3815  2.0057 -0.6156
  813MOL0     H 9704   5.082   4.173   6.449 -1.5974 -0.7688  0.3675
  813MOL0     H 9705   5.089   4.011   6.368 -0.9487  0.4688 -0.7722
  813MOL0     H 9706   5.354   3.892   6.388  1.7638  1.0246 -1.1488
  813MOL0     H 9707   5.635   3.972   6.620 -0.2725 -2.0172  0.1655
  813MOL0     H 9708   5.600   3.864   6.486  0.0741 -0.5402  2.4166
  813MOL0     H 9709   5.658   4.040   6.329  0.7897  0.0267  0.1383
  813MOL0     H 9710   5.785   3.945   6.422 -0.1064 -1.1669  2.5877
  813MOL0     H 9711   5.832   4.102   6.569 -0.7143  0.6650  0.0948
  813MOL0     H 9712   5.701   4.213   6.532 -0.0870 -0.3091 -0.0663
  813MOL0     H 9713   5.945   4.272   6.433  1.9147 -1.9402 -0.2836
  813MOL0     H 9714   5.805   4.315   6.340  1.0511  0.1866 -0.8080
  813MOL0     H 9715   5.976   4.032   6.064  0.1981  1.2953  1.8133
  813MOL0     H 9716   6.059   4.127   5.774 -0.3995  1.4628  0.8374
  813MOL0     H 9717   6.231   4.107   5.812  1.1359 -2.1941  3.1041
  813MOL0     H 9718   6.128   3.991   5.883  1.8862 -1.3332 -3.6562
  813MOL0     H 9719   6.240   4.728   5.770  0.1571  1.0865 -1.7447
  813MOL0     H 9720   6.361   4.832   5.593  0.9719  0.8349  0.9799
  813MOL0     H 9721   6.539   4.920   5.429  0.0443 -1.6653 -1.8908
  813MOL0     H 9722   6.608   4.892   5.592  0.2296  3.2755 -0.7348
  813MOL0     H 9723   6.755   5.002   5.415  4.0791 -0.0554 -2.7826
  813MOL0     H 9724   6.823   4.846   5.480 -0.5385 -1.2658 -0.9737
  813MOL0     H 9725   6.654   4.888   5.226 -0.4226  1.2313  0.0846
  813MOL0     H 9726   6.747   4.753   5.245  0.5013  0.0623  0.2033
  813MOL0     H 9727   6.884   4.896   5.104  2.0264  0.9378  0.6165
  813MOL0     H 9728   6.848   5.035   5.210  2.9883  1.5759  3.2218
  813MOL0     H 9729   7.020   4.951   5.374 -0.7873 -5.1423  2.2476
  813MOL0     H 9730   7.103   4.970   5.224 -0.5840 -0.2033 -1.1512
  813MOL0     H 9731   6.995   4.722   5.357  3.9231 -0.1314  3.4466
  813MOL0     H 9732   7.032   4.708   5.177 -2.0132 -0.9723  1.0556
  813MOL0     H 9733   7.208   4.620   5.328 -1.6862  0.3963 -0.9601
  813MOL0     H 9734   7.220   4.765   5.421  1.4595  2.2251 -0.1468
  813MOL0     H 9735   7.310   4.885   5.208 -2.4841 -0.6783 -4.8174
  813MOL0     H 9736   7.318   4.716   5.143  0.4680 -0.0196  0.3675
  813MOL0     H 9737   6.631   4.504   5.584 -0.0042  2.0203  0.6488
  813MOL0     H 9738   6.477   4.363   5.743 -1.5745 -0.9065  1.6355
  813MOL0     H 9739   6.156   4.506   6.061  0.6486 -0.2330 -0.3193
  813MOL0     H 9740   6.048   4.399   6.278 -0.8282 -0.9056 -0.0791
  813MOL0     H 9741   5.775   3.729   6.505 -1.5861  0.3993 -0.5057
  813MOL0     H 9742   5.977   3.671   6.375 -2.1276  0.1616  2.7632
  813MOL0     H 9743   6.213   3.675   5.939  0.9306  0.8592  3.0543
  813MOL0     H 9744   6.357   3.572   5.780 -1.8324 -0.3613 -0.9529
  813MOL0     H 9745   6.431   3.400   5.583 -0.1379 -1.3224  0.1109
  813MOL0     H 9746   6.538   3.473   5.718  1.4272  1.2740 -1.9215
  813MOL0     H 9747   6.572   3.202   5.579 -1.0649 -0.0324  1.5430
  813MOL0     H 9748   6.671   3.279   5.707 -0.6877 -1.7381  0.3551
  813MOL0     H 9749   6.702   3.470   5.552 -3.1527 -0.9979  0.4650
  813MOL0     H 9750   6.633   3.375   5.419 -0.1389 -0.3350  0.3265
  813MOL0     H 9751   6.796   3.203   5.419  1.4050 -3.3108  3.8161
  813MOL0     H 9752   6.858   3.257   5.568 -1.9047 -3.1958 -0.4736
  813MOL0     H 9753   7.043   3.536   5.314  0.8907 -0.0809  2.0632
  813MOL0     H 9754   6.292   3.186   5.951 -1.2818 -0.5505 -0.8467
  813MOL0     H 9755   6.132   3.287   6.104  0.9651  0.5466  1.8155
  814MOL0     O 9756   5.160   0.510   4.780  0.0409 -0.1585  0.0436
  814MOL0     C 9757   5.139   0.415   4.849 -0.6157  0.1046  0.2005
  814MOL0     O 9758   5.236   0.337   4.898  0.0298  0.5891 -0.1666
  814MOL0     C 9759   5.363   0.364   4.867  0.2895  1.2011 -0.5893
  814MOL0     C 9760   5.456   0.363   4.971 -0.8724 -0.0321 -0.9905
  814MOL0     C 9761   5.589   0.379   4.951  0.0702 -0.1036  0.6281
  814MOL0     C 9762   5.641   0.389   4.816 -0.0877  0.3925 -1.1620
  814MOL0     O 9763   5.771   0.411   4.783 -0.3525  0.4347  0.0919
  814MOL0     C 9764   5.866   0.305   4.812 -0.0130 -0.6966  0.3798
  814MOL0     C 9765   5.989   0.328   4.727 -0.2374  0.6160  0.1200
  814MOL0     C 9766   5.958   0.319   4.571 -0.7842  0.1020 -0.7326
  814MOL0     C 9767   6.051   0.406   4.481 -0.7189  0.6715 -1.0127
  814MOL0     C 9768   6.207   0.383   4.517 -0.3835 -0.4005  0.6781
  814MOL0     C 9769   6.289   0.429   4.404  0.9459 -0.8952 -0.1381
  814MOL0     C 9770   6.437   0.429   4.427 -0.8454  0.0643  0.1423
  814MOL0     C 9771   6.482   0.537   4.519 -0.7395  0.4102 -0.2565
  814MOL0     N 9772   6.493   0.677   4.460  0.4961 -0.2753 -0.1975
  814MOL0     C 9773   6.595   0.724   4.384  0.0354  0.3517  0.1135
  814MOL0     C 9774   6.576   0.860   4.372  0.0048 -0.2640 -0.2072
  814MOL0     C 9775   6.663   0.948   4.296  0.3548  0.1007 -0.5798
  814MOL0     C 9776   6.609   0.968   4.155  0.1221 -0.2257  0.4432
  814MOL0     C 9777   6.485   1.062   4.141  0.5489 -0.2355  0.1248
  814MOL0     C 9778   6.432   1.064   4.006 -0.3995 -0.3045  0.7964
  814MOL0     O 9779   6.400   1.193   3.965  0.0526  0.1054 -0.1134
  814MOL0     C 9780   6.281   1.244   4.000  0.1910 -0.2906  0.4603
  814MOL0     C 9781   6.185   1.176   4.080  0.2531  1.1556  0.3476
  814MOL0     C 9782   6.060   1.225   4.099  1.2754  0.0736 -0.5800
  814MOL0     C 9783   5.961   1.128   4.160  0.0642  0.2110  0.7255
  814MOL0     C 9784   6.031   1.360   4.052 -0.2767 -0.8412  0.2244
  814MOL0     C 9785   5.903   1.428   4.080 -0.0970 -0.1926  1.2268
  814MOL0     O 9786   5.801   1.352   4.137  0.3019 -0.3475  0.9048
  814MOL0     C 9787   5.682   1.411   4.167 -0.2586  0.2992  0.9968
  814MOL0     C 9788   5.640   1.431   4.294 -0.2097  1.2503 -0.6410
  814MOL0     C 9789   5.511   1.479   4.309  0.7181 -0.5659 -0.3082
  814MOL0     C 9790   5.427   1.525   4.207  0.3360  0.7110 -0.6171
  814MOL0     O 9791   5.304   1.568   4.218  0.5520  0.2511 -0.1829
  814MOL0     C 9792   5.243   1.574   4.344  0.6367 -0.3417 -0.2598
  814MOL0     C 9793   5.101   1.613   4.330 -0.5379 -0.2863 -0.4831
  814MOL0     C 9794   5.033   1.637   4.462  0.1223  0.1376  0.0586
  814MOL0     C 9795   4.885   1.647   4.427  0.6270 -0.3541  0.4340
  814MOL0     C 9796   4.799   1.689   4.542  0.7071  0.0312  0.7394
  814MOL0     C 9797   4.653   1.701   4.473 -0.0190  0.2825 -0.1841
  814MOL0     C 9798   4.565   1.768   4.577 -0.1355 -1.2298  0.2167
  814MOL0     C 9799   4.423   1.742   4.529  0.0116 -0.1937  0.5547
  814MOL0    Cl 9800   4.375   1.824   4.382 -0.2611  0.1565 -0.3049
  814MOL0     C 9801   5.470   1.505   4.082  0.3830 -0.9812  0.3435
  814MOL0     C 9802   5.597   1.453   4.062  0.0242 -0.2809  0.1901
  814MOL0     O 9803   5.889   1.545   4.050 -0.4638 -0.2653 -0.3773
  814MOL0     C 9804   6.131   1.427   3.975  0.2983 -0.3751  0.1133
  814MOL0     C 9805   6.253   1.371   3.949 -0.1730  0.0921  0.7409
  814MOL0     N 9806   6.462   0.886   4.449  0.3908 -0.0398 -0.3733
  814MOL0     N 9807   6.410   0.780   4.500 -0.5234  0.2781 -0.0078
  814MOL0     C 9808   5.555   0.378   4.713 -0.0287 -1.1427 -0.7621
  814MOL0     C 9809   5.419   0.365   4.739 -0.0498 -0.6304  0.2171
  814MOL0     C 9810   5.008   0.399   4.899 -0.3110  0.0858 -0.0591
  814MOL0     C 9811   4.932   0.507   4.939  0.5976 -0.6846 -0.0634
  814MOL0     C 9812   4.807   0.485   5.003  0.1167  0.7736 -0.6470
  814MOL0     C 9813   4.752   0.352   5.011  0.0724  0.3116  0.6778
  814MOL0     O 9814   4.622   0.348   5.055 -0.0697  0.3440  0.1211
  814MOL0     C 9815   4.576   0.230   5.127  0.7025 -0.3996  0.3183
  814MOL0     C 9816   4.421   0.247   5.172 -0.3068 -0.2512 -0.1046
  814MOL0     C 9817   4.365   0.128   5.262 -0.7364 -0.9786  0.0040
  814MOL0     C 9818   4.399  -0.019   5.231  0.2361 -0.7638  0.6928
  814MOL0     C 9819   4.297  -0.109   5.279  0.7728  1.2231 -0.2125
  814MOL0     C 9820   4.209  -0.180   5.323  0.3840 -0.0775  0.2637
  814MOL0     C 9821   4.827   0.239   4.955 -0.8473 -0.3788  0.1964
  814MOL0     C 9822   4.954   0.266   4.902 -0.1534 -0.9395 -0.1067
  814MOL0     H 9823   5.414   0.354   5.071 -1.0897 -1.4897 -1.1858
  814MOL0     H 9824   5.652   0.372   5.040 -1.9318  1.5612  2.2907
  814MOL0     H 9825   5.894   0.324   4.916  1.3156 -3.5628  0.6117
  814MOL0     H 9826   5.825   0.205   4.796  3.4016 -2.2474  0.6345
  814MOL0     H 9827   6.040   0.422   4.752  0.2667 -0.0088  1.5912
  814MOL0     H 9828   6.060   0.248   4.747 -1.4132 -0.6941 -0.8015
  814MOL0     H 9829   5.969   0.214   4.543  1.0758 -0.6920  2.4340
  814MOL0     H 9830   5.855   0.350   4.551 -1.0240 -0.8422 -1.0374
  814MOL0     H 9831   6.027   0.381   4.378  1.1938  0.4998 -1.4484
  814MOL0     H 9832   6.025   0.513   4.485 -1.8722  0.4017 -1.0321
  814MOL0     H 9833   6.231   0.426   4.615 -1.4489  0.1400  0.7163
  814MOL0     H 9834   6.228   0.276   4.525 -0.3735 -0.5069 -0.6579
  814MOL0     H 9835   6.261   0.363   4.322  0.2404 -2.1915  1.1083
  814MOL0     H 9836   6.261   0.530   4.371  3.5164  0.2272  0.8221
  814MOL0     H 9837   6.471   0.330   4.458  1.6067  1.5608  2.6564
  814MOL0     H 9838   6.494   0.445   4.335  0.7200  2.3382  1.4029
  814MOL0     H 9839   6.579   0.508   4.560  1.2109  0.7420 -4.1895
  814MOL0     H 9840   6.424   0.541   4.612  2.5301 -2.9495  2.2357
  814MOL0     H 9841   6.673   0.665   4.336  1.2773  1.0899  1.1397
  814MOL0     H 9842   6.684   1.041   4.350 -1.0108  1.1891 -1.8587
  814MOL0     H 9843   6.765   0.908   4.293  0.3224 -0.0737  0.2736
  814MOL0     H 9844   6.581   0.868   4.120  0.4851  0.2414 -1.2737
  814MOL0     H 9845   6.689   0.993   4.085  0.9779 -2.7924  0.4050
  814MOL0     H 9846   6.508   1.164   4.174 -0.0859  0.7727 -2.3405
  814MOL0     H 9847   6.410   1.021   4.209  2.5043 -0.3620  2.3721
  814MOL0     H 9848   6.351   0.990   4.003  0.4349 -1.2146 -1.1082
  814MOL0     H 9849   6.509   1.039   3.932 -1.5567 -0.6495 -0.3298
  814MOL0     H 9850   6.206   1.078   4.123  1.0090  1.1110 -0.1040
  814MOL0     H 9851   6.000   1.026   4.159 -1.4523 -0.4300 -1.7300
  814MOL0     H 9852   5.949   1.158   4.264  1.6414 -1.6022  1.5001
  814MOL0     H 9853   5.871   1.122   4.099 -0.5110 -0.6924  1.6456
  814MOL0     H 9854   5.705   1.403   4.377 -2.5167 -2.5925  0.1649
  814MOL0     H 9855   5.485   1.507   4.410 -0.7338 -0.6744 -0.6341
  814MOL0     H 9856   5.247   1.477   4.394 -2.1254 -0.2686  0.2579
  814MOL0     H 9857   5.292   1.650   4.406  0.3090  1.1461 -1.7504
  814MOL0     H 9858   5.096   1.697   4.261 -1.1485 -0.5742 -0.7975
  814MOL0     H 9859   5.046   1.537   4.274 -1.0060  0.0779 -0.5201
  814MOL0     H 9860   5.076   1.729   4.502 -0.7845  1.6278 -2.1527
  814MOL0     H 9861   5.062   1.561   4.535  3.3955  0.5884 -0.5879
  814MOL0     H 9862   4.878   1.721   4.348  1.9608 -1.5508 -0.8640
  814MOL0     H 9863   4.844   1.555   4.384 -1.4133  1.3044 -1.4340
  814MOL0     H 9864   4.831   1.784   4.586  0.2639 -0.4085  2.0510
  814MOL0     H 9865   4.790   1.612   4.619 -0.4925 -0.5562  0.0433
  814MOL0     H 9866   4.655   1.758   4.380 -3.3381 -0.9103 -1.1202
  814MOL0     H 9867   4.611   1.602   4.454  1.1331 -0.4414  0.8137
  814MOL0     H 9868   4.579   1.877   4.583  0.3002 -1.3765  2.9422
  814MOL0     H 9869   4.577   1.733   4.680 -1.6549  1.0145  1.2398
  814MOL0     H 9870   4.361   1.783   4.609 -0.0263  2.2611 -0.6570
  814MOL0     H 9871   4.400   1.635   4.519  1.5249 -0.6533  1.5883
  814MOL0     H 9872   5.412   1.548   4.001  1.5195 -0.5175 -0.2451
  814MOL0     H 9873   5.643   1.459   3.964 -0.0455  3.4716  0.2544
  814MOL0     H 9874   6.132   1.530   3.941 -1.1661  0.4902  2.4650
  814MOL0     H 9875   6.336   1.428   3.908  0.5496 -1.0109  0.6422
  814MOL0     H 9876   5.600   0.385   4.614  2.8321  1.7010  0.5485
  814MOL0     H 9877   5.359   0.368   4.648  0.7740 -1.7474 -0.3898
  814MOL0     H 9878   4.981   0.604   4.934 -0.5854 -0.1213 -1.4646
  814MOL0     H 9879   4.749   0.566   5.047  1.6426 -0.2693  3.8265
  814MOL0     H 9880   4.584   0.144   5.060  0.4919 -1.0628  1.1169
  814MOL0     H 9881   4.632   0.205   5.218 -1.4694  1.1029  2.1995
  814MOL0     H 9882   4.348   0.270   5.094 -2.4595 -1.1027  1.5556
  814MOL0     H 9883   4.422   0.339   5.232  1.4527 -0.0492 -0.3836
  814MOL0     H 9884   4.259   0.153   5.255 -0.1060  1.8739 -0.5139
  814MOL0     H 9885   4.388   0.139   5.368  0.9844  1.7661 -0.5559
  814MOL0     H 9886   4.486  -0.048   5.291 -0.2048 -0.0435  1.7050
  814MOL0     H 9887   4.402  -0.031   5.122 -2.5090  3.5145 -0.1016
  814MOL0     H 9888   4.138  -0.231   5.385  1.3686 -0.3399  1.2189
  814MOL0     H 9889   4.790   0.137   4.963  0.3072 -0.8174  0.0839
  814MOL0     H 9890   5.019   0.181   4.886  1.9172  0.2833  1.3830
  815MOL0     O 9891   8.128   5.573   3.118  0.5623  0.2232  0.1877
  815MOL0     C 9892   8.102   5.693   3.118  0.6397  0.7972 -1.0545
  815MOL0     O 9893   7.974   5.748   3.109 -0.0903 -0.5165 -0.1577
  815MOL0     C 9894   7.876   5.661   3.118 -0.4888 -0.1713 -1.2732
  815MOL0     C 9895   7.778   5.695   3.213  0.0947  0.1021  1.0684
  815MOL0     C 9896   7.654   5.632   3.213  1.0236 -0.5061 -0.2131
  815MOL0     C 9897   7.633   5.523   3.126 -0.0932  0.2665 -0.2216
  815MOL0     O 9898   7.503   5.473   3.126 -0.1987 -0.3450  0.0507
  815MOL0     C 9899   7.462   5.386   3.018 -0.0267  0.4051 -0.0242
  815MOL0     C 9900   7.314   5.354   3.028 -0.8432  0.0097  0.4280
  815MOL0     C 9901   7.277   5.240   2.933 -0.5128  0.4000 -0.1146
  815MOL0     C 9902   7.130   5.241   2.894  0.3776  0.3911 -0.8906
  815MOL0     C 9903   7.030   5.210   3.012 -0.8118  0.3629  0.4850
  815MOL0     C 9904   6.882   5.169   2.966  0.0421  0.3635  0.6450
  815MOL0     C 9905   6.802   5.084   3.062 -0.5570  0.0686 -0.1363
  815MOL0     C 9906   6.658   5.049   3.014 -1.6003 -0.2722  0.1944
  815MOL0     N 9907   6.591   4.970   3.111 -0.4710 -0.0829  0.3211
  815MOL0     C 9908   6.631   4.843   3.156 -0.3987 -0.0472 -0.8026
  815MOL0     C 9909   6.528   4.798   3.236  0.0489 -0.3456 -0.1617
  815MOL0     C 9910   6.536   4.679   3.328  0.0082  0.2064  0.4655
  815MOL0     C 9911   6.400   4.609   3.343 -0.6721  0.3256  0.5911
  815MOL0     C 9912   6.394   4.492   3.455  0.7563 -0.3569  0.4397
  815MOL0     C 9913   6.259   4.416   3.454  0.3897  0.1975  0.9394
  815MOL0     O 9914   6.144   4.492   3.479 -0.5730 -0.0096  0.6867
  815MOL0     C 9915   6.036   4.411   3.509  1.1584  0.0947 -0.0342
  815MOL0     C 9916   6.022   4.303   3.596  0.2434  0.8164  0.1763
  815MOL0     C 9917   5.908   4.220   3.602  0.8354  0.5015 -0.2710
  815MOL0     C 9918   5.917   4.101   3.693 -0.0215  0.0738 -0.0169
  815MOL0     C 9919   5.800   4.252   3.523 -0.2576  0.4718  0.6633
  815MOL0     C 9920   5.678   4.167   3.510 -0.6181  0.1106  0.7478
  815MOL0     O 9921   5.570   4.227   3.461  0.0179 -0.0049 -0.6510
  815MOL0     C 9922   5.457   4.151   3.447  0.8768  0.2679  0.2342
  815MOL0     C 9923   5.446   4.018   3.392  0.6094  0.9367 -0.2774
  815MOL0     C 9924   5.329   3.949   3.353  0.2068 -0.4077  0.2620
  815MOL0     C 9925   5.207   4.018   3.375  0.1045 -1.4483 -0.4300
  815MOL0     O 9926   5.089   3.959   3.358  0.0062 -0.1635  0.1777
  815MOL0     C 9927   4.975   3.995   3.428  0.2267 -0.2617  0.2259
  815MOL0     C 9928   4.873   3.891   3.410  0.0209  0.2264 -0.2220
  815MOL0     C 9929   4.745   3.936   3.466  0.7904 -0.6166  0.2602
  815MOL0     C 9930   4.646   3.821   3.453  0.6686 -0.4443  0.0857
  815MOL0     C 9931   4.511   3.868   3.500  0.6793 -0.0539 -0.3745
  815MOL0     C 9932   4.407   3.754   3.481 -0.8396 -0.1758 -0.0952
  815MOL0     C 9933   4.264   3.786   3.530 -0.8113  0.0668 -0.1370
  815MOL0     C 9934   4.173   3.687   3.469 -0.1749  0.9146  0.6303
  815MOL0    Cl 9935   4.105   3.742   3.309 -0.3406  0.2958 -0.2752
  815MOL0     C 9936   5.216   4.149   3.431 -0.7529 -0.2359 -0.4010
  815MOL0     C 9937   5.335   4.212   3.472  0.1113 -0.1183 -0.0313
  815MOL0     O 9938   5.683   4.052   3.554 -0.4079 -0.4028  0.4256
  815MOL0     C 9939   5.798   4.375   3.449  0.1591 -0.7544 -0.5624
  815MOL0     C 9940   5.916   4.451   3.444 -0.4118  0.0469 -0.4717
  815MOL0     N 9941   6.433   4.896   3.232  0.1399  0.8582  0.8631
  815MOL0     N 9942   6.473   4.991   3.159  0.8553 -0.2054  0.3118
  815MOL0     C 9943   7.735   5.476   3.046 -0.7781  0.6199 -0.1555
  815MOL0     C 9944   7.855   5.545   3.044 -1.0975 -0.2216  0.1045
  815MOL0     C 9945   8.224   5.777   3.111  0.5514 -0.5291  0.3041
  815MOL0     C 9946   8.348   5.728   3.170 -0.6298 -0.4273  0.8310
  815MOL0     C 9947   8.461   5.810   3.162  0.4574 -0.1987  0.1282
  815MOL0     C 9948   8.443   5.925   3.096 -0.0516 -0.4697 -0.3192
  815MOL0     O 9949   8.552   5.999   3.062  0.0326  0.4773 -0.2645
  815MOL0     C 9950   8.591   5.985   2.929 -0.1063 -0.8476  0.0075
  815MOL0     C 9951   8.720   6.089   2.901  0.9622 -0.0459  0.0878
  815MOL0     C 9952   8.792   6.079   2.762 -0.7678  0.4804 -0.4378
  815MOL0     C 9953   8.694   6.090   2.647  1.1819  0.3067 -0.0146
  815MOL0     C 9954   8.776   6.139   2.533  0.0396 -0.3004  0.8923
  815MOL0     C 9955   8.842   6.200   2.447  0.5320  1.0674 -0.3945
  815MOL0     C 9956   8.324   5.984   3.063  0.4118  0.1130 -0.1815
  815MOL0     C 9957   8.210   5.905   3.071  0.3787 -0.3170 -0.8876
  815MOL0     H 9958   7.801   5.776   3.282  3.5962 -0.5708  0.9163
  815MOL0     H 9959   7.577   5.681   3.271 -0.3444  1.5252 -3.4822
  815MOL0     H 9960   7.481   5.423   2.917 -1.3179  1.5855  0.1319
  815MOL0     H 9961   7.514   5.290   3.027  1.1812  1.2023  2.3035
  815MOL0     H 9962   7.293   5.310   3.126  2.5795  0.0530  1.3243
  815MOL0     H 9963   7.253   5.442   3.006 -1.4005 -0.1357  1.3352
  815MOL0     H 9964   7.331   5.251   2.838  0.6496 -1.6410  0.2451
  815MOL0     H 9965   7.292   5.139   2.973 -0.5615  0.2264 -0.5292
  815MOL0     H 9966   7.094   5.334   2.849  0.4809  0.1429 -1.4938
  815MOL0     H 9967   7.118   5.167   2.814 -1.4908 -2.4477  1.7563
  815MOL0     H 9968   7.061   5.118   3.064  0.6356  0.5527  0.0175
  815MOL0     H 9969   7.027   5.290   3.085 -2.9922 -0.5558  1.4793
  815MOL0     H 9970   6.825   5.261   2.950  0.2937  0.5600  0.8618
  815MOL0     H 9971   6.873   5.113   2.873 -3.4707  2.9312 -0.7614
  815MOL0     H 9972   6.848   4.987   3.085 -2.0916 -1.1106 -1.7124
  815MOL0     H 9973   6.788   5.139   3.156 -0.6902 -3.5520  2.1835
  815MOL0     H 9974   6.672   4.991   2.922  2.8691 -2.0019  1.6743
  815MOL0     H 9975   6.601   5.140   2.996 -0.8944  0.2529  0.6101
  815MOL0     H 9976   6.724   4.789   3.144 -1.5968 -2.5938  0.5200
  815MOL0     H 9977   6.614   4.613   3.289 -0.3127  1.2296 -2.1330
  815MOL0     H 9978   6.547   4.716   3.430  2.5508 -1.3941  0.8691
  815MOL0     H 9979   6.381   4.564   3.245 -2.9612  1.3286  0.5285
  815MOL0     H 9980   6.320   4.682   3.359 -0.3362  0.9416 -0.4694
  815MOL0     H 9981   6.408   4.527   3.558 -0.2632 -2.3375  1.3053
  815MOL0     H 9982   6.481   4.425   3.447  0.8849 -0.0742 -0.5896
  815MOL0     H 9983   6.259   4.341   3.534  0.7035 -2.3852 -1.3448
  815MOL0     H 9984   6.240   4.369   3.357 -1.1791 -0.5547  1.5728
  815MOL0     H 9985   6.102   4.266   3.660 -0.0634  1.1790  0.7704
  815MOL0     H 9986   6.013   4.100   3.745  0.2084 -1.0281 -0.4388
  815MOL0     H 9987   5.835   4.117   3.764 -1.0662 -0.0555 -1.1617
  815MOL0     H 9988   5.911   4.012   3.630  1.4405 -1.5036  1.9237
  815MOL0     H 9989   5.544   3.973   3.379  0.1890 -0.1185  0.1370
  815MOL0     H 9990   5.330   3.846   3.320 -0.0512 -1.2297  2.6263
  815MOL0     H 9991   4.998   4.016   3.533  0.4935  0.2064  0.0760
  815MOL0     H 9992   4.933   4.086   3.383  2.7611 -0.0375 -1.9392
  815MOL0     H 9993   4.867   3.862   3.305  2.9865 -1.8698  0.0728
  815MOL0     H 9994   4.908   3.805   3.467 -1.5335 -1.5922 -1.8931
  815MOL0     H 9995   4.712   4.022   3.407  2.6712 -0.0069  0.0267
  815MOL0     H 9996   4.753   3.964   3.571 -1.6604 -0.6142  0.5023
  815MOL0     H 9997   4.646   3.790   3.348  1.6858 -1.5047  0.3728
  815MOL0     H 9998   4.678   3.739   3.519 -2.2330 -2.2530 -0.5802
  815MOL0     H 9999   4.479   3.961   3.452 -4.7943 -1.9909 -1.1290
  815MOL0     H10000   4.519   3.895   3.606  0.4168  4.3213 -1.2965
  815MOL0     H10001   4.406   3.716   3.378 -3.4221  0.7876 -0.4909
  815MOL0     H10002   4.437   3.664   3.536 -0.6267 -0.5652 -0.8298
  815MOL0     H10003   4.229   3.887   3.503 -2.3423 -1.3660 -4.2110
  815MOL0     H10004   4.267   3.787   3.640 -0.9106  1.3836 -0.1213
  815MOL0     H10005   4.091   3.674   3.540 -0.0768 -0.3212  0.5364
  815MOL0     H10006   4.226   3.592   3.457  0.6670  1.5555 -1.0589
  815MOL0     H10007   5.131   4.207   3.466 -1.1537  0.6132 -2.6376
  815MOL0     H10008   5.340   4.313   3.512  0.6787  1.2140 -3.1761
  815MOL0     H10009   5.725   4.394   3.371  2.9135 -1.1819 -3.4727
  815MOL0     H10010   5.931   4.534   3.376 -0.3075 -0.2513 -0.8198
  815MOL0     H10011   7.720   5.387   2.986 -0.2177  0.2032  0.3184
  815MOL0     H10012   7.926   5.503   2.974  1.9352  0.4775  2.5477
  815MOL0     H10013   8.357   5.633   3.220  0.8244 -0.3098  0.8467
  815MOL0     H10014   8.556   5.770   3.197 -0.1732 -0.5071  1.5157
  815MOL0     H10015   8.618   5.881   2.910 -1.3047 -1.8747  3.3100
  815MOL0     H10016   8.511   6.012   2.859  1.7652  1.3551 -1.4612
  815MOL0     H10017   8.792   6.069   2.980 -1.1705 -1.6071  1.7352
  815MOL0     H10018   8.674   6.188   2.904 -1.4288 -1.0487 -0.6702
  815MOL0     H10019   8.840   5.982   2.749  1.1200  1.4641 -1.2153
  815MOL0     H10020   8.864   6.161   2.757 -0.6436  0.3327 -3.9437
  815MOL0     H10021   8.618   6.167   2.664  2.0463  1.2596 -0.3618
  815MOL0     H10022   8.650   5.991   2.631  1.4353  0.0827  0.6086
  815MOL0     H10023   8.902   6.249   2.373  2.3315  1.3193  1.1398
  815MOL0     H10024   8.312   6.088   3.035 -3.0720 -0.4931 -1.4200
  815MOL0     H10025   8.114   5.946   3.042  1.4801  1.0320 -2.8439
  816MOL0     O10026   1.770   9.633   2.557 -0.4527  0.0543 -0.5616
  816MOL0     C10027   1.865   9.569   2.498  0.4995  0.1466 -0.9311
  816MOL0     O10028   1.864   9.437   2.473  0.3681 -0.3147  0.6693
  816MOL0     C10029   1.786   9.359   2.552 -0.6821  0.4483  0.5213
  816MOL0     C10030   1.706   9.257   2.504 -0.1555  0.2120  1.3011
  816MOL0     C10031   1.634   9.174   2.584 -0.3321 -0.8077 -0.7950
  816MOL0     C10032   1.632   9.181   2.728 -0.1169 -0.3307  0.5682
  816MOL0     O10033   1.556   9.108   2.818 -0.0454  0.5044 -0.2008
  816MOL0     C10034   1.429   9.065   2.756  0.5423  0.0293 -0.3854
  816MOL0     C10035   1.360   9.003   2.866 -0.1814  0.2846 -0.9588
  816MOL0     C10036   1.219   8.970   2.825  0.6030  1.0452 -0.2705
  816MOL0     C10037   1.164   8.845   2.892 -0.0612  0.3004 -0.5481
  816MOL0     C10038   1.245   8.719   2.865 -0.6325  0.5375 -0.1804
  816MOL0     C10039   1.266   8.686   2.711  0.0200  0.3859  0.5130
  816MOL0     C10040   1.319   8.547   2.705 -0.1292  0.6331 -0.1814
  816MOL0     C10041   1.215   8.428   2.740 -0.5274  0.9297 -0.0704
  816MOL0     N10042   1.137   8.391   2.625  0.1858  0.3203  0.0220
  816MOL0     C10043   1.180   8.329   2.514 -0.1446  0.6203 -0.0159
  816MOL0     C10044   1.087   8.360   2.423  0.6135 -0.2159 -0.3107
  816MOL0     C10045   1.089   8.304   2.287  0.2441 -0.0726 -0.7330
  816MOL0     C10046   1.079   8.422   2.186  0.2801  0.5683  0.9137
  816MOL0     C10047   1.151   8.385   2.048  0.3511 -0.5975 -0.5186
  816MOL0     C10048   1.117   8.474   1.930  0.1836 -0.0008  0.0105
  816MOL0     O10049   1.146   8.615   1.961  0.4219  0.9858  0.2196
  816MOL0     C10050   1.269   8.660   1.941 -0.4783  1.5311  0.7586
  816MOL0     C10051   1.343   8.634   1.833  0.1492  0.7245  0.0375
  816MOL0     C10052   1.471   8.695   1.818 -0.0746  0.2825  0.2628
  816MOL0     C10053   1.550   8.657   1.692  0.1645  0.8784 -0.1976
  816MOL0     C10054   1.519   8.776   1.922 -0.6380 -0.0064 -0.5932
  816MOL0     C10055   1.645   8.854   1.911 -0.5841  0.2545 -0.0827
  816MOL0     O10056   1.747   8.811   1.837  0.3912 -0.4141  0.1822
  816MOL0     C10057   1.837   8.900   1.780 -1.1846 -0.3121 -0.3465
  816MOL0     C10058   1.810   8.955   1.654  0.1958 -0.0666  0.1626
  816MOL0     C10059   1.901   9.037   1.584 -0.5033  0.0906 -0.9268
  816MOL0     C10060   2.024   9.067   1.646  0.4078 -0.3204  0.4995
  816MOL0     O10061   2.130   9.121   1.587 -0.1911 -0.1035  1.2231
  816MOL0     C10062   2.124   9.163   1.447 -0.0357  0.1076  0.3524
  816MOL0     C10063   2.150   9.045   1.351  0.6757 -0.9384  0.9240
  816MOL0     C10064   2.168   9.104   1.215  0.5570 -0.0710 -0.1000
  816MOL0     C10065   2.181   8.991   1.113  0.3423 -0.7218  0.1225
  816MOL0     C10066   2.194   9.044   0.972  0.3896 -0.2886 -0.2772
  816MOL0     C10067   2.208   8.923   0.878  0.0353  0.2945  0.0890
  816MOL0     C10068   2.203   8.958   0.730  0.9993  0.8947 -0.6163
  816MOL0     C10069   2.259   9.087   0.684 -0.5797 -1.0974 -0.1590
  816MOL0    Cl10070   2.431   9.068   0.737  0.0892 -0.4771 -0.4182
  816MOL0     C10071   2.050   9.024   1.775 -0.8710  0.3713  0.8433
  816MOL0     C10072   1.959   8.936   1.840  0.4157 -0.7307  0.7043
  816MOL0     O10073   1.647   8.962   1.971 -0.0204  0.2769 -0.3642
  816MOL0     C10074   1.445   8.781   2.039 -0.5404  0.1369 -0.2838
  816MOL0     C10075   1.320   8.726   2.047 -0.1474 -0.6366 -0.4998
  816MOL0     N10076   0.995   8.441   2.478  0.3969 -0.1711 -0.4171
  816MOL0     N10077   1.030   8.454   2.598  0.5008  0.5535  0.6843
  816MOL0     C10078   1.722   9.270   2.782 -0.1691 -0.6873  0.4918
  816MOL0     C10079   1.801   9.355   2.694 -0.3358  0.5658 -0.7312
  816MOL0     C10080   1.971   9.644   2.437 -0.7521  0.1530 -0.3566
  816MOL0     C10081   1.979   9.787   2.457  0.2976  0.1407  0.5458
  816MOL0     C10082   2.102   9.856   2.429 -0.0961  0.2198  0.4470
  816MOL0     C10083   2.207   9.794   2.362 -1.4436  0.7435  0.6293
  816MOL0     O10084   2.317   9.874   2.328  0.2923  0.0891 -0.5813
  816MOL0     C10085   2.398   9.836   2.219  0.1622 -0.4046 -0.1937
  816MOL0     C10086   2.519   9.904   2.196 -0.1570 -0.0244  0.0371
  816MOL0     C10087   2.624   9.829   2.101  0.9061 -0.7983  0.4503
  816MOL0     C10088   2.548   9.780   1.966 -0.8573 -0.3178 -0.3603
  816MOL0     C10089   2.659   9.756   1.865  0.7967 -0.6499 -0.0650
  816MOL0     C10090   2.731   9.729   1.771  0.2611  0.4170  0.1762
  816MOL0     C10091   2.193   9.658   2.320 -0.1632  0.1339 -0.4142
  816MOL0     C10092   2.083   9.583   2.365  0.5703  0.0787  0.7532
  816MOL0     H10093   1.691   9.247   2.396 -1.8080  1.1721  1.4004
  816MOL0     H10094   1.579   9.092   2.540 -1.0263 -2.4944  2.8122
  816MOL0     H10095   1.378   9.157   2.726 -0.6333  0.4671  2.6013
  816MOL0     H10096   1.444   9.002   2.668 -1.0192 -0.0531 -0.6230
  816MOL0     H10097   1.407   8.910   2.901 -1.6066 -1.0264 -2.3510
  816MOL0     H10098   1.352   9.072   2.951  1.5747  1.0525 -1.3811
  816MOL0     H10099   1.156   9.056   2.850 -0.5348  0.4597 -1.0455
  816MOL0     H10100   1.217   8.965   2.716 -0.9394  2.5743 -0.3548
  816MOL0     H10101   1.154   8.860   3.000 -3.7096 -0.7067 -0.6262
  816MOL0     H10102   1.068   8.834   2.840 -0.9362 -1.0795  1.2548
  816MOL0     H10103   1.340   8.740   2.915 -0.2264  2.5963 -1.7184
  816MOL0     H10104   1.207   8.632   2.920  1.5030 -1.1899 -1.3039
  816MOL0     H10105   1.165   8.696   2.669  0.5086 -1.2879 -1.2036
  816MOL0     H10106   1.326   8.766   2.666 -1.3601 -0.0357 -2.2976
  816MOL0     H10107   1.354   8.518   2.606 -1.0222  2.2372 -1.0028
  816MOL0     H10108   1.410   8.541   2.766  0.6656  1.1017 -1.2906
  816MOL0     H10109   1.145   8.458   2.818 -2.7507 -0.9301 -1.2250
  816MOL0     H10110   1.265   8.336   2.773 -2.2470 -0.2240 -0.5313
  816MOL0     H10111   1.270   8.271   2.497 -1.2278 -0.7513 -1.3933
  816MOL0     H10112   1.179   8.243   2.278  1.2688  0.8452  2.0044
  816MOL0     H10113   0.998   8.242   2.287 -1.6355  2.2915  2.9473
  816MOL0     H10114   1.142   8.500   2.230  3.3150 -0.3662 -1.3879
  816MOL0     H10115   0.976   8.448   2.159 -0.4420 -0.5729  2.3889
  816MOL0     H10116   1.111   8.289   2.012 -0.8369  0.2140 -1.4594
  816MOL0     H10117   1.256   8.374   2.074 -0.2010 -0.3621  2.0277
  816MOL0     H10118   1.008   8.473   1.926  0.1515  1.6216 -0.6071
  816MOL0     H10119   1.169   8.447   1.838  0.8058  6.5413 -2.1109
  816MOL0     H10120   1.298   8.578   1.751  2.4636  0.1279 -0.9159
  816MOL0     H10121   1.635   8.592   1.718  0.0583 -0.4864 -2.8620
  816MOL0     H10122   1.494   8.602   1.615  0.8288  1.6951 -1.2843
  816MOL0     H10123   1.585   8.743   1.636 -3.0306  1.1773 -1.9682
  816MOL0     H10124   1.711   8.947   1.608 -0.3606  1.5418  1.0215
  816MOL0     H10125   1.881   9.072   1.483  2.4273 -0.6615 -1.8697
  816MOL0     H10126   2.031   9.211   1.413 -0.7970 -2.6453 -1.8788
  816MOL0     H10127   2.197   9.243   1.435 -1.1890  1.1393 -0.0341
  816MOL0     H10128   2.238   8.986   1.375  1.4848 -1.6657 -3.0600
  816MOL0     H10129   2.061   8.981   1.351 -2.1200  2.5467 -0.6343
  816MOL0     H10130   2.252   9.174   1.221 -0.7058  1.4422  1.0370
  816MOL0     H10131   2.087   9.166   1.176 -1.7897 -2.8573  0.0135
  816MOL0     H10132   2.265   8.925   1.136 -1.3443 -4.4995 -3.4106
  816MOL0     H10133   2.098   8.921   1.118 -0.3382  0.0185 -0.5937
  816MOL0     H10134   2.284   9.105   0.960  0.8383 -1.4558 -4.1675
  816MOL0     H10135   2.107   9.100   0.937  0.5133 -0.0703 -0.2402
  816MOL0     H10136   2.308   8.883   0.897 -1.0259 -2.4346  0.2853
  816MOL0     H10137   2.136   8.845   0.904 -0.2937  0.0186 -1.5147
  816MOL0     H10138   2.097   8.968   0.704  1.1153  1.3979 -0.9177
  816MOL0     H10139   2.243   8.877   0.669 -0.5294 -0.8847  0.6049
  816MOL0     H10140   2.204   9.165   0.736 -0.6629 -2.2334  1.5313
  816MOL0     H10141   2.242   9.101   0.576 -0.7547  0.3261  0.0341
  816MOL0     H10142   2.145   9.051   1.820 -0.2466 -1.7289  0.9031
  816MOL0     H10143   1.986   8.903   1.940  0.2401  0.6782  1.2383
  816MOL0     H10144   1.475   8.842   2.124  0.1644  0.8191 -1.0121
  816MOL0     H10145   1.254   8.747   2.131 -0.3146  0.2840 -0.8609
  816MOL0     H10146   1.736   9.275   2.889 -0.6855 -0.3419  0.5469
  816MOL0     H10147   1.875   9.412   2.750  0.6416 -0.9407 -0.4421
  816MOL0     H10148   1.909   9.835   2.524 -1.2193  0.1773 -0.9765
  816MOL0     H10149   2.116   9.961   2.450  4.3697  0.7183 -3.4027
  816MOL0     H10150   2.425   9.730   2.220  1.4576 -0.0905 -0.5487
  816MOL0     H10151   2.337   9.847   2.129  0.3917  1.7206 -0.1385
  816MOL0     H10152   2.578   9.911   2.288  2.7256 -0.6399 -1.6515
  816MOL0     H10153   2.492   9.998   2.146 -2.5928 -0.6420  0.0887
  816MOL0     H10154   2.678   9.751   2.155  1.3446 -2.6158 -2.3615
  816MOL0     H10155   2.702   9.901   2.076  0.5568 -0.5304  0.1056
  816MOL0     H10156   2.484   9.859   1.925 -0.8200 -0.2818 -0.3498
  816MOL0     H10157   2.490   9.688   1.977 -1.5095 -0.0896 -1.6821
  816MOL0     H10158   2.797   9.715   1.687  0.2325 -0.1713  0.2500
  816MOL0     H10159   2.271   9.611   2.260  1.4088  0.1804  1.4890
  816MOL0     H10160   2.068   9.483   2.326  2.6516 -0.1523  0.4604
  817MOL0     O10161   4.807   9.016   9.304  0.2064  0.2223 -0.2605
  817MOL0     C10162   4.806   9.044   9.182  0.2694  0.0909 -1.0959
  817MOL0     O10163   4.699   9.076   9.109 -0.3273 -0.0317  0.5598
  817MOL0     C10164   4.573   9.085   9.164 -0.4739 -1.0246 -0.5651
  817MOL0     C10165   4.467   9.036   9.089  0.6601 -0.0630  0.0106
  817MOL0     C10166   4.335   9.056   9.134 -0.4403  1.1454  0.3957
  817MOL0     C10167   4.316   9.138   9.253  0.2598  0.0139  0.4715
  817MOL0     O10168   4.192   9.172   9.300 -0.0346  0.1144 -0.3669
  817MOL0     C10169   4.088   9.078   9.303  0.1926 -0.0590  0.7012
  817MOL0     C10170   3.957   9.153   9.320  0.2195  0.0547 -0.3552
  817MOL0     C10171   3.846   9.052   9.300 -0.8246 -0.1977 -0.4480
  817MOL0     C10172   3.703   9.109   9.333  0.6272 -0.5712 -0.5694
  817MOL0     C10173   3.591   9.002   9.323  0.5860  0.3654  0.6698
  817MOL0     C10174   3.598   8.928   9.185 -0.0385 -0.0972 -0.2859
  817MOL0     C10175   3.469   8.851   9.161  0.6535  0.0018  0.2674
  817MOL0     C10176   3.336   8.936   9.165 -0.2335  0.0911 -0.5695
  817MOL0     N10177   3.220   8.844   9.160  0.0858  0.6960  0.0936
  817MOL0     C10178   3.175   8.776   9.049  0.6655 -0.4053 -0.1903
  817MOL0     C10179   3.072   8.693   9.090  0.4369 -0.1251 -0.1548
  817MOL0     C10180   2.992   8.605   9.004  0.0453  0.1817 -0.8624
  817MOL0     C10181   2.898   8.684   8.915 -0.4934  0.2134  0.2815
  817MOL0     C10182   2.781   8.754   8.994  0.4583  0.5627  0.1244
  817MOL0     C10183   2.677   8.659   9.034 -0.2110 -0.3865 -0.2483
  817MOL0     O10184   2.620   8.590   8.924  0.0430 -0.8271  0.1945
  817MOL0     C10185   2.530   8.486   8.930  0.1630 -0.1539 -0.1936
  817MOL0     C10186   2.487   8.432   9.052  0.6797 -0.1045 -0.5843
  817MOL0     C10187   2.397   8.321   9.045 -0.3202  0.1368 -0.2361
  817MOL0     C10188   2.356   8.269   9.175 -0.4321 -0.6394 -0.2084
  817MOL0     C10189   2.366   8.260   8.923  0.6367  1.1846  0.1268
  817MOL0     C10190   2.261   8.158   8.914 -0.5121 -0.3438 -0.0972
  817MOL0     O10191   2.258   8.062   9.013 -0.1853 -0.5340  0.3045
  817MOL0     C10192   2.160   7.971   8.997 -0.3644 -0.6266  0.6649
  817MOL0     C10193   2.158   7.863   8.922 -0.4024  0.9066 -0.2228
  817MOL0     C10194   2.052   7.791   8.876  0.2362  0.8201  0.0969
  817MOL0     C10195   1.924   7.828   8.922 -0.1666 -0.2840 -0.6060
  817MOL0     O10196   1.807   7.765   8.891 -0.0177  0.1334 -0.1505
  817MOL0     C10197   1.815   7.621   8.860  0.1636 -0.3700  0.2883
  817MOL0     C10198   1.691   7.537   8.892  0.0687  0.4562  0.0385
  817MOL0     C10199   1.660   7.539   9.042  0.6187  0.0030  0.4362
  817MOL0     C10200   1.542   7.452   9.059  1.0100  0.1594  0.8235
  817MOL0     C10201   1.495   7.428   9.202  0.2569 -0.1438 -0.9704
  817MOL0     C10202   1.368   7.344   9.202 -0.4977 -0.1194  0.1600
  817MOL0     C10203   1.328   7.295   9.345 -0.9712 -0.1567  0.2545
  817MOL0     C10204   1.271   7.152   9.349  0.1808 -0.1541  1.0999
  817MOL0    Cl10205   1.100   7.135   9.291 -0.3484  0.4160  0.3262
  817MOL0     C10206   1.919   7.929   9.020 -0.3231  0.3837  0.0401
  817MOL0     C10207   2.036   8.004   9.063  0.2927  1.0756  0.9021
  817MOL0     O10208   2.176   8.174   8.827  0.7077 -0.6969 -0.9744
  817MOL0     C10209   2.422   8.319   8.803  0.1825  0.4164  0.6911
  817MOL0     C10210   2.495   8.438   8.808  1.0685 -0.6080 -0.9232
  817MOL0     N10211   3.066   8.722   9.225  1.2427  0.6754  0.9784
  817MOL0     N10212   3.147   8.811   9.268 -0.6667  0.2064  0.4799
  817MOL0     C10213   4.422   9.190   9.329  0.8033  0.3573 -0.3460
  817MOL0     C10214   4.552   9.158   9.287  0.5489  0.7809  0.3502
  817MOL0     C10215   4.926   9.035   9.104 -0.5465 -0.3459 -0.3924
  817MOL0     C10216   5.025   8.944   9.143 -0.6250 -0.7012  0.7351
  817MOL0     C10217   5.143   8.953   9.058  0.0859  0.3222 -0.3406
  817MOL0     C10218   5.158   9.025   8.937  0.0589  0.0737 -0.9020
  817MOL0     O10219   5.262   9.038   8.851 -0.1774  0.5132 -0.1414
  817MOL0     C10220   5.381   8.977   8.898  0.0787  0.2646  0.1392
  817MOL0     C10221   5.504   9.028   8.824 -0.3536 -0.8760  0.0720
  817MOL0     C10222   5.641   9.000   8.894  0.6866  0.6932  0.4447
  817MOL0     C10223   5.753   9.079   8.833 -0.6968  0.7385 -0.9282
  817MOL0     C10224   5.894   9.045   8.863 -0.0145  0.2694 -0.8838
  817MOL0     C10225   6.010   9.048   8.898 -1.4629  0.5831  0.1541
  817MOL0     C10226   5.056   9.110   8.909 -0.4887 -0.5959  0.3581
  817MOL0     C10227   4.938   9.112   8.986 -1.1438  0.2749 -0.4918
  817MOL0     H10228   4.486   8.991   8.992  0.7514  1.6011 -0.7871
  817MOL0     H10229   4.245   9.027   9.081 -1.0100  2.2417  0.7358
  817MOL0     H10230   4.091   9.011   9.217 -1.5827 -1.2972  1.5346
  817MOL0     H10231   4.095   9.015   9.392  0.1407  2.3877  2.5567
  817MOL0     H10232   3.953   9.200   9.419  3.7445  1.5703 -0.7819
  817MOL0     H10233   3.949   9.236   9.249 -3.4249 -0.2072 -0.4404
  817MOL0     H10234   3.857   9.015   9.197 -0.3858  0.0904 -0.5083
  817MOL0     H10235   3.861   8.967   9.367  2.9151  1.7683  1.4762
  817MOL0     H10236   3.701   9.141   9.438 -2.4569 -2.7447  0.1890
  817MOL0     H10237   3.677   9.191   9.265  0.4323 -1.2795 -1.3665
  817MOL0     H10238   3.592   8.935   9.409 -5.2377 -0.4708  0.5096
  817MOL0     H10239   3.501   9.061   9.340  1.3350  0.8936  3.1663
  817MOL0     H10240   3.604   9.013   9.117  0.0605 -0.4946 -0.7782
  817MOL0     H10241   3.690   8.869   9.182  0.1895 -0.0201  2.4598
  817MOL0     H10242   3.473   8.821   9.055 -2.8188 -0.0544  0.0473
  817MOL0     H10243   3.453   8.761   9.220  0.2850 -0.8601 -1.1045
  817MOL0     H10244   3.323   8.994   9.073 -1.7026 -0.9821 -1.0967
  817MOL0     H10245   3.331   8.998   9.254 -0.4627  1.2645 -1.3810
  817MOL0     H10246   3.216   8.787   8.949  1.0837 -1.6845 -0.1750
  817MOL0     H10247   3.057   8.544   8.940  1.7862  0.5264  0.4934
  817MOL0     H10248   2.935   8.535   9.065  1.4027 -0.4220 -0.2465
  817MOL0     H10249   2.866   8.621   8.831 -0.5034  2.3986 -1.4338
  817MOL0     H10250   2.949   8.771   8.874 -1.4040  1.1238  1.0261
  817MOL0     H10251   2.736   8.823   8.922 -2.7759 -0.6190  0.8872
  817MOL0     H10252   2.826   8.807   9.078 -1.2182 -2.5443  3.2478
  817MOL0     H10253   2.594   8.718   9.073 -1.2322 -2.6715  1.2431
  817MOL0     H10254   2.717   8.590   9.109 -0.3662 -2.2107 -1.7428
  817MOL0     H10255   2.515   8.481   9.144 -1.5264 -1.1916  0.7633
  817MOL0     H10256   2.372   8.347   9.250 -0.4062  0.6788 -1.5117
  817MOL0     H10257   2.251   8.239   9.178 -0.0667 -1.8943  1.2285
  817MOL0     H10258   2.418   8.181   9.195 -2.2652 -1.5785  1.6351
  817MOL0     H10259   2.252   7.838   8.874  0.3883 -1.5331  2.3328
  817MOL0     H10260   2.060   7.705   8.810 -2.3441  2.0632 -2.0188
  817MOL0     H10261   1.832   7.614   8.752  4.0138 -0.1115  0.7615
  817MOL0     H10262   1.900   7.570   8.907  0.9764  0.2912 -0.4417
  817MOL0     H10263   1.610   7.588   8.838 -0.8565  0.8969  1.7314
  817MOL0     H10264   1.718   7.437   8.859 -1.4213 -0.4204  1.3218
  817MOL0     H10265   1.639   7.636   9.089  1.3426  1.2553 -1.6574
  817MOL0     H10266   1.738   7.501   9.108  0.8904  0.1672  0.2090
  817MOL0     H10267   1.452   7.483   9.005  1.0312 -0.1611  0.5985
  817MOL0     H10268   1.574   7.358   9.012 -0.2550  0.2483 -0.2800
  817MOL0     H10269   1.453   7.522   9.238 -2.7734 -0.9412 -2.1219
  817MOL0     H10270   1.581   7.382   9.253 -0.0791 -1.8446 -1.8614
  817MOL0     H10271   1.283   7.397   9.158  0.1238  1.7575  1.1219
  817MOL0     H10272   1.388   7.256   9.139  0.6661  0.6636 -0.6002
  817MOL0     H10273   1.261   7.368   9.391 -0.5831  1.3012 -1.3705
  817MOL0     H10274   1.411   7.307   9.415 -1.4200 -2.6094  1.3139
  817MOL0     H10275   1.267   7.119   9.453 -1.1998  2.3029  1.9187
  817MOL0     H10276   1.346   7.097   9.292  1.1282 -0.2021  2.3618
  817MOL0     H10277   1.822   7.963   9.054 -0.9639  0.3955 -1.7428
  817MOL0     H10278   2.016   8.093   9.122  0.8039  1.7713  0.0516
  817MOL0     H10279   2.408   8.273   8.706 -3.7062 -0.5223  1.4947
  817MOL0     H10280   2.521   8.492   8.718  0.1929 -3.5585 -3.1088
  817MOL0     H10281   4.398   9.242   9.421 -2.0727 -0.9858 -0.2334
  817MOL0     H10282   4.636   9.189   9.349 -0.4621  0.0895  2.1411
  817MOL0     H10283   5.029   8.870   9.222 -0.2336  2.5114  4.0046
  817MOL0     H10284   5.222   8.883   9.085 -0.9856 -0.2368  1.5348
  817MOL0     H10285   5.401   8.979   9.006  1.2355 -0.6012 -0.0339
  817MOL0     H10286   5.378   8.871   8.873  0.8398  0.3096 -0.1817
  817MOL0     H10287   5.502   9.137   8.813  0.5508 -0.9563 -1.0959
  817MOL0     H10288   5.507   8.978   8.726  0.2733 -0.5108 -0.1002
  817MOL0     H10289   5.657   8.892   8.883  0.0390  0.4641  1.6453
  817MOL0     H10290   5.624   9.012   9.001 -0.6208  0.3521  0.2916
  817MOL0     H10291   5.735   9.185   8.857 -2.2352  1.4331 -4.4593
  817MOL0     H10292   5.744   9.051   8.727  0.1093  3.7384 -1.9238
  817MOL0     H10293   6.113   9.056   8.927 -0.7285 -0.1380 -2.0562
  817MOL0     H10294   5.074   9.168   8.820  2.6120 -0.1176  1.1887
  817MOL0     H10295   4.875   9.195   8.960  1.4669  3.5234  2.5156
  818MOL0     O10296   2.818   9.999   4.841 -0.4188  0.0529 -0.5276
  818MOL0     C10297   2.720   9.964   4.908  0.1433  0.0481  0.1459
  818MOL0     O10298   2.728   9.904   5.021 -0.0472 -0.5493 -0.4601
  818MOL0     C10299   2.849   9.881   5.077  0.0838 -0.4143  0.0931
  818MOL0     C10300   2.903   9.966   5.181  0.0441  0.9030  0.2828
  818MOL0     C10301   3.016   9.924   5.254 -0.3428 -0.2770 -0.0446
  818MOL0     C10302   3.086   9.806   5.229  0.0454  0.5179 -0.4842
  818MOL0     O10303   3.200   9.775   5.303 -0.6605  0.0563 -0.0024
  818MOL0     C10304   3.243   9.633   5.281  0.2647  0.5180 -0.2043
  818MOL0     C10305   3.368   9.605   5.365 -0.2369 -0.5550 -0.4635
  818MOL0     C10306   3.483   9.703   5.355  0.2028 -0.1179  0.3134
  818MOL0     C10307   3.611   9.661   5.411  0.1248 -0.2082 -1.3738
  818MOL0     C10308   3.716   9.669   5.305 -1.5929  0.3354 -0.2121
  818MOL0     C10309   3.733   9.818   5.268  0.0993  0.1757 -0.4200
  818MOL0     C10310   3.822   9.840   5.133  0.4809 -0.4074  0.3467
  818MOL0     C10311   3.735   9.792   5.013  0.2069 -0.5804  0.1298
  818MOL0     N10312   3.633   9.896   4.981 -0.5512  1.1898 -0.1304
  818MOL0     C10313   3.497   9.866   4.982 -1.0017 -0.0200 -0.3331
  818MOL0     C10314   3.431   9.980   4.956 -1.2350 -0.8369 -0.2173
  818MOL0     C10315   3.288  10.016   4.965 -0.3205  0.3047 -0.3032
  818MOL0     C10316   3.204  10.006   4.837  0.5160  0.5186 -0.2057
  818MOL0     C10317   3.284  10.067   4.723 -1.1405 -0.4144  0.9216
  818MOL0     C10318   3.287  10.224   4.731  0.2496 -0.5984  0.0348
  818MOL0     O10319   3.305  10.281   4.606  0.9991 -0.1397 -0.4583
  818MOL0     C10320   3.436  10.322   4.571  0.0545  0.6788  0.3308
  818MOL0     C10321   3.524  10.236   4.504  0.3466  0.5008  1.1152
  818MOL0     C10322   3.646  10.281   4.452  0.7163 -0.4907 -0.0759
  818MOL0     C10323   3.741  10.194   4.376 -0.1394 -0.0448  0.0094
  818MOL0     C10324   3.677  10.419   4.463 -0.5787  0.0908  0.2663
  818MOL0     C10325   3.808  10.474   4.435 -1.0200  0.1891 -0.4330
  818MOL0     O10326   3.875  10.534   4.539  0.7252  0.1468 -0.4789
  818MOL0     C10327   4.012  10.558   4.523  0.2476 -0.4589 -0.5474
  818MOL0     C10328   4.054  10.692   4.545 -0.3037  0.5278  0.0567
  818MOL0     C10329   4.186  10.732   4.563 -0.0548  0.4213  0.4120
  818MOL0     C10330   4.289  10.627   4.568  0.3814 -0.3472 -1.3573
  818MOL0     O10331   4.422  10.658   4.601 -0.2673 -0.3775 -0.1948
  818MOL0     C10332   4.474  10.790   4.591 -0.0004 -0.2951 -0.0072
  818MOL0     C10333   4.629  10.789   4.601  0.0885 -0.0623 -0.9859
  818MOL0     C10334   4.677  10.686   4.493 -0.1985 -0.9534 -0.4194
  818MOL0     C10335   4.827  10.661   4.509 -0.2161 -0.2879  0.0185
  818MOL0     C10336   4.881  10.547   4.421 -0.1376 -0.3590 -0.5868
  818MOL0     C10337   4.925  10.593   4.284 -0.0367 -0.6819  0.3560
  818MOL0     C10338   5.076  10.627   4.288 -0.1957 -0.6334  0.4009
  818MOL0     C10339   5.123  10.690   4.154  0.3104 -0.4037 -0.3089
  818MOL0    Cl10340   5.128  10.570   4.027 -0.2384  0.4187 -0.0404
  818MOL0     C10341   4.248  10.489   4.546  0.5518 -0.5350  0.2447
  818MOL0     C10342   4.110  10.452   4.529  0.6202 -0.4427 -0.5932
  818MOL0     O10343   3.857  10.453   4.325  0.3627  0.6716 -0.5769
  818MOL0     C10344   3.593  10.506   4.537 -0.4434  0.1783 -1.0304
  818MOL0     C10345   3.477  10.460   4.588  0.2481  0.5224 -0.2228
  818MOL0     N10346   3.538  10.070   4.930  0.8059 -0.4797  0.2382
  818MOL0     N10347   3.656  10.017   4.937 -0.2523  0.3535  0.1534
  818MOL0     C10348   3.035   9.730   5.119 -1.1252  0.8166 -0.0245
  818MOL0     C10349   2.918   9.762   5.054 -0.0117  0.0051 -0.1910
  818MOL0     C10350   2.590   9.982   4.838 -0.4998 -0.0041 -0.8398
  818MOL0     C10351   2.571  10.049   4.713  0.6183  0.2854 -0.4738
  818MOL0     C10352   2.449  10.061   4.659  1.2628 -1.0077 -0.6170
  818MOL0     C10353   2.341  10.020   4.724  0.2344  0.2353  0.5190
  818MOL0     O10354   2.226  10.050   4.662  0.2733  0.5780 -0.1457
  818MOL0     C10355   2.106   9.989   4.707 -0.4575  0.2341  1.0149
  818MOL0     C10356   2.088   9.845   4.649 -1.6420  0.7632 -0.1697
  818MOL0     C10357   1.950   9.777   4.632  0.3449  0.6845 -0.2733
  818MOL0     C10358   1.949   9.622   4.638 -0.4663 -0.4753 -0.3284
  818MOL0     C10359   1.830   9.572   4.562 -0.7676  0.1206 -0.7498
  818MOL0     C10360   1.752   9.517   4.485  0.4928 -0.1782  0.0152
  818MOL0     C10361   2.349   9.948   4.842 -0.1196  0.5954 -0.3897
  818MOL0     C10362   2.479   9.935   4.901  0.6753 -0.1329 -0.5705
  818MOL0     H10363   2.859  10.065   5.188 -0.6786  0.7100 -1.3551
  818MOL0     H10364   3.060  10.005   5.311 -1.2440  0.4282 -0.3254
  818MOL0     H10365   3.158   9.572   5.312  0.4810 -0.0781 -0.7678
  818MOL0     H10366   3.282   9.612   5.181  1.2833 -0.9671  0.4698
  818MOL0     H10367   3.347   9.616   5.472  2.0296 -0.5527  0.0495
  818MOL0     H10368   3.396   9.503   5.338  0.5422  0.0433 -2.0236
  818MOL0     H10369   3.488   9.733   5.250 -3.0904 -1.8417 -0.4954
  818MOL0     H10370   3.457   9.797   5.404  0.0507 -0.1934  0.3782
  818MOL0     H10371   3.636   9.723   5.498 -0.9052 -0.4951 -0.8563
  818MOL0     H10372   3.608   9.554   5.434  2.3211 -0.2967 -1.3570
  818MOL0     H10373   3.815   9.635   5.334 -1.7276 -0.5213 -0.7332
  818MOL0     H10374   3.697   9.603   5.220 -1.3142 -1.2546  0.9181
  818MOL0     H10375   3.637   9.870   5.267  0.0734  0.1242 -0.7476
  818MOL0     H10376   3.795   9.876   5.338 -1.7259  2.1003 -0.2839
  818MOL0     H10377   3.873   9.937   5.126  3.2924 -1.5737  2.5818
  818MOL0     H10378   3.911   9.776   5.131 -0.3896 -1.9322 -4.8703
  818MOL0     H10379   3.694   9.694   5.036 -0.1683 -0.1365  1.4477
  818MOL0     H10380   3.801   9.778   4.927 -0.2518 -2.5032  0.0614
  818MOL0     H10381   3.452   9.775   5.019 -0.5008  1.1597  3.7169
  818MOL0     H10382   3.241   9.950   5.039  1.2441  2.0670  2.4293
  818MOL0     H10383   3.283  10.116   5.008 -0.6302  1.0026 -1.9052
  818MOL0     H10384   3.111  10.057   4.863 -0.4853  0.1588 -2.7431
  818MOL0     H10385   3.165   9.908   4.810  0.6998  0.3181  0.2463
  818MOL0     H10386   3.222  10.042   4.637  1.7351 -2.1835 -0.7926
  818MOL0     H10387   3.376  10.008   4.718 -1.1774 -0.3620 -0.9403
  818MOL0     H10388   3.357  10.266   4.804  0.5846  1.5039 -1.4183
  818MOL0     H10389   3.183  10.242   4.760 -0.2133  0.0802 -1.9252
  818MOL0     H10390   3.491  10.134   4.484 -1.8778  1.5973 -1.4093
  818MOL0     H10391   3.741  10.209   4.268  0.5160 -2.0335 -0.2986
  818MOL0     H10392   3.844  10.204   4.411 -0.6695 -0.7039  1.8955
  818MOL0     H10393   3.716  10.088   4.385  0.9059 -0.1424  2.3153
  818MOL0     H10394   3.983  10.774   4.551 -2.2514 -1.1602  1.7754
  818MOL0     H10395   4.212  10.835   4.584 -2.1190  0.4860  3.5200
  818MOL0     H10396   4.444  10.831   4.495 -1.8688  0.4380  0.8531
  818MOL0     H10397   4.454  10.851   4.680 -2.3053  0.1321 -0.7695
  818MOL0     H10398   4.679  10.884   4.580  1.2036 -0.8653 -2.1809
  818MOL0     H10399   4.660  10.768   4.704  0.2188 -0.6672 -1.1420
  818MOL0     H10400   4.657  10.738   4.399  0.0981  3.7378  1.8421
  818MOL0     H10401   4.630  10.588   4.486  0.2479 -1.2723  0.7211
  818MOL0     H10402   4.890  10.746   4.480  0.0833 -1.1344 -2.0250
  818MOL0     H10403   4.840  10.639   4.615 -2.6956  3.2535  1.2371
  818MOL0     H10404   4.810  10.464   4.422  1.1788 -1.5249 -1.0731
  818MOL0     H10405   4.971  10.507   4.468  1.9138  2.8833 -1.3936
  818MOL0     H10406   4.910  10.520   4.204  2.8071  1.3357 -2.2648
  818MOL0     H10407   4.873  10.687   4.264 -0.0764  0.4045  4.6991
  818MOL0     H10408   5.141  10.539   4.299  3.7021  1.9337  0.2300
  818MOL0     H10409   5.107  10.699   4.364  1.1980  0.0098 -0.7177
  818MOL0     H10410   5.226  10.725   4.167 -0.2435  0.6738  1.5842
  818MOL0     H10411   5.058  10.772   4.120 -0.4625 -1.3416 -1.1506
  818MOL0     H10412   4.322  10.410   4.554  0.7824 -0.2768  0.7087
  818MOL0     H10413   4.067  10.353   4.516 -1.5338  0.5411 -1.6502
  818MOL0     H10414   3.630  10.605   4.563  0.9200 -0.6468  0.3329
  818MOL0     H10415   3.408  10.521   4.646 -0.2131 -0.3564  0.1803
  818MOL0     H10416   3.086   9.641   5.083 -1.5912  0.0605  1.1116
  818MOL0     H10417   2.884   9.702   4.969 -1.1040  0.4750 -0.1009
  818MOL0     H10418   2.668  10.075   4.670  0.6175  1.3063  0.0926
  818MOL0     H10419   2.443  10.116   4.566 -1.2098  3.9956  2.0846
  818MOL0     H10420   2.096  10.007   4.814 -1.0048 -1.0549  1.1908
  818MOL0     H10421   2.036  10.054   4.654  1.3176  0.1974 -1.5906
  818MOL0     H10422   2.139   9.772   4.713 -1.8885  0.8919  0.1737
  818MOL0     H10423   2.143   9.852   4.554 -0.1689  1.5081  0.6954
  818MOL0     H10424   1.894   9.813   4.546 -1.3123 -0.8773  0.0740
  818MOL0     H10425   1.898   9.808   4.723 -0.7799 -3.5619  0.7541
  818MOL0     H10426   1.956   9.579   4.738 -0.4200  0.7279  0.2016
  818MOL0     H10427   2.035   9.590   4.579 -0.3658 -1.4382  0.3175
  818MOL0     H10428   1.670   9.512   4.416  0.4831  1.0926 -0.0862
  818MOL0     H10429   2.269   9.898   4.896  2.6361 -5.0864 -0.7489
  818MOL0     H10430   2.491   9.883   4.996  0.2603 -1.1911 -1.0807
  819MOL0     O10431   6.819   6.277   1.647  0.2158 -0.8513 -1.0289
  819MOL0     C10432   6.748   6.232   1.553 -0.2645  0.5778 -0.7109
  819MOL0     O10433   6.619   6.193   1.561  0.7454  1.0996  0.2185
  819MOL0     C10434   6.558   6.203   1.683 -0.1421 -0.1606  0.9019
  819MOL0     C10435   6.542   6.327   1.744 -0.3270  0.2004  0.7778
  819MOL0     C10436   6.509   6.320   1.878 -1.0116 -0.0077  0.7833
  819MOL0     C10437   6.471   6.204   1.951  0.7145  0.9864 -0.1122
  819MOL0     O10438   6.413   6.226   2.068 -0.3629 -0.1011 -1.0287
  819MOL0     C10439   6.308   6.137   2.100 -0.4002 -0.2957  0.9466
  819MOL0     C10440   6.234   6.160   2.229  0.5030 -0.4959 -0.6538
  819MOL0     C10441   6.127   6.274   2.219 -0.2403  0.4093  0.1932
  819MOL0     C10442   6.053   6.301   2.350 -0.1393 -0.5756  0.5688
  819MOL0     C10443   5.939   6.400   2.342 -0.2922  0.1199 -0.1823
  819MOL0     C10444   5.898   6.430   2.492  0.0057 -0.6347  0.5804
  819MOL0     C10445   5.797   6.552   2.511  0.4838  0.6138 -0.4259
  819MOL0     C10446   5.657   6.506   2.457  0.4776 -1.1422 -0.1836
  819MOL0     N10447   5.548   6.606   2.493  0.6422  0.0738 -0.0004
  819MOL0     C10448   5.489   6.624   2.614 -0.2333  0.5021  0.2226
  819MOL0     C10449   5.434   6.748   2.604  0.1428 -0.8292  0.5600
  819MOL0     C10450   5.356   6.817   2.710  0.0879 -0.3498  0.0373
  819MOL0     C10451   5.207   6.821   2.682 -0.1112  0.4135 -0.1851
  819MOL0     C10452   5.132   6.913   2.778  0.1995  0.0635  0.0627
  819MOL0     C10453   4.982   6.885   2.764 -0.5086 -0.5351  0.4257
  819MOL0     O10454   4.921   6.971   2.868 -0.1534  0.0704  0.2854
  819MOL0     C10455   4.820   6.930   2.944  0.3051  1.3428 -0.5168
  819MOL0     C10456   4.691   6.975   2.932  0.1043  0.8230  0.2311
  819MOL0     C10457   4.581   6.929   3.006  0.3904 -0.0431  0.0780
  819MOL0     C10458   4.440   6.995   2.988  0.5639 -0.1028  1.1946
  819MOL0     C10459   4.600   6.824   3.105 -0.4525  0.0465  0.0767
  819MOL0     C10460   4.496   6.763   3.197  0.1713 -0.8455  0.7025
  819MOL0     O10461   4.540   6.678   3.296 -0.5362 -0.3779  0.5909
  819MOL0     C10462   4.434   6.616   3.368 -0.4293  0.1523  0.0494
  819MOL0     C10463   4.449   6.622   3.513  0.0866 -0.4763 -0.4843
  819MOL0     C10464   4.367   6.556   3.601 -0.1995 -0.5860 -0.1655
  819MOL0     C10465   4.257   6.482   3.550 -1.9324 -0.1101 -0.6246
  819MOL0     O10466   4.160   6.426   3.628 -0.3861  0.2071  0.4806
  819MOL0     C10467   4.094   6.511   3.730 -0.8294 -0.4745  0.0105
  819MOL0     C10468   4.139   6.442   3.865 -0.1610  0.8848 -0.2686
  819MOL0     C10469   4.125   6.532   3.988  0.2576  0.0428 -0.3001
  819MOL0     C10470   4.116   6.463   4.123 -0.4055  0.3278  0.1368
  819MOL0     C10471   4.235   6.380   4.158 -0.4381  0.6849  0.1639
  819MOL0     C10472   4.365   6.448   4.147 -0.2452 -0.3708 -1.0576
  819MOL0     C10473   4.478   6.346   4.160  0.7383 -0.4043 -0.0413
  819MOL0     C10474   4.618   6.406   4.157 -0.4333  0.0581 -0.5783
  819MOL0    Cl10475   4.643   6.521   4.285  0.3616 -0.1659 -0.5220
  819MOL0     C10476   4.254   6.462   3.407  0.4047 -0.6015 -0.3579
  819MOL0     C10477   4.331   6.538   3.326 -0.1806  0.7960  0.4092
  819MOL0     O10478   4.378   6.787   3.174 -0.5416 -0.8705  0.3839
  819MOL0     C10479   4.736   6.782   3.116  0.8115 -0.0214 -0.8275
  819MOL0     C10480   4.845   6.827   3.039  0.5422  0.4003  0.2029
  819MOL0     N10481   5.453   6.807   2.484  0.1941  0.6574  0.5210
  819MOL0     N10482   5.519   6.714   2.413 -0.1031 -0.8192 -0.0743
  819MOL0     C10483   6.491   6.084   1.885  0.2815 -0.4352 -0.1442
  819MOL0     C10484   6.524   6.087   1.744  0.5463 -0.4672 -0.3232
  819MOL0     C10485   6.831   6.203   1.437  0.7166  0.3753 -0.1949
  819MOL0     C10486   6.932   6.284   1.391 -0.1304  0.6987  0.0522
  819MOL0     C10487   7.017   6.250   1.289 -0.7235 -0.8213  0.0131
  819MOL0     C10488   6.999   6.130   1.227  0.7221 -0.0923 -0.1996
  819MOL0     O10489   7.074   6.097   1.117 -0.4541 -0.5122 -0.1864
  819MOL0     C10490   7.163   6.190   1.051  0.5393  0.0883  0.2889
  819MOL0     C10491   7.304   6.208   1.110 -0.3687 -0.1333  0.1666
  819MOL0     C10492   7.410   6.153   1.017 -1.0203  0.4450 -0.0563
  819MOL0     C10493   7.437   6.245   0.892 -0.0031 -0.4340  0.0216
  819MOL0     C10494   7.486   6.377   0.935  0.7940  0.5596 -0.6234
  819MOL0     C10495   7.525   6.485   0.977  0.1954 -0.8048 -0.3199
  819MOL0     C10496   6.898   6.041   1.270 -1.0898 -0.0188  0.1431
  819MOL0     C10497   6.812   6.080   1.372  0.3563 -0.3529 -0.4755
  819MOL0     H10498   6.565   6.420   1.692  3.1219 -0.2447  1.2643
  819MOL0     H10499   6.494   6.424   1.906 -2.8713  0.6048 -2.0318
  819MOL0     H10500   6.234   6.136   2.019  0.7207  0.8283 -0.1187
  819MOL0     H10501   6.348   6.036   2.118  3.3434  1.1554  1.5441
  819MOL0     H10502   6.183   6.068   2.261 -0.6249 -0.7113 -2.8853
  819MOL0     H10503   6.292   6.192   2.316 -2.3603 -2.0822  2.0880
  819MOL0     H10504   6.168   6.370   2.187 -1.7477  0.6278 -1.2658
  819MOL0     H10505   6.052   6.257   2.141 -1.0990  1.9092  0.6582
  819MOL0     H10506   6.022   6.204   2.389  0.5162  0.4722  4.0740
  819MOL0     H10507   6.121   6.334   2.428 -0.2720  1.9043 -0.2782
  819MOL0     H10508   5.971   6.492   2.292  0.7275  0.0071  0.2397
  819MOL0     H10509   5.849   6.359   2.294 -1.0148 -0.2048  1.4021
  819MOL0     H10510   5.864   6.337   2.539 -2.3815  1.5019  3.4784
  819MOL0     H10511   5.986   6.444   2.555  0.6594 -3.1194  0.3064
  819MOL0     H10512   5.794   6.564   2.619  0.0651 -2.4313  0.0070
  819MOL0     H10513   5.834   6.638   2.454  0.5474  0.4454 -0.6403
  819MOL0     H10514   5.642   6.418   2.520  2.0783 -1.1327  0.2536
  819MOL0     H10515   5.649   6.487   2.350 -1.9882 -1.2704 -0.0505
  819MOL0     H10516   5.488   6.546   2.690  2.9415 -1.4106 -1.5097
  819MOL0     H10517   5.388   6.777   2.807  1.9552 -2.6042 -1.3834
  819MOL0     H10518   5.384   6.923   2.716  2.7376 -1.0221  1.2934
  819MOL0     H10519   5.177   6.718   2.702 -1.8142  0.7606 -0.7934
  819MOL0     H10520   5.194   6.856   2.579 -0.7789  2.0597  0.4331
  819MOL0     H10521   5.144   7.019   2.752 -1.3999 -0.6088 -4.1293
  819MOL0     H10522   5.158   6.894   2.883 -0.2955  0.0350  0.1812
  819MOL0     H10523   4.968   6.778   2.779 -0.2630 -0.9507 -1.9332
  819MOL0     H10524   4.958   6.926   2.666  1.0583  3.2280  1.4238
  819MOL0     H10525   4.656   7.048   2.859 -3.5431 -1.0148 -0.1421
  819MOL0     H10526   4.435   7.023   2.883  2.3943 -0.7500  0.8863
  819MOL0     H10527   4.358   6.926   3.008 -0.1299  0.5979  0.8205
  819MOL0     H10528   4.429   7.083   3.052 -3.1488 -0.6682  1.5515
  819MOL0     H10529   4.522   6.695   3.546 -1.8471  1.4167 -0.1758
  819MOL0     H10530   4.374   6.573   3.708  0.4779  1.3532 -0.4891
  819MOL0     H10531   4.110   6.617   3.709 -1.0481 -0.3090  0.6558
  819MOL0     H10532   3.984   6.506   3.727 -0.8864  0.8787 -1.5717
  819MOL0     H10533   4.080   6.354   3.892  1.0654  0.5976  1.7218
  819MOL0     H10534   4.238   6.400   3.841 -0.3820  0.4562 -0.4469
  819MOL0     H10535   4.032   6.587   3.974  0.5499  1.2583  1.9402
  819MOL0     H10536   4.201   6.611   3.985 -0.1803  0.4437 -2.8574
  819MOL0     H10537   4.079   6.533   4.199 -1.9921 -1.3914  1.0369
  819MOL0     H10538   4.025   6.402   4.120  0.8327 -1.6935  1.2275
  819MOL0     H10539   4.235   6.288   4.099 -1.9887 -0.4565  1.8364
  819MOL0     H10540   4.219   6.340   4.259 -5.5862 -1.8838 -1.2919
  819MOL0     H10541   4.373   6.491   4.047  0.8606  1.7434 -0.1157
  819MOL0     H10542   4.368   6.528   4.221 -1.0877 -0.3490 -1.0294
  819MOL0     H10543   4.478   6.282   4.071  0.3573  0.7146 -0.8690
  819MOL0     H10544   4.467   6.281   4.248  0.1747 -0.4836 -0.1670
  819MOL0     H10545   4.637   6.442   4.056  4.8227 -1.8308 -0.5754
  819MOL0     H10546   4.683   6.320   4.173 -1.7739 -0.7757  0.6374
  819MOL0     H10547   4.169   6.407   3.370 -1.1865  1.3894  0.1621
  819MOL0     H10548   4.304   6.524   3.222  0.1668 -2.3234  0.6340
  819MOL0     H10549   4.765   6.707   3.189  0.1537 -1.0142 -1.5553
  819MOL0     H10550   4.947   6.788   3.043  0.9242  1.4590  2.8440
  819MOL0     H10551   6.468   5.991   1.936 -1.6550 -0.1253 -0.3664
  819MOL0     H10552   6.534   6.003   1.677  1.6445 -0.0057 -0.7778
  819MOL0     H10553   6.950   6.384   1.430  1.8740  0.2034  0.4938
  819MOL0     H10554   7.090   6.325   1.262 -2.7045  0.9904 -0.6528
  819MOL0     H10555   7.147   6.163   0.946 -1.2720  1.9407  0.0152
  819MOL0     H10556   7.123   6.292   1.045 -1.5924 -0.6826  0.7582
  819MOL0     H10557   7.316   6.143   1.197  3.4764  0.9366  0.6190
  819MOL0     H10558   7.323   6.314   1.130  0.9762 -0.3440  0.0759
  819MOL0     H10559   7.376   6.054   0.986 -3.1979  1.3107 -0.5915
  819MOL0     H10560   7.507   6.149   1.068 -0.2553 -1.2144 -1.5244
  819MOL0     H10561   7.341   6.259   0.841 -0.4837 -1.8700  0.4702
  819MOL0     H10562   7.497   6.192   0.817 -0.4149 -0.7684 -0.0798
  819MOL0     H10563   7.541   6.581   1.023  1.7371 -2.7490  3.6867
  819MOL0     H10564   6.875   5.952   1.212  1.4272  0.3049 -1.5229
  819MOL0     H10565   6.746   6.010   1.423  1.5259  1.4363  4.0271
  820MOL0     O10566   1.388   0.762  10.773  0.4456  0.3697  0.3759
  820MOL0     C10567   1.286   0.696  10.751  0.5657 -0.2103 -0.5446
  820MOL0     O10568   1.266   0.599  10.660  0.7937  0.2356 -0.3269
  820MOL0     C10569   1.349   0.601  10.548 -0.8984  0.2884 -0.1617
  820MOL0     C10570   1.359   0.475  10.484 -0.6051 -0.3974  0.0488
  820MOL0     C10571   1.441   0.452  10.373 -0.4165  0.0057 -0.6027
  820MOL0     C10572   1.507   0.557  10.316 -0.0948 -0.3800 -0.1844
  820MOL0     O10573   1.578   0.559  10.202 -0.3406  0.7801  0.3593
  820MOL0     C10574   1.542   0.462  10.100  0.4431  0.5837  0.1667
  820MOL0     C10575   1.629   0.475   9.978  0.1797  0.5254  0.0036
  820MOL0     C10576   1.595   0.379   9.874  0.2297  0.5216 -0.0658
  820MOL0     C10577   1.536   0.435   9.745 -0.3395  0.6303 -0.5688
  820MOL0     C10578   1.430   0.348   9.675  0.8769  0.1699  0.3668
  820MOL0     C10579   1.499   0.215   9.648 -0.1895  0.7604  0.0896
  820MOL0     C10580   1.393   0.105   9.623  0.7343  0.3104 -0.2445
  820MOL0     C10581   1.451   0.009   9.522  0.9443  0.3088  0.3242
  820MOL0     N10582   1.378  -0.113   9.495 -0.4008 -0.5003  0.2910
  820MOL0     C10583   1.351  -0.214   9.583  0.4503  0.0750 -0.1392
  820MOL0     C10584   1.251  -0.281   9.525 -0.3961 -0.1832  0.0121
  820MOL0     C10585   1.178  -0.403   9.576  0.1169  0.0255 -0.3124
  820MOL0     C10586   1.124  -0.361   9.712 -0.2216 -0.0880  0.3212
  820MOL0     C10587   1.039  -0.480   9.752 -0.0964 -0.3372 -0.6640
  820MOL0     C10588   0.990  -0.492   9.897 -0.3106  0.1116  0.1419
  820MOL0     O10589   0.903  -0.378   9.908  0.1690 -1.0938 -0.5187
  820MOL0     C10590   0.772  -0.391   9.869 -0.1461 -0.2568  0.7413
  820MOL0     C10591   0.705  -0.496   9.802  0.5090  0.1047 -0.2067
  820MOL0     C10592   0.568  -0.493   9.772  1.0127  0.0582  1.0926
  820MOL0     C10593   0.511  -0.605   9.694  0.2681 -0.8012 -0.3050
  820MOL0     C10594   0.495  -0.384   9.823 -0.3044  0.3874  0.6685
  820MOL0     C10595   0.357  -0.364   9.816  0.3624  0.1254 -0.1457
  820MOL0     O10596   0.320  -0.239   9.761 -0.9458 -0.6823 -0.5878
  820MOL0     C10597   0.185  -0.219   9.751  0.4313 -0.7856  0.7496
  820MOL0     C10598   0.125  -0.142   9.851  0.4025 -0.2233 -0.2013
  820MOL0     C10599  -0.013  -0.115   9.848 -0.3549 -0.4052 -0.2167
  820MOL0     C10600  -0.088  -0.181   9.759  0.5480  0.4144  0.3734
  820MOL0     O10601  -0.225  -0.168   9.768 -0.2947 -0.3693  0.0956
  820MOL0     C10602  -0.309  -0.274   9.733 -0.3504  0.9294  0.5392
  820MOL0     C10603  -0.427  -0.293   9.824  0.2282 -0.2732 -0.0119
  820MOL0     C10604  -0.520  -0.178   9.821  0.0817 -0.2688 -0.3104
  820MOL0     C10605  -0.653  -0.212   9.892  0.2051  0.6155 -0.3922
  820MOL0     C10606  -0.753  -0.099   9.846 -0.9767  0.0463  0.9265
  820MOL0     C10607  -0.884  -0.096   9.932  0.7158  0.2423 -0.0869
  820MOL0     C10608  -0.932   0.042   9.933 -0.1699 -0.6458 -0.5042
  820MOL0     C10609  -1.078   0.052   9.983  0.7215  0.7533 -0.5884
  820MOL0    Cl10610  -1.086  -0.037  10.145 -0.0376  0.0376  0.0527
  820MOL0     C10611  -0.033  -0.266   9.660 -0.4486 -0.4764 -0.3307
  820MOL0     C10612   0.106  -0.287   9.655  0.4325 -0.0509 -0.3372
  820MOL0     O10613   0.275  -0.445   9.866  0.1963  0.2917 -0.4470
  820MOL0     C10614   0.564  -0.282   9.884  1.1305  0.1927  0.3445
  820MOL0     C10615   0.695  -0.283   9.903  0.0920 -0.1440  0.5995
  820MOL0     N10616   1.236  -0.232   9.398 -0.3781  0.3994  0.2480
  820MOL0     N10617   1.314  -0.136   9.382 -0.1810  0.0088  0.0149
  820MOL0     C10618   1.496   0.681  10.376  0.3291 -0.3786 -0.0776
  820MOL0     C10619   1.420   0.707  10.487  0.5716  0.5572  0.1580
  820MOL0     C10620   1.189   0.699  10.863  0.7910 -0.1925  0.3495
  820MOL0     C10621   1.083   0.604  10.864 -0.6550 -0.7464 -1.2458
  820MOL0     C10622   0.999   0.594  10.978  0.4960 -0.3901  0.3303
  820MOL0     C10623   1.005   0.681  11.085 -0.1092  0.3519  0.9394
  820MOL0     O10624   0.919   0.661  11.190  0.1314  0.0500 -0.0937
  820MOL0     C10625   0.829   0.771  11.223  0.5542  0.3573  0.3776
  820MOL0     C10626   0.693   0.710  11.223 -0.3375 -0.2394  0.0178
  820MOL0     C10627   0.578   0.803  11.194 -0.4735 -0.1248 -0.7996
  820MOL0     C10628   0.553   0.840  11.050  0.6609 -0.4025 -0.2628
  820MOL0     C10629   0.436   0.930  11.039  0.4112  0.1627 -0.2501
  820MOL0     C10630   0.340   0.999  11.026  0.0624 -0.6126  0.3087
  820MOL0     C10631   1.112   0.772  11.080 -0.1429 -0.4574  0.6960
  820MOL0     C10632   1.202   0.788  10.971 -0.3427  0.0701 -0.3933
  820MOL0     H10633   1.296   0.394  10.519  2.5273 -3.5145 -0.9621
  820MOL0     H10634   1.435   0.351  10.332  1.0082 -0.9427  1.3760
  820MOL0     H10635   1.558   0.360  10.137  2.3674  0.5853 -0.5068
  820MOL0     H10636   1.443   0.484  10.061  0.8578  1.5995 -0.3474
  820MOL0     H10637   1.626   0.578   9.942 -2.4752  0.8213  0.8658
  820MOL0     H10638   1.730   0.443  10.006 -0.0679 -0.1077  0.2011
  820MOL0     H10639   1.685   0.330   9.835  0.0390 -0.5633  0.8100
  820MOL0     H10640   1.534   0.299   9.916 -0.1706  2.0310  2.3863
  820MOL0     H10641   1.491   0.532   9.765  1.5004  1.7896 -1.7554
  820MOL0     H10642   1.610   0.457   9.668 -0.8907  0.7670 -1.0709
  820MOL0     H10643   1.355   0.327   9.751  1.5993  1.8077  1.5793
  820MOL0     H10644   1.393   0.401   9.587  3.9128  2.3432  0.2400
  820MOL0     H10645   1.564   0.224   9.560  1.1846  0.4455  1.0470
  820MOL0     H10646   1.552   0.177   9.735 -0.8046  1.6005  0.8596
  820MOL0     H10647   1.355   0.057   9.713 -2.4703  1.0561 -1.0705
  820MOL0     H10648   1.311   0.161   9.576 -2.2989 -2.2050  1.6398
  820MOL0     H10649   1.551  -0.032   9.543  0.7711 -1.6530 -2.2272
  820MOL0     H10650   1.466   0.060   9.427 -2.2562  0.2185 -0.3180
  820MOL0     H10651   1.388  -0.216   9.685 -0.5828  2.3049  0.3484
  820MOL0     H10652   1.107  -0.443   9.503 -0.4738 -0.9704  0.7773
  820MOL0     H10653   1.253  -0.481   9.593  0.4159  0.3215 -0.2415
  820MOL0     H10654   1.051  -0.280   9.712 -1.6853 -1.3486 -0.0269
  820MOL0     H10655   1.203  -0.350   9.787 -0.3679 -3.3018  1.1325
  820MOL0     H10656   1.100  -0.570   9.738 -1.6747 -1.1432 -3.2062
  820MOL0     H10657   0.958  -0.490   9.679 -2.0465  0.4888  1.2915
  820MOL0     H10658   1.072  -0.490   9.970 -1.8047 -1.8732  1.9940
  820MOL0     H10659   0.944  -0.590   9.911 -1.3596  0.6798  0.7882
  820MOL0     H10660   0.760  -0.584   9.772 -1.4344 -1.8672  1.5953
  820MOL0     H10661   0.442  -0.562   9.621 -1.3652 -0.1762  1.5064
  820MOL0     H10662   0.594  -0.663   9.654  1.2056 -1.2014  2.0344
  820MOL0     H10663   0.454  -0.664   9.766  1.5422 -2.9629 -0.9643
  820MOL0     H10664   0.173  -0.107   9.942  0.3037 -0.0589 -0.2116
  820MOL0     H10665  -0.052  -0.076   9.941 -2.3794 -3.1076  0.1941
  820MOL0     H10666  -0.330  -0.264   9.626  0.1831 -2.3267  0.0238
  820MOL0     H10667  -0.255  -0.370   9.733 -0.4477  0.8671 -0.4157
  820MOL0     H10668  -0.482  -0.382   9.794  1.8728 -3.0425  4.1760
  820MOL0     H10669  -0.392  -0.317   9.925  0.5925 -4.1126 -0.8753
  820MOL0     H10670  -0.535  -0.145   9.718  0.1131  1.1703  0.1258
  820MOL0     H10671  -0.474  -0.092   9.870 -2.0892  2.4204 -2.6863
  820MOL0     H10672  -0.694  -0.309   9.865  1.5310 -0.6276  1.7706
  820MOL0     H10673  -0.630  -0.211   9.999  0.4113 -2.2474 -0.3352
  820MOL0     H10674  -0.778  -0.105   9.739  0.8538  0.7391  0.4128
  820MOL0     H10675  -0.704  -0.001   9.845  0.0752 -0.4354 -0.9291
  820MOL0     H10676  -0.962  -0.166   9.901 -0.9486  1.6240  0.8429
  820MOL0     H10677  -0.853  -0.124  10.033  1.9194 -0.7091 -0.6906
  820MOL0     H10678  -0.932   0.083   9.832  0.1313 -0.3518 -0.3893
  820MOL0     H10679  -0.848   0.099   9.973 -0.9791  1.1931 -1.3178
  820MOL0     H10680  -1.154   0.014   9.913 -1.8296 -1.5001  3.0779
  820MOL0     H10681  -1.092   0.158  10.007 -0.7969  0.4341  0.0572
  820MOL0     H10682  -0.088  -0.315   9.580  3.1760 -0.5115 -3.0739
  820MOL0     H10683   0.144  -0.362   9.586 -1.1177 -3.5753  2.2737
  820MOL0     H10684   0.501  -0.206   9.930 -1.5891 -2.8120  1.9875
  820MOL0     H10685   0.745  -0.208   9.964 -4.5532  3.3094  0.6120
  820MOL0     H10686   1.557   0.755  10.326  3.0524 -3.1750 -1.2028
  820MOL0     H10687   1.416   0.806  10.531 -4.7817  0.7529 -0.0971
  820MOL0     H10688   1.074   0.546  10.773 -0.8102 -0.3757 -1.4700
  820MOL0     H10689   0.927   0.514  10.966  1.4638 -1.0849 -1.1464
  820MOL0     H10690   0.834   0.816  11.323 -0.6565  0.0837  0.5884
  820MOL0     H10691   0.830   0.852  11.150 -0.9027 -0.4668 -0.6106
  820MOL0     H10692   0.689   0.663  11.322 -1.2435 -1.4283 -0.5613
  820MOL0     H10693   0.684   0.642  11.138 -4.1128 -0.0604  0.0749
  820MOL0     H10694   0.594   0.892  11.255 -0.8796 -0.6018  0.0161
  820MOL0     H10695   0.485   0.762  11.236 -0.0034 -0.5661 -0.1684
  820MOL0     H10696   0.547   0.757  10.979 -1.3128  0.7466 -1.5558
  820MOL0     H10697   0.642   0.893  11.015  0.8059 -0.4430  0.0457
  820MOL0     H10698   0.258   1.067  11.010  0.2735  0.1712  2.3065
  820MOL0     H10699   1.142   0.831  11.166  0.2190  1.2869 -0.5772
  820MOL0     H10700   1.281   0.863  10.971 -1.9414  1.8271 -0.1738
  821MOL0     O10701   7.186   9.564   9.928 -0.5710  0.3242 -0.4614
  821MOL0     C10702   7.204   9.687   9.909 -0.5361 -0.8933 -0.7022
  821MOL0     O10703   7.109   9.774   9.884 -0.1458 -0.2961  0.1466
  821MOL0     C10704   6.994   9.719   9.833 -0.0303  0.5759  1.4438
  821MOL0     C10705   6.982   9.675   9.694  0.4791 -0.1179  1.6473
  821MOL0     C10706   6.859   9.625   9.643  0.5979  0.6522 -0.1589
  821MOL0     C10707   6.757   9.595   9.738  0.0163 -0.0358  0.3628
  821MOL0     O10708   6.645   9.535   9.687  0.5583  0.5673  1.3786
  821MOL0     C10709   6.524   9.548   9.759  0.3523  0.4900  0.1079
  821MOL0     C10710   6.409   9.469   9.696  0.4382  0.3060  0.2823
  821MOL0     C10711   6.409   9.325   9.744  0.7076  0.2425  0.4329
  821MOL0     C10712   6.272   9.261   9.702 -0.3464 -0.9140 -0.1347
  821MOL0     C10713   6.276   9.113   9.737  0.4087 -0.1104  0.1834
  821MOL0     C10714   6.160   9.021   9.690 -0.0203 -0.1958  0.0963
  821MOL0     C10715   6.027   9.049   9.759 -0.0103  0.5290  0.2764
  821MOL0     C10716   6.018   9.016   9.903 -0.6766  0.1591  0.1000
  821MOL0     N10717   5.885   8.969   9.954 -0.9062  0.4072  0.0758
  821MOL0     C10718   5.845   8.998  10.080 -0.8057 -0.8163  0.3552
  821MOL0     C10719   5.740   8.923  10.108  0.5296  0.5016  0.3269
  821MOL0     C10720   5.649   8.935  10.229 -0.4801  0.2344 -0.5105
  821MOL0     C10721   5.610   9.073  10.250  0.7817 -0.4483 -0.1850
  821MOL0     C10722   5.517   9.080  10.376  0.2785 -0.5622 -1.2597
  821MOL0     C10723   5.370   9.095  10.335 -0.1059 -0.2524  1.1337
  821MOL0     O10724   5.275   9.121  10.426  0.3444 -0.1537  0.0718
  821MOL0     C10725   5.138   9.117  10.387 -0.0381 -0.5993 -0.0314
  821MOL0     C10726   5.095   9.104  10.250  0.0552 -1.3258 -0.2265
  821MOL0     C10727   4.963   9.111  10.214 -0.5626 -0.1114  0.6202
  821MOL0     C10728   4.923   9.098  10.071  0.0302 -0.1025  0.2856
  821MOL0     C10729   4.865   9.111  10.310  0.6295  0.4189 -1.0034
  821MOL0     C10730   4.716   9.114  10.287  0.2218  0.0046  0.3040
  821MOL0     O10731   4.637   9.109  10.395 -0.1430 -0.2352 -0.5141
  821MOL0     C10732   4.502   9.085  10.376  0.1438 -0.0804  0.5289
  821MOL0     C10733   4.449   8.957  10.393 -0.2197  0.2907 -0.5823
  821MOL0     C10734   4.312   8.939  10.359 -0.9481 -0.6298  0.0443
  821MOL0     C10735   4.223   9.038  10.321  0.5050  0.1803 -0.0779
  821MOL0     O10736   4.091   9.001  10.293 -0.6707  0.6808 -0.1045
  821MOL0     C10737   4.004   9.074  10.213  0.0846  0.2423  0.8953
  821MOL0     C10738   3.860   9.039  10.252 -0.8761 -0.3225 -0.4867
  821MOL0     C10739   3.791   8.970  10.131 -0.5557 -0.2674  0.3614
  821MOL0     C10740   3.680   8.863  10.177  0.0128 -0.4659 -0.1478
  821MOL0     C10741   3.562   8.927  10.251 -0.0627  0.5246  0.2000
  821MOL0     C10742   3.484   8.802  10.311  0.3093 -0.3086  0.2318
  821MOL0     C10743   3.347   8.836  10.370 -0.4814 -0.4728 -0.4279
  821MOL0     C10744   3.259   8.717  10.375 -0.2020  0.2901 -0.7002
  821MOL0    Cl10745   3.134   8.705  10.253  0.0257 -0.3765  0.0597
  821MOL0     C10746   4.276   9.173  10.329 -0.0388  0.0395 -0.8570
  821MOL0     C10747   4.414   9.195  10.352 -0.0086 -0.3522  0.1572
  821MOL0     O10748   4.679   9.128  10.171 -0.5099 -0.8674 -0.6571
  821MOL0     C10749   4.896   9.125  10.447 -0.8658  0.2692 -0.3944
  821MOL0     C10750   5.042   9.132  10.483  0.6555  0.0854 -0.2893
  821MOL0     N10751   5.729   8.834   9.999  0.0453 -0.1720  0.2956
  821MOL0     N10752   5.827   8.858   9.909 -0.4787  0.5679 -0.4305
  821MOL0     C10753   6.765   9.643   9.875 -0.2549  0.3167  0.1845
  821MOL0     C10754   6.884   9.695   9.916 -0.3098  0.1225  0.1081
  821MOL0     C10755   7.329   9.747   9.907  0.6177 -0.0163 -0.6346
  821MOL0     C10756   7.444   9.674   9.952 -1.3096 -0.6526 -0.0700
  821MOL0     C10757   7.575   9.730   9.952  0.4206  0.1346  0.3760
  821MOL0     C10758   7.596   9.861   9.907 -0.3856  0.0677  0.7237
  821MOL0     O10759   7.710   9.935   9.924  0.3410  0.6225 -0.8235
  821MOL0     C10760   7.833   9.868   9.960 -0.4512  0.7451  0.1137
  821MOL0     C10761   7.884   9.787   9.842  0.1518  0.1438  0.1221
  821MOL0     C10762   7.956   9.870   9.745  0.1859  0.0638 -0.2263
  821MOL0     C10763   7.958   9.814   9.598 -0.4619 -0.3954  0.0088
  821MOL0     C10764   8.002   9.672   9.606  0.1565  0.2360 -0.1465
  821MOL0     C10765   8.053   9.564   9.634  0.3114  0.5419 -0.5474
  821MOL0     C10766   7.490   9.927   9.853  0.1825  0.3073  0.0726
  821MOL0     C10767   7.361   9.880   9.854  0.8417  0.4335 -0.3947
  821MOL0     H10768   7.061   9.675   9.620 -1.1425 -5.9624 -0.7062
  821MOL0     H10769   6.850   9.587   9.542 -0.4723  2.3987 -0.7628
  821MOL0     H10770   6.541   9.513   9.862 -0.9664  1.5601  0.7209
  821MOL0     H10771   6.504   9.656   9.759  1.2509  0.6933  1.8029
  821MOL0     H10772   6.314   9.512   9.731 -1.2541 -0.8984 -2.4996
  821MOL0     H10773   6.400   9.482   9.588 -1.9733  3.1431  0.6902
  821MOL0     H10774   6.487   9.267   9.693  0.7651  0.3187  0.4351
  821MOL0     H10775   6.434   9.309   9.849  3.9818 -0.9956 -0.4232
  821MOL0     H10776   6.186   9.310   9.749 -0.3873 -0.7472 -0.3809
  821MOL0     H10777   6.255   9.274   9.595  1.3661  2.7149 -0.1234
  821MOL0     H10778   6.359   9.062   9.686  0.8914 -0.6477  1.4742
  821MOL0     H10779   6.294   9.110   9.845  0.4807 -1.0949  0.1593
  821MOL0     H10780   6.140   9.043   9.585 -1.4984  1.1801  0.6227
  821MOL0     H10781   6.186   8.916   9.709 -0.6794 -0.1584  1.3135
  821MOL0     H10782   5.993   9.151   9.739 -0.0309  0.2639 -1.1163
  821MOL0     H10783   5.955   8.981   9.713  1.0893 -1.4299  1.3048
  821MOL0     H10784   6.049   9.109   9.952  1.7844 -0.3492 -0.3601
  821MOL0     H10785   6.092   8.938   9.922 -0.0922  0.1575 -2.0327
  821MOL0     H10786   5.885   9.071  10.150 -0.3877  0.6571 -1.3267
  821MOL0     H10787   5.565   8.869  10.207  0.0365  0.1511 -2.4899
  821MOL0     H10788   5.706   8.894  10.312  3.7509 -0.9729 -3.6271
  821MOL0     H10789   5.558   9.116  10.163  3.3792 -0.0660 -1.6321
  821MOL0     H10790   5.699   9.133  10.271  2.3620 -2.3010 -1.2474
  821MOL0     H10791   5.536   9.173  10.430 -3.5484 -0.5644  0.4410
  821MOL0     H10792   5.527   8.992  10.440 -0.6739  0.6619  0.6404
  821MOL0     H10793   5.351   8.994  10.297 -0.0446  1.2980 -3.6653
  821MOL0     H10794   5.371   9.175  10.260 -2.6082 -1.2051 -0.0544
  821MOL0     H10795   5.167   9.073  10.174 -1.5664 -3.7847 -0.8833
  821MOL0     H10796   4.858   9.010  10.064 -1.9870  1.1102  2.3189
  821MOL0     H10797   4.870   9.181  10.024  0.0407 -0.2980 -0.0720
  821MOL0     H10798   5.013   9.083  10.011  1.9198  0.3234  2.8612
  821MOL0     H10799   4.514   8.874  10.418 -0.1421  1.0380  2.0231
  821MOL0     H10800   4.288   8.833  10.356  1.9285 -1.3350 -0.4531
  821MOL0     H10801   4.012   9.182  10.228  0.4302 -0.1154  3.7206
  821MOL0     H10802   4.037   9.043  10.113  0.5998  1.3172  0.7136
  821MOL0     H10803   3.857   8.968  10.335 -3.6013 -0.1236 -0.3249
  821MOL0     H10804   3.807   9.127  10.290  2.0039  0.4067  2.2879
  821MOL0     H10805   3.861   8.929  10.058 -0.4742 -1.0224  0.8514
  821MOL0     H10806   3.736   9.045  10.073 -2.0421 -1.9900 -0.5574
  821MOL0     H10807   3.645   8.805  10.091  1.7227 -3.0881  0.7705
  821MOL0     H10808   3.738   8.806  10.250  0.2267 -0.4451 -0.3002
  821MOL0     H10809   3.498   8.990  10.188  0.6555  2.1604  1.0285
  821MOL0     H10810   3.583   8.994  10.335 -2.0786  0.7295  0.6090
  821MOL0     H10811   3.469   8.735  10.226  1.7402 -0.8229  0.3568
  821MOL0     H10812   3.550   8.755  10.385 -0.9598 -1.0016  0.9522
  821MOL0     H10813   3.291   8.916  10.320  0.7901  2.9286  3.0801
  821MOL0     H10814   3.361   8.869  10.473 -0.8942 -0.9863 -0.1998
  821MOL0     H10815   3.203   8.722  10.468  1.6545 -1.8913  0.6422
  821MOL0     H10816   3.313   8.621  10.377  1.7457  1.3503 -0.1049
  821MOL0     H10817   4.211   9.259  10.323 -0.9940 -0.7145 -1.6995
  821MOL0     H10818   4.467   9.288  10.367 -0.3651 -0.0297 -0.5906
  821MOL0     H10819   4.824   9.130  10.527 -1.0044  1.4969 -0.5760
  821MOL0     H10820   5.065   9.157  10.586  1.6469 -1.9374  0.0221
  821MOL0     H10821   6.680   9.645   9.942  0.0614 -1.6075  0.7116
  821MOL0     H10822   6.870   9.730  10.018 -0.8287  1.3498 -0.3557
  821MOL0     H10823   7.418   9.577   9.993  0.1340 -1.5051 -1.0716
  821MOL0     H10824   7.658   9.670   9.987  0.0986  0.3283  1.5230
  821MOL0     H10825   7.906   9.945   9.986 -0.6920  1.0177 -0.0045
  821MOL0     H10826   7.821   9.811  10.053  0.6522  0.4522  0.0860
  821MOL0     H10827   7.799   9.731   9.803  0.9400 -0.1967 -1.1779
  821MOL0     H10828   7.946   9.705   9.877 -1.7178 -1.2751  0.2644
  821MOL0     H10829   8.061   9.886   9.771 -0.0321  0.8350  0.2204
  821MOL0     H10830   7.922   9.974   9.752  0.9188  0.3859 -1.1534
  821MOL0     H10831   8.023   9.878   9.538 -1.3625  0.3908 -0.1571
  821MOL0     H10832   7.866   9.832   9.541  1.5447  0.6038 -3.1706
  821MOL0     H10833   8.109   9.478   9.668 -3.4612 -1.4435  1.3066
  821MOL0     H10834   7.523  10.019   9.806 -0.3329 -0.1709 -1.2700
  821MOL0     H10835   7.279   9.944   9.821  0.1197 -0.4484 -0.3677
  822MOL0     O10836   8.692   4.636  10.079 -0.3049 -0.4041  0.2729
  822MOL0     C10837   8.814   4.646  10.083 -0.3035  0.1779 -0.0617
  822MOL0     O10838   8.907   4.564  10.018  0.0688  0.9426 -0.0776
  822MOL0     C10839   8.853   4.457   9.949 -0.2858  0.7414  0.5072
  822MOL0     C10840   8.886   4.453   9.814  0.5632 -0.4304 -0.5043
  822MOL0     C10841   8.845   4.339   9.746  1.1277 -0.5619 -0.3879
  822MOL0     C10842   8.788   4.227   9.814  0.5144 -0.7902 -0.0104
  822MOL0     O10843   8.743   4.113   9.756 -0.3177  0.0367 -0.1844
  822MOL0     C10844   8.680   4.115   9.628  0.2276 -0.1891 -0.2788
  822MOL0     C10845   8.541   4.181   9.616 -0.0914 -0.0761 -0.2106
  822MOL0     C10846   8.454   4.122   9.727 -1.0711 -0.1623  0.3434
  822MOL0     C10847   8.322   4.191   9.739  0.5274 -0.0632 -0.4907
  822MOL0     C10848   8.333   4.319   9.828  0.0776 -0.3211 -0.0403
  822MOL0     C10849   8.398   4.303   9.963 -0.0838 -0.4342  0.1459
  822MOL0     C10850   8.320   4.379  10.074 -0.4185 -0.6147  0.0864
  822MOL0     C10851   8.324   4.527  10.052  0.2126 -1.0709 -0.4843
  822MOL0     N10852   8.229   4.604  10.141  0.0329  0.0683 -0.6427
  822MOL0     C10853   8.089   4.611  10.122  0.3148 -1.1116 -0.3091
  822MOL0     C10854   8.045   4.695  10.219 -0.0662 -0.6151 -0.0482
  822MOL0     C10855   7.909   4.745  10.248 -0.8710 -0.1087 -0.0499
  822MOL0     C10856   7.802   4.641  10.225  0.1570  0.6569  0.1417
  822MOL0     C10857   7.670   4.701  10.204  0.6630  0.2075  0.3137
  822MOL0     C10858   7.563   4.597  10.179 -0.2613  0.1477 -0.8338
  822MOL0     O10859   7.605   4.512  10.067 -0.4555  0.2702  1.2178
  822MOL0     C10860   7.504   4.456   9.991 -0.0172  0.6496 -0.6295
  822MOL0     C10861   7.374   4.396  10.032  0.1766  0.1649 -0.2350
  822MOL0     C10862   7.283   4.335   9.938 -0.3203 -1.2777 -0.3925
  822MOL0     C10863   7.155   4.280   9.990  0.0830  0.1471  0.3293
  822MOL0     C10864   7.324   4.318   9.805  0.1461  0.1687 -0.3575
  822MOL0     C10865   7.243   4.254   9.700 -0.7648 -0.1718  0.2451
  822MOL0     O10866   7.304   4.196   9.595 -0.3052 -0.8922 -0.0859
  822MOL0     C10867   7.229   4.131   9.495  0.0592 -0.1478  0.7580
  822MOL0     C10868   7.306   4.073   9.403  0.3238  0.1504 -0.2604
  822MOL0     C10869   7.256   4.007   9.293  0.6557  0.7374  0.8167
  822MOL0     C10870   7.126   3.982   9.276  0.1368  0.0455  0.2719
  822MOL0     O10871   7.082   3.907   9.175 -0.3657  0.6647  0.1168
  822MOL0     C10872   6.965   3.833   9.175  0.7991 -0.6308 -0.0659
  822MOL0     C10873   6.975   3.758   9.046  0.1851 -0.2855  1.0151
  822MOL0     C10874   6.990   3.844   8.913 -1.0099  0.2606  0.2556
  822MOL0     C10875   6.876   3.935   8.871 -0.6442  0.2129 -1.0510
  822MOL0     C10876   6.906   4.035   8.762  0.8140  0.9596  0.0445
  822MOL0     C10877   6.790   4.130   8.736 -0.8692  0.6131  0.2368
  822MOL0     C10878   6.660   4.054   8.697  0.8100 -0.7253 -0.0012
  822MOL0     C10879   6.671   3.963   8.579 -0.1478 -0.8797  0.6671
  822MOL0    Cl10880   6.518   3.946   8.494 -0.3601  0.2821 -0.0543
  822MOL0     C10881   7.044   4.032   9.376  1.7241  0.7641  0.3601
  822MOL0     C10882   7.090   4.107   9.485 -0.0405 -0.0995 -0.0642
  822MOL0     O10883   7.128   4.294   9.693 -0.0819 -0.1384 -0.5133
  822MOL0     C10884   7.452   4.361   9.764  0.5963  0.1666  0.1979
  822MOL0     C10885   7.535   4.432   9.858  0.7446  0.7642  1.1625
  822MOL0     N10886   8.142   4.729  10.307  0.0590  0.4533  0.5004
  822MOL0     N10887   8.252   4.676  10.254 -1.0809 -0.2592 -0.6616
  822MOL0     C10888   8.772   4.227   9.951  0.0492  0.5369 -0.0192
  822MOL0     C10889   8.791   4.347  10.013 -0.5795  0.3462  0.5858
  822MOL0     C10890   8.865   4.750  10.175 -0.5134  0.6193 -0.1273
  822MOL0     C10891   8.992   4.797  10.163 -0.0225  0.2359 -0.9655
  822MOL0     C10892   9.048   4.892  10.245  0.2337  0.1855  0.3922
  822MOL0     C10893   8.972   4.937  10.355  0.5916 -0.1646 -0.1860
  822MOL0     O10894   9.014   5.032  10.445 -0.1964 -0.0118 -0.3140
  822MOL0     C10895   9.144   5.089  10.430 -0.0991 -0.9268 -0.0916
  822MOL0     C10896   9.179   5.172  10.555 -0.2348  0.2146  0.6672
  822MOL0     C10897   9.085   5.297  10.590 -0.5596  1.4556  0.1446
  822MOL0     C10898   9.146   5.395  10.689 -0.8742 -0.1775 -0.0390
  822MOL0     C10899   9.165   5.349  10.825 -0.8054 -0.2083 -0.4368
  822MOL0     C10900   9.186   5.298  10.929 -0.1303 -0.7528 -0.9275
  822MOL0     C10901   8.842   4.884  10.374  0.6901  0.3174  0.0642
  822MOL0     C10902   8.784   4.801  10.282  0.0303 -0.1724 -1.3273
  822MOL0     H10903   8.929   4.538   9.762  0.0990  0.4928  0.5935
  822MOL0     H10904   8.851   4.339   9.638 -0.1491  2.0418 -0.5395
  822MOL0     H10905   8.740   4.165   9.552 -0.6203 -0.7531 -1.3481
  822MOL0     H10906   8.672   4.011   9.594  0.6972  0.3657 -2.1664
  822MOL0     H10907   8.555   4.287   9.642 -1.2458  0.1251 -0.3853
  822MOL0     H10908   8.499   4.169   9.516 -2.4666 -1.7316  0.9180
  822MOL0     H10909   8.431   4.019   9.696 -4.0136  0.6679 -0.5900
  822MOL0     H10910   8.504   4.117   9.824 -0.6216 -3.7289  0.0838
  822MOL0     H10911   8.300   4.218   9.636 -0.4830 -0.4595 -0.3959
  822MOL0     H10912   8.244   4.119   9.765  1.3068 -1.6114 -2.2550
  822MOL0     H10913   8.398   4.394   9.781  0.8596 -0.2172  1.1552
  822MOL0     H10914   8.234   4.364   9.838 -0.0665 -0.8273  0.8543
  822MOL0     H10915   8.404   4.197   9.990  0.2830 -0.3622  0.3392
  822MOL0     H10916   8.500   4.333   9.938 -1.0203  0.6268 -2.8028
  822MOL0     H10917   8.212   4.362  10.080 -0.5559 -1.4641 -2.9364
  822MOL0     H10918   8.365   4.340  10.166  0.9587  0.2747 -0.1963
  822MOL0     H10919   8.305   4.562   9.950 -1.5272  3.1659  1.0455
  822MOL0     H10920   8.428   4.558  10.067 -0.1270 -1.0867  2.2792
  822MOL0     H10921   8.023   4.563  10.050 -1.4905  2.5327 -1.2820
  822MOL0     H10922   7.900   4.777  10.352  0.7203 -2.6461  0.9697
  822MOL0     H10923   7.890   4.830  10.181 -2.4289 -1.0689 -0.8804
  822MOL0     H10924   7.797   4.558  10.297 -1.4058  3.0739  3.0914
  822MOL0     H10925   7.831   4.591  10.132 -2.8492 -0.3381 -0.3709
  822MOL0     H10926   7.666   4.780  10.129 -0.5768  1.4840  1.6322
  822MOL0     H10927   7.651   4.745  10.303  4.6957 -3.6162  3.1857
  822MOL0     H10928   7.474   4.654  10.151 -0.8857  0.1766  1.1096
  822MOL0     H10929   7.529   4.553  10.272  0.5430  4.6243  1.8742
  822MOL0     H10930   7.336   4.381  10.133 -2.2721 -1.9146 -1.3492
  822MOL0     H10931   7.143   4.281  10.099  0.3849  1.9760  0.3783
  822MOL0     H10932   7.071   4.330   9.940 -1.6024 -1.3079  1.5660
  822MOL0     H10933   7.143   4.176   9.959  0.6384  0.2771 -0.3311
  822MOL0     H10934   7.414   4.079   9.406  0.3467  2.3594 -2.2948
  822MOL0     H10935   7.326   3.972   9.217 -0.0732 -0.7193  0.7713
  822MOL0     H10936   6.967   3.771   9.265 -2.4556 -0.2335  0.4217
  822MOL0     H10937   6.874   3.895   9.178  0.7013 -0.7950  0.6431
  822MOL0     H10938   7.055   3.684   9.047  2.3573  1.6958 -2.8939
  822MOL0     H10939   6.889   3.692   9.031  1.6411 -1.7077 -1.9334
  822MOL0     H10940   7.008   3.774   8.831  1.9078 -0.5959  1.4844
  822MOL0     H10941   7.083   3.900   8.928 -0.8729  0.9041 -2.3978
  822MOL0     H10942   6.793   3.870   8.839 -1.5166  1.1261 -0.6986
  822MOL0     H10943   6.846   3.990   8.961 -3.1761 -0.4388 -1.3976
  822MOL0     H10944   6.937   3.986   8.670  0.2024 -0.5505  0.5986
  822MOL0     H10945   6.989   4.100   8.789 -0.6750  1.9725  2.5677
  822MOL0     H10946   6.780   4.193   8.824 -2.8651 -0.4143  0.8059
  822MOL0     H10947   6.817   4.189   8.647  1.1290  2.6282  2.0530
  822MOL0     H10948   6.585   4.132   8.684 -0.3064 -2.0103 -1.6248
  822MOL0     H10949   6.623   4.004   8.786 -1.1735 -0.8044 -0.8336
  822MOL0     H10950   6.708   3.870   8.625  0.2685  0.2375  2.7164
  822MOL0     H10951   6.751   3.991   8.510 -0.8456  1.2610  0.6645
  822MOL0     H10952   6.938   4.012   9.385  2.0624 -0.0750  3.5962
  822MOL0     H10953   7.025   4.127   9.569 -0.5595 -1.2988 -0.1604
  822MOL0     H10954   7.488   4.353   9.662  1.9642  3.1733  0.3320
  822MOL0     H10955   7.631   4.471   9.825  1.1542 -1.8346 -1.0030
  822MOL0     H10956   8.725   4.142  10.001 -2.7429  1.8700 -0.1901
  822MOL0     H10957   8.772   4.372  10.117 -0.9699  2.6875  0.0112
  822MOL0     H10958   9.058   4.755  10.089 -0.3426 -1.5675 -0.2700
  822MOL0     H10959   9.143   4.942  10.226 -0.5903  2.5749  2.0836
  822MOL0     H10960   9.204   4.998  10.425  1.0856 -0.1114 -3.1711
  822MOL0     H10961   9.166   5.144  10.338  1.0954 -5.2586 -2.6606
  822MOL0     H10962   9.279   5.214  10.537  1.1634 -1.9143  2.8165
  822MOL0     H10963   9.189   5.103  10.639 -2.7908  0.7521  1.5059
  822MOL0     H10964   8.987   5.270  10.630 -0.0886 -1.2039 -0.2971
  822MOL0     H10965   9.060   5.349  10.497  0.4523 -2.5311 -2.6532
  822MOL0     H10966   9.086   5.487  10.691  2.2336  2.0042 -0.1297
  822MOL0     H10967   9.245   5.417  10.649 -0.3273  0.4159  1.5730
  822MOL0     H10968   9.204   5.235  11.014 -0.5665 -0.5748 -0.7030
  822MOL0     H10969   8.768   4.929  10.439 -0.8660  3.1379 -3.3569
  822MOL0     H10970   8.679   4.773  10.286 -0.4796  1.8104  1.2168
  823MOL0     O10971   2.763   9.999   8.920  1.8210  0.8358  0.1564
  823MOL0     C10972   2.695  10.090   8.874 -0.0984 -0.1440 -0.5116
  823MOL0     O10973   2.730  10.179   8.778  0.0068  0.9805  0.2020
  823MOL0     C10974   2.836  10.154   8.705 -0.0009  0.0481  0.4254
  823MOL0     C10975   2.972  10.127   8.749 -0.1067  0.6804  0.5707
  823MOL0     C10976   3.065  10.077   8.659 -0.4818  0.2479  0.6530
  823MOL0     C10977   3.027  10.070   8.518 -0.6534  0.2003 -0.1141
  823MOL0     O10978   3.121  10.039   8.414 -0.4190  0.7902  0.1750
  823MOL0     C10979   3.205   9.928   8.442  0.5116  0.5908 -0.6034
  823MOL0     C10980   3.251   9.873   8.305 -0.2178  0.1520  0.4774
  823MOL0     C10981   3.351   9.755   8.310 -0.4960 -0.4173 -0.1983
  823MOL0     C10982   3.419   9.737   8.164  0.5299 -0.4391  0.0090
  823MOL0     C10983   3.511   9.617   8.177  1.2615 -0.8539 -0.1960
  823MOL0     C10984   3.582   9.577   8.051  0.2713 -0.3006  0.3775
  823MOL0     C10985   3.718   9.503   8.068  0.6391 -0.3695  0.4404
  823MOL0     C10986   3.705   9.356   8.066  0.6648 -0.4809 -0.2660
  823MOL0     N10987   3.825   9.282   8.091  0.0418 -0.3395 -0.1036
  823MOL0     C10988   3.912   9.251   7.993  0.0226 -0.2633 -0.8078
  823MOL0     C10989   4.022   9.209   8.059 -0.2969 -0.4259  0.0901
  823MOL0     C10990   4.150   9.148   8.008  0.9783  0.6490 -0.4915
  823MOL0     C10991   4.262   9.113   8.114  0.0006 -0.1381  0.5306
  823MOL0     C10992   4.379   9.049   8.038  0.9872  0.2450 -0.0621
  823MOL0     C10993   4.506   9.045   8.116 -0.0143 -0.5068 -0.3287
  823MOL0     O10994   4.605   9.005   8.022 -0.0408  0.4810 -0.2935
  823MOL0     C10995   4.732   9.004   8.065 -0.5096  0.6494  0.0405
  823MOL0     C10996   4.821   8.979   7.966  0.9500  1.4911  1.0221
  823MOL0     C10997   4.953   8.965   7.998 -0.0976 -0.4460  0.3010
  823MOL0     C10998   5.039   8.955   7.878 -0.2957 -0.4930  0.4679
  823MOL0     C10999   4.997   8.974   8.128  0.5526 -0.5500  0.7002
  823MOL0     C11000   5.135   8.935   8.171  0.9721 -0.1802  0.7260
  823MOL0     O11001   5.191   8.999   8.279  0.3076  0.1294 -0.2582
  823MOL0     C11002   5.317   8.979   8.319  0.1797 -0.5685  0.1224
  823MOL0     C11003   5.396   8.873   8.286 -0.2013  0.2149  1.1049
  823MOL0     C11004   5.539   8.869   8.314  0.5602 -0.9994  0.7249
  823MOL0     C11005   5.590   8.965   8.402  0.4662 -0.5432 -0.8271
  823MOL0     O11006   5.724   8.961   8.439 -0.3645  0.5632  0.6057
  823MOL0     C11007   5.820   8.862   8.383 -0.1997  0.5757 -0.5760
  823MOL0     C11008   5.943   8.886   8.468  0.6110  0.2535 -0.2822
  823MOL0     C11009   6.059   8.796   8.419 -1.0377  0.7124 -0.1762
  823MOL0     C11010   6.177   8.812   8.521 -0.5009  0.5088 -0.4949
  823MOL0     C11011   6.284   8.709   8.493 -0.6663 -0.1448  0.5198
  823MOL0     C11012   6.355   8.737   8.364  0.1172  0.7723  0.8411
  823MOL0     C11013   6.475   8.646   8.336 -0.4532  0.0396 -0.4527
  823MOL0     C11014   6.430   8.499   8.330 -0.0691  0.2132 -0.1658
  823MOL0    Cl11015   6.294   8.464   8.222  0.5083 -0.2709 -0.0762
  823MOL0     C11016   5.500   9.064   8.445 -0.3223  0.6222 -1.0816
  823MOL0     C11017   5.374   9.081   8.406  1.2254  0.0296 -0.2378
  823MOL0     O11018   5.194   8.850   8.105  0.2794 -0.1828 -0.0300
  823MOL0     C11019   4.906   9.018   8.224 -0.2671 -0.1020  0.9107
  823MOL0     C11020   4.772   9.031   8.195 -0.2878  0.2812 -0.7867
  823MOL0     N11021   3.994   9.203   8.190  0.7878  0.3462  0.1184
  823MOL0     N11022   3.873   9.230   8.211  0.1551  0.4579  0.3882
  823MOL0     C11023   2.896  10.096   8.478 -0.7049  0.0154  0.2444
  823MOL0     C11024   2.804  10.145   8.568 -0.5487  0.0283  0.8683
  823MOL0     C11025   2.558  10.098   8.923 -0.0442 -0.5646 -0.0174
  823MOL0     C11026   2.509  10.174   9.029 -0.3495  0.0200  0.3207
  823MOL0     C11027   2.373  10.170   9.071  0.6021 -0.1471  0.3077
  823MOL0     C11028   2.277  10.093   9.002  0.0251 -0.7370 -0.6347
  823MOL0     O11029   2.148  10.128   9.034  0.2485  0.1780 -0.4624
  823MOL0     C11030   2.031  10.042   9.000  0.3895 -0.1805  0.6468
  823MOL0     C11031   1.993  10.092   8.855  0.8116 -0.0785  0.0895
  823MOL0     C11032   1.878   9.989   8.815 -1.9836  0.3721  0.0238
  823MOL0     C11033   1.868   9.959   8.665 -0.0125  0.3388  0.7282
  823MOL0     C11034   1.987   9.898   8.625 -0.7213  0.7320 -0.7054
  823MOL0     C11035   2.087   9.837   8.603 -0.3545 -0.0233  0.8725
  823MOL0     C11036   2.318  10.018   8.903 -0.1698 -0.2086 -0.1874
  823MOL0     C11037   2.454  10.025   8.857  0.1395 -0.4281  0.2037
  823MOL0     H11038   2.993  10.141   8.855 -1.5273 -2.0837  1.3066
  823MOL0     H11039   3.172  10.073   8.675 -0.2407  2.3903 -0.0140
  823MOL0     H11040   3.293   9.958   8.498  0.3711  2.4196 -1.3101
  823MOL0     H11041   3.140   9.852   8.488 -1.2474  0.8298 -2.5392
  823MOL0     H11042   3.166   9.843   8.242 -0.4596 -1.4534  1.5068
  823MOL0     H11043   3.294   9.949   8.238 -1.8925 -0.8018 -1.8244
  823MOL0     H11044   3.431   9.786   8.378  0.1481  1.8428 -1.8508
  823MOL0     H11045   3.309   9.661   8.347  1.0380 -0.6897  0.9177
  823MOL0     H11046   3.341   9.725   8.088  1.0197  2.7148 -1.1518
  823MOL0     H11047   3.491   9.816   8.137 -0.7751  1.0210  0.6610
  823MOL0     H11048   3.585   9.648   8.250 -0.0931 -0.4415  1.0567
  823MOL0     H11049   3.460   9.529   8.218  0.1359  0.2239  0.7808
  823MOL0     H11050   3.522   9.513   7.986  1.7168 -0.5419 -0.7699
  823MOL0     H11051   3.596   9.669   7.994 -1.5545 -1.1729 -1.5762
  823MOL0     H11052   3.786   9.537   7.988 -0.8160  0.4970 -0.4675
  823MOL0     H11053   3.776   9.519   8.159  0.5978  0.0321  0.3986
  823MOL0     H11054   3.684   9.329   7.962 -0.2032  1.8814 -0.7671
  823MOL0     H11055   3.619   9.322   8.124 -1.6051  3.4289 -0.9775
  823MOL0     H11056   3.897   9.257   7.885 -1.0635 -3.7380 -0.9504
  823MOL0     H11057   4.118   9.049   7.973  2.0254  0.5657 -1.2608
  823MOL0     H11058   4.188   9.213   7.928 -0.6411  2.7545  0.3590
  823MOL0     H11059   4.222   9.043   8.187  3.2460 -1.4055  1.2726
  823MOL0     H11060   4.293   9.194   8.181 -0.6780 -1.1891  2.1355
  823MOL0     H11061   4.400   9.091   7.939  1.0433  1.1505  0.3184
  823MOL0     H11062   4.362   8.943   8.018  0.8206 -0.4821  3.3803
  823MOL0     H11063   4.489   8.976   8.198  0.9129 -1.1227 -0.6305
  823MOL0     H11064   4.521   9.145   8.157  0.3271 -1.6701  2.6707
  823MOL0     H11065   4.789   8.958   7.865  2.9299 -0.3130  0.7014
  823MOL0     H11066   4.985   8.996   7.792  0.3686  1.2142  0.8316
  823MOL0     H11067   5.127   9.016   7.900 -2.5146  2.4482  1.8937
  823MOL0     H11068   5.075   8.854   7.859  0.8224 -0.5144  2.4942
  823MOL0     H11069   5.357   8.786   8.234  0.8890  0.3571  0.0057
  823MOL0     H11070   5.595   8.792   8.262  1.5203  1.3243 -2.0122
  823MOL0     H11071   5.788   8.758   8.386  0.9774  0.2222  0.9842
  823MOL0     H11072   5.834   8.870   8.275  1.4754 -1.9950 -0.6354
  823MOL0     H11073   5.975   8.990   8.460  1.3463  0.3706  2.8476
  823MOL0     H11074   5.909   8.864   8.569  1.1181  0.7491 -0.0001
  823MOL0     H11075   6.083   8.829   8.318  1.1062 -3.6181 -1.3618
  823MOL0     H11076   6.014   8.698   8.403 -1.5359  0.3617  2.7183
  823MOL0     H11077   6.218   8.914   8.512  0.5494  0.2070  0.5779
  823MOL0     H11078   6.151   8.800   8.627 -0.9114  3.6055 -0.1463
  823MOL0     H11079   6.235   8.611   8.493  1.8287 -1.5348  3.0416
  823MOL0     H11080   6.355   8.728   8.574 -2.6364  2.1193  1.8357
  823MOL0     H11081   6.286   8.740   8.279  0.0652  0.1513  0.8611
  823MOL0     H11082   6.382   8.843   8.366  1.6887  0.3801  1.7465
  823MOL0     H11083   6.541   8.659   8.423 -2.0882  0.6034  0.7501
  823MOL0     H11084   6.527   8.678   8.245  0.1186 -2.4081 -1.0518
  823MOL0     H11085   6.396   8.457   8.424  1.6757  1.8204  1.2765
  823MOL0     H11086   6.514   8.443   8.288  0.3175 -0.5454  1.5583
  823MOL0     H11087   5.548   9.133   8.513  0.2510  1.2937 -2.1264
  823MOL0     H11088   5.308   9.161   8.437  0.0286 -0.6516 -0.9242
  823MOL0     H11089   4.948   9.031   8.324 -0.9511 -0.1994  1.2165
  823MOL0     H11090   4.701   9.025   8.276  0.0722 -0.9000 -0.5369
  823MOL0     H11091   2.880  10.103   8.371  0.3549  1.4234  0.1568
  823MOL0     H11092   2.713  10.187   8.527 -0.4285  0.8745  1.4539
  823MOL0     H11093   2.583  10.222   9.092  1.1611 -2.4240  0.5321
  823MOL0     H11094   2.348  10.227   9.160 -1.9476  0.0743 -0.4655
  823MOL0     H11095   2.066   9.938   9.000  1.3015  0.1041 -0.2919
  823MOL0     H11096   1.949  10.058   9.070 -0.0925  0.6055 -0.0733
  823MOL0     H11097   2.081  10.078   8.792  1.6489 -0.4851  1.3194
  823MOL0     H11098   1.968  10.199   8.858 -3.8733 -0.9451  0.2784
  823MOL0     H11099   1.787  10.028   8.862 -1.0491  1.9182  0.6259
  823MOL0     H11100   1.898   9.894   8.864  1.9778 -0.3830 -2.6083
  823MOL0     H11101   1.860  10.047   8.601  1.1882  1.6474  2.2563
  823MOL0     H11102   1.782   9.894   8.645 -1.9780  3.5346 -2.3976
  823MOL0     H11103   2.164   9.769   8.576  0.4558  1.1369  0.1961
  823MOL0     H11104   2.231   9.975   8.855 -0.5556  0.4937 -0.1272
  823MOL0     H11105   2.476   9.968   8.768  0.2239  1.4783 -1.0456
  824MOL0     O11106   3.918   4.802   4.235 -0.0648 -0.2312 -0.6004
  824MOL0     C11107   3.931   4.769   4.355  0.3260 -0.0770 -0.4827
  824MOL0     O11108   3.850   4.692   4.427 -0.2929 -0.4432  0.1151
  824MOL0     C11109   3.760   4.602   4.379 -0.1386  0.7837 -0.5488
  824MOL0     C11110   3.661   4.569   4.469 -0.0346  0.1342  0.5945
  824MOL0     C11111   3.558   4.476   4.445  0.9734 -0.2110  0.3715
  824MOL0     C11112   3.547   4.425   4.312 -1.5654 -0.8041  0.0404
  824MOL0     O11113   3.433   4.350   4.286 -0.4963  0.3455 -0.0788
  824MOL0     C11114   3.366   4.381   4.171 -0.5997 -0.7675  0.1817
  824MOL0     C11115   3.220   4.333   4.183 -0.1934 -0.9315  0.2543
  824MOL0     C11116   3.139   4.414   4.293 -0.7731  0.6864 -0.6776
  824MOL0     C11117   3.091   4.550   4.255 -0.0742 -0.7362  0.2972
  824MOL0     C11118   2.994   4.612   4.358 -0.0430 -0.4854 -0.0509
  824MOL0     C11119   3.048   4.602   4.504 -0.1847  0.6843 -0.3657
  824MOL0     C11120   3.189   4.642   4.537  0.7874  0.6288 -0.5688
  824MOL0     C11121   3.178   4.732   4.668 -0.6294  1.0254  0.5634
  824MOL0     N11122   3.315   4.761   4.715  0.3921 -0.5161  0.5420
  824MOL0     C11123   3.382   4.876   4.690 -0.5970  0.3541  0.2342
  824MOL0     C11124   3.494   4.873   4.759 -0.1180  0.1271 -0.7713
  824MOL0     C11125   3.610   4.965   4.752 -0.2421  1.0614  0.1372
  824MOL0     C11126   3.581   5.102   4.695 -0.0124  0.0232  0.5431
  824MOL0     C11127   3.672   5.121   4.567 -0.1037 -0.3944  1.0350
  824MOL0     C11128   3.654   5.022   4.451  0.0666  0.0289 -0.0795
  824MOL0     O11129   3.517   5.024   4.409 -0.1121  0.2930 -0.3838
  824MOL0     C11130   3.491   4.955   4.299  0.0336 -0.5522  0.5338
  824MOL0     C11131   3.360   4.970   4.252 -0.4044  0.2527 -0.0176
  824MOL0     C11132   3.308   4.904   4.142 -0.9355  0.0518  0.1155
  824MOL0     C11133   3.160   4.933   4.109  0.6203  0.5316 -0.3043
  824MOL0     C11134   3.399   4.828   4.056 -0.1232  0.6235 -0.2111
  824MOL0     C11135   3.353   4.744   3.941  0.9295  0.5229 -0.0380
  824MOL0     O11136   3.228   4.697   3.954  0.4984 -0.1516 -0.9932
  824MOL0     C11137   3.167   4.641   3.840 -0.3428 -0.0680 -0.2918
  824MOL0     C11138   3.055   4.690   3.794 -0.9688 -0.8144 -0.1229
  824MOL0     C11139   3.001   4.640   3.679  0.1717 -0.7464 -0.4352
  824MOL0     C11140   3.056   4.537   3.608 -0.1308 -0.8999 -0.4585
  824MOL0     O11141   3.003   4.501   3.484 -0.3744 -0.1180 -0.1923
  824MOL0     C11142   2.881   4.558   3.441  0.6237  0.3227 -0.6729
  824MOL0     C11143   2.911   4.697   3.371  1.0957 -0.1554 -1.2351
  824MOL0     C11144   3.034   4.707   3.277 -0.3161  1.1160 -0.2478
  824MOL0     C11145   3.040   4.855   3.236 -0.4701 -0.0545  0.6031
  824MOL0     C11146   3.115   4.891   3.109 -0.1136 -0.4738  0.5679
  824MOL0     C11147   3.231   4.798   3.085 -1.1091  0.3371 -0.5985
  824MOL0     C11148   3.315   4.869   2.981  0.1666  0.7844 -0.0619
  824MOL0     C11149   3.453   4.796   2.968 -1.0798 -0.1679 -0.0591
  824MOL0    Cl11150   3.555   4.853   3.095 -0.0652 -0.3811 -0.4281
  824MOL0     C11151   3.176   4.480   3.661 -0.4840  0.9179 -0.5035
  824MOL0     C11152   3.226   4.528   3.779  0.7141 -0.0242  0.3543
  824MOL0     O11153   3.431   4.730   3.843  0.7367  0.6943 -0.3161
  824MOL0     C11154   3.537   4.831   4.091 -0.5487 -0.4920  0.7929
  824MOL0     C11155   3.587   4.893   4.211 -0.3179 -0.3681 -0.3225
  824MOL0     N11156   3.487   4.756   4.836 -1.1443 -0.4573  0.9946
  824MOL0     N11157   3.381   4.690   4.811 -0.0355  0.4398  0.6983
  824MOL0     C11158   3.643   4.469   4.213 -0.0333 -0.1233  0.1798
  824MOL0     C11159   3.747   4.554   4.246 -0.3621 -0.9109 -1.0085
  824MOL0     C11160   4.034   4.845   4.426  0.0294  0.4155 -0.5715
  824MOL0     C11161   4.054   4.829   4.566 -0.2438 -0.3222  0.7610
  824MOL0     C11162   4.158   4.874   4.633 -1.0256  0.9219 -0.2699
  824MOL0     C11163   4.253   4.962   4.566 -0.2880 -1.0319 -0.1905
  824MOL0     O11164   4.363   5.027   4.620  0.4249 -0.1013  0.0837
  824MOL0     C11165   4.426   4.977   4.736 -0.0317 -0.7130 -0.6675
  824MOL0     C11166   4.368   5.001   4.879 -1.0115  0.0793  0.1612
  824MOL0     C11167   4.318   5.142   4.902 -0.2167  0.4583  0.8698
  824MOL0     C11168   4.424   5.258   4.872 -0.4300 -0.9760  0.3640
  824MOL0     C11169   4.542   5.241   4.956  0.1406 -0.2705  0.1424
  824MOL0     C11170   4.637   5.218   5.027  0.5159 -0.2265 -0.7384
  824MOL0     C11171   4.237   4.974   4.429  0.4506  0.4217  0.1842
  824MOL0     C11172   4.130   4.923   4.354 -0.0825 -0.5372  0.3103
  824MOL0     H11173   3.681   4.616   4.565  0.3657  4.4549 -1.3547
  824MOL0     H11174   3.482   4.454   4.520  1.0042  2.9815  1.4795
  824MOL0     H11175   3.366   4.490   4.157  0.7667 -0.8037 -0.2507
  824MOL0     H11176   3.411   4.338   4.080  0.2528  0.1949  0.1306
  824MOL0     H11177   3.176   4.350   4.084 -1.5437  1.0992  1.1543
  824MOL0     H11178   3.234   4.226   4.203  4.9564 -0.7177 -0.8652
  824MOL0     H11179   3.048   4.370   4.336 -1.5505  1.4904 -1.4636
  824MOL0     H11180   3.214   4.413   4.372 -0.0783 -1.1763 -1.3097
  824MOL0     H11181   3.180   4.614   4.252 -2.3199  2.9413  2.9334
  824MOL0     H11182   3.040   4.559   4.159  0.1508 -1.0943  0.1439
  824MOL0     H11183   2.976   4.716   4.329  0.2355 -0.6027 -0.6793
  824MOL0     H11184   2.896   4.567   4.344  0.2940 -0.8470 -1.4197
  824MOL0     H11185   2.971   4.665   4.550 -0.7222  0.8737 -1.4946
  824MOL0     H11186   3.027   4.501   4.542  0.8655  1.4683  2.5109
  824MOL0     H11187   3.245   4.552   4.561 -0.3952  0.0791  0.2363
  824MOL0     H11188   3.232   4.701   4.456 -0.1068  0.5646 -1.1038
  824MOL0     H11189   3.130   4.661   4.737 -1.1422 -1.6017 -2.2771
  824MOL0     H11190   3.133   4.831   4.665  3.3462  3.0441  0.9432
  824MOL0     H11191   3.345   4.960   4.632 -2.1001  0.8979  1.8888
  824MOL0     H11192   3.640   4.983   4.855 -0.5343 -0.0097  0.4140
  824MOL0     H11193   3.691   4.914   4.700  0.2336  1.3751  0.5684
  824MOL0     H11194   3.614   5.175   4.768  0.6218  2.1965 -1.7719
  824MOL0     H11195   3.473   5.114   4.677 -0.2671 -1.2152  1.1107
  824MOL0     H11196   3.774   5.103   4.602 -0.0734 -0.7174  0.7826
  824MOL0     H11197   3.673   5.220   4.521  0.7851 -1.8698 -2.3939
  824MOL0     H11198   3.689   4.924   4.485 -1.1096 -0.9882 -1.6523
  824MOL0     H11199   3.723   5.051   4.371  1.6333 -1.6489  0.5845
  824MOL0     H11200   3.299   5.041   4.306  0.6094  0.2171  1.2199
  824MOL0     H11201   3.121   5.019   4.163  0.4103  0.2707 -0.0338
  824MOL0     H11202   3.149   4.955   4.003  3.1356 -0.1477 -0.7719
  824MOL0     H11203   3.098   4.847   4.135  0.1953  0.6025 -1.0773
  824MOL0     H11204   3.008   4.766   3.856 -1.0954 -0.6109 -0.4611
  824MOL0     H11205   2.912   4.689   3.640  1.1346 -0.7109 -2.7010
  824MOL0     H11206   2.834   4.483   3.377  0.5328 -1.0781  0.9639
  824MOL0     H11207   2.811   4.569   3.525  0.3848  0.9345 -0.9439
  824MOL0     H11208   2.822   4.725   3.314  1.5495  0.3983 -1.6751
  824MOL0     H11209   2.923   4.782   3.438 -3.2589  0.3522 -0.7975
  824MOL0     H11210   3.008   4.648   3.189 -1.3406  2.8259 -1.1684
  824MOL0     H11211   3.130   4.673   3.315 -0.1341 -1.0240 -2.4507
  824MOL0     H11212   2.944   4.906   3.236  0.2062  1.3644 -1.6732
  824MOL0     H11213   3.100   4.893   3.320 -0.9132  0.1872  0.8091
  824MOL0     H11214   3.150   4.994   3.099 -0.4782 -0.1964  1.8924
  824MOL0     H11215   3.046   4.872   3.027 -0.8250 -2.1570  1.5060
  824MOL0     H11216   3.280   4.802   3.183 -0.4844 -0.9466 -0.8378
  824MOL0     H11217   3.203   4.695   3.064 -2.5815  0.9271 -1.6706
  824MOL0     H11218   3.333   4.970   3.017 -0.3832  0.4944  1.0741
  824MOL0     H11219   3.258   4.868   2.887  0.1829  3.5671 -0.1859
  824MOL0     H11220   3.500   4.821   2.873  0.1367 -2.5921 -0.1708
  824MOL0     H11221   3.435   4.688   2.967 -1.5373 -0.2043  3.0106
  824MOL0     H11222   3.216   4.387   3.621 -0.5668  0.5387  0.2677
  824MOL0     H11223   3.316   4.490   3.826  1.1182  0.6597  0.1392
  824MOL0     H11224   3.613   4.775   4.037  1.1451 -1.7908  4.1764
  824MOL0     H11225   3.695   4.892   4.227 -0.4028  2.4855  1.0511
  824MOL0     H11226   3.639   4.421   4.116 -1.2367  0.8409 -0.2720
  824MOL0     H11227   3.812   4.589   4.167 -1.4947  0.4462 -1.3634
  824MOL0     H11228   3.997   4.754   4.620 -2.4367  0.1115 -0.7974
  824MOL0     H11229   4.172   4.840   4.736 -1.3112 -0.5543 -0.6940
  824MOL0     H11230   4.425   4.869   4.722  1.6550 -0.6491 -1.5362
  824MOL0     H11231   4.528   5.016   4.743 -0.2706 -0.2633  0.4451
  824MOL0     H11232   4.447   4.974   4.950 -1.9356  1.6808  1.8968
  824MOL0     H11233   4.289   4.928   4.900 -2.0431  1.2930  0.6101
  824MOL0     H11234   4.279   5.155   5.003 -0.3259  0.3424  0.8431
  824MOL0     H11235   4.236   5.160   4.831  0.7972 -0.7694 -0.6721
  824MOL0     H11236   4.389   5.360   4.891  3.9073  1.0784 -1.4479
  824MOL0     H11237   4.458   5.254   4.768  2.1319  0.9752  1.0337
  824MOL0     H11238   4.715   5.185   5.092  0.3310 -0.1457 -0.4769
  824MOL0     H11239   4.315   5.037   4.387 -0.0099 -0.3265 -1.9537
  824MOL0     H11240   4.129   4.933   4.246  1.1095 -1.7089  0.1712
  825MOL0     O11241   7.138   2.960   6.881 -0.3482 -0.2628 -0.4932
  825MOL0     C11242   7.196   2.889   6.968 -0.3694  0.2105 -0.3346
  825MOL0     O11243   7.143   2.783   7.040 -0.1408 -0.0134 -0.2564
  825MOL0     C11244   7.017   2.732   7.011 -1.4944  0.3128  0.4060
  825MOL0     C11245   6.899   2.780   7.072 -0.4484 -0.0370 -0.5932
  825MOL0     C11246   6.773   2.726   7.049 -0.5983 -0.4617  0.9593
  825MOL0     C11247   6.754   2.624   6.952 -0.6476  0.8358 -0.3854
  825MOL0     O11248   6.623   2.588   6.926 -0.7384  0.0607  0.1432
  825MOL0     C11249   6.604   2.497   6.812 -0.3861  0.3621  0.6915
  825MOL0     C11250   6.451   2.484   6.770 -0.1046 -0.2010 -0.8567
  825MOL0     C11251   6.370   2.478   6.901 -0.4062  0.3043 -0.2216
  825MOL0     C11252   6.390   2.346   6.984 -0.7494 -0.0481 -1.0847
  825MOL0     C11253   6.295   2.330   7.097 -0.8517 -0.0846  0.3258
  825MOL0     C11254   6.323   2.188   7.159 -0.0958 -0.0725 -0.2024
  825MOL0     C11255   6.235   2.155   7.273 -0.4373  0.1268 -0.3059
  825MOL0     C11256   6.263   2.015   7.332 -0.8131 -0.2111  0.4704
  825MOL0     N11257   6.184   1.968   7.438  0.1575 -0.7574 -0.4093
  825MOL0     C11258   6.050   1.959   7.420  0.1002 -0.0266  0.5874
  825MOL0     C11259   6.010   1.897   7.533  0.0667  0.1965  1.2967
  825MOL0     C11260   5.876   1.867   7.579  0.2452  0.4375  0.3723
  825MOL0     C11261   5.853   1.893   7.730  0.9067  0.8277  0.3092
  825MOL0     C11262   5.699   1.895   7.771  0.0777  0.5881 -0.1445
  825MOL0     C11263   5.670   1.951   7.910  0.3291  0.5427  0.0210
  825MOL0     O11264   5.529   1.952   7.940  0.2443  0.5824  0.0688
  825MOL0     C11265   5.449   2.038   7.867  0.8905 -1.2195 -0.1175
  825MOL0     C11266   5.476   2.174   7.842  0.0867  0.2651 -0.0138
  825MOL0     C11267   5.382   2.261   7.776 -0.4411  0.0430 -0.3268
  825MOL0     C11268   5.417   2.411   7.768  0.1694 -0.5866 -0.3763
  825MOL0     C11269   5.263   2.200   7.725 -0.1444 -0.9799  1.1519
  825MOL0     C11270   5.158   2.277   7.649  0.4936  0.5105  1.1267
  825MOL0     O11271   5.048   2.210   7.608 -0.6695  0.4107  0.2083
  825MOL0     C11272   4.944   2.277   7.556  0.6734  0.0164  0.6366
  825MOL0     C11273   4.931   2.291   7.417 -0.2038  0.2306  0.4846
  825MOL0     C11274   4.821   2.345   7.356  0.1124 -0.4847 -0.2298
  825MOL0     C11275   4.716   2.378   7.433 -0.3115  0.1354  0.2921
  825MOL0     O11276   4.606   2.416   7.364  0.4097  0.2806 -0.5871
  825MOL0     C11277   4.474   2.386   7.400  0.1956 -0.1002 -0.6270
  825MOL0     C11278   4.423   2.515   7.468  0.7947  0.1850 -1.2818
  825MOL0     C11279   4.270   2.504   7.464 -0.5121 -0.0376  1.0259
  825MOL0     C11280   4.204   2.638   7.509 -0.3469 -0.0430 -0.0387
  825MOL0     C11281   4.051   2.634   7.531  0.0514 -0.5971 -0.2525
  825MOL0     C11282   3.961   2.574   7.416 -0.2412  0.0042 -0.2092
  825MOL0     C11283   3.815   2.622   7.432 -0.1791  0.4853 -0.7733
  825MOL0     C11284   3.745   2.616   7.295 -0.7389 -0.4083  0.2399
  825MOL0    Cl11285   3.584   2.687   7.279 -0.0628 -0.2259 -0.5546
  825MOL0     C11286   4.720   2.366   7.571 -0.0987  0.3268 -0.3317
  825MOL0     C11287   4.839   2.326   7.635  1.3515  1.7820 -0.5120
  825MOL0     O11288   5.163   2.400   7.651  0.2446  0.1891 -0.5937
  825MOL0     C11289   5.248   2.061   7.745 -1.1098  0.0095  1.7556
  825MOL0     C11290   5.340   1.980   7.814 -0.9150 -0.2681  0.5215
  825MOL0     N11291   6.118   1.871   7.605 -0.8736 -0.3363 -0.3103
  825MOL0     N11292   6.227   1.927   7.560 -0.2469  0.0041 -0.1878
  825MOL0     C11293   6.873   2.581   6.883 -0.2222  0.3289 -0.5020
  825MOL0     C11294   6.999   2.627   6.913 -0.4823 -0.6720  0.4079
  825MOL0     C11295   7.333   2.912   6.990 -1.2995  1.0689 -0.3125
  825MOL0     C11296   7.407   2.818   7.068 -0.8333  0.1565  0.4423
  825MOL0     C11297   7.538   2.843   7.074 -0.4946 -0.3453  0.4775
  825MOL0     C11298   7.613   2.947   7.012  0.1357 -0.0347  0.2128
  825MOL0     O11299   7.748   2.939   7.030 -0.2297  0.4540  0.9393
  825MOL0     C11300   7.833   3.026   6.951  1.2712 -0.0929  0.1502
  825MOL0     C11301   7.968   2.965   6.923 -0.0223 -0.2059  0.2932
  825MOL0     C11302   8.071   3.079   6.916  0.0059  0.6797  0.6875
  825MOL0     C11303   8.203   3.018   6.870  0.3750  0.0786  0.3867
  825MOL0     C11304   8.193   2.973   6.728 -0.7311 -0.6361 -0.3329
  825MOL0     C11305   8.204   2.929   6.616 -0.1407  0.1903  0.8648
  825MOL0     C11306   7.530   3.035   6.926 -0.8802 -0.1953 -0.4770
  825MOL0     C11307   7.399   3.020   6.925 -0.2382 -0.2354  0.6027
  825MOL0     H11308   6.919   2.855   7.148  1.0799 -0.4261 -0.5736
  825MOL0     H11309   6.690   2.754   7.113  0.1567  1.2975  1.2356
  825MOL0     H11310   6.662   2.525   6.724 -2.9957  0.2589 -1.1815
  825MOL0     H11311   6.630   2.395   6.842 -0.4930 -0.2717 -1.2127
  825MOL0     H11312   6.405   2.570   6.721 -1.6317 -1.7552 -2.2893
  825MOL0     H11313   6.433   2.393   6.713 -0.7368 -0.7075  0.1115
  825MOL0     H11314   6.395   2.564   6.964  1.4824 -0.5699  0.3031
  825MOL0     H11315   6.265   2.487   6.874 -0.1043  1.6802 -1.0061
  825MOL0     H11316   6.378   2.259   6.918  0.2340 -1.4306  0.4725
  825MOL0     H11317   6.491   2.339   7.026 -0.9064  2.1086 -0.2046
  825MOL0     H11318   6.319   2.400   7.177 -1.8808 -0.2835  0.8160
  825MOL0     H11319   6.187   2.343   7.081 -0.7359  2.8651  1.3407
  825MOL0     H11320   6.300   2.114   7.081 -0.6303 -0.9285  0.7345
  825MOL0     H11321   6.427   2.168   7.182  0.1539  0.8165 -0.5165
  825MOL0     H11322   6.261   2.232   7.346  4.4660 -0.7769 -0.7783
  825MOL0     H11323   6.128   2.155   7.247 -0.3529 -2.7340 -0.9905
  825MOL0     H11324   6.363   2.009   7.375 -1.3432 -1.0562  1.6450
  825MOL0     H11325   6.240   1.952   7.246 -0.4589  3.3250 -2.4742
  825MOL0     H11326   5.980   1.991   7.343 -0.7831 -1.5067  0.7301
  825MOL0     H11327   5.802   1.936   7.536  0.6594  0.6748  0.0318
  825MOL0     H11328   5.843   1.765   7.555 -1.3212  0.6229  1.5778
  825MOL0     H11329   5.908   1.980   7.765 -1.6173  3.0462 -0.9138
  825MOL0     H11330   5.890   1.807   7.788  1.2954  1.1658  0.5639
  825MOL0     H11331   5.668   1.790   7.773 -0.2033  0.6775  0.1621
  825MOL0     H11332   5.634   1.940   7.695 -0.8399 -2.0556 -1.0542
  825MOL0     H11333   5.705   2.054   7.911  0.3733  0.5780 -1.8121
  825MOL0     H11334   5.720   1.906   7.996 -0.8906  2.6404  1.9464
  825MOL0     H11335   5.569   2.217   7.879  0.1698 -0.2040  0.3313
  825MOL0     H11336   5.339   2.471   7.817 -0.9041 -1.0754 -1.4324
  825MOL0     H11337   5.514   2.422   7.816  0.3680 -1.6254 -0.5265
  825MOL0     H11338   5.436   2.440   7.664  1.5173  1.8732  0.4775
  825MOL0     H11339   5.024   2.272   7.364 -0.2069 -0.4377  0.7110
  825MOL0     H11340   4.832   2.376   7.252  0.3383 -0.2384 -0.1345
  825MOL0     H11341   4.404   2.362   7.319 -0.0884 -3.1483  0.3954
  825MOL0     H11342   4.465   2.303   7.471 -0.3591  0.3242 -0.1817
  825MOL0     H11343   4.447   2.535   7.573  0.3408  0.0864 -1.1569
  825MOL0     H11344   4.458   2.605   7.416 -1.2597  2.6215  1.2464
  825MOL0     H11345   4.220   2.426   7.522 -0.4336 -0.5686  0.3884
  825MOL0     H11346   4.234   2.483   7.363  1.5857  0.4504  0.1131
  825MOL0     H11347   4.247   2.662   7.606  4.1418 -0.6823 -1.6230
  825MOL0     H11348   4.232   2.708   7.429  0.5051 -1.8615 -1.4306
  825MOL0     H11349   4.026   2.738   7.555  0.6819  0.0532 -2.2492
  825MOL0     H11350   4.031   2.576   7.622  0.5659  1.1256  1.0036
  825MOL0     H11351   3.994   2.609   7.318 -1.4920 -1.0435 -1.0436
  825MOL0     H11352   3.970   2.465   7.417  2.5762  0.1450 -1.4998
  825MOL0     H11353   3.823   2.726   7.467 -3.0149  0.8623 -1.0515
  825MOL0     H11354   3.759   2.558   7.500  2.1371  0.6472  1.4706
  825MOL0     H11355   3.740   2.509   7.273 -2.7384 -0.3468  0.2181
  825MOL0     H11356   3.807   2.668   7.222 -5.1941  3.0521 -1.5497
  825MOL0     H11357   4.634   2.395   7.630 -2.8676  0.1627 -3.9830
  825MOL0     H11358   4.842   2.330   7.743  0.9766 -2.4306 -0.1588
  825MOL0     H11359   5.163   2.006   7.704 -0.3355 -0.0573  0.1566
  825MOL0     H11360   5.327   1.872   7.823 -0.8241 -0.3123  0.1250
  825MOL0     H11361   6.866   2.488   6.829 -2.3385  0.3716 -0.3693
  825MOL0     H11362   7.097   2.593   6.881 -0.5757  0.8013 -1.6169
  825MOL0     H11363   7.363   2.734   7.121 -1.5839  0.9767  1.1353
  825MOL0     H11364   7.601   2.771   7.124 -1.0732  0.0687  1.8488
  825MOL0     H11365   7.796   3.064   6.855  4.1210  2.2143 -0.1925
  825MOL0     H11366   7.835   3.110   7.020  0.2297 -0.3322  0.4760
  825MOL0     H11367   7.959   2.898   6.836  1.4777  0.1190 -0.1255
  825MOL0     H11368   7.981   2.894   7.005 -0.8170  0.1334  0.7260
  825MOL0     H11369   8.081   3.136   7.009 -0.6719  2.4510 -0.2732
  825MOL0     H11370   8.044   3.152   6.839 -1.7334 -3.6238 -3.2818
  825MOL0     H11371   8.244   2.934   6.927  1.8471  1.8057  2.0029
  825MOL0     H11372   8.274   3.100   6.868 -2.0037  2.3169  1.6679
  825MOL0     H11373   8.218   2.869   6.528 -0.4020  0.4339  0.6511
  825MOL0     H11374   7.581   3.118   6.879  1.9744 -0.4208  1.9048
  825MOL0     H11375   7.341   3.090   6.866 -1.9189 -1.8317  0.2621
  826MOL0     O11376   9.179  10.527   6.928 -1.2560 -0.8471 -0.4464
  826MOL0     C11377   9.227  10.503   6.819 -0.2302 -0.3935  0.4756
  826MOL0     O11378   9.155  10.488   6.705  0.3626  0.0430  0.4980
  826MOL0     C11379   9.020  10.524   6.686 -0.5191  0.8115 -0.9861
  826MOL0     C11380   8.923  10.543   6.787  0.0172 -0.3221  0.4721
  826MOL0     C11381   8.800  10.572   6.745 -0.5600 -1.3359 -0.1520
  826MOL0     C11382   8.763  10.590   6.613  0.2414 -0.2429  0.5474
  826MOL0     O11383   8.632  10.632   6.593  0.5771  0.2853  0.1280
  826MOL0     C11384   8.566  10.623   6.463 -0.0287 -0.0812  0.4728
  826MOL0     C11385   8.417  10.624   6.492 -0.4823 -0.1061  1.1427
  826MOL0     C11386   8.370  10.480   6.531  0.0547  0.1539 -0.2019
  826MOL0     C11387   8.219  10.457   6.555 -0.3262  0.2671  0.0413
  826MOL0     C11388   8.140  10.483   6.423  0.4221 -0.5517 -0.3077
  826MOL0     C11389   8.008  10.398   6.427  0.0288  0.7486 -0.3230
  826MOL0     C11390   7.916  10.415   6.306 -0.3256 -0.1582  0.5202
  826MOL0     C11391   7.812  10.293   6.291  1.1430  0.1524  0.8534
  826MOL0     N11392   7.868  10.167   6.253  0.0569  0.7553 -0.8411
  826MOL0     C11393   8.001  10.133   6.240  0.0159 -0.1433 -0.7276
  826MOL0     C11394   8.013  10.001   6.231  0.3620 -0.5047 -0.2365
  826MOL0     C11395   8.130   9.922   6.195  0.9394  0.4065  0.4863
  826MOL0     C11396   8.199   9.876   6.324  0.1875 -0.5318  0.2072
  826MOL0     C11397   8.232   9.984   6.416 -0.0230 -0.4057 -0.0556
  826MOL0     C11398   8.347  10.080   6.357 -0.3447  0.3621  0.0934
  826MOL0     O11399   8.450   9.997   6.310 -0.1242  0.2860  0.6407
  826MOL0     C11400   8.557  10.012   6.394  1.0516  1.1434  0.6785
  826MOL0     C11401   8.669  10.094   6.363 -0.4396  0.2364 -0.1131
  826MOL0     C11402   8.787  10.086   6.441  0.0322  0.6334 -0.4947
  826MOL0     C11403   8.912  10.166   6.404  0.5405 -0.6018 -0.0002
  826MOL0     C11404   8.790   9.990   6.547  0.0317  0.3873 -0.2126
  826MOL0     C11405   8.914   9.963   6.628  0.4043 -0.7799  0.6593
  826MOL0     O11406   8.993  10.066   6.680  0.4168 -0.0370 -0.6802
  826MOL0     C11407   9.115  10.055   6.736  0.3040 -0.3467 -0.1539
  826MOL0     C11408   9.162  10.145   6.833  0.3348 -0.9846 -0.3258
  826MOL0     C11409   9.282  10.142   6.887 -0.0119  0.1267 -0.1315
  826MOL0     C11410   9.369  10.049   6.850 -0.0278  0.0308 -0.0701
  826MOL0     O11411   9.502  10.068   6.891 -0.1949 -0.3896  0.0641
  826MOL0     C11412   9.603  10.007   6.807 -0.6563  0.3952  0.7017
  826MOL0     C11413   9.731  10.019   6.881 -0.0541 -0.5769 -0.0897
  826MOL0     C11414   9.857   9.993   6.791  0.4714  0.0554  1.1623
  826MOL0     C11415   9.884  10.108   6.697 -0.7410 -0.1449 -0.4385
  826MOL0     C11416   9.972  10.055   6.585  0.0896 -0.6499  0.6863
  826MOL0     C11417  10.008  10.165   6.472 -0.6503  0.1634 -0.0337
  826MOL0     C11418  10.123  10.126   6.379 -0.3211  0.2210 -0.2694
  826MOL0     C11419  10.096  10.116   6.234  0.3323  0.1350 -0.2978
  826MOL0    Cl11420   9.958  10.003   6.197 -0.0011  1.0123  0.2363
  826MOL0     C11421   9.327   9.955   6.750 -0.1235 -0.2894 -0.2226
  826MOL0     C11422   9.205   9.959   6.701 -0.0087 -0.8055  1.0620
  826MOL0     O11423   8.939   9.843   6.636  1.1711  0.4406  0.7916
  826MOL0     C11424   8.678   9.908   6.577  0.1450 -0.6669 -0.2374
  826MOL0     C11425   8.566   9.921   6.491  0.1205 -1.0360 -0.0309
  826MOL0     N11426   7.876   9.950   6.235  0.5195  0.9027  0.1771
  826MOL0     N11427   7.802  10.049   6.257  0.3622  0.1681 -0.9188
  826MOL0     C11428   8.847  10.560   6.510 -1.6490 -0.2593 -0.1150
  826MOL0     C11429   8.975  10.518   6.547  0.5708 -0.1962 -0.3951
  826MOL0     C11430   9.372  10.474   6.808 -0.4898 -0.3773  0.2341
  826MOL0     C11431   9.453  10.515   6.907 -0.8221  0.6462 -1.2524
  826MOL0     C11432   9.594  10.505   6.898 -0.4102  0.4959 -0.2143
  826MOL0     C11433   9.657  10.443   6.786  0.2563  0.7357 -0.9379
  826MOL0     O11434   9.786  10.450   6.759 -0.5913 -0.2669  0.3873
  826MOL0     C11435   9.870  10.533   6.836  0.4815  0.6530 -0.3311
  826MOL0     C11436   9.999  10.528   6.760 -0.7278  0.2158  0.3482
  826MOL0     C11437  10.113  10.594   6.843 -0.2285 -0.7971 -0.5294
  826MOL0     C11438  10.217  10.494   6.897  0.2890  0.7821 -0.0339
  826MOL0     C11439  10.155  10.391   6.990 -0.1974  0.9502  0.2264
  826MOL0     C11440  10.110  10.298   7.058 -0.3677  0.6537  0.3294
  826MOL0     C11441   9.574  10.366   6.707 -0.8550 -0.5071  0.1286
  826MOL0     C11442   9.433  10.388   6.713 -0.1658  0.5819 -0.2070
  826MOL0     H11443   8.950  10.543   6.892 -0.7377 -0.9805  0.6757
  826MOL0     H11444   8.725  10.596   6.819 -1.6685  1.4490 -2.0376
  826MOL0     H11445   8.595  10.704   6.397  1.6448  0.9027  2.3102
  826MOL0     H11446   8.586  10.529   6.409 -0.2760  0.9142 -1.4234
  826MOL0     H11447   8.396  10.685   6.580  1.2067  0.1679  1.3821
  826MOL0     H11448   8.370  10.663   6.401  0.4400  0.3899  0.8596
  826MOL0     H11449   8.400  10.408   6.454 -1.9881 -0.8295 -0.1256
  826MOL0     H11450   8.417  10.439   6.621  1.2841 -0.9030 -1.2906
  826MOL0     H11451   8.198  10.355   6.588  0.2173  0.0329 -0.3152
  826MOL0     H11452   8.183  10.522   6.634  1.6015 -0.6928  1.8205
  826MOL0     H11453   8.107  10.588   6.425  2.5339  0.1767  2.3587
  826MOL0     H11454   8.198  10.470   6.332  0.2257 -0.5262 -0.4381
  826MOL0     H11455   8.035  10.294   6.445 -0.6974  0.6167  0.0459
  826MOL0     H11456   7.949  10.427   6.515 -0.6658 -0.9074 -0.2127
  826MOL0     H11457   7.872  10.515   6.317  0.3959  0.1267  0.9024
  826MOL0     H11458   7.978  10.418   6.216 -2.9059  1.1235 -1.3474
  826MOL0     H11459   7.732  10.314   6.219  0.8998 -2.9519  0.0754
  826MOL0     H11460   7.761  10.265   6.383 -1.1731 -0.5178 -0.5672
  826MOL0     H11461   8.076  10.210   6.226 -1.5812  1.4845 -0.6611
  826MOL0     H11462   8.087   9.843   6.132  1.8411 -0.9592  1.5265
  826MOL0     H11463   8.202   9.980   6.136 -0.6430  2.1784  0.1903
  826MOL0     H11464   8.289   9.818   6.298  1.6636  1.4395  0.7118
  826MOL0     H11465   8.126   9.819   6.382 -1.2018  1.3970  0.4127
  826MOL0     H11466   8.267   9.943   6.511 -0.0718 -2.2597 -0.8045
  826MOL0     H11467   8.144  10.036   6.455  0.2404 -1.4348  2.0357
  826MOL0     H11468   8.380  10.150   6.433  1.1415  0.4690 -0.6223
  826MOL0     H11469   8.315  10.135   6.268  1.5667  0.9248 -0.2849
  826MOL0     H11470   8.663  10.156   6.274 -1.5656 -0.7571 -0.7520
  826MOL0     H11471   9.008  10.114   6.413  1.8907  1.7948  0.2460
  826MOL0     H11472   8.905  10.188   6.297  0.8898 -0.7008 -0.0461
  826MOL0     H11473   8.927  10.254   6.467 -0.0270 -0.9371  0.6219
  826MOL0     H11474   9.093  10.226   6.854  0.1456 -0.3908 -2.8934
  826MOL0     H11475   9.321  10.216   6.957 -1.1901 -1.9172  2.9326
  826MOL0     H11476   9.593   9.899   6.796  2.2182  0.1961 -0.9356
  826MOL0     H11477   9.608  10.061   6.712  2.0177 -1.5850 -0.4104
  826MOL0     H11478   9.741  10.120   6.923 -1.0021 -0.5115  0.0023
  826MOL0     H11479   9.718   9.963   6.974  0.7185  1.4473  1.3080
  826MOL0     H11480   9.830   9.912   6.722 -1.2369  1.5180  0.0469
  826MOL0     H11481   9.952   9.963   6.836  0.2092 -1.0073  1.0263
  826MOL0     H11482   9.796  10.150   6.648 -2.4104 -0.7971  1.7870
  826MOL0     H11483   9.942  10.187   6.747 -0.4941 -0.4282 -0.2740
  826MOL0     H11484   9.928   9.972   6.530 -1.7483  0.0515  1.0503
  826MOL0     H11485  10.068  10.026   6.628  1.2809  0.2667 -1.1826
  826MOL0     H11486   9.921  10.187   6.410  1.4228  0.4480 -3.0680
  826MOL0     H11487  10.033  10.256   6.529 -3.4347  1.0973 -0.1472
  826MOL0     H11488  10.157  10.025   6.403 -1.2171  0.0519  0.3310
  826MOL0     H11489  10.207  10.196   6.389  1.4727 -1.8565  0.0700
  826MOL0     H11490  10.185  10.088   6.176 -1.2942 -2.0401 -1.9262
  826MOL0     H11491  10.070  10.217   6.200 -0.5338 -0.6190 -1.9862
  826MOL0     H11492   9.402   9.888   6.710  0.7923 -0.8219  2.2601
  826MOL0     H11493   9.174   9.893   6.621 -0.6820  0.6310  0.0965
  826MOL0     H11494   8.678   9.833   6.655 -1.5978  2.0567  2.6021
  826MOL0     H11495   8.476   9.867   6.519  0.9597 -1.4219  2.0917
  826MOL0     H11496   8.811  10.565   6.408  1.5457 -1.3209 -1.3986
  826MOL0     H11497   9.061  10.507   6.481  1.4646 -1.1144  0.8621
  826MOL0     H11498   9.396  10.554   6.991  0.3599 -1.0866  0.4788
  826MOL0     H11499   9.657  10.543   6.978 -0.7881  2.0651 -0.6126
  826MOL0     H11500   9.825  10.632   6.844 -3.2506 -1.0169  1.4555
  826MOL0     H11501   9.879  10.491   6.937  0.5670  1.4504 -0.0040
  826MOL0     H11502   9.988  10.578   6.664  1.2718 -0.9174 -0.5179
  826MOL0     H11503  10.019  10.422   6.747 -5.2557 -0.8030  0.0263
  826MOL0     H11504  10.072  10.665   6.915  2.2667 -0.1916  0.3929
  826MOL0     H11505  10.170  10.666   6.783 -0.0317  0.4210  1.0739
  826MOL0     H11506  10.296  10.551   6.947  0.1540  1.8852 -1.0422
  826MOL0     H11507  10.248  10.448   6.803 -4.7974  1.3304 -2.2879
  826MOL0     H11508  10.069  10.225   7.125  0.2043 -1.1820 -1.2360
  826MOL0     H11509   9.615  10.311   6.622  0.1083  0.5639 -0.1190
  826MOL0     H11510   9.363  10.336   6.648  0.2325  1.0159 -0.9955
  827MOL0     O11511   1.225   2.011  10.251  0.4063  0.6437 -0.6491
  827MOL0     C11512   1.314   2.070  10.194  0.3524  0.4033  0.7502
  827MOL0     O11513   1.300   2.184  10.124 -0.7791 -0.4916 -0.8130
  827MOL0     C11514   1.172   2.206  10.081  0.0881 -0.6896 -0.5754
  827MOL0     C11515   1.151   2.219   9.939  0.2487  0.1704 -0.3092
  827MOL0     C11516   1.019   2.256   9.893 -0.3953 -0.0148  0.3846
  827MOL0     C11517   0.915   2.287   9.975  0.8208 -0.7681 -0.7048
  827MOL0     O11518   0.796   2.330   9.925  0.6587  0.1113  0.5727
  827MOL0     C11519   0.692   2.227   9.947 -0.0976  0.1744 -0.6173
  827MOL0     C11520   0.578   2.255   9.855 -0.1696 -0.3289 -1.2373
  827MOL0     C11521   0.615   2.268   9.704 -0.2963 -0.0936 -0.1764
  827MOL0     C11522   0.493   2.256   9.616 -0.1716 -0.2538  0.1389
  827MOL0     C11523   0.540   2.278   9.465  0.0558  0.1114  0.0154
  827MOL0     C11524   0.420   2.335   9.380  0.3582 -0.0759  0.5515
  827MOL0     C11525   0.292   2.242   9.366  0.0831  0.1116  1.0149
  827MOL0     C11526   0.186   2.329   9.296  0.0216  0.5283 -0.5127
  827MOL0     N11527   0.071   2.257   9.232  0.4288  0.2155  0.1688
  827MOL0     C11528  -0.049   2.223   9.292 -1.0010 -0.0380  0.7904
  827MOL0     C11529  -0.127   2.183   9.195 -0.3141  0.1965  0.0570
  827MOL0     C11530  -0.276   2.156   9.198 -0.2559 -1.5112  0.0358
  827MOL0     C11531  -0.358   2.225   9.311 -0.0139 -0.6174 -0.2051
  827MOL0     C11532  -0.495   2.162   9.348 -0.0981  0.1029 -0.5978
  827MOL0     C11533  -0.583   2.142   9.221  0.3281 -0.1304  0.0530
  827MOL0     O11534  -0.578   2.266   9.144  0.4555 -0.6592 -0.0273
  827MOL0     C11535  -0.658   2.283   9.029 -0.2016 -0.2119 -0.1661
  827MOL0     C11536  -0.637   2.401   8.957 -1.1410 -0.3950 -0.1299
  827MOL0     C11537  -0.716   2.433   8.855 -0.9585 -1.0752 -1.2015
  827MOL0     C11538  -0.686   2.560   8.794 -0.7359  0.3432 -0.8170
  827MOL0     C11539  -0.818   2.355   8.818 -0.0870 -0.0824  0.3820
  827MOL0     C11540  -0.908   2.389   8.700  0.4821 -0.1797  0.1585
  827MOL0     O11541  -0.953   2.286   8.632  0.2544  0.2107 -0.5671
  827MOL0     C11542  -1.059   2.286   8.543 -0.9941 -0.4308 -0.2478
  827MOL0     C11543  -1.135   2.398   8.504 -0.1984  0.5197  0.4569
  827MOL0     C11544  -1.207   2.404   8.385 -0.3398  0.3862  0.2438
  827MOL0     C11545  -1.202   2.292   8.304  1.5441 -0.3539  0.6950
  827MOL0     O11546  -1.281   2.299   8.193 -0.5848  0.1894 -0.1066
  827MOL0     C11547  -1.262   2.211   8.084  0.1765 -0.4672  0.8240
  827MOL0     C11548  -1.357   2.259   7.982  0.0456  0.2753 -0.5692
  827MOL0     C11549  -1.365   2.163   7.864 -0.3356 -1.1240  0.2001
  827MOL0     C11550  -1.502   2.118   7.837  0.8565  0.4085  0.0368
  827MOL0     C11551  -1.510   2.043   7.704 -0.3739  0.2242 -0.8685
  827MOL0     C11552  -1.656   2.005   7.671  0.4774 -0.3609 -0.6942
  827MOL0     C11553  -1.726   1.895   7.757 -0.2616  0.6418 -0.6714
  827MOL0     C11554  -1.806   1.804   7.667  0.1000 -0.6705 -0.3267
  827MOL0    Cl11555  -1.853   1.654   7.762  0.2043  0.1858 -0.0312
  827MOL0     C11556  -1.126   2.171   8.342  0.9738 -0.4614  0.6342
  827MOL0     C11557  -1.059   2.177   8.457 -0.2275 -0.0147 -0.5904
  827MOL0     O11558  -0.947   2.501   8.693 -0.2514 -0.0503  0.0002
  827MOL0     C11559  -0.841   2.234   8.885  0.0054 -0.0168  0.6951
  827MOL0     C11560  -0.760   2.201   8.994  0.5253 -1.1419  0.2429
  827MOL0     N11561  -0.043   2.175   9.077 -0.7134  0.5781  0.5653
  827MOL0     N11562   0.077   2.216   9.105  0.9625 -0.5671  0.1466
  827MOL0     C11563   0.937   2.280  10.116 -0.3050 -0.3860  1.6649
  827MOL0     C11564   1.066   2.247  10.163  0.1629  0.4737  0.0908
  827MOL0     C11565   1.445   1.995  10.197 -0.2692 -0.2822 -0.2529
  827MOL0     C11566   1.458   1.881  10.274  0.5526  0.9424 -0.4173
  827MOL0     C11567   1.576   1.816  10.267 -0.2784 -0.6314  0.3245
  827MOL0     C11568   1.682   1.864  10.192 -0.0737 -0.2542 -1.0067
  827MOL0     O11569   1.793   1.788  10.171 -0.1890  0.0272  0.3700
  827MOL0     C11570   1.819   1.672  10.253 -0.2676  0.0509  0.7596
  827MOL0     C11571   1.956   1.604  10.222  0.5006 -0.2219  0.6706
  827MOL0     C11572   1.926   1.500  10.115 -0.2491  0.5378  0.0723
  827MOL0     C11573   2.042   1.491  10.009  0.0991 -0.3051  0.5755
  827MOL0     C11574   2.029   1.379   9.920 -0.3946  0.2891  0.0749
  827MOL0     C11575   2.007   1.290   9.843  0.5252  0.7562  1.0253
  827MOL0     C11576   1.663   1.978  10.112 -0.3397  0.1066  0.5912
  827MOL0     C11577   1.548   2.044  10.127 -0.4210 -0.1730  0.5667
  827MOL0     H11578   1.238   2.197   9.879  1.7270  0.3998  1.6471
  827MOL0     H11579   1.008   2.259   9.785  3.0998 -0.0386 -0.0953
  827MOL0     H11580   0.741   2.133   9.920  3.3828  1.6407  0.0488
  827MOL0     H11581   0.654   2.230  10.050 -0.4782 -3.2896 -0.5410
  827MOL0     H11582   0.506   2.175   9.870  0.3874 -0.5816  0.2502
  827MOL0     H11583   0.530   2.345   9.893  2.2981  0.1595  1.0264
  827MOL0     H11584   0.635   2.376   9.701 -4.5679  0.8935  0.7898
  827MOL0     H11585   0.697   2.203   9.672 -0.0656  0.3851 -0.5859
  827MOL0     H11586   0.466   2.151   9.630  0.9732 -0.3241  2.1245
  827MOL0     H11587   0.403   2.311   9.644 -1.1206 -1.5925 -0.1773
  827MOL0     H11588   0.625   2.345   9.474  2.2026 -2.6914  2.4120
  827MOL0     H11589   0.576   2.186   9.417  0.8441 -0.1420  1.0886
  827MOL0     H11590   0.389   2.423   9.438  1.4545  0.3000  0.5836
  827MOL0     H11591   0.455   2.375   9.285  3.0184  1.6896  2.1429
  827MOL0     H11592   0.305   2.158   9.296  1.4436  0.5013  0.7662
  827MOL0     H11593   0.255   2.217   9.465  3.0216 -0.2956  2.1229
  827MOL0     H11594   0.230   2.391   9.218 -0.2831  0.2984 -0.8713
  827MOL0     H11595   0.148   2.398   9.372 -0.1290 -0.1428  0.0366
  827MOL0     H11596  -0.071   2.240   9.397  1.3870  0.0136  1.3318
  827MOL0     H11597  -0.312   2.183   9.098  4.1621  0.4122 -1.3272
  827MOL0     H11598  -0.286   2.049   9.214 -0.6483 -1.7976 -1.8768
  827MOL0     H11599  -0.374   2.332   9.301  0.0348 -0.5383  0.5567
  827MOL0     H11600  -0.298   2.229   9.402 -1.0681  3.8709  0.5291
  827MOL0     H11601  -0.552   2.212   9.426  0.0043  1.8640 -1.5906
  827MOL0     H11602  -0.467   2.064   9.387  0.2122  0.4673  0.1224
  827MOL0     H11603  -0.683   2.113   9.254  0.6334  1.2635  2.4859
  827MOL0     H11604  -0.533   2.062   9.166 -1.2615 -0.6617 -0.6864
  827MOL0     H11605  -0.554   2.460   8.994  0.3039 -3.2549  1.5317
  827MOL0     H11606  -0.588   2.598   8.825  1.1051 -2.5926 -2.6129
  827MOL0     H11607  -0.677   2.558   8.685 -3.0694  0.8561 -1.0681
  827MOL0     H11608  -0.765   2.633   8.811  0.3141  1.9848 -2.6351
  827MOL0     H11609  -1.137   2.484   8.570  2.7552  0.0107  1.3666
  827MOL0     H11610  -1.267   2.487   8.348  0.8111  0.8436 -0.6594
  827MOL0     H11611  -1.157   2.212   8.053 -0.0499  2.4132 -0.1596
  827MOL0     H11612  -1.276   2.106   8.111 -1.7268 -1.6783 -3.8138
  827MOL0     H11613  -1.452   2.283   8.030  0.8088 -3.0208  3.0700
  827MOL0     H11614  -1.315   2.349   7.934  0.4065 -0.5678 -1.8685
  827MOL0     H11615  -1.301   2.074   7.869 -0.0054 -1.0772 -2.2232
  827MOL0     H11616  -1.334   2.217   7.774  3.5838 -1.5959  1.0433
  827MOL0     H11617  -1.543   2.061   7.921 -1.7057  3.2483  0.9202
  827MOL0     H11618  -1.576   2.199   7.839  1.1447  0.7253  3.3832
  827MOL0     H11619  -1.445   1.955   7.706 -0.0938  0.4174  1.9050
  827MOL0     H11620  -1.472   2.103   7.621  1.4094 -0.8286 -0.8672
  827MOL0     H11621  -1.716   2.096   7.673 -2.2674 -2.0817 -0.0074
  827MOL0     H11622  -1.650   1.973   7.566 -0.9371 -2.2896 -0.2376
  827MOL0     H11623  -1.794   1.940   7.830 -2.0687 -0.5603 -1.5345
  827MOL0     H11624  -1.650   1.831   7.803 -3.4591 -4.0915 -1.2157
  827MOL0     H11625  -1.737   1.767   7.590 -1.5459 -1.0680 -1.6892
  827MOL0     H11626  -1.885   1.859   7.615 -0.8186 -2.0678 -0.4719
  827MOL0     H11627  -1.136   2.077   8.289  1.2870 -0.0781 -0.1224
  827MOL0     H11628  -1.002   2.087   8.478  0.1899  1.1323  4.4460
  827MOL0     H11629  -0.929   2.175   8.861 -2.4796  2.6549  2.4899
  827MOL0     H11630  -0.789   2.112   9.049 -0.0091 -0.0291  1.8254
  827MOL0     H11631   0.857   2.298  10.187  0.6683  1.8660  2.2830
  827MOL0     H11632   1.075   2.237  10.271 -0.4462 -1.5990 -0.0103
  827MOL0     H11633   1.378   1.849  10.340 -0.6484 -0.7049 -2.5345
  827MOL0     H11634   1.571   1.719  10.316  0.3849 -0.2557  1.1642
  827MOL0     H11635   1.824   1.702  10.358  0.0833  0.3980  0.6472
  827MOL0     H11636   1.736   1.601  10.250 -1.1693  0.9915  2.1039
  827MOL0     H11637   2.004   1.549  10.303 -0.2450  0.1997  1.4166
  827MOL0     H11638   2.035   1.676  10.197  1.4515 -1.2727  0.5979
  827MOL0     H11639   1.836   1.519  10.055 -0.2009 -0.7086 -0.4364
  827MOL0     H11640   1.900   1.403  10.161 -3.1893  1.2171  0.0669
  827MOL0     H11641   2.129   1.456  10.066 -0.3924 -1.4639  0.6427
  827MOL0     H11642   2.048   1.583   9.950 -0.9263 -2.2264 -2.7810
  827MOL0     H11643   2.003   1.206   9.777  2.8332  0.2894  1.3742
  827MOL0     H11644   1.741   2.024  10.052 -2.0042  1.3688 -0.7249
  827MOL0     H11645   1.543   2.139  10.074  2.7863 -0.3230 -0.2566
  828MOL0     O11646   6.900   4.316   6.710  0.3333  0.8276 -0.7391
  828MOL0     C11647   6.840   4.384   6.793 -0.6040  0.0791 -0.1614
  828MOL0     O11648   6.885   4.505   6.842  0.3442 -0.2357  0.7877
  828MOL0     C11649   7.013   4.548   6.810 -0.4593  1.0678 -0.2164
  828MOL0     C11650   7.132   4.523   6.884 -0.8587  0.4622 -0.4678
  828MOL0     C11651   7.249   4.580   6.844 -0.3686  0.1041  0.4029
  828MOL0     C11652   7.262   4.660   6.733 -0.1011 -0.5799  0.2022
  828MOL0     O11653   7.390   4.707   6.706  0.6472  0.0848 -0.0099
  828MOL0     C11654   7.401   4.794   6.595 -0.6819  0.1624 -0.7226
  828MOL0     C11655   7.510   4.896   6.631  0.3054  0.3448  0.1165
  828MOL0     C11656   7.647   4.836   6.649  0.1597 -0.2835 -0.1882
  828MOL0     C11657   7.767   4.925   6.615 -0.1292  0.4973 -0.6444
  828MOL0     C11658   7.908   4.877   6.657  0.6274 -0.0057  0.8864
  828MOL0     C11659   8.011   4.971   6.596  0.7711  0.6817  0.3896
  828MOL0     C11660   8.151   4.937   6.646  0.0198  0.0430  0.2132
  828MOL0     C11661   8.251   5.020   6.566  0.7729  1.0020  0.0553
  828MOL0     N11662   8.388   5.003   6.607  0.2743 -0.3562  0.1396
  828MOL0     C11663   8.475   4.899   6.587 -0.3322  0.3063  0.0455
  828MOL0     C11664   8.578   4.930   6.672 -0.3695  0.8881 -0.1992
  828MOL0     C11665   8.711   4.852   6.678 -0.5192  0.2290 -0.2656
  828MOL0     C11666   8.709   4.736   6.789  0.1446 -0.4154  0.3430
  828MOL0     C11667   8.844   4.690   6.813 -0.1050  0.8419 -0.5467
  828MOL0     C11668   8.906   4.602   6.704 -0.7670 -0.0592 -0.6291
  828MOL0     O11669   8.827   4.477   6.674  0.2053  0.0715 -0.1536
  828MOL0     C11670   8.884   4.382   6.594 -0.0041  0.2925  0.8796
  828MOL0     C11671   8.798   4.275   6.554 -0.5926  0.6304  0.7178
  828MOL0     C11672   8.840   4.170   6.475  0.7383  0.6466 -0.4829
  828MOL0     C11673   8.737   4.058   6.442 -0.4018  0.4124  0.0583
  828MOL0     C11674   8.973   4.159   6.413  1.2712 -0.4804 -0.3504
  828MOL0     C11675   9.023   4.047   6.323  0.2021 -0.2303  0.9165
  828MOL0     O11676   9.152   4.013   6.330 -0.7938  0.2220  0.0885
  828MOL0     C11677   9.201   3.903   6.261  0.9289  0.4640 -0.0228
  828MOL0     C11678   9.331   3.908   6.220 -1.6650  0.5418  0.0127
  828MOL0     C11679   9.390   3.796   6.163  0.1704  0.7917  0.3226
  828MOL0     C11680   9.318   3.683   6.130  0.0425  0.2622  0.3943
  828MOL0     O11681   9.348   3.569   6.062  0.4113  0.2370  0.2530
  828MOL0     C11682   9.487   3.558   6.031  0.4969  0.1807 -0.1777
  828MOL0     C11683   9.534   3.420   5.995  0.4768 -0.1160 -0.6232
  828MOL0     C11684   9.683   3.430   5.976  0.7714 -0.1457  0.0462
  828MOL0     C11685   9.747   3.293   5.951 -0.4555 -0.3773 -0.5881
  828MOL0     C11686   9.899   3.314   5.924  0.3126 -0.0455  0.4540
  828MOL0     C11687   9.966   3.180   5.885  0.4529  0.4792  0.2488
  828MOL0     C11688  10.117   3.182   5.894 -0.1434 -0.2184  0.0241
  828MOL0     C11689  10.173   3.164   6.037  0.2071 -0.2773  0.5010
  828MOL0    Cl11690  10.147   2.992   6.073  0.0473 -0.1287  0.0978
  828MOL0     C11691   9.181   3.688   6.169  0.0647  0.4238  0.8613
  828MOL0     C11692   9.123   3.790   6.235  0.1946 -0.2849 -0.4989
  828MOL0     O11693   8.946   4.012   6.235  0.0956 -0.1028 -0.0491
  828MOL0     C11694   9.047   4.277   6.444  0.1706 -0.2848 -0.5123
  828MOL0     C11695   9.009   4.382   6.529 -0.2070 -0.3808  0.9497
  828MOL0     N11696   8.554   5.051   6.730 -0.8082 -0.0673  0.4430
  828MOL0     N11697   8.435   5.086   6.704 -0.6572  0.4836  0.9099
  828MOL0     C11698   7.152   4.683   6.658  0.4067  0.6158  0.0917
  828MOL0     C11699   7.024   4.629   6.694 -0.2812  0.3741 -0.7858
  828MOL0     C11700   6.695   4.343   6.834 -0.4457 -0.2111  0.4621
  828MOL0     C11701   6.631   4.409   6.941  0.0119  0.0444  0.7982
  828MOL0     C11702   6.505   4.378   6.974  0.3436  0.2005  0.1185
  828MOL0     C11703   6.432   4.284   6.901 -0.6344  0.2164  0.4012
  828MOL0     O11704   6.300   4.287   6.940  0.0046  0.8342  0.1105
  828MOL0     C11705   6.203   4.203   6.876 -0.2940 -0.2589  0.5545
  828MOL0     C11706   6.053   4.242   6.904  0.1532  0.3321  0.0425
  828MOL0     C11707   6.030   4.232   7.057 -0.3959 -0.6903  0.5671
  828MOL0     C11708   5.880   4.219   7.089  0.6522 -0.4086  0.0337
  828MOL0     C11709   5.800   4.318   7.017 -0.0723 -1.0183 -0.5186
  828MOL0     C11710   5.743   4.408   6.960 -0.1923  0.3933 -0.2943
  828MOL0     C11711   6.494   4.214   6.793 -1.4100  0.0376 -0.2849
  828MOL0     C11712   6.628   4.242   6.761 -0.5311 -0.5167 -0.4816
  828MOL0     H11713   7.125   4.469   6.978 -1.4268 -0.2010 -0.8881
  828MOL0     H11714   7.337   4.558   6.904 -0.7506 -1.3590  0.4769
  828MOL0     H11715   7.427   4.739   6.504  1.6852  1.3983 -0.8702
  828MOL0     H11716   7.312   4.858   6.589 -1.0407 -0.2619 -0.0265
  828MOL0     H11717   7.520   4.973   6.554  1.8688 -0.8474 -0.9455
  828MOL0     H11718   7.473   4.941   6.723 -2.2778 -0.8649 -0.2331
  828MOL0     H11719   7.646   4.794   6.750 -0.2364 -1.9369 -0.8411
  828MOL0     H11720   7.648   4.745   6.587  0.6945 -0.9054  0.7104
  828MOL0     H11721   7.775   4.940   6.507  2.8143 -2.1995 -0.9619
  828MOL0     H11722   7.751   5.025   6.656  1.8691  0.1555  1.1188
  828MOL0     H11723   7.917   4.869   6.766  3.6354 -0.0329  0.7192
  828MOL0     H11724   7.921   4.776   6.618 -0.4339  0.8515 -1.9208
  828MOL0     H11725   7.998   4.980   6.488  0.5016 -1.9140  0.1248
  828MOL0     H11726   7.997   5.071   6.637 -0.4540 -0.1705  2.1619
  828MOL0     H11727   8.153   4.967   6.751  2.2871  0.4735  0.0961
  828MOL0     H11728   8.183   4.832   6.641  1.7082  0.5190  0.3965
  828MOL0     H11729   8.231   5.126   6.583 -0.4767  0.3106  3.6938
  828MOL0     H11730   8.243   4.995   6.460  1.6614  0.0679  0.1904
  828MOL0     H11731   8.459   4.824   6.511  2.4264  2.0663 -2.5198
  828MOL0     H11732   8.725   4.815   6.576  1.3430  2.0972 -0.7492
  828MOL0     H11733   8.796   4.919   6.698  0.4758 -0.7006 -1.2166
  828MOL0     H11734   8.645   4.653   6.760  1.8491 -1.5633 -0.3464
  828MOL0     H11735   8.679   4.778   6.885  3.2087  3.3774 -0.1230
  828MOL0     H11736   8.843   4.642   6.911 -2.0203  2.2649  0.1946
  828MOL0     H11737   8.913   4.775   6.818  1.3976 -0.4135  2.0927
  828MOL0     H11738   9.004   4.577   6.744 -0.7556  2.7674  1.4352
  828MOL0     H11739   8.928   4.668   6.619  1.4941  1.8448  1.2789
  828MOL0     H11740   8.693   4.282   6.581 -0.6243 -0.6714  0.9534
  828MOL0     H11741   8.787   3.960   6.439  0.1834  0.7121 -0.2159
  828MOL0     H11742   8.670   4.062   6.528  1.8123 -1.1040  1.9957
  828MOL0     H11743   8.677   4.086   6.355 -1.0365  2.2755  1.0362
  828MOL0     H11744   9.404   3.984   6.245  0.7201 -1.3946 -0.7663
  828MOL0     H11745   9.496   3.801   6.139  0.4317 -1.2917  0.8685
  828MOL0     H11746   9.524   3.628   5.956  0.2820 -0.9433 -1.3712
  828MOL0     H11747   9.529   3.583   6.129  0.0171  0.7038 -0.0964
  828MOL0     H11748   9.512   3.354   6.079  0.3916 -1.8465 -1.9610
  828MOL0     H11749   9.487   3.383   5.904  0.4661  2.1440 -1.6144
  828MOL0     H11750   9.731   3.461   6.069  1.8144  2.3376 -1.2194
  828MOL0     H11751   9.702   3.501   5.894 -1.1087 -2.2563 -2.4125
  828MOL0     H11752   9.744   3.225   6.036 -0.5480 -0.3106 -0.5379
  828MOL0     H11753   9.708   3.240   5.864 -0.9059 -2.3063  0.7403
  828MOL0     H11754   9.948   3.352   6.014  1.4341 -1.6366  0.5539
  828MOL0     H11755   9.914   3.376   5.836  0.1009 -1.1293 -0.3718
  828MOL0     H11756   9.921   3.100   5.945  2.3409  0.2857  1.4702
  828MOL0     H11757   9.933   3.167   5.782  1.5265 -3.2117  0.2274
  828MOL0     H11758  10.147   3.281   5.857  1.5992  0.9172  3.9056
  828MOL0     H11759  10.165   3.106   5.832  2.3145  2.3657 -1.5113
  828MOL0     H11760  10.134   3.228   6.117 -0.9476  0.8988 -0.9293
  828MOL0     H11761  10.278   3.195   6.035  0.2283 -0.3683  0.0140
  828MOL0     H11762   9.119   3.602   6.144 -0.9027  1.2551  0.3046
  828MOL0     H11763   9.024   3.773   6.275  2.2275 -3.3252  4.0430
  828MOL0     H11764   9.147   4.281   6.400 -0.0954 -1.0625 -1.2146
  828MOL0     H11765   9.075   4.463   6.558 -0.6808 -0.7032  3.0554
  828MOL0     H11766   7.168   4.738   6.565  1.3168 -2.9899 -2.0940
  828MOL0     H11767   6.944   4.642   6.622  0.7576  1.1162 -1.8458
  828MOL0     H11768   6.681   4.493   6.991  1.2226  0.0163 -0.3072
  828MOL0     H11769   6.444   4.443   7.036 -3.3049  0.1954 -3.0871
  828MOL0     H11770   6.216   4.205   6.767 -2.8064 -1.0046  0.1725
  828MOL0     H11771   6.224   4.103   6.917  0.2029 -0.3553  0.0837
  828MOL0     H11772   5.988   4.174   6.849  1.0134 -1.1798  0.8240
  828MOL0     H11773   6.028   4.344   6.874 -3.1783 -0.6470 -0.9444
  828MOL0     H11774   6.070   4.327   7.095 -0.6119  0.2053 -1.2983
  828MOL0     H11775   6.079   4.151   7.112  0.4401  1.4785  3.2487
  828MOL0     H11776   5.875   4.237   7.196 -0.0171 -0.7824  0.0749
  828MOL0     H11777   5.838   4.120   7.066 -1.5191  0.7240 -1.2285
  828MOL0     H11778   5.698   4.498   6.924  1.1594  1.9447  1.7194
  828MOL0     H11779   6.447   4.138   6.731  0.8304 -1.9175  0.2599
  828MOL0     H11780   6.672   4.181   6.683  0.8459 -0.4210  0.1914
  829MOL0     O11781  11.342   1.919   9.383 -0.2131  0.1052 -0.1334
  829MOL0     C11782  11.354   1.824   9.462 -0.0967  0.1840 -0.3282
  829MOL0     O11783  11.264   1.728   9.487 -0.1670  0.1751 -0.5940
  829MOL0     C11784  11.138   1.746   9.429 -0.3376  0.0167  0.1330
  829MOL0     C11785  11.124   1.755   9.288 -0.6210  0.4633 -0.2744
  829MOL0     C11786  11.001   1.764   9.221  0.7467 -0.0574 -0.0852
  829MOL0     C11787  10.888   1.783   9.297 -0.4634  0.5614 -0.0903
  829MOL0     O11788  10.758   1.799   9.249 -0.3522  0.2680 -0.1500
  829MOL0     C11789  10.714   1.760   9.116  0.2054 -0.2103 -0.5513
  829MOL0     C11790  10.556   1.793   9.091 -0.1795  0.2429 -0.3395
  829MOL0     C11791  10.464   1.711   9.200  0.2225 -0.8275  0.1526
  829MOL0     C11792  10.452   1.561   9.154 -0.8388  0.0157 -0.5672
  829MOL0     C11793  10.329   1.509   9.231  0.4373  0.1675 -0.6425
  829MOL0     C11794  10.286   1.370   9.189  0.4709 -0.7216 -0.3356
  829MOL0     C11795  10.207   1.289   9.286  0.5668  0.8109  0.1082
  829MOL0     C11796  10.055   1.354   9.282  0.0416 -0.6742  0.9994
  829MOL0     N11797   9.967   1.292   9.381  0.5979  0.2301 -0.2020
  829MOL0     C11798   9.879   1.188   9.352 -0.4545 -0.0317 -0.0532
  829MOL0     C11799   9.837   1.138   9.469 -0.1910  0.2943  0.2281
  829MOL0     C11800   9.731   1.022   9.492 -0.0363 -0.1814  0.2053
  829MOL0     C11801   9.591   1.087   9.504 -0.2008 -0.0354 -0.6753
  829MOL0     C11802   9.482   0.990   9.527 -1.0221  0.0145 -0.3286
  829MOL0     C11803   9.347   1.055   9.569 -0.2444 -0.5608 -0.6814
  829MOL0     O11804   9.360   1.091   9.712 -0.0926 -0.7948  0.3004
  829MOL0     C11805   9.246   1.125   9.785 -0.3055 -0.3733  0.1337
  829MOL0     C11806   9.114   1.094   9.752  0.1394  0.0114 -0.0004
  829MOL0     C11807   9.003   1.150   9.816  1.1879  0.3871  0.0451
  829MOL0     C11808   8.860   1.130   9.755 -0.1832 -0.3648 -1.0191
  829MOL0     C11809   9.020   1.227   9.931 -0.8575  0.0864 -0.0121
  829MOL0     C11810   8.915   1.286  10.027  0.1562  0.4856  0.4030
  829MOL0     O11811   8.964   1.358  10.129 -0.2334 -0.1358 -0.4093
  829MOL0     C11812   8.879   1.454  10.181  0.1983 -1.0950  0.4045
  829MOL0     C11813   8.845   1.452  10.316 -0.5529  0.4812  0.4562
  829MOL0     C11814   8.754   1.547  10.368  0.1397 -0.4852 -0.2784
  829MOL0     C11815   8.701   1.650  10.293  0.8825 -0.3326 -0.1156
  829MOL0     O11816   8.611   1.741  10.352  0.0624 -0.2390 -0.0489
  829MOL0     C11817   8.570   1.856  10.281  0.1862 -0.2852 -0.0892
  829MOL0     C11818   8.452   1.918  10.357 -0.4382 -0.0840 -0.5577
  829MOL0     C11819   8.436   2.055  10.308 -0.0040 -0.0527 -0.2978
  829MOL0     C11820   8.295   2.113  10.347  0.0663 -0.8801 -0.3002
  829MOL0     C11821   8.293   2.264  10.326 -0.9344  0.1847 -0.2858
  829MOL0     C11822   8.153   2.323  10.363 -0.0161  0.0708  0.8046
  829MOL0     C11823   8.138   2.476  10.380  0.0342  0.8857 -0.0686
  829MOL0     C11824   8.260   2.546  10.422  1.0912 -0.0093  0.0030
  829MOL0    Cl11825   8.230   2.712  10.436 -0.1398  0.2525  0.0499
  829MOL0     C11826   8.743   1.656  10.155  0.0218  0.7275 -0.0157
  829MOL0     C11827   8.829   1.559  10.100  0.2042  0.0251  1.1057
  829MOL0     O11828   8.795   1.266  10.000  0.3606  0.1028 -0.7305
  829MOL0     C11829   9.157   1.251   9.971 -1.2080  0.2159  0.1669
  829MOL0     C11830   9.268   1.198   9.901 -0.1494 -0.3017  0.0299
  829MOL0     N11831   9.910   1.201   9.569  0.4058 -0.3596  0.9848
  829MOL0     N11832   9.980   1.297   9.514 -0.7289  1.0113 -0.6777
  829MOL0     C11833  10.898   1.772   9.436  0.0534  0.4660  0.3526
  829MOL0     C11834  11.023   1.739   9.505  0.7849  0.2350  0.0822
  829MOL0     C11835  11.474   1.818   9.544  0.2788 -0.1386  0.1978
  829MOL0     C11836  11.587   1.904   9.513  0.1161 -0.7750 -0.5411
  829MOL0     C11837  11.702   1.903   9.590 -0.3274  0.1079 -0.7718
  829MOL0     C11838  11.718   1.793   9.676 -0.2258  0.0083  0.3566
  829MOL0     O11839  11.846   1.793   9.727 -0.0659  0.0711  0.3370
  829MOL0     C11840  11.893   1.668   9.764 -0.1452  0.2062 -0.1300
  829MOL0     C11841  12.039   1.666   9.788 -1.2956 -0.8660 -0.1595
  829MOL0     C11842  12.076   1.733   9.924 -0.3503  1.5326 -0.0564
  829MOL0     C11843  12.200   1.830   9.915  0.8320 -0.3036  0.2792
  829MOL0     C11844  12.226   1.889  10.046  0.5564  0.2171  0.4027
  829MOL0     C11845  12.249   1.953  10.154 -0.0250  1.1638 -0.2679
  829MOL0     C11846  11.608   1.710   9.713  0.4587 -0.8787 -0.3904
  829MOL0     C11847  11.488   1.720   9.643  0.3562 -0.8855  0.0186
  829MOL0     H11848  11.216   1.740   9.233 -1.6532 -1.9452 -1.4867
  829MOL0     H11849  11.006   1.761   9.113  0.2568  0.4250 -0.1213
  829MOL0     H11850  10.781   1.808   9.044  1.8733 -0.3449  0.8494
  829MOL0     H11851  10.714   1.652   9.102 -3.1445 -0.4537  0.3565
  829MOL0     H11852  10.534   1.900   9.088 -1.5776  0.2208  3.7512
  829MOL0     H11853  10.534   1.767   8.987  1.2621 -1.2196 -0.3293
  829MOL0     H11854  10.502   1.720   9.302  1.5153  0.9214 -0.4328
  829MOL0     H11855  10.367   1.762   9.203  1.7310  2.4059 -1.3070
  829MOL0     H11856  10.445   1.575   9.046 -1.1420  3.6891 -0.2200
  829MOL0     H11857  10.542   1.510   9.188 -1.1431 -1.9589 -2.4819
  829MOL0     H11858  10.356   1.519   9.336 -1.5125 -0.1910 -0.0754
  829MOL0     H11859  10.251   1.583   9.209  1.3195  0.8372 -1.5963
  829MOL0     H11860  10.234   1.383   9.094  4.2364  0.1407 -2.5124
  829MOL0     H11861  10.376   1.314   9.160 -0.6931 -1.5861 -2.4305
  829MOL0     H11862  10.191   1.187   9.248 -2.0260  1.6903 -1.3453
  829MOL0     H11863  10.234   1.294   9.392 -0.5519 -0.4581  0.4818
  829MOL0     H11864  10.021   1.344   9.179  1.8941 -4.6847  0.5925
  829MOL0     H11865  10.051   1.454   9.325 -1.7447 -0.6660  0.8591
  829MOL0     H11866   9.863   1.138   9.258  1.6323 -0.5325 -0.1918
  829MOL0     H11867   9.737   0.948   9.412 -1.1394 -1.4029  1.2153
  829MOL0     H11868   9.764   0.959   9.575  2.4883  0.6691 -0.0727
  829MOL0     H11869   9.577   1.142   9.410 -2.5548 -1.3130 -1.1462
  829MOL0     H11870   9.594   1.151   9.593  0.8317  2.2846 -2.2776
  829MOL0     H11871   9.519   0.913   9.595 -3.0530  1.4284  2.5588
  829MOL0     H11872   9.469   0.930   9.436  1.1953  0.5915 -1.0936
  829MOL0     H11873   9.266   0.986   9.543 -1.7654  1.4218 -1.3904
  829MOL0     H11874   9.340   1.143   9.505 -2.6006  0.2059  0.5369
  829MOL0     H11875   9.095   1.041   9.659 -3.4713 -0.4274  0.8463
  829MOL0     H11876   8.871   1.102   9.650 -2.0670 -1.2834 -1.0092
  829MOL0     H11877   8.803   1.050   9.803 -0.8901  0.4073 -0.5396
  829MOL0     H11878   8.796   1.217   9.772 -2.5099 -1.7214 -2.3054
  829MOL0     H11879   8.889   1.372  10.374 -0.4137  0.6378  0.5668
  829MOL0     H11880   8.707   1.549  10.466  2.1264  0.0882  0.7136
  829MOL0     H11881   8.655   1.924  10.272  1.3793 -1.8243 -0.9386
  829MOL0     H11882   8.533   1.842  10.179 -0.0643 -1.8775  0.1835
  829MOL0     H11883   8.363   1.856  10.340 -0.4359 -0.4714  0.7817
  829MOL0     H11884   8.463   1.917  10.465  0.1827 -2.3046 -0.5931
  829MOL0     H11885   8.452   2.063  10.200 -2.1562 -1.3520 -0.7572
  829MOL0     H11886   8.509   2.122  10.356  0.1369 -0.8789  0.6690
  829MOL0     H11887   8.211   2.080  10.285  1.4451  0.7111 -3.1526
  829MOL0     H11888   8.266   2.085  10.449 -1.4349  0.4617 -0.3077
  829MOL0     H11889   8.312   2.290  10.222  2.2656 -1.1876 -0.1563
  829MOL0     H11890   8.375   2.306  10.386 -0.8380  0.3019 -0.5007
  829MOL0     H11891   8.077   2.275  10.301 -0.6788 -1.2821  2.6056
  829MOL0     H11892   8.132   2.293  10.466  0.5235 -2.2188  0.2976
  829MOL0     H11893   8.063   2.494  10.458  1.1435  3.4679  0.5086
  829MOL0     H11894   8.099   2.511  10.284 -2.4768  1.8882  1.2202
  829MOL0     H11895   8.332   2.530  10.341 -0.9136  0.8173 -2.0805
  829MOL0     H11896   8.290   2.508  10.519 -1.0557 -3.3972 -0.4978
  829MOL0     H11897   8.725   1.745  10.095  1.7067  1.9532  1.2200
  829MOL0     H11898   8.840   1.570   9.993  1.7134 -0.5906  1.1703
  829MOL0     H11899   9.181   1.308  10.060  0.6192 -1.8886  1.1112
  829MOL0     H11900   9.369   1.223   9.934  0.3121 -1.6931 -0.2743
  829MOL0     H11901  10.804   1.795   9.486  0.5254 -0.5618  1.7773
  829MOL0     H11902  11.038   1.732   9.612  0.2193  0.8779  0.2105
  829MOL0     H11903  11.585   1.978   9.433  1.4457 -0.2057 -0.0677
  829MOL0     H11904  11.781   1.977   9.575 -1.5509  1.0463 -3.2663
  829MOL0     H11905  11.836   1.643   9.854  0.9745 -0.9223  0.2993
  829MOL0     H11906  11.866   1.593   9.689  0.9102 -1.4980  1.1350
  829MOL0     H11907  12.083   1.727   9.709  0.0292 -2.6099 -0.8269
  829MOL0     H11908  12.073   1.563   9.771  2.1967  0.0770  0.2583
  829MOL0     H11909  12.099   1.645   9.986 -3.3490  1.4059  1.0384
  829MOL0     H11910  11.989   1.781   9.969 -1.8073 -0.6700 -0.4074
  829MOL0     H11911  12.179   1.911   9.845  0.6312  1.1688  1.9622
  829MOL0     H11912  12.277   1.764   9.875  0.4235 -2.5408  2.8881
  829MOL0     H11913  12.278   2.011  10.239 -0.3617 -0.0725  0.7234
  829MOL0     H11914  11.633   1.637   9.789 -1.7394 -0.6692  0.6130
  829MOL0     H11915  11.421   1.637   9.664  1.7926 -1.8063  1.1726
  830MOL0     O11916   8.362   1.182   7.134 -0.0842  0.0755  1.0785
  830MOL0     C11917   8.424   1.259   7.056 -0.6329 -0.5218  0.5596
  830MOL0     O11918   8.373   1.325   6.939 -0.2069  0.1069  0.2224
  830MOL0     C11919   8.251   1.347   6.896  0.5293  0.7165  0.0990
  830MOL0     C11920   8.249   1.444   6.789 -0.7255  0.1796 -0.0751
  830MOL0     C11921   8.127   1.479   6.733  0.6770  0.4623  0.9517
  830MOL0     C11922   8.009   1.426   6.777 -0.5180  0.1333  0.3980
  830MOL0     O11923   7.897   1.498   6.737 -0.3999  1.1280 -0.1170
  830MOL0     C11924   7.766   1.454   6.780  0.2304 -0.2258 -0.3791
  830MOL0     C11925   7.717   1.549   6.886  0.4103  0.4495  0.0287
  830MOL0     C11926   7.561   1.543   6.908 -0.3195  0.2815 -0.1836
  830MOL0     C11927   7.497   1.678   6.965  0.3134  0.3850 -0.5208
  830MOL0     C11928   7.370   1.645   7.043 -0.6657 -0.8419  0.4412
  830MOL0     C11929   7.282   1.560   6.972 -0.4872 -0.1977 -0.0706
  830MOL0     C11930   7.125   1.580   7.002 -1.2190  0.0119 -0.3273
  830MOL0     C11931   7.083   1.512   7.140  0.0170 -0.2083  0.7569
  830MOL0     N11932   6.946   1.553   7.176 -0.9986 -0.4511 -0.4283
  830MOL0     C11933   6.916   1.623   7.288 -0.3716  0.7694 -0.1536
  830MOL0     C11934   6.783   1.622   7.287  0.3017  0.4750  0.2514
  830MOL0     C11935   6.694   1.695   7.385 -0.7387  0.0751 -0.3221
  830MOL0     C11936   6.617   1.808   7.318  0.0095  0.0170 -0.0278
  830MOL0     C11937   6.506   1.778   7.215  0.5160 -0.0459 -1.2210
  830MOL0     C11938   6.396   1.702   7.277 -0.2092  0.2996 -0.4526
  830MOL0     O11939   6.294   1.691   7.182  0.0016  0.2852  0.0970
  830MOL0     C11940   6.164   1.659   7.226  0.2791 -0.2199 -0.1560
  830MOL0     C11941   6.064   1.686   7.138 -0.3032 -0.0623  0.3219
  830MOL0     C11942   5.928   1.665   7.169 -0.0536 -1.1152 -0.1246
  830MOL0     C11943   5.822   1.709   7.067  0.0095 -0.9976 -0.1393
  830MOL0     C11944   5.889   1.606   7.296  0.0498  1.0868  0.0949
  830MOL0     C11945   5.747   1.580   7.342  0.2351  0.9546  0.1738
  830MOL0     O11946   5.739   1.545   7.476  0.6351  1.0267 -0.2795
  830MOL0     C11947   5.625   1.561   7.550  0.3838  0.7353 -1.3181
  830MOL0     C11948   5.549   1.677   7.545 -0.2901 -0.1333 -0.1125
  830MOL0     C11949   5.424   1.683   7.604 -1.0825 -0.9061 -0.2323
  830MOL0     C11950   5.374   1.589   7.687 -0.1225  0.4088  0.2586
  830MOL0     O11951   5.253   1.609   7.749 -1.0859 -0.4897  0.5209
  830MOL0     C11952   5.234   1.547   7.876  0.3340 -0.2217 -0.3221
  830MOL0     C11953   5.095   1.585   7.937 -0.6015  0.3816  0.3679
  830MOL0     C11954   4.985   1.514   7.858  0.1729  0.3314  0.3544
  830MOL0     C11955   4.854   1.600   7.848 -0.3786 -0.1997 -0.4558
  830MOL0     C11956   4.883   1.737   7.769  0.2158  1.2933  0.0255
  830MOL0     C11957   4.752   1.807   7.749 -0.1866 -0.5061  0.2051
  830MOL0     C11958   4.763   1.947   7.686  1.0105  0.3080 -0.3169
  830MOL0     C11959   4.744   1.950   7.534 -0.1541 -0.2174  0.0678
  830MOL0    Cl11960   4.571   1.937   7.498  0.2808  0.6227 -0.0928
  830MOL0     C11961   5.458   1.474   7.710  0.0161  0.1402  0.1919
  830MOL0     C11962   5.586   1.461   7.643  0.8131  0.4387  0.1432
  830MOL0     O11963   5.656   1.583   7.261  0.0228  0.0465 -0.1483
  830MOL0     C11964   5.992   1.566   7.384  0.0668  0.1157  0.2239
  830MOL0     C11965   6.126   1.591   7.346 -0.2438  0.2672 -0.2379
  830MOL0     N11966   6.736   1.556   7.181  0.1852  0.4640 -0.7823
  830MOL0     N11967   6.831   1.517   7.117 -0.4304 -0.3593  1.8921
  830MOL0     C11968   8.017   1.329   6.879 -0.0848  0.7292 -1.3533
  830MOL0     C11969   8.135   1.281   6.933 -0.7173  0.7617  0.2433
  830MOL0     C11970   8.578   1.256   7.078  0.9103 -0.1490 -0.9033
  830MOL0     C11971   8.663   1.325   6.991 -0.2512  0.1232  0.3570
  830MOL0     C11972   8.807   1.314   7.013 -0.1445 -0.0619 -0.1592
  830MOL0     C11973   8.864   1.231   7.110  0.4829  0.0067  0.8376
  830MOL0     O11974   8.995   1.215   7.115  0.9181 -0.2831 -0.4044
  830MOL0     C11975   9.049   1.119   7.201 -0.8828  1.1703 -0.1828
  830MOL0     C11976   9.189   1.099   7.144 -0.0227 -0.9961 -0.2687
  830MOL0     C11977   9.280   1.024   7.240  0.2439 -0.1006  1.2010
  830MOL0     C11978   9.431   1.024   7.186 -0.0636 -0.1767  0.0244
  830MOL0     C11979   9.491   1.158   7.157  0.1140  0.3323 -1.0041
  830MOL0     C11980   9.548   1.264   7.137  0.2297  0.1954  0.5833
  830MOL0     C11981   8.771   1.162   7.192 -0.1561  0.2889  0.2465
  830MOL0     C11982   8.638   1.178   7.184  0.3345  0.0840  0.4988
  830MOL0     H11983   8.340   1.489   6.749  0.1983 -0.7815  0.8772
  830MOL0     H11984   8.127   1.533   6.639  0.6478  0.4361  0.9368
  830MOL0     H11985   7.699   1.462   6.693  0.4075 -0.7912 -0.5736
  830MOL0     H11986   7.766   1.353   6.819  3.3521  0.0157  0.5035
  830MOL0     H11987   7.762   1.519   6.981 -0.6500 -1.7419 -0.0975
  830MOL0     H11988   7.747   1.654   6.875  2.2954  0.1590  1.8305
  830MOL0     H11989   7.511   1.528   6.811 -1.4804  1.6532  0.1754
  830MOL0     H11990   7.553   1.461   6.981  1.3565  0.1762 -0.0874
  830MOL0     H11991   7.568   1.727   7.032  0.0793  0.6089 -0.4362
  830MOL0     H11992   7.474   1.749   6.885 -2.6527 -1.4066 -1.4050
  830MOL0     H11993   7.380   1.613   7.146 -0.0141  0.3043  0.7470
  830MOL0     H11994   7.322   1.744   7.053  1.9213  0.2585  3.6124
  830MOL0     H11995   7.290   1.583   6.865  2.4793  0.1694  0.1316
  830MOL0     H11996   7.313   1.457   6.990 -0.5166 -0.1997 -0.0313
  830MOL0     H11997   7.090   1.684   7.008  0.4378  0.5380  1.3612
  830MOL0     H11998   7.074   1.531   6.919  1.5812 -0.1915 -2.0603
  830MOL0     H11999   7.159   1.545   7.212  1.5053 -3.5300  0.8707
  830MOL0     H12000   7.093   1.404   7.126  1.2955 -0.0297  0.1544
  830MOL0     H12001   6.987   1.657   7.362 -2.0565  2.0458  0.9223
  830MOL0     H12002   6.626   1.618   7.424 -1.0884  0.8833  0.7293
  830MOL0     H12003   6.754   1.738   7.466 -1.3625 -1.3927  0.9714
  830MOL0     H12004   6.676   1.881   7.261  1.3521  0.7588  2.2007
  830MOL0     H12005   6.575   1.860   7.405 -3.5837  2.1105 -2.7388
  830MOL0     H12006   6.546   1.720   7.131 -2.9078 -2.8068 -1.1708
  830MOL0     H12007   6.464   1.870   7.174 -1.7427 -1.1287 -1.4565
  830MOL0     H12008   6.352   1.734   7.372  0.5330  0.3947 -0.1353
  830MOL0     H12009   6.431   1.600   7.296 -2.1058 -0.5210 -1.0662
  830MOL0     H12010   6.100   1.737   7.050 -0.8430  1.4623  0.9454
  830MOL0     H12011   5.742   1.761   7.122 -2.1195 -1.8231 -2.2553
  830MOL0     H12012   5.869   1.765   6.985  0.7249  0.8329  1.4429
  830MOL0     H12013   5.763   1.623   7.033 -2.7048  0.8539 -0.4990
  830MOL0     H12014   5.585   1.764   7.491 -0.0077 -0.6536 -0.7771
  830MOL0     H12015   5.386   1.785   7.596  2.2791  0.4258 -0.6598
  830MOL0     H12016   5.256   1.440   7.873  0.1254 -0.3943  2.1259
  830MOL0     H12017   5.305   1.592   7.946 -1.4545  1.8192  0.3122
  830MOL0     H12018   5.086   1.549   8.040  1.3194 -1.8606 -0.1594
  830MOL0     H12019   5.080   1.692   7.918  0.1393  1.3054  4.0974
  830MOL0     H12020   4.957   1.423   7.912 -2.6335  0.8268 -0.1327
  830MOL0     H12021   5.028   1.484   7.762 -1.9013  3.6059 -1.7837
  830MOL0     H12022   4.780   1.543   7.791 -0.7024  1.6130 -1.9395
  830MOL0     H12023   4.819   1.621   7.949 -0.6030 -1.9509 -0.1288
  830MOL0     H12024   4.936   1.699   7.681  0.8748 -1.7502  1.5832
  830MOL0     H12025   4.960   1.803   7.808  5.4216 -3.0629 -1.6623
  830MOL0     H12026   4.687   1.744   7.687  1.2957  0.4392 -2.4593
  830MOL0     H12027   4.703   1.808   7.847 -1.9722  2.6242 -0.5696
  830MOL0     H12028   4.868   1.973   7.703  1.2394 -1.6054  1.5618
  830MOL0     H12029   4.703   2.023   7.738 -0.4545  0.7106 -2.4720
  830MOL0     H12030   4.794   1.874   7.474 -0.7496  0.4145 -1.2725
  830MOL0     H12031   4.785   2.046   7.501  1.4583 -1.1712 -0.7912
  830MOL0     H12032   5.429   1.386   7.766  1.8932  0.0943  1.1897
  830MOL0     H12033   5.654   1.377   7.656 -0.4708 -0.3204  2.6171
  830MOL0     H12034   5.995   1.522   7.483  3.8801 -0.8781 -0.1997
  830MOL0     H12035   6.201   1.559   7.418 -0.7794  0.1603  0.2756
  830MOL0     H12036   7.921   1.303   6.924  0.2094  0.2272 -1.0054
  830MOL0     H12037   8.160   1.210   7.011  3.3993  0.9519 -0.6688
  830MOL0     H12038   8.620   1.382   6.909  1.1918  0.5544 -0.1167
  830MOL0     H12039   8.888   1.359   6.956  0.3377 -1.1412 -0.3617
  830MOL0     H12040   9.053   1.158   7.304  2.2295 -1.1354  0.7234
  830MOL0     H12041   8.997   1.023   7.189  1.1158  0.0326 -0.2289
  830MOL0     H12042   9.228   1.200   7.124 -0.4468 -0.0820  2.9321
  830MOL0     H12043   9.161   1.039   7.057 -2.3025  0.8385 -0.8954
  830MOL0     H12044   9.242   0.923   7.258 -4.3353  1.4863  1.8658
  830MOL0     H12045   9.274   1.072   7.339  2.4198 -1.2380  1.9581
  830MOL0     H12046   9.425   0.971   7.090 -2.5295  1.4550 -0.8424
  830MOL0     H12047   9.495   0.969   7.255  1.7459 -0.7135 -1.9914
  830MOL0     H12048   9.611   1.347   7.113  1.7765 -0.3735  2.4799
  830MOL0     H12049   8.806   1.095   7.270 -1.2043 -1.7268 -0.9318
  830MOL0     H12050   8.573   1.134   7.259 -0.2618  0.4342  0.1897
  831MOL0     O12051   4.742  10.365   9.385  0.6390  0.3140 -0.5812
  831MOL0     C12052   4.779  10.466   9.424 -0.1161  0.0524  0.1596
  831MOL0     O12053   4.870  10.545   9.352 -0.3310  0.5269 -0.4020
  831MOL0     C12054   4.918  10.503   9.229 -0.1029 -0.4723 -0.6896
  831MOL0     C12055   4.835  10.496   9.115  0.1024 -0.1159 -0.4465
  831MOL0     C12056   4.886  10.459   8.992 -0.7456 -0.1697 -0.5923
  831MOL0     C12057   5.027  10.445   8.967  0.0692  0.1033  0.1826
  831MOL0     O12058   5.067  10.426   8.833  1.0478  0.4308 -0.7358
  831MOL0     C12059   5.202  10.402   8.811 -0.3256  0.5872 -0.5569
  831MOL0     C12060   5.216  10.369   8.662 -0.6941 -0.2241 -1.3088
  831MOL0     C12061   5.362  10.323   8.631 -0.3616 -0.5720  0.5428
  831MOL0     C12062   5.376  10.280   8.476  0.4797 -0.8895 -0.9493
  831MOL0     C12063   5.507  10.220   8.438 -0.4470 -0.4696  0.1692
  831MOL0     C12064   5.528  10.066   8.476 -0.5988 -0.0231  0.3454
  831MOL0     C12065   5.669  10.008   8.423  0.4667 -0.2768 -0.7283
  831MOL0     C12066   5.783  10.060   8.500 -0.1088  0.7690 -1.2034
  831MOL0     N12067   5.797  10.002   8.637  0.3002 -0.4718  0.3728
  831MOL0     C12068   5.737  10.063   8.745 -0.0241  0.2788  0.0177
  831MOL0     C12069   5.801  10.011   8.852  0.3252  0.2053 -0.0201
  831MOL0     C12070   5.761  10.040   9.001 -0.3917  0.1442  0.5169
  831MOL0     C12071   5.876  10.087   9.088  0.5565 -0.6397  0.1981
  831MOL0     C12072   5.860  10.079   9.248 -0.1385 -0.7974 -0.0179
  831MOL0     C12073   5.885   9.947   9.304 -0.0045  0.6290 -0.1580
  831MOL0     O12074   5.818   9.947   9.427 -0.0436  0.1415 -0.1181
  831MOL0     C12075   5.812   9.822   9.495  0.4569 -0.7893  1.3604
  831MOL0     C12076   5.900   9.721   9.474  0.2810 -0.1051  0.6648
  831MOL0     C12077   5.888   9.598   9.534  0.4426  0.0792  0.5868
  831MOL0     C12078   5.997   9.496   9.494  0.3073  0.0826  0.2257
  831MOL0     C12079   5.773   9.574   9.617  0.9994 -0.5726  0.0479
  831MOL0     C12080   5.730   9.449   9.684 -1.0052 -0.7253  0.5674
  831MOL0     O12081   5.601   9.424   9.702 -0.4080  0.0071 -0.3758
  831MOL0     C12082   5.546   9.310   9.753  0.0426 -1.0134  0.3146
  831MOL0     C12083   5.611   9.190   9.786  0.1986  0.0905 -0.2222
  831MOL0     C12084   5.527   9.071   9.819  0.5734 -0.6047 -0.3171
  831MOL0     C12085   5.389   9.073   9.832  0.1972  0.2907  0.7711
  831MOL0     O12086   5.312   8.970   9.866  0.9606 -0.0052 -0.2925
  831MOL0     C12087   5.379   8.871   9.949  0.3833  0.4048 -0.6087
  831MOL0     C12088   5.276   8.790  10.038 -0.7473 -0.3589 -0.4977
  831MOL0     C12089   5.178   8.705   9.957 -0.1547  0.7461  1.0844
  831MOL0     C12090   5.089   8.605  10.030  0.0450  0.0201  0.4694
  831MOL0     C12091   4.955   8.585   9.935  0.0351  0.0621 -0.9500
  831MOL0     C12092   5.003   8.546   9.794 -0.4026  0.8417  0.1045
  831MOL0     C12093   4.893   8.460   9.730 -0.0516  0.4212 -1.0580
  831MOL0     C12094   4.920   8.421   9.583  0.0351 -0.1004 -0.3487
  831MOL0    Cl12095   4.777   8.316   9.533 -0.0650 -0.4216  0.1795
  831MOL0     C12096   5.331   9.193   9.787  0.5415 -0.2796  0.5160
  831MOL0     C12097   5.408   9.311   9.762 -0.1373  0.0321 -0.4813
  831MOL0     O12098   5.819   9.369   9.714 -0.5150  0.0407 -0.5476
  831MOL0     C12099   5.690   9.684   9.646 -0.0712 -0.8204  0.1016
  831MOL0     C12100   5.710   9.806   9.588  0.6486 -0.1339 -0.5134
  831MOL0     N12101   5.886   9.910   8.816 -1.0439  0.2878  0.4058
  831MOL0     N12102   5.889   9.916   8.686  0.1963 -0.6448 -0.2939
  831MOL0     C12103   5.110  10.457   9.087 -0.0897  0.7182  0.0211
  831MOL0     C12104   5.056  10.473   9.214 -0.6572 -0.9053  0.4415
  831MOL0     C12105   4.711  10.530   9.540 -0.5364  0.4124 -0.1657
  831MOL0     C12106   4.625  10.450   9.618 -0.7843  0.2444 -0.9210
  831MOL0     C12107   4.565  10.504   9.734 -0.5070  0.9521  0.0507
  831MOL0     C12108   4.581  10.645   9.761 -0.4433 -0.8327  0.1264
  831MOL0     O12109   4.525  10.724   9.858 -0.1639 -0.1581  0.1483
  831MOL0     C12110   4.406  10.683   9.928 -0.9833 -0.3291  0.2167
  831MOL0     C12111   4.345  10.819   9.982 -0.5938  0.1101  0.3806
  831MOL0     C12112   4.204  10.794  10.057  0.5707 -0.4127 -0.1317
  831MOL0     C12113   4.195  10.687  10.164  0.3388  1.3068  1.5047
  831MOL0     C12114   4.306  10.685  10.255 -0.0194  0.0368 -0.5315
  831MOL0     C12115   4.398  10.701  10.335  0.1966 -0.0881 -0.4248
  831MOL0     C12116   4.681  10.712   9.685 -0.3214 -1.0830 -0.4428
  831MOL0     C12117   4.740  10.657   9.580  0.1747  0.7488  0.4413
  831MOL0     H12118   4.728  10.511   9.120 -0.2071 -2.2276  0.3823
  831MOL0     H12119   4.830  10.465   8.900  1.5176  2.1135 -1.9340
  831MOL0     H12120   5.262  10.486   8.847 -1.3358  0.2809  2.0647
  831MOL0     H12121   5.237  10.313   8.864 -1.1116  0.6366  0.0710
  831MOL0     H12122   5.146  10.290   8.635  0.1077 -0.5013 -2.7169
  831MOL0     H12123   5.187  10.459   8.606  1.7998  1.3282 -0.2747
  831MOL0     H12124   5.433  10.402   8.658  0.3826 -1.4776  1.3301
  831MOL0     H12125   5.378  10.227   8.683  2.3170 -0.1946  0.5583
  831MOL0     H12126   5.294  10.211   8.453  1.0524 -1.4189 -1.4363
  831MOL0     H12127   5.362  10.368   8.413 -0.1570 -1.8943 -2.2565
  831MOL0     H12128   5.486  10.212   8.331 -1.1846 -2.7424  0.4329
  831MOL0     H12129   5.597  10.276   8.464  0.6483 -1.8930 -0.4153
  831MOL0     H12130   5.526  10.051   8.585  0.3597  0.8628  0.5050
  831MOL0     H12131   5.440  10.019   8.432 -1.1328  0.9964  0.2863
  831MOL0     H12132   5.661   9.899   8.422 -0.1817 -0.2300 -1.5162
  831MOL0     H12133   5.673  10.052   8.323 -0.7920  0.8213 -0.3264
  831MOL0     H12134   5.777  10.166   8.524 -0.1432  0.2505  1.3826
  831MOL0     H12135   5.883  10.051   8.455  0.3615  1.4139 -0.3069
  831MOL0     H12136   5.651  10.130   8.738 -1.6629 -1.2447  3.2117
  831MOL0     H12137   5.678  10.110   9.001 -0.6488  0.1647 -4.0432
  831MOL0     H12138   5.727   9.940   9.032  3.3078 -1.3146  0.3573
  831MOL0     H12139   5.895  10.190   9.057 -1.4626  0.3242  1.9329
  831MOL0     H12140   5.961  10.024   9.060 -2.6366 -3.7942 -3.6761
  831MOL0     H12141   5.765  10.126   9.273 -0.1804 -1.3326  0.8741
  831MOL0     H12142   5.943  10.139   9.287 -0.0651  0.8225 -2.4572
  831MOL0     H12143   5.990   9.924   9.324 -0.4476  0.9106  3.1060
  831MOL0     H12144   5.834   9.870   9.245 -2.1214  1.4463  0.5124
  831MOL0     H12145   5.979   9.738   9.401  0.7746 -4.4729 -0.0774
  831MOL0     H12146   6.086   9.527   9.438  1.2879  0.1953  1.7705
  831MOL0     H12147   6.044   9.453   9.584  2.6118  2.0855  0.1004
  831MOL0     H12148   5.944   9.410   9.452 -0.0792  1.0661 -1.3425
  831MOL0     H12149   5.717   9.168   9.774  0.0835 -0.0910 -0.9742
  831MOL0     H12150   5.583   8.978   9.826 -0.3421 -1.1478  0.0420
  831MOL0     H12151   5.436   8.798   9.891 -0.1462  0.2668 -0.9566
  831MOL0     H12152   5.450   8.912  10.022 -2.9249  0.5198  2.8888
  831MOL0     H12153   5.341   8.721  10.092 -0.7030  0.6144  0.7359
  831MOL0     H12154   5.229   8.859  10.108 -0.2325 -1.2677  0.7945
  831MOL0     H12155   5.241   8.660   9.879 -0.1458  3.9265 -0.9316
  831MOL0     H12156   5.123   8.781   9.901 -1.2169 -0.8118 -0.0743
  831MOL0     H12157   5.140   8.510  10.051  2.6672  0.7637 -1.9005
  831MOL0     H12158   5.057   8.659  10.119  4.0984  3.2434  0.2916
  831MOL0     H12159   4.890   8.673   9.937 -0.0152  0.2268 -4.5570
  831MOL0     H12160   4.893   8.500   9.966 -0.0514 -0.0245 -1.3506
  831MOL0     H12161   5.029   8.634   9.736  1.8656  0.7733  0.9128
  831MOL0     H12162   5.097   8.491   9.807 -0.7883 -0.5102 -2.1937
  831MOL0     H12163   4.797   8.509   9.747 -0.3937 -0.5193 -0.1311
  831MOL0     H12164   4.893   8.362   9.780 -1.2722  1.4181  1.0038
  831MOL0     H12165   5.017   8.372   9.575  1.4537  2.3737  0.8183
  831MOL0     H12166   4.923   8.509   9.519  2.6330  2.0553  2.4679
  831MOL0     H12167   5.225   9.210   9.774  0.2467 -3.1148 -1.5874
  831MOL0     H12168   5.365   9.410   9.749 -0.4852  0.1514  1.3120
  831MOL0     H12169   5.606   9.674   9.714 -0.5169 -0.1152 -0.3347
  831MOL0     H12170   5.653   9.891   9.624  1.6959  0.8387 -1.1195
  831MOL0     H12171   5.217  10.475   9.078 -0.4273  2.3938 -1.4389
  831MOL0     H12172   5.114  10.485   9.305  0.8106  3.3531 -0.7982
  831MOL0     H12173   4.601  10.348   9.588 -2.5536 -0.0484  1.2720
  831MOL0     H12174   4.499  10.438   9.788  3.3533 -1.9822  1.6389
  831MOL0     H12175   4.331  10.649   9.855  0.9112  0.1581 -2.0757
  831MOL0     H12176   4.428  10.613  10.009  1.3947 -0.7512 -0.7071
  831MOL0     H12177   4.337  10.881   9.893  0.1374 -2.6933 -1.7764
  831MOL0     H12178   4.418  10.862  10.051  1.1260 -2.9266  0.6794
  831MOL0     H12179   4.123  10.793   9.984 -0.5741  0.3665  1.0738
  831MOL0     H12180   4.180  10.879  10.122  1.4473 -1.9293  2.3064
  831MOL0     H12181   4.199  10.592  10.109 -2.2436  2.2081 -0.4498
  831MOL0     H12182   4.101  10.689  10.219 -0.5876  1.9303 -0.0330
  831MOL0     H12183   4.494  10.705  10.382 -0.9418  1.8022  1.9428
  831MOL0     H12184   4.719  10.812   9.699 -1.9238 -0.3114 -1.3269
  831MOL0     H12185   4.816  10.711   9.525  0.9131  1.0702  1.7273
  832MOL0     O12186   4.033   8.275   7.975  0.3107 -0.6617 -0.4017
  832MOL0     C12187   4.033   8.172   8.038 -0.4564  1.4248  0.2548
  832MOL0     O12188   3.927   8.122   8.106  0.1773 -0.0963  0.5834
  832MOL0     C12189   3.804   8.182   8.094  0.3501 -0.3507 -0.5669
  832MOL0     C12190   3.780   8.303   8.151 -0.5379  0.4105  0.1603
  832MOL0     C12191   3.655   8.367   8.139  0.0549 -0.0107 -0.9927
  832MOL0     C12192   3.544   8.302   8.087  0.2121 -0.3443 -0.0061
  832MOL0     O12193   3.416   8.362   8.091 -0.6127 -0.2992 -0.1136
  832MOL0     C12194   3.393   8.463   8.189  0.0185 -0.8625 -0.6042
  832MOL0     C12195   3.258   8.524   8.179  0.0320 -0.9723  0.0140
  832MOL0     C12196   3.150   8.430   8.132  0.4221 -0.1976  0.4987
  832MOL0     C12197   3.026   8.491   8.077  0.1463 -0.7481 -0.3739
  832MOL0     C12198   2.951   8.591   8.171  0.2337  0.0182 -0.6663
  832MOL0     C12199   2.803   8.592   8.124  0.3588  0.3002 -0.1629
  832MOL0     C12200   2.714   8.699   8.188  0.1096  0.3424  0.1851
  832MOL0     C12201   2.692   8.672   8.339 -0.2429  0.3013  0.2888
  832MOL0     N12202   2.622   8.538   8.368 -0.1732 -0.2464  0.6924
  832MOL0     C12203   2.512   8.488   8.301 -0.7150  0.4001 -0.4011
  832MOL0     C12204   2.487   8.370   8.359 -0.3965  0.3707  1.0623
  832MOL0     C12205   2.374   8.289   8.309  0.6113  0.4555  0.3482
  832MOL0     C12206   2.244   8.355   8.346  0.4480  0.2455  0.5949
  832MOL0     C12207   2.146   8.241   8.390 -0.0821 -0.4278 -0.0224
  832MOL0     C12208   2.007   8.302   8.424 -0.3067  0.7229 -0.1549
  832MOL0     O12209   1.925   8.312   8.303  0.2905 -0.7850  0.1303
  832MOL0     C12210   1.813   8.389   8.306  0.0435  0.0558 -0.3889
  832MOL0     C12211   1.778   8.456   8.202 -0.3558 -0.2851  0.8080
  832MOL0     C12212   1.664   8.539   8.183  0.7065  0.1783 -0.1793
  832MOL0     C12213   1.636   8.590   8.047 -0.4786  0.3022  0.0940
  832MOL0     C12214   1.579   8.545   8.303 -0.4585 -0.2684  0.0985
  832MOL0     C12215   1.449   8.614   8.304  0.1259  0.8775  0.1629
  832MOL0     O12216   1.382   8.606   8.424 -0.1544 -1.0142 -0.1578
  832MOL0     C12217   1.247   8.641   8.435 -0.0474  0.3571 -0.4789
  832MOL0     C12218   1.188   8.681   8.552 -1.4803 -0.8249  0.5409
  832MOL0     C12219   1.056   8.699   8.566  0.2538 -1.1299 -0.2771
  832MOL0     C12220   0.964   8.689   8.455  0.7237  0.2677  1.1260
  832MOL0     O12221   0.832   8.707   8.484  0.2125 -0.3422  0.1850
  832MOL0     C12222   0.791   8.671   8.622 -0.3512 -0.8453  0.4411
  832MOL0     C12223   0.646   8.674   8.649 -0.0571 -0.0943  0.6650
  832MOL0     C12224   0.593   8.821   8.624 -0.0477  0.4746 -0.3652
  832MOL0     C12225   0.452   8.818   8.564 -0.5424 -0.8080 -0.6747
  832MOL0     C12226   0.391   8.955   8.551 -0.2258 -0.5015 -0.4117
  832MOL0     C12227   0.406   9.006   8.404  0.0150 -0.3068  0.2146
  832MOL0     C12228   0.354   9.148   8.399  0.5747 -0.2683 -0.4998
  832MOL0     C12229   0.395   9.217   8.272 -1.0332 -1.1410  0.1382
  832MOL0    Cl12230   0.342   9.124   8.125  0.2698 -0.0926 -0.6536
  832MOL0     C12231   1.017   8.640   8.329 -0.2662  0.3763 -0.1595
  832MOL0     C12232   1.157   8.619   8.316 -0.2326 -0.2279  0.5785
  832MOL0     O12233   1.409   8.681   8.209  0.1941 -0.6117  0.9461
  832MOL0     C12234   1.615   8.463   8.420  0.0590 -1.1475 -0.1310
  832MOL0     C12235   1.739   8.399   8.420  1.4892  0.2766  0.4481
  832MOL0     N12236   2.584   8.341   8.452 -0.5848  0.1758 -0.1479
  832MOL0     N12237   2.662   8.439   8.451  0.7370  0.2300 -0.9207
  832MOL0     C12238   3.572   8.173   8.035  0.7646  0.4727 -0.1482
  832MOL0     C12239   3.696   8.115   8.045  0.2114  0.1280  0.6180
  832MOL0     C12240   4.160   8.107   8.055 -1.0810 -0.6969  0.4006
  832MOL0     C12241   4.269   8.146   7.970  0.2244 -0.1222 -0.1745
  832MOL0     C12242   4.385   8.075   7.967 -0.3826  0.5632 -0.4896
  832MOL0     C12243   4.403   7.961   8.051 -0.0825 -0.7671  0.8083
  832MOL0     O12244   4.529   7.895   8.058  0.2831 -0.1060  0.8711
  832MOL0     C12245   4.598   7.865   8.185  0.8847  0.7303 -0.2089
  832MOL0     C12246   4.554   7.960   8.298 -0.7204  0.4561 -0.8533
  832MOL0     C12247   4.623   8.102   8.275  0.8018 -0.1013  0.4497
  832MOL0     C12248   4.558   8.215   8.360 -0.8345  0.1996  0.9495
  832MOL0     C12249   4.432   8.284   8.313 -0.1229  0.5645 -0.1751
  832MOL0     C12250   4.327   8.338   8.286 -1.2338  0.2826 -0.1446
  832MOL0     C12251   4.295   7.919   8.125 -0.8252 -0.9856 -0.7587
  832MOL0     C12252   4.176   7.984   8.131  0.0256  0.1866  1.3610
  832MOL0     H12253   3.858   8.357   8.205 -0.4850 -1.4048  2.0449
  832MOL0     H12254   3.668   8.463   8.189 -1.3412 -0.5546  0.4712
  832MOL0     H12255   3.402   8.431   8.293 -3.1477  3.5873  1.3560
  832MOL0     H12256   3.460   8.550   8.186 -2.1497  0.9608  0.5099
  832MOL0     H12257   3.231   8.570   8.274 -1.8269 -1.0903 -0.4263
  832MOL0     H12258   3.257   8.603   8.103 -2.8762 -0.7909  0.1671
  832MOL0     H12259   3.184   8.362   8.054 -2.4480 -1.0202 -0.1598
  832MOL0     H12260   3.116   8.367   8.214 -0.0152 -2.4863 -1.3471
  832MOL0     H12261   3.040   8.537   7.979  2.0180 -0.7943 -0.1464
  832MOL0     H12262   2.965   8.400   8.068  0.7913 -1.1198 -1.1372
  832MOL0     H12263   2.970   8.553   8.272 -0.0016 -0.1102 -0.6705
  832MOL0     H12264   2.995   8.691   8.177  0.2594  0.0839 -1.8162
  832MOL0     H12265   2.801   8.603   8.015 -1.3475 -1.2309 -0.3434
  832MOL0     H12266   2.763   8.497   8.161  2.8557 -0.0459  1.9553
  832MOL0     H12267   2.760   8.797   8.171 -0.3908  0.2617 -1.9909
  832MOL0     H12268   2.619   8.710   8.135 -1.3979 -1.9108  2.2318
  832MOL0     H12269   2.625   8.756   8.363 -1.5671 -0.2313 -1.3571
  832MOL0     H12270   2.779   8.668   8.405 -0.1259  1.8945  0.2808
  832MOL0     H12271   2.447   8.539   8.230 -3.1179  1.0123  2.0759
  832MOL0     H12272   2.365   8.282   8.200  0.1303  1.0835  0.3475
  832MOL0     H12273   2.386   8.188   8.350 -1.7432 -0.0967 -0.2068
  832MOL0     H12274   2.199   8.400   8.257  0.2799 -0.8533  0.1050
  832MOL0     H12275   2.259   8.436   8.418  0.9325 -0.5467  1.4136
  832MOL0     H12276   2.182   8.191   8.480 -0.3907 -0.1703  0.2481
  832MOL0     H12277   2.140   8.169   8.308 -2.0553  1.4968 -1.6805
  832MOL0     H12278   2.015   8.402   8.467 -0.9074  2.1657 -3.2118
  832MOL0     H12279   1.952   8.241   8.497  0.3282 -1.3947 -1.3506
  832MOL0     H12280   1.839   8.428   8.117  0.7730  2.1937  0.7089
  832MOL0     H12281   1.704   8.539   7.979  1.4020 -1.7608  3.2570
  832MOL0     H12282   1.532   8.568   8.018  0.0117 -1.8210 -0.2491
  832MOL0     H12283   1.654   8.696   8.030 -1.2402  0.6451  1.2757
  832MOL0     H12284   1.256   8.701   8.634 -1.2320 -0.4585  0.2462
  832MOL0     H12285   1.041   8.743   8.664  1.7965  0.3552 -0.6623
  832MOL0     H12286   0.840   8.578   8.652 -0.4458 -0.6059  1.3759
  832MOL0     H12287   0.830   8.750   8.687  0.6114  0.1095 -1.2367
  832MOL0     H12288   0.598   8.606   8.577  0.2358  2.6417 -2.3932
  832MOL0     H12289   0.627   8.630   8.747  3.7538 -2.6987  0.4476
  832MOL0     H12290   0.656   8.884   8.560  1.1617 -0.1021  0.2086
  832MOL0     H12291   0.584   8.872   8.721  1.3738  0.2824 -0.1107
  832MOL0     H12292   0.453   8.772   8.465  1.6743 -0.5300 -0.8229
  832MOL0     H12293   0.405   8.754   8.640  1.1149 -1.7657 -0.4077
  832MOL0     H12294   0.436   9.020   8.627 -2.0013 -0.1828  0.4279
  832MOL0     H12295   0.285   8.960   8.579  0.6228  1.5769  3.0434
  832MOL0     H12296   0.513   8.987   8.386  0.1501  0.5759  0.0681
  832MOL0     H12297   0.351   8.950   8.327  2.0292 -2.3460  0.1189
  832MOL0     H12298   0.380   9.209   8.486  0.1230  0.0058 -0.5546
  832MOL0     H12299   0.246   9.133   8.411  0.3280  1.1012 -0.8111
  832MOL0     H12300   0.501   9.240   8.258 -1.2375 -0.9886 -1.3352
  832MOL0     H12301   0.352   9.317   8.266  4.1204  1.3000 -2.4006
  832MOL0     H12302   0.947   8.634   8.246  0.5654 -0.0065 -0.8565
  832MOL0     H12303   1.191   8.598   8.215  3.0903  1.5816  1.1943
  832MOL0     H12304   1.551   8.466   8.507  1.0973 -2.3737  0.7145
  832MOL0     H12305   1.752   8.352   8.517  0.1760 -1.2156 -0.0438
  832MOL0     H12306   3.487   8.122   7.991 -0.0885 -3.0184  4.6618
  832MOL0     H12307   3.716   8.021   7.995 -0.5296  0.5945 -0.6033
  832MOL0     H12308   4.258   8.238   7.915 -0.3840 -0.2201 -0.2243
  832MOL0     H12309   4.466   8.115   7.908  1.0785  0.4999  1.3624
  832MOL0     H12310   4.573   7.759   8.199 -4.3495  1.7442  0.3634
  832MOL0     H12311   4.706   7.856   8.169  1.3447  2.1746  1.7775
  832MOL0     H12312   4.589   7.922   8.394  0.3761 -3.5686 -2.6459
  832MOL0     H12313   4.446   7.971   8.314 -0.5073  1.5554 -0.0211
  832MOL0     H12314   4.614   8.137   8.172  1.3537  0.4318  0.5796
  832MOL0     H12315   4.730   8.098   8.297  1.6139  0.3393 -2.8296
  832MOL0     H12316   4.626   8.298   8.383 -0.1972  0.0938 -0.4844
  832MOL0     H12317   4.554   8.157   8.453  3.1038  0.1699  1.2673
  832MOL0     H12318   4.231   8.376   8.259 -1.0249  0.7228 -0.2744
  832MOL0     H12319   4.306   7.826   8.179 -1.9443 -0.8463 -0.2831
  832MOL0     H12320   4.086   7.950   8.181 -1.3550  2.3379  0.5230
  833MOL0     O12321   7.155   7.231   1.301  0.3946  0.3379  0.4557
  833MOL0     C12322   7.080   7.311   1.243  0.4226  0.0936  1.2162
  833MOL0     O12323   7.116   7.364   1.125 -0.1576  0.1407  0.0693
  833MOL0     C12324   7.253   7.352   1.089  0.3438 -0.6016  0.6001
  833MOL0     C12325   7.349   7.424   1.153 -0.0828  0.0702  0.6252
  833MOL0     C12326   7.483   7.414   1.109  0.1075 -0.3749  0.1227
  833MOL0     C12327   7.525   7.344   0.989 -0.9976 -0.2887 -0.4515
  833MOL0     O12328   7.657   7.338   0.940 -0.0317 -0.8662 -0.0931
  833MOL0     C12329   7.723   7.455   0.896 -0.4118 -0.2008  0.0768
  833MOL0     C12330   7.740   7.456   0.737  0.3756 -0.3754 -1.0878
  833MOL0     C12331   7.883   7.485   0.674  0.8292  0.3126  0.1983
  833MOL0     C12332   7.926   7.628   0.702 -0.3508 -0.1922 -0.0191
  833MOL0     C12333   8.061   7.655   0.638 -0.2545 -0.2307 -0.1959
  833MOL0     C12334   8.054   7.663   0.481 -0.2718 -0.1067  0.7315
  833MOL0     C12335   7.947   7.740   0.414 -0.1832 -0.2130  0.1283
  833MOL0     C12336   8.000   7.824   0.295 -0.6528  0.5789 -0.7481
  833MOL0     N12337   8.033   7.742   0.186 -0.1921  0.3104 -0.2085
  833MOL0     C12338   8.164   7.734   0.130 -0.5908 -0.3803 -0.6580
  833MOL0     C12339   8.146   7.632   0.042  0.5857  0.5107 -0.3646
  833MOL0     C12340   8.253   7.558  -0.021 -0.5089  0.2458  0.1342
  833MOL0     C12341   8.327   7.466   0.081 -0.6353 -0.7594 -0.0508
  833MOL0     C12342   8.462   7.414   0.045  0.7906  0.2349 -0.0924
  833MOL0     C12343   8.491   7.301   0.135  1.0247 -0.2990  0.0838
  833MOL0     O12344   8.431   7.181   0.076  0.3033  0.5674 -0.0624
  833MOL0     C12345   8.445   7.083   0.170  0.6676  0.5634 -1.3310
  833MOL0     C12346   8.558   7.005   0.171  0.5088  0.0902 -0.3969
  833MOL0     C12347   8.560   6.878   0.230  0.2190 -0.7276  0.0027
  833MOL0     C12348   8.673   6.780   0.198 -0.3261 -0.6460 -0.4870
  833MOL0     C12349   8.446   6.839   0.310 -1.4148  0.5308  0.8500
  833MOL0     C12350   8.449   6.700   0.370  0.2412 -0.5971 -0.1035
  833MOL0     O12351   8.340   6.630   0.332 -0.0137 -0.3950  0.3220
  833MOL0     C12352   8.336   6.495   0.358  0.0555  0.2473  0.6967
  833MOL0     C12353   8.367   6.401   0.258  0.7471 -0.1704  0.4966
  833MOL0     C12354   8.382   6.262   0.286  0.4469  0.3545  0.0504
  833MOL0     C12355   8.351   6.223   0.417 -0.5239 -0.1873  0.5033
  833MOL0     O12356   8.377   6.095   0.463  0.2700  1.2411  0.2042
  833MOL0     C12357   8.443   5.997   0.377 -0.5527 -0.1808 -0.2469
  833MOL0     C12358   8.589   6.024   0.382  0.4686  1.0156  0.1466
  833MOL0     C12359   8.664   5.915   0.301  0.2289 -0.5120 -0.2742
  833MOL0     C12360   8.794   5.959   0.255  0.6432  0.0355  0.2086
  833MOL0     C12361   8.869   5.854   0.178  0.1012 -0.0645 -0.1293
  833MOL0     C12362   8.915   5.746   0.279 -0.6068  1.2648 -0.2158
  833MOL0     C12363   9.041   5.663   0.228  0.0956  0.7064  0.0951
  833MOL0     C12364   9.099   5.563   0.332 -0.8794 -0.9200 -0.2693
  833MOL0    Cl12365   9.195   5.642   0.455 -0.4023 -0.1825  0.2141
  833MOL0     C12366   8.317   6.317   0.513 -0.2247 -1.0507  0.2071
  833MOL0     C12367   8.319   6.452   0.494  0.5687 -0.0617  0.8201
  833MOL0     O12368   8.536   6.663   0.441 -0.2675  0.4752 -0.8081
  833MOL0     C12369   8.341   6.923   0.318 -0.2755 -0.1020 -0.0342
  833MOL0     C12370   8.335   7.046   0.254  0.4740  0.9193 -0.7400
  833MOL0     N12371   8.019   7.580   0.038 -0.3992 -0.4335  0.5689
  833MOL0     N12372   7.955   7.650   0.126 -0.2236 -0.5927 -0.2152
  833MOL0     C12373   7.414   7.278   0.926 -0.2192  0.3353 -0.6932
  833MOL0     C12374   7.282   7.286   0.967 -0.1119  0.5527 -0.6556
  833MOL0     C12375   6.955   7.346   1.322  0.4522  0.3911  0.6758
  833MOL0     C12376   6.942   7.312   1.460 -0.8399  0.7826  1.1311
  833MOL0     C12377   6.821   7.333   1.535 -0.5997 -0.8544  0.0126
  833MOL0     C12378   6.711   7.402   1.476  0.0283  0.1858 -0.1998
  833MOL0     O12379   6.598   7.422   1.559 -1.0538 -0.0907  0.3325
  833MOL0     C12380   6.484   7.492   1.511  0.7500  1.0518  0.7392
  833MOL0     C12381   6.381   7.415   1.428 -0.3227 -0.2970 -0.2268
  833MOL0     C12382   6.320   7.305   1.524 -0.6596  0.4280  0.0640
  833MOL0     C12383   6.276   7.178   1.453 -0.2723 -0.2853  0.0468
  833MOL0     C12384   6.210   7.101   1.559  0.1139  1.2271  0.1459
  833MOL0     C12385   6.157   7.045   1.648  0.9402 -0.5596  0.6500
  833MOL0     C12386   6.727   7.452   1.349 -0.2383 -0.1625 -0.1630
  833MOL0     C12387   6.843   7.417   1.277 -0.4898 -0.6975 -0.0061
  833MOL0     H12388   7.329   7.494   1.234  3.8808  2.7431 -0.4121
  833MOL0     H12389   7.559   7.460   1.172  0.1291 -1.1119  0.6448
  833MOL0     H12390   7.679   7.550   0.927 -0.2127  0.1423 -0.6871
  833MOL0     H12391   7.819   7.442   0.946  0.0457  0.6391 -0.5620
  833MOL0     H12392   7.706   7.359   0.701  1.9107 -1.2127 -0.3644
  833MOL0     H12393   7.668   7.537   0.716  0.4942 -0.4410 -1.7768
  833MOL0     H12394   7.960   7.420   0.717  3.0596  1.4254 -1.8188
  833MOL0     H12395   7.867   7.469   0.567 -2.1759 -2.6194  0.9391
  833MOL0     H12396   7.846   7.693   0.666 -1.4527 -0.8233  1.2237
  833MOL0     H12397   7.928   7.655   0.808  3.5764 -0.4440  0.1024
  833MOL0     H12398   8.099   7.753   0.669 -3.5508  1.1574 -0.1766
  833MOL0     H12399   8.131   7.580   0.677 -1.5958 -1.3399  0.1564
  833MOL0     H12400   8.145   7.720   0.461 -0.1140 -0.3995  0.6014
  833MOL0     H12401   8.061   7.560   0.446  1.3037  0.9872 -2.6833
  833MOL0     H12402   7.866   7.676   0.377 -0.2304  1.3592 -2.7436
  833MOL0     H12403   7.902   7.803   0.491 -1.2102 -2.5548  1.5731
  833MOL0     H12404   8.089   7.885   0.311  0.9345 -1.6892 -0.5410
  833MOL0     H12405   7.922   7.894   0.262 -1.6170 -1.4325 -3.1375
  833MOL0     H12406   8.259   7.770   0.168  0.1877  0.3585 -3.1387
  833MOL0     H12407   8.203   7.501  -0.101 -1.1844  2.1370 -0.8432
  833MOL0     H12408   8.321   7.629  -0.069  1.9671 -2.5650 -0.8659
  833MOL0     H12409   8.260   7.383   0.109 -0.4805 -1.9240 -2.8016
  833MOL0     H12410   8.354   7.537   0.159  2.1654  0.4202 -1.9488
  833MOL0     H12411   8.532   7.497   0.057  1.1928 -0.1034 -0.0672
  833MOL0     H12412   8.467   7.371  -0.056 -0.0150 -2.6176  0.9786
  833MOL0     H12413   8.448   7.324   0.233 -3.6075  1.9874 -2.1795
  833MOL0     H12414   8.600   7.289   0.143  0.7468 -1.5440  4.2899
  833MOL0     H12415   8.637   7.035   0.103 -0.0378  0.2946 -0.9560
  833MOL0     H12416   8.747   6.816   0.126 -0.4232  0.6052  0.0195
  833MOL0     H12417   8.731   6.760   0.288 -0.1242  0.4775 -0.3614
  833MOL0     H12418   8.614   6.696   0.158 -0.4462 -1.2238  0.8739
  833MOL0     H12419   8.396   6.425   0.156  2.6359  0.0250  1.0438
  833MOL0     H12420   8.416   6.196   0.207  0.7100  1.9540 -1.2336
  833MOL0     H12421   8.426   5.907   0.437 -3.0828  0.6950  0.5042
  833MOL0     H12422   8.397   5.977   0.280  0.5476  0.8222 -1.0029
  833MOL0     H12423   8.611   6.123   0.339 -1.9191  1.0726 -1.1132
  833MOL0     H12424   8.618   6.025   0.487  0.0871 -2.3851  0.3926
  833MOL0     H12425   8.599   5.886   0.218 -0.4548 -1.9864  0.7281
  833MOL0     H12426   8.687   5.826   0.361  1.8589 -0.2525 -0.4650
  833MOL0     H12427   8.775   6.034   0.177  2.0365 -0.0867 -0.2619
  833MOL0     H12428   8.854   5.999   0.337 -2.0389  1.0403  1.8097
  833MOL0     H12429   8.964   5.895   0.141  0.6932 -1.6622 -0.4636
  833MOL0     H12430   8.813   5.812   0.094 -2.2503 -1.6420  2.0882
  833MOL0     H12431   8.953   5.782   0.375 -0.2828 -0.7481  0.4764
  833MOL0     H12432   8.833   5.678   0.306 -1.7906  1.8586 -2.1800
  833MOL0     H12433   9.123   5.731   0.205  0.2140  1.5460  2.7786
  833MOL0     H12434   9.016   5.604   0.139  0.0009 -0.6238  0.9767
  833MOL0     H12435   9.163   5.488   0.285 -0.6171 -1.7834  1.4103
  833MOL0     H12436   9.015   5.520   0.387 -0.7960  1.4548  1.9007
  833MOL0     H12437   8.294   6.288   0.615  2.4888 -0.9168  0.9142
  833MOL0     H12438   8.298   6.525   0.571 -1.5492 -0.3734  0.5921
  833MOL0     H12439   8.255   6.899   0.379  0.7679 -2.3787  0.6499
  833MOL0     H12440   8.249   7.111   0.256  0.5158  0.9601  0.6457
  833MOL0     H12441   7.434   7.217   0.838  1.8446 -0.2357  0.0972
  833MOL0     H12442   7.201   7.240   0.910  0.7382  1.1235 -2.3769
  833MOL0     H12443   7.021   7.260   1.513 -2.0564  0.0333  2.2878
  833MOL0     H12444   6.820   7.291   1.635 -1.4095 -0.3716  0.2112
  833MOL0     H12445   6.424   7.537   1.591 -2.5497 -1.2158 -0.2881
  833MOL0     H12446   6.518   7.574   1.446  0.1051  0.9757  0.3004
  833MOL0     H12447   6.439   7.361   1.352  0.8866  0.0074  0.4564
  833MOL0     H12448   6.300   7.472   1.382 -0.0512  2.8384  2.7456
  833MOL0     H12449   6.234   7.345   1.577 -0.4876  0.6997  0.1416
  833MOL0     H12450   6.396   7.265   1.592 -1.9772  0.6940  1.7559
  833MOL0     H12451   6.366   7.125   1.420 -1.3200 -3.6300  1.9821
  833MOL0     H12452   6.203   7.192   1.373 -0.3153  1.1213  0.3186
  833MOL0     H12453   6.107   7.001   1.732 -0.7327 -1.5528 -0.7730
  833MOL0     H12454   6.647   7.487   1.285  1.9531  3.6133 -1.1978
  833MOL0     H12455   6.859   7.465   1.181  3.2600  3.7315  2.4082
  834MOL0     O12456   8.033   1.194   4.830 -0.0501  0.6708 -0.0438
  834MOL0     C12457   8.130   1.237   4.891  0.3720  0.6533  0.2085
  834MOL0     O12458   8.126   1.301   5.009  0.1104 -0.0984  0.1760
  834MOL0     C12459   7.997   1.307   5.057  0.0091  0.4456 -0.4860
  834MOL0     C12460   7.959   1.212   5.151 -0.0642 -0.1447 -0.2868
  834MOL0     C12461   7.836   1.218   5.214  0.2098 -0.1981 -0.3735
  834MOL0     C12462   7.744   1.318   5.178 -0.3065 -0.0873 -0.3148
  834MOL0     O12463   7.627   1.318   5.251  0.0111  1.3938  0.3427
  834MOL0     C12464   7.544   1.421   5.223  0.1851 -0.8751  0.1988
  834MOL0     C12465   7.416   1.415   5.308 -1.1551 -0.1668  0.5604
  834MOL0     C12466   7.306   1.504   5.255 -0.2458 -0.3659  0.3608
  834MOL0     C12467   7.234   1.563   5.377 -0.0757  0.3155  0.2089
  834MOL0     C12468   7.122   1.651   5.335  0.5341  0.1011 -0.1161
  834MOL0     C12469   7.052   1.711   5.455  0.2610  0.7151  0.1822
  834MOL0     C12470   7.147   1.792   5.537 -0.8454 -0.1970 -0.3902
  834MOL0     C12471   7.070   1.912   5.613  0.2465 -0.0510  0.4562
  834MOL0     N12472   6.982   1.865   5.717 -0.0565  0.2905  0.7513
  834MOL0     C12473   7.023   1.822   5.846  0.7888  0.3466 -0.4715
  834MOL0     C12474   6.917   1.832   5.929  0.8132  0.3783  1.1676
  834MOL0     C12475   6.924   1.798   6.069 -0.0470  0.4588 -0.2312
  834MOL0     C12476   6.790   1.823   6.143  0.2215  0.6855 -0.3306
  834MOL0     C12477   6.736   1.966   6.144 -0.7638 -0.1937 -0.2163
  834MOL0     C12478   6.588   1.963   6.141  0.7187  0.1685  0.3311
  834MOL0     O12479   6.534   1.893   6.248  0.0911 -0.0746 -0.4958
  834MOL0     C12480   6.404   1.909   6.280 -0.3485 -0.6949  0.3981
  834MOL0     C12481   6.311   1.958   6.192  0.5260 -0.2134  0.0659
  834MOL0     C12482   6.173   1.977   6.231  0.1733 -0.2159 -0.3239
  834MOL0     C12483   6.066   2.014   6.127  0.4429 -0.3632 -0.4309
  834MOL0     C12484   6.134   1.951   6.367 -0.4352  0.1370  0.5655
  834MOL0     C12485   5.994   1.955   6.422 -0.0718 -0.8104 -0.2489
  834MOL0     O12486   5.967   1.915   6.547  0.3465 -0.2951  0.5389
  834MOL0     C12487   5.840   1.914   6.594  0.3065  1.2557  0.4869
  834MOL0     C12488   5.777   2.032   6.615  0.4559 -0.3273  0.4215
  834MOL0     C12489   5.650   2.038   6.664 -1.3271 -0.4138 -0.4300
  834MOL0     C12490   5.582   1.915   6.693  0.6036 -0.5346 -0.1012
  834MOL0     O12491   5.446   1.909   6.727 -0.5737 -0.2338 -0.0336
  834MOL0     C12492   5.370   2.024   6.763  0.3555 -0.3287 -0.2759
  834MOL0     C12493   5.225   1.976   6.809  0.6929  0.2778  0.8749
  834MOL0     C12494   5.159   1.885   6.704 -0.0942 -0.4055  0.6086
  834MOL0     C12495   5.038   1.815   6.763  0.4267  0.1725 -0.7844
  834MOL0     C12496   4.947   1.758   6.652  0.0029  0.3984  0.3682
  834MOL0     C12497   5.008   1.638   6.578 -0.0288 -0.9581  0.0091
  834MOL0     C12498   5.005   1.509   6.653 -0.0927  0.0585 -0.2394
  834MOL0     C12499   4.985   1.392   6.547  0.9523  0.5002  0.5694
  834MOL0    Cl12500   4.823   1.369   6.501 -0.2291 -0.0884  0.0421
  834MOL0     C12501   5.644   1.796   6.680  0.2516  0.6702  0.4585
  834MOL0     C12502   5.777   1.796   6.636 -0.1715  0.3691 -0.6457
  834MOL0     O12503   5.910   2.002   6.346  0.1034  0.0642  0.1095
  834MOL0     C12504   6.244   1.903   6.457  1.0000  0.2074  0.4715
  834MOL0     C12505   6.371   1.883   6.412  0.9750  0.9841  2.0769
  834MOL0     N12506   6.806   1.874   5.849  0.4715  0.5620 -0.1841
  834MOL0     N12507   6.851   1.890   5.732  0.1914  0.2801  0.2346
  834MOL0     C12508   7.790   1.411   5.084  0.1853 -0.2605  0.6080
  834MOL0     C12509   7.916   1.412   5.026 -0.5393  0.2550  0.6425
  834MOL0     C12510   8.262   1.209   4.826  0.0620  0.0644 -0.6594
  834MOL0     C12511   8.275   1.118   4.723 -0.5490  0.2342  0.1405
  834MOL0     C12512   8.399   1.088   4.674  0.1367 -1.2103  0.1227
  834MOL0     C12513   8.511   1.164   4.711 -0.2937  0.3658 -0.1963
  834MOL0     O12514   8.637   1.151   4.655  0.5119 -0.5787  0.6072
  834MOL0     C12515   8.647   1.080   4.532  0.1222 -0.1940 -0.3606
  834MOL0     C12516   8.787   1.081   4.480 -0.0354  0.3581 -0.7249
  834MOL0     C12517   8.905   1.065   4.578 -0.0479  0.4347  0.3550
  834MOL0     C12518   9.035   1.097   4.499  0.5329  0.2870 -0.3803
  834MOL0     C12519   9.152   1.030   4.560 -0.4586  0.4872 -0.1051
  834MOL0     C12520   9.239   0.975   4.612 -0.3575 -0.2196 -1.0200
  834MOL0     C12521   8.496   1.261   4.813  0.2299  0.6411 -0.6111
  834MOL0     C12522   8.374   1.280   4.871  0.7252 -0.5590  0.4858
  834MOL0     H12523   8.027   1.130   5.174 -2.0259 -1.1968  2.2950
  834MOL0     H12524   7.800   1.154   5.294 -2.4516  1.8168  0.1845
  834MOL0     H12525   7.594   1.510   5.262 -3.0381 -0.1438  3.1528
  834MOL0     H12526   7.519   1.433   5.117  0.1137  0.4017  0.3414
  834MOL0     H12527   7.380   1.312   5.308 -0.0150 -0.6011 -1.0943
  834MOL0     H12528   7.454   1.438   5.408  3.3208 -1.5652 -0.5557
  834MOL0     H12529   7.363   1.579   5.199  1.8144  0.1090  2.9079
  834MOL0     H12530   7.241   1.451   5.185 -1.0718 -0.0047  0.8398
  834MOL0     H12531   7.202   1.480   5.441 -0.1008  2.8857  3.7575
  834MOL0     H12532   7.310   1.614   5.437  0.2637 -0.8208  0.7762
  834MOL0     H12533   7.171   1.733   5.283 -2.4679  2.4065  0.3604
  834MOL0     H12534   7.052   1.598   5.270 -0.7136  0.3944  0.9280
  834MOL0     H12535   6.974   1.776   5.414  2.0190  2.1657 -1.0319
  834MOL0     H12536   7.009   1.630   5.515  0.6618  0.4283  0.0862
  834MOL0     H12537   7.200   1.734   5.613  0.1632 -2.6305 -2.7941
  834MOL0     H12538   7.225   1.831   5.472  0.7926 -1.7212  0.5640
  834MOL0     H12539   7.006   1.972   5.548  1.7476  1.7704  0.5600
  834MOL0     H12540   7.152   1.968   5.660  1.2546 -1.2594  0.1958
  834MOL0     H12541   7.124   1.799   5.880  0.9066  0.8132 -0.4992
  834MOL0     H12542   6.936   1.689   6.073  1.6376  0.5678 -1.2168
  834MOL0     H12543   7.001   1.849   6.128 -0.1665 -2.5346  2.7842
  834MOL0     H12544   6.808   1.789   6.246 -1.4623  1.0409  0.1007
  834MOL0     H12545   6.716   1.766   6.087  1.4814 -1.4016  0.0049
  834MOL0     H12546   6.783   2.026   6.065  0.3935  0.7464  1.1284
  834MOL0     H12547   6.767   2.008   6.241  1.9735 -0.4117 -0.8999
  834MOL0     H12548   6.560   1.906   6.052  1.5276  1.6823 -0.9539
  834MOL0     H12549   6.559   2.067   6.128  1.5213  0.5656  1.5665
  834MOL0     H12550   6.328   1.980   6.087  2.3255 -0.0286  0.3669
  834MOL0     H12551   6.108   2.060   6.037 -1.6392  0.1472 -1.2091
  834MOL0     H12552   5.997   1.935   6.098  1.6557 -1.2487 -0.9749
  834MOL0     H12553   6.007   2.097   6.168  0.1431 -1.5430  1.6467
  834MOL0     H12554   5.838   2.119   6.595  0.5061 -0.1366  1.3501
  834MOL0     H12555   5.602   2.133   6.684 -0.8359 -0.4687  1.1724
  834MOL0     H12556   5.416   2.072   6.850  1.1039  2.5051 -2.1307
  834MOL0     H12557   5.381   2.090   6.678  1.6240 -3.0838 -2.4084
  834MOL0     H12558   5.234   1.922   6.904  3.2895 -1.8091 -0.4085
  834MOL0     H12559   5.173   2.072   6.819  0.8712  0.9939 -3.2968
  834MOL0     H12560   5.226   1.819   6.648 -0.2479  0.9264 -1.2272
  834MOL0     H12561   5.133   1.957   6.626  3.4318 -0.3615 -0.7041
  834MOL0     H12562   5.085   1.743   6.831 -2.1539 -1.0522 -0.1643
  834MOL0     H12563   4.978   1.892   6.813 -0.7228  0.1130 -2.0366
  834MOL0     H12564   4.923   1.832   6.576  1.2654 -1.6582 -2.1974
  834MOL0     H12565   4.853   1.734   6.702 -0.2091  0.3468 -0.0511
  834MOL0     H12566   4.951   1.627   6.485 -0.4368  0.2849  0.0935
  834MOL0     H12567   5.116   1.652   6.563  0.2242 -0.8653  1.7435
  834MOL0     H12568   4.925   1.509   6.727 -0.2197 -1.0022 -0.3594
  834MOL0     H12569   5.102   1.490   6.701  0.6194 -0.7139 -1.9130
  834MOL0     H12570   4.999   1.291   6.587 -1.2487 -1.0722 -2.2136
  834MOL0     H12571   5.049   1.408   6.460  0.7151 -2.3614 -0.2575
  834MOL0     H12572   5.604   1.698   6.705 -1.1823  1.4712  1.4562
  834MOL0     H12573   5.830   1.702   6.646 -0.2054  0.1535 -2.2043
  834MOL0     H12574   6.218   1.888   6.561 -0.3473  0.9766  0.2721
  834MOL0     H12575   6.449   1.865   6.485  0.5496 -2.9156  1.7881
  834MOL0     H12576   7.719   1.490   5.061  0.4430  0.5004  2.2818
  834MOL0     H12577   7.952   1.492   4.962 -0.3010  0.3320  0.8720
  834MOL0     H12578   8.184   1.080   4.677 -2.4352  3.6319  0.7190
  834MOL0     H12579   8.412   1.015   4.595  0.4521 -3.3445  2.0361
  834MOL0     H12580   8.605   0.981   4.551 -2.2656  1.0119  1.1345
  834MOL0     H12581   8.589   1.128   4.453  1.0820  1.8712  0.1120
  834MOL0     H12582   8.809   1.182   4.445 -1.6539  1.1967  0.5414
  834MOL0     H12583   8.797   1.010   4.397 -0.5076 -5.5142  3.6222
  834MOL0     H12584   8.906   0.960   4.610  0.6042  0.7378  1.3770
  834MOL0     H12585   8.892   1.125   4.668 -0.0148  0.1898  0.5236
  834MOL0     H12586   9.050   1.205   4.490  0.8915  0.1042 -2.5871
  834MOL0     H12587   9.033   1.072   4.392 -4.1951  0.3209 -0.4719
  834MOL0     H12588   9.320   0.929   4.665 -1.0196  0.9335  1.1013
  834MOL0     H12589   8.589   1.309   4.842  1.6121 -1.9867 -0.3924
  834MOL0     H12590   8.368   1.358   4.946  1.2141 -0.2215  0.1798
  835MOL0     O12591  10.701   1.583   9.736  0.4641 -0.5561 -0.2691
  835MOL0     C12592  10.674   1.645   9.842  0.6124  0.1430  1.0262
  835MOL0     O12593  10.550   1.710   9.869  0.3557 -0.0768 -0.3312
  835MOL0     C12594  10.431   1.693   9.804 -0.7495 -0.1617  0.3965
  835MOL0     C12595  10.435   1.713   9.667  0.2366  0.2022 -0.6414
  835MOL0     C12596  10.319   1.699   9.590  0.6200  0.1235 -0.4983
  835MOL0     C12597  10.203   1.657   9.658 -0.3373 -1.0335 -0.4260
  835MOL0     O12598  10.091   1.645   9.587 -0.5093 -0.4775 -0.1152
  835MOL0     C12599   9.959   1.635   9.641  0.4672  0.0838  0.0541
  835MOL0     C12600   9.844   1.620   9.534 -0.5186 -0.3025 -0.8643
  835MOL0     C12601   9.706   1.588   9.594  0.2193  0.3736  0.3253
  835MOL0     C12602   9.605   1.531   9.486  0.0625 -0.0866 -0.0436
  835MOL0     C12603   9.495   1.447   9.559 -1.6049 -0.3624 -0.1182
  835MOL0     C12604   9.400   1.550   9.617  0.2213 -0.3607 -0.5522
  835MOL0     C12605   9.260   1.499   9.634  0.0464  0.0384  0.3658
  835MOL0     C12606   9.163   1.602   9.683  0.0495 -0.3919 -0.2426
  835MOL0     N12607   9.205   1.674   9.803 -0.7694 -0.2268  0.6376
  835MOL0     C12608   9.184   1.614   9.925 -0.2661  0.1856 -0.3620
  835MOL0     C12609   9.225   1.712  10.014 -0.3961 -0.3030 -1.0105
  835MOL0     C12610   9.210   1.708  10.163 -0.0553 -0.9766 -0.5523
  835MOL0     C12611   9.250   1.582  10.233 -0.0412 -0.1228  0.7667
  835MOL0     C12612   9.243   1.620  10.381 -0.9676 -0.2433  0.4366
  835MOL0     C12613   9.373   1.688  10.433 -0.7047  0.2490  0.6392
  835MOL0     O12614   9.382   1.681  10.575  0.7402 -0.1341 -0.6287
  835MOL0     C12615   9.503   1.722  10.627  0.1948  0.2531  0.2407
  835MOL0     C12616   9.620   1.721  10.562  0.9405  0.0063 -0.0373
  835MOL0     C12617   9.740   1.707  10.619 -0.6298  1.0553  0.0949
  835MOL0     C12618   9.851   1.680  10.521  0.5906  0.1338 -0.3434
  835MOL0     C12619   9.760   1.718  10.751 -0.8043 -0.5593  0.4326
  835MOL0     C12620   9.893   1.721  10.812  0.0898  0.4176 -0.1475
  835MOL0     O12621  10.004   1.668  10.741 -0.1634 -0.2973 -0.3305
  835MOL0     C12622  10.126   1.652  10.802  1.1439 -0.0623  0.3702
  835MOL0     C12623  10.185   1.523  10.804 -0.4602  0.1884 -0.0889
  835MOL0     C12624  10.305   1.496  10.868  0.5241 -0.3696 -0.7843
  835MOL0     C12625  10.378   1.602  10.925  0.2052  0.4635 -0.6599
  835MOL0     O12626  10.501   1.564  10.973 -0.1312  0.6496  0.1856
  835MOL0     C12627  10.612   1.648  10.947  0.2570  0.9549  0.3678
  835MOL0     C12628  10.749   1.581  10.980  0.0958 -1.1659 -0.7658
  835MOL0     C12629  10.850   1.694  11.011  0.3024 -0.2737 -0.2489
  835MOL0     C12630  10.970   1.634  11.090 -0.6675  0.2675  0.6238
  835MOL0     C12631  11.033   1.751  11.179 -0.6703 -0.4873  0.2471
  835MOL0     C12632  11.172   1.707  11.246 -0.3708  0.5029 -0.0212
  835MOL0     C12633  11.276   1.682  11.133 -0.4054 -0.3148 -0.0434
  835MOL0     C12634  11.428   1.682  11.176 -0.4817 -0.3712 -0.8077
  835MOL0    Cl12635  11.484   1.839  11.230  0.1528  0.3955  0.1429
  835MOL0     C12636  10.321   1.730  10.939 -0.2122 -1.7872  0.0722
  835MOL0     C12637  10.198   1.758  10.873  0.3772 -0.1685  0.5835
  835MOL0     O12638   9.899   1.761  10.931  0.7887 -0.0849  0.3633
  835MOL0     C12639   9.638   1.729  10.824  0.1840 -0.6596 -0.1519
  835MOL0     C12640   9.511   1.726  10.765 -0.1187  0.0952 -0.2586
  835MOL0     N12641   9.288   1.812   9.948 -1.0443  0.2028  0.1612
  835MOL0     N12642   9.279   1.789   9.819 -0.7474  0.0620  0.0458
  835MOL0     C12643  10.198   1.642   9.795 -0.0850  0.2768 -0.2515
  835MOL0     C12644  10.313   1.656   9.865 -0.5625  0.4202 -0.2988
  835MOL0     C12645  10.786   1.653   9.940  0.6660 -0.7091 -1.0374
  835MOL0     C12646  10.758   1.702  10.074  0.9883  0.0893  0.4598
  835MOL0     C12647  10.857   1.734  10.155  0.0724  0.7149  0.0338
  835MOL0     C12648  10.992   1.715  10.115 -0.0234  0.0408  0.6273
  835MOL0     O12649  11.108   1.757  10.176  0.5328  0.2362  0.2693
  835MOL0     C12650  11.138   1.692  10.299 -0.5634  0.9094 -0.3410
  835MOL0     C12651  11.267   1.625  10.310 -0.8477  0.6110  0.5179
  835MOL0     C12652  11.384   1.712  10.280 -0.6841  0.0520  0.6283
  835MOL0     C12653  11.407   1.761  10.132 -1.0418  0.0864  0.0057
  835MOL0     C12654  11.551   1.792  10.109  0.1589 -0.1259  0.6636
  835MOL0     C12655  11.670   1.827  10.085  0.3090 -0.7853  0.0329
  835MOL0     C12656  11.017   1.660   9.992  0.0430  0.5557  0.0244
  835MOL0     C12657  10.918   1.611   9.904  0.0452 -0.1248  0.7171
  835MOL0     H12658  10.528   1.743   9.620  2.0916  0.5987  2.9464
  835MOL0     H12659  10.316   1.726   9.485  0.2851 -0.6913 -0.7072
  835MOL0     H12660   9.960   1.553   9.713  0.8947 -1.1514 -1.2869
  835MOL0     H12661   9.939   1.724   9.700 -2.4377 -0.2041 -0.3541
  835MOL0     H12662   9.844   1.711   9.474 -2.5633  0.5171  0.3147
  835MOL0     H12663   9.874   1.531   9.478 -2.5529 -0.6668 -1.4588
  835MOL0     H12664   9.719   1.514   9.674  0.4145 -0.5965 -0.5903
  835MOL0     H12665   9.664   1.683   9.628  0.2103  0.4724  0.0383
  835MOL0     H12666   9.577   1.606   9.412 -0.8189 -0.5737 -0.2277
  835MOL0     H12667   9.662   1.455   9.431 -1.0666 -0.8523 -0.1956
  835MOL0     H12668   9.440   1.378   9.495 -1.9776  0.5616 -0.8209
  835MOL0     H12669   9.545   1.392   9.639 -1.8464  0.9594  0.9921
  835MOL0     H12670   9.437   1.589   9.713 -0.4385  1.5202 -1.0279
  835MOL0     H12671   9.391   1.634   9.548 -1.8161  0.6736  0.8787
  835MOL0     H12672   9.231   1.459   9.536  1.3934  0.2546 -0.1429
  835MOL0     H12673   9.262   1.413   9.702 -0.8689  1.3648  2.1283
  835MOL0     H12674   9.068   1.554   9.709  0.4948 -1.7046 -0.9368
  835MOL0     H12675   9.140   1.668   9.599  1.1706  0.2577 -0.0484
  835MOL0     H12676   9.123   1.526   9.942  2.2502 -1.9264 -1.5350
  835MOL0     H12677   9.278   1.788  10.194  1.4752 -2.1921 -0.6023
  835MOL0     H12678   9.113   1.742  10.200  1.3905  1.7274  1.0699
  835MOL0     H12679   9.345   1.557  10.186 -0.0435  1.5220 -0.2126
  835MOL0     H12680   9.174   1.507  10.209  1.4137 -1.1436 -0.8581
  835MOL0     H12681   9.223   1.530  10.441  0.2955 -0.9143 -0.0891
  835MOL0     H12682   9.163   1.691  10.402  2.4736  4.3715 -0.4101
  835MOL0     H12683   9.375   1.790  10.394  0.6611 -0.1794 -0.5055
  835MOL0     H12684   9.450   1.629  10.383  1.3932  2.2163  1.3806
  835MOL0     H12685   9.611   1.721  10.454 -1.6733 -0.6101  0.1125
  835MOL0     H12686   9.928   1.757  10.533  0.2531  0.6867 -1.5275
  835MOL0     H12687   9.895   1.584  10.551 -0.2023  0.2224  1.1754
  835MOL0     H12688   9.815   1.682  10.418 -2.9155  1.9985  0.7660
  835MOL0     H12689  10.131   1.440  10.759  0.0115 -0.0794 -0.1651
  835MOL0     H12690  10.349   1.397  10.872  1.6404  0.1490  0.2215
  835MOL0     H12691  10.613   1.676  10.841 -1.4495  0.6561  0.2452
  835MOL0     H12692  10.601   1.739  11.006 -0.3570  1.3279 -0.3162
  835MOL0     H12693  10.719   1.507  11.054 -3.0844  0.5204 -0.1678
  835MOL0     H12694  10.788   1.534  10.890  1.6638  2.5789 -2.2620
  835MOL0     H12695  10.817   1.787  11.059  0.5372  1.0570 -2.5220
  835MOL0     H12696  10.891   1.730  10.916  3.7561 -2.3952  0.2682
  835MOL0     H12697  10.930   1.556  11.155 -1.6026 -1.4252 -1.8386
  835MOL0     H12698  11.051   1.591  11.030 -1.5551  0.9157 -1.1119
  835MOL0     H12699  10.966   1.796  11.252  1.4074  0.0925  1.8962
  835MOL0     H12700  11.060   1.828  11.106  0.8387 -0.6030  0.6434
  835MOL0     H12701  11.204   1.790  11.310  1.8678  0.2429 -0.7195
  835MOL0     H12702  11.158   1.619  11.309  1.2991  1.5031  1.8551
  835MOL0     H12703  11.255   1.759  11.058 -1.5520  0.0498  0.6301
  835MOL0     H12704  11.262   1.580  11.098 -1.5986 -0.7768  1.6581
  835MOL0     H12705  11.492   1.669  11.087  1.1911 -2.4262  0.5958
  835MOL0     H12706  11.453   1.598  11.241  1.4512  0.0254 -0.9746
  835MOL0     H12707  10.378   1.813  10.979 -2.0497  0.0164 -0.8708
  835MOL0     H12708  10.144   1.851  10.861  1.9568  0.8194  0.7660
  835MOL0     H12709   9.628   1.746  10.931  2.0154 -1.4085  0.1775
  835MOL0     H12710   9.424   1.740  10.828  0.5089  0.5934  0.5232
  835MOL0     H12711  10.115   1.612   9.859  1.7641 -0.6014  1.8957
  835MOL0     H12712  10.314   1.645   9.973 -1.9238 -3.1750 -0.5375
  835MOL0     H12713  10.656   1.726  10.103  1.3832  3.3362 -0.4161
  835MOL0     H12714  10.825   1.761  10.256 -2.0397 -2.0704  0.2357
  835MOL0     H12715  11.143   1.777  10.367  0.6749 -0.9195  1.9784
  835MOL0     H12716  11.068   1.620  10.342 -0.2064  2.2134  2.6412
  835MOL0     H12717  11.277   1.542  10.239  2.2787 -0.5068  2.0802
  835MOL0     H12718  11.263   1.585  10.412  0.0866 -0.1503  0.2798
  835MOL0     H12719  11.467   1.647  10.311 -1.5843 -0.9421  1.0074
  835MOL0     H12720  11.377   1.795  10.350  0.0327  0.5629  0.1182
  835MOL0     H12721  11.358   1.851  10.093  0.9445  1.8046  1.1766
  835MOL0     H12722  11.389   1.680  10.062  0.0414 -1.5282  1.4974
  835MOL0     H12723  11.768   1.859  10.058 -0.4241  0.7000 -0.9899
  835MOL0     H12724  11.121   1.655   9.964 -0.3140 -1.3244 -1.0857
  835MOL0     H12725  10.960   1.562   9.817 -0.3061  1.7424 -0.5413
  836MOL0     O12726   8.336   0.112  11.069 -0.2432 -0.0456 -0.0195
  836MOL0     C12727   8.345   0.184  11.166 -1.0106  0.5963  0.3613
  836MOL0     O12728   8.303   0.151  11.292 -0.1555 -0.7295 -0.3130
  836MOL0     C12729   8.193   0.068  11.304 -0.0805  0.7911 -0.6347
  836MOL0     C12730   8.178  -0.020  11.413  0.9124 -0.6776 -0.1404
  836MOL0     C12731   8.073  -0.112  11.429 -1.4185 -0.0858 -0.1053
  836MOL0     C12732   7.978  -0.099  11.335  0.9570  1.0103 -0.0237
  836MOL0     O12733   7.869  -0.185  11.323  0.4642  1.3447  0.3248
  836MOL0     C12734   7.821  -0.265  11.432  0.5953  0.3154  0.0962
  836MOL0     C12735   7.689  -0.323  11.400 -0.2525  0.8295 -0.1087
  836MOL0     C12736   7.692  -0.423  11.289  0.3505 -0.6128 -0.1210
  836MOL0     C12737   7.758  -0.557  11.327  0.5162  0.1339 -0.2951
  836MOL0     C12738   7.813  -0.642  11.225  0.0012 -1.0155 -0.0477
  836MOL0     C12739   7.886  -0.770  11.277  1.0331 -0.2140 -0.3711
  836MOL0     C12740   7.975  -0.832  11.162 -0.2181 -0.3741  0.5854
  836MOL0     C12741   8.074  -0.935  11.216 -0.6320  0.7248 -0.1187
  836MOL0     N12742   8.006  -1.045  11.285  0.1384 -0.1622  0.2357
  836MOL0     C12743   7.964  -1.154  11.213  0.3652 -0.0272 -0.5432
  836MOL0     C12744   7.925  -1.245  11.305  0.1851 -0.3501 -0.1276
  836MOL0     C12745   7.877  -1.378  11.279  0.1936  0.4728  0.5283
  836MOL0     C12746   7.981  -1.481  11.261  0.1412 -0.4196  0.4726
  836MOL0     C12747   8.062  -1.504  11.390 -0.2708 -0.8041 -0.2982
  836MOL0     C12748   8.190  -1.582  11.368 -0.7719 -0.1221  0.8696
  836MOL0     O12749   8.264  -1.525  11.260  0.3477 -0.2414 -0.0289
  836MOL0     C12750   8.343  -1.413  11.293  0.1824 -0.0122 -0.2592
  836MOL0     C12751   8.480  -1.428  11.327 -0.1722  0.0511 -0.3977
  836MOL0     C12752   8.554  -1.322  11.383  0.5059  0.2367 -0.7701
  836MOL0     C12753   8.687  -1.363  11.437  0.4288  0.1698 -0.7188
  836MOL0     C12754   8.495  -1.199  11.384 -0.0496 -0.7861 -0.4485
  836MOL0     C12755   8.571  -1.080  11.435 -0.2964  0.0366  0.1003
  836MOL0     O12756   8.534  -0.959  11.378  0.6689  0.5040 -0.4994
  836MOL0     C12757   8.581  -0.845  11.435 -0.0029  0.1809  0.7522
  836MOL0     C12758   8.670  -0.764  11.360  0.5392 -0.0563  0.0477
  836MOL0     C12759   8.703  -0.641  11.422 -0.4132  0.5072  0.1152
  836MOL0     C12760   8.666  -0.609  11.552  0.2233  0.5057  0.0067
  836MOL0     O12761   8.690  -0.494  11.615 -1.5474  0.9703  0.1848
  836MOL0     C12762   8.568  -0.415  11.651 -0.2676  0.2319  0.8055
  836MOL0     C12763   8.619  -0.266  11.629 -0.0889 -0.3809 -0.5772
  836MOL0     C12764   8.679  -0.247  11.487  0.2564 -0.3463  0.4708
  836MOL0     C12765   8.693  -0.097  11.470 -0.1195 -0.4007 -0.0002
  836MOL0     C12766   8.697  -0.049  11.328 -0.5276 -0.3445 -0.8208
  836MOL0     C12767   8.718   0.100  11.343 -0.9761 -0.5407  0.1264
  836MOL0     C12768   8.758   0.165  11.206  0.4323 -0.6418 -0.2537
  836MOL0     C12769   8.791   0.313  11.217 -0.4178 -0.0468 -0.1209
  836MOL0    Cl12770   8.962   0.319  11.286  0.3907  0.6904  0.0762
  836MOL0     C12771   8.584  -0.699  11.626 -0.6902  0.6611 -0.2414
  836MOL0     C12772   8.552  -0.820  11.566  0.1892 -0.8888 -0.6069
  836MOL0     O12773   8.645  -1.099  11.532  0.2647  0.1378  0.5825
  836MOL0     C12774   8.361  -1.175  11.343  0.2727 -0.1611 -0.0218
  836MOL0     C12775   8.286  -1.282  11.296 -0.0237 -0.1016 -0.1436
  836MOL0     N12776   7.953  -1.184  11.434 -0.7298  0.3723 -0.0955
  836MOL0     N12777   8.016  -1.079  11.415 -0.3082  0.5668 -0.4671
  836MOL0     C12778   7.974   0.002  11.244 -0.2644  0.4043  0.0272
  836MOL0     C12779   8.084   0.086  11.222  0.0699  0.2282 -0.0705
  836MOL0     C12780   8.418   0.313  11.149 -0.2478  0.3376  0.1853
  836MOL0     C12781   8.460   0.363  11.022  0.4444  0.1977 -0.0025
  836MOL0     C12782   8.516   0.486  11.010  0.2400 -0.2520  0.8879
  836MOL0     C12783   8.556   0.564  11.126  0.6500  1.1403  0.2840
  836MOL0     O12784   8.614   0.679  11.128 -0.3083  0.6520  0.4038
  836MOL0     C12785   8.616   0.757  11.005 -0.8139 -0.1967 -0.3281
  836MOL0     C12786   8.667   0.909  11.032 -0.5489 -0.4865  0.6565
  836MOL0     C12787   8.577   0.978  11.139  0.3414  0.2685 -0.8219
  836MOL0     C12788   8.532   1.128  11.100  0.1437 -0.4096  0.2022
  836MOL0     C12789   8.461   1.133  10.973 -0.4257  0.5023 -0.3140
  836MOL0     C12790   8.401   1.139  10.869  0.2123 -0.3180  0.0315
  836MOL0     C12791   8.506   0.517  11.251  0.3504  0.3253  0.3250
  836MOL0     C12792   8.434   0.394  11.258  0.3541 -0.5836  0.6780
  836MOL0     H12793   8.263  -0.010  11.479  1.3187  0.4286 -0.8023
  836MOL0     H12794   8.070  -0.174  11.517  1.9745 -2.1717 -1.2443
  836MOL0     H12795   7.894  -0.344  11.455  1.3986  0.1989 -2.5598
  836MOL0     H12796   7.797  -0.206  11.521 -0.3833 -1.1190  0.8160
  836MOL0     H12797   7.636  -0.360  11.488  1.6348  3.2686  2.2299
  836MOL0     H12798   7.625  -0.243  11.363 -1.0685 -0.5983 -2.0128
  836MOL0     H12799   7.587  -0.447  11.268  0.0095 -3.4658  3.6754
  836MOL0     H12800   7.734  -0.363  11.208 -1.9739  0.5281 -0.5850
  836MOL0     H12801   7.832  -0.541  11.405 -0.2062 -2.1949  0.9494
  836MOL0     H12802   7.686  -0.625  11.373 -2.5140  2.8262 -0.6465
  836MOL0     H12803   7.746  -0.665  11.142 -0.6275 -4.8578  1.3407
  836MOL0     H12804   7.899  -0.578  11.200  0.2374 -0.5042  1.9336
  836MOL0     H12805   7.940  -0.742  11.368  2.1151  0.7394 -1.2766
  836MOL0     H12806   7.817  -0.848  11.312  0.3168  0.8784  0.7575
  836MOL0     H12807   7.909  -0.885  11.094  0.8031 -0.9158 -0.0108
  836MOL0     H12808   8.027  -0.743  11.127  0.2149 -0.1060  1.8376
  836MOL0     H12809   8.146  -0.895  11.289 -1.3396 -2.2870  2.4161
  836MOL0     H12810   8.129  -0.973  11.130 -1.0673 -0.6660  0.1956
  836MOL0     H12811   7.969  -1.178  11.107 -0.8775  1.8566 -1.0923
  836MOL0     H12812   7.807  -1.414  11.355 -1.2151  1.1140 -0.4273
  836MOL0     H12813   7.827  -1.382  11.182 -0.7144  1.5332  0.9252
  836MOL0     H12814   8.047  -1.446  11.182 -0.3630  3.4075  1.5712
  836MOL0     H12815   7.929  -1.574  11.234  1.5771 -1.6720  1.7990
  836MOL0     H12816   8.015  -1.566  11.466  3.0075 -1.0064  1.7702
  836MOL0     H12817   8.083  -1.408  11.439 -3.2685 -1.1021  1.8362
  836MOL0     H12818   8.166  -1.685  11.339 -0.0383 -0.6582  2.1214
  836MOL0     H12819   8.252  -1.589  11.458  1.4755 -1.4297 -0.6791
  836MOL0     H12820   8.531  -1.524  11.332  3.7477  1.9179 -0.1906
  836MOL0     H12821   8.729  -1.446  11.381  2.3850 -0.8779  2.0532
  836MOL0     H12822   8.771  -1.293  11.431  0.3929  0.3823  0.6874
  836MOL0     H12823   8.685  -1.403  11.539 -1.2209  1.7383 -0.0664
  836MOL0     H12824   8.683  -0.780  11.254  1.8144 -2.4587  0.4880
  836MOL0     H12825   8.762  -0.569  11.367  2.8366 -0.7357  1.6908
  836MOL0     H12826   8.486  -0.447  11.587  0.1925 -4.6225  2.2947
  836MOL0     H12827   8.525  -0.433  11.750 -3.3850  0.2151 -0.4440
  836MOL0     H12828   8.528  -0.208  11.649 -0.6963 -1.5808  0.1919
  836MOL0     H12829   8.699  -0.241  11.698  0.4747 -1.3177 -0.8769
  836MOL0     H12830   8.619  -0.292  11.408  0.2440 -1.3501  1.0334
  836MOL0     H12831   8.779  -0.290  11.482  0.8518  0.7553  2.2331
  836MOL0     H12832   8.607  -0.044  11.512  0.8129  3.4766 -2.5694
  836MOL0     H12833   8.785  -0.077  11.525 -1.6899 -0.6120  2.9522
  836MOL0     H12834   8.602  -0.079  11.283 -0.4811 -1.5355 -0.1767
  836MOL0     H12835   8.781  -0.086  11.269  0.6724  0.8144  0.1070
  836MOL0     H12836   8.625   0.141  11.383 -1.3540 -0.2981 -0.9740
  836MOL0     H12837   8.796   0.107  11.419 -1.5503 -2.1345  0.9134
  836MOL0     H12838   8.668   0.154  11.144  1.9783  0.5234 -2.9085
  836MOL0     H12839   8.838   0.108  11.159  0.5511 -2.0151  1.5291
  836MOL0     H12840   8.714   0.367  11.273 -0.5067  0.3688 -0.6408
  836MOL0     H12841   8.794   0.358  11.117  2.8322  2.7235  1.0005
  836MOL0     H12842   8.580  -0.685  11.734 -0.7805 -3.6043  0.4966
  836MOL0     H12843   8.502  -0.885  11.636  0.9746  1.6684  2.5488
  836MOL0     H12844   8.304  -1.086  11.369 -0.8729 -0.5324 -1.1180
  836MOL0     H12845   8.182  -1.280  11.264 -0.9429  5.4104  2.0603
  836MOL0     H12846   7.887   0.009  11.178  0.4976 -0.2783 -1.0821
  836MOL0     H12847   8.085   0.161  11.143  1.5998  1.3720  0.9878
  836MOL0     H12848   8.446   0.306  10.930 -0.4273 -0.7407  0.6885
  836MOL0     H12849   8.546   0.521  10.912  2.5464  0.0468  1.6412
  836MOL0     H12850   8.685   0.712  10.933 -1.8379 -1.4446 -0.5723
  836MOL0     H12851   8.518   0.754  10.958 -0.0523  1.0485 -2.0800
  836MOL0     H12852   8.659   0.956  10.934 -3.1622 -1.6459  0.2300
  836MOL0     H12853   8.771   0.901  11.065 -0.9900 -0.0017  2.2666
  836MOL0     H12854   8.633   0.980  11.233 -1.8645  3.0427  0.6200
  836MOL0     H12855   8.482   0.923  11.142  1.1796 -1.2055 -0.8685
  836MOL0     H12856   8.620   1.193  11.104  0.0562 -0.3567  1.7001
  836MOL0     H12857   8.464   1.153  11.181 -2.3165 -4.2471 -0.3976
  836MOL0     H12858   8.355   1.153  10.774 -0.3940  0.0583  0.3713
  836MOL0     H12859   8.513   0.588  11.333 -1.7753  3.4841 -1.9724
  836MOL0     H12860   8.404   0.360  11.357 -4.6068 -0.5720 -0.5414
  837MOL0     O12861   0.254  10.820   2.906 -0.5546  0.5506 -0.6286
  837MOL0     C12862   0.209  10.726   2.974  0.0492  0.5747 -0.0458
  837MOL0     O12863   0.111  10.646   2.937  0.0927  0.1721  0.1428
  837MOL0     C12864   0.004  10.700   2.883 -0.1567 -0.5636 -0.1937
  837MOL0     C12865  -0.043  10.826   2.913  0.0710 -0.4058  0.1422
  837MOL0     C12866  -0.157  10.874   2.856  0.0050 -0.0772 -0.0143
  837MOL0     C12867  -0.236  10.784   2.783  0.2335  0.6524  0.0093
  837MOL0     O12868  -0.350  10.817   2.716  0.5527  0.0707 -0.1732
  837MOL0     C12869  -0.446  10.890   2.799 -0.1197 -0.9072  0.8679
  837MOL0     C12870  -0.579  10.851   2.734  0.5546  0.0947  0.3226
  837MOL0     C12871  -0.694  10.923   2.807  0.5704 -0.9869  0.0174
  837MOL0     C12872  -0.831  10.879   2.756 -0.0951  0.7291  0.3279
  837MOL0     C12873  -0.942  10.979   2.783  0.1767  0.6756  0.4938
  837MOL0     C12874  -0.955  11.016   2.934  0.7006 -0.2281  1.1925
  837MOL0     C12875  -1.005  10.904   3.027 -0.6720  0.0833  0.3804
  837MOL0     C12876  -1.150  10.857   3.016  0.2650  0.1980 -0.1485
  837MOL0     N12877  -1.244  10.967   2.998  1.3165 -0.1772 -0.0272
  837MOL0     C12878  -1.296  11.036   3.099  1.0731  0.3522  0.3778
  837MOL0     C12879  -1.353  11.142   3.045 -0.4787 -0.1289  0.1470
  837MOL0     C12880  -1.442  11.244   3.110 -0.5585 -0.5183 -0.5160
  837MOL0     C12881  -1.588  11.207   3.137 -0.8631  0.5278 -0.8858
  837MOL0     C12882  -1.665  11.318   3.211  0.1482 -0.1213  0.4761
  837MOL0     C12883  -1.803  11.276   3.237 -0.4548  0.4583 -0.2754
  837MOL0     O12884  -1.787  11.177   3.339  0.4697  0.5903  0.3944
  837MOL0     C12885  -1.905  11.103   3.360 -0.7382  0.4412 -0.1937
  837MOL0     C12886  -1.903  10.962   3.355  0.6296 -0.8966  0.4568
  837MOL0     C12887  -2.013  10.889   3.391 -0.2720  0.3840 -0.3785
  837MOL0     C12888  -1.993  10.740   3.403  0.1081 -0.1063  0.2250
  837MOL0     C12889  -2.141  10.957   3.423  0.3733  0.1323 -0.5631
  837MOL0     C12890  -2.270  10.888   3.475  0.2188 -0.5859 -0.9794
  837MOL0     O12891  -2.382  10.972   3.495  0.9641  0.1019 -0.2110
  837MOL0     C12892  -2.500  10.907   3.531 -0.8533  1.0062  0.7318
  837MOL0     C12893  -2.607  10.906   3.440 -0.4195 -0.7264  0.5702
  837MOL0     C12894  -2.722  10.845   3.473 -0.4372 -0.2530  0.3348
  837MOL0     C12895  -2.743  10.779   3.593  0.6155  0.5722  0.6342
  837MOL0     O12896  -2.851  10.696   3.588 -0.2199  0.2742 -0.8698
  837MOL0     C12897  -2.876  10.595   3.691 -0.0542  0.2085 -0.0916
  837MOL0     C12898  -2.983  10.484   3.645 -0.3061 -0.9749 -0.6398
  837MOL0     C12899  -3.116  10.552   3.591  0.7698  0.1180 -0.6443
  837MOL0     C12900  -3.108  10.553   3.438 -1.1913  0.4216  1.0571
  837MOL0     C12901  -3.232  10.588   3.361 -0.1628 -0.0385  0.2277
  837MOL0     C12902  -3.303  10.716   3.389 -0.5441  1.2251 -0.1329
  837MOL0     C12903  -3.383  10.725   3.521  0.2375  0.0534  0.0137
  837MOL0     C12904  -3.481  10.840   3.537  0.4123  0.4388 -0.1669
  837MOL0    Cl12905  -3.411  10.997   3.499  0.3270  0.1427  0.1993
  837MOL0     C12906  -2.643  10.788   3.687 -0.5557  0.0946  0.1017
  837MOL0     C12907  -2.519  10.849   3.658  0.8127 -0.7162  0.1089
  837MOL0     O12908  -2.278  10.763   3.494  0.3242  0.1081 -0.4912
  837MOL0     C12909  -2.142  11.097   3.409  0.1035 -0.3407  0.5487
  837MOL0     C12910  -2.026  11.167   3.380 -0.5182  0.8249 -0.8267
  837MOL0     N12911  -1.346  11.127   2.904 -0.5363  0.7105  0.1240
  837MOL0     N12912  -1.284  11.016   2.874 -0.5291 -0.0358 -0.4603
  837MOL0     C12913  -0.197  10.652   2.754  0.0820  0.4759 -0.0692
  837MOL0     C12914  -0.075  10.615   2.806  0.2073  0.4994 -0.1024
  837MOL0     C12915   0.304  10.676   3.076  0.5815 -0.1603 -0.3954
  837MOL0     C12916   0.425  10.734   3.089 -1.1235  0.4298  0.1460
  837MOL0     C12917   0.500  10.700   3.201  0.3719 -1.1502  0.2798
  837MOL0     C12918   0.454  10.620   3.306  0.3131  0.6720  0.8850
  837MOL0     O12919   0.547  10.604   3.410 -1.1479 -0.6926 -0.0703
  837MOL0     C12920   0.515  10.520   3.522  1.0008  0.1341 -0.2639
  837MOL0     C12921   0.616  10.559   3.637  0.1311 -0.1647 -0.8445
  837MOL0     C12922   0.720  10.439   3.658  0.6486  1.0150  0.3216
  837MOL0     C12923   0.797  10.453   3.792 -0.3731 -0.1221 -0.1192
  837MOL0     C12924   0.906  10.359   3.808  0.3915  0.5131 -0.1259
  837MOL0     C12925   1.005  10.292   3.811  1.2747  0.3445 -0.1724
  837MOL0     C12926   0.335  10.544   3.285  0.4698 -1.7198 -0.2745
  837MOL0     C12927   0.259  10.583   3.176  0.1939  1.0310 -0.3442
  837MOL0     H12928   0.016  10.893   2.975 -0.6598  2.4059 -1.9613
  837MOL0     H12929  -0.188  10.977   2.868  0.7795  0.3996 -1.7991
  837MOL0     H12930  -0.447  10.865   2.905  2.3723 -2.7181  0.5534
  837MOL0     H12931  -0.421  10.996   2.782 -1.5572 -0.1595  3.0074
  837MOL0     H12932  -0.585  10.871   2.627 -0.8979  1.5372  0.6343
  837MOL0     H12933  -0.584  10.744   2.755  0.8812  0.1439  0.6730
  837MOL0     H12934  -0.690  10.892   2.912 -3.4370  2.0998  1.3490
  837MOL0     H12935  -0.674  11.029   2.792 -1.2039 -0.4349  1.2279
  837MOL0     H12936  -0.820  10.870   2.648 -2.0156 -2.3210  0.2494
  837MOL0     H12937  -0.866  10.783   2.794 -3.0580  0.4452 -2.6131
  837MOL0     H12938  -0.920  11.069   2.725 -0.4031 -0.8066 -2.1925
  837MOL0     H12939  -1.031  10.934   2.738 -1.1937  2.5756  1.1389
  837MOL0     H12940  -0.860  11.049   2.979  1.6299 -1.5640  0.2954
  837MOL0     H12941  -1.028  11.097   2.944 -2.7366 -2.4101 -3.0447
  837MOL0     H12942  -0.938  10.818   3.020  0.5524  1.1067 -1.6366
  837MOL0     H12943  -0.998  10.940   3.130 -2.1995  0.1829  0.4816
  837MOL0     H12944  -1.187  10.802   3.103  0.5169 -0.2955 -0.3522
  837MOL0     H12945  -1.155  10.788   2.931 -2.5202 -1.7914  1.4802
  837MOL0     H12946  -1.312  10.998   3.200  0.5485 -1.1614 -0.2361
  837MOL0     H12947  -1.405  11.281   3.206 -1.9795 -2.4731  0.8741
  837MOL0     H12948  -1.443  11.328   3.040  2.4659 -0.6018 -0.7963
  837MOL0     H12949  -1.570  11.133   3.215  0.6824  1.7730 -0.0102
  837MOL0     H12950  -1.645  11.170   3.051 -0.6750  0.4839 -0.9925
  837MOL0     H12951  -1.667  11.410   3.152  1.3585 -0.3592  0.0307
  837MOL0     H12952  -1.616  11.338   3.307  0.0090 -2.4761  1.0848
  837MOL0     H12953  -1.854  11.227   3.154 -0.0740 -2.2592  0.9786
  837MOL0     H12954  -1.869  11.350   3.282 -0.9964 -0.2661  0.1534
  837MOL0     H12955  -1.814  10.911   3.318 -0.0530 -2.2047  0.5792
  837MOL0     H12956  -1.984  10.708   3.299 -2.5788 -1.8862  0.4528
  837MOL0     H12957  -1.894  10.726   3.447  0.3343  0.0914 -0.2138
  837MOL0     H12958  -2.059  10.679   3.466  1.0862 -0.6333  0.7629
  837MOL0     H12959  -2.611  10.954   3.342 -1.2212  0.1172  1.0012
  837MOL0     H12960  -2.803  10.845   3.401 -0.9009 -1.5907  0.8172
  837MOL0     H12961  -2.781  10.544   3.710  0.2903  0.8799  0.0063
  837MOL0     H12962  -2.906  10.647   3.782 -1.9385 -0.4645 -0.2615
  837MOL0     H12963  -2.941  10.424   3.564  1.0298 -1.1810  0.1673
  837MOL0     H12964  -3.002  10.422   3.733 -0.0393 -0.8582 -0.4957
  837MOL0     H12965  -3.126  10.652   3.636 -1.9370  0.0841 -1.0204
  837MOL0     H12966  -3.198  10.490   3.628  0.9433  0.6324  0.6774
  837MOL0     H12967  -3.025  10.618   3.408  0.0969 -1.0513  1.3288
  837MOL0     H12968  -3.072  10.460   3.394  2.8014  2.2118  0.0720
  837MOL0     H12969  -3.302  10.505   3.370 -1.9474  1.4398  0.8100
  837MOL0     H12970  -3.198  10.596   3.257 -2.2323 -1.5261 -0.6309
  837MOL0     H12971  -3.234  10.801   3.382 -1.5353  2.1670  1.0596
  837MOL0     H12972  -3.368  10.721   3.302 -0.0369  1.2204 -0.5196
  837MOL0     H12973  -3.308  10.746   3.599 -0.2755 -0.9568  0.8065
  837MOL0     H12974  -3.431  10.631   3.549  0.2034 -0.9429 -3.0562
  837MOL0     H12975  -3.505  10.845   3.643  4.0747 -1.2340  0.8683
  837MOL0     H12976  -3.576  10.829   3.483 -0.9400  2.6096  1.5615
  837MOL0     H12977  -2.669  10.741   3.782 -3.1975  1.3117  0.0735
  837MOL0     H12978  -2.431  10.862   3.721  4.1805 -2.7366 -3.6729
  837MOL0     H12979  -2.235  11.143   3.441 -1.0605 -0.4155 -2.4169
  837MOL0     H12980  -2.032  11.275   3.376  1.5112  0.9429 -3.0340
  837MOL0     H12981  -0.242  10.581   2.685 -1.9250  0.2377  1.3762
  837MOL0     H12982  -0.038  10.515   2.784 -1.1412 -0.1064  0.2912
  837MOL0     H12983   0.469  10.813   3.030 -0.9828  0.0877 -0.2142
  837MOL0     H12984   0.591  10.754   3.221  0.6057 -1.0407 -1.0027
  837MOL0     H12985   0.410  10.537   3.547 -0.2977 -4.0055 -2.0565
  837MOL0     H12986   0.525  10.413   3.499 -0.1531  0.4283 -2.3304
  837MOL0     H12987   0.568  10.565   3.735  0.0405  1.9871 -0.9803
  837MOL0     H12988   0.666  10.655   3.619  0.7549 -0.3592 -0.2117
  837MOL0     H12989   0.788  10.420   3.575 -0.6353 -2.5864 -0.0939
  837MOL0     H12990   0.658  10.350   3.675  0.3591  1.4567  1.7392
  837MOL0     H12991   0.715  10.435   3.863 -0.3871 -2.4308 -0.6374
  837MOL0     H12992   0.839  10.553   3.806 -0.2171 -0.0347 -1.1376
  837MOL0     H12993   1.094  10.234   3.823  0.8192 -0.0008  1.8936
  837MOL0     H12994   0.306  10.465   3.353 -1.5684  2.0905  3.7440
  837MOL0     H12995   0.173  10.521   3.154  2.0054 -2.2076  1.0052
  838MOL0     O12996  11.089   9.891  10.704 -0.6319 -0.1733 -0.4316
  838MOL0     C12997  11.127   9.780  10.744  1.1714 -1.1765 -0.0521
  838MOL0     O12998  11.036   9.680  10.786  0.7170 -0.6512  0.4689
  838MOL0     C12999  10.903   9.712  10.760 -0.4832 -0.5430  0.5990
  838MOL0     C13000  10.829   9.796  10.844  0.8943 -0.0831  0.6496
  838MOL0     C13001  10.699   9.837  10.827  0.2179 -0.6697 -0.8967
  838MOL0     C13002  10.621   9.754  10.739 -0.1055  0.1305  0.5497
  838MOL0     O13003  10.491   9.765  10.728 -0.0104 -0.1497 -0.1565
  838MOL0     C13004  10.413   9.741  10.847  0.3661  0.6842 -0.5908
  838MOL0     C13005  10.304   9.635  10.814 -0.3611 -0.4100  0.1210
  838MOL0     C13006  10.234   9.600  10.947  0.1482  0.8207 -0.7931
  838MOL0     C13007  10.121   9.499  10.916 -0.5444  0.1273  0.7847
  838MOL0     C13008  10.058   9.466  11.046  0.6488 -0.3870  0.4256
  838MOL0     C13009   9.950   9.363  11.023 -0.1329 -0.3816 -0.2625
  838MOL0     C13010   9.850   9.369  11.144  0.6672 -1.1272 -0.2751
  838MOL0     C13011   9.706   9.306  11.122  0.1805 -0.1168  0.6233
  838MOL0     N13012   9.715   9.163  11.084 -0.9653  0.9182 -0.3459
  838MOL0     C13013   9.638   9.058  11.142  0.0429 -0.4729 -1.0457
  838MOL0     C13014   9.632   8.964  11.050 -0.1127  0.5685 -0.9754
  838MOL0     C13015   9.552   8.840  11.086  0.1513 -0.6723 -0.5708
  838MOL0     C13016   9.514   8.753  10.974  0.1541  0.4086  0.5635
  838MOL0     C13017   9.444   8.619  11.023  0.3397 -1.4007 -0.6403
  838MOL0     C13018   9.290   8.627  11.029 -0.5670  0.1548 -0.5295
  838MOL0     O13019   9.239   8.675  10.905  0.3889  0.1531  0.3593
  838MOL0     C13020   9.105   8.668  10.893  0.4779 -0.0774  0.1873
  838MOL0     C13021   9.049   8.615  10.769  0.3675  0.5378 -0.0583
  838MOL0     C13022   8.914   8.590  10.752 -0.4413  0.6730 -0.5190
  838MOL0     C13023   8.853   8.521  10.634 -0.0177 -0.4934 -0.2284
  838MOL0     C13024   8.825   8.638  10.858 -0.0655 -0.2299  0.2791
  838MOL0     C13025   8.678   8.615  10.863  0.2304 -0.3523 -0.3860
  838MOL0     O13026   8.621   8.495  10.820 -0.4838 -0.0274  0.8252
  838MOL0     C13027   8.483   8.475  10.828  0.5087 -0.4612 -0.2515
  838MOL0     C13028   8.406   8.496  10.949 -0.1162  0.6364 -0.4759
  838MOL0     C13029   8.268   8.496  10.951  0.0893 -0.4035  0.3246
  838MOL0     C13030   8.201   8.452  10.833  0.5309 -0.2430  0.1709
  838MOL0     O13031   8.062   8.454  10.841 -0.4023  0.2980 -0.0538
  838MOL0     C13032   7.989   8.440  10.714 -1.0424 -0.0796  0.1667
  838MOL0     C13033   7.834   8.446  10.736 -0.2915  0.5453  0.2702
  838MOL0     C13034   7.790   8.320  10.819 -0.2071 -0.2089  0.4608
  838MOL0     C13035   7.644   8.305  10.777  0.2936 -0.4227 -0.0828
  838MOL0     C13036   7.573   8.192  10.858  0.6257 -0.8291  0.3787
  838MOL0     C13037   7.439   8.153  10.797 -0.1607 -0.3006  0.7392
  838MOL0     C13038   7.343   8.265  10.748  0.3828 -0.0883  0.4700
  838MOL0     C13039   7.301   8.345  10.871 -0.0144 -0.7808  0.8177
  838MOL0    Cl13040   7.271   8.503  10.803 -0.0796 -0.0713 -0.3448
  838MOL0     C13041   8.276   8.423  10.717 -1.1616  0.6696  0.9469
  838MOL0     C13042   8.411   8.445  10.716  0.1551  0.0447  0.3073
  838MOL0     O13043   8.614   8.706  10.918 -0.1733 -0.1622 -0.8720
  838MOL0     C13044   8.884   8.696  10.981  0.2358  1.5644 -0.0520
  838MOL0     C13045   9.016   8.717  10.988 -0.0672 -0.8092  0.7131
  838MOL0     N13046   9.711   9.005  10.936 -0.7926 -0.0614 -0.0649
  838MOL0     N13047   9.758   9.123  10.956 -0.3318  0.0779 -1.1709
  838MOL0     C13048  10.693   9.688  10.634 -0.0868 -0.4963 -0.1620
  838MOL0     C13049  10.834   9.669  10.648  0.2702  0.3361  0.2097
  838MOL0     C13050  11.274   9.757  10.738 -0.5025 -0.0665 -0.4591
  838MOL0     C13051  11.328   9.632  10.752  0.2403  0.3938 -1.0604
  838MOL0     C13052  11.466   9.618  10.747  0.4728 -0.1888 -0.8410
  838MOL0     C13053  11.549   9.721  10.720  0.7113  0.1836  0.4598
  838MOL0     O13054  11.684   9.719  10.723  0.1093  0.2277  0.9598
  838MOL0     C13055  11.745   9.594  10.750 -0.4894 -0.4202  0.0537
  838MOL0     C13056  11.900   9.602  10.751  0.0944 -0.1477  0.2877
  838MOL0     C13057  11.943   9.728  10.840  0.5329  0.9536 -0.2294
  838MOL0     C13058  12.094   9.747  10.802  0.3333  0.8677  0.3173
  838MOL0     C13059  12.179   9.643  10.848  0.8412 -0.3557 -0.6253
  838MOL0     C13060  12.250   9.554  10.882  0.1072 -0.3765  0.1365
  838MOL0     C13061  11.494   9.848  10.706 -1.1173 -0.7819 -0.0306
  838MOL0     C13062  11.360   9.863  10.719  0.8249 -0.4789 -0.0701
  838MOL0     H13063  10.883   9.839  10.929  0.5996  1.2259  0.2010
  838MOL0     H13064  10.654   9.910  10.894 -2.2708  0.7611 -3.9000
  838MOL0     H13065  10.482   9.707  10.925  0.8365  0.7016 -0.9905
  838MOL0     H13066  10.364   9.833  10.878  0.6989  1.5780 -2.5197
  838MOL0     H13067  10.238   9.672  10.734  0.1883 -1.9656 -1.1151
  838MOL0     H13068  10.347   9.545  10.768 -2.6130 -0.7197 -1.5633
  838MOL0     H13069  10.303   9.552  11.017 -1.6188 -3.7278 -1.8178
  838MOL0     H13070  10.192   9.686  11.000 -0.2356 -0.2586  0.6881
  838MOL0     H13071  10.049   9.559  10.860  1.5284  2.1505  0.1399
  838MOL0     H13072  10.158   9.415  10.856 -4.3906 -1.3211  0.1444
  838MOL0     H13073  10.132   9.420  11.111 -0.4351  0.1376  2.1123
  838MOL0     H13074  10.022   9.557  11.096 -0.7872 -1.0843  0.7151
  838MOL0     H13075   9.899   9.380  10.927 -0.8363  2.1530  0.4701
  838MOL0     H13076   9.998   9.269  10.998 -0.3329 -0.0645 -1.9801
  838MOL0     H13077   9.887   9.311  11.229  1.6117  0.1668  0.2371
  838MOL0     H13078   9.825   9.476  11.155  0.6612 -1.3354  2.5341
  838MOL0     H13079   9.661   9.364  11.042 -2.3943 -2.7869 -0.0391
  838MOL0     H13080   9.646   9.327  11.211 -0.8355  2.0735 -0.5158
  838MOL0     H13081   9.594   9.045  11.240  0.3039  1.0937 -0.6956
  838MOL0     H13082   9.619   8.771  11.138  1.1166 -2.1983 -3.5652
  838MOL0     H13083   9.461   8.872  11.136  0.3246  0.1004 -0.7415
  838MOL0     H13084   9.606   8.722  10.925 -0.1823  0.7628 -0.3193
  838MOL0     H13085   9.450   8.802  10.899  0.2063  0.5112  0.5851
  838MOL0     H13086   9.475   8.589  11.124 -1.1432  0.8482  0.5710
  838MOL0     H13087   9.465   8.546  10.944  0.1265  1.1263 -3.1818
  838MOL0     H13088   9.256   8.698  11.105 -0.6028 -0.7988  0.3545
  838MOL0     H13089   9.260   8.523  11.045  0.2869 -0.2489 -1.4394
  838MOL0     H13090   9.117   8.578  10.693 -2.4952 -1.4019 -1.8583
  838MOL0     H13091   8.812   8.423  10.661 -0.5827 -0.1753  0.1003
  838MOL0     H13092   8.775   8.575  10.579  0.9808 -0.6161 -1.8402
  838MOL0     H13093   8.934   8.498  10.565 -0.0660 -0.8490 -0.1642
  838MOL0     H13094   8.459   8.513  11.043 -2.7239  0.1948  1.1769
  838MOL0     H13095   8.209   8.521  11.038  1.5685 -1.2724  1.6409
  838MOL0     H13096   8.016   8.522  10.646  0.4614 -2.1375 -1.8721
  838MOL0     H13097   8.012   8.349  10.659 -1.6434 -1.0862  1.5262
  838MOL0     H13098   7.807   8.532  10.798 -1.4858  0.4799 -0.1358
  838MOL0     H13099   7.778   8.456  10.643  0.6379  2.6587 -0.1080
  838MOL0     H13100   7.798   8.348  10.924  0.5866  0.3942  0.2454
  838MOL0     H13101   7.841   8.226  10.793  0.8119  0.8079 -1.3895
  838MOL0     H13102   7.583   8.395  10.788 -2.9652 -2.5171  0.4379
  838MOL0     H13103   7.649   8.276  10.672  2.1188  0.9732 -0.4179
  838MOL0     H13104   7.543   8.224  10.958 -3.1366  0.4510 -0.9994
  838MOL0     H13105   7.638   8.104  10.862 -0.5888 -1.7128  1.1611
  838MOL0     H13106   7.454   8.083  10.715 -0.2737  0.5553 -0.0234
  838MOL0     H13107   7.379   8.105  10.874 -0.7610  1.5017  1.4639
  838MOL0     H13108   7.266   8.213  10.690  3.3904 -3.3680 -0.9178
  838MOL0     H13109   7.403   8.326  10.681  1.6380 -0.6841  1.0176
  838MOL0     H13110   7.368   8.338  10.957 -2.5015 -2.6476  2.7756
  838MOL0     H13111   7.204   8.309  10.906  0.0765 -0.2713  1.6150
  838MOL0     H13112   8.224   8.384  10.630  0.1222  1.5409 -0.2256
  838MOL0     H13113   8.473   8.432  10.628  0.3703  1.2528  0.2533
  838MOL0     H13114   8.821   8.742  11.057 -1.0316  1.2235 -0.8505
  838MOL0     H13115   9.053   8.769  11.076 -1.7653  2.0502 -0.1077
  838MOL0     H13116  10.643   9.644  10.548 -0.1074  0.6669 -0.7577
  838MOL0     H13117  10.891   9.614  10.573 -0.1837  1.3070 -0.8748
  838MOL0     H13118  11.258   9.549  10.757  1.2123 -0.3866  0.4592
  838MOL0     H13119  11.511   9.520  10.761  2.1962  0.5944 -0.6185
  838MOL0     H13120  11.721   9.560  10.851 -0.6521  0.8054  0.4397
  838MOL0     H13121  11.711   9.512  10.686 -4.8177  1.2000 -0.0498
  838MOL0     H13122  11.933   9.615  10.647 -3.0588 -1.0090 -0.9372
  838MOL0     H13123  11.933   9.509  10.798 -0.7309  0.1506  1.5042
  838MOL0     H13124  11.931   9.696  10.944 -0.8623 -0.6945 -0.8524
  838MOL0     H13125  11.883   9.819  10.827  1.6326  1.8774  0.9386
  838MOL0     H13126  12.122   9.843  10.847 -0.6578  1.0535  0.5576
  838MOL0     H13127  12.105   9.756  10.693  0.0766 -0.5371  0.1467
  838MOL0     H13128  12.306   9.467  10.910  0.2174 -0.7373 -1.1222
  838MOL0     H13129  11.554   9.938  10.705 -0.0536 -1.4218  1.3960
  838MOL0     H13130  11.320   9.964  10.715  0.9922 -0.1876  2.9418
  839MOL0     O13131   5.056   6.569   0.882  0.0964  0.6366 -0.4416
  839MOL0     C13132   5.030   6.475   0.803 -0.2634 -0.2052  0.4177
  839MOL0     O13133   4.913   6.462   0.734  0.3206 -0.1332 -0.0664
  839MOL0     C13134   4.802   6.496   0.807 -0.4240  0.1186  0.3091
  839MOL0     C13135   4.719   6.396   0.858 -0.2793 -0.2813  0.1259
  839MOL0     C13136   4.614   6.418   0.949 -0.1428  0.0716 -0.5870
  839MOL0     C13137   4.582   6.549   0.987  0.1174 -0.2908  0.4914
  839MOL0     O13138   4.491   6.560   1.087 -0.2262 -0.1552 -0.3880
  839MOL0     C13139   4.444   6.689   1.119  0.7501 -0.5622 -0.0586
  839MOL0     C13140   4.317   6.663   1.209  0.6160 -1.0792 -0.0793
  839MOL0     C13141   4.335   6.579   1.340  0.0916 -0.5338 -0.5597
  839MOL0     C13142   4.207   6.536   1.408  0.2663 -0.2855 -0.4263
  839MOL0     C13143   4.203   6.431   1.514  0.8022  0.1616  0.5238
  839MOL0     C13144   4.054   6.400   1.540 -0.4270  0.4921  0.4939
  839MOL0     C13145   4.032   6.275   1.627  0.3678 -0.4303  1.0265
  839MOL0     C13146   4.030   6.142   1.551 -0.0201 -0.9291 -1.0228
  839MOL0     N13147   3.908   6.109   1.482  0.4002  0.7073  0.1087
  839MOL0     C13148   3.824   6.012   1.524 -0.5982 -0.4856 -0.3607
  839MOL0     C13149   3.744   5.984   1.420 -0.4046  0.8898 -0.5811
  839MOL0     C13150   3.655   5.858   1.408  0.6977  0.2929 -0.6358
  839MOL0     C13151   3.508   5.895   1.448  0.3858 -0.1932  0.3324
  839MOL0     C13152   3.455   6.000   1.354  0.4573 -0.6559 -1.0509
  839MOL0     C13153   3.305   5.980   1.335  0.1401 -0.3503  0.4518
  839MOL0     O13154   3.265   6.021   1.202  0.1211  0.4537 -0.5560
  839MOL0     C13155   3.132   6.014   1.167 -0.6892  0.0740 -0.5220
  839MOL0     C13156   3.022   6.022   1.244 -0.9921 -0.0301 -0.6908
  839MOL0     C13157   2.890   6.020   1.191  0.1944 -0.0857 -0.1086
  839MOL0     C13158   2.780   6.041   1.284  0.0930  0.9617  0.1308
  839MOL0     C13159   2.873   6.013   1.049 -0.0190  0.2592 -0.1727
  839MOL0     C13160   2.738   6.019   0.981  0.3643  0.5753  0.2480
  839MOL0     O13161   2.734   6.102   0.874  0.1867  0.0580 -0.3553
  839MOL0     C13162   2.608   6.119   0.836 -0.0905  0.9700  0.2647
  839MOL0     C13163   2.533   6.219   0.906 -0.7308 -0.6849  0.2068
  839MOL0     C13164   2.401   6.244   0.877  0.4221  0.2438  0.2005
  839MOL0     C13165   2.339   6.165   0.780 -0.5231  0.2187  0.0217
  839MOL0     O13166   2.207   6.187   0.765  0.0354  0.0830  0.3437
  839MOL0     C13167   2.124   6.083   0.721 -0.1944 -0.3047  0.2296
  839MOL0     C13168   1.973   6.098   0.738  0.2702 -0.0226  0.3561
  839MOL0     C13169   1.918   6.214   0.656  0.2953  0.2090 -0.6272
  839MOL0     C13170   1.763   6.209   0.680 -0.1038  0.1828  0.3997
  839MOL0     C13171   1.699   6.336   0.627  1.4002  0.1017 -0.0154
  839MOL0     C13172   1.546   6.325   0.632 -0.2587 -0.5719  0.2889
  839MOL0     C13173   1.480   6.451   0.574  0.3153 -0.4335  0.0753
  839MOL0     C13174   1.468   6.559   0.676 -0.6779 -0.2368  0.3637
  839MOL0    Cl13175   1.425   6.707   0.576  0.0435  0.2817  0.1180
  839MOL0     C13176   2.415   6.073   0.702 -0.5105  0.8166 -1.2705
  839MOL0     C13177   2.548   6.045   0.735 -0.1846  0.4229 -0.0210
  839MOL0     O13178   2.646   5.950   1.017  0.3413  0.3584  0.0886
  839MOL0     C13179   2.987   6.015   0.971  0.1815  0.5727 -0.2185
  839MOL0     C13180   3.113   6.015   1.027 -0.2556 -0.3697 -0.4730
  839MOL0     N13181   3.785   6.059   1.311  0.3250  0.3262  0.5365
  839MOL0     N13182   3.894   6.120   1.346  0.7831 -0.2047 -0.0639
  839MOL0     C13183   4.659   6.654   0.933  0.1358  1.0217  0.4609
  839MOL0     C13184   4.766   6.628   0.845  0.1954 -0.5645 -1.2459
  839MOL0     C13185   5.140   6.380   0.772 -0.0943 -0.4343 -0.3205
  839MOL0     C13186   5.248   6.372   0.855 -0.0857 -0.6813  0.4193
  839MOL0     C13187   5.359   6.295   0.820  0.4116  0.1863  0.2132
  839MOL0     C13188   5.357   6.237   0.689  0.3359  0.7075  0.0649
  839MOL0     O13189   5.481   6.176   0.652  0.2547  0.0811  0.1448
  839MOL0     C13190   5.513   6.170   0.512  0.7201 -0.4110  1.0975
  839MOL0     C13191   5.660   6.162   0.493  0.2211 -0.2734  0.4656
  839MOL0     C13192   5.716   6.024   0.538  0.5872  0.2694 -0.0141
  839MOL0     C13193   5.864   6.000   0.493 -0.6471 -0.5181 -0.5030
  839MOL0     C13194   5.899   5.867   0.547 -1.0360 -0.1655  0.1100
  839MOL0     C13195   5.951   5.760   0.581  0.4866  0.1313 -0.0631
  839MOL0     C13196   5.244   6.246   0.603 -0.3018 -0.2231 -0.1570
  839MOL0     C13197   5.139   6.321   0.645 -0.2313  0.0428  0.5840
  839MOL0     H13198   4.749   6.295   0.829  2.3298  0.7709 -1.2564
  839MOL0     H13199   4.560   6.335   0.994  1.3900  1.2366  4.0078
  839MOL0     H13200   4.516   6.746   1.179 -0.0845 -1.1588  1.5705
  839MOL0     H13201   4.414   6.745   1.030 -3.3335  0.1758  1.5374
  839MOL0     H13202   4.285   6.758   1.252 -1.0439 -0.9444 -1.5061
  839MOL0     H13203   4.242   6.623   1.140  2.1498 -0.1452 -2.4071
  839MOL0     H13204   4.391   6.491   1.308  1.7976  0.0979  0.4797
  839MOL0     H13205   4.398   6.631   1.413  0.6110 -1.1923 -0.5292
  839MOL0     H13206   4.158   6.620   1.457 -2.3387 -0.8407 -1.8642
  839MOL0     H13207   4.147   6.496   1.325  0.3181  0.9496 -1.0847
  839MOL0     H13208   4.247   6.342   1.470  0.8131  0.3732  0.1077
  839MOL0     H13209   4.240   6.465   1.611 -1.4644  2.5521  0.7014
  839MOL0     H13210   4.012   6.485   1.595  1.4442  0.5614  1.9011
  839MOL0     H13211   4.003   6.382   1.445  1.3493 -1.2836 -0.1971
  839MOL0     H13212   4.111   6.277   1.702 -0.4818  1.2444  1.9287
  839MOL0     H13213   3.942   6.294   1.686  0.1891  1.2494  0.2627
  839MOL0     H13214   4.047   6.064   1.625 -0.2293 -0.9735 -1.0208
  839MOL0     H13215   4.116   6.155   1.484  1.0364 -3.3449 -0.2420
  839MOL0     H13216   3.830   5.961   1.620  4.0855  1.3096  0.5836
  839MOL0     H13217   3.649   5.813   1.308 -1.1106  4.5048 -2.6311
  839MOL0     H13218   3.690   5.767   1.459  0.9387 -1.3828 -3.5775
  839MOL0     H13219   3.497   5.925   1.552  0.4444  0.9730  0.0167
  839MOL0     H13220   3.463   5.795   1.445  0.2511 -0.1108 -0.8385
  839MOL0     H13221   3.502   5.981   1.257  2.2413  2.4309 -0.9024
  839MOL0     H13222   3.488   6.092   1.402  0.1659 -1.2772  0.3979
  839MOL0     H13223   3.242   6.021   1.415  1.7308 -2.2484  2.8246
  839MOL0     H13224   3.288   5.872   1.344  2.4683 -0.7135  1.0353
  839MOL0     H13225   3.032   6.026   1.352  0.8911  0.9964 -0.8641
  839MOL0     H13226   2.797   6.140   1.329 -1.3030  0.7516  1.2298
  839MOL0     H13227   2.681   6.036   1.237  0.4270 -0.0775 -0.4914
  839MOL0     H13228   2.773   5.958   1.355  1.0581 -1.5694 -2.5593
  839MOL0     H13229   2.578   6.278   0.985 -0.5603 -1.1397  0.4530
  839MOL0     H13230   2.343   6.312   0.939  1.2995  0.5804  0.6647
  839MOL0     H13231   2.147   6.073   0.615 -0.3650  0.3540  0.1246
  839MOL0     H13232   2.154   5.989   0.769 -1.7363 -2.4030 -2.5824
  839MOL0     H13233   1.912   6.007   0.728 -2.6157  1.9740 -1.6084
  839MOL0     H13234   1.968   6.126   0.843  1.5979  0.1106  0.3999
  839MOL0     H13235   1.932   6.196   0.549  0.9790  0.6629 -0.6227
  839MOL0     H13236   1.965   6.309   0.685 -1.3483  0.7367  0.4329
  839MOL0     H13237   1.720   6.113   0.648 -1.4314  0.6626  0.6872
  839MOL0     H13238   1.748   6.213   0.788 -0.7943 -1.6899  0.4145
  839MOL0     H13239   1.729   6.344   0.522  2.5578 -2.9435 -0.0232
  839MOL0     H13240   1.740   6.422   0.680 -1.7000  0.0116  2.7812
  839MOL0     H13241   1.519   6.241   0.567 -0.6136 -0.2835  0.0586
  839MOL0     H13242   1.521   6.312   0.738 -1.0328 -1.7257 -0.0153
  839MOL0     H13243   1.378   6.432   0.538 -0.2319  1.1079  0.6989
  839MOL0     H13244   1.535   6.505   0.497  2.3292 -1.2954  0.8563
  839MOL0     H13245   1.561   6.572   0.732 -2.1782  4.1797  2.2708
  839MOL0     H13246   1.390   6.553   0.752  0.4371 -2.0801  1.4488
  839MOL0     H13247   2.366   6.015   0.625 -1.8580  0.0946  0.0849
  839MOL0     H13248   2.606   5.966   0.688 -1.5885  0.5076 -2.0055
  839MOL0     H13249   2.970   6.022   0.864 -0.5369  1.0875 -0.0723
  839MOL0     H13250   3.203   6.010   0.967  4.1359 -3.1376  5.3100
  839MOL0     H13251   4.661   6.754   0.974 -0.7596  0.1469  2.8279
  839MOL0     H13252   4.836   6.707   0.821 -1.3210  1.2946  0.2127
  839MOL0     H13253   5.234   6.430   0.945 -3.4257 -0.7194  0.0276
  839MOL0     H13254   5.437   6.265   0.888  2.8931 -0.4530 -2.6762
  839MOL0     H13255   5.461   6.086   0.464 -1.4045  0.5086  1.6826
  839MOL0     H13256   5.470   6.263   0.475  1.3790 -0.7893 -0.6858
  839MOL0     H13257   5.713   6.247   0.538  0.5442 -1.5830  2.6812
  839MOL0     H13258   5.670   6.172   0.385 -4.2249 -0.3659 -0.1364
  839MOL0     H13259   5.658   5.938   0.503  2.4791 -0.5619 -1.2844
  839MOL0     H13260   5.721   6.024   0.647  2.7003 -3.4328  0.0283
  839MOL0     H13261   5.929   6.070   0.547  1.8245 -1.1526 -2.4387
  839MOL0     H13262   5.877   6.019   0.386  1.9103 -1.1521 -0.3769
  839MOL0     H13263   5.972   5.664   0.623  0.7880 -0.3832 -1.3651
  839MOL0     H13264   5.234   6.210   0.501  0.8904  3.5627 -1.7801
  839MOL0     H13265   5.057   6.326   0.575  0.4737 -0.4313 -0.2887
  840MOL0     O13266  10.865   9.013   3.216 -0.2992 -0.3300  0.3125
  840MOL0     C13267  10.785   8.924   3.185  0.3106 -0.8256 -0.4909
  840MOL0     O13268  10.813   8.783   3.180  0.1792 -0.7109 -0.1114
  840MOL0     C13269  10.934   8.725   3.135  0.8897  0.1433  0.1835
  840MOL0     C13270  10.920   8.583   3.127  0.5209 -0.7785 -0.1449
  840MOL0     C13271  11.035   8.511   3.075 -0.3141 -0.8855 -0.4498
  840MOL0     C13272  11.160   8.575   3.035  0.7484  0.5755 -0.4051
  840MOL0     O13273  11.278   8.512   2.996 -0.3922 -0.5547  0.3601
  840MOL0     C13274  11.270   8.366   2.997 -0.5318 -0.1766 -0.2233
  840MOL0     C13275  11.404   8.306   2.955 -0.1939 -0.6123 -0.4892
  840MOL0     C13276  11.448   8.167   2.992  0.3412 -0.4255  0.1364
  840MOL0     C13277  11.589   8.129   2.961  0.3452  0.0407  0.1219
  840MOL0     C13278  11.699   8.198   3.039  0.9598 -0.0393  1.0015
  840MOL0     C13279  11.835   8.166   2.985  0.6258  0.3518 -0.0404
  840MOL0     C13280  11.944   8.235   3.068 -1.2101 -0.1794  1.1575
  840MOL0     C13281  11.973   8.178   3.202  0.0873 -0.5325 -0.0051
  840MOL0     N13282  11.985   8.030   3.186  0.2662  0.0306  0.5019
  840MOL0     C13283  11.898   7.943   3.256 -0.0211  0.8323  0.5807
  840MOL0     C13284  11.947   7.819   3.225  0.4002 -0.3120 -0.6493
  840MOL0     C13285  11.885   7.698   3.286  0.5572 -0.5203  0.8692
  840MOL0     C13286  11.783   7.630   3.193  1.0112  0.6880  0.1955
  840MOL0     C13287  11.635   7.689   3.195 -0.0568  0.6722 -0.1001
  840MOL0     C13288  11.554   7.627   3.080  0.1868 -0.3255  0.1814
  840MOL0     O13289  11.548   7.477   3.085  0.4691 -0.7732 -0.6600
  840MOL0     C13290  11.484   7.402   2.993  0.2860  0.5151 -0.1975
  840MOL0     C13291  11.509   7.264   3.003  0.5073  0.8519 -0.7424
  840MOL0     C13292  11.442   7.172   2.920  0.2204  0.0310 -0.2203
  840MOL0     C13293  11.447   7.024   2.964 -0.2892 -0.9053  0.5195
  840MOL0     C13294  11.363   7.222   2.812 -0.0102 -0.6646  0.1890
  840MOL0     C13295  11.280   7.132   2.730  0.1548  0.5790 -1.0076
  840MOL0     O13296  11.171   7.179   2.661  0.3377  0.2345 -0.0369
  840MOL0     C13297  11.115   7.085   2.573  0.6323 -1.0392 -1.5631
  840MOL0     C13298  11.179   7.067   2.454  0.5660 -0.1294  0.2717
  840MOL0     C13299  11.146   6.966   2.366  0.9475 -0.7953  0.4881
  840MOL0     C13300  11.035   6.883   2.393 -0.4896 -0.2342  0.4815
  840MOL0     O13301  10.986   6.775   2.322  0.3856 -0.1981 -0.0438
  840MOL0     C13302  11.027   6.773   2.186 -0.3302 -0.7885  0.4421
  840MOL0     C13303  10.980   6.905   2.113  0.4596  0.1289  0.2372
  840MOL0     C13304  10.892   6.861   1.993 -0.1414  0.7407  0.0168
  840MOL0     C13305  10.833   6.986   1.918  0.4117 -0.0432 -0.5403
  840MOL0     C13306  10.702   6.951   1.854 -0.4010  0.7782  0.1747
  840MOL0     C13307  10.658   7.039   1.730 -0.7570  0.0833 -0.1088
  840MOL0     C13308  10.544   6.981   1.660  0.3212 -0.5325  0.5497
  840MOL0     C13309  10.583   6.901   1.540 -0.2219 -0.1523  0.4457
  840MOL0    Cl13310  10.443   6.794   1.491  0.1712 -0.1153  0.2956
  840MOL0     C13311  10.967   6.903   2.516 -0.4197  0.7826  0.1627
  840MOL0     C13312  11.003   7.003   2.609 -0.8721  0.6568  0.5230
  840MOL0     O13313  11.329   7.019   2.718 -0.5033 -0.0566 -0.2664
  840MOL0     C13314  11.337   7.363   2.810  0.4782  0.0650 -0.2093
  840MOL0     C13315  11.398   7.455   2.897  0.4732 -0.3801  0.3284
  840MOL0     N13316  12.045   7.832   3.135  0.1661  0.4831  0.5088
  840MOL0     N13317  12.059   7.958   3.098 -0.0885  0.9021 -0.6947
  840MOL0     C13318  11.168   8.706   3.052 -0.5116 -0.3914 -1.0351
  840MOL0     C13319  11.055   8.783   3.110  0.2927  0.2875 -0.6946
  840MOL0     C13320  10.635   8.934   3.186 -0.1758 -1.0211 -0.4911
  840MOL0     C13321  10.549   8.823   3.187  0.0529 -0.6755  0.0909
  840MOL0     C13322  10.406   8.833   3.194 -1.0902 -0.2815  0.3351
  840MOL0     C13323  10.353   8.957   3.208  0.3539  0.1277  0.6872
  840MOL0     O13324  10.217   8.973   3.203 -0.2810  0.3894  0.2031
  840MOL0     C13325  10.134   8.866   3.177 -0.4054 -0.3143 -0.5945
  840MOL0     C13326   9.987   8.902   3.187  0.4292 -0.5177  0.4216
  840MOL0     C13327   9.912   8.768   3.167  0.5115  0.2581 -0.0333
  840MOL0     C13328   9.765   8.804   3.140  0.5098 -0.7908 -0.3631
  840MOL0     C13329   9.695   8.879   3.249 -0.8141 -0.2765 -0.4138
  840MOL0     C13330   9.650   8.938   3.347  0.8049 -0.3498  0.0281
  840MOL0     C13331  10.439   9.068   3.205  0.7242  0.1090 -0.8337
  840MOL0     C13332  10.578   9.059   3.198  0.4610 -0.2223  0.5396
  840MOL0     H13333  10.824   8.535   3.141 -0.1230  0.7854  1.0777
  840MOL0     H13334  11.015   8.406   3.055 -0.8669 -0.4332 -2.5259
  840MOL0     H13335  11.267   8.333   3.102  2.7941 -0.3691 -0.0963
  840MOL0     H13336  11.182   8.328   2.943 -0.4928 -1.0821  0.3376
  840MOL0     H13337  11.410   8.311   2.846  1.0886  0.5728 -0.3883
  840MOL0     H13338  11.484   8.376   2.979  1.2299 -1.0771 -3.4485
  840MOL0     H13339  11.425   8.149   3.098  0.1886 -1.3843 -0.0559
  840MOL0     H13340  11.385   8.111   2.923 -0.1022 -0.2096  0.3598
  840MOL0     H13341  11.605   8.022   2.980  1.5382  0.1577 -0.1754
  840MOL0     H13342  11.592   8.140   2.852 -0.9598  1.2328  0.1811
  840MOL0     H13343  11.689   8.307   3.029  2.8368 -0.0261 -1.5736
  840MOL0     H13344  11.687   8.185   3.147 -0.5953  0.6156  0.9353
  840MOL0     H13345  11.838   8.058   2.971 -1.1170  0.2641 -0.0208
  840MOL0     H13346  11.841   8.217   2.888  2.8092 -0.1072 -0.1948
  840MOL0     H13347  12.040   8.227   3.016 -1.8151 -1.9463  0.2105
  840MOL0     H13348  11.916   8.340   3.067  0.4783  0.4429 -3.3520
  840MOL0     H13349  11.888   8.208   3.265 -3.5151 -2.7356 -3.3731
  840MOL0     H13350  12.063   8.215   3.252 -0.2185 -2.2247  1.9163
  840MOL0     H13351  11.813   7.958   3.321 -2.0872 -2.0880 -1.2341
  840MOL0     H13352  11.966   7.625   3.295  2.6188  1.5416  0.1612
  840MOL0     H13353  11.829   7.711   3.379 -3.4200 -2.9459 -0.9242
  840MOL0     H13354  11.772   7.532   3.242  0.6588  0.3569 -0.5316
  840MOL0     H13355  11.807   7.614   3.088 -1.4100 -4.4982  0.0913
  840MOL0     H13356  11.647   7.796   3.177  0.3466  0.3439 -1.9128
  840MOL0     H13357  11.584   7.679   3.292  1.9323  1.2951  1.0833
  840MOL0     H13358  11.592   7.654   2.980 -2.6386  0.6428 -0.7150
  840MOL0     H13359  11.453   7.665   3.094  0.0402 -0.7519  0.2916
  840MOL0     H13360  11.564   7.216   3.084 -0.5208 -0.9138 -1.0499
  840MOL0     H13361  11.521   6.968   2.906  0.6317  1.3687 -0.6087
  840MOL0     H13362  11.475   7.020   3.070 -0.2957 -3.7820  0.4964
  840MOL0     H13363  11.349   6.979   2.946 -0.8836  1.0342 -1.3991
  840MOL0     H13364  11.255   7.140   2.427 -0.0852  0.2794 -0.4879
  840MOL0     H13365  11.214   6.953   2.282 -0.1681 -1.6729 -0.3060
  840MOL0     H13366  11.136   6.770   2.191 -0.1917  1.0942 -0.5020
  840MOL0     H13367  10.986   6.687   2.133 -0.6080 -0.6951  0.5013
  840MOL0     H13368  10.920   6.970   2.177  0.9223 -0.3645  1.1940
  840MOL0     H13369  11.066   6.963   2.078  2.7124 -2.8587  0.4504
  840MOL0     H13370  10.810   6.793   2.017  1.0998 -1.2517 -1.0652
  840MOL0     H13371  10.948   6.805   1.917  0.0668 -2.1739  2.1706
  840MOL0     H13372  10.818   7.069   1.987  2.2392  0.6483 -0.8953
  840MOL0     H13373  10.908   7.020   1.846  1.8720 -1.9954 -0.0127
  840MOL0     H13374  10.630   6.960   1.936 -1.1572  1.4034 -0.5345
  840MOL0     H13375  10.689   6.850   1.815 -2.6868  0.7110  0.9587
  840MOL0     H13376  10.629   7.137   1.770  1.5840  0.8981 -0.2505
  840MOL0     H13377  10.740   7.061   1.661 -0.9368  0.4039 -0.2203
  840MOL0     H13378  10.487   7.064   1.618 -0.1268 -0.9381  0.3490
  840MOL0     H13379  10.479   6.924   1.727  2.4102 -2.6214  0.9398
  840MOL0     H13380  10.669   6.837   1.560  1.0111  0.3163 -2.6938
  840MOL0     H13381  10.606   6.976   1.463 -0.3925  0.5977  1.1079
  840MOL0     H13382  10.899   6.821   2.540 -0.9811  1.4691  0.9927
  840MOL0     H13383  10.961   7.004   2.709 -1.7300 -1.8927  0.2788
  840MOL0     H13384  11.257   7.401   2.747 -1.7969 -2.5563  0.9209
  840MOL0     H13385  11.372   7.561   2.896  1.9014  0.0054 -1.4234
  840MOL0     H13386  11.260   8.761   3.039  0.7990 -1.2954  2.8329
  840MOL0     H13387  11.072   8.889   3.126 -2.5813  0.6813  0.3561
  840MOL0     H13388  10.594   8.725   3.187  2.3485  0.3087  0.5811
  840MOL0     H13389  10.343   8.745   3.187 -1.1638 -0.2926  1.0619
  840MOL0     H13390  10.159   8.830   3.077  1.4249 -2.3418  0.5180
  840MOL0     H13391  10.131   8.785   3.251  0.3471 -0.3880 -0.6468
  840MOL0     H13392   9.965   8.966   3.100 -1.4026 -3.3640 -1.3878
  840MOL0     H13393   9.960   8.961   3.275 -0.7639  2.8669 -1.9640
  840MOL0     H13394   9.923   8.709   3.258 -2.2086 -0.6686 -0.2003
  840MOL0     H13395   9.945   8.706   3.083 -0.4457 -0.7963  0.3381
  840MOL0     H13396   9.698   8.720   3.116 -1.6987  0.7003  0.2637
  840MOL0     H13397   9.763   8.867   3.050  2.0012 -1.0325 -0.5811
  840MOL0     H13398   9.623   8.982   3.441 -1.3051 -2.6019  0.5763
  840MOL0     H13399  10.399   9.169   3.212 -0.3219 -0.2936 -0.7872
  840MOL0     H13400  10.635   9.148   3.172 -0.3365 -0.2542 -1.4945
  841MOL0     O13401   1.366   8.816   7.669  0.3854 -0.0067  0.4836
  841MOL0     C13402   1.358   8.873   7.778 -0.4566  0.9622 -0.1844
  841MOL0     O13403   1.294   8.827   7.887  1.4130  0.2573  0.7684
  841MOL0     C13404   1.213   8.718   7.891 -0.2971 -0.5698 -0.3975
  841MOL0     C13405   1.085   8.729   7.945  0.0874 -0.2778 -0.1924
  841MOL0     C13406   1.013   8.614   7.974 -0.6426  0.4433  0.1289
  841MOL0     C13407   1.062   8.490   7.938 -0.5297  0.1555 -0.1886
  841MOL0     O13408   0.998   8.376   7.973 -1.0165  0.9048 -1.2743
  841MOL0     C13409   0.928   8.364   8.097 -1.2904  0.1319 -0.4110
  841MOL0     C13410   0.912   8.212   8.136 -0.1015 -0.1050  0.0224
  841MOL0     C13411   0.856   8.118   8.027  0.3438  0.0410 -0.3900
  841MOL0     C13412   0.743   8.023   8.068  0.1152  0.2164  0.6381
  841MOL0     C13413   0.674   7.970   7.944  0.2633 -0.9963  0.6043
  841MOL0     C13414   0.559   7.877   7.959  1.2102 -0.4541 -0.1371
  841MOL0     C13415   0.603   7.733   7.981 -0.4668  0.4767  0.6408
  841MOL0     C13416   0.493   7.651   8.044  0.2140  0.3460 -0.4215
  841MOL0     N13417   0.488   7.509   8.001  0.5944 -0.1514 -0.1388
  841MOL0     C13418   0.593   7.428   7.974  0.1323  0.0191 -0.0808
  841MOL0     C13419   0.536   7.312   7.950  0.0121  0.3449  0.5658
  841MOL0     C13420   0.616   7.182   7.926 -0.2478  0.8390 -0.1771
  841MOL0     C13421   0.680   7.189   7.790 -0.0937  0.4828 -0.2405
  841MOL0     C13422   0.574   7.205   7.684  0.0520  0.0423  0.4056
  841MOL0     C13423   0.646   7.211   7.543 -0.4819  0.3678 -0.0071
  841MOL0     O13424   0.766   7.310   7.543  0.3139  0.5326 -0.1709
  841MOL0     C13425   0.747   7.441   7.553 -0.2393 -0.3195 -0.1459
  841MOL0     C13426   0.856   7.512   7.603  1.1363 -1.1032 -0.4517
  841MOL0     C13427   0.840   7.655   7.606 -0.5832  0.1723 -0.6115
  841MOL0     C13428   0.953   7.721   7.681  0.4028  0.8202  0.3980
  841MOL0     C13429   0.726   7.721   7.548 -0.0516  0.2372  0.5945
  841MOL0     C13430   0.713   7.867   7.547  0.1355 -0.2480 -0.5052
  841MOL0     O13431   0.826   7.938   7.558 -0.4695 -0.6413  0.1763
  841MOL0     C13432   0.830   8.077   7.525  0.1735 -0.7313 -0.1818
  841MOL0     C13433   0.796   8.126   7.404 -0.0818  0.5386 -0.6391
  841MOL0     C13434   0.816   8.261   7.373 -1.0442  0.3891  0.1715
  841MOL0     C13435   0.862   8.357   7.469  0.8971  0.4813  1.1532
  841MOL0     O13436   0.882   8.486   7.428 -0.3237  0.1157  0.0942
  841MOL0     C13437   0.933   8.565   7.536  0.9939 -0.5664 -0.4330
  841MOL0     C13438   0.920   8.710   7.488 -0.7756  1.0002  0.1031
  841MOL0     C13439   0.926   8.803   7.609 -0.1187  1.0809  0.5770
  841MOL0     C13440   0.947   8.947   7.562  0.0601  0.0134  0.4953
  841MOL0     C13441   0.968   9.030   7.690  0.3331  0.1336 -0.4077
  841MOL0     C13442   0.986   9.177   7.651 -0.6430 -0.4080  0.6502
  841MOL0     C13443   1.015   9.265   7.776  1.4203 -0.1342  0.5327
  841MOL0     C13444   1.055   9.399   7.727 -0.3386 -0.5440  1.0117
  841MOL0    Cl13445   1.133   9.484   7.863 -0.3440  0.0385 -0.0948
  841MOL0     C13446   0.914   8.291   7.584 -1.0951 -0.8308 -0.7149
  841MOL0     C13447   0.891   8.161   7.616 -1.1525  1.6317 -0.5709
  841MOL0     O13448   0.593   7.908   7.532 -0.1238 -0.2420  0.0861
  841MOL0     C13449   0.613   7.644   7.513  0.1926 -0.2373  0.3599
  841MOL0     C13450   0.623   7.507   7.513 -0.0915  1.0043 -0.2174
  841MOL0     N13451   0.402   7.316   7.964  1.5662 -0.6179  0.2908
  841MOL0     N13452   0.374   7.441   7.976  0.9314 -0.1379  1.2787
  841MOL0     C13453   1.185   8.482   7.865  0.2465  0.4821 -0.0738
  841MOL0     C13454   1.258   8.591   7.840 -0.2569 -0.0582  0.0779
  841MOL0     C13455   1.433   8.990   7.803  0.0767 -0.4470  0.1880
  841MOL0     C13456   1.379   9.090   7.881 -0.8886 -0.3677  0.9019
  841MOL0     C13457   1.415   9.228   7.868 -0.4011 -0.0201  0.2007
  841MOL0     C13458   1.531   9.257   7.793 -0.6610  0.1108 -0.4589
  841MOL0     O13459   1.602   9.373   7.817  0.3314 -0.3475  0.3554
  841MOL0     C13460   1.522   9.493   7.839  0.7597  0.3002 -0.2165
  841MOL0     C13461   1.572   9.595   7.729 -0.0102 -0.8200  1.0718
  841MOL0     C13462   1.520   9.543   7.591  0.3827 -0.7531  0.2593
  841MOL0     C13463   1.408   9.633   7.535  0.4965  0.0246 -0.0440
  841MOL0     C13464   1.376   9.591   7.400 -0.4222  0.4556 -0.0460
  841MOL0     C13465   1.357   9.540   7.292 -0.2950 -0.5080 -0.2085
  841MOL0     C13466   1.592   9.152   7.725  0.7303 -0.5523  0.0878
  841MOL0     C13467   1.536   9.022   7.717  0.8937 -1.4123 -0.0191
  841MOL0     H13468   1.044   8.822   7.985 -2.0890 -2.1971  2.3921
  841MOL0     H13469   0.914   8.620   8.019 -0.4973  1.0407  0.3814
  841MOL0     H13470   0.967   8.413   8.187  1.7067 -4.3935  1.1091
  841MOL0     H13471   0.829   8.409   8.092 -2.0006 -1.0252  1.7913
  841MOL0     H13472   1.012   8.180   8.164  0.9685  1.7149 -1.4595
  841MOL0     H13473   0.841   8.215   8.219 -1.4309 -0.5839 -1.0468
  841MOL0     H13474   0.826   8.176   7.939  1.0866  1.2094  0.0987
  841MOL0     H13475   0.940   8.051   8.004  0.8843 -0.9866  3.7676
  841MOL0     H13476   0.785   7.939   8.124  0.2874 -1.1114 -1.3789
  841MOL0     H13477   0.680   8.076   8.140 -0.5070  3.6359 -2.1762
  841MOL0     H13478   0.646   8.060   7.889  0.4928 -2.3396 -1.8528
  841MOL0     H13479   0.745   7.928   7.873  1.2761  0.0101  0.9998
  841MOL0     H13480   0.497   7.913   8.041 -1.2509 -0.1653 -2.0112
  841MOL0     H13481   0.497   7.894   7.870  2.6144 -0.8111 -1.2227
  841MOL0     H13482   0.632   7.689   7.885 -1.9071 -0.4432  0.6065
  841MOL0     H13483   0.692   7.719   8.043  1.3614  0.2969 -1.8604
  841MOL0     H13484   0.397   7.695   8.015 -0.0187 -0.5581 -1.0903
  841MOL0     H13485   0.494   7.658   8.153  1.1282  0.1315 -0.4117
  841MOL0     H13486   0.695   7.464   7.966 -0.5988  1.7741 -2.6267
  841MOL0     H13487   0.698   7.179   7.999  0.2184  0.2895 -0.7102
  841MOL0     H13488   0.557   7.091   7.935  1.9917 -1.0805 -2.8793
  841MOL0     H13489   0.734   7.096   7.770 -4.5344 -2.2409 -0.8725
  841MOL0     H13490   0.750   7.273   7.800  2.3348 -1.6567  2.5986
  841MOL0     H13491   0.516   7.297   7.691  2.7016  1.7722  1.4772
  841MOL0     H13492   0.513   7.114   7.682 -0.9347  0.6627  1.2241
  841MOL0     H13493   0.576   7.245   7.466 -0.6828  1.7460  0.7444
  841MOL0     H13494   0.672   7.110   7.512 -3.3628 -0.3105 -0.5136
  841MOL0     H13495   0.950   7.463   7.625  2.8450  1.6862 -1.0445
  841MOL0     H13496   1.029   7.660   7.730  1.8047  2.7556  0.7507
  841MOL0     H13497   1.020   7.784   7.621  0.6562  0.9795  0.8401
  841MOL0     H13498   0.899   7.777   7.758  0.6023  0.6299  0.6783
  841MOL0     H13499   0.761   8.064   7.322 -0.3289  0.4524 -0.4692
  841MOL0     H13500   0.777   8.296   7.279 -0.3259 -0.2967 -0.3975
  841MOL0     H13501   0.860   8.561   7.617 -0.5177  0.6475 -1.6703
  841MOL0     H13502   1.028   8.521   7.567 -0.6840 -2.6882  2.2059
  841MOL0     H13503   1.010   8.739   7.433 -1.7835  2.3920 -0.8823
  841MOL0     H13504   0.827   8.719   7.432 -1.5090 -1.5083  0.7609
  841MOL0     H13505   1.008   8.775   7.676 -1.0363 -3.8080  0.0245
  841MOL0     H13506   0.831   8.800   7.664 -0.5447  0.7169 -0.1617
  841MOL0     H13507   1.037   8.953   7.500 -0.5914 -1.1005 -0.5905
  841MOL0     H13508   0.866   8.991   7.504  1.7421  2.1649 -0.3809
  841MOL0     H13509   1.047   8.995   7.757 -0.7186  3.3993  2.8778
  841MOL0     H13510   0.876   9.016   7.747  1.0583 -1.2484  0.4906
  841MOL0     H13511   1.070   9.169   7.582 -0.1263  0.2610  1.1830
  841MOL0     H13512   0.898   9.215   7.598 -0.8833  0.2356  1.4973
  841MOL0     H13513   1.101   9.220   7.827  1.1726 -1.5357 -0.2571
  841MOL0     H13514   0.934   9.271   7.849  0.9105 -0.2237 -0.0172
  841MOL0     H13515   0.962   9.446   7.693  0.4902  0.1022 -0.4630
  841MOL0     H13516   1.118   9.382   7.640 -1.5764  0.2666 -0.0777
  841MOL0     H13517   0.977   8.345   7.654  1.0332 -2.9329 -0.8614
  841MOL0     H13518   0.929   8.132   7.714  1.3234 -0.7886 -2.1142
  841MOL0     H13519   0.518   7.680   7.476 -0.7924 -3.2531 -0.3313
  841MOL0     H13520   0.535   7.451   7.481  0.0572  0.7417 -0.1756
  841MOL0     H13521   1.222   8.385   7.831 -1.2072  0.2206 -1.0171
  841MOL0     H13522   1.347   8.582   7.779  0.5509 -2.5428  1.4959
  841MOL0     H13523   1.307   9.064   7.958 -0.1456  4.4721  3.6351
  841MOL0     H13524   1.368   9.292   7.941  1.4006  3.8472 -1.7075
  841MOL0     H13525   1.414   9.476   7.838  1.0512 -1.8116 -0.8917
  841MOL0     H13526   1.550   9.548   7.929 -0.2355 -1.7360  1.4089
  841MOL0     H13527   1.681   9.602   7.733  0.0099  2.2325 -1.0729
  841MOL0     H13528   1.539   9.696   7.756  0.4990 -0.7595  1.4941
  841MOL0     H13529   1.492   9.438   7.601 -0.0994 -0.8032 -1.3127
  841MOL0     H13530   1.605   9.548   7.523 -0.4270 -0.5869 -0.7593
  841MOL0     H13531   1.445   9.736   7.531  1.2494 -0.2307  0.2281
  841MOL0     H13532   1.315   9.623   7.592  1.1326 -0.8562  0.8678
  841MOL0     H13533   1.333   9.504   7.194 -0.4156 -1.0325  0.0091
  841MOL0     H13534   1.679   9.170   7.662 -0.8245  1.3941 -1.6806
  841MOL0     H13535   1.573   8.951   7.644  0.5379 -2.2942  0.6314
  842MOL0     O13536   0.145  10.061   6.407 -0.4376 -0.0611 -0.0090
  842MOL0     C13537   0.205  10.171   6.396  0.1808  0.7599 -0.2528
  842MOL0     O13538   0.164  10.295   6.437  0.3185 -0.0725 -0.6142
  842MOL0     C13539   0.041  10.304   6.504  0.3493  0.0037  0.1778
  842MOL0     C13540  -0.054  10.359   6.418  0.0804 -0.3106  0.8625
  842MOL0     C13541  -0.176  10.398   6.470  0.0911  0.2448 -0.4986
  842MOL0     C13542  -0.215  10.378   6.604  1.0438  0.7188  0.2548
  842MOL0     O13543  -0.346  10.404   6.635 -0.9246 -0.3465  0.7704
  842MOL0     C13544  -0.400  10.340   6.748  0.0989 -0.2476 -0.7138
  842MOL0     C13545  -0.554  10.357   6.736 -0.1414  0.2660  0.4149
  842MOL0     C13546  -0.629  10.253   6.829 -0.1836  0.8094  0.6251
  842MOL0     C13547  -0.774  10.262   6.804  0.7156 -1.0356  0.2256
  842MOL0     C13548  -0.826  10.148   6.714 -0.7335  0.0205  0.3830
  842MOL0     C13549  -0.970  10.161   6.676 -0.3618  0.1151 -0.5129
  842MOL0     C13550  -1.059  10.074   6.776 -0.3189 -0.5442  0.1957
  842MOL0     C13551  -1.038   9.919   6.755 -1.0038 -0.2825  0.0969
  842MOL0     N13552  -1.101   9.856   6.639  0.4331 -0.7959 -0.5526
  842MOL0     C13553  -1.037   9.852   6.515  0.6484  0.3101 -0.3733
  842MOL0     C13554  -1.100   9.760   6.447 -0.4809 -0.0859  1.1475
  842MOL0     C13555  -1.065   9.706   6.312  0.5557  0.0769  0.9881
  842MOL0     C13556  -1.104   9.556   6.303 -0.2554 -0.0225  0.0695
  842MOL0     C13557  -1.228   9.535   6.220  0.7127 -0.4709 -0.0533
  842MOL0     C13558  -1.357   9.609   6.272  0.2533  0.0769  0.5581
  842MOL0     O13559  -1.461   9.557   6.191  0.6860  0.2581  0.5784
  842MOL0     C13560  -1.581   9.610   6.214  0.9852 -0.2964  0.1758
  842MOL0     C13561  -1.616   9.695   6.322 -0.1515 -0.0056 -0.9941
  842MOL0     C13562  -1.742   9.761   6.331 -0.5760  0.3253 -0.1369
  842MOL0     C13563  -1.768   9.843   6.454 -0.0431 -0.8097 -0.5829
  842MOL0     C13564  -1.838   9.737   6.229  0.4829  0.8807 -0.2745
  842MOL0     C13565  -1.975   9.798   6.224 -0.0653 -0.3926  0.2468
  842MOL0     O13566  -2.052   9.744   6.117 -0.2784 -0.2540  0.6279
  842MOL0     C13567  -2.184   9.790   6.088 -0.8769 -0.0921 -0.8384
  842MOL0     C13568  -2.229   9.814   5.956  0.1929 -0.3310  0.0941
  842MOL0     C13569  -2.362   9.831   5.921 -0.7677 -0.2514 -0.2152
  842MOL0     C13570  -2.455   9.821   6.022  0.4292  0.6224 -0.5648
  842MOL0     O13571  -2.595   9.826   6.009 -0.0886  0.4311  0.4072
  842MOL0     C13572  -2.639   9.831   5.872 -0.4412 -0.4753  0.1231
  842MOL0     C13573  -2.790   9.834   5.860 -0.8154  0.2703 -0.2763
  842MOL0     C13574  -2.851   9.692   5.889 -0.1439 -0.6469 -0.2149
  842MOL0     C13575  -2.845   9.663   6.040  0.3522  0.6649 -0.4647
  842MOL0     C13576  -2.955   9.559   6.084  0.1768 -0.7379 -0.3572
  842MOL0     C13577  -3.100   9.608   6.055 -0.5554  0.1429 -0.5381
  842MOL0     C13578  -3.197   9.514   6.122 -0.1092 -0.5909 -0.2806
  842MOL0     C13579  -3.194   9.372   6.084 -0.8550  0.0111 -0.0071
  842MOL0    Cl13580  -3.327   9.280   6.174 -0.1759 -0.1087 -0.0210
  842MOL0     C13581  -2.414   9.798   6.154 -0.8654  0.0687  0.3213
  842MOL0     C13582  -2.279   9.775   6.189 -0.1227 -0.5121  0.2147
  842MOL0     O13583  -2.010   9.886   6.303 -0.5745  0.2210  0.0188
  842MOL0     C13584  -1.799   9.637   6.128  0.0524 -0.1840 -0.8372
  842MOL0     C13585  -1.681   9.576   6.123 -0.4291 -0.1152 -0.6425
  842MOL0     N13586  -1.209   9.725   6.521 -0.1109  0.3019  0.4734
  842MOL0     N13587  -1.214   9.781   6.636 -0.4458 -0.1726  0.2719
  842MOL0     C13588  -0.121  10.314   6.687  0.8993  0.6371  0.7884
  842MOL0     C13589   0.008  10.280   6.638 -0.6632 -0.1201  0.4741
  842MOL0     C13590   0.347  10.161   6.334  0.1287  0.0782  0.0366
  842MOL0     C13591   0.408  10.286   6.311 -0.4944  0.2895 -0.1893
  842MOL0     C13592   0.534  10.287   6.250  0.3840 -0.1944  0.8570
  842MOL0     C13593   0.597  10.168   6.216 -0.0805  0.2265 -0.6250
  842MOL0     O13594   0.709  10.150   6.138  0.5122  0.3296 -0.0802
  842MOL0     C13595   0.761  10.266   6.088  0.5262 -1.0503 -0.1190
  842MOL0     C13596   0.901  10.235   6.032 -1.3734  0.2740  0.3633
  842MOL0     C13597   1.003  10.267   6.147  0.1141 -0.4796 -0.1481
  842MOL0     C13598   1.013  10.193   6.272 -0.3978 -0.3531 -0.1643
  842MOL0     C13599   1.074  10.289   6.370 -0.2034  0.5980 -0.3289
  842MOL0     C13600   1.093  10.382   6.443 -0.3701 -0.4544 -0.4108
  842MOL0     C13601   0.537  10.053   6.249  0.0412 -0.3946  0.1665
  842MOL0     C13602   0.420  10.046   6.316  0.4087 -0.2731  0.4268
  842MOL0     H13603  -0.034  10.372   6.312 -0.3021 -0.4759  0.7670
  842MOL0     H13604  -0.246  10.440   6.398 -0.9185 -1.1182 -0.3373
  842MOL0     H13605  -0.351  10.243   6.758  2.0921  0.3879 -3.1533
  842MOL0     H13606  -0.370  10.382   6.845 -0.5403 -2.4096  0.4905
  842MOL0     H13607  -0.590  10.454   6.772 -0.3362  0.7065 -0.9351
  842MOL0     H13608  -0.586  10.339   6.633  0.4878 -0.4622  0.3283
  842MOL0     H13609  -0.596  10.148   6.828 -1.3513  0.4318 -0.0523
  842MOL0     H13610  -0.623  10.290   6.932 -3.2059  0.6838  0.9266
  842MOL0     H13611  -0.828  10.258   6.900 -3.4402  2.3796 -1.6311
  842MOL0     H13612  -0.797  10.355   6.752  2.2683 -1.7276 -1.8431
  842MOL0     H13613  -0.774  10.154   6.618  3.3886 -6.5177  1.6009
  842MOL0     H13614  -0.794  10.053   6.758  2.1319  1.3421  1.3860
  842MOL0     H13615  -0.999  10.265   6.695 -1.0901  0.0467 -1.2104
  842MOL0     H13616  -0.993  10.139   6.571 -1.2974  1.6577 -0.6635
  842MOL0     H13617  -1.033  10.099   6.879 -0.0225  1.6243 -0.3580
  842MOL0     H13618  -1.165  10.100   6.774 -0.3502 -0.2574  2.6504
  842MOL0     H13619  -1.086   9.876   6.844 -2.5378  3.1327  1.1002
  842MOL0     H13620  -0.935   9.883   6.752 -0.4212  0.8361  3.1844
  842MOL0     H13621  -0.947   9.905   6.483  0.7478 -1.0269 -2.4886
  842MOL0     H13622  -1.110   9.756   6.226  0.8137  0.5465  1.1210
  842MOL0     H13623  -0.959   9.717   6.286 -0.0658  0.8708 -1.5672
  842MOL0     H13624  -1.116   9.520   6.406 -1.2552  1.1752  0.3921
  842MOL0     H13625  -1.022   9.503   6.252 -0.5484 -0.3259 -0.0881
  842MOL0     H13626  -1.254   9.428   6.220  1.0272 -0.5854 -1.7736
  842MOL0     H13627  -1.203   9.578   6.123 -1.6128 -1.0809 -0.9991
  842MOL0     H13628  -1.342   9.717   6.264 -4.9917  0.9498 -1.8528
  842MOL0     H13629  -1.387   9.571   6.370 -0.0762 -2.2676 -0.3818
  842MOL0     H13630  -1.546   9.694   6.405  3.6002  1.9618 -3.7801
  842MOL0     H13631  -1.690   9.832   6.529 -0.8397 -3.0355 -0.0260
  842MOL0     H13632  -1.779   9.949   6.428 -1.8312 -0.2653  2.0829
  842MOL0     H13633  -1.864   9.820   6.499 -1.3623  2.2793 -1.5167
  842MOL0     H13634  -2.153   9.807   5.879 -2.5024 -2.9223 -2.6004
  842MOL0     H13635  -2.376   9.848   5.814  2.9407 -0.0265 -0.7814
  842MOL0     H13636  -2.599   9.920   5.822  0.6817  1.2217  3.6905
  842MOL0     H13637  -2.591   9.751   5.815 -1.5846 -0.0517 -1.4982
  842MOL0     H13638  -2.834   9.917   5.916 -2.3648 -0.6114 -0.1232
  842MOL0     H13639  -2.814   9.854   5.756  4.1552  2.1317 -1.3228
  842MOL0     H13640  -2.774   9.633   5.837 -0.8692 -1.0155 -0.8888
  842MOL0     H13641  -2.952   9.681   5.849  0.0930  0.4103 -1.1620
  842MOL0     H13642  -2.743   9.628   6.058  0.0336 -0.6974 -1.1263
  842MOL0     H13643  -2.869   9.755   6.094 -0.2166 -0.0093  0.4740
  842MOL0     H13644  -2.943   9.546   6.192 -0.7785 -0.2444 -0.1809
  842MOL0     H13645  -2.951   9.465   6.028 -0.8868 -1.6256  0.9787
  842MOL0     H13646  -3.116   9.704   6.104 -3.5952  0.1401 -1.3227
  842MOL0     H13647  -3.129   9.622   5.950  0.6987 -0.4203 -0.9783
  842MOL0     H13648  -3.296   9.550   6.092  0.0876 -1.4590 -2.0825
  842MOL0     H13649  -3.188   9.510   6.231 -0.5462  1.0845 -0.1549
  842MOL0     H13650  -3.098   9.331   6.116  0.1491  1.3503 -1.1486
  842MOL0     H13651  -3.203   9.355   5.976 -2.3207 -4.1311  0.6081
  842MOL0     H13652  -2.476   9.784   6.242  1.3203  0.4592  2.0211
  842MOL0     H13653  -2.268   9.739   6.291 -0.5077 -0.9350  0.1102
  842MOL0     H13654  -1.873   9.599   6.057 -2.0994  0.5200  0.9145
  842MOL0     H13655  -1.663   9.502   6.045  0.7553  0.0069 -0.5039
  842MOL0     H13656  -0.149  10.286   6.788  0.6178 -2.5435 -0.0625
  842MOL0     H13657   0.088  10.229   6.692  3.3423  2.4357 -2.4584
  842MOL0     H13658   0.362  10.376   6.350  3.4722  1.9669  1.1669
  842MOL0     H13659   0.577  10.380   6.213 -0.1185 -1.1150 -2.3548
  842MOL0     H13660   0.698  10.306   6.008  1.0048  0.4137  0.2118
  842MOL0     H13661   0.767  10.347   6.161 -1.4708 -0.3327 -0.6769
  842MOL0     H13662   0.923  10.293   5.942 -0.7551  0.9341  0.9266
  842MOL0     H13663   0.920  10.128   6.023  0.4871  0.4531  1.6279
  842MOL0     H13664   0.989  10.374   6.167 -0.0335 -0.2213 -1.5157
  842MOL0     H13665   1.103  10.257   6.104  0.0603  0.0552 -0.4076
  842MOL0     H13666   1.086  10.116   6.245  0.7854  1.4064 -2.3229
  842MOL0     H13667   0.917  10.152   6.305 -1.5290  3.8227  2.5269
  842MOL0     H13668   1.107  10.471   6.502  0.1265 -1.0542  0.3943
  842MOL0     H13669   0.575   9.958   6.214 -2.4927 -0.7657 -1.8915
  842MOL0     H13670   0.381   9.949   6.346 -0.0888 -0.1456  0.2118
  843MOL0     O13671   2.999   7.890   8.326 -0.2897 -0.0687 -0.1284
  843MOL0     C13672   3.076   7.981   8.284  0.8969  0.7616 -0.1083
  843MOL0     O13673   3.055   8.062   8.177  0.3067 -0.2885  0.1464
  843MOL0     C13674   2.922   8.074   8.135  0.5565 -0.9490 -0.1397
  843MOL0     C13675   2.866   7.985   8.054  0.1982  0.9032  0.2938
  843MOL0     C13676   2.731   7.977   8.017 -0.2813  0.0731  0.2824
  843MOL0     C13677   2.650   8.085   8.056 -0.1619  0.1054 -0.3098
  843MOL0     O13678   2.515   8.099   8.029 -0.2145 -0.0225  0.1071
  843MOL0     C13679   2.457   8.021   7.919 -0.5043  0.0018  0.4859
  843MOL0     C13680   2.310   8.052   7.922  0.6338 -0.1463 -0.4390
  843MOL0     C13681   2.282   8.203   7.904 -0.5942 -0.6045  0.8116
  843MOL0     C13682   2.138   8.237   7.921 -0.3673  0.7423 -0.2064
  843MOL0     C13683   2.098   8.381   7.914  0.5435  0.2440  0.8826
  843MOL0     C13684   2.077   8.433   7.767  0.5868  0.3382 -0.6334
  843MOL0     C13685   2.019   8.582   7.761  0.3308  0.0661  0.2113
  843MOL0     C13686   2.006   8.656   7.631 -0.1924 -0.4570 -0.4456
  843MOL0     N13687   1.902   8.594   7.552  0.8986  0.3050 -0.0200
  843MOL0     C13688   1.764   8.591   7.580 -0.1747  0.0847 -0.0760
  843MOL0     C13689   1.709   8.537   7.466  0.0492  0.2282  0.0430
  843MOL0     C13690   1.564   8.543   7.441  0.1175  0.7459 -1.0487
  843MOL0     C13691   1.523   8.665   7.367 -0.3699  0.8900 -0.4307
  843MOL0     C13692   1.368   8.662   7.348 -0.0819  0.2080  0.2423
  843MOL0     C13693   1.329   8.763   7.229  0.3090  0.7476 -1.3563
  843MOL0     O13694   1.370   8.701   7.104 -0.0376 -0.2393 -0.3781
  843MOL0     C13695   1.309   8.735   6.983  0.3460 -0.0315 -0.4371
  843MOL0     C13696   1.374   8.677   6.875 -0.1270  0.3837  0.5796
  843MOL0     C13697   1.321   8.695   6.744 -0.7213  0.5382 -0.0559
  843MOL0     C13698   1.398   8.646   6.632  0.0696  0.0751  0.7458
  843MOL0     C13699   1.205   8.774   6.718 -1.1408 -0.6658  0.4073
  843MOL0     C13700   1.147   8.792   6.583 -0.3998 -0.3727 -0.8043
  843MOL0     O13701   1.137   8.680   6.505 -0.1206 -0.5289 -0.1593
  843MOL0     C13702   1.066   8.680   6.385 -0.2446 -0.5882 -0.4052
  843MOL0     C13703   0.953   8.759   6.353 -1.0602 -0.6190  0.6431
  843MOL0     C13704   0.880   8.734   6.223 -0.0535 -0.1034 -0.4218
  843MOL0     C13705   0.921   8.624   6.141 -0.1796 -0.3756  0.4640
  843MOL0     O13706   0.837   8.597   6.038  0.0142 -0.2829 -0.0473
  843MOL0     C13707   0.855   8.498   5.938 -0.0020  0.4253 -0.4696
  843MOL0     C13708   0.727   8.450   5.869 -0.2837  0.0576  0.8455
  843MOL0     C13709   0.652   8.563   5.788 -0.3482  0.0557  0.3760
  843MOL0     C13710   0.531   8.505   5.714  0.7141 -0.5596 -0.6321
  843MOL0     C13711   0.472   8.622   5.635  0.1196 -1.2314  0.0678
  843MOL0     C13712   0.327   8.596   5.597  0.4295  0.0234  0.1576
  843MOL0     C13713   0.258   8.716   5.539  0.3025  0.4723  0.0314
  843MOL0     C13714   0.318   8.754   5.395  0.2543  0.0104  0.5632
  843MOL0    Cl13715   0.215   8.865   5.308  0.2875  0.1816  0.8356
  843MOL0     C13716   1.046   8.566   6.165 -0.4058 -0.3054  0.8198
  843MOL0     C13717   1.110   8.591   6.282 -0.4593 -0.0963 -0.2726
  843MOL0     O13718   1.115   8.906   6.543  0.5497  0.3139  0.2505
  843MOL0     C13719   1.139   8.822   6.831 -1.4374  0.1318 -0.9998
  843MOL0     C13720   1.197   8.811   6.955 -0.0159 -0.3404 -0.4841
  843MOL0     N13721   1.809   8.488   7.382  0.1347  0.1278 -0.3777
  843MOL0     N13722   1.923   8.523   7.439  0.5554  0.4789 -0.0954
  843MOL0     C13723   2.714   8.189   8.136  0.1077 -0.2780 -0.9384
  843MOL0     C13724   2.845   8.180   8.172  0.4614 -0.6494  0.0773
  843MOL0     C13725   3.199   7.997   8.364  0.6884 -0.3733  0.7443
  843MOL0     C13726   3.283   8.109   8.341  0.0000 -0.3418  0.0274
  843MOL0     C13727   3.408   8.119   8.403  0.1960  1.0429 -0.0269
  843MOL0     C13728   3.446   8.020   8.489 -0.4217 -0.2210 -0.4812
  843MOL0     O13729   3.574   7.995   8.530  0.5641  0.5261  0.0197
  843MOL0     C13730   3.682   8.053   8.457 -0.4508  0.6946  0.2653
  843MOL0     C13731   3.824   8.032   8.532  0.2401  1.3795 -0.3582
  843MOL0     C13732   3.947   8.054   8.453 -0.0227 -0.9194 -0.1609
  843MOL0     C13733   4.007   8.206   8.445  0.2694 -0.5032  0.0945
  843MOL0     C13734   4.039   8.252   8.580  0.8798  0.7961  1.0066
  843MOL0     C13735   4.072   8.271   8.692  0.3459 -0.5923 -0.0797
  843MOL0     C13736   3.353   7.922   8.534  0.4017  0.6552  0.8222
  843MOL0     C13737   3.232   7.900   8.455 -0.1912 -0.2126 -0.9779
  843MOL0     H13738   2.943   7.916   8.020  0.9760  0.1478  3.3189
  843MOL0     H13739   2.686   7.893   7.965 -2.9245  0.6787  1.4115
  843MOL0     H13740   2.497   8.061   7.825 -0.1115  1.4745  1.2568
  843MOL0     H13741   2.475   7.913   7.931  0.5425 -0.0897 -1.5080
  843MOL0     H13742   2.267   7.988   7.844 -1.6891  0.0874  0.5707
  843MOL0     H13743   2.269   8.018   8.018  2.0985  0.0046  0.2641
  843MOL0     H13744   2.334   8.258   7.983  1.0598 -0.9504 -0.0004
  843MOL0     H13745   2.317   8.247   7.811 -1.2276 -1.2319  0.2602
  843MOL0     H13746   2.092   8.179   7.840 -1.5225 -2.0665  2.2733
  843MOL0     H13747   2.107   8.197   8.018  1.5671  0.1655  0.1976
  843MOL0     H13748   1.996   8.388   7.953  0.0358 -0.6093 -0.2330
  843MOL0     H13749   2.165   8.451   7.964  0.0484  2.0949 -0.8769
  843MOL0     H13750   2.169   8.413   7.712  1.5791  1.3716  0.5868
  843MOL0     H13751   1.992   8.376   7.729  0.7558 -0.3523 -0.0096
  843MOL0     H13752   1.928   8.583   7.822  0.7658  2.3826  0.9019
  843MOL0     H13753   2.097   8.639   7.811  1.3466 -0.7142 -0.4337
  843MOL0     H13754   2.099   8.664   7.574 -0.1713 -0.5799 -0.4287
  843MOL0     H13755   1.984   8.761   7.653 -4.0641 -0.8037 -1.8838
  843MOL0     H13756   1.710   8.626   7.668 -1.2591 -1.9580  0.1433
  843MOL0     H13757   1.527   8.462   7.376 -2.6887  1.9101 -1.0440
  843MOL0     H13758   1.514   8.536   7.538 -2.2752 -0.5340 -2.2736
  843MOL0     H13759   1.581   8.675   7.275  2.9326 -2.0883  1.0857
  843MOL0     H13760   1.559   8.757   7.416  2.8715 -0.2080 -0.5499
  843MOL0     H13761   1.307   8.694   7.433 -1.7368 -1.5730 -0.2013
  843MOL0     H13762   1.343   8.558   7.323  3.2668 -0.5399 -0.4773
  843MOL0     H13763   1.383   8.858   7.227  1.0361  0.4651  1.2296
  843MOL0     H13764   1.221   8.775   7.231  0.1632 -0.4261 -1.3264
  843MOL0     H13765   1.470   8.631   6.894  0.0734 -0.0239 -1.2122
  843MOL0     H13766   1.354   8.564   6.574  0.4270 -1.0351  2.0013
  843MOL0     H13767   1.429   8.732   6.571 -0.0472  0.4045  1.1448
  843MOL0     H13768   1.494   8.604   6.659  0.8386  1.1820 -0.1516
  843MOL0     H13769   0.915   8.843   6.410 -2.1445  1.0198 -2.3078
  843MOL0     H13770   0.800   8.800   6.191 -0.1769 -1.0037 -2.1097
  843MOL0     H13771   0.930   8.529   5.866 -0.1983  3.7809  0.5796
  843MOL0     H13772   0.897   8.403   5.972  0.4354  0.6166 -0.4692
  843MOL0     H13773   0.754   8.371   5.800  2.0083  0.1160  1.5819
  843MOL0     H13774   0.662   8.426   5.954  0.5464  0.2638  1.5600
  843MOL0     H13775   0.723   8.598   5.712 -1.4327  1.1603 -0.1592
  843MOL0     H13776   0.622   8.650   5.848  0.4613  0.1408  0.6696
  843MOL0     H13777   0.564   8.423   5.650 -1.1099 -3.1365  1.5080
  843MOL0     H13778   0.456   8.477   5.788  1.7379  0.3904  0.8451
  843MOL0     H13779   0.534   8.624   5.545  0.1819  1.0393  0.0994
  843MOL0     H13780   0.477   8.710   5.700 -0.0476 -1.4350  0.3606
  843MOL0     H13781   0.323   8.527   5.513 -0.5443  1.3848 -0.9571
  843MOL0     H13782   0.273   8.553   5.682  3.4269 -2.6948  0.8634
  843MOL0     H13783   0.254   8.796   5.613 -2.0200 -0.3948  0.9271
  843MOL0     H13784   0.152   8.689   5.529  0.7261 -0.8391 -1.2878
  843MOL0     H13785   0.333   8.666   5.331 -1.4650  2.1264 -3.0673
  843MOL0     H13786   0.416   8.799   5.415  0.7456 -0.9309  0.3385
  843MOL0     H13787   1.110   8.508   6.099  2.0401  2.8203  0.2061
  843MOL0     H13788   1.193   8.530   6.316  2.4114  1.8178 -3.2151
  843MOL0     H13789   1.060   8.896   6.819  0.1169  2.1744  0.4966
  843MOL0     H13790   1.149   8.883   7.022  0.2998  0.3050 -0.9416
  843MOL0     H13791   2.658   8.280   8.155  3.1687  1.4152  0.7327
  843MOL0     H13792   2.884   8.262   8.232 -1.1497  0.8995 -0.8744
  843MOL0     H13793   3.240   8.194   8.288  2.4296  0.5692 -0.6064
  843MOL0     H13794   3.479   8.196   8.373  2.6957  0.5852  3.9166
  843MOL0     H13795   3.684   8.018   8.354 -2.3172 -0.4797  0.5919
  843MOL0     H13796   3.671   8.162   8.445  0.2045  0.7737  0.3528
  843MOL0     H13797   3.828   7.924   8.545  0.3114  0.9266 -3.4101
  843MOL0     H13798   3.840   8.076   8.631 -0.2758  2.2363 -0.6422
  843MOL0     H13799   3.929   8.009   8.355  0.9908 -0.6448 -0.4786
  843MOL0     H13800   4.019   8.000   8.515 -0.0514 -1.5814 -0.6988
  843MOL0     H13801   3.929   8.271   8.405  0.5450 -0.7209 -0.8157
  843MOL0     H13802   4.096   8.217   8.383 -1.1803 -0.0481 -2.0077
  843MOL0     H13803   4.097   8.283   8.796  0.1222  0.5595 -0.1503
  843MOL0     H13804   3.387   7.856   8.613  2.1603 -0.2940 -0.6592
  843MOL0     H13805   3.169   7.814   8.473 -0.6146  0.5963  1.9354
  844MOL0     O13806   7.566   6.490   6.242 -0.1037  0.3140 -0.5303
  844MOL0     C13807   7.639   6.580   6.211 -0.9526 -0.2076 -0.1644
  844MOL0     O13808   7.601   6.700   6.175 -1.4381  0.3693  0.4748
  844MOL0     C13809   7.476   6.752   6.191 -0.6164  0.1853  1.7284
  844MOL0     C13810   7.454   6.827   6.298 -0.9677  0.0121 -0.1571
  844MOL0     C13811   7.324   6.870   6.331 -0.2913  0.0248  0.3112
  844MOL0     C13812   7.222   6.827   6.245 -0.2005 -0.3003 -0.5041
  844MOL0     O13813   7.100   6.841   6.286  0.5929 -0.1052  0.1795
  844MOL0     C13814   6.996   6.764   6.231  0.5456 -0.0691  0.4441
  844MOL0     C13815   6.878   6.803   6.311 -0.1860 -0.4179  0.0764
  844MOL0     C13816   6.878   6.741   6.451 -1.0031  0.7653  0.9753
  844MOL0     C13817   6.735   6.706   6.509 -0.6076 -0.0926  0.2001
  844MOL0     C13818   6.658   6.845   6.530 -0.5393 -0.5980 -0.0273
  844MOL0     C13819   6.534   6.826   6.614 -0.4878 -0.1491  0.5231
  844MOL0     C13820   6.473   6.956   6.634 -0.0358  0.3896  0.5558
  844MOL0     C13821   6.372   6.946   6.757  0.2254 -0.1634  0.7961
  844MOL0     N13822   6.245   6.877   6.714 -0.2417 -0.0306 -0.0869
  844MOL0     C13823   6.240   6.747   6.703  1.1339  0.9907 -0.3329
  844MOL0     C13824   6.108   6.720   6.700 -0.5307  0.6424  0.6203
  844MOL0     C13825   6.054   6.580   6.710  0.8999  0.6269  1.2884
  844MOL0     C13826   5.991   6.527   6.579 -0.4717 -0.6459 -0.1005
  844MOL0     C13827   5.886   6.617   6.523  0.2243 -0.0591 -0.1279
  844MOL0     C13828   5.810   6.557   6.402 -0.1984  0.9487 -0.0606
  844MOL0     O13829   5.738   6.436   6.436 -1.1278 -0.3223  0.1754
  844MOL0     C13830   5.633   6.389   6.367 -0.0215 -0.0107  0.4063
  844MOL0     C13831   5.618   6.407   6.233 -0.2907  0.0719 -0.2765
  844MOL0     C13832   5.511   6.347   6.159 -0.7583  0.5958  0.7642
  844MOL0     C13833   5.481   6.402   6.024 -0.2649 -0.1531  1.2922
  844MOL0     C13834   5.431   6.260   6.225 -0.0437 -0.2883 -0.7034
  844MOL0     C13835   5.307   6.198   6.164 -0.1309  1.3841 -0.8745
  844MOL0     O13836   5.282   6.199   6.026 -0.8517  0.2050 -0.5529
  844MOL0     C13837   5.161   6.155   5.990  0.4548  1.3820 -0.5258
  844MOL0     C13838   5.047   6.236   5.987 -0.3588 -0.4491 -0.1427
  844MOL0     C13839   4.928   6.186   5.938  0.0098 -0.0130  0.2602
  844MOL0     C13840   4.907   6.049   5.908 -0.4378 -0.2498 -0.1651
  844MOL0     O13841   4.791   5.988   5.866 -0.0258  0.4983  0.3009
  844MOL0     C13842   4.673   6.061   5.871  0.5340 -0.1183 -0.2758
  844MOL0     C13843   4.618   6.083   6.009  0.1959  0.3259 -0.3467
  844MOL0     C13844   4.490   6.165   6.006  1.2009 -0.5892 -0.2477
  844MOL0     C13845   4.408   6.156   6.137  0.5491  0.5304  0.9190
  844MOL0     C13846   4.277   6.229   6.120  0.0350 -0.8695 -0.8422
  844MOL0     C13847   4.289   6.383   6.107  0.8291  0.1186  0.1528
  844MOL0     C13848   4.157   6.463   6.139  0.4296 -1.0813  0.3214
  844MOL0     C13849   4.043   6.419   6.048 -0.8411  0.4781 -0.7489
  844MOL0    Cl13850   3.900   6.515   6.043 -0.0502 -0.0292  0.2103
  844MOL0     C13851   5.017   5.966   5.923 -0.1598 -0.6376  0.5225
  844MOL0     C13852   5.143   6.019   5.948 -0.3583  0.1067 -0.6179
  844MOL0     O13853   5.230   6.148   6.244 -0.4212 -0.1346 -0.4027
  844MOL0     C13854   5.454   6.229   6.359  0.6258  1.0552  0.3861
  844MOL0     C13855   5.556   6.294   6.419 -0.1318 -0.2687 -0.5271
  844MOL0     N13856   6.035   6.832   6.716  0.3030  0.0825  0.8885
  844MOL0     N13857   6.123   6.930   6.726 -0.7970 -0.3386 -0.3667
  844MOL0     C13858   7.251   6.765   6.130  0.1750 -0.3213  0.0433
  844MOL0     C13859   7.378   6.732   6.093 -0.4064 -0.4507  0.1560
  844MOL0     C13860   7.790   6.556   6.220  0.2856  0.2175 -0.7095
  844MOL0     C13861   7.848   6.424   6.232  0.5971 -0.3706 -0.1827
  844MOL0     C13862   7.986   6.408   6.237 -0.5441 -0.4777 -0.0848
  844MOL0     C13863   8.072   6.521   6.234  0.1305 -0.4671 -0.6742
  844MOL0     O13864   8.208   6.519   6.242 -0.6164 -0.4872 -0.2865
  844MOL0     C13865   8.281   6.400   6.220 -0.0120 -0.9435 -0.4408
  844MOL0     C13866   8.316   6.382   6.065 -0.5728 -0.0766 -0.4177
  844MOL0     C13867   8.426   6.283   6.021  1.0840  0.7197  0.0704
  844MOL0     C13868   8.447   6.274   5.872 -0.2070  0.5831 -0.2826
  844MOL0     C13869   8.500   6.402   5.816 -0.1438 -0.4612  1.3250
  844MOL0     C13870   8.556   6.498   5.754 -0.7183  0.6855 -0.5998
  844MOL0     C13871   8.009   6.649   6.239 -0.0724  0.2562 -0.0629
  844MOL0     C13872   7.872   6.669   6.222 -0.2107 -0.2001 -0.3869
  844MOL0     H13873   7.534   6.822   6.371 -0.6978 -0.8424 -0.4933
  844MOL0     H13874   7.308   6.943   6.409 -0.4190 -0.6480  0.9264
  844MOL0     H13875   6.979   6.779   6.124 -1.3217 -1.7409  0.4488
  844MOL0     H13876   7.013   6.656   6.234  1.6775  0.0790 -0.0907
  844MOL0     H13877   6.868   6.911   6.325  1.7728 -0.3316  1.0660
  844MOL0     H13878   6.788   6.773   6.256 -1.1019  1.4300  0.4925
  844MOL0     H13879   6.944   6.654   6.453  1.3600  2.3443 -1.2373
  844MOL0     H13880   6.920   6.811   6.525 -3.1869  1.0015  2.0651
  844MOL0     H13881   6.681   6.646   6.436  2.2249 -0.0841 -2.0916
  844MOL0     H13882   6.740   6.653   6.604 -0.6838 -0.1432  0.1761
  844MOL0     H13883   6.722   6.913   6.586 -1.7862  0.1806  0.4955
  844MOL0     H13884   6.650   6.881   6.427  1.0964  1.1476  0.3934
  844MOL0     H13885   6.459   6.771   6.556 -0.3476  1.3258 -1.1638
  844MOL0     H13886   6.559   6.790   6.714 -1.7902  0.4398  1.0792
  844MOL0     H13887   6.544   7.029   6.674  0.7630 -1.1437  2.0928
  844MOL0     H13888   6.427   6.996   6.544  1.4592 -2.2387 -1.5295
  844MOL0     H13889   6.346   7.050   6.780  1.2078  0.1136  0.7287
  844MOL0     H13890   6.413   6.897   6.846 -0.4665 -1.9164  0.1933
  844MOL0     H13891   6.319   6.674   6.697  1.6504  1.5827 -0.9418
  844MOL0     H13892   6.135   6.517   6.747 -0.7204 -2.7038 -0.3478
  844MOL0     H13893   5.972   6.576   6.782  0.1928 -2.0207  0.4741
  844MOL0     H13894   5.936   6.433   6.584 -1.4115 -0.2278 -1.5664
  844MOL0     H13895   6.068   6.497   6.507 -1.6418 -2.4761 -0.6685
  844MOL0     H13896   5.921   6.717   6.494 -2.3817  0.4780 -1.8293
  844MOL0     H13897   5.803   6.630   6.593  0.7698  2.0360  0.2093
  844MOL0     H13898   5.879   6.526   6.323  0.1198  0.1770  0.5050
  844MOL0     H13899   5.738   6.628   6.362 -2.9458 -1.1912  0.8116
  844MOL0     H13900   5.689   6.464   6.174  1.7205 -2.3599 -0.3313
  844MOL0     H13901   5.530   6.497   5.998 -1.2228 -0.0411 -0.1961
  844MOL0     H13902   5.518   6.336   5.945 -2.2151  1.6661 -1.3251
  844MOL0     H13903   5.376   6.429   6.007  0.1168  0.5498 -0.1384
  844MOL0     H13904   5.065   6.338   6.018  2.1605  0.1544 -3.1251
  844MOL0     H13905   4.849   6.254   5.906  0.6193 -0.3226 -2.0710
  844MOL0     H13906   4.687   6.158   5.823  1.8236 -1.1200 -2.0305
  844MOL0     H13907   4.609   6.008   5.800 -0.0440 -0.3594  0.4029
  844MOL0     H13908   4.589   5.993   6.064  1.0025 -0.1769 -0.7369
  844MOL0     H13909   4.692   6.128   6.075  0.8600  0.0817 -0.9166
  844MOL0     H13910   4.423   6.127   5.929  0.0739 -0.1072  0.4704
  844MOL0     H13911   4.502   6.271   5.984 -0.0170  0.2217  2.5190
  844MOL0     H13912   4.372   6.054   6.154 -3.1902  1.3363 -0.8382
  844MOL0     H13913   4.457   6.192   6.227  2.2189  0.7852 -0.0472
  844MOL0     H13914   4.237   6.222   6.222  2.9294  1.0569  0.5531
  844MOL0     H13915   4.212   6.191   6.040 -2.2133  0.7700  0.0937
  844MOL0     H13916   4.360   6.402   6.188 -0.7373  1.0864  1.3532
  844MOL0     H13917   4.337   6.406   6.012 -1.4719  0.4906 -0.9798
  844MOL0     H13918   4.162   6.567   6.107 -3.8444 -1.8215 -4.0592
  844MOL0     H13919   4.124   6.460   6.243  2.9133  2.5631  1.4097
  844MOL0     H13920   4.019   6.320   6.088  2.8325 -0.6236 -0.8913
  844MOL0     H13921   4.090   6.398   5.951  0.9039 -0.5639  0.2652
  844MOL0     H13922   4.990   5.861   5.924 -1.1658 -0.3918  1.7768
  844MOL0     H13923   5.223   5.950   5.975  0.1642  1.2031  0.7594
  844MOL0     H13924   5.392   6.163   6.418 -0.8716  2.1179  0.0736
  844MOL0     H13925   5.578   6.268   6.522 -0.7684 -0.7310 -0.5013
  844MOL0     H13926   7.175   6.734   6.059 -0.9524 -1.7801  1.8000
  844MOL0     H13927   7.403   6.682   5.999 -0.9485  1.1950 -0.9057
  844MOL0     H13928   7.779   6.341   6.241  0.8791 -0.7294 -1.1857
  844MOL0     H13929   8.029   6.313   6.265 -1.8655 -0.4320  2.3449
  844MOL0     H13930   8.377   6.411   6.271  0.4670 -1.1798 -1.2892
  844MOL0     H13931   8.222   6.315   6.257 -2.2168  0.5478 -0.2870
  844MOL0     H13932   8.356   6.479   6.036  0.0804 -0.3320 -0.3923
  844MOL0     H13933   8.224   6.360   6.010 -0.6880  1.1435 -0.7309
  844MOL0     H13934   8.385   6.188   6.057 -0.0733  0.3138 -2.1545
  844MOL0     H13935   8.521   6.320   6.061  0.3514  1.0424  1.5859
  844MOL0     H13936   8.353   6.268   5.815 -1.7047  1.5823  1.9647
  844MOL0     H13937   8.509   6.186   5.854 -0.9928 -0.3012  1.1683
  844MOL0     H13938   8.623   6.572   5.714  1.4473 -0.6229  0.3724
  844MOL0     H13939   8.078   6.733   6.236  2.3873 -1.6377  0.2486
  844MOL0     H13940   7.836   6.771   6.208  2.0712  1.0369  1.8146
  845MOL0     O13941  10.119   3.488   3.973  0.2445  0.4208  0.5137
  845MOL0     C13942  10.216   3.489   4.053  0.4237 -0.1322  0.1897
  845MOL0     O13943  10.200   3.532   4.184 -0.4109 -0.1985 -0.5498
  845MOL0     C13944  10.081   3.541   4.252 -0.4203 -0.0079 -0.9094
  845MOL0     C13945  10.099   3.539   4.389 -0.2774 -1.0390  0.2314
  845MOL0     C13946   9.984   3.575   4.471  0.8086 -0.1715 -0.8665
  845MOL0     C13947   9.867   3.632   4.418 -0.0481 -0.1089  0.0918
  845MOL0     O13948   9.760   3.675   4.481  0.0680 -0.4011 -0.2396
  845MOL0     C13949   9.764   3.696   4.619 -0.7532 -0.4059 -1.3387
  845MOL0     C13950   9.625   3.742   4.655 -0.8747 -0.1655  0.5728
  845MOL0     C13951   9.612   3.735   4.807  0.0066 -0.0684 -0.0189
  845MOL0     C13952   9.467   3.755   4.847 -0.3670 -0.0427  0.4311
  845MOL0     C13953   9.452   3.770   4.995 -0.0041  0.7432  0.2310
  845MOL0     C13954   9.523   3.883   5.066 -0.9485 -0.2770 -1.1906
  845MOL0     C13955   9.492   3.875   5.217  0.3254 -0.9946 -0.1302
  845MOL0     C13956   9.356   3.946   5.256  0.9214  0.0610 -0.4669
  845MOL0     N13957   9.341   3.936   5.400  0.1820 -0.2034 -0.1369
  845MOL0     C13958   9.290   4.033   5.486  0.1486  0.8570 -0.4147
  845MOL0     C13959   9.243   3.970   5.598  0.8224 -0.1661  0.4349
  845MOL0     C13960   9.169   4.026   5.712  0.0824 -0.2429 -0.2741
  845MOL0     C13961   9.068   3.932   5.778 -0.0094  0.0513  0.2640
  845MOL0     C13962   9.035   3.962   5.921 -0.1554  0.2467  0.2136
  845MOL0     C13963   9.012   4.115   5.948  0.1910 -0.3292  0.2271
  845MOL0     O13964   8.906   4.170   5.870 -0.3492 -0.7620  0.2928
  845MOL0     C13965   8.783   4.191   5.929  0.5046 -0.3475  0.3756
  845MOL0     C13966   8.714   4.110   6.014 -0.9249  0.0875  0.1314
  845MOL0     C13967   8.581   4.129   6.037 -0.2564  0.7598 -1.2864
  845MOL0     C13968   8.526   4.011   6.113 -0.9123  0.1252 -0.1104
  845MOL0     C13969   8.524   4.249   5.987  0.6426 -0.1530 -0.1517
  845MOL0     C13970   8.382   4.288   5.999  0.1538  0.1303  0.4373
  845MOL0     O13971   8.324   4.389   5.913  0.7357  0.1942 -0.2775
  845MOL0     C13972   8.190   4.424   5.917 -0.8571  0.1903 -0.2190
  845MOL0     C13973   8.112   4.430   6.028  0.5958  0.1651 -0.4404
  845MOL0     C13974   7.970   4.461   6.007 -0.2865  0.7894 -0.8402
  845MOL0     C13975   7.915   4.459   5.877  0.2999  0.5642 -0.7177
  845MOL0     O13976   7.785   4.485   5.865  0.2227 -0.1184  0.4593
  845MOL0     C13977   7.731   4.572   5.760 -0.1569  0.3492 -0.3462
  845MOL0     C13978   7.600   4.638   5.813 -0.0367 -0.4805  1.1133
  845MOL0     C13979   7.468   4.627   5.723  0.8082  0.1609  0.2096
  845MOL0     C13980   7.429   4.480   5.706 -0.1100  0.2749  0.3288
  845MOL0     C13981   7.300   4.477   5.609  0.1636  0.2838 -0.2289
  845MOL0     C13982   7.170   4.527   5.682 -1.0877  0.6170 -0.0750
  845MOL0     C13983   7.055   4.503   5.598  1.0972 -0.5314 -0.2234
  845MOL0     C13984   6.934   4.562   5.663  0.0438 -0.3604 -0.3404
  845MOL0    Cl13985   6.934   4.735   5.689 -0.4137  0.0370  0.1715
  845MOL0     C13986   8.002   4.455   5.769  0.0925  0.5708 -0.4418
  845MOL0     C13987   8.138   4.440   5.787  0.3073 -0.1919  0.0477
  845MOL0     O13988   8.318   4.225   6.081  0.2573 -0.3434  0.0160
  845MOL0     C13989   8.592   4.321   5.887 -0.3024 -0.9790  0.5454
  845MOL0     C13990   8.724   4.299   5.872  0.2459 -0.1346  0.5499
  845MOL0     N13991   9.274   3.838   5.583 -0.8108  0.2195 -0.0248
  845MOL0     N13992   9.333   3.815   5.466  0.6585  0.3381 -0.3730
  845MOL0     C13993   9.858   3.627   4.277 -0.0739 -0.3145 -0.1475
  845MOL0     C13994   9.961   3.579   4.195 -0.3986  0.0184 -0.2694
  845MOL0     C13995  10.352   3.457   4.003  0.0839  0.1666 -0.9356
  845MOL0     C13996  10.375   3.443   3.865  0.4231 -0.3469  0.0616
  845MOL0     C13997  10.505   3.412   3.820  0.2080 -0.5349  0.6801
  845MOL0     C13998  10.607   3.386   3.909  1.1014 -0.5558  0.3013
  845MOL0     O13999  10.723   3.351   3.855  1.0358 -0.6053  0.8711
  845MOL0     C14000  10.837   3.356   3.933  0.0772  0.3823 -0.1266
  845MOL0     C14001  10.959   3.383   3.845 -0.3093 -0.8950 -0.6589
  845MOL0     C14002  10.969   3.306   3.716  0.7525  0.2627 -0.3903
  845MOL0     C14003  10.957   3.158   3.725  0.7931  0.4392 -0.5925
  845MOL0     C14004  10.989   3.093   3.598 -1.0602  0.0115  0.6780
  845MOL0     C14005  11.013   3.038   3.494 -0.4558 -0.4437  0.3527
  845MOL0     C14006  10.578   3.386   4.044  0.1245 -0.8144 -0.7170
  845MOL0     C14007  10.456   3.424   4.093  0.2482  0.4642 -0.6225
  845MOL0     H14008  10.184   3.492   4.437 -1.2490 -0.5944  2.5190
  845MOL0     H14009   9.990   3.557   4.578 -0.1531 -1.6425 -1.0442
  845MOL0     H14010   9.780   3.599   4.667  2.2921  1.6529  2.3666
  845MOL0     H14011   9.845   3.768   4.635 -1.3781 -0.4242  3.1780
  845MOL0     H14012   9.606   3.842   4.617 -0.6164 -0.4842 -0.4180
  845MOL0     H14013   9.546   3.687   4.603  0.0802 -0.0424 -1.0622
  845MOL0     H14014   9.656   3.647   4.854  0.2312  1.3373  2.6137
  845MOL0     H14015   9.679   3.814   4.844 -0.6115 -0.6380  2.5037
  845MOL0     H14016   9.422   3.845   4.805 -1.2002 -0.1753  0.9898
  845MOL0     H14017   9.418   3.666   4.806  0.1632  1.3076 -3.5033
  845MOL0     H14018   9.346   3.795   4.993  0.0883  1.1265 -0.1412
  845MOL0     H14019   9.478   3.682   5.055  0.1145  1.6724  1.6029
  845MOL0     H14020   9.632   3.884   5.061 -0.8634  0.2867  0.3003
  845MOL0     H14021   9.490   3.983   5.036 -1.6801  0.7009  2.3800
  845MOL0     H14022   9.492   3.769   5.245  2.5680 -1.1135 -0.4688
  845MOL0     H14023   9.575   3.929   5.264  0.8208 -1.3881 -0.5444
  845MOL0     H14024   9.263   3.914   5.208 -2.7102  2.5385  4.1593
  845MOL0     H14025   9.350   4.054   5.240 -1.7263  0.7889  3.8194
  845MOL0     H14026   9.283   4.141   5.470 -3.0046  0.9314  0.6688
  845MOL0     H14027   9.242   4.055   5.788  1.3451 -3.3584 -0.1440
  845MOL0     H14028   9.128   4.120   5.675  3.4488  2.4190  2.1138
  845MOL0     H14029   9.099   3.828   5.766 -1.7659 -0.5030  0.2651
  845MOL0     H14030   8.970   3.939   5.730 -0.9551 -1.9978  1.7363
  845MOL0     H14031   9.116   3.930   5.989  1.6217  1.5115 -1.2009
  845MOL0     H14032   8.952   3.905   5.963 -0.7814  2.3247  2.0211
  845MOL0     H14033   9.109   4.160   5.923  0.3046  0.0492  1.3035
  845MOL0     H14034   9.000   4.125   6.056  0.3661  0.6101  0.1713
  845MOL0     H14035   8.769   4.025   6.053  1.5726  0.8223 -1.5642
  845MOL0     H14036   8.423   3.991   6.081 -0.2636  0.6891 -2.8018
  845MOL0     H14037   8.585   3.919   6.106  2.1725  1.7718  2.0769
  845MOL0     H14038   8.535   4.028   6.220 -1.1402 -1.1640  0.1325
  845MOL0     H14039   8.146   4.428   6.130 -2.3731  1.0889  0.6875
  845MOL0     H14040   7.905   4.474   6.093  1.4444  4.4428  0.1170
  845MOL0     H14041   7.803   4.648   5.728  0.5083  0.6319  1.6668
  845MOL0     H14042   7.705   4.509   5.674 -1.3252 -2.9379  2.1891
  845MOL0     H14043   7.579   4.600   5.913  2.0217  1.1671  2.2740
  845MOL0     H14044   7.622   4.744   5.829  2.9473 -0.2593 -2.9599
  845MOL0     H14045   7.489   4.669   5.624  2.8309  1.4569  1.1211
  845MOL0     H14046   7.391   4.689   5.768 -0.0954 -0.6967 -0.1059
  845MOL0     H14047   7.510   4.432   5.651  0.9210  0.9909  1.1660
  845MOL0     H14048   7.405   4.439   5.804 -1.6058  0.2259 -0.0261
  845MOL0     H14049   7.292   4.370   5.588  3.3884 -0.0021 -0.5006
  845MOL0     H14050   7.314   4.541   5.521  0.9749 -0.5152 -0.7087
  845MOL0     H14051   7.169   4.474   5.778 -0.6038 -0.1524 -0.4815
  845MOL0     H14052   7.186   4.634   5.697 -0.3599  0.5897 -0.6088
  845MOL0     H14053   7.034   4.398   5.575 -0.7543 -0.7366  1.9639
  845MOL0     H14054   7.069   4.542   5.497  0.2354 -1.4641 -0.7254
  845MOL0     H14055   6.918   4.523   5.764 -2.3056  1.8416  0.2434
  845MOL0     H14056   6.842   4.540   5.607  0.4086 -2.7367 -0.1329
  845MOL0     H14057   7.971   4.471   5.666  1.4334 -2.3585 -1.3985
  845MOL0     H14058   8.199   4.444   5.698  0.5260 -0.2047  0.1985
  845MOL0     H14059   8.554   4.401   5.824  1.0067 -3.2550 -3.5058
  845MOL0     H14060   8.772   4.367   5.802 -2.1421  0.6270 -0.4558
  845MOL0     H14061   9.780   3.681   4.223 -0.7763  2.6359  3.4482
  845MOL0     H14062   9.959   3.581   4.087  6.0292 -1.2312 -0.8212
  845MOL0     H14063  10.302   3.440   3.785  0.4042  2.3764 -0.1003
  845MOL0     H14064  10.532   3.403   3.715 -0.4510  1.4955  0.2975
  845MOL0     H14065  10.836   3.435   4.009  0.1396 -0.6730  0.9992
  845MOL0     H14066  10.855   3.260   3.982  0.5365  0.1189 -0.8084
  845MOL0     H14067  11.046   3.364   3.908 -2.7582  1.1645  3.7551
  845MOL0     H14068  10.974   3.491   3.838  1.9714 -1.1466 -0.6311
  845MOL0     H14069  11.065   3.321   3.667 -0.1736 -0.0546 -2.4221
  845MOL0     H14070  10.897   3.356   3.650  1.8853  0.3907 -1.5657
  845MOL0     H14071  10.856   3.119   3.741  1.8979 -3.6137 -2.3251
  845MOL0     H14072  11.021   3.122   3.807 -0.2742 -0.2889 -0.0643
  845MOL0     H14073  11.036   2.976   3.410  1.6729 -0.6750  1.0476
  845MOL0     H14074  10.651   3.365   4.121 -1.4962 -1.7500  0.6210
  845MOL0     H14075  10.454   3.433   4.201 -1.3074 -1.9786 -0.3677
  846MOL0     O14076   8.954   5.379   1.945  0.3839  0.7907 -0.3354
  846MOL0     C14077   9.074   5.373   1.904  0.0990 -0.1835 -0.4733
  846MOL0     O14078   9.143   5.261   1.865 -0.5489  0.0963  0.0437
  846MOL0     C14079   9.083   5.145   1.808  0.4143  0.1598 -0.0336
  846MOL0     C14080   8.948   5.107   1.839 -0.6993 -0.3002 -0.2519
  846MOL0     C14081   8.894   5.002   1.759 -0.4389 -0.1095 -0.6258
  846MOL0     C14082   8.971   4.946   1.663 -0.0383  0.1012  0.5237
  846MOL0     O14083   8.914   4.837   1.611  0.4691 -0.6918  0.2147
  846MOL0     C14084   8.929   4.814   1.474 -0.0457 -0.0953  0.6057
  846MOL0     C14085   8.955   4.661   1.460 -0.2972  0.5916  0.1225
  846MOL0     C14086   8.826   4.581   1.464 -0.1817  0.0910  0.9383
  846MOL0     C14087   8.866   4.431   1.435 -0.1877  0.1815  0.6079
  846MOL0     C14088   8.728   4.346   1.429  0.0559 -0.3447 -0.1330
  846MOL0     C14089   8.651   4.329   1.562 -0.3293 -0.5764  0.1443
  846MOL0     C14090   8.510   4.266   1.542  0.3125  0.2197 -0.1158
  846MOL0     C14091   8.504   4.140   1.457  0.0640 -0.5608  0.2197
  846MOL0     N14092   8.373   4.085   1.435 -0.0781  0.1636 -0.3198
  846MOL0     C14093   8.333   3.978   1.505 -0.0034  0.2932 -0.1695
  846MOL0     C14094   8.232   3.917   1.442  0.1742 -0.3778 -0.0831
  846MOL0     C14095   8.161   3.791   1.482 -0.5843 -0.1171 -0.1072
  846MOL0     C14096   8.249   3.658   1.446  0.5961 -0.6296 -0.5644
  846MOL0     C14097   8.182   3.530   1.512 -0.3070  0.1718  0.4489
  846MOL0     C14098   8.029   3.518   1.505  0.5478 -0.8353 -0.4866
  846MOL0     O14099   7.981   3.397   1.547 -0.5093  0.0864  0.7857
  846MOL0     C14100   7.850   3.363   1.539 -0.0711  0.1563 -0.8451
  846MOL0     C14101   7.803   3.239   1.577  0.0588  0.5769 -0.1580
  846MOL0     C14102   7.662   3.198   1.572  0.0718 -0.3890  0.6969
  846MOL0     C14103   7.633   3.057   1.612  0.1800  1.0261  0.7973
  846MOL0     C14104   7.571   3.299   1.524  0.1251  0.2339 -0.1656
  846MOL0     C14105   7.427   3.258   1.494 -0.2381 -0.1531 -0.1059
  846MOL0     O14106   7.345   3.360   1.441 -0.4243  0.3554  0.4354
  846MOL0     C14107   7.226   3.325   1.383 -0.2647 -0.6524  0.2377
  846MOL0     C14108   7.223   3.247   1.261 -0.4012  0.2707  0.6081
  846MOL0     C14109   7.097   3.220   1.198  0.8139  0.2153 -0.3094
  846MOL0     C14110   6.973   3.260   1.271  0.5738  0.0984  0.0958
  846MOL0     O14111   6.844   3.240   1.230  0.4882  0.1804 -0.1649
  846MOL0     C14112   6.817   3.207   1.097  0.1509  0.4363  0.0075
  846MOL0     C14113   6.681   3.142   1.096  0.9911 -0.1970  0.0486
  846MOL0     C14114   6.567   3.223   1.157  0.0667  0.2383  0.4340
  846MOL0     C14115   6.425   3.169   1.124 -0.1700  0.1539  1.2410
  846MOL0     C14116   6.315   3.251   1.184  1.0696  0.1920 -0.3772
  846MOL0     C14117   6.173   3.218   1.142  0.2959  1.0214  0.2451
  846MOL0     C14118   6.064   3.303   1.201 -0.1381 -0.6154  0.0803
  846MOL0     C14119   6.034   3.281   1.347  1.1550  0.4695  0.7467
  846MOL0    Cl14120   5.978   3.115   1.387 -0.3141 -0.0817  0.0575
  846MOL0     C14121   6.989   3.342   1.382 -0.6165 -0.5089 -0.6791
  846MOL0     C14122   7.110   3.376   1.448 -0.4796  0.1794 -0.5408
  846MOL0     O14123   7.387   3.142   1.509  0.0749  0.5512 -0.0424
  846MOL0     C14124   7.616   3.422   1.492  0.3908 -0.0867  0.7266
  846MOL0     C14125   7.759   3.455   1.506  0.1940 -0.6580 -0.0460
  846MOL0     N14126   8.211   4.000   1.335 -0.2904  0.7428  0.3387
  846MOL0     N14127   8.291   4.101   1.330  0.4395  0.3325  0.1890
  846MOL0     C14128   9.104   4.978   1.633  0.2720  0.1250 -0.0104
  846MOL0     C14129   9.164   5.078   1.716  0.6802 -1.3899 -0.2254
  846MOL0     C14130   9.150   5.499   1.921 -0.0632 -0.0516  0.6232
  846MOL0     C14131   9.114   5.607   2.009 -0.0732  0.5311  0.4822
  846MOL0     C14132   9.210   5.713   2.019  0.9375 -0.1698  0.4677
  846MOL0     C14133   9.329   5.717   1.944 -0.0051 -0.5011 -0.0178
  846MOL0     O14134   9.419   5.823   1.947 -0.2346  0.8484 -0.6704
  846MOL0     C14135   9.408   5.937   2.038 -0.3130  0.7545  0.3456
  846MOL0     C14136   9.446   5.875   2.175 -0.3777  0.1264  0.3372
  846MOL0     C14137   9.584   5.814   2.187 -0.8491  0.0937 -0.3990
  846MOL0     C14138   9.702   5.906   2.232 -0.1092  0.0810  0.9165
  846MOL0     C14139   9.827   5.840   2.239  0.4452  0.3707  0.4528
  846MOL0     C14140   9.935   5.777   2.228 -0.0317 -0.6836  1.2051
  846MOL0     C14141   9.353   5.614   1.852  0.1455  0.8999 -0.2706
  846MOL0     C14142   9.274   5.504   1.846 -0.0691  0.3651  0.3369
  846MOL0     H14143   8.882   5.149   1.913 -2.7819 -0.0099 -2.1586
  846MOL0     H14144   8.790   4.974   1.768  0.6378 -5.0668 -0.7068
  846MOL0     H14145   8.837   4.848   1.427  0.2489  0.3284  0.3278
  846MOL0     H14146   9.010   4.863   1.421 -0.4665 -1.1512 -1.0884
  846MOL0     H14147   9.005   4.650   1.363 -1.0965  0.3515 -0.2697
  846MOL0     H14148   9.017   4.626   1.543  0.6097  0.5381 -0.5544
  846MOL0     H14149   8.780   4.602   1.561  0.1138 -0.9927  1.3230
  846MOL0     H14150   8.760   4.606   1.380 -0.0280 -1.4470  0.3352
  846MOL0     H14151   8.927   4.420   1.345 -0.0219 -0.7597  0.8257
  846MOL0     H14152   8.931   4.389   1.512  0.8284  1.2909  0.3934
  846MOL0     H14153   8.660   4.391   1.357 -1.6504 -0.5448  1.2831
  846MOL0     H14154   8.752   4.244   1.399 -0.5075  0.2672 -2.9330
  846MOL0     H14155   8.712   4.275   1.635  2.1313  1.0826 -0.5618
  846MOL0     H14156   8.644   4.429   1.604 -2.0249 -0.1873 -0.9635
  846MOL0     H14157   8.473   4.224   1.636 -0.4283 -0.9797 -0.9224
  846MOL0     H14158   8.445   4.333   1.486 -0.8611 -0.2611  0.6381
  846MOL0     H14159   8.567   4.068   1.510  1.1465  1.4547  1.7834
  846MOL0     H14160   8.549   4.171   1.362  1.7476  1.0703  1.4934
  846MOL0     H14161   8.375   3.929   1.592 -0.9261 -0.5561 -0.1841
  846MOL0     H14162   8.153   3.793   1.591 -1.2660 -2.8510 -0.0568
  846MOL0     H14163   8.065   3.786   1.431 -0.3350  0.1730 -0.6124
  846MOL0     H14164   8.353   3.656   1.479  0.2360 -2.7946  0.6771
  846MOL0     H14165   8.247   3.643   1.338  2.8416 -1.9432 -0.4797
  846MOL0     H14166   8.213   3.542   1.617 -0.2903  4.0614  0.1458
  846MOL0     H14167   8.218   3.437   1.469  1.6123  0.0074  2.2824
  846MOL0     H14168   7.986   3.547   1.409 -3.2932 -0.0998  1.2824
  846MOL0     H14169   7.981   3.595   1.567  0.3211  0.3010 -2.0178
  846MOL0     H14170   7.883   3.171   1.605  0.8692  0.5863 -2.3183
  846MOL0     H14171   7.714   3.016   1.673 -0.2792 -0.4460  0.4429
  846MOL0     H14172   7.541   3.038   1.670  1.7656 -0.0532  3.1211
  846MOL0     H14173   7.621   2.993   1.525 -0.6504  0.8461  1.0300
  846MOL0     H14174   7.313   3.213   1.212 -1.8506 -2.4562 -0.4186
  846MOL0     H14175   7.098   3.167   1.103  3.8017  3.3421 -2.2440
  846MOL0     H14176   6.809   3.297   1.035 -2.2464  0.2956  0.0170
  846MOL0     H14177   6.898   3.154   1.047 -0.9768  2.6824 -4.7724
  846MOL0     H14178   6.676   3.140   0.987 -0.7127  3.3326 -0.0897
  846MOL0     H14179   6.677   3.044   1.143  1.3330 -0.8960 -1.3226
  846MOL0     H14180   6.570   3.322   1.110  1.1974 -0.1694 -0.3799
  846MOL0     H14181   6.572   3.232   1.266  3.3999  0.4284  0.3598
  846MOL0     H14182   6.415   3.167   1.015  3.7557 -1.7977  0.7547
  846MOL0     H14183   6.411   3.066   1.158  2.4876  0.2661  2.9748
  846MOL0     H14184   6.339   3.358   1.174  2.8902 -0.1610 -0.1228
  846MOL0     H14185   6.316   3.232   1.292 -0.6227 -3.1717 -0.8305
  846MOL0     H14186   6.175   3.237   1.034  0.9377  3.2208  0.5950
  846MOL0     H14187   6.147   3.112   1.154  0.4615  0.3117 -4.0844
  846MOL0     H14188   5.975   3.283   1.140  0.4864  4.7233 -3.2368
  846MOL0     H14189   6.091   3.409   1.190  0.8119 -0.5585  2.3522
  846MOL0     H14190   5.953   3.349   1.375 -0.3982 -1.5737  1.5287
  846MOL0     H14191   6.117   3.297   1.415  0.8082 -1.5436  1.7341
  846MOL0     H14192   6.905   3.374   1.443  0.8887 -2.0059  2.4048
  846MOL0     H14193   7.131   3.436   1.536  3.9713  0.0208 -1.2551
  846MOL0     H14194   7.552   3.503   1.460 -0.4314 -0.6929  0.8086
  846MOL0     H14195   7.792   3.555   1.481 -3.0550  0.2697 -1.0917
  846MOL0     H14196   9.156   4.913   1.563  1.7155  1.2126 -0.0054
  846MOL0     H14197   9.264   5.119   1.705 -1.3073  3.7781 -2.4769
  846MOL0     H14198   9.021   5.598   2.064 -1.5711 -0.7866 -2.0642
  846MOL0     H14199   9.172   5.794   2.080 -0.8571 -0.8553  0.3421
  846MOL0     H14200   9.481   6.015   2.017  0.9969 -0.7834 -1.1460
  846MOL0     H14201   9.311   5.986   2.049 -0.2166  0.4797  3.0839
  846MOL0     H14202   9.369   5.804   2.207 -0.1356 -0.5670 -0.5715
  846MOL0     H14203   9.445   5.951   2.253  0.8328 -2.3746  2.9615
  846MOL0     H14204   9.610   5.775   2.088 -0.0178  2.9812 -1.4337
  846MOL0     H14205   9.575   5.727   2.253 -0.9189  1.7324  1.8494
  846MOL0     H14206   9.673   5.942   2.331 -0.5030  0.0680  0.8101
  846MOL0     H14207   9.706   5.977   2.149  1.8803 -3.1370 -1.9948
  846MOL0     H14208  10.023   5.718   2.217  1.3946  1.1816  2.0023
  846MOL0     H14209   9.428   5.626   1.774  0.0449  0.4358 -0.4432
  846MOL0     H14210   9.308   5.421   1.785  2.2554  0.9679  0.7294
  847MOL0     O14211   3.663   9.285  10.903 -0.1131  0.7523  0.4746
  847MOL0     C14212   3.669   9.266  11.022  0.7405 -0.0809 -0.0037
  847MOL0     O14213   3.567   9.279  11.110  0.3379  0.5622  0.0928
  847MOL0     C14214   3.444   9.294  11.050 -0.0379  0.4331 -0.1111
  847MOL0     C14215   3.396   9.403  10.971  0.3806  0.7419  0.0545
  847MOL0     C14216   3.269   9.390  10.916  0.3028  0.1592  0.4055
  847MOL0     C14217   3.185   9.289  10.957  0.5045 -0.1065  1.0502
  847MOL0     O14218   3.054   9.296  10.914 -0.1051 -0.1010 -0.5324
  847MOL0     C14219   3.013   9.178  10.836 -0.4251 -0.7029  0.1023
  847MOL0     C14220   2.922   9.217  10.718  0.0289  0.3890 -0.1619
  847MOL0     C14221   2.782   9.281  10.751  0.4375 -0.3514 -1.0028
  847MOL0     C14222   2.696   9.197  10.854  0.2790  0.0731 -0.1710
  847MOL0     C14223   2.569   9.261  10.891  0.4849  0.1331  0.1536
  847MOL0     C14224   2.477   9.179  10.971  0.2736  0.3398  0.1850
  847MOL0     C14225   2.359   9.265  11.002  0.6384  0.3527 -0.2939
  847MOL0     C14226   2.278   9.205  11.112 -0.5977  0.5498 -0.0708
  847MOL0     N14227   2.347   9.224  11.235 -0.0550  0.4390  0.2730
  847MOL0     C14228   2.364   9.345  11.296 -0.5201 -0.2021  0.4157
  847MOL0     C14229   2.446   9.315  11.398 -0.0926 -0.6087 -0.0228
  847MOL0     C14230   2.505   9.432  11.486  0.4026  0.3198 -0.5173
  847MOL0     C14231   2.449   9.436  11.628 -0.4003 -0.1571  0.3176
  847MOL0     C14232   2.546   9.348  11.708 -0.2487 -0.5582 -0.6001
  847MOL0     C14233   2.488   9.343  11.853 -0.1000  0.2585  0.5703
  847MOL0     O14234   2.483   9.478  11.911 -0.6503 -0.2607  0.7904
  847MOL0     C14235   2.398   9.485  12.024 -0.0378 -0.2047  0.2821
  847MOL0     C14236   2.279   9.553  12.017  0.0285  0.0783  0.0202
  847MOL0     C14237   2.197   9.564  12.127 -0.0531  0.0372 -0.1605
  847MOL0     C14238   2.069   9.642  12.106 -0.7134 -0.0230 -0.0342
  847MOL0     C14239   2.227   9.502  12.246 -0.2358  0.4670  0.8312
  847MOL0     C14240   2.125   9.493  12.362 -1.1962  0.0799  0.0836
  847MOL0     O14241   2.182   9.511  12.489  0.3802  0.1880  0.2799
  847MOL0     C14242   2.106   9.533  12.598  0.5481  0.0658  0.1011
  847MOL0     C14243   1.973   9.576  12.588 -0.3383 -0.3478  0.9625
  847MOL0     C14244   1.894   9.579  12.708 -0.3093 -0.3032 -0.6702
  847MOL0     C14245   1.939   9.528  12.827 -0.1490  0.0839  0.0527
  847MOL0     O14246   1.852   9.535  12.932 -0.1602  0.2431  0.3322
  847MOL0     C14247   1.861   9.434  13.028 -0.1523 -0.2055  0.7105
  847MOL0     C14248   1.738   9.425  13.114  0.6116  0.6718 -0.8258
  847MOL0     C14249   1.625   9.359  13.039  0.6429  0.3060  0.8810
  847MOL0     C14250   1.494   9.357  13.121 -0.7428  0.0893 -0.5839
  847MOL0     C14251   1.452   9.227  13.182  0.4236 -0.0431 -0.2473
  847MOL0     C14252   1.314   9.243  13.247  0.0869  0.3588  0.5240
  847MOL0     C14253   1.268   9.110  13.306  0.1980  0.1372 -0.2641
  847MOL0     C14254   1.129   9.116  13.356  0.3736  0.7237  0.3692
  847MOL0    Cl14255   1.005   9.149  13.231  0.0386  0.0874  0.6524
  847MOL0     C14256   2.074   9.494  12.834  0.9605 -1.3870 -0.5383
  847MOL0     C14257   2.159   9.486  12.724  0.2515  0.0088  0.5857
  847MOL0     O14258   2.021   9.432  12.345 -0.4627  0.1678  0.5371
  847MOL0     C14259   2.348   9.424  12.251  0.1563  0.9230 -0.4024
  847MOL0     C14260   2.435   9.428  12.143 -0.4788 -0.6632 -0.8029
  847MOL0     N14261   2.466   9.173  11.407  0.7259  0.6556  0.4692
  847MOL0     N14262   2.402   9.126  11.302  0.8883 -0.1695  0.5234
  847MOL0     C14263   3.235   9.182  11.030 -0.2506 -0.0133  0.4610
  847MOL0     C14264   3.362   9.183  11.081 -0.9072  0.1781 -0.3607
  847MOL0     C14265   3.797   9.252  11.089  0.1658  1.1000 -0.1204
  847MOL0     C14266   3.811   9.207  11.224 -0.4452  0.3038 -0.0175
  847MOL0     C14267   3.935   9.197  11.291 -0.8347  0.5241 -0.0827
  847MOL0     C14268   4.054   9.235  11.224 -0.2188 -0.2667 -0.6680
  847MOL0     O14269   4.182   9.247  11.275  0.2541 -0.1301  0.6205
  847MOL0     C14270   4.213   9.171  11.387 -0.1381  0.1102 -0.0086
  847MOL0     C14271   4.361   9.136  11.357  0.1250  0.4182 -0.0057
  847MOL0     C14272   4.359   9.022  11.254 -0.7960  0.2632  0.2663
  847MOL0     C14273   4.495   8.936  11.270 -0.1134  0.0473  0.0676
  847MOL0     C14274   4.492   8.834  11.165  0.0993 -0.8381  0.3063
  847MOL0     C14275   4.496   8.769  11.063  0.4070  0.0420  0.2446
  847MOL0     C14276   4.042   9.283  11.092 -0.3829 -1.1056  0.6066
  847MOL0     C14277   3.917   9.299  11.033  0.0047 -0.2607 -0.7145
  847MOL0     H14278   3.475   9.473  10.947  2.3402 -2.1334 -2.7943
  847MOL0     H14279   3.227   9.462  10.846 -3.0934 -1.7333  0.2981
  847MOL0     H14280   3.102   9.133  10.791  2.4927  3.7367  0.8032
  847MOL0     H14281   2.964   9.101  10.897  0.6547 -0.3264  1.5040
  847MOL0     H14282   2.966   9.285  10.645 -2.0067  1.5541 -0.3943
  847MOL0     H14283   2.906   9.119  10.672  2.2893  0.3133 -0.8776
  847MOL0     H14284   2.807   9.374  10.802  1.4263  1.2285 -4.0592
  847MOL0     H14285   2.733   9.294  10.654  0.8908 -0.1451 -1.2119
  847MOL0     H14286   2.667   9.100  10.813 -2.7441  1.1651 -0.8454
  847MOL0     H14287   2.758   9.189  10.944  0.1644  0.0631 -0.0937
  847MOL0     H14288   2.585   9.362  10.929  1.4478  0.6737 -1.5662
  847MOL0     H14289   2.512   9.261  10.798  0.8950  0.5084 -0.1052
  847MOL0     H14290   2.455   9.078  10.933  0.5047 -0.3430  1.7937
  847MOL0     H14291   2.530   9.166  11.066 -1.1035  1.5018  1.1579
  847MOL0     H14292   2.395   9.365  11.025 -2.5936  2.0520 -2.0130
  847MOL0     H14293   2.295   9.278  10.914 -1.0789  2.8238  1.1916
  847MOL0     H14294   2.257   9.100  11.090  5.4127 -0.9521 -0.2824
  847MOL0     H14295   2.185   9.263  11.115  0.0572  1.6382 -0.1602
  847MOL0     H14296   2.314   9.438  11.269 -2.5154 -1.5973 -0.9637
  847MOL0     H14297   2.614   9.440  11.489  0.3248  1.3087  0.9359
  847MOL0     H14298   2.476   9.532  11.453 -2.6423  0.4725  2.0950
  847MOL0     H14299   2.351   9.386  11.630  0.1108 -1.2488  3.5570
  847MOL0     H14300   2.441   9.536  11.671  0.3179 -1.1541  2.9724
  847MOL0     H14301   2.641   9.400  11.720 -1.5325  1.3578  2.7597
  847MOL0     H14302   2.563   9.249  11.665  0.6988 -0.9143  0.5524
  847MOL0     H14303   2.540   9.275  11.922 -1.1270 -1.1933 -0.0369
  847MOL0     H14304   2.388   9.299  11.842 -1.2099  2.6125  0.5306
  847MOL0     H14305   2.262   9.598  11.920  1.0799  0.0317 -0.1877
  847MOL0     H14306   1.981   9.578  12.102  0.0863 -1.2348  0.9910
  847MOL0     H14307   2.060   9.709  12.193 -0.6562 -0.0718  0.0097
  847MOL0     H14308   2.077   9.704  12.016 -0.8057 -2.3497 -1.7115
  847MOL0     H14309   1.918   9.587  12.495  2.1766  0.7865 -0.4958
  847MOL0     H14310   1.792   9.616  12.699 -0.3894 -0.3487  0.0091
  847MOL0     H14311   1.890   9.337  12.986 -0.7225 -0.8387  1.7400
  847MOL0     H14312   1.936   9.467  13.101 -1.6424 -0.3286  2.3760
  847MOL0     H14313   1.750   9.371  13.208 -0.5819  1.7535 -0.0056
  847MOL0     H14314   1.713   9.530  13.133 -1.5514  0.4332 -1.9857
  847MOL0     H14315   1.648   9.258  13.004  0.5251  0.1348  1.2966
  847MOL0     H14316   1.600   9.416  12.948 -0.1464 -3.2612 -1.3195
  847MOL0     H14317   1.503   9.432  13.201 -0.7580 -0.2509 -0.2616
  847MOL0     H14318   1.414   9.387  13.053  0.4546  0.1985 -1.9877
  847MOL0     H14319   1.529   9.187  13.249 -0.6057 -1.5424  0.1188
  847MOL0     H14320   1.445   9.150  13.105  4.0777  0.3928 -1.1753
  847MOL0     H14321   1.319   9.318  13.326 -0.4721 -0.9422  1.8448
  847MOL0     H14322   1.245   9.268  13.166 -0.0685 -1.1997  0.1339
  847MOL0     H14323   1.341   9.079  13.381 -0.4394 -0.3663  0.1553
  847MOL0     H14324   1.282   9.032  13.230  2.0602 -0.0844  0.2684
  847MOL0     H14325   1.124   9.174  13.449 -0.9966  0.4968  0.4538
  847MOL0     H14326   1.103   9.014  13.388 -1.5217  0.5875 -1.4252
  847MOL0     H14327   2.113   9.468  12.932  1.8312 -0.8917 -0.7403
  847MOL0     H14328   2.262   9.454  12.733  0.6864  0.4585 -2.0178
  847MOL0     H14329   2.377   9.366  12.338  2.8239  3.5787  0.6904
  847MOL0     H14330   2.531   9.378  12.153  1.5709  3.3906  3.1852
  847MOL0     H14331   3.179   9.090  11.046 -0.7369 -0.2737 -2.2960
  847MOL0     H14332   3.398   9.094  11.131  3.1796  2.2045  0.7241
  847MOL0     H14333   3.733   9.163  11.286  1.9519  0.4902  3.4181
  847MOL0     H14334   3.940   9.183  11.399  1.1948  3.8585  0.3871
  847MOL0     H14335   4.198   9.236  11.473  0.4114 -0.0882  0.2441
  847MOL0     H14336   4.151   9.083  11.406 -0.9511  0.2408 -1.8896
  847MOL0     H14337   4.419   9.097  11.441  0.5438  0.1696 -0.4092
  847MOL0     H14338   4.411   9.224  11.315  1.2543 -0.8191 -1.3926
  847MOL0     H14339   4.355   9.060  11.152  1.2226  0.6411  0.2722
  847MOL0     H14340   4.288   8.940  11.265 -2.0908  1.2986 -0.2309
  847MOL0     H14341   4.503   8.897  11.372  0.6497 -2.2059 -0.7704
  847MOL0     H14342   4.584   8.996  11.252  0.3696 -1.2720 -2.4253
  847MOL0     H14343   4.506   8.703  10.980 -1.7987  0.2699 -0.2658
  847MOL0     H14344   4.127   9.318  11.034  0.1912  0.0054  2.0399
  847MOL0     H14345   3.914   9.336  10.931  1.0747  0.0741 -0.6373
  848MOL0     O14346   8.969   6.366  11.107  0.1773 -0.0088  0.1280
  848MOL0     C14347   9.039   6.298  11.037 -0.0033 -0.6886 -0.2087
  848MOL0     O14348   8.984   6.216  10.938 -0.6937 -0.0071  0.1035
  848MOL0     C14349   8.851   6.194  10.925  0.3951 -0.3189  0.5290
  848MOL0     C14350   8.809   6.173  10.792  0.3405  0.4955  0.0764
  848MOL0     C14351   8.675   6.131  10.775  0.3735 -0.4658  0.4480
  848MOL0     C14352   8.596   6.094  10.877  0.4197  0.3948 -0.1388
  848MOL0     O14353   8.475   6.027  10.851  0.9390  0.2649  0.2359
  848MOL0     C14354   8.381   5.985  10.958  0.7127 -0.4750  0.7687
  848MOL0     C14355   8.341   5.837  10.924  0.3528  0.0316 -0.5205
  848MOL0     C14356   8.249   5.785  11.038  0.4247  0.2679 -0.0973
  848MOL0     C14357   8.205   5.643  11.009  0.8487 -0.5278 -1.2117
  848MOL0     C14358   8.098   5.609  11.111  0.2170 -0.0850 -0.0007
  848MOL0     C14359   8.152   5.585  11.251 -0.6586 -0.3243 -0.6775
  848MOL0     C14360   8.040   5.553  11.350  0.5286  0.2969  0.5015
  848MOL0     C14361   8.091   5.548  11.497  0.2195  0.2260 -0.1745
  848MOL0     N14362   7.982   5.531  11.597  0.6545  0.7033 -0.2469
  848MOL0     C14363   7.943   5.391  11.616  0.4951 -0.4154 -0.7280
  848MOL0     C14364   7.892   5.386  11.746 -0.8200  0.1223  1.0379
  848MOL0     C14365   7.854   5.254  11.827 -0.4082 -0.8233 -0.6179
  848MOL0     C14366   7.970   5.151  11.813 -0.2102 -0.4682 -0.3714
  848MOL0     C14367   7.953   5.056  11.694  0.7143  1.3381  0.5671
  848MOL0     C14368   7.888   4.916  11.716  0.7739  0.5302 -0.0817
  848MOL0     O14369   7.749   4.932  11.756 -0.7645 -0.0756  0.0346
  848MOL0     C14370   7.688   4.834  11.826 -0.0373  0.6595  0.2393
  848MOL0     C14371   7.750   4.708  11.864  0.2201  0.4527 -0.6593
  848MOL0     C14372   7.678   4.602  11.932  0.8009 -0.3896 -0.3116
  848MOL0     C14373   7.759   4.481  11.964 -0.2642  0.3261 -0.1056
  848MOL0     C14374   7.542   4.632  11.969  1.2454 -0.3853 -0.3717
  848MOL0     C14375   7.461   4.535  12.045 -0.1710 -0.5865 -0.3553
  848MOL0     O14376   7.321   4.538  12.024 -0.9658 -0.1183  0.4184
  848MOL0     C14377   7.244   4.476  12.119 -0.0044  1.0345  0.3060
  848MOL0     C14378   7.230   4.517  12.254  0.1596 -0.1350  0.2291
  848MOL0     C14379   7.141   4.442  12.336 -0.7101  0.0770  0.8056
  848MOL0     C14380   7.068   4.337  12.286  0.4012 -0.0145 -0.1839
  848MOL0     O14381   6.973   4.287  12.373  0.5589  0.0352  0.3442
  848MOL0     C14382   6.860   4.216  12.315  0.0234  0.5426  0.6882
  848MOL0     C14383   6.767   4.164  12.431  1.4258 -0.3656 -0.5116
  848MOL0     C14384   6.692   4.273  12.509 -0.7830  0.3970  0.2587
  848MOL0     C14385   6.561   4.220  12.577 -0.5160 -0.0685 -0.2321
  848MOL0     C14386   6.573   4.102  12.667  0.5876 -0.1440 -0.5801
  848MOL0     C14387   6.451   4.021  12.702  0.5473 -0.6011 -0.1272
  848MOL0     C14388   6.313   4.076  12.749  0.3769  0.0784  0.2349
  848MOL0     C14389   6.320   4.145  12.884 -0.3545 -0.6369 -0.3299
  848MOL0    Cl14390   6.315   4.014  13.013  0.0575 -0.1598  0.1648
  848MOL0     C14391   7.086   4.294  12.156 -0.4178  0.4992 -0.4411
  848MOL0     C14392   7.170   4.364  12.071 -0.1151 -0.6117 -0.3615
  848MOL0     O14393   7.519   4.464  12.137  0.1897  0.4433  1.4534
  848MOL0     C14394   7.477   4.758  11.928  0.5015 -0.3835 -1.1059
  848MOL0     C14395   7.554   4.852  11.858  0.3221  0.4442  0.0147
  848MOL0     N14396   7.890   5.525  11.797 -0.7302 -0.3243  0.3982
  848MOL0     N14397   7.946   5.603  11.706 -0.1214 -0.2251  0.4912
  848MOL0     C14398   8.640   6.125  11.007  0.6824 -0.0711 -0.9219
  848MOL0     C14399   8.765   6.176  11.036  0.8926  0.3954  0.4233
  848MOL0     C14400   9.181   6.313  11.038  0.3808  0.3722  0.3638
  848MOL0     C14401   9.258   6.228  10.958 -0.9378  0.6687 -0.5178
  848MOL0     C14402   9.396   6.240  10.960  0.2222 -0.0183  0.6756
  848MOL0     C14403   9.454   6.343  11.040 -0.5485 -0.7749 -0.8048
  848MOL0     O14404   9.593   6.341  11.043 -0.4296 -0.0378  0.7252
  848MOL0     C14405   9.657   6.414  11.144 -0.3548  0.2773  0.7160
  848MOL0     C14406   9.808   6.405  11.129  0.6415 -0.9160  0.2016
  848MOL0     C14407   9.868   6.258  11.098 -0.2363  0.3942 -0.6453
  848MOL0     C14408  10.024   6.252  11.104  0.2761 -0.5483 -0.4285
  848MOL0     C14409  10.056   6.220  11.243 -0.7837 -0.2768 -0.2836
  848MOL0     C14410  10.067   6.190  11.361  0.4229 -0.5024 -0.3321
  848MOL0     C14411   9.378   6.426  11.119  0.1575  1.0244  1.0770
  848MOL0     C14412   9.244   6.421  11.107 -0.2110  0.0934  0.1790
  848MOL0     H14413   8.884   6.173  10.714 -1.9373 -0.8720 -2.2493
  848MOL0     H14414   8.641   6.114  10.673  3.5483  2.2487 -1.2639
  848MOL0     H14415   8.406   5.988  11.064 -1.3835  0.1802  1.2765
  848MOL0     H14416   8.291   6.046  10.947  1.2864  0.0670 -1.4245
  848MOL0     H14417   8.290   5.828  10.828 -0.5468 -1.1623  0.0527
  848MOL0     H14418   8.434   5.779  10.925 -0.4261 -1.2509 -0.9860
  848MOL0     H14419   8.317   5.785  11.124 -1.4603  2.0918  1.4867
  848MOL0     H14420   8.164   5.851  11.057 -0.1585 -0.0099 -1.6305
  848MOL0     H14421   8.143   5.640  10.919  0.9758 -3.7079 -1.3042
  848MOL0     H14422   8.289   5.574  10.993 -0.6570 -2.3161 -1.6561
  848MOL0     H14423   8.019   5.684  11.110 -0.7356 -1.0590  0.5013
  848MOL0     H14424   8.050   5.519  11.070  0.6569 -1.0471  1.5161
  848MOL0     H14425   8.217   5.497  11.249 -1.1365 -0.6896 -0.2617
  848MOL0     H14426   8.211   5.671  11.285 -2.4421  0.4320  0.6681
  848MOL0     H14427   7.970   5.637  11.350  0.7865  0.5264  1.5999
  848MOL0     H14428   7.989   5.463  11.315 -0.3805  0.6679  0.8398
  848MOL0     H14429   8.150   5.636  11.526 -0.0159  0.2920  0.1093
  848MOL0     H14430   8.157   5.460  11.506  2.4791  1.8080 -0.5073
  848MOL0     H14431   7.954   5.303  11.554  0.2070  1.1734 -3.1923
  848MOL0     H14432   7.824   5.273  11.931  0.5174 -1.9578 -0.1266
  848MOL0     H14433   7.769   5.212  11.773  0.9035  0.8634 -4.3433
  848MOL0     H14434   7.988   5.096  11.906  1.6376 -0.1152 -0.4734
  848MOL0     H14435   8.061   5.210  11.802  0.8604 -1.9174  0.3839
  848MOL0     H14436   8.055   5.038  11.660 -0.0951  0.4530 -1.5640
  848MOL0     H14437   7.896   5.099  11.611 -0.2433  3.2639  2.1270
  848MOL0     H14438   7.943   4.873  11.800  2.4791  0.2268 -1.3033
  848MOL0     H14439   7.895   4.850  11.629  2.5329 -0.4250  0.7215
  848MOL0     H14440   7.854   4.688  11.840  0.2415 -0.5402  0.2166
  848MOL0     H14441   7.849   4.467  11.903  0.2622  0.9140  0.5106
  848MOL0     H14442   7.794   4.482  12.068  0.1787  3.3096 -0.2043
  848MOL0     H14443   7.699   4.390  11.961  1.5302 -0.9341  0.2716
  848MOL0     H14444   7.273   4.611  12.288  0.0759 -0.0517  0.1047
  848MOL0     H14445   7.131   4.484  12.436 -2.5215  1.8658 -0.0752
  848MOL0     H14446   6.796   4.283  12.256 -3.3622 -2.2287  0.8981
  848MOL0     H14447   6.883   4.127  12.256  0.7340  0.3427  1.2569
  848MOL0     H14448   6.698   4.085  12.398  0.2830  0.9159 -1.3048
  848MOL0     H14449   6.830   4.113  12.504 -1.9554 -1.1730  2.0603
  848MOL0     H14450   6.659   4.350  12.438 -1.9536  0.1624  0.5174
  848MOL0     H14451   6.754   4.309  12.592  1.6115 -1.3824 -0.6651
  848MOL0     H14452   6.507   4.302  12.625  1.0283  1.4789 -1.0155
  848MOL0     H14453   6.501   4.195  12.489 -0.1889  1.5819 -0.9739
  848MOL0     H14454   6.625   4.140  12.756 -0.9788  2.6327 -0.7624
  848MOL0     H14455   6.645   4.028  12.631 -0.6110 -2.1103  0.8053
  848MOL0     H14456   6.434   3.948  12.622  1.7799 -0.6277 -0.3918
  848MOL0     H14457   6.487   3.954  12.781 -0.5141  1.3617  2.1222
  848MOL0     H14458   6.251   3.987  12.745  2.2875 -1.4274  1.7605
  848MOL0     H14459   6.272   4.149  12.679  2.0897  0.8860  0.0071
  848MOL0     H14460   6.244   4.221  12.903  0.6730  1.0133 -2.4060
  848MOL0     H14461   6.416   4.197  12.887 -0.5142 -0.3319  2.6307
  848MOL0     H14462   7.047   4.199  12.123 -4.5418  1.6020  0.7018
  848MOL0     H14463   7.176   4.334  11.967 -2.2171  1.0985 -1.0486
  848MOL0     H14464   7.374   4.782  11.951  0.2938 -0.0883 -2.2401
  848MOL0     H14465   7.506   4.945  11.830  0.0732 -0.1126 -1.5279
  848MOL0     H14466   8.596   6.091  11.100  1.2954 -0.8924 -0.9167
  848MOL0     H14467   8.787   6.195  11.141 -0.6992  0.4867  0.7685
  848MOL0     H14468   9.213   6.166  10.881 -0.0947 -1.9353  0.9768
  848MOL0     H14469   9.457   6.170  10.903 -0.5939 -0.5687  0.4671
  848MOL0     H14470   9.630   6.519  11.134 -1.8417 -0.2457 -1.5038
  848MOL0     H14471   9.637   6.368  11.241  1.3670  1.7657  1.8666
  848MOL0     H14472   9.844   6.458  11.219 -0.1595  1.9734 -1.0704
  848MOL0     H14473   9.831   6.466  11.041 -1.1222  0.8441  0.8947
  848MOL0     H14474   9.831   6.233  10.998 -2.5234 -0.8970  0.4360
  848MOL0     H14475   9.813   6.191  11.165 -1.5770  1.5872 -0.4852
  848MOL0     H14476  10.059   6.349  11.068  0.4640 -0.1679  0.7208
  848MOL0     H14477  10.061   6.183  11.028 -2.4914 -3.9380  1.0245
  848MOL0     H14478  10.089   6.154  11.459 -0.7534  2.8486  1.2922
  848MOL0     H14479   9.428   6.487  11.193  3.8267 -0.4951  0.0982
  848MOL0     H14480   9.180   6.497  11.152  0.6248  0.7762  0.2418
  849MOL0     O14481   7.763   2.976   9.256 -0.1707 -0.9462 -0.2608
  849MOL0     C14482   7.839   2.907   9.184 -0.4376  0.1882 -0.3797
  849MOL0     O14483   7.795   2.821   9.090 -0.4163  0.2244 -0.0086
  849MOL0     C14484   7.659   2.794   9.064 -0.4671 -0.1673 -1.1061
  849MOL0     C14485   7.623   2.763   8.933 -0.6404 -0.9342  0.4415
  849MOL0     C14486   7.500   2.711   8.892  0.1730 -0.4222 -0.4027
  849MOL0     C14487   7.406   2.699   8.993  0.4511 -0.8282 -0.0007
  849MOL0     O14488   7.285   2.635   8.986  0.1215 -0.6984 -0.0786
  849MOL0     C14489   7.256   2.573   8.857 -0.3854 -0.0422 -0.6391
  849MOL0     C14490   7.126   2.498   8.852  0.0262  0.5830  0.6886
  849MOL0     C14491   7.011   2.596   8.909 -1.0180 -0.3116  0.0357
  849MOL0     C14492   6.887   2.520   8.931 -0.2753 -0.1599 -0.7836
  849MOL0     C14493   6.786   2.624   8.996 -0.1482  0.4520  0.2631
  849MOL0     C14494   6.644   2.570   9.018  0.0741  0.2570  1.2040
  849MOL0     C14495   6.552   2.667   9.089  1.2400 -0.0908 -0.3988
  849MOL0     C14496   6.444   2.601   9.174  0.5531  1.1438  0.1610
  849MOL0     N14497   6.328   2.581   9.079 -0.2659  0.4187  0.0982
  849MOL0     C14498   6.253   2.689   9.034 -0.4568  0.1994  0.0572
  849MOL0     C14499   6.147   2.628   8.969  0.3254 -0.1632  0.4235
  849MOL0     C14500   6.026   2.700   8.918 -0.0803 -0.1644 -0.5220
  849MOL0     C14501   5.910   2.715   9.024 -0.2560  0.4193  0.6549
  849MOL0     C14502   5.881   2.851   9.077  0.2633  0.1269  0.3907
  849MOL0     C14503   5.785   2.848   9.194 -0.3557  0.9387 -0.0437
  849MOL0     O14504   5.646   2.853   9.156 -0.2790  0.5905 -0.6760
  849MOL0     C14505   5.558   2.876   9.259 -1.1103  0.1503 -0.3308
  849MOL0     C14506   5.459   2.967   9.236 -0.4846  0.1467  0.3954
  849MOL0     C14507   5.380   3.007   9.345 -0.7406 -0.3327 -0.1969
  849MOL0     C14508   5.294   3.134   9.329  0.3293 -0.7153  0.5722
  849MOL0     C14509   5.372   2.927   9.471  0.1161 -0.2404  0.1122
  849MOL0     C14510   5.270   2.964   9.586 -1.4792  0.4706 -0.1938
  849MOL0     O14511   5.306   2.907   9.704  0.0900 -0.4826  0.5155
  849MOL0     C14512   5.234   2.918   9.821 -0.2143 -0.4639  0.1221
  849MOL0     C14513   5.100   2.957   9.840  0.3145 -0.3566  0.1509
  849MOL0     C14514   5.042   2.964   9.966  0.8103 -0.4776 -0.5058
  849MOL0     C14515   5.111   2.926  10.077 -0.7371  0.2442 -0.3920
  849MOL0     O14516   5.059   2.925  10.211 -0.2982 -0.7494  0.2275
  849MOL0     C14517   5.004   3.054  10.249  0.2553 -0.5286  0.5569
  849MOL0     C14518   4.943   3.049  10.388  0.0964 -0.3276  0.4623
  849MOL0     C14519   4.862   3.184  10.416 -0.4906  0.2027 -0.2165
  849MOL0     C14520   4.718   3.166  10.394  0.2527  0.5457  0.7215
  849MOL0     C14521   4.640   3.289  10.440 -0.1138 -0.6116 -0.0149
  849MOL0     C14522   4.616   3.297  10.588 -0.1489 -0.4142 -0.8529
  849MOL0     C14523   4.549   3.434  10.635  0.8447  0.2084  0.0936
  849MOL0     C14524   4.618   3.463  10.776 -0.2967 -0.5093  0.7150
  849MOL0    Cl14525   4.595   3.322  10.864  0.0158 -0.0602 -0.0533
  849MOL0     C14526   5.239   2.877  10.054 -0.1288  0.0537  0.3188
  849MOL0     C14527   5.302   2.878   9.930  0.3094  0.1249  0.2773
  849MOL0     O14528   5.174   3.038   9.567 -0.3334 -0.2564 -0.7309
  849MOL0     C14529   5.475   2.830   9.482 -0.1164 -0.0175 -0.7933
  849MOL0     C14530   5.572   2.809   9.383  0.2831 -0.1840  0.0552
  849MOL0     N14531   6.174   2.491   8.962  0.2487  0.2381 -0.2321
  849MOL0     N14532   6.280   2.462   9.027  0.3933 -0.6969 -0.0496
  849MOL0     C14533   7.438   2.741   9.125  0.3661 -0.2679 -0.7957
  849MOL0     C14534   7.562   2.786   9.161 -0.0634 -0.1493 -0.0076
  849MOL0     C14535   7.989   2.938   9.196 -0.1734  0.0997  0.4324
  849MOL0     C14536   8.029   3.063   9.252  0.0013 -0.7917  0.0640
  849MOL0     C14537   8.167   3.096   9.269  0.0159 -0.2365  0.6292
  849MOL0     C14538   8.264   3.004   9.233 -0.7244  0.6715 -0.6301
  849MOL0     O14539   8.394   3.025   9.249 -0.5199  0.3400 -0.3528
  849MOL0     C14540   8.439   3.109   9.364 -1.1260 -0.4426 -1.3175
  849MOL0     C14541   8.584   3.077   9.376  0.2000  0.5960  0.2110
  849MOL0     C14542   8.658   3.147   9.259 -0.4754 -0.3226  0.8396
  849MOL0     C14543   8.816   3.135   9.274  0.2411 -0.0925  0.6484
  849MOL0     C14544   8.858   3.001   9.230  0.2852  0.2927  0.1212
  849MOL0     C14545   8.883   2.887   9.202 -0.2028  0.3888 -0.0016
  849MOL0     C14546   8.220   2.892   9.161  0.0917  0.1973 -0.9446
  849MOL0     C14547   8.087   2.853   9.149  1.3162 -0.1121 -0.0000
  849MOL0     H14548   7.699   2.766   8.855 -1.4060 -2.5003 -0.4257
  849MOL0     H14549   7.472   2.695   8.788 -0.5644 -1.5701 -0.0475
  849MOL0     H14550   7.252   2.644   8.773  0.1556  0.8419  0.0569
  849MOL0     H14551   7.337   2.506   8.829  0.7916  0.8647  0.4312
  849MOL0     H14552   7.104   2.466   8.749  1.1843 -0.7753  0.8319
  849MOL0     H14553   7.136   2.414   8.922 -2.1153  1.4888  2.1817
  849MOL0     H14554   7.050   2.646   8.999  1.3054  0.5981 -1.3699
  849MOL0     H14555   6.990   2.674   8.836  1.0626  0.0604 -0.2307
  849MOL0     H14556   6.844   2.476   8.840 -0.9285 -1.9087  0.3251
  849MOL0     H14557   6.909   2.443   9.004  1.5734  0.3929 -0.7209
  849MOL0     H14558   6.837   2.663   9.084  1.1510  1.0674 -0.7191
  849MOL0     H14559   6.772   2.709   8.928 -0.8651 -0.7338 -1.1456
  849MOL0     H14560   6.593   2.554   8.923 -1.8241 -1.2786  2.4178
  849MOL0     H14561   6.650   2.480   9.079 -3.1469  2.3526  5.0629
  849MOL0     H14562   6.613   2.721   9.162 -1.0057  0.5327  1.1174
  849MOL0     H14563   6.517   2.751   9.029 -1.5864 -0.0462  1.1445
  849MOL0     H14564   6.410   2.654   9.263 -2.5987 -0.0276 -0.2013
  849MOL0     H14565   6.480   2.507   9.217 -1.2368  2.5871  5.6387
  849MOL0     H14566   6.262   2.792   9.069 -0.3253  0.0359  0.5018
  849MOL0     H14567   6.048   2.792   8.864  3.0287 -1.7995 -2.3624
  849MOL0     H14568   5.981   2.643   8.836 -1.8759 -0.9698  0.9434
  849MOL0     H14569   5.935   2.654   9.111 -1.4059  0.2550  0.8943
  849MOL0     H14570   5.817   2.674   8.985  0.2128 -1.2356  1.1986
  849MOL0     H14571   5.832   2.901   8.993 -1.3610 -2.2072 -0.1260
  849MOL0     H14572   5.977   2.896   9.106  1.1903 -0.0435 -2.1400
  849MOL0     H14573   5.811   2.933   9.256 -2.3112  1.6504 -0.1120
  849MOL0     H14574   5.803   2.761   9.258 -1.5647 -0.4913 -1.5368
  849MOL0     H14575   5.460   3.013   9.137  1.9934 -2.3345 -0.8712
  849MOL0     H14576   5.298   3.200   9.416  1.0693  1.9671 -1.3579
  849MOL0     H14577   5.343   3.196   9.253 -0.0934 -0.8608  0.1713
  849MOL0     H14578   5.187   3.127   9.309 -0.1438  3.6834  0.5338
  849MOL0     H14579   5.040   2.976   9.751 -1.7313  0.3616  1.6168
  849MOL0     H14580   4.939   2.996   9.978  1.2736  1.6787 -1.6022
  849MOL0     H14581   5.087   3.124  10.244  0.0837 -0.3701 -0.1422
  849MOL0     H14582   4.916   3.089  10.194 -0.4913 -0.5877  1.6640
  849MOL0     H14583   4.870   2.968  10.394 -0.9081  0.5990  1.4419
  849MOL0     H14584   5.024   3.035  10.459  0.0003  0.6723  0.7893
  849MOL0     H14585   4.898   3.266  10.353 -0.2013 -0.7901 -1.3640
  849MOL0     H14586   4.876   3.203  10.523  0.2011 -1.7699  0.0894
  849MOL0     H14587   4.696   3.147  10.288 -2.8670 -0.0951  1.3889
  849MOL0     H14588   4.682   3.074  10.441  0.7645 -0.8067 -1.3703
  849MOL0     H14589   4.539   3.289  10.398 -0.2081  1.8352  0.0985
  849MOL0     H14590   4.701   3.373  10.407  0.0233 -1.0302 -0.8622
  849MOL0     H14591   4.552   3.211  10.609  1.4220 -2.1602 -2.8444
  849MOL0     H14592   4.715   3.282  10.633 -0.1766 -2.9904 -1.5137
  849MOL0     H14593   4.442   3.420  10.648  1.3645 -2.7524  2.0078
  849MOL0     H14594   4.569   3.521  10.571 -4.7990  0.7112 -1.5004
  849MOL0     H14595   4.568   3.547  10.823  0.1266 -1.0807  2.2726
  849MOL0     H14596   4.726   3.478  10.762 -0.6679  1.4855 -0.1941
  849MOL0     H14597   5.300   2.839  10.135  0.9591 -1.4824 -1.1476
  849MOL0     H14598   5.407   2.854   9.922  0.7176  2.2065 -1.8266
  849MOL0     H14599   5.479   2.775   9.575 -1.6617 -2.0287 -1.8274
  849MOL0     H14600   5.649   2.733   9.390 -0.4859 -1.0912 -1.0215
  849MOL0     H14601   7.368   2.748   9.208  2.7620  0.2931  1.3104
  849MOL0     H14602   7.572   2.812   9.266  0.6335 -1.6926  0.3403
  849MOL0     H14603   7.954   3.139   9.271  0.9068  0.3537 -0.8162
  849MOL0     H14604   8.187   3.193   9.313  2.8779 -1.2333  1.7340
  849MOL0     H14605   8.413   3.215   9.366 -0.6292 -0.2732  2.6057
  849MOL0     H14606   8.390   3.075   9.456  3.5129 -0.1642  1.5701
  849MOL0     H14607   8.596   2.968   9.372  1.0262  0.7233 -2.4670
  849MOL0     H14608   8.610   3.122   9.473  1.6851 -1.2449  0.7181
  849MOL0     H14609   8.624   3.251   9.268  2.2146  0.4842  2.4641
  849MOL0     H14610   8.630   3.109   9.160 -1.4019  0.9482  0.5772
  849MOL0     H14611   8.836   3.157   9.380 -1.3225  3.0507  0.4208
  849MOL0     H14612   8.858   3.221   9.221  0.4762 -1.1964 -1.0310
  849MOL0     H14613   8.914   2.788   9.172 -3.8179 -0.6687 -0.6732
  849MOL0     H14614   8.295   2.819   9.131  4.4728  2.5489  2.9226
  849MOL0     H14615   8.070   2.760   9.096  1.9810  0.2703 -0.9116
  850MOL0     O14616   4.985   3.794   4.586  0.0169 -0.1775 -0.0669
  850MOL0     C14617   4.908   3.705   4.582  1.2222 -1.0406 -0.0857
  850MOL0     O14618   4.939   3.570   4.585 -0.4452  0.0748 -0.2625
  850MOL0     C14619   5.062   3.528   4.637 -0.0188 -1.1222  0.2519
  850MOL0     C14620   5.120   3.418   4.580 -0.1503 -1.0791 -0.0976
  850MOL0     C14621   5.241   3.363   4.628 -0.8386 -0.6419 -0.2638
  850MOL0     C14622   5.292   3.419   4.746  0.6643 -0.0938 -1.0688
  850MOL0     O14623   5.396   3.360   4.805 -0.0551 -0.0941 -0.5427
  850MOL0     C14624   5.506   3.330   4.718  0.4419 -0.6533  1.1907
  850MOL0     C14625   5.613   3.263   4.800 -0.5292 -0.1335  0.0692
  850MOL0     C14626   5.754   3.262   4.745 -0.6072 -0.9696  0.1283
  850MOL0     C14627   5.795   3.118   4.707  0.3268 -1.1265  0.1333
  850MOL0     C14628   5.927   3.114   4.636 -0.1495 -0.2122  0.2837
  850MOL0     C14629   6.052   3.153   4.716 -0.0402  0.0853 -0.0279
  850MOL0     C14630   6.178   3.145   4.624  0.0284  0.6194 -0.2039
  850MOL0     C14631   6.299   3.161   4.713 -0.1660 -0.4596 -0.1032
  850MOL0     N14632   6.418   3.203   4.636 -0.8404 -0.1204 -0.4942
  850MOL0     C14633   6.480   3.113   4.550 -0.1030  1.1685  0.2607
  850MOL0     C14634   6.527   3.188   4.451 -0.0191  0.0067 -0.1720
  850MOL0     C14635   6.594   3.144   4.325  0.2545  1.0524  0.8967
  850MOL0     C14636   6.749   3.145   4.333 -0.4199 -0.0685 -0.5118
  850MOL0     C14637   6.803   3.274   4.404 -0.2455 -0.2369  0.6931
  850MOL0     C14638   6.950   3.300   4.378 -1.0589  0.5062 -0.1150
  850MOL0     O14639   7.038   3.197   4.411 -0.4766 -0.5970 -0.2579
  850MOL0     C14640   7.165   3.233   4.373 -0.3087  0.8244  0.8433
  850MOL0     C14641   7.246   3.308   4.452  0.7261 -0.1419 -0.6549
  850MOL0     C14642   7.386   3.336   4.433  0.4413  0.1299 -0.2859
  850MOL0     C14643   7.452   3.417   4.548  1.1674  0.6942  0.3921
  850MOL0     C14644   7.440   3.293   4.307  0.7964  0.1114 -0.4424
  850MOL0     C14645   7.581   3.311   4.265 -0.9268  0.0610 -0.2765
  850MOL0     O14646   7.603   3.327   4.130  0.3842 -1.0779 -0.2600
  850MOL0     C14647   7.732   3.359   4.100  1.0779 -1.2398 -0.2809
  850MOL0     C14648   7.783   3.493   4.106  0.0772  0.0505  0.1441
  850MOL0     C14649   7.910   3.517   4.054  0.2919  0.0626 -0.2146
  850MOL0     C14650   7.983   3.420   4.004  0.1181  0.2879  0.5189
  850MOL0     O14651   8.107   3.438   3.953  0.0028 -0.5553  0.2477
  850MOL0     C14652   8.160   3.570   3.919  0.2370  0.0997 -0.5064
  850MOL0     C14653   8.290   3.551   3.833 -0.2490  0.3897 -0.4260
  850MOL0     C14654   8.390   3.660   3.882 -0.0963 -0.2832  0.4281
  850MOL0     C14655   8.353   3.800   3.855  1.1056  0.2395 -0.4475
  850MOL0     C14656   8.412   3.838   3.717 -0.4272 -0.3036  0.0021
  850MOL0     C14657   8.354   3.968   3.656 -0.0611 -0.1414 -0.5426
  850MOL0     C14658   8.380   4.009   3.504 -0.5071  0.0373 -0.3008
  850MOL0     C14659   8.527   4.021   3.470  0.6153  0.3934  0.1012
  850MOL0    Cl14660   8.584   4.172   3.538 -0.1239 -0.1058 -0.6395
  850MOL0     C14661   7.933   3.293   3.999 -0.6444 -0.0980  0.5167
  850MOL0     C14662   7.803   3.259   4.042 -0.8625  0.0492  1.3358
  850MOL0     O14663   7.665   3.314   4.348  0.1756  0.1988 -1.2781
  850MOL0     C14664   7.361   3.214   4.224  1.1629  0.2312 -0.0705
  850MOL0     C14665   7.224   3.193   4.252 -0.6882  0.5405 -0.1544
  850MOL0     N14666   6.503   3.323   4.477 -0.4010 -0.7307  0.1320
  850MOL0     N14667   6.439   3.329   4.593  0.4293 -0.4768  0.1052
  850MOL0     C14668   5.239   3.530   4.808 -0.4121  0.2157 -0.2403
  850MOL0     C14669   5.131   3.595   4.751  0.4259  1.3645 -0.8136
  850MOL0     C14670   4.768   3.743   4.604 -0.0280 -0.4093 -0.8653
  850MOL0     C14671   4.727   3.874   4.606 -0.4360 -0.3250 -0.4547
  850MOL0     C14672   4.592   3.911   4.638 -0.7936 -0.3449  0.4809
  850MOL0     C14673   4.494   3.807   4.654 -0.2571 -0.4611  0.3295
  850MOL0     O14674   4.361   3.836   4.672 -0.2798 -0.1541  0.0982
  850MOL0     C14675   4.308   3.958   4.628  0.6485 -0.0154 -0.0960
  850MOL0     C14676   4.171   3.925   4.570 -0.8050 -0.5329  0.1514
  850MOL0     C14677   4.170   3.912   4.413  0.0203 -0.0324 -0.1655
  850MOL0     C14678   4.202   3.764   4.358 -0.7049 -1.0780  0.3870
  850MOL0     C14679   4.096   3.669   4.369  0.1453  0.1483 -0.8399
  850MOL0     C14680   3.999   3.601   4.397  0.8684  0.7948 -0.1752
  850MOL0     C14681   4.535   3.677   4.650  0.1589 -0.2240  0.3777
  850MOL0     C14682   4.670   3.641   4.620 -0.3570 -0.5189 -0.0880
  850MOL0     H14683   5.068   3.380   4.492  1.1637 -1.3626 -0.7760
  850MOL0     H14684   5.279   3.267   4.594 -0.9520 -1.2206  1.1748
  850MOL0     H14685   5.480   3.271   4.629  0.4184 -0.8391  1.3218
  850MOL0     H14686   5.553   3.422   4.681 -0.1623 -1.4660 -1.8867
  850MOL0     H14687   5.617   3.310   4.898  0.0519  1.0342 -0.4974
  850MOL0     H14688   5.587   3.158   4.815  2.0351 -0.4912  2.9452
  850MOL0     H14689   5.767   3.334   4.664  3.2411  0.9990  2.2239
  850MOL0     H14690   5.817   3.303   4.825  0.4256  0.0897 -1.1908
  850MOL0     H14691   5.790   3.054   4.795 -1.5751 -0.3685  0.6198
  850MOL0     H14692   5.719   3.091   4.632 -0.9843  2.1164  0.1554
  850MOL0     H14693   5.948   3.018   4.588 -3.1387  0.1418 -2.0692
  850MOL0     H14694   5.913   3.176   4.547 -0.6024 -1.4077 -0.4941
  850MOL0     H14695   6.052   3.255   4.755  3.8199 -0.1651  1.0827
  850MOL0     H14696   6.070   3.089   4.803 -0.0392 -0.4958 -0.4469
  850MOL0     H14697   6.179   3.043   4.586 -0.6779 -0.4732  2.5003
  850MOL0     H14698   6.179   3.211   4.536  1.0350  0.3272 -0.4215
  850MOL0     H14699   6.315   3.071   4.773  0.4630  0.2906  0.8702
  850MOL0     H14700   6.281   3.246   4.779  0.9461  1.0815 -1.7030
  850MOL0     H14701   6.496   3.005   4.556 -1.4643  0.9210 -0.2949
  850MOL0     H14702   6.560   3.047   4.286 -0.1922  0.6836  2.1508
  850MOL0     H14703   6.565   3.214   4.247  1.6336  0.3323 -0.3133
  850MOL0     H14704   6.778   3.139   4.228 -0.7162  0.5671 -0.6322
  850MOL0     H14705   6.791   3.068   4.398 -1.7150  0.9169  1.6008
  850MOL0     H14706   6.781   3.265   4.511  1.1621 -2.2334  0.8752
  850MOL0     H14707   6.750   3.358   4.359 -1.0628 -0.9515  0.2794
  850MOL0     H14708   6.982   3.393   4.427  0.1923  0.5687 -1.0265
  850MOL0     H14709   6.953   3.308   4.269 -0.3301 -0.7387 -0.1942
  850MOL0     H14710   7.198   3.337   4.544 -1.3638  0.4377 -1.8614
  850MOL0     H14711   7.523   3.493   4.514 -0.5740  1.0159 -3.0131
  850MOL0     H14712   7.381   3.481   4.601 -0.3351 -1.0546  0.5671
  850MOL0     H14713   7.499   3.347   4.617 -0.2952 -1.5300 -0.7411
  850MOL0     H14714   7.726   3.580   4.136 -1.0693  0.4220 -2.7633
  850MOL0     H14715   7.949   3.619   4.056  1.2507 -0.2932  0.2458
  850MOL0     H14716   8.087   3.626   3.860 -2.3246 -1.5699  0.9094
  850MOL0     H14717   8.170   3.629   4.010 -0.2586 -1.1651  0.3925
  850MOL0     H14718   8.333   3.450   3.835 -2.7449 -0.7390 -0.5636
  850MOL0     H14719   8.273   3.577   3.728 -0.5149 -0.0769 -0.5030
  850MOL0     H14720   8.489   3.638   3.841 -0.0989  1.4321 -0.5515
  850MOL0     H14721   8.399   3.647   3.990 -0.8599  0.6638  0.6189
  850MOL0     H14722   8.248   3.831   3.854  0.7415 -0.9041 -2.2879
  850MOL0     H14723   8.399   3.864   3.931  3.2398 -0.6140 -0.9644
  850MOL0     H14724   8.400   3.767   3.635  1.4048 -1.2325  0.4752
  850MOL0     H14725   8.519   3.853   3.737 -0.0490 -2.0584 -0.4754
  850MOL0     H14726   8.246   3.960   3.672 -0.0536  0.1019 -0.3732
  850MOL0     H14727   8.369   4.061   3.711  2.7371 -0.2860 -0.9226
  850MOL0     H14728   8.340   4.109   3.486  1.6042  1.1099  0.4959
  850MOL0     H14729   8.326   3.945   3.434  0.7717 -0.7341 -0.6174
  850MOL0     H14730   8.539   4.021   3.362  0.2896 -0.2828  0.0608
  850MOL0     H14731   8.579   3.930   3.501  0.2480 -0.0627 -0.6076
  850MOL0     H14732   7.991   3.217   3.947 -1.2896 -0.7200  0.6908
  850MOL0     H14733   7.756   3.164   4.021  2.7950 -1.4154 -1.1263
  850MOL0     H14734   7.403   3.180   4.130  0.3942  2.9787 -1.4964
  850MOL0     H14735   7.158   3.160   4.173  0.2687 -0.7540 -0.4420
  850MOL0     H14736   5.290   3.574   4.894 -1.0474  2.7153 -1.0412
  850MOL0     H14737   5.090   3.678   4.808 -1.5412 -0.2141  0.2183
  850MOL0     H14738   4.795   3.957   4.594 -0.3474 -0.5900 -1.9980
  850MOL0     H14739   4.551   4.012   4.640 -1.3197 -0.5174  3.5054
  850MOL0     H14740   4.299   4.018   4.719 -0.1233 -2.3335  1.4552
  850MOL0     H14741   4.374   4.003   4.553 -2.3169 -0.2223 -3.0266
  850MOL0     H14742   4.103   4.009   4.592  0.5391  0.6121  0.0815
  850MOL0     H14743   4.122   3.840   4.618 -0.3815 -0.8176  0.0793
  850MOL0     H14744   4.240   3.986   4.371 -0.0675  0.5802  0.7506
  850MOL0     H14745   4.071   3.936   4.373 -0.8534  0.8637  2.3258
  850MOL0     H14746   4.291   3.722   4.406  1.4855  3.0023  0.3070
  850MOL0     H14747   4.226   3.773   4.252 -1.2866  1.3172  0.4102
  850MOL0     H14748   3.923   3.535   4.434  1.5621 -1.2039 -2.1249
  850MOL0     H14749   4.454   3.606   4.650 -0.5723  0.5809  1.4077
  850MOL0     H14750   4.697   3.541   4.588  1.2781 -0.0968 -0.1182
  851MOL0     O14751   2.358   1.764   0.908 -0.5888 -0.0267 -0.2279
  851MOL0     C14752   2.419   1.816   0.815 -0.4322 -0.0794  0.2818
  851MOL0     O14753   2.355   1.859   0.695 -0.3788 -0.2349  0.1183
  851MOL0     C14754   2.222   1.846   0.676  0.0510  0.7981  0.4540
  851MOL0     C14755   2.155   1.960   0.644  0.0183  0.0062  0.0559
  851MOL0     C14756   2.021   1.963   0.620  0.0035 -0.6194 -0.2425
  851MOL0     C14757   1.948   1.850   0.636  0.0878  0.2301  0.2679
  851MOL0     O14758   1.815   1.852   0.606  0.4082  0.4650  0.1824
  851MOL0     C14759   1.731   1.972   0.625 -0.5201 -0.6001 -0.1454
  851MOL0     C14760   1.746   2.024   0.761 -0.8405 -0.6030  0.7743
  851MOL0     C14761   1.720   2.180   0.762 -0.5931  0.1298  0.2926
  851MOL0     C14762   1.853   2.262   0.757 -0.1835  0.3650 -0.7461
  851MOL0     C14763   1.827   2.418   0.781 -0.2063 -0.2447  0.5210
  851MOL0     C14764   1.956   2.499   0.772  0.7398  0.4257 -0.3651
  851MOL0     C14765   2.061   2.474   0.880  0.5671  0.7189 -0.3528
  851MOL0     C14766   2.117   2.603   0.965  1.7684  0.8337 -0.0664
  851MOL0     N14767   2.152   2.714   0.873  0.3309 -0.5088  0.1954
  851MOL0     C14768   2.189   2.703   0.733  0.4123 -0.3939 -0.5354
  851MOL0     C14769   2.167   2.828   0.690  0.0266 -0.5079  0.2122
  851MOL0     C14770   2.185   2.860   0.540  0.0470  0.0059 -0.9246
  851MOL0     C14771   2.087   2.962   0.493  0.5768  0.3909  0.3205
  851MOL0     C14772   1.944   2.925   0.514 -0.2650 -0.2972 -0.8714
  851MOL0     C14773   1.858   3.020   0.431  0.6633  0.0252  0.4437
  851MOL0     O14774   1.860   3.153   0.465  0.7044  0.0204 -0.0664
  851MOL0     C14775   1.778   3.221   0.555  0.3897  0.0066  0.6841
  851MOL0     C14776   1.709   3.165   0.657  0.4038  0.3329  0.6189
  851MOL0     C14777   1.626   3.238   0.740  0.4850 -0.5469 -0.0449
  851MOL0     C14778   1.543   3.162   0.836  0.1042 -0.2201  0.0081
  851MOL0     C14779   1.624   3.385   0.730  0.6231 -0.2850 -0.6572
  851MOL0     C14780   1.541   3.474   0.819 -0.1714  0.4864 -0.5356
  851MOL0     O14781   1.485   3.421   0.932 -0.0014  0.5151  0.7415
  851MOL0     C14782   1.433   3.509   1.022 -0.4045 -0.8140 -0.6079
  851MOL0     C14783   1.297   3.507   1.033  0.4254 -0.6860 -0.1948
  851MOL0     C14784   1.233   3.591   1.126  0.7728 -0.2267 -0.2031
  851MOL0     C14785   1.309   3.692   1.189  0.1018 -1.2193 -0.5145
  851MOL0     O14786   1.236   3.793   1.246 -0.1408  0.0577 -0.3180
  851MOL0     C14787   1.289   3.866   1.358  0.5843  0.7399 -0.5457
  851MOL0     C14788   1.193   3.966   1.422 -0.7087 -0.1768  0.7013
  851MOL0     C14789   1.150   4.066   1.303  0.0030  0.6442 -0.4820
  851MOL0     C14790   0.999   4.042   1.273  0.3623 -0.5722  0.1100
  851MOL0     C14791   0.957   4.131   1.150  0.5982 -0.0098  0.3410
  851MOL0     C14792   0.958   4.285   1.178 -0.4653 -0.0548  0.3901
  851MOL0     C14793   0.977   4.359   1.041  1.3733 -0.1897  0.5069
  851MOL0     C14794   1.008   4.511   1.047  0.4368  0.7841  0.7569
  851MOL0    Cl14795   1.176   4.517   1.088 -0.2137  0.0283  0.1047
  851MOL0     C14796   1.448   3.701   1.176 -0.5221  0.6132 -0.2417
  851MOL0     C14797   1.506   3.608   1.091  0.3843 -0.1288  0.0685
  851MOL0     O14798   1.541   3.589   0.794  0.4928 -0.5401  0.2608
  851MOL0     C14799   1.700   3.439   0.623  0.5186 -0.1567 -0.1200
  851MOL0     C14800   1.771   3.359   0.539  0.3538  0.5600 -0.4170
  851MOL0     N14801   2.130   2.910   0.792 -0.3788  0.7054 -0.1017
  851MOL0     N14802   2.128   2.846   0.904 -0.1811  0.1886  0.2620
  851MOL0     C14803   2.009   1.727   0.667 -0.3466  0.8693  0.9153
  851MOL0     C14804   2.152   1.720   0.686  0.3772 -0.2193 -0.3107
  851MOL0     C14805   2.567   1.815   0.817 -0.4982 -0.0703  0.9479
  851MOL0     C14806   2.646   1.841   0.701  0.2386  0.0873  0.2319
  851MOL0     C14807   2.781   1.818   0.694 -0.4679  0.6566  0.0611
  851MOL0     C14808   2.847   1.768   0.808 -0.7203  0.4646 -0.4599
  851MOL0     O14809   2.980   1.728   0.820  0.6470 -0.6729  0.2634
  851MOL0     C14810   3.084   1.784   0.730 -0.1659 -0.2192  0.1530
  851MOL0     C14811   3.220   1.727   0.764  0.5684 -0.6701  0.4216
  851MOL0     C14812   3.278   1.793   0.885 -0.7020 -1.4024 -0.2981
  851MOL0     C14813   3.406   1.725   0.944  0.6992  0.2661  0.2410
  851MOL0     C14814   3.475   1.815   1.036  0.9656  0.5752  0.3906
  851MOL0     C14815   3.551   1.873   1.105  0.2440  0.1374  0.8698
  851MOL0     C14816   2.775   1.752   0.925 -0.1364  0.4030 -0.5334
  851MOL0     C14817   2.638   1.770   0.931  0.5385  0.2702  0.2018
  851MOL0     H14818   2.221   2.047   0.642  0.3518 -0.2632 -1.3958
  851MOL0     H14819   1.977   2.059   0.595  1.5530  0.5328  1.3106
  851MOL0     H14820   1.755   2.045   0.548 -0.1815 -0.2635  0.2699
  851MOL0     H14821   1.625   1.947   0.612 -0.3643  0.0410 -3.5530
  851MOL0     H14822   1.660   1.977   0.811 -1.3177  0.8832  1.4115
  851MOL0     H14823   1.835   1.998   0.818 -0.6075 -1.0936  0.2005
  851MOL0     H14824   1.657   2.207   0.677  2.9268  2.6389 -1.7962
  851MOL0     H14825   1.669   2.201   0.856  2.4171  0.8434  1.9058
  851MOL0     H14826   1.930   2.233   0.830  0.5722 -1.9229 -2.3428
  851MOL0     H14827   1.905   2.243   0.663  0.1432 -1.6605 -0.2158
  851MOL0     H14828   1.757   2.462   0.710 -0.8088  2.0065  2.4014
  851MOL0     H14829   1.791   2.430   0.883 -0.2248 -1.1118  0.6236
  851MOL0     H14830   2.003   2.477   0.676 -1.4033  0.1849 -1.4153
  851MOL0     H14831   1.930   2.605   0.767  2.0072  0.7202 -1.3050
  851MOL0     H14832   2.016   2.408   0.954  2.4981 -0.5202 -0.2288
  851MOL0     H14833   2.139   2.424   0.822  1.0264  1.5425 -0.4597
  851MOL0     H14834   2.209   2.573   1.016  4.2849  1.8770 -3.6250
  851MOL0     H14835   2.033   2.637   1.026 -0.0097 -0.5043 -1.6405
  851MOL0     H14836   2.202   2.612   0.675 -1.8575 -0.8866 -0.3796
  851MOL0     H14837   2.286   2.899   0.527 -0.0906  1.5071  1.7223
  851MOL0     H14838   2.183   2.765   0.486 -1.6259  0.3488 -1.5438
  851MOL0     H14839   2.098   2.968   0.384 -0.0428  0.9305  0.2771
  851MOL0     H14840   2.113   3.063   0.526 -1.0443  0.7709  0.4924
  851MOL0     H14841   1.924   2.921   0.621  0.5377 -2.0234 -0.7397
  851MOL0     H14842   1.926   2.827   0.469  2.4953 -0.7705 -1.1293
  851MOL0     H14843   1.753   2.992   0.418  0.5389  0.6140  0.1527
  851MOL0     H14844   1.901   3.018   0.330 -0.8355  1.9513 -0.2916
  851MOL0     H14845   1.711   3.057   0.666  0.7954  0.2156 -0.6133
  851MOL0     H14846   1.560   3.215   0.931  1.4423  3.1454 -1.9394
  851MOL0     H14847   1.439   3.178   0.806  0.0527 -0.9692 -0.2186
  851MOL0     H14848   1.555   3.054   0.846 -1.1538 -0.6699 -2.6007
  851MOL0     H14849   1.221   3.448   0.983 -2.1267  1.8862  0.3894
  851MOL0     H14850   1.127   3.588   1.147  1.1135  1.4236  2.1521
  851MOL0     H14851   1.333   3.797   1.429  0.3660  1.5552  0.4089
  851MOL0     H14852   1.360   3.932   1.307  0.3787  0.1501 -1.6363
  851MOL0     H14853   1.105   3.918   1.466 -0.1723 -0.7869  1.1337
  851MOL0     H14854   1.246   4.033   1.491 -0.0044 -0.1755  0.1786
  851MOL0     H14855   1.215   4.046   1.216 -1.6611 -1.6879 -1.2914
  851MOL0     H14856   1.164   4.170   1.333 -0.6397  0.8236 -0.7994
  851MOL0     H14857   0.983   3.938   1.244  0.5129 -0.7859  0.7746
  851MOL0     H14858   0.934   4.066   1.357 -0.1078  0.8775 -0.6307
  851MOL0     H14859   0.851   4.105   1.136  0.0578  0.4685  2.9330
  851MOL0     H14860   1.003   4.096   1.058  1.4331  1.7291  0.0534
  851MOL0     H14861   0.861   4.317   1.217 -1.0036  1.5371 -2.0731
  851MOL0     H14862   1.027   4.306   1.260  1.3719 -1.0886 -0.8295
  851MOL0     H14863   0.884   4.357   0.983  0.0947 -0.1036  2.4793
  851MOL0     H14864   1.049   4.304   0.979 -1.7822 -3.0594 -0.9316
  851MOL0     H14865   0.950   4.563   1.123  0.5057  1.4389  0.3737
  851MOL0     H14866   0.995   4.560   0.950  2.3015  0.4325  0.2927
  851MOL0     H14867   1.496   3.785   1.226 -0.8916  1.2330 -0.9062
  851MOL0     H14868   1.614   3.611   1.080  0.3301 -1.2918 -0.9295
  851MOL0     H14869   1.707   3.547   0.608 -0.5275  0.1832  1.6105
  851MOL0     H14870   1.828   3.395   0.454  0.8086  0.0458 -0.3288
  851MOL0     H14871   1.955   1.633   0.662 -0.9793  1.1955 -4.3681
  851MOL0     H14872   2.190   1.621   0.706  0.1124  0.1650  2.5179
  851MOL0     H14873   2.586   1.862   0.613 -2.3999 -1.1467  1.6135
  851MOL0     H14874   2.820   1.826   0.593 -1.7031 -0.8635 -0.5843
  851MOL0     H14875   3.065   1.759   0.625 -1.9326  1.3358  0.0391
  851MOL0     H14876   3.083   1.893   0.728 -0.7143 -0.1369  2.2489
  851MOL0     H14877   3.285   1.768   0.686 -1.4340  2.3388  0.1735
  851MOL0     H14878   3.213   1.618   0.756  3.2080 -0.8152 -1.3251
  851MOL0     H14879   3.206   1.789   0.968 -1.2326  0.3215 -0.6304
  851MOL0     H14880   3.299   1.899   0.870 -0.3363 -1.0049  2.5107
  851MOL0     H14881   3.464   1.704   0.854 -0.8185 -1.1281 -0.4487
  851MOL0     H14882   3.364   1.636   0.991 -2.3516  0.6399 -1.4824
  851MOL0     H14883   3.608   1.923   1.181  1.5582  1.4097 -0.8803
  851MOL0     H14884   2.838   1.727   1.010  0.7949  0.9424 -1.0454
  851MOL0     H14885   2.590   1.743   1.024  2.9575 -0.5587  1.2911
  852MOL0     O14886   7.128   0.121   8.792  0.4325 -0.1899 -0.0762
  852MOL0     C14887   7.203   0.157   8.886  0.3814 -0.1650  1.3269
  852MOL0     O14888   7.159   0.198   9.013  0.6612 -0.1095  0.5493
  852MOL0     C14889   7.027   0.187   9.040 -0.0390 -0.8504  0.2108
  852MOL0     C14890   6.944   0.078   9.009 -1.0075  0.0784  0.5912
  852MOL0     C14891   6.812   0.075   9.062 -0.8045  0.3018 -0.2503
  852MOL0     C14892   6.763   0.183   9.135 -0.0439 -0.5801 -0.2089
  852MOL0     O14893   6.631   0.186   9.169 -0.5147 -0.7687 -0.0591
  852MOL0     C14894   6.590   0.220   9.299 -0.2363  0.4696 -0.3753
  852MOL0     C14895   6.483   0.324   9.303  0.0879 -0.2164  0.5618
  852MOL0     C14896   6.513   0.434   9.411  0.5559  0.4945 -0.3784
  852MOL0     C14897   6.392   0.539   9.420 -0.5953  0.8031  0.0892
  852MOL0     C14898   6.409   0.650   9.510 -0.4202 -0.0896 -0.1373
  852MOL0     C14899   6.276   0.727   9.535  0.1482  0.2534  0.5065
  852MOL0     C14900   6.301   0.846   9.638 -0.6388 -0.9357  0.1404
  852MOL0     C14901   6.239   0.975   9.612  1.0727 -0.8147  0.0651
  852MOL0     N14902   6.336   1.082   9.661 -0.3631  0.2956 -0.5739
  852MOL0     C14903   6.358   1.115   9.793 -0.4189 -0.4238 -0.2968
  852MOL0     C14904   6.432   1.226   9.790 -0.7434  0.2528  0.6539
  852MOL0     C14905   6.486   1.313   9.906 -0.5731  0.1032 -0.2867
  852MOL0     C14906   6.616   1.237   9.946 -0.3069  0.6300  0.3638
  852MOL0     C14907   6.689   1.319  10.050 -0.3777 -0.7687 -0.0141
  852MOL0     C14908   6.836   1.269  10.074  0.2166 -0.2680  0.3163
  852MOL0     O14909   6.920   1.319   9.975 -0.5837 -0.2063 -0.5917
  852MOL0     C14910   7.048   1.271   9.988 -0.7749 -0.3219 -0.5407
  852MOL0     C14911   7.128   1.287   9.877 -0.2907 -0.6316 -0.4374
  852MOL0     C14912   7.259   1.251   9.870 -0.4154 -0.2269  0.4658
  852MOL0     C14913   7.334   1.291   9.739  0.7611  0.3484  0.4651
  852MOL0     C14914   7.317   1.179   9.975 -0.8423 -0.1298  0.8083
  852MOL0     C14915   7.446   1.110   9.958  0.5324 -0.4353  0.1832
  852MOL0     O14916   7.500   1.064  10.078 -0.8446 -0.5396  0.3005
  852MOL0     C14917   7.620   1.002  10.081 -0.6524  1.0268 -0.5169
  852MOL0     C14918   7.667   0.891   9.998 -0.9827  0.1248 -0.5887
  852MOL0     C14919   7.795   0.845  10.017 -1.3431 -0.4808  0.7681
  852MOL0     C14920   7.873   0.885  10.128 -0.5602  0.0213  0.6534
  852MOL0     O14921   7.999   0.844  10.162 -0.7113 -0.3442  0.1301
  852MOL0     C14922   8.053   0.733  10.092  0.0508 -0.2751 -0.1977
  852MOL0     C14923   8.180   0.689  10.168 -0.5117  0.0969  0.9230
  852MOL0     C14924   8.159   0.631  10.300 -0.1148 -0.0378  0.9412
  852MOL0     C14925   8.245   0.513  10.336 -1.0960 -0.6562  0.1531
  852MOL0     C14926   8.248   0.390  10.232 -0.6622 -0.4716  0.5975
  852MOL0     C14927   8.302   0.263  10.298  1.1493  0.9649  0.4590
  852MOL0     C14928   8.293   0.147  10.201 -0.2209  0.8158  0.2001
  852MOL0     C14929   8.313   0.009  10.264 -0.0290 -1.0876 -0.7172
  852MOL0    Cl14930   8.475   0.036  10.349  0.2218 -0.0725  0.5046
  852MOL0     C14931   7.824   0.985  10.212 -0.8877 -0.1734  0.6472
  852MOL0     C14932   7.701   1.052  10.185 -0.0512 -0.4864 -0.5905
  852MOL0     O14933   7.493   1.095   9.849 -0.1512 -0.2364 -0.0218
  852MOL0     C14934   7.254   1.174  10.105  0.1354 -0.1183 -0.5119
  852MOL0     C14935   7.117   1.215  10.104  0.0140  0.2482 -0.3161
  852MOL0     N14936   6.454   1.259   9.655 -0.5238  0.2070 -0.7113
  852MOL0     N14937   6.402   1.173   9.581  0.6111 -0.3124  0.0534
  852MOL0     C14938   6.852   0.289   9.168 -0.0379 -0.3109 -0.3646
  852MOL0     C14939   6.980   0.287   9.121  0.6658  0.1436 -0.4704
  852MOL0     C14940   7.350   0.149   8.863  0.2203 -0.6962  0.2101
  852MOL0     C14941   7.433   0.169   8.978  0.5186  0.3046  0.0492
  852MOL0     C14942   7.572   0.177   8.959  0.1253 -0.2019 -0.0887
  852MOL0     C14943   7.627   0.163   8.834  0.0509  0.5464  0.1606
  852MOL0     O14944   7.758   0.186   8.830  0.1361 -0.4151 -0.0006
  852MOL0     C14945   7.831   0.198   8.711  0.4319  0.3910  0.0630
  852MOL0     C14946   7.872   0.059   8.679 -1.0724  0.4107 -1.0164
  852MOL0     C14947   7.943  -0.003   8.799  1.0128  1.0767  0.7553
  852MOL0     C14948   8.044  -0.107   8.747  0.0407  0.3205 -1.2288
  852MOL0     C14949   7.983  -0.224   8.679  0.3046 -0.2879  0.2571
  852MOL0     C14950   7.952  -0.327   8.623 -0.7463 -0.1084  0.9603
  852MOL0     C14951   7.544   0.142   8.728 -0.4494 -0.6946  0.6646
  852MOL0     C14952   7.408   0.147   8.736  0.1220 -0.8731 -0.0661
  852MOL0     H14953   6.978   0.002   8.939 -3.2884 -0.9009  0.4601
  852MOL0     H14954   6.747  -0.008   9.035 -0.4182  0.1252 -0.6433
  852MOL0     H14955   6.552   0.129   9.345  1.4607 -0.4082 -0.6264
  852MOL0     H14956   6.678   0.248   9.358  0.7723 -1.8820 -0.6467
  852MOL0     H14957   6.501   0.376   9.209 -0.6231 -0.9791 -0.0066
  852MOL0     H14958   6.376   0.298   9.304  0.0946 -0.2432  0.6798
  852MOL0     H14959   6.526   0.388   9.509 -0.6741  0.2854 -0.2880
  852MOL0     H14960   6.605   0.488   9.390 -0.5949  3.1714  0.9330
  852MOL0     H14961   6.376   0.578   9.319  0.3214  2.3865  0.5179
  852MOL0     H14962   6.304   0.479   9.446 -0.4978  0.0108 -1.2903
  852MOL0     H14963   6.450   0.615   9.605 -0.2339 -0.6757 -0.4270
  852MOL0     H14964   6.491   0.717   9.483  0.3255  0.0981  2.3162
  852MOL0     H14965   6.238   0.765   9.439  2.7984 -0.7126 -1.0500
  852MOL0     H14966   6.203   0.655   9.572 -0.6016 -2.2847 -4.9323
  852MOL0     H14967   6.273   0.819   9.740 -1.0032  1.1259  0.6160
  852MOL0     H14968   6.406   0.874   9.639 -0.5712 -1.1879  1.2443
  852MOL0     H14969   6.138   0.988   9.652  1.1722  0.3598 -0.0210
  852MOL0     H14970   6.228   0.985   9.503  0.8182  0.0548  0.1574
  852MOL0     H14971   6.325   1.063   9.883 -1.8207 -0.7236 -0.9584
  852MOL0     H14972   6.516   1.404   9.854 -0.5761 -1.2060 -2.7162
  852MOL0     H14973   6.416   1.323   9.989  0.8355  0.0085  0.9616
  852MOL0     H14974   6.685   1.217   9.863  3.0229  3.3089  2.2225
  852MOL0     H14975   6.597   1.140   9.993  0.4064  0.0035 -0.6128
  852MOL0     H14976   6.626   1.326  10.139 -1.8689 -1.8802 -0.9417
  852MOL0     H14977   6.691   1.420  10.007 -2.7981 -0.6388  0.0451
  852MOL0     H14978   6.851   1.162  10.091 -1.5788 -0.9744 -2.1227
  852MOL0     H14979   6.858   1.322  10.167 -3.0436 -0.2388  1.1692
  852MOL0     H14980   7.090   1.328   9.784 -1.5161 -1.1025 -0.1634
  852MOL0     H14981   7.287   1.375   9.687 -0.9157 -1.3619 -0.9870
  852MOL0     H14982   7.440   1.314   9.750  1.0893  1.7498 -3.6728
  852MOL0     H14983   7.328   1.212   9.663  1.9129  0.5786  0.1210
  852MOL0     H14984   7.591   0.844   9.937 -0.1948  0.1836 -1.6422
  852MOL0     H14985   7.842   0.773   9.950 -1.0408  3.0060 -3.1169
  852MOL0     H14986   7.981   0.650  10.088 -0.0660 -0.4625  3.0719
  852MOL0     H14987   8.092   0.749   9.991  2.7017 -1.4774  0.5598
  852MOL0     H14988   8.241   0.630  10.099 -0.4826  2.1016 -0.8430
  852MOL0     H14989   8.230   0.786  10.177  0.5121 -0.4539  1.3796
  852MOL0     H14990   8.054   0.608  10.317 -0.2410  0.1536  0.4399
  852MOL0     H14991   8.179   0.720  10.361  3.4821  0.7712 -1.0552
  852MOL0     H14992   8.344   0.554  10.356 -1.9607  1.5852  0.1013
  852MOL0     H14993   8.214   0.483  10.436  0.3236  0.5141  0.9873
  852MOL0     H14994   8.294   0.409  10.135  0.0934  3.0903  1.5083
  852MOL0     H14995   8.143   0.378  10.206 -0.5158  1.1802 -0.9424
  852MOL0     H14996   8.405   0.281  10.330  1.3152  0.0010  0.4982
  852MOL0     H14997   8.243   0.241  10.386  2.4213 -0.0133  1.1003
  852MOL0     H14998   8.356   0.163  10.112 -1.0650 -0.9150 -0.7659
  852MOL0     H14999   8.196   0.148  10.150 -0.2291  1.1800  0.2192
  852MOL0     H15000   8.317  -0.060  10.180 -0.4998  0.9182 -2.4785
  852MOL0     H15001   8.230  -0.023  10.327  2.2590 -4.2414  1.0029
  852MOL0     H15002   7.886   1.013  10.296  1.5622 -2.2323 -0.3526
  852MOL0     H15003   7.669   1.140  10.241  1.8042 -0.2895  0.2210
  852MOL0     H15004   7.303   1.133  10.193 -2.9782 -0.5317  1.1919
  852MOL0     H15005   7.057   1.190  10.191  1.3700 -1.0567  0.2988
  852MOL0     H15006   6.819   0.375   9.224  0.8227 -1.8253  2.7353
  852MOL0     H15007   7.036   0.377   9.145  1.5760 -0.8668  1.4192
  852MOL0     H15008   7.381   0.181   9.072 -0.3211  2.0744 -0.5913
  852MOL0     H15009   7.646   0.194   9.036 -1.1121  1.4804  0.7963
  852MOL0     H15010   7.788   0.268   8.639  2.2813  2.2177  0.6263
  852MOL0     H15011   7.924   0.247   8.742 -0.8076  2.1911  1.1734
  852MOL0     H15012   7.931   0.066   8.586  1.2328 -0.2989  0.3081
  852MOL0     H15013   7.792  -0.013   8.659  3.0000 -4.5746 -1.5415
  852MOL0     H15014   7.874  -0.045   8.873  2.1776  0.3974  1.5008
  852MOL0     H15015   7.995   0.072   8.858 -2.2897  2.8824  1.5993
  852MOL0     H15016   8.092  -0.136   8.841 -0.1763  1.8113 -0.6265
  852MOL0     H15017   8.116  -0.065   8.676 -0.8423  1.0417 -1.7179
  852MOL0     H15018   7.929  -0.423   8.582 -1.0400 -0.5322  2.0726
  852MOL0     H15019   7.595   0.140   8.631 -2.2942 -0.2786 -0.3508
  852MOL0     H15020   7.339   0.173   8.657 -1.9182 -2.1026  1.2192
  853MOL0     O15021   2.732   7.804  10.063  0.3539  0.0259  0.3054
  853MOL0     C15022   2.788   7.733  10.141  0.2354  0.2467  0.1197
  853MOL0     O15023   2.729   7.675  10.253 -0.3786  0.0059 -0.2544
  853MOL0     C15024   2.596   7.679  10.263 -0.4422 -0.0440 -0.5354
  853MOL0     C15025   2.548   7.704  10.392  0.2255  0.5919 -0.3735
  853MOL0     C15026   2.403   7.706  10.425  0.1637  0.7860 -0.1897
  853MOL0     C15027   2.314   7.666  10.324 -0.7184  0.1278  0.6708
  853MOL0     O15028   2.187   7.636  10.341  0.0558 -0.1951  1.0387
  853MOL0     C15029   2.111   7.691  10.453 -0.1289  0.6214  0.1951
  853MOL0     C15030   1.977   7.729  10.398 -0.1091  0.5978  0.3900
  853MOL0     C15031   1.889   7.611  10.356 -0.1719 -0.2524 -0.1028
  853MOL0     C15032   1.748   7.657  10.306  0.1656 -1.1275  0.1160
  853MOL0     C15033   1.657   7.551  10.262 -0.9566 -0.6140  0.3063
  853MOL0     C15034   1.518   7.600  10.242  0.6740 -0.5279 -0.2438
  853MOL0     C15035   1.419   7.480  10.212 -0.4260  0.3258 -0.0967
  853MOL0     C15036   1.279   7.534  10.203  0.8771  0.6302 -0.4135
  853MOL0     N15037   1.239   7.582  10.340  0.6238  0.0425  0.4881
  853MOL0     C15038   1.229   7.495  10.449  0.2977  0.1788  0.1758
  853MOL0     C15039   1.212   7.574  10.551 -0.0239 -0.7824 -0.6704
  853MOL0     C15040   1.207   7.549  10.701 -0.0918 -0.3228 -0.7487
  853MOL0     C15041   1.341   7.595  10.783 -0.6266 -0.4001 -0.2963
  853MOL0     C15042   1.476   7.527  10.768 -1.0998  0.2097  0.1853
  853MOL0     C15043   1.552   7.528  10.629  0.3692  0.0783 -0.6407
  853MOL0     O15044   1.680   7.468  10.643  0.0512 -0.4171  0.0255
  853MOL0     C15045   1.780   7.534  10.704  0.5352  1.4357  0.8865
  853MOL0     C15046   1.788   7.676  10.734 -1.6036  0.3774 -0.1508
  853MOL0     C15047   1.903   7.723  10.795  0.2996 -0.3188  0.4461
  853MOL0     C15048   1.908   7.858  10.839 -0.7430  0.3531 -0.8512
  853MOL0     C15049   2.023   7.650  10.799 -0.1953 -0.1869 -1.3312
  853MOL0     C15050   2.157   7.698  10.839 -0.0558 -0.2916 -0.2982
  853MOL0     O15051   2.171   7.799  10.929 -0.0811  0.3917 -0.2682
  853MOL0     C15052   2.289   7.860  10.920  0.4811  0.0722 -0.1622
  853MOL0     C15053   2.319   7.970  10.837  0.6394 -0.0654  0.6182
  853MOL0     C15054   2.437   8.037  10.862 -0.2727 -0.5734 -0.3023
  853MOL0     C15055   2.527   7.992  10.951  0.0125  0.9778 -0.7899
  853MOL0     O15056   2.644   8.067  10.988  0.3428 -0.5916 -0.3981
  853MOL0     C15057   2.646   8.205  10.984 -0.1487 -0.1359 -0.4811
  853MOL0     C15058   2.557   8.257  11.099 -0.0567 -0.4986 -0.5417
  853MOL0     C15059   2.544   8.405  11.120  0.5027 -0.0566  0.2713
  853MOL0     C15060   2.401   8.454  11.076  0.4397  0.1838 -0.1093
  853MOL0     C15061   2.362   8.589  11.137  0.8599 -0.3044 -0.2258
  853MOL0     C15062   2.219   8.639  11.105 -0.1414  0.5431  0.1943
  853MOL0     C15063   2.222   8.789  11.132  0.6423  0.5050  0.2713
  853MOL0     C15064   2.098   8.852  11.059  0.3436  0.6698 -0.0615
  853MOL0    Cl15065   1.954   8.775  11.123 -0.9230  0.3423 -0.5281
  853MOL0     C15066   2.507   7.878  11.023  0.3023 -1.3950 -0.1119
  853MOL0     C15067   2.388   7.813  11.016 -0.5993  0.2218  0.0264
  853MOL0     O15068   2.254   7.638  10.778  0.1482  0.1142  0.6272
  853MOL0     C15069   2.019   7.515  10.756  0.2469  0.3771  0.2406
  853MOL0     C15070   1.894   7.463  10.712  0.3031  0.1176 -1.5808
  853MOL0     N15071   1.188   7.700  10.516 -0.7819 -1.1349 -0.6734
  853MOL0     N15072   1.208   7.698  10.393 -0.4776 -0.3468  0.1419
  853MOL0     C15073   2.364   7.644  10.192 -0.2427  1.6245 -0.0857
  853MOL0     C15074   2.506   7.647  10.161  0.6953  0.3616  0.1029
  853MOL0     C15075   2.925   7.690  10.116  0.0155 -0.9272 -0.0187
  853MOL0     C15076   2.992   7.604  10.204 -0.4913 -0.3267 -0.1500
  853MOL0     C15077   3.117   7.554  10.186 -0.6345 -0.5649  0.0145
  853MOL0     C15078   3.181   7.593  10.064 -0.4772  0.7891  0.1426
  853MOL0     O15079   3.307   7.536  10.031  0.7433 -0.1913 -0.0139
  853MOL0     C15080   3.395   7.477  10.130  0.1401 -0.6099 -0.2612
  853MOL0     C15081   3.428   7.586  10.238 -0.7731 -0.1866 -0.9025
  853MOL0     C15082   3.566   7.552  10.293 -0.0227 -0.0049 -0.3003
  853MOL0     C15083   3.614   7.622  10.429  0.7566  0.3981  0.9670
  853MOL0     C15084   3.750   7.598  10.479  0.0859 -0.9480 -0.1934
  853MOL0     C15085   3.859   7.603  10.528  0.3830 -0.3429  0.5467
  853MOL0     C15086   3.125   7.674   9.972  0.5333 -1.2169 -0.2177
  853MOL0     C15087   2.994   7.732   9.999 -0.7303  0.1690  0.1084
  853MOL0     H15088   2.630   7.705  10.462 -0.6714 -2.0831  0.8351
  853MOL0     H15089   2.367   7.717  10.526 -0.0086  1.1762 -0.2930
  853MOL0     H15090   2.098   7.624  10.538  2.7284 -0.8402 -0.3868
  853MOL0     H15091   2.155   7.785  10.487 -1.2336  0.8079  1.1608
  853MOL0     H15092   1.904   7.780  10.461 -1.8073 -0.1247 -0.9141
  853MOL0     H15093   1.999   7.790  10.310  3.2788  0.8523  1.2798
  853MOL0     H15094   1.935   7.557  10.273 -2.3438  0.1266 -1.6429
  853MOL0     H15095   1.872   7.553  10.448 -2.0181  2.5226  1.4412
  853MOL0     H15096   1.695   7.717  10.380  0.8320 -1.6841  1.0544
  853MOL0     H15097   1.767   7.725  10.222  2.9200  1.4244  2.6065
  853MOL0     H15098   1.691   7.509  10.167 -0.9890  1.8259 -0.8546
  853MOL0     H15099   1.651   7.465  10.330 -0.6394 -0.2115  0.8492
  853MOL0     H15100   1.481   7.658  10.327 -1.9937 -1.2845 -0.8102
  853MOL0     H15101   1.521   7.659  10.150 -0.4365  0.1006  0.1055
  853MOL0     H15102   1.449   7.429  10.120 -0.3227  0.4694 -0.1430
  853MOL0     H15103   1.423   7.404  10.290  2.2062 -0.5148 -0.9307
  853MOL0     H15104   1.207   7.455  10.180  2.6523 -1.0986 -0.3111
  853MOL0     H15105   1.279   7.621  10.136  0.9800  0.8915 -0.0733
  853MOL0     H15106   1.259   7.390  10.447  1.5396  0.4773  1.5682
  853MOL0     H15107   1.115   7.581  10.749  0.2108 -2.8691  1.8074
  853MOL0     H15108   1.203   7.440  10.715 -1.1785  0.0511  2.8513
  853MOL0     H15109   1.312   7.598  10.888 -0.1410  1.8361 -0.1609
  853MOL0     H15110   1.361   7.702  10.769 -0.2725 -0.0313  2.5405
  853MOL0     H15111   1.469   7.423  10.801  1.7484 -0.0472  0.2056
  853MOL0     H15112   1.542   7.571  10.843  1.6436 -2.5111 -0.4628
  853MOL0     H15113   1.564   7.631  10.593 -0.5272  0.4600  0.1335
  853MOL0     H15114   1.496   7.469  10.557  0.0195  0.8379 -0.9976
  853MOL0     H15115   1.715   7.753  10.711 -0.9550  1.0730  0.1007
  853MOL0     H15116   1.991   7.923  10.809  0.2064  0.5671  1.9114
  853MOL0     H15117   1.820   7.919  10.814  0.1415  1.3127 -1.7159
  853MOL0     H15118   1.911   7.861  10.948 -0.5290  1.2256 -0.8734
  853MOL0     H15119   2.245   8.008  10.768  1.4951  2.5832  1.0405
  853MOL0     H15120   2.458   8.125  10.802  1.0197 -0.1176  0.7659
  853MOL0     H15121   2.750   8.239  10.989  0.8903 -3.0166 -0.9988
  853MOL0     H15122   2.607   8.245  10.890 -0.2379 -0.0353 -0.4034
  853MOL0     H15123   2.460   8.208  11.092 -0.4027  0.1603 -0.3501
  853MOL0     H15124   2.606   8.216  11.187  3.9634 -1.9909 -3.1792
  853MOL0     H15125   2.622   8.451  11.059 -0.6466 -0.2113 -1.3784
  853MOL0     H15126   2.566   8.442  11.220 -0.8187  1.1373  0.1640
  853MOL0     H15127   2.397   8.462  10.967  0.0187  0.3697 -0.0786
  853MOL0     H15128   2.329   8.378  11.106 -0.2631  1.4548  1.5802
  853MOL0     H15129   2.437   8.664  11.110 -0.6267  2.6361  3.0819
  853MOL0     H15130   2.365   8.571  11.245  0.9228  0.8191 -0.0371
  853MOL0     H15131   2.204   8.601  11.004  3.0538 -2.5644  0.6647
  853MOL0     H15132   2.140   8.590  11.163 -1.9908 -1.7026 -3.8696
  853MOL0     H15133   2.314   8.832  11.092  0.9205 -0.0048  0.3531
  853MOL0     H15134   2.212   8.809  11.239 -3.3494  1.2112 -0.0840
  853MOL0     H15135   2.123   8.836  10.954 -0.7695 -1.0596 -0.1111
  853MOL0     H15136   2.080   8.958  11.079 -0.9495  0.7352 -1.4028
  853MOL0     H15137   2.591   7.852  11.087 -0.4705 -1.8927  0.7359
  853MOL0     H15138   2.378   7.724  11.077  2.2599 -1.0885 -1.2578
  853MOL0     H15139   2.105   7.453  10.775 -0.5654 -0.2220  2.2109
  853MOL0     H15140   1.889   7.358  10.684  1.5428 -0.0137 -1.3851
  853MOL0     H15141   2.298   7.615  10.111  0.1504  1.5443 -0.3796
  853MOL0     H15142   2.533   7.628  10.058  1.5075  0.2585  0.3321
  853MOL0     H15143   2.923   7.569  10.280  0.2090 -1.0532  0.1721
  853MOL0     H15144   3.159   7.498  10.269 -2.2863  3.2339  3.8080
  853MOL0     H15145   3.357   7.392  10.187 -0.4531 -0.4865 -0.4657
  853MOL0     H15146   3.487   7.449  10.077  1.1153 -2.6269  2.2998
  853MOL0     H15147   3.350   7.582  10.315 -0.4726 -3.2583 -0.6239
  853MOL0     H15148   3.432   7.687  10.197  1.2240 -0.0623 -0.4890
  853MOL0     H15149   3.641   7.580  10.219 -0.9162 -0.4612 -1.4157
  853MOL0     H15150   3.570   7.442  10.293 -1.0768 -0.0569 -0.7697
  853MOL0     H15151   3.543   7.586  10.504  1.5252 -4.3182 -0.2245
  853MOL0     H15152   3.599   7.730  10.420 -0.3114  0.4177  2.6178
  853MOL0     H15153   3.954   7.618  10.575 -0.8080  1.3315  2.5501
  853MOL0     H15154   3.184   7.689   9.882  1.0430 -5.1280 -0.7328
  853MOL0     H15155   2.951   7.806   9.932 -2.4265  0.7744  1.7839
  854MOL0     O15156   1.645   1.257   7.730  0.2259  0.2675 -0.2287
  854MOL0     C15157   1.650   1.173   7.645  0.3304  0.5340 -0.0602
  854MOL0     O15158   1.548   1.106   7.595  0.6311  0.4176 -0.4091
  854MOL0     C15159   1.423   1.155   7.630 -0.4002 -0.0001 -0.0716
  854MOL0     C15160   1.335   1.072   7.694 -0.6506 -0.3472 -0.0504
  854MOL0     C15161   1.202   1.125   7.726 -0.7239  0.1676 -0.0260
  854MOL0     C15162   1.172   1.252   7.695  0.0761 -0.2260 -0.3551
  854MOL0     O15163   1.057   1.319   7.739 -0.3599 -0.8295  0.3121
  854MOL0     C15164   0.981   1.248   7.835 -0.0204 -0.2134  0.1222
  854MOL0     C15165   0.860   1.347   7.867 -0.9292  0.2666  0.3370
  854MOL0     C15166   0.739   1.288   7.794 -0.6485 -0.6313  0.1919
  854MOL0     C15167   0.602   1.368   7.815 -0.8490  0.0073 -0.7357
  854MOL0     C15168   0.570   1.461   7.712  0.0897 -0.9071  0.5824
  854MOL0     C15169   0.425   1.504   7.705  0.2760 -0.1690  0.5992
  854MOL0     C15170   0.371   1.572   7.839 -0.3468 -0.3546 -0.0419
  854MOL0     C15171   0.224   1.624   7.821  0.0141  0.5286  0.4237
  854MOL0     N15172   0.136   1.505   7.850 -0.2171 -0.0315 -0.0889
  854MOL0     C15173   0.064   1.435   7.761  0.4549 -0.8089 -0.6665
  854MOL0     C15174  -0.038   1.380   7.829  0.3068  0.0554  0.0691
  854MOL0     C15175  -0.144   1.295   7.772  0.9810  0.5562  0.2814
  854MOL0     C15176  -0.277   1.371   7.753  0.8202 -0.5076 -0.7001
  854MOL0     C15177  -0.391   1.281   7.697  0.4481  0.4070  0.1881
  854MOL0     C15178  -0.513   1.361   7.661 -0.4061  0.5053  0.3165
  854MOL0     O15179  -0.606   1.264   7.600  0.1813 -0.1248 -0.4445
  854MOL0     C15180  -0.729   1.323   7.563 -0.5815  0.2695  0.4480
  854MOL0     C15181  -0.781   1.450   7.589  0.0914  0.1405  0.1875
  854MOL0     C15182  -0.891   1.502   7.522 -0.0023 -0.5992  0.0004
  854MOL0     C15183  -0.944   1.650   7.564 -0.0537 -0.2178  0.1484
  854MOL0     C15184  -0.961   1.421   7.431 -0.6986 -0.7283 -0.2110
  854MOL0     C15185  -1.074   1.468   7.341 -0.0140 -0.2802  0.4987
  854MOL0     O15186  -1.113   1.382   7.237  0.1192  0.5517 -0.0983
  854MOL0     C15187  -1.210   1.407   7.144  0.7027 -0.3943 -0.1241
  854MOL0     C15188  -1.257   1.289   7.083 -0.7009 -0.0732 -0.8077
  854MOL0     C15189  -1.344   1.283   6.976  0.7537 -0.0140  0.0027
  854MOL0     C15190  -1.376   1.405   6.912 -0.3480 -0.8066 -0.6647
  854MOL0     O15191  -1.445   1.435   6.789 -0.1238  0.0487  0.1631
  854MOL0     C15192  -1.509   1.331   6.717  0.0788  1.0339  0.4851
  854MOL0     C15193  -1.655   1.316   6.762  0.2711 -0.9026 -0.9112
  854MOL0     C15194  -1.717   1.191   6.693  0.2671 -0.2332 -0.1818
  854MOL0     C15195  -1.858   1.144   6.732 -1.0911  0.7283  0.3562
  854MOL0     C15196  -1.962   1.240   6.686 -0.2390 -0.4461 -1.0441
  854MOL0     C15197  -2.097   1.200   6.742 -0.4358 -0.2214  0.1969
  854MOL0     C15198  -2.204   1.308   6.710  0.3996 -0.0044 -0.5243
  854MOL0     C15199  -2.329   1.295   6.793  0.9875  0.3866 -1.0611
  854MOL0    Cl15200  -2.412   1.137   6.747  0.3228  0.0401  0.0165
  854MOL0     C15201  -1.317   1.525   6.960 -0.1348  0.4272 -0.2603
  854MOL0     C15202  -1.239   1.528   7.079 -0.2096 -0.2621  0.8739
  854MOL0     O15203  -1.129   1.573   7.365  0.2252  0.2276 -0.1573
  854MOL0     C15204  -0.921   1.286   7.421 -0.4886 -0.3663  0.2527
  854MOL0     C15205  -0.804   1.242   7.482  0.5356 -0.0777 -0.5799
  854MOL0     N15206  -0.019   1.399   7.964  0.1820 -1.1289  0.4373
  854MOL0     N15207   0.092   1.471   7.976 -0.2642 -0.5175 -0.2145
  854MOL0     C15208   1.272   1.335   7.636  0.4218  0.3973  0.1841
  854MOL0     C15209   1.395   1.283   7.601 -0.0956 -0.7212 -0.2633
  854MOL0     C15210   1.791   1.128   7.598  0.3724 -0.4922  0.0846
  854MOL0     C15211   1.793   1.023   7.504 -0.9619 -0.3003  0.3172
  854MOL0     C15212   1.917   0.958   7.473 -0.3885  0.1400  0.3270
  854MOL0     C15213   2.034   1.003   7.530 -0.1070  0.7836 -0.5666
  854MOL0     O15214   2.150   0.940   7.501 -0.1341 -0.1700 -0.0715
  854MOL0     C15215   2.275   1.005   7.508  0.6105  0.0964 -0.2933
  854MOL0     C15216   2.361   0.951   7.393 -0.4082 -0.4359 -0.3324
  854MOL0     C15217   2.482   1.044   7.378  0.1776 -1.4469 -0.1112
  854MOL0     C15218   2.572   0.992   7.272  0.3551 -0.3287  0.6824
  854MOL0     C15219   2.511   1.021   7.141 -0.6656 -0.0553 -0.4535
  854MOL0     C15220   2.467   1.039   7.027  0.5507 -0.5837 -0.4614
  854MOL0     C15221   2.029   1.109   7.618  0.1781  0.5255 -0.2826
  854MOL0     C15222   1.914   1.175   7.658  0.2548 -0.6400  1.2898
  854MOL0     H15223   1.360   0.968   7.712 -1.3108 -0.4188  0.5190
  854MOL0     H15224   1.132   1.056   7.772 -2.5412 -0.3241 -3.2523
  854MOL0     H15225   0.935   1.152   7.810 -0.9019 -0.5685  2.7868
  854MOL0     H15226   1.044   1.225   7.921 -0.8956  0.4689  0.9673
  854MOL0     H15227   0.849   1.357   7.975  1.5949 -0.3913  0.7311
  854MOL0     H15228   0.870   1.450   7.831 -1.1121  0.1022 -0.1892
  854MOL0     H15229   0.766   1.277   7.688  2.0685  2.1114  0.4512
  854MOL0     H15230   0.730   1.189   7.839  0.3362  0.5228  3.1964
  854MOL0     H15231   0.524   1.292   7.805 -0.8343  0.2061 -2.5902
  854MOL0     H15232   0.615   1.413   7.914  1.0278 -2.1672  0.1038
  854MOL0     H15233   0.637   1.547   7.708  0.4747 -1.2482 -2.6381
  854MOL0     H15234   0.586   1.408   7.617  0.5340  0.4967 -0.1449
  854MOL0     H15235   0.397   1.572   7.624  0.8012  1.4043  1.6817
  854MOL0     H15236   0.372   1.410   7.689 -0.4308  0.0973  1.3112
  854MOL0     H15237   0.371   1.505   7.925  1.5184 -0.8379 -0.3845
  854MOL0     H15238   0.433   1.659   7.862 -0.7376  0.3012 -1.3373
  854MOL0     H15239   0.224   1.661   7.718  0.4214 -0.9056 -0.1221
  854MOL0     H15240   0.208   1.716   7.877  1.5494  1.8801 -1.2095
  854MOL0     H15241   0.080   1.436   7.653  0.4740 -0.8163 -0.6638
  854MOL0     H15242  -0.115   1.250   7.677 -3.0050 -2.6987  0.2976
  854MOL0     H15243  -0.174   1.215   7.841 -1.7569  0.8410 -0.4824
  854MOL0     H15244  -0.264   1.446   7.675 -2.0051 -1.9616 -2.7434
  854MOL0     H15245  -0.314   1.408   7.849 -3.4136  0.5651 -2.5051
  854MOL0     H15246  -0.420   1.209   7.774  3.1545 -0.3362  0.6333
  854MOL0     H15247  -0.345   1.226   7.615  1.0303 -0.7589  1.2494
  854MOL0     H15248  -0.505   1.440   7.585 -0.6115 -2.8661 -3.5774
  854MOL0     H15249  -0.559   1.396   7.754 -3.9505  0.8262 -1.3750
  854MOL0     H15250  -0.724   1.522   7.647 -1.2627  2.4139 -1.1743
  854MOL0     H15251  -0.872   1.692   7.635  0.9321 -3.2578  1.1078
  854MOL0     H15252  -0.951   1.721   7.481  2.8557 -0.0235 -0.0211
  854MOL0     H15253  -1.044   1.643   7.609  0.3593 -2.0705  0.8365
  854MOL0     H15254  -1.222   1.197   7.130 -0.7392  0.9028  1.2676
  854MOL0     H15255  -1.391   1.191   6.940  0.6234  0.4601 -1.0773
  854MOL0     H15256  -1.493   1.347   6.610  2.0987 -2.9996 -0.0258
  854MOL0     H15257  -1.457   1.235   6.722  1.5335  1.7117 -0.7752
  854MOL0     H15258  -1.659   1.324   6.871  2.4964  3.6819 -0.9228
  854MOL0     H15259  -1.698   1.412   6.733  0.3038 -0.3500  0.7767
  854MOL0     H15260  -1.648   1.108   6.710 -3.3347 -2.6357  5.2492
  854MOL0     H15261  -1.726   1.215   6.587 -3.9075  1.5700  0.3779
  854MOL0     H15262  -1.875   1.050   6.679 -1.0348  0.3436  1.0138
  854MOL0     H15263  -1.859   1.127   6.840 -0.3806  1.6538  0.5244
  854MOL0     H15264  -1.971   1.237   6.577 -1.4678  0.8378 -0.9926
  854MOL0     H15265  -1.926   1.338   6.718  1.9826 -2.1183  2.2086
  854MOL0     H15266  -2.127   1.104   6.699  1.8483 -0.3288 -1.2957
  854MOL0     H15267  -2.092   1.191   6.851  0.3778  1.9230  0.3841
  854MOL0     H15268  -2.240   1.313   6.607 -1.7617 -0.7175  0.1344
  854MOL0     H15269  -2.161   1.406   6.732 -0.6807  0.4476 -0.3216
  854MOL0     H15270  -2.386   1.388   6.777 -0.6374  0.1983  2.6310
  854MOL0     H15271  -2.299   1.309   6.897 -1.5042  0.9008 -0.3378
  854MOL0     H15272  -1.343   1.612   6.902  0.1864 -0.1693 -1.3148
  854MOL0     H15273  -1.187   1.618   7.111 -3.5487  1.1831  2.8096
  854MOL0     H15274  -0.961   1.223   7.342  2.9627 -1.5459 -0.7324
  854MOL0     H15275  -0.752   1.147   7.472 -0.3397 -0.5779 -0.4172
  854MOL0     H15276   1.256   1.442   7.624 -0.9239  0.3443  1.1847
  854MOL0     H15277   1.472   1.348   7.562 -0.2443 -0.8474 -0.7673
  854MOL0     H15278   1.705   0.977   7.458 -0.0370 -3.1559  1.1580
  854MOL0     H15279   1.904   0.882   7.396 -0.3059  0.5677 -0.1186
  854MOL0     H15280   2.256   1.111   7.489 -1.6105 -0.1884  0.1489
  854MOL0     H15281   2.325   0.992   7.605 -2.1729 -2.2611  0.9618
  854MOL0     H15282   2.291   0.957   7.309 -2.2076 -2.4791  0.9081
  854MOL0     H15283   2.399   0.851   7.415  2.4170  0.2178 -1.7681
  854MOL0     H15284   2.531   1.033   7.475 -0.3083  1.6213  0.5869
  854MOL0     H15285   2.459   1.148   7.354  1.8184 -0.4974  2.0125
  854MOL0     H15286   2.591   0.885   7.270  1.6770 -0.1571 -2.5446
  854MOL0     H15287   2.672   1.032   7.288  1.3364 -2.2663 -0.3352
  854MOL0     H15288   2.435   1.064   6.928 -0.7759 -1.1239 -0.1986
  854MOL0     H15289   2.119   1.150   7.662  1.5061 -1.5520 -0.8880
  854MOL0     H15290   1.924   1.262   7.724  1.8611 -0.2856  0.6307
  855MOL0     O15291   3.696   0.124   5.528 -0.4534 -0.0965  0.1906
  855MOL0     C15292   3.754   0.199   5.603 -0.6417 -1.5375 -0.7983
  855MOL0     O15293   3.688   0.295   5.684  0.5535 -0.7430  0.3151
  855MOL0     C15294   3.562   0.343   5.667  0.9865 -0.7998  0.2937
  855MOL0     C15295   3.498   0.348   5.536  1.0869  0.3003 -0.1943
  855MOL0     C15296   3.376   0.419   5.523 -0.8010  0.2232  0.1645
  855MOL0     C15297   3.301   0.459   5.631 -0.0392 -0.1056  0.2764
  855MOL0     O15298   3.188   0.537   5.608 -0.3062 -0.3650  0.3017
  855MOL0     C15299   3.128   0.608   5.720  0.2680 -0.1712  0.1046
  855MOL0     C15300   3.041   0.714   5.663  0.0669 -0.2467 -0.0245
  855MOL0     C15301   3.126   0.831   5.616  1.0123  0.4107  1.0282
  855MOL0     C15302   3.030   0.939   5.547 -0.1243 -0.0147 -0.0377
  855MOL0     C15303   3.088   1.077   5.508  0.3397  0.1971  0.0010
  855MOL0     C15304   3.144   1.164   5.617 -1.0053 -1.6935 -0.2376
  855MOL0     C15305   3.183   1.305   5.568  0.1349 -1.3233 -0.8367
  855MOL0     C15306   3.305   1.295   5.473 -0.2509 -0.3391 -0.3587
  855MOL0     N15307   3.434   1.271   5.540  0.1864  0.8290  0.0324
  855MOL0     C15308   3.487   1.337   5.644 -0.0383  0.4645 -0.1977
  855MOL0     C15309   3.601   1.261   5.661  0.2480  0.0948 -0.1930
  855MOL0     C15310   3.694   1.293   5.778  0.1060  0.5287 -0.8259
  855MOL0     C15311   3.828   1.318   5.716  0.4725 -0.0091  0.4523
  855MOL0     C15312   3.935   1.344   5.822 -0.4910  0.5047  0.0729
  855MOL0     C15313   3.928   1.492   5.862 -1.2263 -0.7601  0.4066
  855MOL0     O15314   3.984   1.585   5.773  0.4783 -0.3607 -0.0829
  855MOL0     C15315   3.943   1.719   5.773 -0.1753  0.0691  0.0505
  855MOL0     C15316   3.982   1.806   5.672 -0.7174 -0.3023  0.1246
  855MOL0     C15317   3.959   1.943   5.678  0.1337  0.7314  0.1989
  855MOL0     C15318   3.998   2.026   5.548 -0.1140 -0.1340 -0.8940
  855MOL0     C15319   3.890   2.006   5.781 -0.4650  0.2148  0.0216
  855MOL0     C15320   3.868   2.149   5.786  1.5085  0.0525  0.0033
  855MOL0     O15321   3.775   2.182   5.880  0.5156 -0.3787  0.0053
  855MOL0     C15322   3.729   2.313   5.894  0.5559 -0.3190 -0.4272
  855MOL0     C15323   3.684   2.350   6.021  0.3268  0.0971  0.5401
  855MOL0     C15324   3.620   2.472   6.040 -0.1940  0.1426  0.3061
  855MOL0     C15325   3.621   2.571   5.938  0.3786 -0.3172  0.9007
  855MOL0     O15326   3.570   2.694   5.974  0.8997 -0.1005 -0.5108
  855MOL0     C15327   3.544   2.795   5.876  0.1483 -0.0965 -0.6354
  855MOL0     C15328   3.668   2.882   5.834 -0.1776  0.7805 -0.7080
  855MOL0     C15329   3.624   3.003   5.747 -1.1115 -0.1712  0.0064
  855MOL0     C15330   3.549   2.955   5.627 -0.3548 -0.0206  1.1273
  855MOL0     C15331   3.517   3.078   5.538  0.8391  0.5758  0.3961
  855MOL0     C15332   3.424   3.184   5.611 -0.6128  0.1899  0.6417
  855MOL0     C15333   3.339   3.248   5.510 -0.1453 -0.0262 -0.6946
  855MOL0     C15334   3.254   3.357   5.579 -0.4464  0.5599  1.0976
  855MOL0    Cl15335   3.280   3.519   5.491  0.0762 -0.1314  0.1976
  855MOL0     C15336   3.667   2.538   5.815 -0.6387 -0.5779 -0.0634
  855MOL0     C15337   3.715   2.414   5.792  0.0261  0.8979 -0.2177
  855MOL0     O15338   3.928   2.231   5.717 -0.2363  0.2529 -0.2863
  855MOL0     C15339   3.836   1.915   5.882  0.2683  0.2314  0.7693
  855MOL0     C15340   3.861   1.780   5.883 -0.0107  0.2435  0.9736
  855MOL0     N15341   3.619   1.169   5.560 -0.1587  0.9760  0.2954
  855MOL0     N15342   3.518   1.171   5.491  0.1918  0.3656  0.5901
  855MOL0     C15343   3.354   0.440   5.762 -0.6888  0.4532 -0.5008
  855MOL0     C15344   3.485   0.399   5.777 -0.1949  0.1155  0.5064
  855MOL0     C15345   3.902   0.193   5.615  0.3541  0.2594 -0.4700
  855MOL0     C15346   3.970   0.095   5.542 -0.6645 -0.1868 -0.0155
  855MOL0     C15347   4.108   0.096   5.546  0.0130 -0.9864  0.1322
  855MOL0     C15348   4.182   0.179   5.623 -1.0828 -0.2659 -0.6360
  855MOL0     O15349   4.324   0.152   5.630  0.0127  1.1458 -0.0291
  855MOL0     C15350   4.404   0.207   5.732 -1.4593 -0.3218  0.4549
  855MOL0     C15351   4.561   0.178   5.704 -0.0391 -0.4436 -0.7737
  855MOL0     C15352   4.611   0.036   5.692 -0.3502  0.4174  0.2754
  855MOL0     C15353   4.622  -0.016   5.539 -0.1889  0.5852 -0.2996
  855MOL0     C15354   4.701  -0.140   5.546 -0.3590  0.8474 -0.1387
  855MOL0     C15355   4.775  -0.242   5.560  0.2682  0.3156  1.3070
  855MOL0     C15356   4.118   0.285   5.695 -0.7266 -0.2626 -0.0739
  855MOL0     C15357   3.973   0.283   5.697 -0.4047  0.0025  0.0101
  855MOL0     H15358   3.551   0.306   5.451 -1.7847  0.0717 -2.0051
  855MOL0     H15359   3.339   0.445   5.424 -1.2769  2.5303  0.8785
  855MOL0     H15360   3.072   0.537   5.782 -1.3986 -0.8592 -2.0418
  855MOL0     H15361   3.202   0.651   5.787  0.6447  1.3302 -1.2061
  855MOL0     H15362   2.972   0.684   5.584  0.6162  3.6176 -2.2342
  855MOL0     H15363   2.987   0.768   5.742  0.7274 -0.0173  0.2773
  855MOL0     H15364   3.171   0.875   5.706 -0.7847  0.9210  1.7256
  855MOL0     H15365   3.196   0.793   5.542 -0.4929 -0.2110 -0.1333
  855MOL0     H15366   2.989   0.901   5.453  3.3753 -0.7615 -1.4473
  855MOL0     H15367   2.948   0.954   5.617 -0.8508  2.4695 -1.2926
  855MOL0     H15368   3.164   1.039   5.440 -1.0679 -3.5625  0.2739
  855MOL0     H15369   3.008   1.133   5.459  0.6289 -0.4079 -1.2000
  855MOL0     H15370   3.075   1.167   5.703  0.4374  2.2722  1.0275
  855MOL0     H15371   3.238   1.125   5.656 -0.0449  0.7726  0.1264
  855MOL0     H15372   3.116   1.352   5.495  1.8505 -1.0064 -2.2828
  855MOL0     H15373   3.201   1.384   5.641  3.7021  0.0528 -2.9522
  855MOL0     H15374   3.319   1.388   5.416 -0.7653 -0.8304 -1.3168
  855MOL0     H15375   3.277   1.221   5.397 -2.4185 -0.1159  0.1578
  855MOL0     H15376   3.445   1.416   5.705  1.3897  0.8624  0.3262
  855MOL0     H15377   3.655   1.378   5.833 -1.3339  1.5227 -3.2365
  855MOL0     H15378   3.707   1.214   5.852  1.3778  1.1554 -0.3564
  855MOL0     H15379   3.830   1.397   5.641  0.4588 -1.3986 -1.0852
  855MOL0     H15380   3.845   1.223   5.663  0.2656 -0.0391  0.4398
  855MOL0     H15381   4.036   1.325   5.786 -2.0385 -2.9384 -3.2053
  855MOL0     H15382   3.930   1.265   5.897  2.5541  0.2012  0.0662
  855MOL0     H15383   3.983   1.499   5.957 -0.2961 -1.9602 -0.0173
  855MOL0     H15384   3.826   1.520   5.889 -2.2916 -2.4781 -1.5059
  855MOL0     H15385   4.059   1.781   5.599  0.0651 -1.9384  1.4506
  855MOL0     H15386   4.084   2.090   5.569  1.5642 -1.7986 -2.3079
  855MOL0     H15387   4.037   1.959   5.471 -1.6897 -2.6435  0.3351
  855MOL0     H15388   3.912   2.089   5.523  0.2339  2.4654  3.4313
  855MOL0     H15389   3.692   2.276   6.100 -1.3170 -1.2145 -0.4559
  855MOL0     H15390   3.584   2.492   6.140 -1.1165 -1.5644  0.3562
  855MOL0     H15391   3.499   2.745   5.789 -1.7911  0.2538  0.1076
  855MOL0     H15392   3.464   2.868   5.890 -0.7819  0.0841 -5.2806
  855MOL0     H15393   3.717   2.926   5.921  0.4351 -1.7070  0.2868
  855MOL0     H15394   3.741   2.821   5.781  2.0093  2.9648 -0.3783
  855MOL0     H15395   3.708   3.061   5.710 -2.1133  2.1318  1.1608
  855MOL0     H15396   3.557   3.068   5.804 -0.5848  0.1942  0.2093
  855MOL0     H15397   3.595   2.875   5.567 -1.1860  0.3687 -0.0825
  855MOL0     H15398   3.450   2.913   5.644  0.0170 -0.9640  1.0261
  855MOL0     H15399   3.474   3.038   5.446  2.6095 -3.6518  1.1584
  855MOL0     H15400   3.613   3.126   5.516 -0.0433  1.0583 -3.0612
  855MOL0     H15401   3.366   3.121   5.679 -0.1899 -1.8337 -0.7723
  855MOL0     H15402   3.484   3.247   5.678 -1.1410 -0.7478  2.0495
  855MOL0     H15403   3.277   3.168   5.470 -0.2019 -0.9174  1.0631
  855MOL0     H15404   3.402   3.294   5.433  0.5743 -1.6761 -1.1315
  855MOL0     H15405   3.286   3.352   5.683  0.1142 -2.4096  0.8809
  855MOL0     H15406   3.147   3.338   5.572 -0.0632 -1.4042 -0.9433
  855MOL0     H15407   3.656   2.613   5.738 -0.4939  0.9552  1.3414
  855MOL0     H15408   3.740   2.386   5.689  2.0870 -1.2065  0.7492
  855MOL0     H15409   3.794   1.960   5.971 -2.1260  0.8960 -0.6123
  855MOL0     H15410   3.818   1.719   5.962  0.4906 -3.1868 -1.1468
  855MOL0     H15411   3.304   0.464   5.856  0.4318  1.0418 -0.0298
  855MOL0     H15412   3.529   0.387   5.875 -1.0109 -0.2835  0.8330
  855MOL0     H15413   3.920   0.030   5.472  2.1135  0.5136 -2.9071
  855MOL0     H15414   4.163   0.015   5.498 -0.5607  0.9466 -4.2431
  855MOL0     H15415   4.402   0.317   5.739  1.2214 -0.0730 -1.2738
  855MOL0     H15416   4.383   0.164   5.831  1.4099  0.7330  1.6365
  855MOL0     H15417   4.613   0.226   5.787 -1.5314 -1.8494  1.0602
  855MOL0     H15418   4.595   0.230   5.614  1.5472  0.5800  0.3752
  855MOL0     H15419   4.550  -0.028   5.757  0.1028  0.2118  0.5064
  855MOL0     H15420   4.709   0.039   5.742  0.5335 -2.3095 -1.1076
  855MOL0     H15421   4.669   0.056   5.473 -0.7720  0.7145 -0.5765
  855MOL0     H15422   4.528  -0.054   5.498  0.6294 -0.6911 -1.0711
  855MOL0     H15423   4.846  -0.314   5.595 -0.3028 -0.7455  0.3329
  855MOL0     H15424   4.182   0.361   5.739  0.5648 -1.3213 -0.0275
  855MOL0     H15425   3.926   0.366   5.749  0.9861  0.6315  0.3182
  856MOL0     O15426   0.345   6.946   7.715 -0.6869  1.1793 -0.3898
  856MOL0     C15427   0.368   6.832   7.667 -0.3825 -0.3835 -0.1044
  856MOL0     O15428   0.314   6.794   7.545 -0.6982  0.1927 -0.0070
  856MOL0     C15429   0.247   6.880   7.463 -0.2531 -0.7559  0.2042
  856MOL0     C15430   0.104   6.909   7.476  0.7148 -0.5416  0.5194
  856MOL0     C15431   0.045   7.005   7.399 -0.5016 -0.0018  0.3757
  856MOL0     C15432   0.116   7.071   7.303  0.1959 -0.6753  0.4080
  856MOL0     O15433   0.053   7.160   7.225 -0.1029  0.1356 -1.0041
  856MOL0     C15434   0.128   7.285   7.207 -0.8239  0.2123 -0.2788
  856MOL0     C15435   0.122   7.378   7.330 -0.1686  0.3066 -0.0966
  856MOL0     C15436   0.124   7.530   7.279  0.8282 -0.2605 -1.0821
  856MOL0     C15437   0.266   7.578   7.247 -0.3750 -0.4002 -0.2242
  856MOL0     C15438   0.270   7.718   7.178 -0.2646 -0.9655 -0.1795
  856MOL0     C15439   0.402   7.729   7.096 -0.3027 -0.3703 -0.6869
  856MOL0     C15440   0.527   7.751   7.188 -0.0239  0.0046 -0.3591
  856MOL0     C15441   0.658   7.744   7.103  0.5266  1.4103 -0.0511
  856MOL0     N15442   0.682   7.865   7.033  0.0760 -0.0076  0.1242
  856MOL0     C15443   0.622   7.914   6.913  0.6619  0.9766 -0.0618
  856MOL0     C15444   0.674   8.038   6.886  0.2914 -0.4227 -0.2315
  856MOL0     C15445   0.655   8.126   6.770  0.4025 -0.2379  0.1218
  856MOL0     C15446   0.510   8.187   6.747  0.0965  0.0209  0.1145
  856MOL0     C15447   0.483   8.194   6.604  0.3341  0.0118  0.2473
  856MOL0     C15448   0.337   8.243   6.576 -0.2992  0.0152  0.8852
  856MOL0     O15449   0.229   8.198   6.654  0.0677 -0.4733  0.0535
  856MOL0     C15450   0.104   8.237   6.607 -0.1422  1.4551 -0.0575
  856MOL0     C15451   0.089   8.323   6.489  0.3749 -0.9136  0.1410
  856MOL0     C15452  -0.042   8.377   6.458  1.0238  0.6364  0.7329
  856MOL0     C15453  -0.061   8.433   6.316  0.3480  0.5606  0.7217
  856MOL0     C15454  -0.153   8.339   6.544  1.2350  0.2361  0.0035
  856MOL0     C15455  -0.294   8.377   6.503  0.2118 -0.0492 -0.9503
  856MOL0     O15456  -0.391   8.283   6.525  0.7820 -0.1905 -0.1433
  856MOL0     C15457  -0.511   8.319   6.468  1.0043 -0.1185 -0.4118
  856MOL0     C15458  -0.607   8.395   6.541  0.4765 -0.1381 -0.8448
  856MOL0     C15459  -0.718   8.436   6.481  0.2010 -0.2361  0.5523
  856MOL0     C15460  -0.739   8.394   6.348  0.4359  0.2523 -0.2033
  856MOL0     O15461  -0.840   8.412   6.259  0.0860  0.0779  0.0677
  856MOL0     C15462  -0.919   8.535   6.276  0.1066  0.8374 -0.6379
  856MOL0     C15463  -0.976   8.583   6.146  0.1189  0.1218 -0.4862
  856MOL0     C15464  -0.867   8.618   6.042 -0.8886 -0.2802 -0.6076
  856MOL0     C15465  -0.786   8.733   6.101  0.0826  0.2641  0.5394
  856MOL0     C15466  -0.730   8.838   6.008 -0.4920  1.0987 -0.0282
  856MOL0     C15467  -0.625   8.778   5.909  0.3059  0.3980  0.8591
  856MOL0     C15468  -0.532   8.870   5.828 -0.6118 -0.0950  1.2032
  856MOL0     C15469  -0.598   8.952   5.711 -0.5165 -0.5607 -0.3723
  856MOL0    Cl15470  -0.728   9.065   5.768 -0.2906 -0.0898  0.6434
  856MOL0     C15471  -0.643   8.316   6.274  1.4994 -0.5531 -1.2599
  856MOL0     C15472  -0.533   8.284   6.340 -0.3630  0.4218 -0.0106
  856MOL0     O15473  -0.315   8.475   6.442  0.2765 -0.8076  0.1608
  856MOL0     C15474  -0.138   8.247   6.645 -0.1776  0.3104  0.3260
  856MOL0     C15475  -0.010   8.203   6.679 -0.2176  0.5520 -0.0002
  856MOL0     N15476   0.777   8.065   6.985 -0.0016  0.1705  0.3975
  856MOL0     N15477   0.763   7.964   7.072 -0.1243  0.5471 -0.9896
  856MOL0     C15478   0.247   7.029   7.270 -0.8583  0.2710  0.3658
  856MOL0     C15479   0.318   6.941   7.354  0.3299 -0.4663 -0.5133
  856MOL0     C15480   0.459   6.743   7.741  0.1162  0.1030 -0.0723
  856MOL0     C15481   0.470   6.611   7.693  0.2359 -0.9923  0.2306
  856MOL0     C15482   0.562   6.526   7.746  0.1136  0.9875  0.3822
  856MOL0     C15483   0.634   6.554   7.863  0.4632  0.1517 -0.3388
  856MOL0     O15484   0.729   6.474   7.914 -0.0227  0.0958 -0.7456
  856MOL0     C15485   0.819   6.521   8.020  0.0531 -0.2678 -0.5875
  856MOL0     C15486   0.949   6.451   7.979 -0.1840 -0.8166  0.9945
  856MOL0     C15487   0.987   6.484   7.833 -0.4259 -0.3623 -0.1692
  856MOL0     C15488   1.126   6.433   7.822 -0.6686  0.0704  0.5472
  856MOL0     C15489   1.182   6.475   7.695  0.1185  0.0287  0.1699
  856MOL0     C15490   1.226   6.525   7.587  0.1368  0.3571 -0.0975
  856MOL0     C15491   0.609   6.685   7.914 -0.1566  0.3295 -0.2365
  856MOL0     C15492   0.519   6.775   7.862 -0.3105 -0.3425  0.0675
  856MOL0     H15493   0.047   6.867   7.559  1.0266  0.2434  1.1459
  856MOL0     H15494  -0.055   7.046   7.415 -0.2236  2.6352 -3.4241
  856MOL0     H15495   0.232   7.277   7.173 -0.0587  2.2961  1.3291
  856MOL0     H15496   0.082   7.333   7.121 -0.2884 -0.2255 -0.8210
  856MOL0     H15497   0.028   7.355   7.382 -0.5274 -0.4254 -1.0302
  856MOL0     H15498   0.194   7.364   7.412 -1.9314  0.8787  1.6263
  856MOL0     H15499   0.057   7.532   7.193  1.1558 -0.9498 -1.3549
  856MOL0     H15500   0.081   7.593   7.358 -0.8852 -1.7247 -0.7937
  856MOL0     H15501   0.335   7.574   7.332  2.1220 -0.1276 -2.1025
  856MOL0     H15502   0.312   7.510   7.175 -0.8023 -0.4334 -0.4633
  856MOL0     H15503   0.183   7.730   7.113 -1.9386  0.9225  2.2491
  856MOL0     H15504   0.252   7.797   7.251  1.7690 -1.9812  1.5134
  856MOL0     H15505   0.409   7.632   7.044 -1.2138 -2.4493  2.7293
  856MOL0     H15506   0.389   7.806   7.019 -2.0322 -2.0055 -2.1572
  856MOL0     H15507   0.528   7.845   7.243  2.4257  1.0809 -2.1073
  856MOL0     H15508   0.528   7.664   7.255  3.2493  1.4058  1.6107
  856MOL0     H15509   0.662   7.659   7.033  1.4709  2.2662 -1.0847
  856MOL0     H15510   0.744   7.726   7.168 -1.6852 -1.1692  2.4313
  856MOL0     H15511   0.563   7.841   6.857 -0.7575 -0.1534  2.6809
  856MOL0     H15512   0.726   8.209   6.781  0.7377 -0.3747 -0.8889
  856MOL0     H15513   0.687   8.065   6.685  0.4841  1.5972 -1.2403
  856MOL0     H15514   0.501   8.291   6.781  1.1613 -0.4138  1.8223
  856MOL0     H15515   0.438   8.123   6.798 -1.3951  0.6315 -1.1097
  856MOL0     H15516   0.503   8.091   6.571  0.8112 -0.2745  1.4020
  856MOL0     H15517   0.552   8.266   6.559 -1.8410  1.9415 -0.2153
  856MOL0     H15518   0.341   8.192   6.479  1.4741 -1.4815  1.6666
  856MOL0     H15519   0.334   8.352   6.577 -0.6110  0.0581 -1.1745
  856MOL0     H15520   0.170   8.365   6.430  0.4340  1.1584  1.5949
  856MOL0     H15521  -0.145   8.383   6.266  1.6554  0.9999 -2.1025
  856MOL0     H15522  -0.080   8.540   6.329  1.8039  0.5762  3.2965
  856MOL0     H15523   0.020   8.415   6.245 -0.4624  0.5784 -0.2320
  856MOL0     H15524  -0.580   8.426   6.642  2.9626  1.1345 -1.7943
  856MOL0     H15525  -0.794   8.500   6.524  0.6703  0.8293 -0.1683
  856MOL0     H15526  -1.014   8.531   6.330  1.4296  1.8942  1.9258
  856MOL0     H15527  -0.864   8.613   6.329  1.0689 -0.8864  1.0371
  856MOL0     H15528  -1.036   8.505   6.098  3.9487 -2.5068 -1.3988
  856MOL0     H15529  -1.042   8.670   6.151  3.0101  2.5238 -1.2290
  856MOL0     H15530  -0.914   8.647   5.948  0.1640 -1.5703 -1.5748
  856MOL0     H15531  -0.805   8.531   6.017 -2.7510 -1.5473 -1.0933
  856MOL0     H15532  -0.859   8.790   6.160  0.2169 -1.3814  2.3911
  856MOL0     H15533  -0.712   8.688   6.167 -1.6010 -3.0613  0.3562
  856MOL0     H15534  -0.677   8.904   6.077 -1.4127  1.1971  0.6025
  856MOL0     H15535  -0.811   8.898   5.967 -0.6593  1.2314  0.4988
  856MOL0     H15536  -0.544   8.719   5.952  1.4267  2.1931  1.2940
  856MOL0     H15537  -0.672   8.716   5.832 -0.2172  3.5546 -1.5632
  856MOL0     H15538  -0.459   8.802   5.783  1.1894  1.3335  1.8506
  856MOL0     H15539  -0.475   8.935   5.895  0.6616  0.5353 -0.4396
  856MOL0     H15540  -0.639   8.879   5.640  2.2601 -2.6250 -0.0025
  856MOL0     H15541  -0.532   9.022   5.660  0.2332 -0.8778  0.1469
  856MOL0     H15542  -0.664   8.298   6.169 -0.7433  1.2555 -1.1903
  856MOL0     H15543  -0.454   8.233   6.285 -0.4464  1.1110 -0.7926
  856MOL0     H15544  -0.224   8.208   6.699 -3.0341  3.9120 -1.1895
  856MOL0     H15545   0.008   8.130   6.759 -0.7673  0.0406 -0.3329
  856MOL0     H15546   0.298   7.082   7.190  0.1430 -1.2538 -0.0481
  856MOL0     H15547   0.424   6.918   7.345  0.4786 -1.5155  2.6379
  856MOL0     H15548   0.404   6.577   7.614  0.7541  1.0697 -1.1866
  856MOL0     H15549   0.562   6.430   7.696 -2.3377  1.7959 -1.3506
  856MOL0     H15550   0.828   6.630   8.028 -0.1473 -0.3016  0.2452
  856MOL0     H15551   0.786   6.479   8.116  0.3469  0.3374 -0.2121
  856MOL0     H15552   0.941   6.342   7.987  1.8851 -0.9809  1.2672
  856MOL0     H15553   1.030   6.480   8.046 -0.4642 -1.2302  1.5233
  856MOL0     H15554   0.984   6.592   7.817  2.4510 -0.0814  0.6945
  856MOL0     H15555   0.909   6.439   7.771  0.2596 -0.0689 -1.2615
  856MOL0     H15556   1.131   6.324   7.825  0.2969  0.0640 -0.7254
  856MOL0     H15557   1.195   6.478   7.894  0.2882  0.1900 -0.4217
  856MOL0     H15558   1.271   6.578   7.505 -0.2206  1.6522  0.5187
  856MOL0     H15559   0.654   6.708   8.009  0.4755  0.4468 -0.5625
  856MOL0     H15560   0.496   6.869   7.910 -2.3254 -1.3451  1.1941
  857MOL0     O15561   8.104   4.397   4.048 -0.5104  0.2526 -0.4130
  857MOL0     C15562   8.134   4.345   3.939 -0.4129 -0.2078 -0.2446
  857MOL0     O15563   8.127   4.211   3.915 -0.6599 -0.0864 -0.4354
  857MOL0     C15564   8.045   4.137   3.994 -0.0615  0.1889  0.9217
  857MOL0     C15565   7.911   4.170   4.023 -0.3694  1.0760 -0.8377
  857MOL0     C15566   7.839   4.085   4.116  0.2761 -0.1601 -0.1194
  857MOL0     C15567   7.889   3.968   4.164  0.4603  0.0634  0.1286
  857MOL0     O15568   7.818   3.888   4.259 -0.2924  0.2096  0.7629
  857MOL0     C15569   7.762   3.954   4.374  0.4711  0.1736  0.4952
  857MOL0     C15570   7.607   3.970   4.346 -0.1289 -0.4204  0.1027
  857MOL0     C15571   7.538   3.838   4.341 -0.1218  0.0585 -0.0112
  857MOL0     C15572   7.387   3.866   4.346  0.3186 -0.1443  0.6045
  857MOL0     C15573   7.321   3.902   4.482 -0.5374  0.3175 -0.5013
  857MOL0     C15574   7.162   3.899   4.501 -0.5587  0.8936  0.5507
  857MOL0     C15575   7.089   3.780   4.433 -0.4363 -0.6846 -0.2623
  857MOL0     C15576   7.135   3.643   4.470 -0.0803 -0.3774 -0.0249
  857MOL0     N15577   7.082   3.605   4.597 -0.4127  0.5967 -0.8747
  857MOL0     C15578   7.140   3.633   4.716  0.3231 -0.2728 -0.2501
  857MOL0     C15579   7.052   3.604   4.814  0.3374  0.3514  0.6129
  857MOL0     C15580   7.055   3.632   4.958  0.0527 -0.0531  0.4845
  857MOL0     C15581   7.108   3.776   5.003  0.0005  0.3792 -0.0980
  857MOL0     C15582   7.022   3.887   4.936  0.0157  0.7529  0.5495
  857MOL0     C15583   6.884   3.903   5.001  0.3483 -0.7164  0.0126
  857MOL0     O15584   6.887   3.902   5.151 -0.1059 -0.2099  0.3371
  857MOL0     C15585   6.774   3.849   5.206  0.2449  0.2401 -0.3078
  857MOL0     C15586   6.650   3.826   5.137  0.0033 -0.0943  0.1523
  857MOL0     C15587   6.536   3.778   5.207 -0.0034 -0.5685  0.0559
  857MOL0     C15588   6.394   3.774   5.141  0.1818 -0.2311 -0.3363
  857MOL0     C15589   6.552   3.741   5.346 -0.4035 -0.0114  0.2785
  857MOL0     C15590   6.434   3.690   5.426  0.0010 -0.3566 -0.0310
  857MOL0     O15591   6.346   3.622   5.356  0.8404  0.1858 -0.8034
  857MOL0     C15592   6.244   3.559   5.422 -0.4444 -1.0043  0.1544
  857MOL0     C15593   6.169   3.597   5.540  0.0255  0.7534  0.5042
  857MOL0     C15594   6.065   3.519   5.597 -0.2595 -0.3742  0.6091
  857MOL0     C15595   6.046   3.391   5.538  0.4817 -0.0422  0.0012
  857MOL0     O15596   5.948   3.325   5.612 -0.7204  0.0843  0.8233
  857MOL0     C15597   5.979   3.296   5.750 -0.0999 -0.4739  0.0666
  857MOL0     C15598   5.887   3.180   5.801 -0.1658 -0.4851 -0.4379
  857MOL0     C15599   5.742   3.176   5.737 -0.1773  0.1795 -0.4622
  857MOL0     C15600   5.636   3.168   5.844  0.7239 -0.1715 -0.6827
  857MOL0     C15601   5.612   3.287   5.927  0.0955  0.5407  0.3758
  857MOL0     C15602   5.525   3.239   6.047 -0.4570  0.7186  0.7319
  857MOL0     C15603   5.487   3.360   6.123  0.8387 -0.0393  0.4797
  857MOL0     C15604   5.368   3.438   6.055 -0.4670 -0.1346 -0.0674
  857MOL0    Cl15605   5.218   3.345   6.079  0.0722  0.5153  0.3535
  857MOL0     C15606   6.117   3.351   5.419 -0.1945  0.2240 -0.0611
  857MOL0     C15607   6.217   3.434   5.360 -0.5125  0.0543 -0.4215
  857MOL0     O15608   6.432   3.706   5.548  0.0223  0.1340 -0.5872
  857MOL0     C15609   6.674   3.758   5.409 -1.0921 -0.0111  0.1460
  857MOL0     C15610   6.779   3.818   5.335 -0.8197 -0.4376 -0.0874
  857MOL0     N15611   6.934   3.559   4.751  0.5416 -0.1323 -0.1625
  857MOL0     N15612   6.954   3.553   4.625  0.7675 -0.5526 -0.0600
  857MOL0     C15613   8.013   3.932   4.118 -1.0334  0.5785 -0.4664
  857MOL0     C15614   8.099   4.015   4.034  1.0390  0.2704 -0.1013
  857MOL0     C15615   8.178   4.433   3.820  0.3116  0.1326 -0.6615
  857MOL0     C15616   8.195   4.380   3.691 -0.4721 -0.0786 -0.5547
  857MOL0     C15617   8.243   4.465   3.590 -0.2505 -0.0795  0.2168
  857MOL0     C15618   8.280   4.598   3.614 -0.1886  0.2042  0.7533
  857MOL0     O15619   8.349   4.670   3.522  0.2551  0.1234  0.3397
  857MOL0     C15620   8.486   4.671   3.537  0.2027  0.4540  0.3119
  857MOL0     C15621   8.540   4.757   3.428  1.0715 -0.0836  0.2821
  857MOL0     C15622   8.689   4.799   3.440  0.3241  0.1210  0.3235
  857MOL0     C15623   8.744   4.906   3.343 -0.8679 -0.0075 -0.1107
  857MOL0     C15624   8.871   4.946   3.406  0.6840  0.4210  0.0001
  857MOL0     C15625   8.979   4.987   3.445  0.0858 -0.5344  0.2269
  857MOL0     C15626   8.256   4.654   3.742  0.4388 -0.4157 -0.0605
  857MOL0     C15627   8.201   4.570   3.839 -0.7519 -0.2931  0.3293
  857MOL0     H15628   7.870   4.260   3.979  1.3276  2.0723 -0.4893
  857MOL0     H15629   7.741   4.111   4.156  0.7573  0.7262  0.5117
  857MOL0     H15630   7.779   3.881   4.454 -2.1165 -2.0154 -0.7892
  857MOL0     H15631   7.801   4.054   4.396 -1.2184  1.0386 -0.2503
  857MOL0     H15632   7.577   4.021   4.438 -1.3707 -0.1282 -0.4489
  857MOL0     H15633   7.595   4.032   4.256  2.8944  0.8054  0.4063
  857MOL0     H15634   7.567   3.779   4.253 -0.8581 -1.3217  0.6329
  857MOL0     H15635   7.560   3.781   4.432 -4.8187 -1.7929  0.2669
  857MOL0     H15636   7.363   3.940   4.269  0.0627 -2.7024 -1.9418
  857MOL0     H15637   7.343   3.774   4.307  0.9182  0.3511 -1.3753
  857MOL0     H15638   7.357   3.839   4.564 -0.0283  2.3298  0.9197
  857MOL0     H15639   7.358   3.999   4.517  1.9515 -0.6654 -0.2332
  857MOL0     H15640   7.144   3.882   4.607 -1.2649 -1.2252  0.1425
  857MOL0     H15641   7.132   4.003   4.482  0.7187  0.7516 -3.0285
  857MOL0     H15642   6.986   3.802   4.462  0.7862  0.3069  4.0301
  857MOL0     H15643   7.088   3.801   4.325 -1.2509  2.5184  0.2701
  857MOL0     H15644   7.244   3.645   4.470 -0.0127  3.4646  1.2428
  857MOL0     H15645   7.102   3.578   4.388  0.7520  1.6682 -2.0972
  857MOL0     H15646   7.242   3.666   4.733  0.4827 -1.1560  0.6460
  857MOL0     H15647   6.952   3.619   4.995  0.5394 -3.3186  0.9505
  857MOL0     H15648   7.110   3.554   5.010  1.2968 -0.1379 -0.8906
  857MOL0     H15649   7.213   3.799   4.984  1.4705 -3.5149  2.1672
  857MOL0     H15650   7.107   3.777   5.113 -2.6161  0.8338 -0.0443
  857MOL0     H15651   7.023   3.872   4.828  2.6898  0.1435  0.5915
  857MOL0     H15652   7.064   3.988   4.942  1.2128  0.4506 -1.8194
  857MOL0     H15653   6.835   3.816   4.958  1.7974 -1.2184 -0.7055
  857MOL0     H15654   6.836   3.995   4.965 -0.0718 -1.1630 -0.5753
  857MOL0     H15655   6.632   3.839   5.031 -1.9763 -2.7513  0.0517
  857MOL0     H15656   6.317   3.832   5.193 -0.9530 -1.4227 -0.6591
  857MOL0     H15657   6.398   3.819   5.042  0.2009 -4.7085 -2.5804
  857MOL0     H15658   6.358   3.674   5.116 -0.3045 -0.1526  0.0216
  857MOL0     H15659   6.192   3.701   5.563  1.2883  1.0329 -1.7570
  857MOL0     H15660   5.990   3.563   5.662 -0.5024 -0.9686  0.7456
  857MOL0     H15661   6.078   3.251   5.767 -1.5592 -4.0787 -0.0643
  857MOL0     H15662   5.963   3.390   5.803  3.6077  0.8519 -0.8684
  857MOL0     H15663   5.942   3.091   5.770  2.1065 -0.8131  3.7973
  857MOL0     H15664   5.891   3.167   5.910  2.7742 -0.2304 -0.4317
  857MOL0     H15665   5.730   3.088   5.673  0.6296 -0.3450  0.0789
  857MOL0     H15666   5.722   3.264   5.675  0.2918 -0.1811 -1.1368
  857MOL0     H15667   5.554   3.125   5.786  2.4881 -1.6034 -2.2606
  857MOL0     H15668   5.661   3.090   5.916 -0.1513 -0.8424 -1.0916
  857MOL0     H15669   5.562   3.358   5.861 -0.4439  0.9513  1.2092
  857MOL0     H15670   5.709   3.317   5.966  1.3505 -0.4262 -1.7943
  857MOL0     H15671   5.432   3.207   5.998 -0.6951  3.3867 -0.7934
  857MOL0     H15672   5.580   3.165   6.105 -2.8387 -1.2169  0.6882
  857MOL0     H15673   5.566   3.435   6.135  2.2020 -1.2472 -0.5328
  857MOL0     H15674   5.469   3.320   6.223  1.9888  0.0821  0.7499
  857MOL0     H15675   5.386   3.446   5.947 -0.1653 -1.0370 -0.0856
  857MOL0     H15676   5.356   3.540   6.094 -0.9433  1.0133 -2.9621
  857MOL0     H15677   6.071   3.269   5.366  1.3706  0.2219 -1.4981
  857MOL0     H15678   6.270   3.410   5.268  2.3762  1.5831  0.7263
  857MOL0     H15679   6.691   3.728   5.512 -0.1145 -0.6635 -0.1909
  857MOL0     H15680   6.872   3.838   5.388 -2.0394  3.6958  0.8244
  857MOL0     H15681   8.058   3.841   4.157  1.5135  2.2006  0.6536
  857MOL0     H15682   8.200   3.989   4.003  1.4612  2.1338 -0.3659
  857MOL0     H15683   8.172   4.275   3.673 -0.5698 -0.1746  0.1020
  857MOL0     H15684   8.270   4.424   3.493  1.2261  2.6980 -0.6370
  857MOL0     H15685   8.506   4.710   3.637  1.9984 -0.6364  0.4203
  857MOL0     H15686   8.523   4.568   3.531  1.6478  1.0278 -2.1242
  857MOL0     H15687   8.476   4.845   3.435 -0.7909 -1.4539  1.2403
  857MOL0     H15688   8.528   4.711   3.329  2.5287 -2.5508  1.1789
  857MOL0     H15689   8.749   4.708   3.439 -0.7175 -0.5722 -0.9287
  857MOL0     H15690   8.698   4.838   3.542 -2.2171 -2.3379  1.6425
  857MOL0     H15691   8.674   4.990   3.338  1.8519  2.3700 -1.2952
  857MOL0     H15692   8.754   4.875   3.239  1.1840  0.5600 -0.1203
  857MOL0     H15693   9.062   5.039   3.489 -1.8722  2.3026  0.8144
  857MOL0     H15694   8.275   4.759   3.762  1.1295 -0.7965  1.3730
  857MOL0     H15695   8.182   4.622   3.932  0.9404 -0.8793  1.0407
  858MOL0     O15696   8.839   9.868   3.175  0.1779 -0.1799  0.3275
  858MOL0     C15697   8.858   9.922   3.279 -0.6818 -0.0079  0.0393
  858MOL0     O15698   8.984   9.938   3.338 -0.6535 -0.2574  0.3554
  858MOL0     C15699   9.107   9.885   3.296 -0.2296 -0.2171 -0.3306
  858MOL0     C15700   9.222   9.951   3.332 -0.6292  0.5443  0.7102
  858MOL0     C15701   9.357   9.915   3.288  0.2637 -0.0397  0.8938
  858MOL0     C15702   9.369   9.808   3.211 -0.1464 -0.0009  0.2190
  858MOL0     O15703   9.502   9.795   3.172  0.4898 -0.0723  0.4771
  858MOL0     C15704   9.521   9.670   3.101  0.6144 -0.2299 -0.0704
  858MOL0     C15705   9.660   9.671   3.042 -0.1631 -0.0340  0.5093
  858MOL0     C15706   9.767   9.679   3.151 -0.7608 -0.5105 -0.2266
  858MOL0     C15707   9.800   9.815   3.198  0.9506 -0.4840  0.1350
  858MOL0     C15708   9.910   9.830   3.300  0.0805  0.8080  0.1981
  858MOL0     C15709   9.889   9.760   3.450  0.2293  0.9965  0.2973
  858MOL0     C15710  10.000   9.812   3.551  0.3817  0.0698  0.7479
  858MOL0     C15711   9.976   9.767   3.698  0.4736  0.0895 -0.5342
  858MOL0     N15712  10.039   9.852   3.796  0.0930  0.1483 -0.1215
  858MOL0     C15713  10.154   9.930   3.771 -0.5541  0.8403 -0.5230
  858MOL0     C15714  10.182  10.006   3.883  0.8910 -0.4691  0.4681
  858MOL0     C15715  10.287  10.105   3.908 -0.0503  0.2237 -1.0003
  858MOL0     C15716  10.295  10.211   3.796  0.2889 -0.7040 -0.1254
  858MOL0     C15717  10.186  10.322   3.804 -0.7889  0.0688 -0.2929
  858MOL0     C15718  10.047  10.263   3.790 -0.8485 -0.8356  0.6425
  858MOL0     O15719   9.951  10.356   3.727 -0.7542  0.1614 -0.1006
  858MOL0     C15720   9.825  10.310   3.702  0.5355 -0.0774 -0.9544
  858MOL0     C15721   9.771  10.178   3.705  0.1951 -0.5550  0.5196
  858MOL0     C15722   9.634  10.163   3.661 -0.6291  1.5121 -0.0115
  858MOL0     C15723   9.591  10.016   3.641  0.2027  0.5111  0.1937
  858MOL0     C15724   9.544  10.270   3.662  0.7686  0.0631 -0.0329
  858MOL0     C15725   9.390  10.254   3.657 -0.3626 -0.3028  0.5090
  858MOL0     O15726   9.318  10.372   3.686  0.7229  0.2373  0.4642
  858MOL0     C15727   9.181  10.359   3.717 -0.4341  0.0160  0.5155
  858MOL0     C15728   9.132  10.263   3.801  0.6967  0.4868  0.3745
  858MOL0     C15729   8.998  10.261   3.832  0.4557 -0.2079  0.0565
  858MOL0     C15730   8.907  10.351   3.775 -0.3812 -0.4283 -0.2904
  858MOL0     O15731   8.772  10.368   3.803 -0.1465  0.3670 -0.1415
  858MOL0     C15732   8.724  10.322   3.933  0.3764 -0.2878 -0.8326
  858MOL0     C15733   8.588  10.380   3.966 -0.4114 -0.0858 -0.7553
  858MOL0     C15734   8.529  10.322   4.095  1.0489 -0.0232  0.1450
  858MOL0     C15735   8.389  10.385   4.099  0.8210 -0.3319 -0.4592
  858MOL0     C15736   8.331  10.332   4.233 -0.1395 -0.1698  0.8393
  858MOL0     C15737   8.187  10.367   4.240  0.5607  0.7861 -0.3601
  858MOL0     C15738   8.132  10.357   4.386  0.5920 -0.6393  0.7936
  858MOL0     C15739   7.977  10.365   4.388  0.2433 -0.0777 -0.1848
  858MOL0    Cl15740   7.894  10.504   4.313 -0.0477  0.0427  0.1852
  858MOL0     C15741   8.962  10.441   3.682  0.0931  0.4108  0.5563
  858MOL0     C15742   9.097  10.451   3.649  0.6410 -0.3874  0.1544
  858MOL0     O15743   9.337  10.147   3.626  0.1601  0.1041 -0.6787
  858MOL0     C15744   9.595  10.402   3.660 -0.2308  0.5815 -0.1352
  858MOL0     C15745   9.733  10.418   3.691  0.7400 -0.3949 -0.2353
  858MOL0     N15746  10.076   9.990   3.971 -0.5481 -1.1966  0.4925
  858MOL0     N15747   9.999   9.903   3.920  1.0958 -0.3256  1.2184
  858MOL0     C15748   9.252   9.725   3.177 -0.0731  0.0812 -0.3474
  858MOL0     C15749   9.124   9.770   3.208 -0.1760  0.7124  0.1799
  858MOL0     C15750   8.746   9.977   3.353  0.1716  0.4217 -0.4809
  858MOL0     C15751   8.768  10.090   3.439  0.2021  0.5564  0.9237
  858MOL0     C15752   8.667  10.146   3.519  0.6305  1.0248 -0.2558
  858MOL0     C15753   8.535  10.105   3.509 -0.4857 -0.4878  0.5779
  858MOL0     O15754   8.445  10.172   3.587  0.3335  0.9988 -0.4475
  858MOL0     C15755   8.304  10.144   3.570  0.4969 -0.0141  0.1658
  858MOL0     C15756   8.240  10.068   3.685 -0.6489  0.1639 -0.4875
  858MOL0     C15757   8.234  10.163   3.814  0.4084  0.5172  0.1292
  858MOL0     C15758   8.154  10.092   3.926  0.6445 -0.5675 -0.3958
  858MOL0     C15759   8.244  10.023   4.017  0.0256 -0.6299 -0.1554
  858MOL0     C15760   8.302   9.953   4.095 -0.1130 -0.4562  0.1843
  858MOL0     C15761   8.517   9.987   3.436 -0.2088 -0.0621  0.2254
  858MOL0     C15762   8.611   9.938   3.346  0.4075  0.3601  0.5841
  858MOL0     H15763   9.198  10.030   3.403 -1.1632 -0.9096  2.2173
  858MOL0     H15764   9.447   9.974   3.300 -0.3913  1.5071 -1.1101
  858MOL0     H15765   9.512   9.580   3.162 -1.6364  1.2805  2.0343
  858MOL0     H15766   9.464   9.659   3.008 -0.8064  3.6498  0.1562
  858MOL0     H15767   9.685   9.578   2.988  2.4558  2.3740 -2.8778
  858MOL0     H15768   9.676   9.753   2.972  0.0679  1.1657  1.9212
  858MOL0     H15769   9.733   9.617   3.234  3.9427  1.5569  3.8114
  858MOL0     H15770   9.855   9.626   3.112  0.2571  0.0492  1.2349
  858MOL0     H15771   9.836   9.867   3.109 -0.0062  1.4554  0.8386
  858MOL0     H15772   9.723   9.882   3.237  1.6743  0.5615 -0.2090
  858MOL0     H15773  10.000   9.784   3.259 -1.2636 -2.1519  0.3443
  858MOL0     H15774   9.931   9.937   3.310 -1.7451  1.3864 -1.7356
  858MOL0     H15775   9.790   9.792   3.484  0.2695 -0.3753  1.8652
  858MOL0     H15776   9.896   9.651   3.443  4.3475  0.9628  1.9171
  858MOL0     H15777  10.092   9.780   3.503 -1.0192 -2.3908 -0.4968
  858MOL0     H15778   9.993   9.921   3.541  1.3425  0.0001 -0.9886
  858MOL0     H15779  10.017   9.666   3.709  0.5570 -0.1156 -2.4030
  858MOL0     H15780   9.869   9.753   3.716  0.8278 -0.6328  1.3181
  858MOL0     H15781  10.217   9.916   3.683 -1.8828 -0.9913 -1.2429
  858MOL0     H15782  10.273  10.157   4.004  0.4337 -0.4758 -0.5397
  858MOL0     H15783  10.384  10.055   3.920 -0.3537  0.2199  3.1304
  858MOL0     H15784  10.299  10.165   3.697  1.7064  1.5844 -1.2352
  858MOL0     H15785  10.387  10.267   3.817 -0.4224 -0.6383  3.3963
  858MOL0     H15786  10.202  10.399   3.729 -0.7756 -1.9676 -2.4993
  858MOL0     H15787  10.207  10.381   3.894 -1.3866  0.2591 -0.2806
  858MOL0     H15788  10.007  10.226   3.885  0.6246  0.5019  1.8483
  858MOL0     H15789  10.055  10.181   3.718 -0.6492  0.7003 -1.1328
  858MOL0     H15790   9.828  10.089   3.728 -0.5649 -1.4950 -1.0565
  858MOL0     H15791   9.529   9.977   3.723 -1.2536 -0.0941 -1.1448
  858MOL0     H15792   9.532  10.005   3.550 -0.1908 -1.3473  0.6193
  858MOL0     H15793   9.675   9.947   3.632 -0.1433  0.0836  0.2067
  858MOL0     H15794   9.205  10.197   3.846 -0.9987 -2.1601 -0.5238
  858MOL0     H15795   8.960  10.175   3.886  0.0098 -0.2788 -0.3689
  858MOL0     H15796   8.724  10.213   3.929  1.0206 -0.3459  0.2419
  858MOL0     H15797   8.791  10.351   4.015 -0.6362  2.0459 -0.7466
  858MOL0     H15798   8.596  10.489   3.975 -0.1019  0.1610 -3.4150
  858MOL0     H15799   8.522  10.349   3.885 -0.6128 -1.1851 -0.1960
  858MOL0     H15800   8.580  10.359   4.184  0.3403 -2.6522  1.7505
  858MOL0     H15801   8.520  10.213   4.094 -3.8969  0.1277 -0.5210
  858MOL0     H15802   8.392  10.494   4.097  1.5690 -0.3566 -1.6241
  858MOL0     H15803   8.315  10.358   4.023 -0.1715  1.4960 -0.2058
  858MOL0     H15804   8.390  10.382   4.311 -0.0950  0.2435  0.5438
  858MOL0     H15805   8.347  10.224   4.235  1.5968  0.0609  1.5167
  858MOL0     H15806   8.176  10.468   4.201 -1.6156  0.5831 -0.3802
  858MOL0     H15807   8.127  10.307   4.171  1.2221 -0.2784 -0.0352
  858MOL0     H15808   8.182  10.433   4.447  0.7304 -0.2320  0.1887
  858MOL0     H15809   8.158  10.261   4.432  0.7228 -0.5559  0.8963
  858MOL0     H15810   7.948  10.362   4.493 -1.5134  0.4517 -0.6123
  858MOL0     H15811   7.946  10.273   4.335 -0.7566 -0.4611  1.0206
  858MOL0     H15812   8.912  10.523   3.632 -1.3648  1.2487  3.1813
  858MOL0     H15813   9.123  10.533   3.583  0.2666  0.4322  0.9993
  858MOL0     H15814   9.522  10.478   3.635 -1.4785 -0.1259  1.1910
  858MOL0     H15815   9.784  10.514   3.685  0.5412 -0.1974  0.9710
  858MOL0     H15816   9.245   9.632   3.122 -3.5979  1.4864 -2.6455
  858MOL0     H15817   9.051   9.702   3.166  1.0958  0.7666 -2.2946
  858MOL0     H15818   8.870  10.127   3.435 -0.0187  1.1031  0.1596
  858MOL0     H15819   8.683  10.220   3.596 -1.3419 -1.7262  3.0938
  858MOL0     H15820   8.252  10.237   3.542 -2.7877 -1.8102 -0.2802
  858MOL0     H15821   8.286  10.076   3.486  1.7259 -2.0110  1.4538
  858MOL0     H15822   8.302   9.980   3.707  0.2173  1.2704  1.8953
  858MOL0     H15823   8.140  10.044   3.648 -0.9426  1.7281 -0.7943
  858MOL0     H15824   8.190  10.258   3.780 -0.4052  0.5171  1.1547
  858MOL0     H15825   8.334  10.179   3.854  0.6500 -2.1789  0.7307
  858MOL0     H15826   8.075  10.027   3.889  0.2429  0.0329 -0.6113
  858MOL0     H15827   8.103  10.167   3.988 -0.7909 -2.1781  0.4508
  858MOL0     H15828   8.347   9.884   4.165  2.1211 -0.1616 -0.8859
  858MOL0     H15829   8.422   9.934   3.430 -0.4471  0.4342 -0.4769
  858MOL0     H15830   8.576   9.856   3.284 -3.0921  2.4112 -0.3846
  859MOL0     O15831   6.904   5.892   9.852 -0.0026  0.3183  0.0460
  859MOL0     C15832   6.943   5.995   9.803 -1.0622  1.0228  0.5392
  859MOL0     O15833   6.873   6.112   9.813 -0.1007  0.8597  0.7387
  859MOL0     C15834   6.766   6.104   9.890  0.6866 -0.5701 -0.2470
  859MOL0     C15835   6.656   6.041   9.842 -0.1135 -0.2700  0.5816
  859MOL0     C15836   6.534   6.047   9.909 -0.3300 -0.0336  0.0384
  859MOL0     C15837   6.522   6.111  10.036  0.4223  0.4830 -1.2640
  859MOL0     O15838   6.419   6.106  10.126 -0.0987 -0.2655  0.6243
  859MOL0     C15839   6.293   6.063  10.066 -0.1241 -0.1257 -0.4308
  859MOL0     C15840   6.197   6.057  10.189 -0.9550  0.5364 -0.4157
  859MOL0     C15841   6.069   5.997  10.146  0.5758 -0.0288  0.5928
  859MOL0     C15842   5.967   5.989  10.261 -0.5600  0.0228  1.6921
  859MOL0     C15843   5.996   5.875  10.360  0.3091  0.1645 -0.0564
  859MOL0     C15844   5.882   5.877  10.472  0.2583 -0.2188 -0.4001
  859MOL0     C15845   5.822   5.738  10.478 -0.3168  0.1809  0.6810
  859MOL0     C15846   5.911   5.637  10.539  1.0915 -0.3246  0.1235
  859MOL0     N15847   5.828   5.520  10.582 -0.0241  0.3049  1.2316
  859MOL0     C15848   5.767   5.497  10.704 -0.4781 -0.3522 -0.6570
  859MOL0     C15849   5.686   5.388  10.682 -0.2369  0.1548  0.2670
  859MOL0     C15850   5.606   5.318  10.789  0.6237  0.8973  0.0146
  859MOL0     C15851   5.704   5.294  10.909  0.1795 -1.0395 -0.0413
  859MOL0     C15852   5.631   5.189  10.992 -0.1859 -0.0672 -0.5450
  859MOL0     C15853   5.724   5.138  11.098 -0.8170 -0.1851  0.4462
  859MOL0     O15854   5.656   5.094  11.213 -0.2838 -0.3607  0.0522
  859MOL0     C15855   5.583   4.980  11.192  0.3136  0.4493 -0.3485
  859MOL0     C15856   5.625   4.870  11.115  0.1794 -0.2591 -0.1856
  859MOL0     C15857   5.544   4.756  11.108 -0.0945 -0.9033 -0.0605
  859MOL0     C15858   5.609   4.637  11.052  0.1453  0.0109  0.2687
  859MOL0     C15859   5.419   4.749  11.168  0.2478 -0.0224  0.2446
  859MOL0     C15860   5.322   4.632  11.171 -0.0700  0.1453 -0.3249
  859MOL0     O15861   5.190   4.649  11.219  0.1122  0.9230 -1.0401
  859MOL0     C15862   5.095   4.550  11.220  0.7207  0.1892  0.2227
  859MOL0     C15863   4.983   4.557  11.129 -0.3681 -0.1544 -0.3539
  859MOL0     C15864   4.877   4.465  11.142  0.9106  0.4338  0.3569
  859MOL0     C15865   4.872   4.358  11.229  0.5279  0.4654  1.3106
  859MOL0     O15866   4.760   4.281  11.238  0.5185 -0.3773  0.2920
  859MOL0     C15867   4.704   4.249  11.367  0.4490 -0.1859 -0.0962
  859MOL0     C15868   4.591   4.141  11.352  0.1333 -0.2519 -0.7741
  859MOL0     C15869   4.548   4.113  11.493  0.0551 -0.4467  0.4734
  859MOL0     C15870   4.402   4.075  11.487  0.3708 -0.3871  0.0130
  859MOL0     C15871   4.333   4.009  11.610 -0.0844  0.3970  0.3186
  859MOL0     C15872   4.183   4.011  11.582 -0.6541  0.1990 -0.7615
  859MOL0     C15873   4.078   3.936  11.673 -0.5726  0.5008  0.6476
  859MOL0     C15874   3.933   3.967  11.634  0.8970 -0.3973 -0.3280
  859MOL0    Cl15875   3.830   3.868  11.738  0.2231  0.1312  0.2480
  859MOL0     C15876   4.980   4.351  11.321  0.1784 -0.7215 -0.0486
  859MOL0     C15877   5.092   4.443  11.317  0.2410 -0.5340 -1.0085
  859MOL0     O15878   5.360   4.526  11.117  0.2097  0.6335 -0.0125
  859MOL0     C15879   5.381   4.861  11.247 -0.3862  0.1987  0.2910
  859MOL0     C15880   5.464   4.976  11.258 -0.2955 -1.5867 -0.1588
  859MOL0     N15881   5.692   5.355  10.551 -0.0655  0.4763 -0.6951
  859MOL0     N15882   5.766   5.442  10.494 -0.2441 -0.2600 -0.0302
  859MOL0     C15883   6.628   6.168  10.087 -0.9331 -0.8240  0.5735
  859MOL0     C15884   6.753   6.174  10.008  0.0917 -0.0477 -0.6278
  859MOL0     C15885   7.080   6.011   9.744  0.0489  0.1391 -0.4608
  859MOL0     C15886   7.156   5.894   9.709  1.0405 -0.3327 -0.0530
  859MOL0     C15887   7.280   5.912   9.658  0.1704  0.6268  0.2132
  859MOL0     C15888   7.347   6.032   9.641  0.3497 -0.2840 -0.3259
  859MOL0     O15889   7.482   6.020   9.593 -0.5622  0.2665  0.1116
  859MOL0     C15890   7.568   6.132   9.630  1.0557  0.8052 -0.2113
  859MOL0     C15891   7.645   6.066   9.752  0.4305 -0.1478  0.5834
  859MOL0     C15892   7.773   6.136   9.780  1.1882 -0.1582 -0.3654
  859MOL0     C15893   7.752   6.271   9.855 -0.0727 -0.6408  0.7115
  859MOL0     C15894   7.883   6.329   9.903  0.3215 -0.3631  1.1007
  859MOL0     C15895   7.989   6.384   9.944 -0.0452 -0.1489  0.1410
  859MOL0     C15896   7.273   6.153   9.663 -0.2021  0.3111  0.3522
  859MOL0     C15897   7.145   6.136   9.720  0.4418 -0.8544 -0.1385
  859MOL0     H15898   6.660   5.977   9.755 -0.6504  1.4523 -0.7818
  859MOL0     H15899   6.450   5.989   9.872 -0.0911  1.8704 -3.9396
  859MOL0     H15900   6.261   6.136   9.991  1.3232  2.9703  1.7604
  859MOL0     H15901   6.302   5.960  10.031 -1.6388 -0.1826 -0.7072
  859MOL0     H15902   6.249   5.998  10.265  0.3729 -1.7407 -2.9268
  859MOL0     H15903   6.189   6.159  10.228 -0.3872  0.3155  0.3038
  859MOL0     H15904   6.031   6.062  10.066  1.7414 -0.2294 -0.1510
  859MOL0     H15905   6.083   5.895  10.107 -3.3715  0.0878 -1.6389
  859MOL0     H15906   5.974   6.084  10.314  1.3267  0.4039  0.8270
  859MOL0     H15907   5.863   5.980  10.230 -0.1885  0.2746  0.3139
  859MOL0     H15908   5.992   5.781  10.305 -2.6623 -0.4090  0.9341
  859MOL0     H15909   6.093   5.888  10.410  0.3300 -1.1301  0.2708
  859MOL0     H15910   5.925   5.898  10.570 -0.6648 -1.3245  0.2605
  859MOL0     H15911   5.808   5.956  10.456 -1.4149 -1.2235  1.8900
  859MOL0     H15912   5.729   5.741  10.536 -1.1301 -1.9416 -0.4275
  859MOL0     H15913   5.785   5.697  10.384 -1.5936 -2.8604  2.3659
  859MOL0     H15914   5.960   5.676  10.628  1.3263 -0.9938  0.2935
  859MOL0     H15915   5.992   5.620  10.468 -0.8610 -0.1475 -2.2832
  859MOL0     H15916   5.785   5.536  10.804 -2.3599  0.5668 -0.6336
  859MOL0     H15917   5.524   5.378  10.830  0.3719  0.7989 -0.3504
  859MOL0     H15918   5.573   5.221  10.751  2.6359  0.2686 -0.2386
  859MOL0     H15919   5.724   5.384  10.968 -0.5149 -0.0846 -1.2181
  859MOL0     H15920   5.799   5.256  10.870  1.8655  1.2082  1.6124
  859MOL0     H15921   5.606   5.097  10.940  2.0154 -1.1351  0.1385
  859MOL0     H15922   5.547   5.239  11.040  1.1517  1.8351 -0.0251
  859MOL0     H15923   5.800   5.215  11.110 -0.2398 -0.1143 -2.8255
  859MOL0     H15924   5.786   5.056  11.062 -1.7488 -0.8332  0.2599
  859MOL0     H15925   5.725   4.864  11.074  1.4262 -1.1041  2.6966
  859MOL0     H15926   5.713   4.652  11.024  0.0685  1.9569  0.8606
  859MOL0     H15927   5.603   4.568  11.137  0.0719 -2.5599 -1.7174
  859MOL0     H15928   5.564   4.601  10.959  1.4301 -1.2578  0.1090
  859MOL0     H15929   4.972   4.642  11.062 -0.0046  1.0305  1.0308
  859MOL0     H15930   4.788   4.478  11.081  0.2601 -0.9330  0.9586
  859MOL0     H15931   4.785   4.209  11.428  0.0517  1.8288  1.9391
  859MOL0     H15932   4.660   4.342  11.405 -3.3550 -0.5945 -2.9156
  859MOL0     H15933   4.507   4.185  11.298  1.2167  0.4767 -1.9004
  859MOL0     H15934   4.640   4.061  11.296  1.7656  0.1124  0.0695
  859MOL0     H15935   4.552   4.207  11.549  0.2819 -0.3497  0.2948
  859MOL0     H15936   4.618   4.042  11.537  2.4765 -0.3722 -2.8881
  859MOL0     H15937   4.345   4.168  11.476  0.3287 -0.3053  0.8464
  859MOL0     H15938   4.385   4.000  11.410 -0.6011  0.2385 -0.3946
  859MOL0     H15939   4.349   4.049  11.710  0.6111  1.7911 -0.3213
  859MOL0     H15940   4.355   3.903  11.602 -0.8097  0.3136 -1.0570
  859MOL0     H15941   4.153   4.115  11.563  0.6988  1.4017  2.8774
  859MOL0     H15942   4.181   3.947  11.493 -0.2645 -3.4899  1.6823
  859MOL0     H15943   4.086   3.968  11.777  0.5546  2.4773  0.0018
  859MOL0     H15944   4.103   3.830  11.664  0.7955  0.9545 -1.6028
  859MOL0     H15945   3.910   3.937  11.531  3.1096 -1.4823 -0.5731
  859MOL0     H15946   3.922   4.074  11.651 -1.5106 -0.9676  2.5565
  859MOL0     H15947   4.997   4.285  11.405  1.4064 -0.3852 -0.0150
  859MOL0     H15948   5.175   4.432  11.386  0.7926  0.7740 -1.4252
  859MOL0     H15949   5.287   4.844  11.298 -1.0560 -3.5842 -1.7546
  859MOL0     H15950   5.430   5.057  11.322  0.8331 -0.2433 -1.2065
  859MOL0     H15951   6.627   6.213  10.186 -2.2116 -1.4604  0.8720
  859MOL0     H15952   6.834   6.234  10.049 -2.4334  1.0894  3.2586
  859MOL0     H15953   7.108   5.799   9.730 -1.3826  1.0719  1.2261
  859MOL0     H15954   7.333   5.825   9.620 -0.3834  0.5422 -0.3840
  859MOL0     H15955   7.634   6.139   9.544 -0.1192  1.6315 -1.0758
  859MOL0     H15956   7.524   6.226   9.664 -1.0672 -0.2157  0.0724
  859MOL0     H15957   7.668   5.966   9.715 -1.8490 -0.1047 -1.2297
  859MOL0     H15958   7.580   6.067   9.840  1.7515  1.2152  1.6141
  859MOL0     H15959   7.840   6.145   9.694  0.7402 -1.2783 -0.8530
  859MOL0     H15960   7.821   6.066   9.849 -2.3737 -3.7433 -1.1317
  859MOL0     H15961   7.678   6.267   9.935 -0.3837 -1.2358  0.4059
  859MOL0     H15962   7.716   6.340   9.778 -0.9638 -3.4291 -1.5280
  859MOL0     H15963   8.074   6.439   9.979 -0.1711  1.5878 -2.0567
  859MOL0     H15964   7.309   6.252   9.636  0.9691 -0.1985 -0.0322
  859MOL0     H15965   7.095   6.226   9.754 -0.9167 -2.8234  3.6557
  860MOL0     O15966   1.431  11.150   4.213  0.1604  0.0258  0.0126
  860MOL0     C15967   1.556  11.144   4.217  0.3150  0.0535  0.1455
  860MOL0     O15968   1.636  11.031   4.195 -0.2294 -0.1236  0.1830
  860MOL0     C15969   1.579  10.916   4.152  0.6061  0.6085  0.0925
  860MOL0     C15970   1.642  10.846   4.046  0.4577  0.5490  0.5062
  860MOL0     C15971   1.570  10.745   3.976  0.7526  0.0383 -1.3404
  860MOL0     C15972   1.442  10.704   4.026 -0.0687  0.4066 -1.4563
  860MOL0     O15973   1.383  10.594   3.965 -0.6175 -0.6658  0.1431
  860MOL0     C15974   1.237  10.569   3.962 -0.1367  0.0375 -0.4566
  860MOL0     C15975   1.150  10.674   3.880 -0.4166 -0.5221 -0.9074
  860MOL0     C15976   1.209  10.689   3.743 -0.0258  0.1572  0.9080
  860MOL0     C15977   1.194  10.554   3.673 -0.0023  0.1054  0.3559
  860MOL0     C15978   1.256  10.560   3.528  0.6217  0.0470  0.0218
  860MOL0     C15979   1.181  10.637   3.435  0.4679 -0.4647  0.0001
  860MOL0     C15980   1.230  10.623   3.290  0.0272  0.2630  0.7948
  860MOL0     C15981   1.376  10.657   3.249 -0.0981 -0.7396 -0.6596
  860MOL0     N15982   1.422  10.787   3.300 -0.1744 -0.3220 -0.2901
  860MOL0     C15983   1.488  10.806   3.422 -0.1708 -0.4418  0.7234
  860MOL0     C15984   1.484  10.942   3.436 -0.1940 -1.3598  0.0826
  860MOL0     C15985   1.535  11.026   3.552  0.1421 -0.2813 -0.4268
  860MOL0     C15986   1.490  10.956   3.688  0.0011 -0.2707  0.6617
  860MOL0     C15987   1.467  11.038   3.814  0.5147  0.3101  0.0700
  860MOL0     C15988   1.395  11.168   3.803  0.5539 -0.2936 -0.5795
  860MOL0     O15989   1.478  11.275   3.768  0.3674  0.0102 -0.5947
  860MOL0     C15990   1.421  11.397   3.752  0.2924 -0.1511 -0.4701
  860MOL0     C15991   1.400  11.474   3.864 -0.6656  0.1005  0.0825
  860MOL0     C15992   1.337  11.601   3.861 -0.6927  0.8258 -0.5000
  860MOL0     C15993   1.301  11.666   3.988 -0.8106  0.0896 -0.0621
  860MOL0     C15994   1.314  11.639   3.726 -0.7222 -0.0224  0.8253
  860MOL0     C15995   1.263  11.781   3.711  0.2615 -0.4112 -0.1465
  860MOL0     O15996   1.261  11.826   3.583  0.5690  0.1429  0.0166
  860MOL0     C15997   1.172  11.915   3.534  1.3215  0.0214  0.1691
  860MOL0     C15998   1.057  11.965   3.611  0.2393 -0.3635  0.8003
  860MOL0     C15999   0.975  12.057   3.540  0.2248 -0.0110  0.2987
  860MOL0     C16000   1.002  12.102   3.407  0.0730 -0.2662 -0.9020
  860MOL0     O16001   0.912  12.186   3.345  0.1088  0.3957  0.2453
  860MOL0     C16002   0.975  12.307   3.307  0.6647 -0.1451  0.2281
  860MOL0     C16003   0.879  12.421   3.322 -0.3175  0.1967 -0.2593
  860MOL0     C16004   0.811  12.432   3.460  0.5594 -0.1754  0.3883
  860MOL0     C16005   0.721  12.561   3.445  0.5608  0.1719 -0.4774
  860MOL0     C16006   0.625  12.581   3.565  0.2322  0.3398  0.7295
  860MOL0     C16007   0.684  12.552   3.704  0.2380  0.1617 -0.2182
  860MOL0     C16008   0.605  12.602   3.827  0.2338 -0.2210 -0.7017
  860MOL0     C16009   0.685  12.598   3.965 -0.1609  0.4025  0.1333
  860MOL0    Cl16010   0.589  12.685   4.086  0.2289 -0.2714 -0.4861
  860MOL0     C16011   1.106  12.047   3.340 -0.3290  0.0865 -0.6082
  860MOL0     C16012   1.187  11.942   3.399 -0.0279  0.7132 -0.9919
  860MOL0     O16013   1.231  11.848   3.811  0.4786  0.3813  0.6139
  860MOL0     C16014   1.345  11.563   3.618  0.2894  0.6253  0.4643
  860MOL0     C16015   1.394  11.440   3.628 -0.8104 -0.2028  0.6740
  860MOL0     N16016   1.431  11.006   3.328 -0.7667 -0.2544 -0.4136
  860MOL0     N16017   1.385  10.913   3.256 -0.1861 -0.6808  0.6958
  860MOL0     C16018   1.382  10.769   4.128 -0.0809 -0.4206  0.6718
  860MOL0     C16019   1.460  10.873   4.189  0.7354  0.0430 -0.2826
  860MOL0     C16020   1.641  11.269   4.244  0.0685  0.1039 -0.6025
  860MOL0     C16021   1.772  11.264   4.293 -0.0581  0.0382  0.1819
  860MOL0     C16022   1.839  11.385   4.319  0.0782  0.0926 -0.4685
  860MOL0     C16023   1.774  11.509   4.297 -0.0212 -0.7242  0.8980
  860MOL0     O16024   1.829  11.632   4.312 -0.5628  0.3498  0.0801
  860MOL0     C16025   1.950  11.658   4.395 -0.0878  0.6388  0.3415
  860MOL0     C16026   1.926  11.597   4.540 -0.3335 -0.7549 -0.7113
  860MOL0     C16027   1.996  11.673   4.642 -0.0301  0.6983 -0.0011
  860MOL0     C16028   1.975  11.635   4.789 -0.0284  0.6503 -0.4443
  860MOL0     C16029   1.858  11.708   4.851 -0.1995  0.3980  0.4139
  860MOL0     C16030   1.765  11.761   4.897 -0.2754 -0.0963  0.3987
  860MOL0     C16031   1.641  11.510   4.256  0.2073  0.8944  0.7939
  860MOL0     C16032   1.583  11.389   4.215 -0.3144  0.0270  0.4491
  860MOL0     H16033   1.743  10.871   4.017  0.3010  1.3342  0.6036
  860MOL0     H16034   1.614  10.674   3.907  0.3139 -0.7916 -0.7854
  860MOL0     H16035   1.218  10.468   3.927 -0.2565 -0.2706  0.4796
  860MOL0     H16036   1.207  10.566   4.067 -2.2898  0.9188 -1.0063
  860MOL0     H16037   1.049  10.635   3.894 -0.0312 -1.0901  0.5506
  860MOL0     H16038   1.144  10.776   3.919  0.7917 -0.6977 -0.1946
  860MOL0     H16039   1.161  10.770   3.688 -0.5523  0.6979  2.1109
  860MOL0     H16040   1.311  10.728   3.743 -0.7600  2.4037  3.0548
  860MOL0     H16041   1.238  10.468   3.725  0.8938 -1.4949 -2.8256
  860MOL0     H16042   1.087  10.530   3.672  0.6595 -3.5316  0.9914
  860MOL0     H16043   1.351  10.614   3.532 -0.4376  2.0021 -0.4721
  860MOL0     H16044   1.270  10.460   3.483  0.3820 -0.8282  1.8102
  860MOL0     H16045   1.078  10.601   3.432  0.6811 -1.0350 -0.7967
  860MOL0     H16046   1.177  10.746   3.447  2.1950 -0.1053 -2.1319
  860MOL0     H16047   1.213  10.522   3.250 -1.8683  0.9191 -0.2002
  860MOL0     H16048   1.158  10.682   3.233 -2.8034 -2.8028  0.9083
  860MOL0     H16049   1.390  10.664   3.141 -0.9216  0.0415 -0.7298
  860MOL0     H16050   1.445  10.588   3.298  2.9279  3.7027  2.1247
  860MOL0     H16051   1.527  10.735   3.494  0.0028  1.2529  2.3928
  860MOL0     H16052   1.641  11.047   3.542 -0.1921  0.1662 -4.8800
  860MOL0     H16053   1.470  11.114   3.545  0.3315 -0.2602 -2.4172
  860MOL0     H16054   1.549  10.867   3.709 -4.2114 -3.3642  0.7624
  860MOL0     H16055   1.394  10.908   3.665  0.5393 -1.0959  0.1021
  860MOL0     H16056   1.561  11.057   3.867  0.2339  1.8218  0.0819
  860MOL0     H16057   1.398  10.972   3.867 -0.8812 -0.4372 -2.5354
  860MOL0     H16058   1.345  11.182   3.899  0.2944 -0.7697 -0.6451
  860MOL0     H16059   1.322  11.150   3.723 -0.4644 -3.0143  0.8347
  860MOL0     H16060   1.428  11.423   3.956  0.3921  0.4170 -0.0544
  860MOL0     H16061   1.194  11.688   3.996 -0.4599  1.1831  3.9579
  860MOL0     H16062   1.331  11.606   4.074 -1.8887  0.1036  0.3411
  860MOL0     H16063   1.360  11.757   3.999 -0.9851  0.2252 -0.2382
  860MOL0     H16064   1.034  11.940   3.714  0.4066 -1.1092  0.6628
  860MOL0     H16065   0.888  12.096   3.592 -0.1355 -0.0751 -0.2410
  860MOL0     H16066   1.065  12.323   3.367  1.3684 -0.9877 -0.5714
  860MOL0     H16067   1.014  12.299   3.205 -1.5901 -0.9125 -0.6387
  860MOL0     H16068   0.941  12.511   3.315  3.0708 -1.5455  3.2806
  860MOL0     H16069   0.800  12.414   3.246 -0.0886  0.6908 -0.5518
  860MOL0     H16070   0.885  12.434   3.540  1.5504 -2.0220 -0.4197
  860MOL0     H16071   0.737  12.351   3.456  1.0455 -0.5922 -1.8790
  860MOL0     H16072   0.792  12.644   3.446 -0.5994  1.1762 -0.5068
  860MOL0     H16073   0.669  12.548   3.349 -2.8337  0.5559  1.1818
  860MOL0     H16074   0.533  12.522   3.563 -0.1442  0.7868  2.7069
  860MOL0     H16075   0.592  12.685   3.560 -0.4299  0.1086 -2.9013
  860MOL0     H16076   0.713  12.447   3.710  0.4851  0.1614 -1.2341
  860MOL0     H16077   0.782  12.599   3.702 -0.1939  1.0720 -0.7763
  860MOL0     H16078   0.514  12.541   3.829 -0.9508  1.3447 -3.2058
  860MOL0     H16079   0.569  12.705   3.826  1.9365  0.5865  2.9405
  860MOL0     H16080   0.784  12.638   3.940 -0.3853  0.8672 -0.0315
  860MOL0     H16081   0.694  12.491   3.983  0.6235  0.2820 -0.8752
  860MOL0     H16082   1.138  12.077   3.240 -0.7486  0.6229 -0.5896
  860MOL0     H16083   1.280  11.913   3.351 -1.6391 -2.5553 -2.3845
  860MOL0     H16084   1.323  11.606   3.521  0.3072 -0.9729 -0.2823
  860MOL0     H16085   1.411  11.376   3.542  3.8037  0.1093  1.1386
  860MOL0     H16086   1.280  10.748   4.157 -0.3063 -1.8562 -1.0137
  860MOL0     H16087   1.422  10.924   4.277 -1.2924  2.3933 -2.3489
  860MOL0     H16088   1.825  11.173   4.316 -0.5286  0.0401  1.3480
  860MOL0     H16089   1.947  11.387   4.334  0.1057  1.2124 -0.7310
  860MOL0     H16090   2.042  11.609   4.362 -1.3121 -1.6513  0.1778
  860MOL0     H16091   1.958  11.767   4.393 -0.3170  0.6465 -0.4488
  860MOL0     H16092   1.966  11.496   4.555 -2.1495 -1.5073 -0.6848
  860MOL0     H16093   1.821  11.595   4.570  0.0537 -1.3588  0.6628
  860MOL0     H16094   1.961  11.776   4.631 -0.7089  0.2378 -3.0730
  860MOL0     H16095   2.103  11.665   4.618 -0.1534  0.3505 -0.4454
  860MOL0     H16096   2.065  11.666   4.843 -0.1560  1.8958 -0.9148
  860MOL0     H16097   1.948  11.530   4.801 -0.2887  0.8132  0.4834
  860MOL0     H16098   1.680  11.793   4.954  2.2389  1.2885  3.7153
  860MOL0     H16099   1.583  11.598   4.229 -2.0440 -0.7298  0.0362
  860MOL0     H16100   1.488  11.388   4.162  0.8053  2.1537 -1.8215
  861MOL0     O16101   8.892   9.696   4.196 -0.4496 -0.2189  0.1257
  861MOL0     C16102   8.938   9.801   4.224  0.2413 -1.2753 -0.9387
  861MOL0     O16103   8.876   9.907   4.281 -0.3257  0.0684 -0.2339
  861MOL0     C16104   8.746   9.894   4.324  1.4566  0.7428  0.3532
  861MOL0     C16105   8.687  10.013   4.342  0.4980  0.2178 -0.2890
  861MOL0     C16106   8.560  10.016   4.386 -0.3250  0.0938 -0.3826
  861MOL0     C16107   8.479   9.900   4.405  0.6708  0.0675 -0.4273
  861MOL0     O16108   8.349   9.891   4.440 -0.8701 -0.5123  0.3086
  861MOL0     C16109   8.287  10.016   4.485 -0.2193 -0.1922  0.1069
  861MOL0     C16110   8.147   9.979   4.548 -0.4777 -0.2348  0.3683
  861MOL0     C16111   8.043   9.960   4.436  0.7877 -0.7716  1.1324
  861MOL0     C16112   7.927   9.880   4.503 -0.3934 -0.1790  0.1586
  861MOL0     C16113   7.874   9.948   4.630  0.3856 -0.0681 -0.0517
  861MOL0     C16114   7.747   9.887   4.674 -0.5070  0.2753 -0.5756
  861MOL0     C16115   7.765   9.740   4.722  0.4382 -0.0586 -0.0332
  861MOL0     C16116   7.632   9.674   4.760  0.3851 -0.0176  0.0280
  861MOL0     N16117   7.572   9.611   4.640  0.1619  0.0379  0.2964
  861MOL0     C16118   7.625   9.498   4.580  0.1436 -0.4201  0.9737
  861MOL0     C16119   7.543   9.487   4.471  0.2034 -0.4760 -0.2113
  861MOL0     C16120   7.556   9.397   4.356 -0.5600  0.8086  0.6755
  861MOL0     C16121   7.483   9.268   4.381  0.0585 -0.2450 -0.8126
  861MOL0     C16122   7.371   9.251   4.267 -0.3613 -0.8837 -0.0341
  861MOL0     C16123   7.247   9.345   4.289  0.5364 -0.2231  0.3758
  861MOL0     O16124   7.151   9.326   4.186  0.7786  0.1090 -0.3189
  861MOL0     C16125   7.154   9.420   4.083 -0.3594 -0.5601  0.3652
  861MOL0     C16126   7.048   9.424   3.989 -0.5409  0.8412  0.4911
  861MOL0     C16127   7.046   9.515   3.885 -0.0840 -0.3412 -0.0973
  861MOL0     C16128   6.927   9.509   3.788 -0.2965 -0.8650  0.4868
  861MOL0     C16129   7.154   9.614   3.875  0.8467  0.2984  0.1442
  861MOL0     C16130   7.147   9.726   3.773  0.2664  0.2176 -0.5287
  861MOL0     O16131   7.031   9.757   3.700 -0.7704 -0.3172 -0.1083
  861MOL0     C16132   7.039   9.846   3.592  0.2144  0.8468 -0.2475
  861MOL0     C16133   6.999   9.790   3.467 -0.1569  0.7415 -0.8012
  861MOL0     C16134   6.987   9.880   3.363 -0.5271  0.0381  0.6974
  861MOL0     C16135   7.013  10.014   3.380 -0.4643 -0.4482 -0.3669
  861MOL0     O16136   7.012  10.109   3.277 -0.1946 -0.2104 -0.5543
  861MOL0     C16137   7.036  10.056   3.142 -0.9492 -1.2412  0.4820
  861MOL0     C16138   7.024  10.173   3.038  0.4459  0.4374 -0.6512
  861MOL0     C16139   6.885  10.246   3.057 -0.4932 -0.2787 -0.3757
  861MOL0     C16140   6.840  10.303   2.928  0.0832 -0.3247 -0.3531
  861MOL0     C16141   6.920  10.425   2.887  0.7520 -0.8094 -0.0357
  861MOL0     C16142   6.918  10.555   2.973 -0.3984 -1.0800  0.4971
  861MOL0     C16143   6.779  10.622   2.991 -0.4186 -0.3429  0.1507
  861MOL0     C16144   6.700  10.650   2.865  0.1006 -0.2759 -0.0496
  861MOL0    Cl16145   6.561  10.767   2.886  0.0340  0.1292  1.0038
  861MOL0     C16146   7.042  10.068   3.505 -0.2585 -0.6823  0.4763
  861MOL0     C16147   7.051   9.982   3.616  0.5083 -0.0623  0.5650
  861MOL0     O16148   7.253   9.792   3.761  0.0834  0.3088  0.1306
  861MOL0     C16149   7.267   9.594   3.954 -0.3383  0.4223 -1.1491
  861MOL0     C16150   7.270   9.494   4.051  0.2188  0.2328 -0.3307
  861MOL0     N16151   7.444   9.587   4.483 -1.1216 -0.6037  0.1127
  861MOL0     N16152   7.464   9.665   4.579 -0.4468  0.5836 -0.3262
  861MOL0     C16153   8.550   9.785   4.382  0.3391  0.2355 -0.3787
  861MOL0     C16154   8.676   9.774   4.348 -1.0149 -0.5162 -0.9359
  861MOL0     C16155   9.076   9.822   4.171  1.4895 -0.9412 -0.2398
  861MOL0     C16156   9.144   9.742   4.086  0.0757 -0.4360 -1.0008
  861MOL0     C16157   9.281   9.749   4.061  0.0834 -0.2150 -0.1918
  861MOL0     C16158   9.352   9.854   4.098 -0.0073  0.9251 -0.1374
  861MOL0     O16159   9.486   9.859   4.066  0.5972  0.1043  0.2982
  861MOL0     C16160   9.579   9.916   4.170  0.5222 -1.0742 -0.0556
  861MOL0     C16161   9.672   9.809   4.230  0.8816 -0.5500  0.3600
  861MOL0     C16162   9.764   9.743   4.125 -0.5571  0.3133  0.0313
  861MOL0     C16163   9.847   9.637   4.193 -0.3752 -0.0743 -0.0440
  861MOL0     C16164   9.923   9.568   4.093 -0.0608 -0.0632  0.4091
  861MOL0     C16165   9.979   9.505   4.005  0.3178  0.0428 -0.0980
  861MOL0     C16166   9.279   9.958   4.165 -0.9343 -0.3210 -0.0721
  861MOL0     C16167   9.146   9.943   4.219 -0.0081  0.1052  0.0180
  861MOL0     H16168   8.749  10.101   4.331  1.3990 -0.3818 -0.0898
  861MOL0     H16169   8.517  10.113   4.408 -0.6430 -0.0214 -0.4875
  861MOL0     H16170   8.346  10.052   4.569  2.5789  1.1838 -2.2783
  861MOL0     H16171   8.282  10.081   4.397 -0.2379 -1.2709 -0.7112
  861MOL0     H16172   8.158   9.904   4.626  1.8241 -0.7649 -0.4074
  861MOL0     H16173   8.116  10.077   4.585 -0.7124  0.5540 -1.7273
  861MOL0     H16174   7.997  10.051   4.398  2.1678 -0.0667  1.0787
  861MOL0     H16175   8.072   9.903   4.347 -2.0843  1.3347 -1.3382
  861MOL0     H16176   7.845   9.859   4.434 -1.0532  1.2343  0.4633
  861MOL0     H16177   7.969   9.781   4.522  0.0757 -0.2049 -0.9232
  861MOL0     H16178   7.942   9.944   4.715 -1.5854  1.5031  1.7260
  861MOL0     H16179   7.848  10.053   4.612 -0.8912  0.5171  4.1180
  861MOL0     H16180   7.714   9.948   4.758  1.6062 -0.5163  0.9111
  861MOL0     H16181   7.666   9.902   4.603  0.4760 -1.2252 -2.1037
  861MOL0     H16182   7.827   9.677   4.657 -0.1305 -0.4198 -0.2388
  861MOL0     H16183   7.824   9.756   4.813 -2.5250  1.7776  1.7215
  861MOL0     H16184   7.562   9.743   4.808 -0.0291  0.3736 -1.1133
  861MOL0     H16185   7.656   9.601   4.838  0.5975  2.4366  2.3775
  861MOL0     H16186   7.719   9.448   4.600  1.0839  0.4749 -0.9602
  861MOL0     H16187   7.520   9.443   4.264  1.0860 -1.6687 -1.3844
  861MOL0     H16188   7.660   9.383   4.323 -1.5752  0.9930 -3.0940
  861MOL0     H16189   7.432   9.262   4.478 -0.4667 -3.1165 -1.1821
  861MOL0     H16190   7.552   9.183   4.374  0.0382 -0.1060 -3.8964
  861MOL0     H16191   7.340   9.146   4.264 -2.0253 -0.3876 -2.2125
  861MOL0     H16192   7.421   9.276   4.173  1.8783  1.7108  1.6686
  861MOL0     H16193   7.279   9.449   4.303 -0.8158  0.7324 -2.8794
  861MOL0     H16194   7.207   9.306   4.383  0.5159 -5.0659 -1.3839
  861MOL0     H16195   6.955   9.371   4.006 -0.6693  1.3090  1.2982
  861MOL0     H16196   6.965   9.498   3.686 -1.0984 -0.3020  0.1154
  861MOL0     H16197   6.861   9.424   3.803 -0.2285 -0.6627  2.1369
  861MOL0     H16198   6.872   9.604   3.786  2.0634  0.6022 -2.4408
  861MOL0     H16199   6.962   9.688   3.458  0.7681  0.2507  0.6317
  861MOL0     H16200   6.953   9.850   3.265 -2.1098  3.7697 -0.0812
  861MOL0     H16201   7.139  10.018   3.138 -0.2563  0.4446  1.1104
  861MOL0     H16202   6.968   9.974   3.117 -1.2690 -2.1467  3.8226
  861MOL0     H16203   7.104  10.247   3.049 -0.0435  0.6783  1.8979
  861MOL0     H16204   7.034  10.137   2.935  3.2395 -1.3403  0.1269
  861MOL0     H16205   6.886  10.321   3.137 -1.1216  0.1460 -0.7593
  861MOL0     H16206   6.806  10.173   3.081  0.4063 -1.1705 -0.0508
  861MOL0     H16207   6.854  10.228   2.849 -0.4551 -0.4696 -0.3098
  861MOL0     H16208   6.743  10.353   2.933 -0.8656 -2.0042 -1.0928
  861MOL0     H16209   6.916  10.463   2.784  2.8380  2.3472  0.8945
  861MOL0     H16210   7.024  10.397   2.866  0.2354 -0.5227 -3.6487
  861MOL0     H16211   6.976  10.554   3.065  2.3176  2.4451 -0.9449
  861MOL0     H16212   6.976  10.627   2.914  1.6500 -1.3642  2.0673
  861MOL0     H16213   6.793  10.715   3.047 -0.7902 -0.9916  1.3639
  861MOL0     H16214   6.717  10.553   3.049 -0.0398  0.1682  1.1794
  861MOL0     H16215   6.667  10.557   2.818  0.6974 -1.2242  1.3435
  861MOL0     H16216   6.769  10.697   2.794  0.2230  0.6013  0.6486
  861MOL0     H16217   7.046  10.176   3.514 -2.4800 -0.5983  1.0469
  861MOL0     H16218   7.057  10.026   3.715  0.9474  1.1732  0.0151
  861MOL0     H16219   7.353   9.659   3.946  0.7230 -0.4456  1.9741
  861MOL0     H16220   7.364   9.489   4.106 -0.4558  4.5764  1.6220
  861MOL0     H16221   8.509   9.689   4.409  0.7719 -0.5295 -2.2775
  861MOL0     H16222   8.719   9.674   4.350  2.4209  0.8249 -0.1650
  861MOL0     H16223   9.082   9.662   4.048 -0.9386  0.2782 -0.8914
  861MOL0     H16224   9.325   9.666   4.007 -2.2846 -0.1220 -2.4733
  861MOL0     H16225   9.644   9.993   4.128  1.8603  0.1506  3.8089
  861MOL0     H16226   9.535   9.969   4.256  5.1816 -0.2342  2.0897
  861MOL0     H16227   9.612   9.726   4.271 -0.4090 -0.1630 -0.6928
  861MOL0     H16228   9.731   9.858   4.308 -0.2793  2.9213 -0.7720
  861MOL0     H16229   9.811   9.826   4.071  0.4174  1.5667  2.6381
  861MOL0     H16230   9.697   9.699   4.050  0.0644  0.2792 -0.5145
  861MOL0     H16231   9.798   9.571   4.265  0.9991 -2.5032 -1.2102
  861MOL0     H16232   9.921   9.677   4.262  0.5440 -0.9617 -0.4867
  861MOL0     H16233  10.028   9.444   3.932  1.4565  2.8837 -1.8864
  861MOL0     H16234   9.332  10.047   4.196 -0.9515 -1.7738  5.0569
  861MOL0     H16235   9.105  10.017   4.287  2.0154  0.7684  0.5839
  862MOL0     O16236   6.488   8.898   8.068 -0.2448 -0.0989 -0.3197
  862MOL0     C16237   6.570   8.989   8.071 -0.3893 -0.4527  0.1051
  862MOL0     O16238   6.548   9.105   8.129 -0.5191 -0.3513  0.3437
  862MOL0     C16239   6.422   9.146   8.148 -0.3568 -0.1913  0.3411
  862MOL0     C16240   6.338   9.200   8.050 -0.3301  0.1907  0.0585
  862MOL0     C16241   6.203   9.217   8.081 -0.1251 -0.0677 -0.1817
  862MOL0     C16242   6.152   9.185   8.210 -0.1235 -0.4462 -0.3554
  862MOL0     O16243   6.017   9.204   8.256 -0.5161  0.2525  0.3905
  862MOL0     C16244   5.942   9.311   8.204 -0.0951  0.4673  0.4437
  862MOL0     C16245   5.839   9.259   8.101 -0.2712  0.3618  0.1547
  862MOL0     C16246   5.711   9.182   8.166  0.0811 -1.5516  0.2701
  862MOL0     C16247   5.587   9.206   8.078  0.0079 -0.4029  0.3411
  862MOL0     C16248   5.588   9.119   7.949  0.4303 -0.4770 -0.5679
  862MOL0     C16249   5.459   9.169   7.858  0.2212 -0.2812 -0.8749
  862MOL0     C16250   5.492   9.120   7.711 -0.2937 -0.3657 -0.6227
  862MOL0     C16251   5.467   8.966   7.690  0.4159  0.2172  0.6411
  862MOL0     N16252   5.562   8.907   7.590  0.3141 -0.7261 -0.6275
  862MOL0     C16253   5.609   8.783   7.593  0.2011 -0.4305 -0.1211
  862MOL0     C16254   5.681   8.772   7.480 -0.4503 -1.1161  0.6568
  862MOL0     C16255   5.747   8.650   7.439  0.0314  0.0089 -0.2808
  862MOL0     C16256   5.865   8.612   7.526 -0.0896  0.4746 -0.3344
  862MOL0     C16257   5.944   8.502   7.462  0.2223  0.6693 -0.0894
  862MOL0     C16258   6.040   8.426   7.557 -0.0579 -0.7852  0.3730
  862MOL0     O16259   6.138   8.519   7.615  0.8161 -0.1436  0.4723
  862MOL0     C16260   6.244   8.470   7.686 -0.2345 -0.2145 -0.8326
  862MOL0     C16261   6.283   8.339   7.691  0.4748  0.0363  1.4787
  862MOL0     C16262   6.382   8.282   7.775  0.8020  0.0158 -0.0001
  862MOL0     C16263   6.424   8.129   7.759  0.4784 -0.6073  0.2322
  862MOL0     C16264   6.443   8.369   7.872 -0.2848 -0.5392  0.2672
  862MOL0     C16265   6.552   8.328   7.957 -0.1281  0.5639 -0.2041
  862MOL0     O16266   6.644   8.427   8.006  0.7523  0.3645 -0.5891
  862MOL0     C16267   6.747   8.393   8.085 -0.4956  0.2713  0.4891
  862MOL0     C16268   6.735   8.324   8.204 -0.4861 -0.4983 -0.3774
  862MOL0     C16269   6.847   8.297   8.287  0.1362 -0.0709  0.0526
  862MOL0     C16270   6.977   8.337   8.251  0.6504 -0.0580  0.4841
  862MOL0     O16271   7.079   8.323   8.341 -0.8599  0.0123 -0.6628
  862MOL0     C16272   7.207   8.269   8.288 -0.0210  0.1947  0.5927
  862MOL0     C16273   7.300   8.211   8.393  0.8448  0.1276  0.1494
  862MOL0     C16274   7.411   8.147   8.315 -0.4114  0.1223 -0.1129
  862MOL0     C16275   7.506   8.074   8.410  0.0275  0.5825  1.1177
  862MOL0     C16276   7.653   8.080   8.353 -0.2870 -0.1660 -0.0561
  862MOL0     C16277   7.723   7.968   8.399  0.3341  0.9171  0.3225
  862MOL0     C16278   7.870   7.992   8.380  0.2210 -0.1087  0.4171
  862MOL0     C16279   7.970   7.920   8.470  0.2224  0.2867 -0.4023
  862MOL0    Cl16280   7.950   7.740   8.437  0.0016 -0.0991 -0.0123
  862MOL0     C16281   6.992   8.403   8.130 -0.4058 -0.6729  0.3543
  862MOL0     C16282   6.880   8.435   8.046 -0.1298  0.3114  0.6036
  862MOL0     O16283   6.570   8.214   7.978  0.2444  0.3128 -0.0522
  862MOL0     C16284   6.397   8.499   7.881  0.2124  0.4590 -0.7971
  862MOL0     C16285   6.307   8.548   7.784  0.3835 -0.4007  0.9606
  862MOL0     N16286   5.666   8.884   7.409  0.2796  0.5321 -0.2156
  862MOL0     N16287   5.594   8.972   7.473  1.7242  0.7541  0.0798
  862MOL0     C16288   6.233   9.126   8.303  0.2005  0.5141  0.2643
  862MOL0     C16289   6.367   9.104   8.270 -0.8936 -0.1778 -0.5294
  862MOL0     C16290   6.702   8.964   8.009  0.5959 -0.6229  0.5028
  862MOL0     C16291   6.742   8.839   7.951 -0.6566 -1.2731 -0.1117
  862MOL0     C16292   6.861   8.837   7.879 -0.9396 -0.3490  0.6751
  862MOL0     C16293   6.948   8.952   7.872  0.1272 -0.0031 -0.2060
  862MOL0     O16294   7.062   8.948   7.796  0.2311 -0.2705  0.2154
  862MOL0     C16295   7.146   9.069   7.782  0.0597 -0.2292  1.0498
  862MOL0     C16296   7.257   9.041   7.677  0.0818 -0.1396  0.0061
  862MOL0     C16297   7.361   9.159   7.663 -0.5397 -0.4027  0.9782
  862MOL0     C16298   7.474   9.125   7.565 -0.7938  0.5995 -0.5387
  862MOL0     C16299   7.610   9.200   7.576  0.0270  0.2096  0.3119
  862MOL0     C16300   7.713   9.270   7.574  0.2210 -0.1303  0.5974
  862MOL0     C16301   6.915   9.064   7.949  0.3002  0.2283 -0.0446
  862MOL0     C16302   6.787   9.078   8.003  0.3828 -0.3283 -0.0234
  862MOL0     H16303   6.362   9.231   7.949  1.6389 -0.0574  0.4284
  862MOL0     H16304   6.134   9.254   8.006 -1.5243 -0.3225  0.9251
  862MOL0     H16305   5.884   9.351   8.288  1.6742  2.3648  0.8158
  862MOL0     H16306   5.994   9.393   8.155 -0.6570  0.0716 -0.8647
  862MOL0     H16307   5.807   9.343   8.038  0.1077 -0.4041 -1.0906
  862MOL0     H16308   5.896   9.187   8.042  0.7478  2.2535 -1.2964
  862MOL0     H16309   5.728   9.075   8.182  0.8903 -1.3312  0.9589
  862MOL0     H16310   5.681   9.225   8.262 -2.5720  0.6850 -1.4418
  862MOL0     H16311   5.499   9.178   8.136  0.8079 -1.5858  1.0408
  862MOL0     H16312   5.576   9.308   8.041 -1.8099  0.0565  1.9533
  862MOL0     H16313   5.684   9.144   7.901  0.0808  1.0282 -0.5373
  862MOL0     H16314   5.585   9.013   7.973 -1.7693 -0.3285 -0.0107
  862MOL0     H16315   5.369   9.115   7.888  0.5005 -1.6304 -2.2941
  862MOL0     H16316   5.448   9.276   7.873 -1.3102 -0.5870  0.3342
  862MOL0     H16317   5.443   9.179   7.633 -1.5480 -0.2728  0.1915
  862MOL0     H16318   5.599   9.134   7.698 -0.2885  0.5055  0.2658
  862MOL0     H16319   5.368   8.949   7.647  0.8677 -2.2478  0.4136
  862MOL0     H16320   5.472   8.912   7.785 -1.2642  0.6318  0.9896
  862MOL0     H16321   5.604   8.717   7.679 -1.3265  0.7659  0.7678
  862MOL0     H16322   5.679   8.564   7.441  1.3123 -1.0633  1.7580
  862MOL0     H16323   5.783   8.655   7.336 -1.7344 -0.5656 -0.9493
  862MOL0     H16324   5.830   8.584   7.626 -1.5553  0.0008 -0.9594
  862MOL0     H16325   5.935   8.696   7.538  1.2626 -0.7540  0.6654
  862MOL0     H16326   5.996   8.528   7.369 -3.6752  0.0687 -2.6436
  862MOL0     H16327   5.867   8.436   7.422  0.8648 -0.1752  0.0311
  862MOL0     H16328   6.092   8.343   7.509  2.5432 -0.8603  3.0220
  862MOL0     H16329   5.979   8.385   7.638 -0.2899  0.6331  0.9535
  862MOL0     H16330   6.237   8.272   7.619  1.7848  1.0497 -0.3779
  862MOL0     H16331   6.529   8.130   7.732  0.9092  2.8348  1.5317
  862MOL0     H16332   6.400   8.080   7.854 -2.3548 -0.2232 -0.1844
  862MOL0     H16333   6.354   8.090   7.684  0.4311  0.7012 -0.4251
  862MOL0     H16334   6.640   8.281   8.233 -0.4840  0.8520  1.9578
  862MOL0     H16335   6.831   8.232   8.373  0.0151  0.2948  0.3087
  862MOL0     H16336   7.176   8.189   8.221  1.0561 -0.5733  0.9888
  862MOL0     H16337   7.259   8.348   8.232  1.5966 -0.6061  0.9047
  862MOL0     H16338   7.340   8.280   8.468  1.1008 -1.8975  1.9588
  862MOL0     H16339   7.237   8.140   8.447  1.0965  2.5006  3.9194
  862MOL0     H16340   7.467   8.232   8.275  0.5740  0.3182  1.5764
  862MOL0     H16341   7.372   8.076   8.241 -0.9438 -0.1427  0.4140
  862MOL0     H16342   7.499   8.119   8.510  3.0325 -0.7235  2.0277
  862MOL0     H16343   7.471   7.972   8.425  0.6062  0.5881  2.6540
  862MOL0     H16344   7.697   8.170   8.396 -0.8478 -0.1922  0.5946
  862MOL0     H16345   7.640   8.086   8.245 -5.5860  0.4094  0.3219
  862MOL0     H16346   7.706   7.964   8.507  0.3554  3.1041  0.4563
  862MOL0     H16347   7.694   7.876   8.349 -0.6728  1.7073 -0.6091
  862MOL0     H16348   7.889   8.100   8.378 -0.8732  0.0910 -1.8951
  862MOL0     H16349   7.896   7.960   8.279 -0.7423 -2.2594  0.8088
  862MOL0     H16350   7.969   7.944   8.576  1.8516  2.8553 -0.8841
  862MOL0     H16351   8.071   7.944   8.436 -0.2196  5.1504  0.9989
  862MOL0     H16352   7.082   8.454   8.097 -0.0697  0.0707  2.2809
  862MOL0     H16353   6.897   8.490   7.954  0.0525 -0.6602  0.0340
  862MOL0     H16354   6.430   8.565   7.960 -1.3654 -1.8345  1.9547
  862MOL0     H16355   6.264   8.647   7.788  0.1303 -0.4726  0.1950
  862MOL0     H16356   6.199   9.099   8.402  2.0185 -3.0183  0.0928
  862MOL0     H16357   6.423   9.052   8.347  0.3488  3.4139  1.2308
  862MOL0     H16358   6.688   8.749   7.978 -1.5126 -1.1724 -1.3550
  862MOL0     H16359   6.887   8.748   7.824 -0.5959 -0.5085  1.0880
  862MOL0     H16360   7.085   9.157   7.761 -0.1201 -0.8247 -1.1636
  862MOL0     H16361   7.199   9.087   7.876 -1.8320 -0.6050  2.2387
  862MOL0     H16362   7.208   9.030   7.580  1.7721 -2.4303 -0.6848
  862MOL0     H16363   7.316   8.953   7.703  1.8846  1.2820  1.0446
  862MOL0     H16364   7.393   9.178   7.766 -1.9204 -1.6500  1.6792
  862MOL0     H16365   7.310   9.243   7.615 -3.1345 -0.7903  2.8282
  862MOL0     H16366   7.439   9.125   7.462  0.2372  0.3404 -0.9010
  862MOL0     H16367   7.506   9.021   7.578  3.1284  1.6664 -0.2372
  862MOL0     H16368   7.817   9.293   7.578  0.1393  0.9909 -1.7639
  862MOL0     H16369   6.981   9.148   7.971  1.4264 -0.1153 -1.8691
  862MOL0     H16370   6.782   9.172   8.058  0.5319 -0.5543  0.3868
  863MOL0     O16371  10.525   9.502  10.409  0.0117  0.4231  0.0228
  863MOL0     C16372  10.474   9.405  10.461  0.0697 -0.2524  0.1563
  863MOL0     O16373  10.543   9.297  10.509  0.5154 -0.0512  0.5024
  863MOL0     C16374  10.673   9.310  10.503 -0.5418  0.8381  0.2645
  863MOL0     C16375  10.747   9.359  10.612 -0.3974 -0.4974  0.2256
  863MOL0     C16376  10.888   9.352  10.602 -0.8016  0.9008  0.6167
  863MOL0     C16377  10.957   9.306  10.481 -0.5863 -0.9413  0.2563
  863MOL0     O16378  11.091   9.301  10.491  0.2743 -0.4587  0.2470
  863MOL0     C16379  11.165   9.345  10.378  0.5445 -0.3207 -0.4820
  863MOL0     C16380  11.295   9.382  10.435  0.6640  0.3737 -0.4059
  863MOL0     C16381  11.403   9.375  10.329  0.1384 -0.2178  0.9138
  863MOL0     C16382  11.539   9.430  10.392  0.1052 -0.8360 -0.5713
  863MOL0     C16383  11.646   9.468  10.290  0.7939  0.5054 -0.2901
  863MOL0     C16384  11.774   9.530  10.340 -0.1637 -0.9185  0.4500
  863MOL0     C16385  11.752   9.683  10.379  0.0028  0.8421  0.1073
  863MOL0     C16386  11.895   9.746  10.393  0.6448 -0.1693  0.6231
  863MOL0     N16387  11.893   9.865  10.466 -0.9215  0.2831 -0.7653
  863MOL0     C16388  11.801   9.973  10.467  0.1104  0.5935 -0.1471
  863MOL0     C16389  11.873  10.075  10.525 -0.4497  0.1902  0.7721
  863MOL0     C16390  11.833  10.211  10.560 -0.5978  0.0906 -0.5712
  863MOL0     C16391  11.919  10.317  10.504  0.0942  0.2845  0.4932
  863MOL0     C16392  11.840  10.451  10.531  0.3463  0.6074 -0.5181
  863MOL0     C16393  11.926  10.577  10.522 -0.6590 -0.0180  0.2718
  863MOL0     O16394  11.991  10.576  10.396  0.3838 -0.1521 -0.3540
  863MOL0     C16395  12.121  10.617  10.385  0.5752  0.5073 -0.2885
  863MOL0     C16396  12.225  10.533  10.428 -0.0815  0.2736  0.6336
  863MOL0     C16397  12.355  10.580  10.430 -0.3380  0.2045 -0.0029
  863MOL0     C16398  12.457  10.498  10.511  0.0201  0.1503  0.3232
  863MOL0     C16399  12.388  10.704  10.381 -0.4977 -0.8193 -0.4955
  863MOL0     C16400  12.529  10.752  10.381 -0.4616 -0.3232 -0.0636
  863MOL0     O16401  12.633  10.674  10.332  0.9702  0.2028  0.5800
  863MOL0     C16402  12.759  10.720  10.304  0.1108 -0.2823  0.1188
  863MOL0     C16403  12.783  10.750  10.168 -0.6515  0.4664 -0.3255
  863MOL0     C16404  12.906  10.796  10.134 -0.3511 -0.0241 -0.3827
  863MOL0     C16405  13.008  10.804  10.234  0.4170  0.3112 -0.1674
  863MOL0     O16406  13.136  10.828  10.184  0.4995  0.5169 -0.5171
  863MOL0     C16407  13.240  10.751  10.244  0.1079  0.0555 -0.9824
  863MOL0     C16408  13.366  10.752  10.147  0.0565 -0.9506 -0.0474
  863MOL0     C16409  13.466  10.870  10.180  0.8470 -0.1744  0.1765
  863MOL0     C16410  13.594  10.864  10.098  0.2171  0.0645  0.2426
  863MOL0     C16411  13.694  10.975  10.121 -0.5764  0.1097 -0.5765
  863MOL0     C16412  13.641  11.116  10.076  0.2222  0.7095 -1.0649
  863MOL0     C16413  13.756  11.214  10.080 -0.0555  0.0230  0.1754
  863MOL0     C16414  13.719  11.364  10.059 -0.4146  0.6938  0.8262
  863MOL0    Cl16415  13.642  11.377   9.890  0.2053 -0.2903  0.0541
  863MOL0     C16416  12.982  10.751  10.365  0.6740  0.2682 -0.3420
  863MOL0     C16417  12.851  10.724  10.405 -0.3818  0.5784  0.5270
  863MOL0     O16418  12.548  10.854  10.447 -0.0028  0.0902  0.3797
  863MOL0     C16419  12.279  10.781  10.322  0.4129 -1.1224 -0.2041
  863MOL0     C16420  12.148  10.735  10.320  0.4259  0.3128  0.4883
  863MOL0     N16421  12.004  10.027  10.536  0.0814 -0.0490  0.0606
  863MOL0     N16422  12.007   9.903  10.516  0.0018 -0.1000 -0.9287
  863MOL0     C16423  10.876   9.272  10.370 -0.3326  0.7043  0.5191
  863MOL0     C16424  10.734   9.279  10.380 -0.6069 -0.0880  0.2531
  863MOL0     C16425  10.332   9.409  10.494  0.3684 -0.5216 -0.3821
  863MOL0     C16426  10.257   9.324  10.576  0.5171  0.4635  0.2683
  863MOL0     C16427  10.116   9.332  10.589 -0.2987  0.7718  0.3206
  863MOL0     C16428  10.043   9.429  10.514 -0.6943 -0.3314 -1.2673
  863MOL0     O16429   9.908   9.450  10.520  0.7534  0.6522  0.2338
  863MOL0     C16430   9.832   9.365  10.608  0.5457 -0.0015  0.2295
  863MOL0     C16431   9.687   9.389  10.623 -0.1853  0.1070 -0.8441
  863MOL0     C16432   9.628   9.353  10.490 -0.4990  0.1676  0.1801
  863MOL0     C16433   9.474   9.367  10.483 -0.2605  0.5548 -0.6290
  863MOL0     C16434   9.432   9.310  10.354 -0.4778 -0.9452 -1.0961
  863MOL0     C16435   9.392   9.253  10.258  0.3630  0.5137  0.4299
  863MOL0     C16436  10.112   9.509  10.425  0.3163  0.3735  0.5034
  863MOL0     C16437  10.254   9.501  10.421 -0.0213  0.0521  0.3387
  863MOL0     H16438  10.711   9.398  10.707  2.5445  1.2217  0.7672
  863MOL0     H16439  10.944   9.391  10.686 -0.0528  1.4879 -0.1414
  863MOL0     H16440  11.187   9.265  10.306  1.4327  0.4471 -1.0915
  863MOL0     H16441  11.121   9.425  10.318  0.0144 -1.7150 -2.0460
  863MOL0     H16442  11.304   9.485  10.469 -2.8142  1.4669 -2.2917
  863MOL0     H16443  11.320   9.306  10.509 -1.0657 -0.6990 -0.8648
  863MOL0     H16444  11.423   9.277  10.283 -0.7251  1.2308 -2.9526
  863MOL0     H16445  11.382   9.439  10.243  0.6007 -1.7163 -0.3764
  863MOL0     H16446  11.519   9.527  10.440  0.7740 -1.8874  1.9933
  863MOL0     H16447  11.585   9.373  10.473 -0.8326  2.7150  2.7828
  863MOL0     H16448  11.658   9.373  10.237 -1.1446 -0.6343  1.1853
  863MOL0     H16449  11.605   9.534  10.213  0.9535  3.0226  1.6618
  863MOL0     H16450  11.818   9.483  10.429 -1.5711  0.5612  2.0050
  863MOL0     H16451  11.852   9.535  10.263  1.6059  0.0195  2.1861
  863MOL0     H16452  11.686   9.729  10.304 -0.8563 -0.2740  0.1652
  863MOL0     H16453  11.704   9.693  10.477 -1.4291 -1.9821 -0.1982
  863MOL0     H16454  11.939   9.763  10.294 -0.7307  1.2662  0.2250
  863MOL0     H16455  11.963   9.675  10.440  0.5663 -0.5023  0.2391
  863MOL0     H16456  11.695   9.976  10.443  0.6204 -0.2779 -2.8109
  863MOL0     H16457  11.735  10.242  10.521  1.1435  0.7743 -4.9794
  863MOL0     H16458  11.816  10.218  10.668  0.4025 -0.5642 -0.3537
  863MOL0     H16459  11.940  10.301  10.398  0.7001  0.0150  0.6468
  863MOL0     H16460  12.018  10.324  10.551  0.8982 -4.1518 -0.1060
  863MOL0     H16461  11.801  10.454  10.633  1.0117  0.1897 -0.2474
  863MOL0     H16462  11.751  10.455  10.468 -0.3640  1.9281  0.5167
  863MOL0     H16463  12.006  10.595  10.594 -0.6557 -0.9229  0.5033
  863MOL0     H16464  11.866  10.668  10.535 -0.1782  0.1814  1.1860
  863MOL0     H16465  12.199  10.431  10.453  1.0099 -0.4634 -1.0342
  863MOL0     H16466  12.541  10.559  10.546  0.0046  0.6927 -0.5768
  863MOL0     H16467  12.417  10.471  10.610  0.7718  0.7651  0.8088
  863MOL0     H16468  12.486  10.405  10.461  1.7358  0.2889  0.9704
  863MOL0     H16469  12.709  10.747  10.089 -1.4609  3.3727  0.2255
  863MOL0     H16470  12.926  10.817  10.029 -2.3009  3.2070 -0.2471
  863MOL0     H16471  13.267  10.801  10.338  0.3009  0.8040 -1.4263
  863MOL0     H16472  13.211  10.649  10.268  0.0584 -0.3379 -2.6371
  863MOL0     H16473  13.421  10.657  10.140  2.0996  0.0165  1.6611
  863MOL0     H16474  13.334  10.767  10.044 -1.8125 -1.0084  0.4890
  863MOL0     H16475  13.486  10.863  10.288 -1.1023 -2.3875  0.4679
  863MOL0     H16476  13.420  10.968  10.166 -0.8770 -0.9640  0.0730
  863MOL0     H16477  13.649  10.775  10.128  0.7286 -0.7330 -2.6900
  863MOL0     H16478  13.565  10.861   9.992  0.2127 -0.3510  0.2569
  863MOL0     H16479  13.791  10.962  10.073  0.9650  3.3254  1.3705
  863MOL0     H16480  13.713  10.965  10.228  0.2587  1.2828 -0.6066
  863MOL0     H16481  13.602  11.109   9.974  2.6258 -1.1823 -1.9647
  863MOL0     H16482  13.566  11.154  10.146 -1.1562 -0.4330 -1.8657
  863MOL0     H16483  13.829  11.185  10.004 -0.6191  0.0960 -0.4048
  863MOL0     H16484  13.796  11.212  10.181 -2.3505 -1.0738  1.1349
  863MOL0     H16485  13.813  11.421  10.066  1.2613 -1.7893 -0.1317
  863MOL0     H16486  13.648  11.400  10.134  0.4816  0.8988  1.5970
  863MOL0     H16487  13.048  10.749  10.451 -2.6812  2.1111  2.5549
  863MOL0     H16488  12.832  10.686  10.506  0.1934  0.4328  0.5836
  863MOL0     H16489  12.307  10.879  10.283 -0.4589 -1.5643 -2.0477
  863MOL0     H16490  12.073  10.792  10.266  1.9915  1.4592 -0.5890
  863MOL0     H16491  10.920   9.235  10.278  2.7267  0.1595  2.0544
  863MOL0     H16492  10.669   9.252  10.298  1.2113 -0.4439 -1.1393
  863MOL0     H16493  10.320   9.250  10.625 -2.1005 -3.2300 -1.4005
  863MOL0     H16494  10.061   9.261  10.651 -0.4261  1.6066  1.1768
  863MOL0     H16495   9.842   9.259  10.582  2.4161  0.8801 -3.3606
  863MOL0     H16496   9.865   9.371  10.712 -1.4489 -0.5738  0.9418
  863MOL0     H16497   9.667   9.494  10.646 -1.3866 -0.3659  0.4137
  863MOL0     H16498   9.639   9.324  10.696 -3.3028  1.5900 -1.4209
  863MOL0     H16499   9.658   9.254  10.454  2.0957  1.5521 -1.8188
  863MOL0     H16500   9.660   9.429  10.419 -0.7539  1.0549  0.9907
  863MOL0     H16501   9.449   9.472  10.499 -1.1014 -0.0487  2.7792
  863MOL0     H16502   9.430   9.302  10.559 -0.2846 -0.2071 -1.2858
  863MOL0     H16503   9.351   9.189  10.183 -0.0305  1.5345 -0.2387
  863MOL0     H16504  10.061   9.589  10.373 -0.5862  0.0952  0.9333
  863MOL0     H16505  10.306   9.556  10.343  3.1601  0.6917  2.6740
  864MOL0     O16506   8.914   4.504   2.738 -0.4311  0.4328 -0.2183
  864MOL0     C16507   8.921   4.559   2.632 -0.5148 -1.3940  1.2983
  864MOL0     O16508   8.812   4.585   2.551 -0.5900  0.2884  0.5365
  864MOL0     C16509   8.685   4.539   2.566 -0.2955 -0.4306 -0.1083
  864MOL0     C16510   8.653   4.428   2.651 -1.0660  0.4234 -0.1939
  864MOL0     C16511   8.527   4.376   2.640 -0.0521  0.4243 -0.0961
  864MOL0     C16512   8.435   4.434   2.550  0.6613  0.4837  0.0144
  864MOL0     O16513   8.314   4.357   2.546 -0.2455 -0.2572  0.5170
  864MOL0     C16514   8.215   4.393   2.445  0.4520 -0.5576  0.3372
  864MOL0     C16515   8.112   4.505   2.474 -0.1325  0.0350  0.0398
  864MOL0     C16516   8.031   4.489   2.594 -0.0460 -0.1885  0.6128
  864MOL0     C16517   7.901   4.402   2.579 -0.0574 -0.1733  0.3230
  864MOL0     C16518   7.809   4.426   2.707 -0.1468  0.0912 -0.0824
  864MOL0     C16519   7.690   4.332   2.708  0.5977  1.1117 -0.0968
  864MOL0     C16520   7.621   4.336   2.841  0.2471 -0.0222 -0.0712
  864MOL0     C16521   7.499   4.240   2.840  0.1934  0.6297 -0.0718
  864MOL0     N16522   7.527   4.113   2.919  0.3521 -0.4109 -0.0615
  864MOL0     C16523   7.486   4.100   3.048  0.2569  0.5317  0.0054
  864MOL0     C16524   7.510   3.970   3.081 -0.6059 -0.0110  0.1313
  864MOL0     C16525   7.482   3.914   3.220 -0.2294 -0.9593 -0.0171
  864MOL0     C16526   7.388   3.786   3.222  0.0883  0.3303 -0.8030
  864MOL0     C16527   7.243   3.826   3.240  0.1731 -0.2795 -0.0101
  864MOL0     C16528   7.156   3.704   3.269  0.0082  0.0358  0.3802
  864MOL0     O16529   7.020   3.748   3.287 -0.1488 -0.2396 -0.5282
  864MOL0     C16530   6.908   3.668   3.328 -0.8393 -0.1915  0.7959
  864MOL0     C16531   6.916   3.527   3.311 -0.0610  0.4709  0.5307
  864MOL0     C16532   6.811   3.442   3.353 -0.2010  0.0954  0.8397
  864MOL0     C16533   6.831   3.288   3.349 -0.7082  0.2295  0.9098
  864MOL0     C16534   6.701   3.504   3.421  0.2589 -0.1482  1.2760
  864MOL0     C16535   6.612   3.433   3.509  0.3397  0.1344 -1.3805
  864MOL0     O16536   6.593   3.494   3.627  0.3058 -0.7169 -0.4661
  864MOL0     C16537   6.478   3.469   3.697 -0.7469 -0.0436  0.0325
  864MOL0     C16538   6.462   3.342   3.760  0.7779  0.7685 -0.5188
  864MOL0     C16539   6.354   3.329   3.849 -0.2758  1.1902  0.2137
  864MOL0     C16540   6.249   3.420   3.866 -0.8368 -0.2361 -0.6254
  864MOL0     O16541   6.159   3.379   3.950  1.1504 -0.7856 -0.0197
  864MOL0     C16542   6.024   3.433   3.941  0.0144  1.0098 -0.1280
  864MOL0     C16543   5.936   3.372   4.049  0.1301 -0.0412  0.5657
  864MOL0     C16544   5.791   3.415   4.023  0.1092 -0.1077  0.2705
  864MOL0     C16545   5.699   3.369   4.142  0.6275  0.9476 -0.0966
  864MOL0     C16546   5.549   3.413   4.117 -0.2399 -0.7584 -0.2146
  864MOL0     C16547   5.522   3.560   4.167 -0.0499 -0.4869  0.1895
  864MOL0     C16548   5.367   3.565   4.181  0.2425  0.3370  0.5804
  864MOL0     C16549   5.319   3.693   4.256  0.4043  1.0218 -0.9460
  864MOL0    Cl16550   5.151   3.658   4.323 -0.2905 -0.2681  0.5143
  864MOL0     C16551   6.262   3.542   3.807  0.0725 -0.0362  0.2774
  864MOL0     C16552   6.383   3.565   3.730  1.3327 -0.6321  0.1929
  864MOL0     O16553   6.563   3.322   3.473 -0.3638  0.1736 -0.2189
  864MOL0     C16554   6.700   3.646   3.431 -0.5780  0.5487  0.2464
  864MOL0     C16555   6.794   3.731   3.385  0.0084  0.8007  0.1311
  864MOL0     N16556   7.585   3.912   2.979 -0.9549 -0.2374 -0.6054
  864MOL0     N16557   7.592   3.999   2.881 -0.4030  0.4057 -0.3723
  864MOL0     C16558   8.464   4.537   2.467  0.8745  0.3408  0.1855
  864MOL0     C16559   8.586   4.606   2.487  0.4097  0.3276 -0.6185
  864MOL0     C16560   9.056   4.598   2.582 -0.7885  0.0050 -0.6448
  864MOL0     C16561   9.068   4.673   2.467 -0.0730  0.0595 -0.2428
  864MOL0     C16562   9.193   4.701   2.410 -0.8494  1.0541  0.4996
  864MOL0     C16563   9.313   4.650   2.472  0.3637 -1.0236  0.6257
  864MOL0     O16564   9.435   4.671   2.407  0.5003  0.0260 -0.0109
  864MOL0     C16565   9.548   4.706   2.492 -0.0147 -0.3486 -0.2511
  864MOL0     C16566   9.645   4.589   2.516  0.7545  0.1156 -0.2747
  864MOL0     C16567   9.769   4.622   2.597  0.0307 -0.4506  0.6585
  864MOL0     C16568   9.889   4.672   2.509  0.3039  0.0464 -0.0967
  864MOL0     C16569   9.859   4.808   2.465  0.9376 -0.8259 -0.3820
  864MOL0     C16570   9.826   4.913   2.410  0.4911 -0.5178 -0.1445
  864MOL0     C16571   9.303   4.587   2.595  0.0930 -0.4082  0.1988
  864MOL0     C16572   9.172   4.566   2.653 -0.8504 -0.3693 -0.0220
  864MOL0     H16573   8.719   4.373   2.718  0.5770  2.8902  0.3473
  864MOL0     H16574   8.490   4.296   2.704  1.3802 -0.1831  0.0111
  864MOL0     H16575   8.272   4.415   2.354 -1.6679  3.3417 -0.2615
  864MOL0     H16576   8.151   4.306   2.427 -1.6557  0.9218  0.4306
  864MOL0     H16577   8.162   4.600   2.489 -2.2547  1.3130 -0.5560
  864MOL0     H16578   8.051   4.511   2.383 -1.8565 -1.3121  1.0299
  864MOL0     H16579   8.084   4.458   2.685  1.8292 -1.6956 -0.9147
  864MOL0     H16580   8.004   4.591   2.622  1.1406  0.0695  0.9084
  864MOL0     H16581   7.853   4.427   2.484  1.6852  0.9664 -0.3019
  864MOL0     H16582   7.925   4.296   2.578  0.6515 -0.2143 -4.7333
  864MOL0     H16583   7.874   4.415   2.795  0.8577  3.4881 -0.2567
  864MOL0     H16584   7.781   4.531   2.711  2.7191  0.9627  4.5524
  864MOL0     H16585   7.608   4.349   2.638 -0.3375  1.2867  1.0195
  864MOL0     H16586   7.716   4.225   2.703  0.1768  1.0412 -0.9896
  864MOL0     H16587   7.687   4.319   2.927  2.4580 -1.2465 -1.8811
  864MOL0     H16588   7.584   4.438   2.859  0.1284  0.2267 -1.6417
  864MOL0     H16589   7.468   4.208   2.740  0.7003 -1.9397  0.5254
  864MOL0     H16590   7.409   4.283   2.885  1.3470  0.6506  2.3907
  864MOL0     H16591   7.433   4.165   3.117 -0.3999 -2.5348  2.6568
  864MOL0     H16592   7.575   3.884   3.270 -0.1285  0.0492  0.4139
  864MOL0     H16593   7.461   3.999   3.285  3.0191  0.5385 -0.7052
  864MOL0     H16594   7.404   3.723   3.310 -1.1001 -0.8726 -1.4017
  864MOL0     H16595   7.397   3.721   3.134 -0.1519  1.7040 -1.8794
  864MOL0     H16596   7.201   3.882   3.156 -0.6644  2.7203  2.2101
  864MOL0     H16597   7.241   3.894   3.326  1.8462  1.9974 -1.6545
  864MOL0     H16598   7.198   3.652   3.356  1.4074 -1.3046 -1.0255
  864MOL0     H16599   7.159   3.640   3.181  0.6484  2.9615 -1.8697
  864MOL0     H16600   6.998   3.489   3.251 -0.1196  1.1202  0.0179
  864MOL0     H16601   6.919   3.272   3.287  0.4873  2.3521  1.9333
  864MOL0     H16602   6.853   3.253   3.451  0.1306 -1.5897  0.1464
  864MOL0     H16603   6.742   3.247   3.300  1.1481 -2.1783 -0.6841
  864MOL0     H16604   6.523   3.253   3.746 -1.6264 -1.2925  1.1444
  864MOL0     H16605   6.348   3.233   3.898 -0.1426  2.0828  2.0394
  864MOL0     H16606   6.013   3.542   3.949 -0.7337  0.8443  1.5025
  864MOL0     H16607   5.986   3.399   3.844  0.7290 -1.1827  0.3101
  864MOL0     H16608   5.940   3.263   4.041  1.0209  0.1206 -1.9758
  864MOL0     H16609   5.970   3.398   4.150  1.9971  0.4649 -0.1534
  864MOL0     H16610   5.746   3.377   3.931 -1.9052  3.2013 -0.3028
  864MOL0     H16611   5.784   3.523   4.005 -2.9393 -0.6978 -3.2457
  864MOL0     H16612   5.708   3.262   4.161  0.7632  0.9492 -0.1511
  864MOL0     H16613   5.735   3.422   4.231 -2.3454  1.9481  0.6602
  864MOL0     H16614   5.489   3.338   4.169  0.4103  0.8771  3.1200
  864MOL0     H16615   5.539   3.405   4.008 -0.1919 -1.0856 -0.1966
  864MOL0     H16616   5.579   3.566   4.260 -0.1860 -1.0986  0.3181
  864MOL0     H16617   5.561   3.628   4.091  2.1976 -1.0488  0.7851
  864MOL0     H16618   5.319   3.478   4.226 -0.0523  0.2485  0.1023
  864MOL0     H16619   5.320   3.571   4.083  1.8306 -1.0772 -0.3083
  864MOL0     H16620   5.312   3.780   4.190  2.5879  3.0037  1.2538
  864MOL0     H16621   5.397   3.711   4.331  2.2923  1.2552 -2.8687
  864MOL0     H16622   6.189   3.622   3.809  1.6088  1.4090  0.4019
  864MOL0     H16623   6.394   3.669   3.700  0.3797  0.1395  2.3246
  864MOL0     H16624   6.615   3.703   3.468 -1.4462  2.2224 -3.7922
  864MOL0     H16625   6.785   3.839   3.387  0.0129  0.8196  2.9105
  864MOL0     H16626   8.397   4.585   2.396  2.0624  2.7228  0.5717
  864MOL0     H16627   8.608   4.698   2.433  2.0269  0.8883  0.8977
  864MOL0     H16628   8.979   4.725   2.434 -1.3288 -1.3157  0.7813
  864MOL0     H16629   9.197   4.756   2.316  2.4644 -0.1101 -0.1821
  864MOL0     H16630   9.596   4.798   2.458  2.2608 -0.1293  3.0268
  864MOL0     H16631   9.509   4.730   2.591  0.7988  2.4827 -0.5318
  864MOL0     H16632   9.684   4.561   2.417  0.9102 -1.1452  0.1190
  864MOL0     H16633   9.581   4.516   2.565  0.5165  0.5269  0.0237
  864MOL0     H16634   9.794   4.524   2.640 -0.1050 -0.7443  0.0762
  864MOL0     H16635   9.746   4.689   2.680  0.5806  0.6639 -0.0660
  864MOL0     H16636   9.886   4.616   2.416 -0.5684  1.5095 -0.9855
  864MOL0     H16637   9.975   4.671   2.576  0.1121  1.2806  0.1816
  864MOL0     H16638   9.812   5.010   2.365  3.3201  0.9531  1.8626
  864MOL0     H16639   9.383   4.544   2.654  0.2579 -0.6252 -0.1815
  864MOL0     H16640   9.170   4.520   2.752 -2.2562  2.8377  1.5851
  865MOL0     O16641   1.377   5.968   5.513  0.3527 -1.0194  0.2532
  865MOL0     C16642   1.327   6.074   5.458  0.8280  0.5725  0.9610
  865MOL0     O16643   1.196   6.086   5.422  0.1922 -0.0372 -0.7285
  865MOL0     C16644   1.120   5.985   5.456  0.2739  0.3217  0.1298
  865MOL0     C16645   1.126   5.866   5.379 -0.1204  0.6037 -0.0150
  865MOL0     C16646   1.055   5.756   5.419  0.8269  0.2419  0.8735
  865MOL0     C16647   0.959   5.763   5.519  0.2833  0.0607 -0.2781
  865MOL0     O16648   0.883   5.645   5.547 -0.5807 -0.1047  0.1077
  865MOL0     C16649   0.807   5.647   5.675 -0.0049  0.1681  0.4757
  865MOL0     C16650   0.746   5.512   5.702  0.3145 -0.7216 -0.3581
  865MOL0     C16651   0.657   5.456   5.586  0.3474  0.4210  0.1356
  865MOL0     C16652   0.625   5.308   5.619  0.3374 -0.0393 -0.6451
  865MOL0     C16653   0.491   5.293   5.696 -0.0391 -0.7878 -0.0980
  865MOL0     C16654   0.376   5.328   5.589  0.3992  0.3734  0.6251
  865MOL0     C16655   0.237   5.302   5.645 -0.1347 -0.7269 -0.5993
  865MOL0     C16656   0.197   5.155   5.654  0.6837  1.3447 -0.2720
  865MOL0     N16657   0.058   5.154   5.715 -0.6779 -0.6290 -0.1103
  865MOL0     C16658  -0.007   5.237   5.807 -1.4574 -0.3190  0.5670
  865MOL0     C16659  -0.138   5.208   5.796  0.3899  0.1747 -0.5028
  865MOL0     C16660  -0.253   5.274   5.872  0.0353  0.5936  0.2828
  865MOL0     C16661  -0.306   5.397   5.802 -0.5630 -0.2845 -0.5217
  865MOL0     C16662  -0.436   5.447   5.877 -0.8121  0.7534  0.5454
  865MOL0     C16663  -0.503   5.556   5.796  0.7538 -0.2872 -0.9149
  865MOL0     O16664  -0.559   5.645   5.886  0.7363 -0.2358 -0.4019
  865MOL0     C16665  -0.679   5.602   5.939 -0.3812  0.4106 -0.0249
  865MOL0     C16666  -0.704   5.669   6.054  0.7608  0.4423  0.7636
  865MOL0     C16667  -0.814   5.642   6.132  0.1410  0.4270  0.1203
  865MOL0     C16668  -0.840   5.729   6.252  0.1669  0.2601 -0.2613
  865MOL0     C16669  -0.916   5.551   6.089 -0.5646  0.1083  0.0395
  865MOL0     C16670  -1.041   5.527   6.160 -0.4750  0.3874  0.1926
  865MOL0     O16671  -1.041   5.544   6.292 -0.6130 -0.8817 -0.2925
  865MOL0     C16672  -1.140   5.610   6.365 -0.5875  0.4279 -0.8454
  865MOL0     C16673  -1.113   5.652   6.497  0.6212 -0.2419  1.0498
  865MOL0     C16674  -1.221   5.691   6.579 -0.4491 -0.7690 -0.4972
  865MOL0     C16675  -1.343   5.728   6.532  0.0149 -0.7495 -0.3335
  865MOL0     O16676  -1.436   5.799   6.603  0.4010 -0.0781 -0.8718
  865MOL0     C16677  -1.395   5.909   6.681  0.2431 -0.4662  0.4132
  865MOL0     C16678  -1.521   5.989   6.681 -0.0505  0.2931 -0.3262
  865MOL0     C16679  -1.546   6.059   6.539  0.7469  0.3146  0.4679
  865MOL0     C16680  -1.578   6.207   6.565 -0.5519 -0.4601  0.2403
  865MOL0     C16681  -1.713   6.232   6.633 -0.1992  0.4338  0.6520
  865MOL0     C16682  -1.742   6.373   6.686 -0.2078  0.1836 -0.2874
  865MOL0     C16683  -1.893   6.380   6.734  0.5630 -0.6599  0.6245
  865MOL0     C16684  -1.936   6.512   6.803  0.2493 -0.2720  0.7374
  865MOL0    Cl16685  -2.104   6.501   6.849  0.7179 -0.5199 -0.7155
  865MOL0     C16686  -1.370   5.689   6.402  0.1801  0.9005 -0.5783
  865MOL0     C16687  -1.272   5.628   6.319 -0.8942 -0.6250  0.4483
  865MOL0     O16688  -1.133   5.466   6.100 -0.2102  0.1252  1.1406
  865MOL0     C16689  -0.897   5.487   5.968 -1.0135  0.2351 -0.7422
  865MOL0     C16690  -0.778   5.507   5.896  0.4484  0.6652 -0.0492
  865MOL0     N16691  -0.152   5.102   5.710 -0.1401  0.2331 -0.2002
  865MOL0     N16692  -0.039   5.067   5.669  0.1422 -0.0972 -0.4307
  865MOL0     C16693   0.948   5.888   5.590 -0.5739 -0.8978 -0.7953
  865MOL0     C16694   1.022   5.999   5.556 -0.6192  0.7003  0.4967
  865MOL0     C16695   1.421   6.187   5.413  0.7466 -0.4589  0.0967
  865MOL0     C16696   1.553   6.186   5.447 -0.5046  0.1996 -0.5743
  865MOL0     C16697   1.644   6.285   5.402  0.8591 -0.1318  0.5949
  865MOL0     C16698   1.603   6.387   5.318 -0.8272  0.2238 -0.5711
  865MOL0     O16699   1.677   6.497   5.277 -0.4159  0.3777 -1.0713
  865MOL0     C16700   1.743   6.456   5.156 -0.3947 -0.4919 -0.8171
  865MOL0     C16701   1.784   6.577   5.071  0.5658 -0.0960 -0.5089
  865MOL0     C16702   1.906   6.639   5.128 -0.4723 -0.4201 -0.1359
  865MOL0     C16703   1.952   6.769   5.053  0.1056 -1.1139  1.0733
  865MOL0     C16704   1.967   6.751   4.903  0.1205 -0.3654  0.5999
  865MOL0     C16705   1.960   6.721   4.787  0.9992 -0.2757 -0.1935
  865MOL0     C16706   1.473   6.381   5.279 -0.0685  0.3318  1.4290
  865MOL0     C16707   1.387   6.289   5.333 -0.2468  0.0100  0.1958
  865MOL0     H16708   1.196   5.863   5.296  2.0747  0.8755  1.7188
  865MOL0     H16709   1.074   5.659   5.374  2.6903 -0.5094  3.0866
  865MOL0     H16710   0.868   5.678   5.761  1.7368  1.0737 -1.0113
  865MOL0     H16711   0.716   5.705   5.658 -0.8259 -1.4194 -0.7630
  865MOL0     H16712   0.825   5.445   5.737  1.7801  1.2827  0.3714
  865MOL0     H16713   0.689   5.528   5.794  2.9746 -3.2275  1.8976
  865MOL0     H16714   0.569   5.517   5.566 -3.4369 -2.7229  4.8249
  865MOL0     H16715   0.717   5.465   5.495  0.1372  0.1675 -0.0315
  865MOL0     H16716   0.605   5.253   5.527 -1.4748 -1.8349  0.7028
  865MOL0     H16717   0.708   5.260   5.671  0.5102  1.0173  0.0749
  865MOL0     H16718   0.475   5.195   5.743 -1.1449 -0.4574  0.2379
  865MOL0     H16719   0.485   5.367   5.777 -0.4129 -0.4321 -0.4465
  865MOL0     H16720   0.370   5.435   5.568 -0.1728  0.1977 -0.1537
  865MOL0     H16721   0.384   5.278   5.492  2.3374  1.3863  0.2145
  865MOL0     H16722   0.230   5.355   5.741 -0.6730 -1.2832 -0.3276
  865MOL0     H16723   0.162   5.347   5.579  0.2073  0.6334 -0.1002
  865MOL0     H16724   0.265   5.089   5.710 -2.9398 -2.2975  0.3442
  865MOL0     H16725   0.198   5.096   5.562 -4.3834 -2.3419  1.5329
  865MOL0     H16726   0.046   5.316   5.859  3.0101 -0.5687 -2.9847
  865MOL0     H16727  -0.331   5.198   5.883  2.4962 -1.8391  1.9336
  865MOL0     H16728  -0.226   5.300   5.975 -0.4312 -3.5335  1.6189
  865MOL0     H16729  -0.321   5.385   5.694  0.1397  3.0800 -1.1105
  865MOL0     H16730  -0.234   5.478   5.808  2.0108 -2.5509  2.2123
  865MOL0     H16731  -0.418   5.473   5.982 -3.2547  0.7731  1.0178
  865MOL0     H16732  -0.507   5.365   5.884 -0.9723  0.9769  1.6638
  865MOL0     H16733  -0.568   5.534   5.711 -0.6872 -1.3839  0.4052
  865MOL0     H16734  -0.425   5.623   5.758 -2.3455  4.9792  0.8688
  865MOL0     H16735  -0.629   5.736   6.094  1.3585 -0.5796  1.4048
  865MOL0     H16736  -0.773   5.816   6.257  0.4323 -0.0118  1.3471
  865MOL0     H16737  -0.945   5.760   6.247  0.0295 -0.2910 -0.8967
  865MOL0     H16738  -0.830   5.674   6.346 -1.5520 -1.6860 -1.1347
  865MOL0     H16739  -1.019   5.613   6.536  1.0443 -1.6969 -1.2616
  865MOL0     H16740  -1.214   5.698   6.687 -0.8397  0.7405 -0.5556
  865MOL0     H16741  -1.360   5.897   6.783 -3.3811 -0.0977  1.8614
  865MOL0     H16742  -1.322   5.971   6.627 -2.2853  2.5458  0.1246
  865MOL0     H16743  -1.604   5.924   6.711  0.4919  0.9768  2.9351
  865MOL0     H16744  -1.502   6.066   6.756  0.6966 -0.1015 -0.1063
  865MOL0     H16745  -1.634   6.009   6.498 -1.2041  2.8188  1.3961
  865MOL0     H16746  -1.458   6.049   6.474  0.3579  0.6069 -0.1112
  865MOL0     H16747  -1.493   6.241   6.624 -1.1790  2.2428 -0.2751
  865MOL0     H16748  -1.575   6.256   6.467  0.1400  2.2889  1.5282
  865MOL0     H16749  -1.712   6.171   6.724 -0.7265 -1.0015 -0.2682
  865MOL0     H16750  -1.792   6.210   6.561  0.6308 -1.0117  0.1476
  865MOL0     H16751  -1.683   6.387   6.778  0.2620  2.4610 -0.8557
  865MOL0     H16752  -1.711   6.452   6.616 -1.4058  0.0820 -0.9500
  865MOL0     H16753  -1.909   6.297   6.803 -2.5633 -4.1784 -3.7575
  865MOL0     H16754  -1.948   6.368   6.641  0.5178 -0.1322  0.5831
  865MOL0     H16755  -1.911   6.603   6.748 -0.2259  1.2987  2.9942
  865MOL0     H16756  -1.883   6.520   6.898  1.6428  1.9351 -0.1470
  865MOL0     H16757  -1.472   5.708   6.368  0.4721  1.8621 -0.9444
  865MOL0     H16758  -1.310   5.590   6.225  1.3422 -2.3700  0.1653
  865MOL0     H16759  -0.966   5.413   5.928 -0.3130  1.2318 -4.1194
  865MOL0     H16760  -0.755   5.439   5.815  3.2302  2.9483 -1.3508
  865MOL0     H16761   0.865   5.907   5.658 -0.0407  1.5768 -0.7821
  865MOL0     H16762   1.004   6.102   5.585  0.3021  1.5107 -1.5538
  865MOL0     H16763   1.579   6.106   5.517 -3.0281 -0.0648  0.1514
  865MOL0     H16764   1.740   6.268   5.448 -1.5036 -1.8690  5.6785
  865MOL0     H16765   1.830   6.391   5.163  1.0442  1.3543 -0.7019
  865MOL0     H16766   1.672   6.397   5.098 -0.6797 -1.7895  0.7642
  865MOL0     H16767   1.718   6.664   5.065  1.7718  0.8826  0.0496
  865MOL0     H16768   1.798   6.531   4.973 -1.8527 -1.9401 -0.0885
  865MOL0     H16769   1.990   6.569   5.127 -0.6566 -0.6934  1.0021
  865MOL0     H16770   1.883   6.682   5.226 -2.0032  1.9666 -1.4498
  865MOL0     H16771   2.046   6.800   5.099 -0.0976 -0.6150  1.1552
  865MOL0     H16772   1.875   6.845   5.067  1.1566 -0.1682  1.8397
  865MOL0     H16773   1.938   6.709   4.683  0.5008 -0.5187 -0.0645
  865MOL0     H16774   1.432   6.466   5.226  2.3844  2.1009  2.1952
  865MOL0     H16775   1.282   6.302   5.310 -1.0279 -2.0680  2.1598
  866MOL0     O16776   0.894   0.620   1.583 -0.3361 -0.7703 -0.5540
  866MOL0     C16777   0.938   0.523   1.515  0.2770 -0.7836  0.0016
  866MOL0     O16778   0.864   0.437   1.434 -0.3118 -0.2307  0.2145
  866MOL0     C16779   0.733   0.462   1.405  0.2830 -0.1720 -1.2245
  866MOL0     C16780   0.692   0.506   1.284  0.2128 -0.4545 -0.3039
  866MOL0     C16781   0.555   0.523   1.264 -0.0772  0.1260 -0.2827
  866MOL0     C16782   0.462   0.480   1.361  0.1008 -0.6469  0.1912
  866MOL0     O16783   0.331   0.496   1.328  0.2567  0.0697  0.0296
  866MOL0     C16784   0.228   0.514   1.432 -0.5392 -1.1236 -0.8372
  866MOL0     C16785   0.158   0.655   1.418  0.1278  0.6737 -0.6276
  866MOL0     C16786   0.070   0.661   1.293  0.7595 -0.1239  0.3069
  866MOL0     C16787  -0.074   0.719   1.337 -0.0819  0.5267  0.2795
  866MOL0     C16788  -0.167   0.695   1.221 -0.2079  0.2408  0.6379
  866MOL0     C16789  -0.315   0.732   1.242 -0.5818 -0.3817 -0.4211
  866MOL0     C16790  -0.388   0.778   1.121 -0.0263 -0.3321 -0.3465
  866MOL0     C16791  -0.536   0.821   1.143 -1.6923  0.7990  0.0477
  866MOL0     N16792  -0.624   0.834   1.027  0.1707 -0.3671 -0.5046
  866MOL0     C16793  -0.725   0.751   0.985 -0.1505 -0.2255 -0.5499
  866MOL0     C16794  -0.777   0.824   0.881 -0.7864 -0.1029 -0.4038
  866MOL0     C16795  -0.886   0.775   0.792  0.9579 -0.0572  0.1812
  866MOL0     C16796  -1.030   0.808   0.839  0.1519 -1.3171  0.0094
  866MOL0     C16797  -1.141   0.760   0.751  0.3958 -0.1875 -0.1504
  866MOL0     C16798  -1.279   0.789   0.803 -0.2013 -0.0799 -0.2843
  866MOL0     O16799  -1.306   0.933   0.794  0.3742  0.4800  0.1767
  866MOL0     C16800  -1.437   0.959   0.747 -0.3528 -0.0646 -0.6588
  866MOL0     C16801  -1.437   0.997   0.607  1.0172 -0.7375 -0.1807
  866MOL0     C16802  -1.561   1.015   0.545  0.7301 -0.6701  0.1664
  866MOL0     C16803  -1.560   1.054   0.398 -0.1222  0.1922  0.3374
  866MOL0     C16804  -1.682   1.000   0.626 -0.2475  0.2934  0.4929
  866MOL0     C16805  -1.821   1.009   0.565  0.1611  0.1337 -0.8738
  866MOL0     O16806  -1.846   0.965   0.436  0.2867 -0.8723  0.3274
  866MOL0     C16807  -1.965   0.975   0.370  0.8056 -0.6225 -0.4296
  866MOL0     C16808  -2.073   0.896   0.401  0.3973  0.5822 -0.2485
  866MOL0     C16809  -2.200   0.905   0.329 -0.5998 -0.5643 -0.6890
  866MOL0     C16810  -2.214   1.008   0.237 -0.7146  0.7510 -0.2584
  866MOL0     O16811  -2.326   1.037   0.156 -1.1679 -0.0874 -0.0544
  866MOL0     C16812  -2.439   0.946   0.161 -0.2721  0.0796  0.3633
  866MOL0     C16813  -2.550   0.996   0.062 -1.3384 -0.6444  1.1613
  866MOL0     C16814  -2.611   1.130   0.112  0.1888 -0.2780  0.0589
  866MOL0     C16815  -2.722   1.200   0.035  0.9807 -1.1867  0.0754
  866MOL0     C16816  -2.784   1.319   0.117 -0.0938 -0.1263 -0.1271
  866MOL0     C16817  -2.931   1.323   0.112 -0.3389 -0.4341  0.6920
  866MOL0     C16818  -2.992   1.200   0.178 -0.0420 -0.1536 -0.0231
  866MOL0     C16819  -3.136   1.234   0.228 -0.3990  1.1264  0.0930
  866MOL0    Cl16820  -3.127   1.368   0.346  0.1533  0.6427  0.1923
  866MOL0     C16821  -2.101   1.078   0.205  0.0771 -0.6807 -0.4085
  866MOL0     C16822  -1.977   1.062   0.265  0.2040 -0.2658  0.2510
  866MOL0     O16823  -1.907   1.039   0.644  0.5406  0.2354  0.4118
  866MOL0     C16824  -1.671   0.966   0.758  0.3467  0.6464  0.1064
  866MOL0     C16825  -1.551   0.939   0.823 -0.3531  0.4025  0.4782
  866MOL0     N16826  -0.698   0.931   0.856  0.2384  0.0341 -0.4144
  866MOL0     N16827  -0.622   0.953   0.956 -0.1118 -0.1866 -0.0547
  866MOL0     C16828   0.513   0.448   1.486 -0.5898  0.5701 -0.1373
  866MOL0     C16829   0.645   0.430   1.508  0.4941  0.0715  0.7244
  866MOL0     C16830   1.083   0.516   1.508  0.3776  0.6754 -1.1383
  866MOL0     C16831   1.165   0.573   1.600 -0.2486  0.1903  0.2404
  866MOL0     C16832   1.307   0.577   1.576  0.9228 -0.0429 -0.1330
  866MOL0     C16833   1.365   0.512   1.466 -0.7734 -0.4571 -0.6464
  866MOL0     O16834   1.497   0.512   1.431 -0.1504  0.0712  0.2258
  866MOL0     C16835   1.585   0.581   1.519 -0.5595 -0.6127 -0.6688
  866MOL0     C16836   1.731   0.564   1.471 -0.4633 -0.0456  0.7732
  866MOL0     C16837   1.738   0.635   1.336 -0.7746  0.1971  0.4828
  866MOL0     C16838   1.893   0.643   1.302  0.1451 -0.1762 -0.0850
  866MOL0     C16839   1.929   0.722   1.193 -0.5754 -1.0623 -0.3412
  866MOL0     C16840   1.943   0.788   1.091 -0.1941  0.6897 -0.4112
  866MOL0     C16841   1.278   0.436   1.388 -0.1890 -0.4330  0.9286
  866MOL0     C16842   1.145   0.432   1.398  0.0057 -0.6206 -0.7178
  866MOL0     H16843   0.772   0.533   1.216 -0.5169  0.9922 -0.6363
  866MOL0     H16844   0.528   0.556   1.164  1.3695  2.2313 -0.0310
  866MOL0     H16845   0.153   0.434   1.435  0.0486 -1.7275  2.5974
  866MOL0     H16846   0.259   0.523   1.537 -1.5530  0.1454 -0.6218
  866MOL0     H16847   0.103   0.674   1.511  1.2579  0.0858  0.1863
  866MOL0     H16848   0.237   0.729   1.399 -0.4381  1.5070  0.1399
  866MOL0     H16849   0.119   0.714   1.211  2.7763  1.4503  2.3937
  866MOL0     H16850   0.041   0.558   1.269  1.5714 -0.6202  1.3770
  866MOL0     H16851  -0.120   0.660   1.418 -0.0150 -1.1517 -0.8435
  866MOL0     H16852  -0.067   0.824   1.366  0.8913  0.2399  1.1327
  866MOL0     H16853  -0.130   0.757   1.139 -1.6225  0.8107  0.3935
  866MOL0     H16854  -0.161   0.592   1.184  3.0923  0.9802 -1.3103
  866MOL0     H16855  -0.368   0.645   1.280 -0.6528  1.3049  3.9443
  866MOL0     H16856  -0.320   0.805   1.324  1.7252  0.1879 -0.7270
  866MOL0     H16857  -0.329   0.854   1.070 -1.9850  0.2208 -1.9038
  866MOL0     H16858  -0.370   0.701   1.045  1.4372  0.8972 -1.3011
  866MOL0     H16859  -0.546   0.915   1.198 -0.3693  1.0071 -0.0413
  866MOL0     H16860  -0.591   0.751   1.206 -2.8720  1.3367 -0.3364
  866MOL0     H16861  -0.760   0.656   1.024 -0.7754  0.1958 -0.0699
  866MOL0     H16862  -0.879   0.820   0.692 -1.3991  5.1666  1.9789
  866MOL0     H16863  -0.883   0.666   0.789 -0.8067 -0.1495  0.4322
  866MOL0     H16864  -1.050   0.915   0.831 -1.5910 -1.5712  0.5089
  866MOL0     H16865  -1.049   0.775   0.942 -0.2254 -1.9860 -0.2642
  866MOL0     H16866  -1.141   0.650   0.749 -2.2671 -0.3908  3.1380
  866MOL0     H16867  -1.136   0.803   0.650 -0.3300  1.7679  0.6113
  866MOL0     H16868  -1.296   0.760   0.907 -0.1570  3.4150  0.8248
  866MOL0     H16869  -1.342   0.729   0.737  0.4402 -2.2798  1.0109
  866MOL0     H16870  -1.343   1.009   0.555  1.9941 -0.5074  1.5533
  866MOL0     H16871  -1.580   0.971   0.329 -1.2366  0.4925  0.2722
  866MOL0     H16872  -1.644   1.123   0.384 -1.2733 -1.6852 -3.4859
  866MOL0     H16873  -1.475   1.112   0.361  1.3234 -0.8281  1.9383
  866MOL0     H16874  -2.051   0.833   0.487  1.3000 -1.3211 -1.7911
  866MOL0     H16875  -2.284   0.838   0.347  0.5190 -1.9609 -0.5147
  866MOL0     H16876  -2.409   0.842   0.146  1.4357  0.8693 -2.3762
  866MOL0     H16877  -2.499   0.951   0.253 -0.3697  1.2716  0.2538
  866MOL0     H16878  -2.501   1.009  -0.035 -0.0462  1.5786  2.0389
  866MOL0     H16879  -2.628   0.919   0.060 -2.7468  0.7042  1.4484
  866MOL0     H16880  -2.538   1.211   0.118  0.2524 -0.4495  2.8108
  866MOL0     H16881  -2.658   1.106   0.208 -1.2449  1.2665 -0.2130
  866MOL0     H16882  -2.679   1.234  -0.060  0.5987  2.8953  1.1959
  866MOL0     H16883  -2.805   1.131   0.015  1.4212 -1.5707 -0.4581
  866MOL0     H16884  -2.741   1.416   0.091  1.3175 -0.4278  0.9160
  866MOL0     H16885  -2.755   1.307   0.222  0.3408 -3.1693 -0.4977
  866MOL0     H16886  -2.953   1.418   0.163  0.7494  1.3671 -1.9851
  866MOL0     H16887  -2.959   1.335   0.007 -2.6553 -2.0303  1.0466
  866MOL0     H16888  -2.935   1.167   0.266  0.6499  0.4613 -0.2354
  866MOL0     H16889  -2.993   1.113   0.111  4.8620 -1.6921  1.4558
  866MOL0     H16890  -3.189   1.147   0.267 -1.9754 -0.1107 -4.2341
  866MOL0     H16891  -3.193   1.277   0.146 -4.9368 -0.3844  2.1118
  866MOL0     H16892  -2.107   1.157   0.132  0.8781 -3.3394 -3.6259
  866MOL0     H16893  -1.896   1.120   0.222  0.9458 -2.6405 -1.7960
  866MOL0     H16894  -1.765   0.958   0.812  0.3945  0.8286  0.2165
  866MOL0     H16895  -1.543   0.913   0.928  0.6306  1.2662  0.6351
  866MOL0     H16896   0.448   0.409   1.564  0.5285 -1.1212  0.0152
  866MOL0     H16897   0.683   0.407   1.607  1.5446  0.0783  0.3315
  866MOL0     H16898   1.122   0.620   1.688  0.2830  2.7443 -0.7741
  866MOL0     H16899   1.367   0.643   1.638  1.3545  0.7425 -1.3502
  866MOL0     H16900   1.564   0.688   1.528 -2.1682 -0.9104 -0.6114
  866MOL0     H16901   1.583   0.541   1.621  0.0756 -2.5958 -1.3820
  866MOL0     H16902   1.753   0.459   1.451  0.9112  0.5130 -0.9509
  866MOL0     H16903   1.802   0.603   1.544 -1.7572 -0.2752  2.1880
  866MOL0     H16904   1.691   0.733   1.338  1.1715  1.3074 -2.4427
  866MOL0     H16905   1.691   0.578   1.256 -3.9490 -0.2472  2.4833
  866MOL0     H16906   1.931   0.543   1.279  1.0110  0.7876 -3.3416
  866MOL0     H16907   1.953   0.679   1.386  2.2046 -1.1167 -1.0785
  866MOL0     H16908   1.953   0.854   1.008  0.4468  0.8285 -0.2268
  866MOL0     H16909   1.323   0.373   1.313  0.0289  2.4208 -1.5130
  866MOL0     H16910   1.087   0.371   1.328 -0.3091 -0.9544 -0.1721
  867MOL0     O16911  10.983   1.074   5.245 -0.5511 -0.8429  0.1392
  867MOL0     C16912  11.077   1.000   5.280  0.7864  0.7911 -0.4984
  867MOL0     O16913  11.102   0.872   5.225  0.5083 -0.3868 -0.4763
  867MOL0     C16914  11.024   0.829   5.115 -0.5146  0.3255 -0.0122
  867MOL0     C16915  10.883   0.817   5.119 -0.1162 -0.0040  1.3387
  867MOL0     C16916  10.816   0.746   5.015  0.1485 -0.2394 -0.6556
  867MOL0     C16917  10.885   0.698   4.908 -0.3118  0.3879 -0.3575
  867MOL0     O16918  10.825   0.604   4.822 -0.3763  0.0314 -0.3068
  867MOL0     C16919  10.819   0.660   4.688 -0.1307  0.0224 -0.4681
  867MOL0     C16920  10.686   0.729   4.662 -0.0011  0.5548 -0.5563
  867MOL0     C16921  10.697   0.820   4.546  0.1248 -1.2137  0.0102
  867MOL0     C16922  10.564   0.891   4.514 -0.2710 -0.4608 -0.0463
  867MOL0     C16923  10.572   0.989   4.394  0.5543  0.6266 -0.0167
  867MOL0     C16924  10.443   1.068   4.411  0.3157 -0.6387 -0.7656
  867MOL0     C16925  10.445   1.192   4.320 -0.3769 -0.2395 -0.2505
  867MOL0     C16926  10.315   1.277   4.331 -0.0446  0.0966 -0.6376
  867MOL0     N16927  10.185   1.209   4.301  0.3460 -0.5195 -0.0002
  867MOL0     C16928  10.147   1.146   4.186 -0.0127  0.4312  0.0507
  867MOL0     C16929  10.015   1.106   4.209  0.1758  0.3417 -0.1811
  867MOL0     C16930   9.926   1.027   4.113 -0.1904  0.4258 -0.0501
  867MOL0     C16931   9.801   1.113   4.076 -0.2158 -0.8513 -0.2575
  867MOL0     C16932   9.734   1.051   3.961  0.4226  0.4846  0.7844
  867MOL0     C16933   9.581   1.079   3.946 -0.3621  0.4515 -0.2575
  867MOL0     O16934   9.528   1.011   3.826 -0.2977 -0.4144  0.8017
  867MOL0     C16935   9.392   0.980   3.814 -0.1961 -0.3509  0.4621
  867MOL0     C16936   9.353   0.864   3.750 -1.1810 -0.1307 -0.2650
  867MOL0     C16937   9.217   0.831   3.740 -0.1978  0.1332 -0.6430
  867MOL0     C16938   9.195   0.692   3.689  0.6422  0.5806  0.2845
  867MOL0     C16939   9.116   0.924   3.782  0.7383  0.0908 -0.0864
  867MOL0     C16940   8.967   0.892   3.774 -1.4207  0.3081 -0.2074
  867MOL0     O16941   8.889   0.998   3.778  0.0052 -0.2292  0.9233
  867MOL0     C16942   8.751   0.970   3.781  0.7130  0.0675 -0.7649
  867MOL0     C16943   8.689   0.932   3.904  1.7968  0.1604 -0.4114
  867MOL0     C16944   8.552   0.899   3.908 -0.5541  0.7438  0.0354
  867MOL0     C16945   8.465   0.934   3.796 -0.0835  0.4603  0.0631
  867MOL0     O16946   8.330   0.905   3.797 -0.1229  0.1238  0.7170
  867MOL0     C16947   8.268   0.961   3.925 -0.1768 -0.0403  0.6174
  867MOL0     C16948   8.115   0.978   3.916  0.1619  0.4805 -0.5065
  867MOL0     C16949   8.060   0.839   3.930  0.4424  0.0674 -0.5864
  867MOL0     C16950   7.906   0.843   3.937  0.6360  0.2533  0.7749
  867MOL0     C16951   7.859   0.698   3.952  1.0657  0.0512 -0.1816
  867MOL0     C16952   7.704   0.660   3.949 -0.6540 -0.6731  0.2344
  867MOL0     C16953   7.624   0.723   4.065  0.1786  0.3785  0.1050
  867MOL0     C16954   7.486   0.671   4.066 -0.3997  0.6970  0.2837
  867MOL0    Cl16955   7.413   0.712   4.221 -0.0282  0.0480 -0.0606
  867MOL0     C16956   8.524   0.993   3.682 -0.1296 -0.4956  0.5958
  867MOL0     C16957   8.667   1.012   3.676 -0.0583 -0.1561  0.1461
  867MOL0     O16958   8.928   0.775   3.769 -0.6593 -0.0689  0.1918
  867MOL0     C16959   9.156   1.044   3.837  0.1267  0.0295 -0.0339
  867MOL0     C16960   9.289   1.063   3.865 -0.2911 -1.2151  0.1032
  867MOL0     N16961   9.991   1.135   4.343 -0.2632  0.2657 -0.1409
  867MOL0     N16962  10.087   1.209   4.392 -0.2535 -0.1645 -0.3918
  867MOL0     C16963  11.021   0.712   4.906  0.4061  0.2134  0.3018
  867MOL0     C16964  11.093   0.775   5.007 -0.8345  0.3291 -0.1277
  867MOL0     C16965  11.170   1.054   5.386  0.9130  0.5661  0.2384
  867MOL0     C16966  11.296   1.005   5.411  0.5431 -0.2064  0.0855
  867MOL0     C16967  11.375   1.058   5.509  0.4467  0.1287  0.0849
  867MOL0     C16968  11.337   1.166   5.590  0.6582 -0.1461  0.5865
  867MOL0     O16969  11.407   1.226   5.685 -0.3631 -0.1743 -0.0376
  867MOL0     C16970  11.551   1.215   5.689  0.5525  0.0208 -0.8044
  867MOL0     C16971  11.603   1.284   5.821 -0.0105  0.0256  0.2537
  867MOL0     C16972  11.593   1.434   5.794  0.2372 -0.5873 -0.6567
  867MOL0     C16973  11.626   1.533   5.912 -0.2901  0.4251 -0.0092
  867MOL0     C16974  11.550   1.533   6.035 -0.6388  0.1265  0.2806
  867MOL0     C16975  11.508   1.509   6.145  0.0955 -0.0615 -0.3666
  867MOL0     C16976  11.206   1.221   5.565 -0.4961 -0.2103  0.3356
  867MOL0     C16977  11.128   1.156   5.468 -0.4696 -0.2036 -0.0114
  867MOL0     H16978  10.825   0.870   5.194 -1.8646  2.1740 -1.3212
  867MOL0     H16979  10.711   0.721   5.024  0.5500 -2.7992 -1.9658
  867MOL0     H16980  10.906   0.725   4.672  0.6983 -1.0845 -0.5966
  867MOL0     H16981  10.831   0.577   4.618 -3.0542 -0.6722 -0.2745
  867MOL0     H16982  10.615   0.648   4.646  2.3041 -1.7830  0.2504
  867MOL0     H16983  10.649   0.783   4.750 -1.0248 -2.3725  0.9382
  867MOL0     H16984  10.765   0.903   4.569 -0.5793 -0.4919 -0.4277
  867MOL0     H16985  10.734   0.771   4.455  2.8425 -1.3657  1.0918
  867MOL0     H16986  10.491   0.816   4.483 -0.9446  0.0420  0.3114
  867MOL0     H16987  10.547   0.945   4.607 -3.2958 -1.8997  0.3584
  867MOL0     H16988  10.662   1.051   4.398  1.5548 -0.6195 -1.7475
  867MOL0     H16989  10.580   0.922   4.308  1.3675 -0.6295  0.9830
  867MOL0     H16990  10.360   0.999   4.390  2.1855 -3.3826  0.2177
  867MOL0     H16991  10.442   1.101   4.515  0.7874 -2.5494 -0.1050
  867MOL0     H16992  10.543   1.232   4.346 -1.5825  0.8802  3.1858
  867MOL0     H16993  10.455   1.166   4.214 -1.6753  0.7802 -0.6456
  867MOL0     H16994  10.323   1.365   4.266  0.6320 -0.8076 -1.8200
  867MOL0     H16995  10.311   1.317   4.432 -3.6485 -1.8455  0.1480
  867MOL0     H16996  10.208   1.120   4.100 -1.3603 -4.1756  0.2139
  867MOL0     H16997   9.984   1.000   4.024  0.9264  2.6901 -0.0629
  867MOL0     H16998   9.880   0.941   4.162 -1.3459  1.4259  0.6896
  867MOL0     H16999   9.834   1.214   4.049 -1.8239  0.5710  2.6431
  867MOL0     H17000   9.728   1.110   4.157 -0.9072  1.5735 -0.6944
  867MOL0     H17001   9.728   0.942   3.972 -0.1926  0.0560 -2.6139
  867MOL0     H17002   9.787   1.070   3.867 -2.4579  1.5172 -0.7521
  867MOL0     H17003   9.559   1.185   3.954  2.4384  1.0787  0.4695
  867MOL0     H17004   9.534   1.031   4.033 -1.2049  3.3369  0.9957
  867MOL0     H17005   9.426   0.788   3.726 -3.5063 -2.3390 -0.6420
  867MOL0     H17006   9.290   0.640   3.673  1.3149  2.0113 -0.5748
  867MOL0     H17007   9.122   0.630   3.742 -0.7027  1.8237 -0.0606
  867MOL0     H17008   9.151   0.710   3.591  3.5789 -0.6839 -1.3894
  867MOL0     H17009   8.747   0.919   3.995 -0.5007  0.0436  1.1074
  867MOL0     H17010   8.522   0.852   4.001  3.4259 -1.7040  0.3109
  867MOL0     H17011   8.291   0.887   4.001 -0.6360 -2.0657 -1.1187
  867MOL0     H17012   8.318   1.059   3.933  1.2154 -0.1648 -3.7814
  867MOL0     H17013   8.081   1.039   4.000  0.8255 -1.2439  1.0912
  867MOL0     H17014   8.086   1.011   3.816  0.6489  0.0226 -0.8083
  867MOL0     H17015   8.089   0.793   4.025  1.1897  1.3416 -0.1790
  867MOL0     H17016   8.086   0.776   3.844  2.1278  1.0232 -0.8142
  867MOL0     H17017   7.866   0.911   4.013  1.1549  0.3527  0.9626
  867MOL0     H17018   7.869   0.886   3.844  0.6409  1.9725  1.5370
  867MOL0     H17019   7.896   0.660   4.048  1.2640 -3.0971 -1.3788
  867MOL0     H17020   7.903   0.627   3.882 -0.8934 -1.7633  0.2914
  867MOL0     H17021   7.673   0.718   3.862  2.1198 -0.0787 -0.4510
  867MOL0     H17022   7.687   0.552   3.940 -0.3448 -0.5358 -4.0152
  867MOL0     H17023   7.626   0.832   4.051  0.0405  0.5810  1.5087
  867MOL0     H17024   7.666   0.700   4.163 -1.6375 -3.3918  0.1574
  867MOL0     H17025   7.490   0.561   4.059 -0.9920  0.6771  0.2658
  867MOL0     H17026   7.417   0.706   3.989 -2.8749 -0.6446  1.7581
  867MOL0     H17027   8.458   1.026   3.603  0.4051 -1.8808 -0.4567
  867MOL0     H17028   8.708   1.059   3.587  0.6870 -1.3249 -0.1543
  867MOL0     H17029   9.084   1.120   3.865  1.1073  1.6407 -1.6446
  867MOL0     H17030   9.321   1.151   3.919  0.0977 -1.1522 -0.2277
  867MOL0     H17031  11.068   0.663   4.822 -0.7440 -2.7802  1.2564
  867MOL0     H17032  11.201   0.778   5.011 -0.8107 -1.0842  0.9185
  867MOL0     H17033  11.318   0.911   5.362 -0.2947 -0.3939  0.0627
  867MOL0     H17034  11.473   1.015   5.528  2.6699  3.9203 -1.5807
  867MOL0     H17035  11.584   1.111   5.696  1.3831  0.0105 -3.7539
  867MOL0     H17036  11.600   1.243   5.596 -0.8197 -1.1664 -1.9243
  867MOL0     H17037  11.706   1.255   5.843  0.3655  1.0035 -0.1711
  867MOL0     H17038  11.544   1.250   5.907  0.0240  0.5356  0.4834
  867MOL0     H17039  11.491   1.463   5.768 -0.2070  1.3225  2.6584
  867MOL0     H17040  11.665   1.462   5.717 -1.0447  2.2971 -0.9329
  867MOL0     H17041  11.610   1.635   5.876  1.4387  1.6019  2.3305
  867MOL0     H17042  11.732   1.521   5.937 -0.0659 -2.3475 -1.8155
  867MOL0     H17043  11.479   1.500   6.248 -0.6851 -0.6918 -0.6397
  867MOL0     H17044  11.174   1.301   5.631 -0.2585  0.1157  0.0595
  867MOL0     H17045  11.032   1.207   5.461 -0.4436 -0.3189 -1.7572
  868MOL0     O17046   3.806  10.497   6.652  0.2985  0.3303  0.6909
  868MOL0     C17047   3.892  10.574   6.601  0.5404 -0.0136 -0.4718
  868MOL0     O17048   3.869  10.705   6.570 -1.1254 -0.3047 -0.0514
  868MOL0     C17049   3.753  10.762   6.617 -0.0563  0.7835 -0.0480
  868MOL0     C17050   3.696  10.839   6.513  0.3919  0.2683  0.6747
  868MOL0     C17051   3.570  10.895   6.519 -0.0761  0.9318  0.6556
  868MOL0     C17052   3.490  10.895   6.634 -1.1235 -0.0907 -0.6788
  868MOL0     O17053   3.367  10.950   6.641 -1.0744  0.0614 -0.1196
  868MOL0     C17054   3.371  11.094   6.624 -0.4383  0.9688 -0.6011
  868MOL0     C17055   3.371  11.161   6.758 -0.5069  0.2436 -0.5934
  868MOL0     C17056   3.254  11.121   6.854 -0.2385 -0.8212 -0.2373
  868MOL0     C17057   3.274  11.175   6.994 -0.0533 -0.9661  0.2491
  868MOL0     C17058   3.140  11.172   7.068 -0.4244  0.4175 -0.2311
  868MOL0     C17059   3.079  11.037   7.065  0.3279 -0.0648  0.1102
  868MOL0     C17060   2.965  11.035   7.170  0.2057 -0.0834  0.8241
  868MOL0     C17061   2.901  10.906   7.177 -0.2406 -0.2423 -0.6192
  868MOL0     N17062   2.772  10.913   7.248  0.1830  0.1284  0.3448
  868MOL0     C17063   2.646  10.942   7.189  0.0123 -0.1630  0.3946
  868MOL0     C17064   2.561  10.946   7.286  0.6612  0.1952 -0.6909
  868MOL0     C17065   2.410  10.956   7.275 -0.0034 -0.6882 -0.3943
  868MOL0     C17066   2.355  11.067   7.366 -0.0630 -0.5003 -0.2258
  868MOL0     C17067   2.203  11.069   7.356  0.3679 -0.4082 -0.2821
  868MOL0     C17068   2.143  11.214   7.340 -0.4854  0.2331  0.0153
  868MOL0     O17069   2.174  11.289   7.455 -0.1529 -0.2691  0.4402
  868MOL0     C17070   2.102  11.408   7.461 -0.3939  0.2696  0.6274
  868MOL0     C17071   2.166  11.530   7.447  0.3004  0.4538  0.8253
  868MOL0     C17072   2.104  11.649   7.473  0.5338  0.0416  0.6155
  868MOL0     C17073   2.197  11.769   7.454 -0.0744  0.1643 -0.1874
  868MOL0     C17074   1.965  11.659   7.502 -0.2849  0.1220 -0.1980
  868MOL0     C17075   1.887  11.778   7.506 -0.3522  0.6656  0.9761
  868MOL0     O17076   1.753  11.774   7.468 -0.0392  0.0263  0.7281
  868MOL0     C17077   1.687  11.893   7.450  0.1281 -1.0547 -0.0987
  868MOL0     C17078   1.671  11.990   7.553  0.0140  0.4600 -0.4398
  868MOL0     C17079   1.586  12.099   7.541  0.2832  0.1495 -0.4481
  868MOL0     C17080   1.534  12.127   7.423 -0.8890 -0.5168 -0.5150
  868MOL0     O17081   1.485  12.258   7.406  0.8461 -0.0599  0.4072
  868MOL0     C17082   1.438  12.290   7.271 -0.1110  0.4398  0.0036
  868MOL0     C17083   1.389  12.435   7.255 -0.2375  0.2087  0.1375
  868MOL0     C17084   1.258  12.470   7.313  0.0860  0.0185  0.4073
  868MOL0     C17085   1.201  12.606   7.272  0.1493  0.5889  0.5766
  868MOL0     C17086   1.066  12.631   7.343  0.1099 -0.4269 -1.1011
  868MOL0     C17087   1.023  12.772   7.318  0.4478  0.0932 -0.4149
  868MOL0     C17088   0.898  12.820   7.409 -0.2554  0.5319  0.2905
  868MOL0     C17089   0.895  12.966   7.428  0.2185  0.5467 -0.7656
  868MOL0    Cl17090   1.028  13.029   7.537 -0.3440 -0.3460  0.2939
  868MOL0     C17091   1.550  12.035   7.317  0.0980 -1.2964  0.1598
  868MOL0     C17092   1.623  11.923   7.328 -0.0978  0.1098  0.2305
  868MOL0     O17093   1.941  11.875   7.553  0.4542 -0.4392 -0.2561
  868MOL0     C17094   1.899  11.535   7.506 -0.4406 -0.4369 -0.2662
  868MOL0     C17095   1.962  11.413   7.492  0.0343  0.8669  0.1206
  868MOL0     N17096   2.622  10.924   7.407 -0.2253  0.8314  0.1775
  868MOL0     N17097   2.747  10.899   7.386  0.4241 -0.0980  0.9747
  868MOL0     C17098   3.558  10.828   6.744 -0.0020  0.2388  1.3732
  868MOL0     C17099   3.682  10.753   6.736 -0.0968 -1.0769  0.0602
  868MOL0     C17100   4.014  10.514   6.542 -0.1537  0.0209  0.4302
  868MOL0     C17101   4.113  10.593   6.476 -0.0904  0.0157  0.0239
  868MOL0     C17102   4.228  10.532   6.420 -0.0625  0.1856 -0.4256
  868MOL0     C17103   4.257  10.396   6.459  0.1740 -0.7777 -0.2959
  868MOL0     O17104   4.378  10.337   6.448  0.4472 -0.5678  0.1968
  868MOL0     C17105   4.468  10.375   6.339 -0.1984  0.3460 -0.0363
  868MOL0     C17106   4.535  10.252   6.277  0.2374  0.1991  0.0751
  868MOL0     C17107   4.437  10.147   6.208  0.2293  0.3443  0.2311
  868MOL0     C17108   4.521  10.020   6.154  0.0856 -0.0793  0.8566
  868MOL0     C17109   4.570  10.054   6.021  0.2174  0.1951 -0.6076
  868MOL0     C17110   4.610  10.072   5.907 -1.3085  0.3359  0.4299
  868MOL0     C17111   4.160  10.320   6.523  0.1784  0.8793 -0.2541
  868MOL0     C17112   4.032  10.375   6.557 -0.4772  0.9027  0.2102
  868MOL0     H17113   3.747  10.823   6.418 -0.2666 -3.8089  0.8558
  868MOL0     H17114   3.523  10.919   6.424  0.0291  1.3631  0.7083
  868MOL0     H17115   3.470  11.116   6.582 -0.7745  0.1413 -1.8985
  868MOL0     H17116   3.290  11.122   6.556 -0.4975  0.6399 -0.6683
  868MOL0     H17117   3.469  11.145   6.805  0.8944  1.4205 -2.8981
  868MOL0     H17118   3.370  11.268   6.731  2.4529  0.3515 -0.6338
  868MOL0     H17119   3.162  11.163   6.811 -1.1298 -2.1805  0.2740
  868MOL0     H17120   3.257  11.012   6.862  3.8646 -0.7545  1.8063
  868MOL0     H17121   3.343  11.109   7.047  0.0045 -2.6136 -1.7477
  868MOL0     H17122   3.318  11.275   6.992 -1.2459 -0.3933  1.2981
  868MOL0     H17123   3.165  11.199   7.171  0.1343 -1.7189  0.2423
  868MOL0     H17124   3.068  11.240   7.021 -0.9390 -0.0052 -0.0625
  868MOL0     H17125   3.037  11.019   6.965  1.0094 -0.3008 -0.1424
  868MOL0     H17126   3.155  10.961   7.086 -1.6203 -2.2304 -0.2233
  868MOL0     H17127   3.008  11.073   7.263 -2.9259  1.6350  1.6822
  868MOL0     H17128   2.890  11.110   7.143 -0.0869 -1.3908 -2.5451
  868MOL0     H17129   2.958  10.836   7.239  1.8005 -0.5272 -2.6541
  868MOL0     H17130   2.882  10.860   7.080 -2.5538  0.1338 -0.3992
  868MOL0     H17131   2.629  10.946   7.082 -1.8321  0.3884  0.6832
  868MOL0     H17132   2.368  10.978   7.176 -1.6728  0.3107  0.4804
  868MOL0     H17133   2.373  10.860   7.312  3.0069 -1.3337  1.1923
  868MOL0     H17134   2.410  11.159   7.346  0.5156 -0.6547  0.6065
  868MOL0     H17135   2.366  11.029   7.468 -1.5885 -1.1743 -0.2795
  868MOL0     H17136   2.171  11.029   7.452 -2.1432 -0.0386 -0.8963
  868MOL0     H17137   2.165  11.007   7.275 -1.4762 -0.7532  0.8000
  868MOL0     H17138   2.035  11.196   7.352 -0.2502 -0.4296  1.5274
  868MOL0     H17139   2.163  11.255   7.241 -0.8039  0.1607 -0.0796
  868MOL0     H17140   2.275  11.524   7.443  0.2480 -3.0537  1.6601
  868MOL0     H17141   2.281  11.740   7.391 -0.4332 -3.3909  0.7877
  868MOL0     H17142   2.137  11.845   7.403 -0.1975 -0.1746 -0.5430
  868MOL0     H17143   2.235  11.814   7.547  3.3445  0.6519 -1.6785
  868MOL0     H17144   1.729  11.964   7.641  0.8670 -1.1831 -1.4262
  868MOL0     H17145   1.581  12.178   7.614 -2.6538  1.6516 -2.0779
  868MOL0     H17146   1.516  12.270   7.196  2.2927  4.2968  1.1752
  868MOL0     H17147   1.349  12.228   7.257  1.1210 -1.7724  1.3869
  868MOL0     H17148   1.469  12.503   7.289  0.7714 -0.5617 -0.6203
  868MOL0     H17149   1.375  12.460   7.150 -0.2331  3.3867  0.7940
  868MOL0     H17150   1.274  12.465   7.421 -1.4167 -0.2712  0.6338
  868MOL0     H17151   1.183  12.398   7.278 -0.2507  0.9589 -0.8939
  868MOL0     H17152   1.270  12.686   7.301 -0.3334  0.9666  0.7072
  868MOL0     H17153   1.192  12.614   7.164  1.4964  1.0282  0.4787
  868MOL0     H17154   1.077  12.606   7.449 -0.8747 -0.2323 -0.9441
  868MOL0     H17155   0.990  12.560   7.309 -1.6006 -0.4810  2.4104
  868MOL0     H17156   1.107  12.837   7.345  1.1697 -1.3651  1.0158
  868MOL0     H17157   0.995  12.786   7.213 -2.2317 -0.0300  0.2076
  868MOL0     H17158   0.896  12.772   7.507 -1.6693  0.8362  0.4281
  868MOL0     H17159   0.807  12.790   7.356  0.0407  1.3584 -0.7170
  868MOL0     H17160   0.796  12.993   7.465 -0.1974  2.0500 -2.7645
  868MOL0     H17161   0.907  13.011   7.329 -1.3666 -2.2343 -2.3748
  868MOL0     H17162   1.511  12.053   7.218 -0.0880  0.5609  0.5430
  868MOL0     H17163   1.632  11.845   7.254  0.7856  0.3336  0.0880
  868MOL0     H17164   1.791  11.529   7.511 -0.9452 -3.8582 -5.8289
  868MOL0     H17165   1.923  11.314   7.515  0.1084  0.9750  0.7297
  868MOL0     H17166   3.513  10.831   6.842 -0.2678 -0.5573  1.2816
  868MOL0     H17167   3.719  10.699   6.823  0.4690  2.1599  2.0218
  868MOL0     H17168   4.099  10.699   6.456  0.0618 -0.3875 -2.5010
  868MOL0     H17169   4.308  10.583   6.367  0.3918 -1.8598 -1.8382
  868MOL0     H17170   4.425  10.427   6.253 -0.9723  1.8450  1.2121
  868MOL0     H17171   4.532  10.451   6.385  0.3700 -0.4690  0.5453
  868MOL0     H17172   4.594  10.207   6.357  0.6513 -0.6103 -0.6793
  868MOL0     H17173   4.614  10.271   6.205  1.6981 -1.3752  1.1850
  868MOL0     H17174   4.382  10.188   6.123 -2.3191  2.1773  2.5882
  868MOL0     H17175   4.358  10.111   6.274 -1.5260 -0.0775 -1.9716
  868MOL0     H17176   4.451   9.937   6.141 -2.0667  2.0596 -3.1908
  868MOL0     H17177   4.609   9.998   6.215  1.6367 -0.0073 -1.2414
  868MOL0     H17178   4.663  10.098   5.818 -0.0400  0.0140  1.0590
  868MOL0     H17179   4.198  10.219   6.532  0.1652  0.6723 -2.0655
  868MOL0     H17180   3.951  10.325   6.609 -2.3722  4.1164  0.6438
  869MOL0     O17181   1.131   3.693   7.329 -0.4442  0.7666 -0.0301
  869MOL0     C17182   1.123   3.692   7.453 -0.0737 -0.0537 -0.2431
  869MOL0     O17183   1.005   3.721   7.525 -0.2060  0.0312 -0.5708
  869MOL0     C17184   0.888   3.750   7.465 -0.5468  0.9387  0.0647
  869MOL0     C17185   0.771   3.716   7.540 -0.5519  0.3102  0.1828
  869MOL0     C17186   0.650   3.767   7.490  0.5033 -0.4356 -0.4782
  869MOL0     C17187   0.641   3.853   7.382  0.1303  0.3160 -0.6145
  869MOL0     O17188   0.517   3.895   7.333 -0.7501  0.7927  0.9027
  869MOL0     C17189   0.390   3.838   7.366  1.2935 -0.6089  0.0361
  869MOL0     C17190   0.295   3.849   7.251  1.1485  0.0459 -0.5032
  869MOL0     C17191   0.154   3.813   7.286  0.4953  0.4069 -0.4680
  869MOL0     C17192   0.091   3.684   7.216 -0.1843 -0.3772  1.0454
  869MOL0     C17193  -0.057   3.671   7.245 -0.3835 -0.2363 -0.0592
  869MOL0     C17194  -0.114   3.546   7.178 -0.5872  0.0409 -0.2666
  869MOL0     C17195  -0.260   3.525   7.222  0.5513 -0.4880 -0.1324
  869MOL0     C17196  -0.339   3.420   7.136 -0.2540  0.6608  0.1489
  869MOL0     N17197  -0.478   3.429   7.167 -0.4665  0.1632 -0.7959
  869MOL0     C17198  -0.564   3.338   7.226 -0.1869  0.4791  0.5988
  869MOL0     C17199  -0.677   3.404   7.249 -1.0160  0.3630 -1.3193
  869MOL0     C17200  -0.804   3.334   7.282 -0.3498 -0.7538 -0.8470
  869MOL0     C17201  -0.850   3.332   7.426 -0.0859  0.3092  0.3862
  869MOL0     C17202  -0.773   3.252   7.536  0.4644 -0.5813 -0.2170
  869MOL0     C17203  -0.835   3.305   7.668 -0.1595  0.2259  0.6371
  869MOL0     O17204  -0.797   3.210   7.774 -0.3775 -0.6445  0.2554
  869MOL0     C17205  -0.687   3.243   7.849  0.1827  0.2305 -0.2265
  869MOL0     C17206  -0.699   3.335   7.960 -0.7430  0.6075 -0.5405
  869MOL0     C17207  -0.582   3.362   8.039  0.3210  0.0312 -0.2514
  869MOL0     C17208  -0.593   3.448   8.163  0.0999  0.3803  0.4356
  869MOL0     C17209  -0.457   3.308   7.998 -0.9930 -1.3519  0.7114
  869MOL0     C17210  -0.333   3.316   8.080  0.3227  1.0118  0.4958
  869MOL0     O17211  -0.214   3.356   8.010 -0.0296  0.8954  0.5906
  869MOL0     C17212  -0.095   3.295   8.042  0.6634  0.5658 -0.4233
  869MOL0     C17213  -0.087   3.166   8.100 -0.4906  0.3693 -0.0383
  869MOL0     C17214   0.040   3.112   8.112  0.5366 -0.0030  0.6812
  869MOL0     C17215   0.152   3.194   8.080 -0.3166  0.1217 -0.3912
  869MOL0     O17216   0.283   3.153   8.081 -0.4935 -0.6080  0.4473
  869MOL0     C17217   0.301   3.014   8.089 -0.9846  0.5560 -0.3089
  869MOL0     C17218   0.448   2.974   8.093 -0.3501 -0.0139  0.2287
  869MOL0     C17219   0.505   3.032   8.225  0.4115 -0.1109 -0.3594
  869MOL0     C17220   0.643   2.961   8.241 -0.4391  0.9558 -0.4723
  869MOL0     C17221   0.716   2.999   8.371  0.2278  0.2443  0.2067
  869MOL0     C17222   0.854   2.945   8.381  0.3473  0.8758 -0.4689
  869MOL0     C17223   0.915   2.998   8.512 -0.5565  0.1275  0.9854
  869MOL0     C17224   1.071   2.954   8.512  0.4027  0.3116 -0.6151
  869MOL0    Cl17225   1.158   2.957   8.672  0.1269 -0.4606 -0.4173
  869MOL0     C17226   0.130   3.323   8.030  0.0291 -1.1696  1.3977
  869MOL0     C17227   0.011   3.378   8.014  0.2095 -0.2563  0.2183
  869MOL0     O17228  -0.342   3.292   8.197 -0.3217  0.2343 -0.6461
  869MOL0     C17229  -0.447   3.237   7.877 -0.4624 -1.0182  0.0762
  869MOL0     C17230  -0.566   3.201   7.806 -0.2123 -0.4459 -0.8898
  869MOL0     N17231  -0.656   3.535   7.216 -0.0732  0.5212 -0.1727
  869MOL0     N17232  -0.541   3.549   7.157 -0.4397 -0.2155 -0.5454
  869MOL0     C17233   0.756   3.896   7.315  0.5935  0.7414  0.3036
  869MOL0     C17234   0.882   3.836   7.353 -0.3968 -0.3135 -0.6890
  869MOL0     C17235   1.234   3.649   7.536  0.2721 -1.1669 -0.1424
  869MOL0     C17236   1.229   3.654   7.678  0.3953 -1.2568 -0.0975
  869MOL0     C17237   1.337   3.607   7.754  0.0864 -1.1752 -0.3467
  869MOL0     C17238   1.454   3.583   7.691  0.0657 -0.1870  0.2850
  869MOL0     O17239   1.568   3.533   7.749 -0.1713 -0.0829 -0.9557
  869MOL0     C17240   1.566   3.474   7.877  0.1624 -0.8793 -1.0278
  869MOL0     C17241   1.710   3.445   7.924 -0.3686 -0.4098 -0.2025
  869MOL0     C17242   1.699   3.356   8.052 -0.4642  0.3409 -0.2635
  869MOL0     C17243   1.832   3.309   8.109 -0.2578 -0.5062 -0.4944
  869MOL0     C17244   1.885   3.194   8.041 -0.1864  0.5786  0.3115
  869MOL0     C17245   1.942   3.088   8.010 -0.2126 -0.3498  0.5569
  869MOL0     C17246   1.461   3.584   7.550  0.0100 -0.1499 -0.2519
  869MOL0     C17247   1.357   3.617   7.474  0.2916 -0.2296  0.3545
  869MOL0     H17248   0.802   3.648   7.618 -1.5257 -1.7118 -1.0994
  869MOL0     H17249   0.560   3.733   7.541  1.5874  1.1058  2.7364
  869MOL0     H17250   0.381   3.734   7.400 -3.8402 -0.9223 -1.3364
  869MOL0     H17251   0.342   3.900   7.443  1.2773  2.8488 -2.5314
  869MOL0     H17252   0.288   3.955   7.224 -0.0937 -0.5633 -2.8921
  869MOL0     H17253   0.343   3.780   7.180  4.7430  1.1791  0.6054
  869MOL0     H17254   0.138   3.804   7.394  0.5052  0.3028 -0.4752
  869MOL0     H17255   0.086   3.893   7.256  1.0459  0.6793 -1.0119
  869MOL0     H17256   0.109   3.683   7.108  0.5724  1.3302  1.1340
  869MOL0     H17257   0.149   3.599   7.254  1.0569 -0.1782 -0.3196
  869MOL0     H17258  -0.072   3.667   7.353  0.8490  1.2617  0.1937
  869MOL0     H17259  -0.112   3.757   7.206 -0.2537  0.7283  1.7707
  869MOL0     H17260  -0.107   3.544   7.069 -1.4095 -0.2420 -0.3204
  869MOL0     H17261  -0.048   3.467   7.216  0.6415  0.5437 -1.2789
  869MOL0     H17262  -0.260   3.496   7.327 -0.4267 -1.5079 -0.4005
  869MOL0     H17263  -0.306   3.624   7.213  1.6575  0.0051 -0.6346
  869MOL0     H17264  -0.298   3.320   7.157  0.1630  0.7178 -0.3741
  869MOL0     H17265  -0.334   3.434   7.028  2.7785  1.4466  0.3047
  869MOL0     H17266  -0.535   3.233   7.226  1.5671  0.9215 -0.6417
  869MOL0     H17267  -0.883   3.397   7.240  0.7033  0.2895 -1.2813
  869MOL0     H17268  -0.789   3.239   7.229  1.6929  0.3342 -2.3780
  869MOL0     H17269  -0.950   3.286   7.423  1.4838 -3.5241  0.6756
  869MOL0     H17270  -0.859   3.436   7.458  0.8118 -0.3165  2.9494
  869MOL0     H17271  -0.668   3.282   7.528  0.0783  0.2965 -3.3607
  869MOL0     H17272  -0.796   3.146   7.523 -0.6922 -0.2590 -0.9371
  869MOL0     H17273  -0.943   3.297   7.653  0.1198  0.6733 -2.1282
  869MOL0     H17274  -0.799   3.408   7.679  1.5573  0.3698 -4.2041
  869MOL0     H17275  -0.796   3.380   7.980 -0.6523 -0.0534  1.6775
  869MOL0     H17276  -0.498   3.498   8.185  0.6993 -1.0369  1.1738
  869MOL0     H17277  -0.656   3.538   8.157  1.4535  1.3248 -0.1999
  869MOL0     H17278  -0.623   3.390   8.250 -1.2794  0.4378  0.0228
  869MOL0     H17279  -0.179   3.111   8.121 -0.2069  0.8365  2.9183
  869MOL0     H17280   0.055   3.011   8.150 -1.7320 -0.1672  1.3203
  869MOL0     H17281   0.263   2.978   8.185  2.5216  2.8448  2.2096
  869MOL0     H17282   0.246   2.959   8.013  0.8510 -1.5887 -0.1822
  869MOL0     H17283   0.446   2.865   8.083 -3.3168  0.1032 -1.7287
  869MOL0     H17284   0.501   3.019   8.009 -1.8495  0.4565 -0.5035
  869MOL0     H17285   0.433   3.018   8.306  0.0177 -1.0712 -0.8559
  869MOL0     H17286   0.522   3.140   8.216 -1.2431 -0.0161 -4.3549
  869MOL0     H17287   0.638   2.852   8.253  1.1004  1.0495  1.4929
  869MOL0     H17288   0.702   2.982   8.151 -0.7008  0.9009 -0.6573
  869MOL0     H17289   0.658   2.968   8.459 -1.9323 -0.5709 -1.4295
  869MOL0     H17290   0.720   3.108   8.360 -0.2687  0.0172 -2.9456
  869MOL0     H17291   0.843   2.837   8.398 -0.1607  0.9719 -0.1632
  869MOL0     H17292   0.915   2.983   8.298 -1.3181  3.4797 -0.6153
  869MOL0     H17293   0.861   2.958   8.598 -1.3202  0.2138  0.5594
  869MOL0     H17294   0.904   3.106   8.521 -1.0564  0.0257  1.6525
  869MOL0     H17295   1.117   3.014   8.433 -0.9414 -0.4095 -1.9883
  869MOL0     H17296   1.088   2.850   8.484  1.0953 -0.0825  1.1303
  869MOL0     H17297   0.213   3.379   7.988 -0.9378  0.4101  1.5226
  869MOL0     H17298   0.017   3.471   7.958  2.1417  0.0995  0.9446
  869MOL0     H17299  -0.352   3.195   7.845  1.2748  0.6825  2.7020
  869MOL0     H17300  -0.566   3.152   7.710  1.9133 -1.5898 -0.3583
  869MOL0     H17301   0.723   3.952   7.229 -4.0874  2.7089  3.0080
  869MOL0     H17302   0.963   3.866   7.287  1.7009 -0.9202  1.4732
  869MOL0     H17303   1.139   3.691   7.727 -0.8987  0.4458 -3.4375
  869MOL0     H17304   1.336   3.599   7.862  0.6524  3.4759  0.2210
  869MOL0     H17305   1.526   3.544   7.951  0.8790 -1.6084  0.0823
  869MOL0     H17306   1.506   3.383   7.886 -1.9204  0.6219  3.2696
  869MOL0     H17307   1.761   3.537   7.954 -0.6981 -1.0510  2.5671
  869MOL0     H17308   1.765   3.398   7.842 -2.2422 -1.8266 -0.7177
  869MOL0     H17309   1.657   3.265   8.005 -1.0474  0.7625 -0.5800
  869MOL0     H17310   1.629   3.402   8.122  2.7188  3.0728  1.3670
  869MOL0     H17311   1.817   3.281   8.214 -0.1940 -2.1038 -0.8941
  869MOL0     H17312   1.916   3.379   8.110 -0.2778 -0.4849  0.2037
  869MOL0     H17313   1.996   3.001   7.980 -0.8949 -0.3289 -0.8101
  869MOL0     H17314   1.558   3.560   7.510 -1.0418 -1.8227 -1.9788
  869MOL0     H17315   1.364   3.622   7.365  1.3409 -2.3881  0.2721
  870MOL0     O17316   4.933   4.731   3.615  0.3849 -0.1624  0.1386
  870MOL0     C17317   4.937   4.826   3.534 -1.0198  0.4728 -0.6178
  870MOL0     O17318   4.840   4.874   3.457 -0.3109 -0.9519 -0.5993
  870MOL0     C17319   4.715   4.821   3.468 -0.6431  0.2229  0.7757
  870MOL0     C17320   4.659   4.747   3.368 -0.0518 -0.3765 -1.0656
  870MOL0     C17321   4.520   4.703   3.377  0.9139 -0.7315  0.5071
  870MOL0     C17322   4.440   4.748   3.483  0.0391 -0.2282 -0.8245
  870MOL0     O17323   4.306   4.724   3.496 -0.5655 -0.1754 -0.5565
  870MOL0     C17324   4.206   4.834   3.494  0.8142 -0.3151 -0.7149
  870MOL0     C17325   4.061   4.788   3.457  0.7324  0.3128 -0.0436
  870MOL0     C17326   3.953   4.891   3.460  0.8219 -0.1365 -0.3035
  870MOL0     C17327   3.823   4.819   3.495 -0.0416  0.4635  0.3048
  870MOL0     C17328   3.701   4.908   3.476  0.6758  0.2407  0.4101
  870MOL0     C17329   3.676   4.996   3.596 -0.0691 -0.1969 -0.2849
  870MOL0     C17330   3.570   5.095   3.577  0.2317 -0.5293  0.0377
  870MOL0     C17331   3.469   5.099   3.696  0.3444  0.2895  0.5778
  870MOL0     N17332   3.342   5.172   3.652 -0.2221 -0.0165 -0.1800
  870MOL0     C17333   3.253   5.123   3.555  1.1661 -0.1820  0.5045
  870MOL0     C17334   3.158   5.217   3.540 -0.2711  0.1317  0.7614
  870MOL0     C17335   3.046   5.206   3.435  0.4668  0.2292  0.0459
  870MOL0     C17336   3.092   5.223   3.278  0.9209  0.3258 -1.1639
  870MOL0     C17337   3.164   5.357   3.263 -0.1638  1.3020  0.3678
  870MOL0     C17338   3.220   5.381   3.123  0.3149 -0.1569 -0.2509
  870MOL0     O17339   3.337   5.307   3.084 -0.1230  0.2571  0.6088
  870MOL0     C17340   3.458   5.299   3.157  0.2085 -0.2241 -0.1088
  870MOL0     C17341   3.492   5.388   3.260  0.2230 -0.2761 -0.4237
  870MOL0     C17342   3.606   5.374   3.352  0.2977  0.0442  0.6855
  870MOL0     C17343   3.606   5.468   3.465  0.1705  0.1321 -0.7953
  870MOL0     C17344   3.715   5.285   3.308  1.0795 -0.9927 -0.5220
  870MOL0     C17345   3.853   5.297   3.361  0.6199 -0.3466  0.5230
  870MOL0     O17346   3.949   5.206   3.315  0.4285  0.5161  0.1795
  870MOL0     C17347   4.079   5.212   3.348  0.1077 -0.5333 -0.7147
  870MOL0     C17348   4.175   5.213   3.255 -0.4784 -0.8954 -0.2067
  870MOL0     C17349   4.312   5.237   3.290 -0.4269  1.3451  0.2022
  870MOL0     C17350   4.346   5.247   3.424  0.0434  0.5795 -0.3579
  870MOL0     O17351   4.478   5.278   3.468 -0.1927 -0.6405  0.0556
  870MOL0     C17352   4.554   5.164   3.485  0.1674 -0.1663 -0.7786
  870MOL0     C17353   4.695   5.201   3.540 -0.0167 -0.2503 -0.3317
  870MOL0     C17354   4.776   5.294   3.442  0.9106  0.3298 -0.2409
  870MOL0     C17355   4.918   5.326   3.480  0.4917 -0.3594 -0.3937
  870MOL0     C17356   4.998   5.397   3.384  0.1848  0.1296 -0.1971
  870MOL0     C17357   4.967   5.351   3.237 -0.0588 -0.4184  0.0908
  870MOL0     C17358   5.069   5.408   3.139 -0.1338 -0.1334  0.6582
  870MOL0     C17359   5.001   5.402   3.002 -0.0299 -0.0167 -0.2127
  870MOL0    Cl17360   5.115   5.483   2.889  0.0888  0.2960 -0.7264
  870MOL0     C17361   4.245   5.244   3.517 -0.4515  0.0781 -0.8787
  870MOL0     C17362   4.111   5.232   3.483 -0.6137  0.7153 -0.6617
  870MOL0     O17363   3.882   5.390   3.440 -1.2090  0.9795 -0.1009
  870MOL0     C17364   3.687   5.196   3.203 -0.0313 -0.0949 -0.1743
  870MOL0     C17365   3.558   5.201   3.127 -0.1486 -0.3688 -0.3919
  870MOL0     N17366   3.196   5.320   3.635 -0.6294  0.7924  1.3712
  870MOL0     N17367   3.299   5.285   3.706 -0.3511  0.4904  0.4329
  870MOL0     C17368   4.504   4.827   3.584 -0.3061 -0.2760 -0.6740
  870MOL0     C17369   4.644   4.848   3.583  0.7871 -0.4969 -0.4042
  870MOL0     C17370   5.066   4.899   3.549  0.6413 -0.6531 -0.6389
  870MOL0     C17371   5.138   4.897   3.666 -0.7919 -0.6913 -1.0561
  870MOL0     C17372   5.262   4.966   3.673 -0.0168 -0.1084 -0.9527
  870MOL0     C17373   5.310   5.038   3.559  0.0614  0.3325 -0.9849
  870MOL0     O17374   5.434   5.094   3.570 -0.6832 -0.0906  0.3662
  870MOL0     C17375   5.495   5.169   3.461 -0.5799 -0.1015  0.6106
  870MOL0     C17376   5.431   5.304   3.458  0.7706 -0.7663 -0.1015
  870MOL0     C17377   5.400   5.353   3.316  0.2076  0.0609  0.7732
  870MOL0     C17378   5.527   5.400   3.247  0.0925  0.0845 -0.6623
  870MOL0     C17379   5.500   5.480   3.130 -0.2937 -0.3713  0.4112
  870MOL0     C17380   5.485   5.542   3.027  0.1667  0.2879  0.6455
  870MOL0     C17381   5.226   5.043   3.445  0.1718  0.0094  0.3094
  870MOL0     C17382   5.105   4.971   3.445 -0.2261  0.0536 -0.3227
  870MOL0     H17383   4.732   4.718   3.294  2.4748 -0.2052  1.2059
  870MOL0     H17384   4.470   4.646   3.300  2.5249 -0.9703 -0.4063
  870MOL0     H17385   4.200   4.873   3.597  0.8918 -1.1220 -0.3989
  870MOL0     H17386   4.243   4.915   3.430  0.5826 -0.2534 -0.7711
  870MOL0     H17387   4.065   4.746   3.356  0.0511 -1.4190  0.6029
  870MOL0     H17388   4.038   4.702   3.520  0.0530  0.0244 -0.6705
  870MOL0     H17389   3.967   4.968   3.536  1.5167 -0.9083  0.3684
  870MOL0     H17390   3.950   4.938   3.361  1.5416  4.0636  1.4612
  870MOL0     H17391   3.809   4.736   3.425  4.8851 -0.5567  0.1808
  870MOL0     H17392   3.832   4.776   3.595 -1.1431 -3.0628 -0.9532
  870MOL0     H17393   3.725   4.975   3.393  1.1649 -0.7430 -0.2654
  870MOL0     H17394   3.614   4.845   3.456 -0.0348  1.1434  0.5943
  870MOL0     H17395   3.652   4.936   3.684 -0.0118  1.6175  1.0038
  870MOL0     H17396   3.762   5.049   3.636 -0.1647 -1.3822  1.6292
  870MOL0     H17397   3.608   5.198   3.572 -0.4811 -0.2892 -3.4071
  870MOL0     H17398   3.529   5.091   3.475 -0.3416  1.7239  0.1074
  870MOL0     H17399   3.514   5.155   3.778  0.7393 -0.1488  0.6712
  870MOL0     H17400   3.451   4.996   3.728  0.7501  0.2617  0.7199
  870MOL0     H17401   3.254   5.035   3.492 -1.9290 -1.1276  1.5857
  870MOL0     H17402   3.004   5.106   3.448  2.8328 -0.8831 -0.3025
  870MOL0     H17403   2.969   5.282   3.450 -0.8314 -1.1091  0.4384
  870MOL0     H17404   2.996   5.224   3.227 -0.3864  2.2907  1.1597
  870MOL0     H17405   3.155   5.140   3.242 -0.2460 -1.0351 -0.1565
  870MOL0     H17406   3.237   5.384   3.340  1.4916  0.3026 -0.7880
  870MOL0     H17407   3.082   5.425   3.285  0.6604  2.3350  0.3215
  870MOL0     H17408   3.242   5.488   3.116 -2.8175  0.5781 -0.0276
  870MOL0     H17409   3.145   5.361   3.046 -3.6893  1.4195  2.8898
  870MOL0     H17410   3.420   5.467   3.277  1.2498  0.9166 -1.4498
  870MOL0     H17411   3.647   5.566   3.439  0.1051 -0.0476 -1.5964
  870MOL0     H17412   3.501   5.487   3.486  0.7087  1.4341  0.9143
  870MOL0     H17413   3.652   5.439   3.560 -3.2429  2.5791  1.8338
  870MOL0     H17414   4.139   5.211   3.153 -1.4567  0.4327  0.0843
  870MOL0     H17415   4.397   5.265   3.227 -0.0578  6.3502  2.4400
  870MOL0     H17416   4.508   5.105   3.565 -0.3920  2.0096  0.6022
  870MOL0     H17417   4.561   5.110   3.391 -2.7015  0.3041 -1.3553
  870MOL0     H17418   4.678   5.246   3.638  1.0089 -1.1735  0.2928
  870MOL0     H17419   4.758   5.113   3.555  1.4373  0.3554 -2.4871
  870MOL0     H17420   4.724   5.390   3.433  1.8996  0.7508 -1.9917
  870MOL0     H17421   4.770   5.243   3.346  0.8743 -0.8247  0.3547
  870MOL0     H17422   4.920   5.377   3.577 -1.9127  0.2898 -0.6061
  870MOL0     H17423   4.972   5.235   3.506  0.9570 -0.5231 -1.8550
  870MOL0     H17424   5.101   5.392   3.419  0.0759  0.8462  0.2577
  870MOL0     H17425   4.965   5.502   3.382 -1.3338 -0.3278 -0.2225
  870MOL0     H17426   4.969   5.242   3.244  1.4918 -0.4133 -0.0911
  870MOL0     H17427   4.865   5.375   3.206  0.5108  2.6526  0.2693
  870MOL0     H17428   5.159   5.347   3.148  0.3314  0.7163  2.2574
  870MOL0     H17429   5.093   5.513   3.158 -1.2106  0.4443 -0.9729
  870MOL0     H17430   4.911   5.464   2.997  1.6583  2.6324  0.7343
  870MOL0     H17431   4.987   5.302   2.958 -0.6568 -0.4109  0.8468
  870MOL0     H17432   4.276   5.258   3.620  0.0088  2.8061 -1.3220
  870MOL0     H17433   4.042   5.250   3.565  0.5345 -0.0982  0.5266
  870MOL0     H17434   3.764   5.123   3.179  1.8566  1.6531  0.2484
  870MOL0     H17435   3.532   5.118   3.062  1.8611 -2.2017  0.9888
  870MOL0     H17436   4.451   4.878   3.664  1.9517  0.1671  0.6427
  870MOL0     H17437   4.714   4.900   3.648  1.1877 -0.6778 -0.6848
  870MOL0     H17438   5.097   4.847   3.752 -2.5500  2.0299 -0.1823
  870MOL0     H17439   5.330   4.980   3.756 -0.9875 -0.0498 -0.1516
  870MOL0     H17440   5.602   5.175   3.482 -0.3947  0.4243 -0.4202
  870MOL0     H17441   5.491   5.114   3.367  1.4202 -1.9481  1.5058
  870MOL0     H17442   5.490   5.378   3.512  1.4288 -2.5729  1.8087
  870MOL0     H17443   5.339   5.305   3.518 -0.1133 -2.5600 -1.3544
  870MOL0     H17444   5.329   5.435   3.327  3.0160  2.5044  2.3896
  870MOL0     H17445   5.361   5.266   3.263 -2.4701  1.3253  0.5134
  870MOL0     H17446   5.591   5.313   3.226 -0.8775 -0.7207 -0.3400
  870MOL0     H17447   5.577   5.473   3.311 -0.4046 -1.2518  1.3369
  870MOL0     H17448   5.485   5.594   2.933  3.9261 -1.1794 -0.3507
  870MOL0     H17449   5.250   5.082   3.347 -2.3038 -2.9142 -1.6516
  870MOL0     H17450   5.051   4.972   3.350  3.4465  0.1632 -2.5941
  871MOL0     O17451   0.689   3.584   2.441 -0.0421  0.5378 -0.2746
  871MOL0     C17452   0.762   3.668   2.390 -0.2025  0.0117 -1.1138
  871MOL0     O17453   0.756   3.806   2.403 -0.9070 -0.3453  0.4103
  871MOL0     C17454   0.656   3.861   2.474 -1.0034  0.0015  0.5716
  871MOL0     C17455   0.525   3.838   2.436  1.0229  0.1484  0.6483
  871MOL0     C17456   0.417   3.908   2.495 -0.1128 -0.3764  0.5982
  871MOL0     C17457   0.444   3.994   2.611  0.1890 -0.2203  0.0296
  871MOL0     O17458   0.335   4.049   2.673  0.2404  0.0949 -0.2046
  871MOL0     C17459   0.350   4.191   2.687 -0.0101 -0.0248 -0.2355
  871MOL0     C17460   0.212   4.254   2.723 -0.4855 -0.0867 -0.4159
  871MOL0     C17461   0.173   4.209   2.867 -0.5563 -0.4841 -0.2225
  871MOL0     C17462   0.075   4.324   2.915  0.3284 -0.4790  0.8347
  871MOL0     C17463  -0.021   4.281   3.034  0.8055 -0.2906  0.9910
  871MOL0     C17464  -0.096   4.398   3.100  0.4868  0.6485  0.0420
  871MOL0     C17465  -0.200   4.331   3.196  0.6138  0.0274  0.7398
  871MOL0     C17466  -0.213   4.434   3.310 -0.3391  0.1951  0.0157
  871MOL0     N17467  -0.277   4.556   3.261  0.0446  0.7561  0.0917
  871MOL0     C17468  -0.224   4.660   3.193 -0.0246 -0.2487 -0.4067
  871MOL0     C17469  -0.331   4.729   3.161  0.5438 -0.0297  1.0261
  871MOL0     C17470  -0.356   4.851   3.084 -0.6642  0.0146  0.4123
  871MOL0     C17471  -0.218   4.930   3.077  0.2243  0.1703 -0.5483
  871MOL0     C17472  -0.234   5.075   3.048  0.0572 -0.3519  0.5224
  871MOL0     C17473  -0.103   5.169   3.058 -0.4227  0.8837  0.0728
  871MOL0     O17474  -0.008   5.112   2.966 -0.6363 -0.1601  0.3242
  871MOL0     C17475   0.119   5.165   2.981  0.8518 -1.4357  0.5905
  871MOL0     C17476   0.134   5.294   3.039 -1.0297 -1.1132 -0.4008
  871MOL0     C17477   0.262   5.347   3.046  0.9319  0.2075 -0.2414
  871MOL0     C17478   0.276   5.474   3.128  0.3832  1.0632 -0.9141
  871MOL0     C17479   0.371   5.279   2.990 -0.6888 -0.0606  0.2515
  871MOL0     C17480   0.510   5.311   3.004 -0.0488 -0.6795 -0.3359
  871MOL0     O17481   0.545   5.352   3.130 -0.2401 -0.0158  0.2844
  871MOL0     C17482   0.676   5.398   3.144  0.2046  0.2810 -0.5073
  871MOL0     C17483   0.697   5.507   3.232 -0.0083 -0.0470 -0.8041
  871MOL0     C17484   0.820   5.561   3.253 -0.1168 -0.5876 -0.4546
  871MOL0     C17485   0.926   5.498   3.194 -0.3123  0.3368 -0.5036
  871MOL0     O17486   1.050   5.560   3.225 -0.2324 -0.2437 -0.9822
  871MOL0     C17487   1.163   5.521   3.147 -1.1697  0.2119  0.0844
  871MOL0     C17488   1.277   5.614   3.180  0.1743  0.0631 -0.1224
  871MOL0     C17489   1.415   5.572   3.120 -0.1219  1.3017  0.6988
  871MOL0     C17490   1.508   5.681   3.145 -0.1363 -0.7368 -0.0073
  871MOL0     C17491   1.649   5.646   3.107  0.5708 -0.0467 -0.2159
  871MOL0     C17492   1.746   5.760   3.130 -0.1225 -0.3587 -0.4093
  871MOL0     C17493   1.899   5.713   3.101  0.8043  0.1627 -0.2638
  871MOL0     C17494   1.907   5.654   2.956  0.5283 -0.9913  0.9324
  871MOL0    Cl17495   2.081   5.652   2.912 -0.4754 -0.1214 -0.5667
  871MOL0     C17496   0.913   5.380   3.130 -1.0358  0.3868  0.0717
  871MOL0     C17497   0.791   5.329   3.098 -0.0733  0.5045  0.3774
  871MOL0     O17498   0.592   5.309   2.915  0.9317 -0.0951 -0.3389
  871MOL0     C17499   0.345   5.160   2.923  0.4831  0.0696  0.1730
  871MOL0     C17500   0.217   5.096   2.923  1.0925 -0.2096  0.1413
  871MOL0     N17501  -0.447   4.672   3.214  0.4465  0.3940  0.7775
  871MOL0     N17502  -0.409   4.558   3.271  0.2328 -0.0810 -0.8300
  871MOL0     C17503   0.577   4.016   2.650  0.3362  1.0080  0.0668
  871MOL0     C17504   0.685   3.951   2.580  0.7804  0.7396  0.3490
  871MOL0     C17505   0.877   3.620   2.313 -0.8747  0.1482 -0.5346
  871MOL0     C17506   0.970   3.710   2.252  0.0874  0.1872  0.4122
  871MOL0     C17507   1.068   3.663   2.167  1.1235 -0.6942  1.4627
  871MOL0     C17508   1.075   3.526   2.146 -0.1110 -0.3223  0.9376
  871MOL0     O17509   1.169   3.474   2.063 -0.3593  0.2094 -0.3422
  871MOL0     C17510   1.299   3.535   2.055  0.7179  0.4082  0.7017
  871MOL0     C17511   1.402   3.444   1.973  0.2643  0.0851  1.0739
  871MOL0     C17512   1.517   3.523   1.928 -0.9613  0.6589 -0.7143
  871MOL0     C17513   1.626   3.422   1.873  0.4603 -0.7646 -0.4124
  871MOL0     C17514   1.725   3.504   1.812  0.9800 -1.0890  0.1224
  871MOL0     C17515   1.810   3.562   1.748  0.2906 -0.3779 -0.5336
  871MOL0     C17516   1.006   3.440   2.219  0.0296  0.4377 -0.0368
  871MOL0     C17517   0.894   3.483   2.289 -0.3820  0.4418  0.3020
  871MOL0     H17518   0.502   3.772   2.353  1.3124  0.2796  0.4621
  871MOL0     H17519   0.310   3.899   2.478 -0.0987  1.8397 -1.2395
  871MOL0     H17520   0.417   4.230   2.764 -0.7442  1.5911 -0.3649
  871MOL0     H17521   0.378   4.222   2.586  3.3787  0.6258  0.7954
  871MOL0     H17522   0.225   4.362   2.711  1.7520 -0.3961 -1.3410
  871MOL0     H17523   0.130   4.233   2.654  0.5181 -1.5014 -1.2627
  871MOL0     H17524   0.128   4.110   2.858  0.7090 -1.1659  0.7099
  871MOL0     H17525   0.255   4.197   2.938 -1.1888 -0.1955  0.5695
  871MOL0     H17526   0.142   4.404   2.945 -0.0309  0.0983  0.1262
  871MOL0     H17527   0.017   4.363   2.831  1.1737 -2.5401 -0.8041
  871MOL0     H17528  -0.096   4.213   2.992 -1.5440  2.4520  0.4071
  871MOL0     H17529   0.041   4.232   3.109 -1.8892 -3.1397  1.5813
  871MOL0     H17530  -0.029   4.461   3.159  1.0735  0.8624 -0.8223
  871MOL0     H17531  -0.144   4.463   3.025  1.1851 -0.2409 -1.2019
  871MOL0     H17532  -0.299   4.314   3.151  0.3459 -1.8357  1.8850
  871MOL0     H17533  -0.173   4.232   3.233  0.9781  0.0178  0.4522
  871MOL0     H17534  -0.117   4.453   3.358  0.0479  0.4253 -0.8294
  871MOL0     H17535  -0.278   4.385   3.383 -1.6553  1.7811 -0.0400
  871MOL0     H17536  -0.121   4.675   3.163 -0.4480  0.9007 -1.3468
  871MOL0     H17537  -0.395   4.832   2.984 -0.3223  1.3197  0.0091
  871MOL0     H17538  -0.423   4.915   3.142  1.5125  3.5538 -0.6167
  871MOL0     H17539  -0.145   4.892   3.004  2.0502 -2.9643  2.6176
  871MOL0     H17540  -0.163   4.922   3.171  1.3213  1.9699 -0.9958
  871MOL0     H17541  -0.308   5.115   3.119 -1.7596 -2.8102  0.1434
  871MOL0     H17542  -0.277   5.090   2.949 -1.5228 -0.7955  1.1140
  871MOL0     H17543  -0.068   5.173   3.162 -1.6035  0.2626  0.5094
  871MOL0     H17544  -0.135   5.268   3.026  0.5959  0.5108 -2.2887
  871MOL0     H17545   0.058   5.365   3.071 -0.4463  0.7816 -2.9266
  871MOL0     H17546   0.205   5.549   3.092  1.4974  1.4903 -2.3590
  871MOL0     H17547   0.259   5.449   3.233 -0.4969  0.3511 -1.2153
  871MOL0     H17548   0.376   5.517   3.118  1.6668 -1.3038  0.7747
  871MOL0     H17549   0.613   5.553   3.283  0.8219  1.2178 -0.5417
  871MOL0     H17550   0.839   5.646   3.316 -2.8994  2.3835 -3.2516
  871MOL0     H17551   1.203   5.422   3.170  0.4171  0.9208  0.5654
  871MOL0     H17552   1.150   5.518   3.039  2.9959 -2.2752 -0.5839
  871MOL0     H17553   1.258   5.718   3.153  2.2955  0.7133  0.7021
  871MOL0     H17554   1.285   5.605   3.288  1.2958 -1.0806 -0.2753
  871MOL0     H17555   1.412   5.549   3.013 -0.7837 -2.8647  1.4519
  871MOL0     H17556   1.462   5.487   3.171 -1.1239  0.3964  0.1572
  871MOL0     H17557   1.483   5.768   3.083  0.9457 -0.5593 -0.2269
  871MOL0     H17558   1.505   5.703   3.252  1.0361 -1.1409  0.1223
  871MOL0     H17559   1.641   5.618   3.002 -0.9919  0.9529 -0.3968
  871MOL0     H17560   1.681   5.565   3.174 -1.6728  0.1448  1.2186
  871MOL0     H17561   1.720   5.851   3.075 -1.7982 -0.8355 -0.4377
  871MOL0     H17562   1.748   5.793   3.235  0.8228 -1.2330 -0.1355
  871MOL0     H17563   1.933   5.638   3.172  0.2988  2.0394  2.0822
  871MOL0     H17564   1.963   5.799   3.120 -2.4703  2.3641  1.9962
  871MOL0     H17565   1.854   5.723   2.889 -0.9430  0.7265  3.7095
  871MOL0     H17566   1.852   5.562   2.935  0.9927 -1.0172 -0.2536
  871MOL0     H17567   1.005   5.333   3.097 -0.3773  0.1481  2.0826
  871MOL0     H17568   0.777   5.250   3.026 -2.5493  1.7585 -0.6516
  871MOL0     H17569   0.425   5.122   2.861 -0.5576  0.3438 -1.3830
  871MOL0     H17570   0.195   5.003   2.872  1.5581 -0.9799  1.3115
  871MOL0     H17571   0.601   4.083   2.732 -4.2945  0.4472  2.2102
  871MOL0     H17572   0.787   3.952   2.616  0.8164 -0.6489  0.3324
  871MOL0     H17573   0.960   3.817   2.262  0.8060  0.5145 -1.6771
  871MOL0     H17574   1.115   3.739   2.106 -2.0445 -0.6529 -1.2506
  871MOL0     H17575   1.286   3.622   1.990  1.7702 -1.9173 -2.9417
  871MOL0     H17576   1.323   3.565   2.158 -0.0877 -0.9362  1.3113
  871MOL0     H17577   1.346   3.397   1.892 -1.0688  0.9878  1.4148
  871MOL0     H17578   1.424   3.360   2.039 -2.6334 -1.1941  0.5685
  871MOL0     H17579   1.571   3.580   2.004 -0.7738  1.2991 -1.3277
  871MOL0     H17580   1.487   3.587   1.846 -0.8655  2.6670  0.7467
  871MOL0     H17581   1.585   3.354   1.798  1.7201 -0.4988 -1.3600
  871MOL0     H17582   1.662   3.365   1.959  2.2281 -1.2679 -1.4511
  871MOL0     H17583   1.891   3.616   1.702  1.2644 -0.1573  1.3491
  871MOL0     H17584   1.023   3.335   2.198 -0.8751  0.4443 -0.9431
  871MOL0     H17585   0.838   3.414   2.351  1.6286  0.9019  2.8200
  872MOL0     O17586   4.811   0.072   3.882 -0.2611  0.2083  0.4306
  872MOL0     C17587   4.893   0.159   3.872  0.1480 -0.1767 -0.3274
  872MOL0     O17588   5.006   0.174   3.948 -0.6544  0.1267 -0.0312
  872MOL0     C17589   5.043   0.076   4.034 -0.3069 -0.5550  0.3204
  872MOL0     C17590   5.107  -0.031   3.978 -0.4274  0.0315  0.4430
  872MOL0     C17591   5.138  -0.145   4.058  0.0672 -1.1855  0.0042
  872MOL0     C17592   5.110  -0.141   4.192 -0.1776  0.4066 -0.9029
  872MOL0     O17593   5.141  -0.247   4.279  0.2955  0.0500 -0.0057
  872MOL0     C17594   5.280  -0.263   4.311  1.3245 -0.2196  0.3329
  872MOL0     C17595   5.320  -0.392   4.381 -0.0423  0.5422 -0.3601
  872MOL0     C17596   5.236  -0.419   4.508  0.0997 -0.0289  0.2390
  872MOL0     C17597   5.293  -0.521   4.609  0.0543  0.1522  0.1034
  872MOL0     C17598   5.199  -0.591   4.712  0.0753 -0.1361  1.0487
  872MOL0     C17599   5.175  -0.495   4.827 -0.0885  0.2259  0.3550
  872MOL0     C17600   5.124  -0.579   4.954 -0.3781 -0.2328  0.6460
  872MOL0     C17601   5.080  -0.485   5.067 -0.0905 -0.4491  0.1454
  872MOL0     N17602   5.034  -0.569   5.168 -0.3076  0.4339  0.3789
  872MOL0     C17603   4.905  -0.614   5.179 -0.3123 -0.3291 -0.8675
  872MOL0     C17604   4.905  -0.682   5.299 -0.4124  0.8570 -0.0956
  872MOL0     C17605   4.793  -0.748   5.372  0.2440  1.1461  0.4790
  872MOL0     C17606   4.806  -0.908   5.374  1.0529  0.3198 -0.2506
  872MOL0     C17607   4.724  -0.981   5.490  0.1736 -0.7230 -0.2351
  872MOL0     C17608   4.688  -1.119   5.443 -0.9557  0.2957  0.0699
  872MOL0     O17609   4.573  -1.172   5.512 -0.9061 -0.3262  0.0850
  872MOL0     C17610   4.451  -1.136   5.477  0.5633  0.2525  0.4802
  872MOL0     C17611   4.378  -1.211   5.383  0.1167 -0.3211 -0.3978
  872MOL0     C17612   4.242  -1.191   5.359  0.9491 -1.8718  0.2476
  872MOL0     C17613   4.178  -1.282   5.261  0.0251  0.1484 -0.0687
  872MOL0     C17614   4.176  -1.088   5.430  0.0317 -0.5429 -0.7270
  872MOL0     C17615   4.030  -1.051   5.417 -0.6200 -1.0951 -0.6111
  872MOL0     O17616   3.967  -1.094   5.298  0.0124 -0.1115  0.5854
  872MOL0     C17617   3.825  -1.098   5.303 -0.4162 -0.9073  1.3038
  872MOL0     C17618   3.762  -1.216   5.291  0.1516 -0.4445 -0.4018
  872MOL0     C17619   3.625  -1.227   5.288 -0.2158  0.5018 -0.1700
  872MOL0     C17620   3.540  -1.123   5.300 -0.6536 -0.4726 -0.2694
  872MOL0     O17621   3.404  -1.137   5.278 -0.1321 -0.4619 -1.1251
  872MOL0     C17622   3.308  -1.053   5.338 -0.2508 -1.0955 -0.2245
  872MOL0     C17623   3.171  -1.089   5.286 -0.5095 -0.1155  0.0641
  872MOL0     C17624   3.060  -1.007   5.358  0.5806  0.1593  0.2885
  872MOL0     C17625   2.910  -1.051   5.328 -0.9249 -0.7175  0.7347
  872MOL0     C17626   2.846  -1.148   5.438  0.1829  0.0070  1.2131
  872MOL0     C17627   2.705  -1.192   5.383  0.5659  0.4251 -1.1916
  872MOL0     C17628   2.650  -1.306   5.473 -0.0165 -0.0003  0.1883
  872MOL0     C17629   2.528  -1.399   5.425 -0.2814  0.1866 -0.0444
  872MOL0    Cl17630   2.562  -1.519   5.298  0.0167  0.1827  0.0159
  872MOL0     C17631   3.602  -0.998   5.323 -0.9997 -0.4714 -0.1852
  872MOL0     C17632   3.747  -0.983   5.330  0.0385 -0.2143  0.4635
  872MOL0     O17633   3.971  -0.986   5.502 -0.4538  0.9262  0.3080
  872MOL0     C17634   4.255  -1.002   5.513 -0.8875 -1.2317 -0.5827
  872MOL0     C17635   4.394  -1.022   5.541  0.1488  0.4835  0.2184
  872MOL0     N17636   5.038  -0.671   5.352  1.0405 -0.7236  0.4314
  872MOL0     N17637   5.118  -0.621   5.266  0.6448 -0.2307  0.6907
  872MOL0     C17638   5.043  -0.028   4.248 -0.2292 -0.9305  0.0613
  872MOL0     C17639   5.012   0.083   4.172  0.0061  0.5061  0.3383
  872MOL0     C17640   4.869   0.245   3.759  0.3871  0.5350  0.5642
  872MOL0     C17641   4.951   0.357   3.737  0.3872  0.9389 -0.3695
  872MOL0     C17642   4.933   0.443   3.635  0.3851 -0.9146  0.5261
  872MOL0     C17643   4.816   0.432   3.553  1.0082 -0.3427  0.4239
  872MOL0     O17644   4.781   0.530   3.460 -0.3160  0.7404  0.3375
  872MOL0     C17645   4.862   0.642   3.435 -0.9038 -1.1200 -0.6042
  872MOL0     C17646   4.945   0.623   3.302  0.2126 -0.6777 -0.5416
  872MOL0     C17647   4.860   0.571   3.187  0.2581  0.2807  0.5442
  872MOL0     C17648   4.904   0.423   3.168  0.2372 -1.2250 -0.5335
  872MOL0     C17649   4.814   0.353   3.079  0.5531  0.1514 -0.4980
  872MOL0     C17650   4.730   0.286   3.024  0.6213  0.2280 -0.6636
  872MOL0     C17651   4.729   0.328   3.574  0.1112 -0.2142 -0.8721
  872MOL0     C17652   4.764   0.227   3.666  0.3112 -0.2879 -0.1332
  872MOL0     H17653   5.136  -0.042   3.874  1.3327 -3.0489  1.1329
  872MOL0     H17654   5.183  -0.233   4.014  0.8480 -0.5399 -0.5274
  872MOL0     H17655   5.340  -0.250   4.221 -0.6185  0.8326 -0.8713
  872MOL0     H17656   5.311  -0.184   4.380  1.0476  1.2657 -1.1759
  872MOL0     H17657   5.293  -0.478   4.320  0.5389 -2.0413  2.8007
  872MOL0     H17658   5.425  -0.402   4.410 -0.9880 -0.6250  3.2230
  872MOL0     H17659   5.220  -0.331   4.571 -2.3580  0.1286 -0.4871
  872MOL0     H17660   5.139  -0.460   4.479 -0.8775  2.0470  0.3813
  872MOL0     H17661   5.341  -0.601   4.552  1.9004  2.2563 -1.5136
  872MOL0     H17662   5.384  -0.485   4.659 -0.1028 -2.3672  2.4753
  872MOL0     H17663   5.108  -0.616   4.657  0.0403  0.3055  0.9012
  872MOL0     H17664   5.242  -0.688   4.739  0.4655 -1.2193 -2.9028
  872MOL0     H17665   5.268  -0.454   4.867  1.7221 -2.1153 -1.1480
  872MOL0     H17666   5.107  -0.416   4.797  2.0441  2.4135  0.9620
  872MOL0     H17667   5.039  -0.638   4.919 -0.8930  0.7330  0.2517
  872MOL0     H17668   5.198  -0.652   4.989 -0.8360 -0.6404  0.7785
  872MOL0     H17669   4.996  -0.421   5.037 -0.5420 -1.7593 -1.5743
  872MOL0     H17670   5.176  -0.441   5.096  3.1031 -5.4776 -1.4349
  872MOL0     H17671   4.816  -0.593   5.120  0.4794 -0.2285 -2.0529
  872MOL0     H17672   4.786  -0.718   5.476 -1.0726  0.5728  0.5701
  872MOL0     H17673   4.698  -0.722   5.324 -0.6242 -2.1156  0.2050
  872MOL0     H17674   4.909  -0.937   5.396 -0.0149 -0.5833  4.7487
  872MOL0     H17675   4.775  -0.947   5.277 -0.6129 -0.9656  0.7504
  872MOL0     H17676   4.640  -0.920   5.525  0.6362 -0.4478  0.4210
  872MOL0     H17677   4.789  -0.993   5.577  0.2026 -1.5716 -0.3667
  872MOL0     H17678   4.772  -1.186   5.461 -0.5871  0.0841 -2.1191
  872MOL0     H17679   4.662  -1.119   5.336  0.8165 -0.6270 -0.4057
  872MOL0     H17680   4.430  -1.298   5.344  0.1440  0.4738 -2.2435
  872MOL0     H17681   4.251  -1.357   5.231  0.9749  1.0506 -0.0591
  872MOL0     H17682   4.083  -1.320   5.300  0.6439 -0.9866  0.3765
  872MOL0     H17683   4.141  -1.226   5.175  1.7875  1.2564 -0.1380
  872MOL0     H17684   3.834  -1.296   5.273  0.0235 -0.7018  0.1926
  872MOL0     H17685   3.599  -1.328   5.259 -0.7580  0.6442 -0.1909
  872MOL0     H17686   3.319  -1.059   5.447 -0.2700  2.8365  0.1311
  872MOL0     H17687   3.328  -0.948   5.312  0.1398 -1.1843 -0.2924
  872MOL0     H17688   3.170  -1.076   5.178  2.3939  2.1593  0.1994
  872MOL0     H17689   3.170  -1.197   5.307  5.1009 -0.6061 -0.6650
  872MOL0     H17690   3.062  -0.904   5.320  2.0641 -0.0492 -0.2843
  872MOL0     H17691   3.082  -0.991   5.464  1.5474  1.1066 -0.0313
  872MOL0     H17692   2.835  -0.972   5.316  2.8746  2.8856 -2.2134
  872MOL0     H17693   2.912  -1.100   5.231 -1.4643 -1.2591  0.9878
  872MOL0     H17694   2.843  -1.098   5.535 -3.7718  0.3656  1.0684
  872MOL0     H17695   2.915  -1.231   5.453  0.5651  0.1972  0.5450
  872MOL0     H17696   2.641  -1.104   5.380  1.2552  0.9053 -2.2762
  872MOL0     H17697   2.715  -1.233   5.282  3.0245 -2.8899  0.2014
  872MOL0     H17698   2.608  -1.251   5.558 -2.1426  0.6882 -1.2350
  872MOL0     H17699   2.736  -1.363   5.508  0.8881  1.1990 -0.0076
  872MOL0     H17700   2.440  -1.340   5.399  1.4016  2.7577 -0.2941
  872MOL0     H17701   2.495  -1.451   5.515 -0.4098  0.5984  0.1485
  872MOL0     H17702   3.525  -0.921   5.325 -1.1176 -0.5738 -0.7698
  872MOL0     H17703   3.790  -0.884   5.335  1.4320 -0.7626  0.0659
  872MOL0     H17704   4.221  -0.911   5.562  2.5458 -0.0191 -0.1929
  872MOL0     H17705   4.450  -0.957   5.607  1.7041  2.0774 -2.5080
  872MOL0     H17706   5.005  -0.028   4.350  1.1909 -0.2605  0.6172
  872MOL0     H17707   4.945   0.162   4.205 -0.7338 -0.4906  1.3026
  872MOL0     H17708   5.031   0.374   3.808 -0.4867 -3.7213  2.0887
  872MOL0     H17709   5.009   0.521   3.623 -2.5905  1.9287 -1.4654
  872MOL0     H17710   4.811   0.738   3.433  2.9216  1.1609  0.1337
  872MOL0     H17711   4.932   0.656   3.518 -0.3727  1.3838 -1.3758
  872MOL0     H17712   5.027   0.558   3.334 -1.0340 -3.4821 -2.5614
  872MOL0     H17713   4.983   0.720   3.268  0.2671  0.5152  2.5795
  872MOL0     H17714   4.882   0.624   3.094  0.7026 -1.3116 -0.2905
  872MOL0     H17715   4.757   0.572   3.222  0.3587 -1.5527  0.9861
  872MOL0     H17716   4.900   0.364   3.260 -3.2715 -0.5554 -0.1437
  872MOL0     H17717   5.008   0.411   3.134  0.0492 -2.8918 -0.5790
  872MOL0     H17718   4.645   0.231   2.992 -0.1975  2.9860 -3.7829
  872MOL0     H17719   4.639   0.302   3.520  0.7905 -0.4472 -1.9227
  872MOL0     H17720   4.718   0.129   3.658  0.9158 -0.4863 -1.4351
  873MOL0     O17721   6.026   7.873   4.560  0.0600  0.1267 -0.5971
  873MOL0     C17722   5.997   7.989   4.596 -0.7290  0.3203 -0.8474
  873MOL0     O17723   5.873   8.043   4.595  0.0310 -0.0538 -0.0055
  873MOL0     C17724   5.767   7.970   4.540 -0.2251  0.0239  0.3358
  873MOL0     C17725   5.773   7.921   4.409  0.7077  0.4773 -0.1207
  873MOL0     C17726   5.662   7.865   4.350 -0.5344 -0.4709 -0.7966
  873MOL0     C17727   5.549   7.849   4.426 -0.1012  0.1100  0.3709
  873MOL0     O17728   5.428   7.799   4.383 -0.1198 -0.4731  0.3294
  873MOL0     C17729   5.418   7.735   4.261  0.3117  0.0584 -0.1859
  873MOL0     C17730   5.277   7.673   4.251 -0.8777  0.5902  0.2656
  873MOL0     C17731   5.277   7.550   4.155  0.0640 -0.8372 -0.2611
  873MOL0     C17732   5.148   7.465   4.156 -0.6102  0.1769  0.3615
  873MOL0     C17733   5.004   7.543   4.163  1.1410 -0.3847 -0.1485
  873MOL0     C17734   4.899   7.485   4.074 -0.1495  0.7960 -0.4245
  873MOL0     C17735   4.843   7.357   4.124 -0.1315  0.5677 -0.4776
  873MOL0     C17736   4.758   7.278   4.020 -0.1410  0.2259  0.1411
  873MOL0     N17737   4.817   7.249   3.892 -0.5461 -0.4632 -0.7590
  873MOL0     C17738   4.939   7.176   3.864  0.8642  0.8065 -0.4222
  873MOL0     C17739   4.976   7.203   3.734 -1.1464 -0.1110  0.3189
  873MOL0     C17740   5.105   7.167   3.672  0.3197  0.0651 -0.6234
  873MOL0     C17741   5.224   7.265   3.700 -0.2930  0.5422  0.3673
  873MOL0     C17742   5.200   7.414   3.681 -1.3304 -0.2525  0.0317
  873MOL0     C17743   5.319   7.513   3.671 -0.3090  0.6452 -0.6732
  873MOL0     O17744   5.393   7.525   3.794  0.8311 -0.3188 -0.5516
  873MOL0     C17745   5.490   7.616   3.807  0.1282 -0.4392  0.1477
  873MOL0     C17746   5.517   7.718   3.713  0.1684  0.0439  0.9057
  873MOL0     C17747   5.631   7.802   3.735  0.1511  0.7092  1.3874
  873MOL0     C17748   5.643   7.904   3.621  0.9221 -0.0385  0.6517
  873MOL0     C17749   5.707   7.785   3.854  0.5896  0.1154 -0.0037
  873MOL0     C17750   5.836   7.860   3.882  0.5612  1.5357  0.1904
  873MOL0     O17751   5.917   7.822   3.992 -0.7815 -0.0475  0.0655
  873MOL0     C17752   6.034   7.893   4.027  0.6389 -0.3592  0.0122
  873MOL0     C17753   6.016   7.991   4.122 -0.0091  0.2384 -0.7625
  873MOL0     C17754   6.123   8.075   4.161 -0.1767 -0.1419 -0.1487
  873MOL0     C17755   6.256   8.044   4.117  0.5963  0.1776  0.7445
  873MOL0     O17756   6.362   8.108   4.146 -0.3209 -0.0951 -0.0475
  873MOL0     C17757   6.358   8.223   4.233 -0.2484 -0.8627  0.3702
  873MOL0     C17758   6.497   8.289   4.235  0.8796  0.1221  0.5511
  873MOL0     C17759   6.597   8.196   4.302  0.7893  0.0939  0.8983
  873MOL0     C17760   6.702   8.258   4.373 -0.4165 -0.1587 -1.1335
  873MOL0     C17761   6.663   8.294   4.519 -0.0214 -1.0248  0.4388
  873MOL0     C17762   6.677   8.182   4.621 -0.0493 -0.6488  0.0583
  873MOL0     C17763   6.772   8.219   4.739 -0.1875  0.2577 -0.0337
  873MOL0     C17764   6.922   8.198   4.698  0.1543  0.2291  0.1835
  873MOL0    Cl17765   6.974   8.283   4.550  0.2079 -0.7589  0.4001
  873MOL0     C17766   6.272   7.938   4.023  0.5412  0.2521  0.3077
  873MOL0     C17767   6.161   7.870   3.971  0.4860  1.8163  0.0267
  873MOL0     O17768   5.853   7.954   3.815 -0.2820  0.1062 -0.0446
  873MOL0     C17769   5.669   7.685   3.941 -0.6060  0.5367 -0.4682
  873MOL0     C17770   5.559   7.609   3.919  0.0344  0.5366 -0.0921
  873MOL0     N17771   4.873   7.288   3.692  0.7022 -0.2584 -0.2597
  873MOL0     N17772   4.781   7.314   3.780  0.4908 -0.2965 -0.2183
  873MOL0     C17773   5.543   7.896   4.558  0.2476  0.0021 -0.3164
  873MOL0     C17774   5.649   7.963   4.621  0.3865  0.8808  0.5597
  873MOL0     C17775   6.113   8.074   4.657  0.3114  0.0144 -1.3218
  873MOL0     C17776   6.105   8.213   4.658 -0.0080  1.0418  0.3010
  873MOL0     C17777   6.201   8.288   4.714  0.0976 -0.1096 -0.3859
  873MOL0     C17778   6.319   8.234   4.777 -0.2236 -0.5612 -0.5282
  873MOL0     O17779   6.417   8.305   4.834  0.2823 -0.4741 -0.3709
  873MOL0     C17780   6.413   8.440   4.818  0.7996 -0.2296 -0.2520
  873MOL0     C17781   6.535   8.494   4.905  0.1636 -0.2784  0.6873
  873MOL0     C17782   6.522   8.457   5.052 -0.1497 -0.6438  0.1418
  873MOL0     C17783   6.621   8.532   5.148 -0.1784 -0.5304  0.2393
  873MOL0     C17784   6.745   8.462   5.158 -0.2171  0.4425 -0.1545
  873MOL0     C17785   6.858   8.416   5.183  0.7008 -0.6289  0.1962
  873MOL0     C17786   6.329   8.100   4.767  0.1491  0.7020 -0.1588
  873MOL0     C17787   6.234   8.020   4.704  0.2382  0.3265  0.4049
  873MOL0     H17788   5.863   7.933   4.350  0.5174 -0.6541 -0.6605
  873MOL0     H17789   5.666   7.836   4.246  0.4956  0.7613 -1.1266
  873MOL0     H17790   5.436   7.809   4.183 -0.9204  0.6575  0.0779
  873MOL0     H17791   5.488   7.653   4.246  0.7636  0.2271  0.8586
  873MOL0     H17792   5.241   7.635   4.347  2.2131  0.2560  1.4327
  873MOL0     H17793   5.200   7.742   4.214 -1.8768 -0.7408 -0.2024
  873MOL0     H17794   5.302   7.589   4.056  0.9160  1.1409  0.6643
  873MOL0     H17795   5.356   7.480   4.182 -0.5806 -1.8036 -0.8355
  873MOL0     H17796   5.145   7.407   4.064  1.1315 -0.3387  0.5824
  873MOL0     H17797   5.158   7.392   4.237 -3.5591  1.0572  1.6574
  873MOL0     H17798   4.967   7.514   4.262 -4.0167  3.9790 -0.3651
  873MOL0     H17799   5.008   7.651   4.153  1.2486 -0.2580  1.0696
  873MOL0     H17800   4.816   7.556   4.079 -2.0593 -1.3944  2.5156
  873MOL0     H17801   4.936   7.480   3.971  0.9668  0.3744 -0.0122
  873MOL0     H17802   4.927   7.295   4.154 -1.1413  1.2231  4.7740
  873MOL0     H17803   4.779   7.372   4.212 -2.2586 -0.6278 -1.7340
  873MOL0     H17804   4.660   7.320   3.998 -0.5982 -1.2654 -0.8712
  873MOL0     H17805   4.740   7.181   4.067 -3.8306  0.5202 -0.3336
  873MOL0     H17806   4.986   7.107   3.933  0.3434  0.3800 -0.4901
  873MOL0     H17807   5.126   7.061   3.690  1.3866  0.2365 -0.7808
  873MOL0     H17808   5.087   7.177   3.564 -3.2367 -2.1901 -0.4075
  873MOL0     H17809   5.306   7.251   3.629  1.8170  5.6768  1.3659
  873MOL0     H17810   5.266   7.240   3.798  1.9485  2.5340 -0.0033
  873MOL0     H17811   5.126   7.450   3.752  0.7116  2.1875  1.0706
  873MOL0     H17812   5.149   7.420   3.585 -4.1207  0.9116  1.4636
  873MOL0     H17813   5.283   7.611   3.638  0.4848  1.4358  0.6804
  873MOL0     H17814   5.389   7.473   3.597  0.8297  2.0844 -0.4113
  873MOL0     H17815   5.453   7.725   3.625  1.1562  0.3557  0.2035
  873MOL0     H17816   5.732   7.895   3.558  2.0938  3.4017  1.6059
  873MOL0     H17817   5.562   7.902   3.547  1.8006  3.1817 -0.5392
  873MOL0     H17818   5.651   8.004   3.664  0.7182  1.4198 -2.4267
  873MOL0     H17819   5.912   7.996   4.151 -0.4153  0.0012 -2.1061
  873MOL0     H17820   6.102   8.154   4.233  2.2832  0.0842  0.4255
  873MOL0     H17821   6.292   8.297   4.187  1.4062  1.0099  0.8912
  873MOL0     H17822   6.333   8.191   4.335  1.2820 -0.7275  0.8153
  873MOL0     H17823   6.514   8.322   4.132 -2.2343 -0.1288 -0.1489
  873MOL0     H17824   6.492   8.390   4.276 -0.4672  1.2133 -2.0347
  873MOL0     H17825   6.642   8.138   4.221  2.4041  0.3293  1.5929
  873MOL0     H17826   6.541   8.133   4.372 -2.8242  2.7837  0.6936
  873MOL0     H17827   6.787   8.190   4.369  0.3654  0.7284 -0.2697
  873MOL0     H17828   6.730   8.352   4.324  1.2789 -0.7166 -1.3014
  873MOL0     H17829   6.561   8.328   4.497  1.5232  2.2537 -2.5617
  873MOL0     H17830   6.727   8.377   4.550 -0.9247 -0.4952  0.9351
  873MOL0     H17831   6.581   8.160   4.670  1.3969 -0.9155  3.0317
  873MOL0     H17832   6.714   8.091   4.574  0.7052  0.3189 -1.2533
  873MOL0     H17833   6.745   8.149   4.820 -0.3138  0.6177  0.2365
  873MOL0     H17834   6.759   8.323   4.771  0.4180  0.0121  1.0766
  873MOL0     H17835   6.949   8.093   4.685 -0.5939  0.3845 -3.6201
  873MOL0     H17836   6.979   8.239   4.782  0.0434 -0.8882  0.8365
  873MOL0     H17837   6.371   7.923   3.982 -0.5681 -1.7770 -1.9005
  873MOL0     H17838   6.174   7.800   3.890  1.3608  3.7470 -1.6019
  873MOL0     H17839   5.738   7.675   4.024  1.1379  0.1405 -1.9155
  873MOL0     H17840   5.528   7.550   4.004  1.0929  1.4551  0.9688
  873MOL0     H17841   5.456   7.867   4.617  0.5122 -1.5909 -0.6784
  873MOL0     H17842   5.625   8.012   4.715 -1.4042  0.3317  0.4263
  873MOL0     H17843   6.016   8.254   4.612 -0.1873  0.3228  0.0138
  873MOL0     H17844   6.175   8.393   4.715  0.5883  0.0123  0.0106
  873MOL0     H17845   6.412   8.469   4.712 -0.6928 -0.1189 -0.2305
  873MOL0     H17846   6.325   8.482   4.867  1.5587 -1.1400  1.9929
  873MOL0     H17847   6.526   8.603   4.894  2.1628  0.2547  3.2835
  873MOL0     H17848   6.627   8.452   4.864  0.9642  1.8136  0.2209
  873MOL0     H17849   6.541   8.350   5.069  0.8788 -0.1684  2.2621
  873MOL0     H17850   6.422   8.483   5.087 -0.6695 -2.2463 -0.0652
  873MOL0     H17851   6.588   8.528   5.252 -0.3489 -1.0269  0.1703
  873MOL0     H17852   6.646   8.635   5.121  3.0285 -1.1875  0.3266
  873MOL0     H17853   6.957   8.389   5.215  2.4189  0.8176 -3.3335
  873MOL0     H17854   6.415   8.042   4.797  0.8969 -0.0437 -3.3178
  873MOL0     H17855   6.242   7.912   4.703 -0.0988  0.2820 -1.4732
  874MOL0     O17856   1.014   1.039   2.655 -0.3866 -0.5102 -1.3532
  874MOL0     C17857   1.125   1.053   2.713 -0.1801  0.1010 -0.0421
  874MOL0     O17858   1.161   1.150   2.796 -0.2847  0.7057  0.0537
  874MOL0     C17859   1.060   1.212   2.875 -0.8303  0.0099 -0.6178
  874MOL0     C17860   1.107   1.323   2.945  0.0639  0.4909  0.1431
  874MOL0     C17861   1.033   1.385   3.046 -0.0814  0.5216 -0.0975
  874MOL0     C17862   0.900   1.343   3.062 -0.4965 -0.0217 -0.2303
  874MOL0     O17863   0.799   1.403   3.136  0.0745 -0.6220 -0.0657
  874MOL0     C17864   0.847   1.479   3.249  1.2923  2.0622  0.1992
  874MOL0     C17865   0.728   1.534   3.329 -0.6936 -0.1357  0.0199
  874MOL0     C17866   0.688   1.674   3.298 -0.6266  0.0442 -0.3331
  874MOL0     C17867   0.659   1.694   3.149  0.1474 -0.1010 -0.2482
  874MOL0     C17868   0.652   1.832   3.091 -0.1511 -0.6841  0.0159
  874MOL0     C17869   0.786   1.909   3.118  0.0356 -0.6476 -0.7434
  874MOL0     C17870   0.903   1.857   3.039 -0.0059  0.4508  0.1242
  874MOL0     C17871   1.017   1.959   3.046 -0.0671 -0.3581 -1.5145
  874MOL0     N17872   1.088   1.915   3.168 -0.3580  0.5552  0.3731
  874MOL0     C17873   1.188   1.823   3.148  0.2534  0.6098 -0.5655
  874MOL0     C17874   1.227   1.805   3.280 -0.8768  0.0979  0.6429
  874MOL0     C17875   1.350   1.722   3.307 -0.7982 -0.0575  0.2023
  874MOL0     C17876   1.305   1.586   3.305 -0.2802  1.3855  0.0544
  874MOL0     C17877   1.172   1.543   3.385 -0.5208  0.1950  0.1134
  874MOL0     C17878   1.195   1.582   3.530  0.0139 -0.2847  0.6784
  874MOL0     O17879   1.090   1.519   3.605 -0.9123 -0.4744  0.0634
  874MOL0     C17880   0.972   1.573   3.620  0.1080  0.4146  0.1997
  874MOL0     C17881   0.943   1.703   3.592  0.2924  0.6587  0.2079
  874MOL0     C17882   0.826   1.763   3.628  0.2853 -0.5226  0.4455
  874MOL0     C17883   0.806   1.917   3.609  0.2633  0.0553  0.8093
  874MOL0     C17884   0.718   1.683   3.678  0.9880  0.3354 -0.4349
  874MOL0     C17885   0.578   1.729   3.700 -0.7930  0.1216 -0.2881
  874MOL0     O17886   0.510   1.655   3.783 -0.0247 -0.3507  0.3352
  874MOL0     C17887   0.372   1.658   3.776 -0.0325  0.9601  0.0465
  874MOL0     C17888   0.302   1.779   3.777 -1.2960  0.4502  0.0698
  874MOL0     C17889   0.166   1.788   3.764  0.8902  1.1322 -0.4767
  874MOL0     C17890   0.087   1.673   3.763 -0.1060 -0.5169  0.8008
  874MOL0     O17891  -0.048   1.674   3.781 -0.3440 -0.7939 -0.2528
  874MOL0     C17892  -0.118   1.692   3.655  0.5717 -0.7342 -0.3418
  874MOL0     C17893  -0.176   1.835   3.649 -0.7121  0.4916 -0.4545
  874MOL0     C17894  -0.293   1.841   3.556  0.1206  1.0202  0.8016
  874MOL0     C17895  -0.401   1.939   3.607 -0.4939 -0.5491  0.3825
  874MOL0     C17896  -0.514   1.959   3.507  0.3292 -0.8580 -0.6589
  874MOL0     C17897  -0.632   2.037   3.584 -0.1415  0.2366  0.7442
  874MOL0     C17898  -0.605   2.182   3.616 -0.3768 -0.9225 -0.4615
  874MOL0     C17899  -0.573   2.214   3.762  0.1112  1.4553 -0.2619
  874MOL0    Cl17900  -0.730   2.205   3.860 -0.0750  0.3871 -0.0091
  874MOL0     C17901   0.148   1.552   3.777  0.3217  0.1100 -0.5511
  874MOL0     C17902   0.289   1.536   3.786 -0.1538 -0.9801  0.6547
  874MOL0     O17903   0.537   1.818   3.626 -0.5783 -0.3913  0.0784
  874MOL0     C17904   0.743   1.544   3.696 -0.5997 -0.1742  0.8372
  874MOL0     C17905   0.868   1.499   3.678 -0.9943 -0.2378  0.2190
  874MOL0     N17906   1.159   1.891   3.365  0.0887  0.4273 -0.1435
  874MOL0     N17907   1.067   1.942   3.293  0.2949  0.6351  0.4852
  874MOL0     C17908   0.856   1.231   2.989  0.5028  0.1694 -0.3642
  874MOL0     C17909   0.929   1.168   2.901 -0.1052  0.5709  0.1699
  874MOL0     C17910   1.238   0.976   2.655 -0.9518 -0.0502 -0.3191
  874MOL0     C17911   1.217   0.891   2.546  0.1009 -0.1979  0.4750
  874MOL0     C17912   1.319   0.822   2.486 -0.2216  0.9061 -0.1746
  874MOL0     C17913   1.450   0.830   2.539  1.3147 -0.1799  0.2282
  874MOL0     O17914   1.552   0.758   2.487  0.7100 -0.2982 -0.3466
  874MOL0     C17915   1.554   0.732   2.347 -0.2375 -0.2045  1.1854
  874MOL0     C17916   1.693   0.671   2.311 -0.0925  0.4639  0.9684
  874MOL0     C17917   1.819   0.750   2.389 -0.2680  0.3800 -0.1969
  874MOL0     C17918   1.956   0.717   2.321 -0.3533  0.4043 -1.2418
  874MOL0     C17919   1.964   0.570   2.297 -1.0127 -0.2495 -0.3464
  874MOL0     C17920   1.975   0.449   2.276 -0.4734  0.1206 -0.7350
  874MOL0     C17921   1.472   0.913   2.657 -0.3232 -0.1050  0.9209
  874MOL0     C17922   1.372   0.993   2.706 -0.0247  0.1276 -0.6051
  874MOL0     H17923   1.207   1.362   2.923  0.8562 -0.9447  1.0406
  874MOL0     H17924   1.081   1.460   3.108 -0.7661 -0.2932  1.4859
  874MOL0     H17925   0.919   1.412   3.296  1.2710  1.9716  0.1030
  874MOL0     H17926   0.910   1.557   3.203  2.7495  1.0778  0.4513
  874MOL0     H17927   0.641   1.474   3.300  0.8317 -1.0089 -3.2933
  874MOL0     H17928   0.744   1.529   3.437  1.5217  3.9623  0.0630
  874MOL0     H17929   0.601   1.704   3.358 -0.7370 -2.0109  0.6162
  874MOL0     H17930   0.773   1.732   3.336 -1.7734  0.4224  1.8539
  874MOL0     H17931   0.734   1.650   3.082  0.3440  0.6061 -0.5050
  874MOL0     H17932   0.558   1.656   3.132 -1.5472  2.7557  2.3961
  874MOL0     H17933   0.634   1.830   2.983  1.2050 -2.1538 -0.2148
  874MOL0     H17934   0.575   1.887   3.147  0.9779 -0.5446  1.5035
  874MOL0     H17935   0.769   2.015   3.097  0.0314 -0.5333 -0.1847
  874MOL0     H17936   0.803   1.920   3.225 -1.8535 -0.5204 -0.4140
  874MOL0     H17937   0.937   1.758   3.072  0.8498 -0.0018 -1.9682
  874MOL0     H17938   0.870   1.846   2.935 -2.4118  1.3171  0.7146
  874MOL0     H17939   0.985   2.059   3.075  1.0806 -1.1088  3.2244
  874MOL0     H17940   1.087   1.956   2.962  3.1481  2.7656  0.7926
  874MOL0     H17941   1.232   1.777   3.060  1.0664  1.8697 -0.8380
  874MOL0     H17942   1.421   1.737   3.226 -2.4358  0.9407 -1.1134
  874MOL0     H17943   1.389   1.753   3.405  0.4634  1.7318 -0.8107
  874MOL0     H17944   1.382   1.514   3.332 -2.1356 -1.1684 -1.0328
  874MOL0     H17945   1.296   1.567   3.197 -0.0799 -0.1666  0.2944
  874MOL0     H17946   1.157   1.435   3.382 -0.2837 -0.0343  3.6116
  874MOL0     H17947   1.084   1.588   3.337  0.8362  0.5088 -2.2189
  874MOL0     H17948   1.213   1.689   3.543  3.2464  0.3226 -5.0743
  874MOL0     H17949   1.287   1.534   3.563  2.2289  2.7677 -0.5016
  874MOL0     H17950   1.013   1.777   3.553 -0.1536  2.5224  2.6733
  874MOL0     H17951   0.764   1.944   3.512  0.9971  1.1884  0.7885
  874MOL0     H17952   0.739   1.956   3.686 -2.2622  1.4394 -1.8860
  874MOL0     H17953   0.906   1.963   3.612 -0.3336  1.4022  0.8738
  874MOL0     H17954   0.364   1.867   3.784  0.0857 -0.5624  1.3511
  874MOL0     H17955   0.110   1.881   3.773  0.7597  0.9469  0.9053
  874MOL0     H17956  -0.059   1.678   3.564 -0.1985 -1.5759 -0.7266
  874MOL0     H17957  -0.200   1.620   3.646 -0.0033  0.1700 -3.7397
  874MOL0     H17958  -0.202   1.864   3.751  0.4901  1.2344 -0.3339
  874MOL0     H17959  -0.097   1.905   3.620  2.1236 -2.2946  0.0445
  874MOL0     H17960  -0.334   1.741   3.540 -0.3863  1.5182 -1.4160
  874MOL0     H17961  -0.261   1.882   3.460  1.3030  1.8407  1.5156
  874MOL0     H17962  -0.460   1.896   3.689 -1.2057  3.0905  1.9660
  874MOL0     H17963  -0.361   2.036   3.639 -1.0765  0.4208 -1.6539
  874MOL0     H17964  -0.560   1.863   3.484 -4.0760  0.3372  1.9046
  874MOL0     H17965  -0.479   2.014   3.419  0.7150  0.8009  0.4763
  874MOL0     H17966  -0.720   2.042   3.519  0.8429 -0.2581 -0.6768
  874MOL0     H17967  -0.646   1.973   3.672  0.8921  0.1559  0.8607
  874MOL0     H17968  -0.690   2.238   3.574 -0.2038 -2.3022 -2.8160
  874MOL0     H17969  -0.517   2.225   3.567  0.4312 -0.0664  1.6212
  874MOL0     H17970  -0.543   2.319   3.768  3.4086  0.6631 -1.0688
  874MOL0     H17971  -0.504   2.150   3.817 -1.9655  2.7421  4.3395
  874MOL0     H17972   0.091   1.464   3.809  1.2185  0.0156  0.8941
  874MOL0     H17973   0.336   1.439   3.798  0.1815 -0.7943  0.8500
  874MOL0     H17974   0.660   1.476   3.711 -0.6646 -0.5443 -0.9507
  874MOL0     H17975   0.882   1.391   3.676  0.1714 -0.1291  1.2260
  874MOL0     H17976   0.756   1.189   2.998  1.0117 -1.2635 -1.0365
  874MOL0     H17977   0.876   1.087   2.851 -3.5295  0.7633  3.0538
  874MOL0     H17978   1.112   0.888   2.518  0.2484 -1.8067 -0.0129
  874MOL0     H17979   1.291   0.760   2.400 -0.5404  2.9263 -1.5919
  874MOL0     H17980   1.487   0.649   2.324 -0.5548  0.3879 -0.1118
  874MOL0     H17981   1.534   0.823   2.290 -0.3143  0.9623  2.9740
  874MOL0     H17982   1.695   0.684   2.202 -0.6630  1.6579  1.0896
  874MOL0     H17983   1.690   0.563   2.329  0.4937  0.3618  0.5096
  874MOL0     H17984   1.817   0.730   2.496 -2.7577  0.0427 -0.2636
  874MOL0     H17985   1.807   0.858   2.372 -0.9461  0.3946  0.3340
  874MOL0     H17986   2.039   0.737   2.390 -1.8640 -1.3348  1.2334
  874MOL0     H17987   1.962   0.779   2.230  0.9554 -1.3108 -2.3797
  874MOL0     H17988   2.012   0.351   2.252  0.0794 -0.3150  1.5937
  874MOL0     H17989   1.576   0.919   2.687 -0.2903  2.6543  0.5117
  874MOL0     H17990   1.388   1.065   2.785 -2.3134 -0.7556  0.7783
  875MOL0     O17991   9.873   6.497   1.232 -0.7217 -0.0188  0.0008
  875MOL0     C17992   9.919   6.388   1.255 -0.9523  0.2429 -0.7532
  875MOL0     O17993   9.845   6.275   1.284 -0.1605  0.0552  0.5520
  875MOL0     C17994   9.714   6.272   1.257  0.6541  0.4987 -0.3474
  875MOL0     C17995   9.664   6.175   1.162 -0.4347  0.2336  0.5891
  875MOL0     C17996   9.528   6.181   1.122  0.1360  0.6568  0.8077
  875MOL0     C17997   9.438   6.284   1.170  0.3845  0.1617 -0.2637
  875MOL0     O17998   9.317   6.291   1.103 -0.6973 -0.1879 -0.2985
  875MOL0     C17999   9.203   6.291   1.190  0.3743  0.5005 -0.2015
  875MOL0     C18000   9.090   6.199   1.132  0.4645  0.2691 -0.1516
  875MOL0     C18001   8.980   6.192   1.247 -0.0888 -0.1856 -0.2927
  875MOL0     C18002   8.879   6.082   1.211 -0.5196 -0.2852 -0.3191
  875MOL0     C18003   8.800   6.049   1.336  0.6496 -0.2888  0.5199
  875MOL0     C18004   8.702   5.939   1.303  0.3753  0.5241 -0.4135
  875MOL0     C18005   8.582   5.928   1.402  0.0407 -0.1890  0.0542
  875MOL0     C18006   8.606   5.947   1.552 -0.4747  0.8190 -1.1010
  875MOL0     N18007   8.705   5.848   1.607 -0.0797 -1.0582  0.1066
  875MOL0     C18008   8.696   5.711   1.586  1.4209 -0.3871  1.3065
  875MOL0     C18009   8.810   5.650   1.612 -0.1290 -0.3554 -0.8108
  875MOL0     C18010   8.836   5.508   1.633 -0.2184 -0.4014  0.5367
  875MOL0     C18011   8.736   5.432   1.551  0.1163 -0.4755 -0.5537
  875MOL0     C18012   8.779   5.294   1.523 -0.2954 -0.2808 -0.7572
  875MOL0     C18013   8.664   5.200   1.492 -0.8039  0.1710  0.7086
  875MOL0     O18014   8.688   5.065   1.532  0.5401  1.4860  0.1237
  875MOL0     C18015   8.602   4.963   1.507 -0.4540 -0.1326 -0.2615
  875MOL0     C18016   8.574   4.859   1.593  0.5426  0.4145  0.1199
  875MOL0     C18017   8.475   4.758   1.575  0.6712  0.4124  1.4733
  875MOL0     C18018   8.443   4.674   1.697 -0.4755 -0.1204 -0.2757
  875MOL0     C18019   8.407   4.759   1.449 -0.5311  0.6298 -0.4126
  875MOL0     C18020   8.294   4.674   1.417  0.2784 -0.1691 -0.0571
  875MOL0     O18021   8.264   4.566   1.504 -0.1790 -0.7470  0.8089
  875MOL0     C18022   8.146   4.503   1.491  1.1972 -0.9186 -0.9886
  875MOL0     C18023   8.135   4.371   1.460  0.3766  0.3642 -0.4319
  875MOL0     C18024   8.004   4.314   1.468 -0.6612 -0.3290  0.5201
  875MOL0     C18025   7.896   4.387   1.512  0.5267 -0.0743 -0.1248
  875MOL0     O18026   7.766   4.338   1.536 -0.4416 -0.3678 -0.0300
  875MOL0     C18027   7.739   4.209   1.489 -1.0534  0.3688  0.1814
  875MOL0     C18028   7.598   4.177   1.521  0.6230 -0.1095  1.1119
  875MOL0     C18029   7.575   4.184   1.672  0.1138 -0.1754  0.7140
  875MOL0     C18030   7.421   4.152   1.703 -0.1571 -0.1807 -0.4082
  875MOL0     C18031   7.379   4.188   1.846  0.0934 -0.0880 -0.4119
  875MOL0     C18032   7.335   4.335   1.859 -0.0822 -0.6931 -0.3126
  875MOL0     C18033   7.294   4.372   2.007 -0.6505  0.1530  0.0694
  875MOL0     C18034   7.271   4.525   2.031 -0.3026 -0.4943  0.1778
  875MOL0    Cl18035   7.418   4.622   2.006 -0.2785  0.0667 -0.1750
  875MOL0     C18036   7.907   4.519   1.537  0.7423 -0.4386  0.7685
  875MOL0     C18037   8.032   4.578   1.532  0.4078 -0.7144  0.6345
  875MOL0     O18038   8.234   4.694   1.308 -0.0055  0.4484 -0.4731
  875MOL0     C18039   8.444   4.856   1.353 -0.0259  0.7967 -0.5429
  875MOL0     C18040   8.537   4.959   1.380  0.3385 -0.0238 -0.6773
  875MOL0     N18041   8.900   5.754   1.631  0.6172 -0.8100 -0.3461
  875MOL0     N18042   8.841   5.867   1.634  0.8237  0.7252 -0.6343
  875MOL0     C18043   9.490   6.372   1.268  0.2474  0.6502 -0.0837
  875MOL0     C18044   9.621   6.363   1.312 -0.6528  0.0958 -0.0466
  875MOL0     C18045  10.067   6.377   1.241  0.6479  0.4288  0.5027
  875MOL0     C18046  10.143   6.495   1.263  0.3927 -0.2309 -0.5389
  875MOL0     C18047  10.283   6.499   1.265 -0.5393  0.5174  0.1253
  875MOL0     C18048  10.357   6.383   1.234  0.1146 -0.0027  0.1077
  875MOL0     O18049  10.494   6.391   1.208  0.0624 -1.0380  0.8261
  875MOL0     C18050  10.568   6.267   1.203 -1.1504  0.3472 -0.3317
  875MOL0     C18051  10.717   6.297   1.178 -0.2796  0.1426  0.2651
  875MOL0     C18052  10.815   6.195   1.232  1.1903 -0.4048  0.4498
  875MOL0     C18053  10.950   6.210   1.160 -0.1029  0.8247 -0.1397
  875MOL0     C18054  11.034   6.311   1.225  0.4635  0.1526 -0.0540
  875MOL0     C18055  11.092   6.398   1.282  0.4858  0.3151 -0.1286
  875MOL0     C18056  10.278   6.258   1.215 -0.4559 -0.6485  0.5296
  875MOL0     C18057  10.146   6.257   1.214  0.6551 -0.3768  0.0470
  875MOL0     H18058   9.720   6.112   1.093 -1.5068 -0.0504 -0.0406
  875MOL0     H18059   9.494   6.123   1.037 -0.1417  3.4341 -1.1169
  875MOL0     H18060   9.230   6.254   1.289  0.9115  4.2127  1.2219
  875MOL0     H18061   9.161   6.391   1.202  0.6128  0.4192  1.6796
  875MOL0     H18062   9.056   6.230   1.032  3.0465 -0.5285 -1.3659
  875MOL0     H18063   9.124   6.096   1.115 -3.5678 -1.0461 -1.2539
  875MOL0     H18064   9.023   6.183   1.348  0.8857  2.0863 -0.4380
  875MOL0     H18065   8.922   6.284   1.244  0.3207  0.1016 -4.4196
  875MOL0     H18066   8.819   6.112   1.124 -0.9268  0.6834  0.2734
  875MOL0     H18067   8.926   5.988   1.181  1.2500  0.4744 -0.0630
  875MOL0     H18068   8.863   6.023   1.421  0.4004 -0.6533  0.5965
  875MOL0     H18069   8.740   6.137   1.364 -0.7622 -0.1924 -2.3979
  875MOL0     H18070   8.659   5.946   1.203 -3.0233  0.5195  0.9163
  875MOL0     H18071   8.767   5.851   1.297 -1.4614 -0.7918 -2.2286
  875MOL0     H18072   8.507   6.001   1.367  0.2598  0.1319  0.2470
  875MOL0     H18073   8.537   5.830   1.384  0.7455 -0.9486  2.1758
  875MOL0     H18074   8.506   5.939   1.596  1.3084 -0.3561  3.1561
  875MOL0     H18075   8.639   6.050   1.571 -3.9461  1.5434  2.1591
  875MOL0     H18076   8.602   5.660   1.564  0.2463  1.8087  1.0128
  875MOL0     H18077   8.937   5.490   1.596  0.2620 -0.2060  1.7193
  875MOL0     H18078   8.839   5.488   1.740 -0.2934  3.0135  1.2752
  875MOL0     H18079   8.716   5.479   1.454 -1.6586 -1.1957 -0.5770
  875MOL0     H18080   8.639   5.426   1.602 -0.9103  0.4064 -2.2772
  875MOL0     H18081   8.831   5.254   1.611 -0.3435 -0.5022 -0.8277
  875MOL0     H18082   8.863   5.300   1.453  1.5265  0.3608  1.3578
  875MOL0     H18083   8.672   5.203   1.383  0.6091 -0.9764  0.7380
  875MOL0     H18084   8.562   5.223   1.524 -1.6886 -0.6433 -1.3911
  875MOL0     H18085   8.642   4.840   1.675 -0.5415 -0.2573  0.8943
  875MOL0     H18086   8.472   4.727   1.788 -0.6953 -1.9293  0.8887
  875MOL0     H18087   8.334   4.668   1.698 -0.3970 -2.3344 -0.2481
  875MOL0     H18088   8.490   4.576   1.692  1.0400  0.5101  0.9372
  875MOL0     H18089   8.220   4.304   1.455  0.2311  0.2334 -1.1701
  875MOL0     H18090   7.997   4.207   1.450  1.7166 -0.3906 -0.4664
  875MOL0     H18091   7.753   4.217   1.381  0.0446  2.9604  0.4421
  875MOL0     H18092   7.808   4.134   1.527 -0.5888  1.0025  0.6181
  875MOL0     H18093   7.529   4.243   1.467 -1.6113 -0.8081  2.9648
  875MOL0     H18094   7.586   4.076   1.482  3.8456 -0.0082 -0.4963
  875MOL0     H18095   7.579   4.289   1.700  0.1961  0.0925 -0.2769
  875MOL0     H18096   7.636   4.118   1.734  0.6631 -0.8478 -0.5105
  875MOL0     H18097   7.362   4.202   1.625  1.2083  0.5214 -1.0285
  875MOL0     H18098   7.420   4.043   1.693 -1.5454 -0.1760 -0.4541
  875MOL0     H18099   7.466   4.179   1.912 -0.8562 -2.7864  0.5875
  875MOL0     H18100   7.299   4.120   1.875  1.0885 -1.1102  0.0246
  875MOL0     H18101   7.412   4.401   1.818  2.9505 -3.1616  1.0397
  875MOL0     H18102   7.250   4.349   1.791  1.1485  1.3824 -1.5399
  875MOL0     H18103   7.373   4.341   2.075 -0.8930  2.2749  1.3989
  875MOL0     H18104   7.200   4.319   2.023  0.0930 -1.2084  0.0587
  875MOL0     H18105   7.237   4.539   2.134 -2.0565  2.1977 -0.6359
  875MOL0     H18106   7.193   4.577   1.974 -0.1078  1.5425  1.6451
  875MOL0     H18107   7.813   4.565   1.563  0.0947 -0.8867 -0.6955
  875MOL0     H18108   8.048   4.683   1.551 -1.4670  0.2508 -2.3519
  875MOL0     H18109   8.390   4.868   1.259 -2.0304 -4.1123 -0.3219
  875MOL0     H18110   8.545   5.026   1.295  1.4097  0.3902 -0.2734
  875MOL0     H18111   9.435   6.450   1.320 -0.3975 -0.3469  0.7594
  875MOL0     H18112   9.657   6.432   1.387 -2.0825  2.3199 -1.2653
  875MOL0     H18113  10.094   6.591   1.279  1.3388  0.3730 -1.2127
  875MOL0     H18114  10.327   6.598   1.276  0.0982 -0.0363  4.1957
  875MOL0     H18115  10.549   6.219   1.300 -0.8370  0.1815 -0.3509
  875MOL0     H18116  10.526   6.206   1.123 -0.8761  0.0244 -0.2316
  875MOL0     H18117  10.732   6.393   1.227  0.5223  1.1217 -1.7749
  875MOL0     H18118  10.728   6.316   1.071  0.4334 -2.3803 -0.1729
  875MOL0     H18119  10.777   6.094   1.213  1.6726 -0.1781 -2.0650
  875MOL0     H18120  10.816   6.209   1.340 -1.0507 -0.7892  0.5755
  875MOL0     H18121  10.937   6.223   1.052  0.9791  0.1498 -0.3681
  875MOL0     H18122  10.998   6.114   1.181  1.0492  1.1249 -1.2689
  875MOL0     H18123  11.162   6.459   1.336  0.9166  0.2298 -0.5924
  875MOL0     H18124  10.319   6.158   1.211 -0.7617 -0.9030  2.5545
  875MOL0     H18125  10.092   6.163   1.207  0.7958 -0.3241 -3.9364
  876MOL0     O18126   4.069   7.160  10.157  0.5269 -0.6825 -0.1981
  876MOL0     C18127   4.063   7.276  10.194 -0.4825  0.4367 -0.3637
  876MOL0     O18128   3.962   7.365  10.168 -0.3206  0.7643  0.2240
  876MOL0     C18129   3.844   7.323  10.108 -0.1572  0.6747 -0.1356
  876MOL0     C18130   3.739   7.292  10.185 -0.0400 -0.1579 -0.4535
  876MOL0     C18131   3.629   7.229  10.136 -0.4938  0.8842  0.3589
  876MOL0     C18132   3.629   7.189   9.999 -0.1767  0.6945  0.0756
  876MOL0     O18133   3.518   7.116   9.956  0.0866 -0.1669  0.2087
  876MOL0     C18134   3.399   7.189   9.958  0.6019 -0.1739  0.3740
  876MOL0     C18135   3.309   7.121   9.858  1.2369 -0.4107  0.9649
  876MOL0     C18136   3.164   7.178   9.858  0.1964  0.0923  0.6041
  876MOL0     C18137   3.095   7.160   9.998 -0.8971  0.0605 -0.1789
  876MOL0     C18138   2.950   7.204   9.973 -0.5103 -0.3603  0.6823
  876MOL0     C18139   2.871   7.217  10.103 -0.9882 -0.4048  0.2516
  876MOL0     C18140   2.745   7.302  10.082  0.8312  0.9818  0.2403
  876MOL0     C18141   2.629   7.219  10.029 -0.7240 -0.3781  0.4779
  876MOL0     N18142   2.502   7.291   9.997  0.4009 -0.3405 -0.0955
  876MOL0     C18143   2.477   7.372   9.896 -0.6989  0.7848  0.5836
  876MOL0     C18144   2.348   7.410   9.909 -0.8768 -0.2572  0.1487
  876MOL0     C18145   2.293   7.520   9.813  0.5941  0.1028 -0.4726
  876MOL0     C18146   2.138   7.533   9.813  0.1543  0.6371  0.3411
  876MOL0     C18147   2.086   7.580   9.956 -0.1580 -0.0461 -0.0064
  876MOL0     C18148   1.923   7.600   9.943 -1.1130  0.1284 -0.8785
  876MOL0     O18149   1.868   7.472   9.900  0.1110  0.2910  0.4409
  876MOL0     C18150   1.732   7.463   9.869  0.1587 -0.6087 -0.3274
  876MOL0     C18151   1.682   7.339   9.844 -0.0182  0.5098  0.1660
  876MOL0     C18152   1.548   7.313   9.802 -0.6331  0.7212 -0.6714
  876MOL0     C18153   1.510   7.166   9.786  0.2215 -0.9248 -0.1619
  876MOL0     C18154   1.463   7.425   9.820 -0.0739  0.6848  0.6579
  876MOL0     C18155   1.318   7.421   9.803 -0.2112 -0.1112 -0.3879
  876MOL0     O18156   1.244   7.501   9.888  0.3050 -0.2482 -0.4872
  876MOL0     C18157   1.115   7.473   9.893 -0.4693  1.2296  0.3225
  876MOL0     C18158   1.079   7.339   9.916  0.3900 -0.0853 -0.9045
  876MOL0     C18159   0.942   7.312   9.939 -0.4318 -0.1041 -0.2310
  876MOL0     C18160   0.843   7.408   9.949  0.7024 -0.0156 -0.1444
  876MOL0     O18161   0.716   7.372   9.989  0.2330 -0.2512  0.6931
  876MOL0     C18162   0.681   7.386  10.123  0.1280 -0.0247 -0.4790
  876MOL0     C18163   0.534   7.412  10.143 -0.7149  0.3966 -0.6303
  876MOL0     C18164   0.486   7.372  10.285 -0.6497  0.3227  0.5908
  876MOL0     C18165   0.341   7.401  10.306  0.1809  0.0004 -0.4413
  876MOL0     C18166   0.301   7.366  10.448 -0.3240  0.3812 -0.6289
  876MOL0     C18167   0.152   7.359  10.469  0.0100  0.7439 -0.2732
  876MOL0     C18168   0.072   7.487  10.440 -0.0312  0.1595 -0.2846
  876MOL0     C18169   0.002   7.488  10.302 -0.1777 -0.2873 -0.3305
  876MOL0    Cl18170  -0.118   7.354  10.296 -0.0937  0.4013 -0.3216
  876MOL0     C18171   0.879   7.538   9.922 -1.1771 -0.8160 -0.2561
  876MOL0     C18172   1.015   7.573   9.896 -0.9185 -1.0433  0.6461
  876MOL0     O18173   1.273   7.363   9.703  0.3031  0.4122 -0.0057
  876MOL0     C18174   1.520   7.557   9.850  0.3318  0.5421  0.3374
  876MOL0     C18175   1.654   7.573   9.862  0.7917  0.5645  0.9786
  876MOL0     N18176   2.292   7.347  10.018 -0.2553  0.9593 -0.7009
  876MOL0     N18177   2.387   7.278  10.068  0.4615  0.1549 -0.0578
  876MOL0     C18178   3.737   7.223   9.917  0.2201  1.3097 -0.5617
  876MOL0     C18179   3.846   7.290   9.968  0.5723 -0.1041 -0.0670
  876MOL0     C18180   4.163   7.333  10.284  0.5907 -0.2821  0.3904
  876MOL0     C18181   4.135   7.426  10.386  0.7416 -0.5284  0.7435
  876MOL0     C18182   4.224   7.474  10.470 -0.2727 -0.3535  0.0067
  876MOL0     C18183   4.355   7.444  10.449  0.0137  0.5135 -0.1906
  876MOL0     O18184   4.441   7.531  10.514  0.1610  0.4796  0.2757
  876MOL0     C18185   4.550   7.580  10.430 -0.3999 -0.1070  0.3468
  876MOL0     C18186   4.614   7.678  10.526  0.1645  0.0779 -0.8594
  876MOL0     C18187   4.768   7.704  10.500  0.7389 -0.4093  0.0147
  876MOL0     C18188   4.790   7.749  10.359 -0.1405 -0.1413 -0.4854
  876MOL0     C18189   4.926   7.794  10.336 -0.2334  0.6876  0.3185
  876MOL0     C18190   5.037   7.826  10.299 -0.0981  0.0259 -0.5023
  876MOL0     C18191   4.396   7.347  10.353  0.2562  0.3540 -0.5544
  876MOL0     C18192   4.295   7.292  10.279  0.2471 -0.5497  0.2041
  876MOL0     H18193   3.755   7.312  10.291  2.7957  0.7281 -0.9711
  876MOL0     H18194   3.550   7.193  10.201 -1.1233  0.7003 -0.4818
  876MOL0     H18195   3.357   7.185  10.059 -3.8657 -0.1171 -1.2798
  876MOL0     H18196   3.409   7.294   9.929 -0.0160  0.1993  1.4598
  876MOL0     H18197   3.356   7.137   9.761 -0.2441  0.6073  0.3803
  876MOL0     H18198   3.305   7.012   9.869 -1.2076 -0.4665 -0.0180
  876MOL0     H18199   3.170   7.282   9.826 -1.3565 -0.2530 -0.9724
  876MOL0     H18200   3.110   7.113   9.789 -0.6572 -0.7782  2.0416
  876MOL0     H18201   3.089   7.066  10.054  0.5376  1.4030  2.4047
  876MOL0     H18202   3.147   7.230  10.063  1.5981  0.1057 -2.0777
  876MOL0     H18203   2.955   7.301   9.923 -0.7402  0.1003  1.5357
  876MOL0     H18204   2.885   7.139   9.913 -0.9166  1.3825 -0.8634
  876MOL0     H18205   2.848   7.122  10.152  1.6776 -0.4563  1.5605
  876MOL0     H18206   2.932   7.280  10.168 -0.9037 -0.8614  0.6150
  876MOL0     H18207   2.718   7.337  10.182  1.3466 -0.9796  1.1153
  876MOL0     H18208   2.766   7.394  10.026 -0.7944  1.2077 -0.0522
  876MOL0     H18209   2.603   7.149  10.108 -4.3981  0.0667 -0.1524
  876MOL0     H18210   2.648   7.153   9.943 -1.9746  0.0628 -0.1641
  876MOL0     H18211   2.543   7.403   9.815 -0.6007 -0.9585 -0.0506
  876MOL0     H18212   2.352   7.609   9.837 -0.5495  0.0001  3.5548
  876MOL0     H18213   2.327   7.499   9.712 -2.2279  1.8029 -1.9117
  876MOL0     H18214   2.090   7.437   9.790  1.3483  0.3777 -1.2679
  876MOL0     H18215   2.097   7.597   9.734 -0.5284 -3.2041 -2.7124
  876MOL0     H18216   2.129   7.672   9.996 -1.1409  0.5874 -0.3660
  876MOL0     H18217   2.103   7.502  10.030 -0.8667 -0.5998 -0.4031
  876MOL0     H18218   1.906   7.680   9.869  1.9232 -0.4717 -2.3967
  876MOL0     H18219   1.888   7.637  10.040  1.7360  0.8012 -0.0144
  876MOL0     H18220   1.745   7.255   9.871 -1.4224 -1.0306 -1.1534
  876MOL0     H18221   1.478   7.158   9.681  2.3319 -0.1315 -0.9144
  876MOL0     H18222   1.592   7.098   9.808  1.0503  0.1668  0.1697
  876MOL0     H18223   1.425   7.135   9.848  0.3047 -0.1644  0.3377
  876MOL0     H18224   1.153   7.259   9.921  1.4419  0.8668  3.1242
  876MOL0     H18225   0.915   7.212   9.973 -0.8857 -0.2725 -1.0689
  876MOL0     H18226   0.714   7.295  10.173 -1.2691  0.7453  2.0381
  876MOL0     H18227   0.732   7.475  10.161 -0.5989  1.1854 -2.1976
  876MOL0     H18228   0.506   7.514  10.116 -2.2577 -0.5762 -2.9893
  876MOL0     H18229   0.480   7.351  10.070  1.6734 -1.3233 -1.1005
  876MOL0     H18230   0.536   7.430  10.364 -2.0165  2.1792  0.1530
  876MOL0     H18231   0.492   7.263  10.294  0.8480  0.3391  0.0569
  876MOL0     H18232   0.330   7.510  10.313 -0.1163 -0.0197 -0.5927
  876MOL0     H18233   0.282   7.355  10.226  0.1690  0.0484 -0.4603
  876MOL0     H18234   0.350   7.435  10.518 -0.6757 -1.0120  1.0687
  876MOL0     H18235   0.330   7.261  10.461 -2.4000 -0.4561 -2.2275
  876MOL0     H18236   0.113   7.278  10.406  0.3602  0.7414 -0.4887
  876MOL0     H18237   0.132   7.333  10.573 -1.2155  3.0909  0.1480
  876MOL0     H18238   0.135   7.576  10.441 -0.0917  0.2210  1.7812
  876MOL0     H18239  -0.007   7.490  10.516  0.6949  0.6669  0.4685
  876MOL0     H18240   0.077   7.468  10.225 -0.4311 -6.6459  0.5054
  876MOL0     H18241  -0.047   7.585  10.292  1.2121  0.9448  3.2786
  876MOL0     H18242   0.810   7.621   9.925  1.6188  1.7490 -1.3546
  876MOL0     H18243   1.044   7.677   9.889  0.7068 -1.5714 -0.8907
  876MOL0     H18244   1.451   7.641   9.859 -0.7096 -0.4399  1.8102
  876MOL0     H18245   1.684   7.676   9.877 -1.9787  2.0143 -2.0562
  876MOL0     H18246   3.742   7.196   9.812 -1.8798 -0.7239 -0.2283
  876MOL0     H18247   3.939   7.310   9.915 -0.4647  1.1047 -1.5333
  876MOL0     H18248   4.035   7.462  10.405  1.4253  1.2644  1.1535
  876MOL0     H18249   4.194   7.556  10.534  0.1844 -0.5302  0.4476
  876MOL0     H18250   4.618   7.496  10.414  2.6431  2.1358  0.7708
  876MOL0     H18251   4.525   7.624  10.332  0.9791 -0.4545 -0.1794
  876MOL0     H18252   4.599   7.650  10.630 -1.6064  3.0355 -0.2023
  876MOL0     H18253   4.570   7.778  10.524  1.3596  0.6274 -0.4738
  876MOL0     H18254   4.833   7.617  10.514  5.7855  2.4468 -2.7895
  876MOL0     H18255   4.793   7.781  10.573  1.3459 -1.2687  0.7354
  876MOL0     H18256   4.728   7.839  10.357 -0.0230  0.6482  6.5289
  876MOL0     H18257   4.776   7.674  10.281  0.4637  1.4892 -2.2511
  876MOL0     H18258   5.127   7.865  10.256 -1.0274 -0.5210 -3.1526
  876MOL0     H18259   4.503   7.326  10.347 -0.2483 -3.0781  0.6076
  876MOL0     H18260   4.328   7.229  10.197 -0.5092  0.9170 -1.2973
  877MOL0     O18261   3.045   0.834   6.426  0.2956  0.1589  0.7069
  877MOL0     C18262   3.151   0.859   6.362  0.2388  0.0720 -0.0516
  877MOL0     O18263   3.165   0.927   6.242 -0.2387  0.4765 -0.5871
  877MOL0     C18264   3.053   0.977   6.172  0.0170  0.3854 -0.2006
  877MOL0     C18265   2.955   1.050   6.244  0.4768  0.1607 -0.0356
  877MOL0     C18266   2.835   1.086   6.184 -1.3093  0.4180  0.3921
  877MOL0     C18267   2.822   1.064   6.047 -0.0843  0.4438 -0.4163
  877MOL0     O18268   2.702   1.103   5.988 -0.2259 -0.3773 -0.2941
  877MOL0     C18269   2.702   1.116   5.847  1.0467  0.4112 -0.2791
  877MOL0     C18270   2.560   1.142   5.801 -0.2762  0.2348  0.1105
  877MOL0     C18271   2.570   1.140   5.651  0.2489 -1.0792 -0.2625
  877MOL0     C18272   2.447   1.201   5.592 -1.0633  0.4528 -0.2415
  877MOL0     C18273   2.297   1.167   5.643 -0.8187 -0.1658  0.5410
  877MOL0     C18274   2.264   1.021   5.626 -0.0561  0.3685  1.1803
  877MOL0     C18275   2.130   0.980   5.682  0.0087  0.8609 -0.3308
  877MOL0     C18276   2.151   0.909   5.822 -0.2363 -0.5232 -0.6715
  877MOL0     N18277   2.013   0.894   5.872  0.2399 -1.0584 -0.5050
  877MOL0     C18278   1.922   0.997   5.910  0.3135 -0.9013 -0.6751
  877MOL0     C18279   1.806   0.932   5.945  0.5209 -0.3542  0.9147
  877MOL0     C18280   1.684   0.999   6.004 -1.2475 -0.2892 -0.0296
  877MOL0     C18281   1.565   1.042   5.911 -0.8234  0.0159  0.7020
  877MOL0     C18282   1.475   0.917   5.881 -0.4576  0.0352 -0.9478
  877MOL0     C18283   1.373   0.959   5.767  0.7204  0.6045 -1.0934
  877MOL0     O18284   1.245   0.990   5.818 -0.3160 -0.4078  0.1028
  877MOL0     C18285   1.155   0.884   5.833  0.7103  0.8608 -0.5174
  877MOL0     C18286   1.196   0.751   5.819  0.0336 -0.0302  0.2990
  877MOL0     C18287   1.094   0.649   5.829  0.5542  0.5764 -0.4223
  877MOL0     C18288   1.156   0.507   5.832  0.7408 -0.4108 -1.2905
  877MOL0     C18289   0.952   0.677   5.847 -0.2645 -0.7635 -0.1844
  877MOL0     C18290   0.844   0.582   5.869 -0.6297 -0.5788  0.2270
  877MOL0     O18291   0.727   0.632   5.841 -0.5935 -0.6854  0.2211
  877MOL0     C18292   0.605   0.584   5.896 -0.3139  0.3456  0.0737
  877MOL0     C18293   0.594   0.565   6.034  0.4245 -1.0050 -0.3799
  877MOL0     C18294   0.473   0.542   6.098  1.6259  0.0537 -0.3667
  877MOL0     C18295   0.354   0.539   6.027  0.6557 -0.5992  0.2758
  877MOL0     O18296   0.229   0.516   6.083  0.5852  0.0093  0.6929
  877MOL0     C18297   0.207   0.390   6.140  0.7094 -0.4077  0.0618
  877MOL0     C18298   0.250   0.365   6.285  0.2367  1.0132  0.1514
  877MOL0     C18299   0.170   0.452   6.383  1.1819 -1.0184 -0.4409
  877MOL0     C18300   0.205   0.604   6.375  0.4573 -0.0759  0.1332
  877MOL0     C18301   0.178   0.670   6.514  1.4845  0.2594  0.9552
  877MOL0     C18302   0.187   0.825   6.502  0.1489  0.0457 -0.3425
  877MOL0     C18303   0.332   0.866   6.534 -0.3936  0.6794  0.1917
  877MOL0     C18304   0.362   1.015   6.528  0.2746  0.8041  0.0062
  877MOL0    Cl18305   0.531   1.044   6.586 -0.0481  0.1231 -0.0860
  877MOL0     C18306   0.369   0.546   5.885 -0.2088  0.1073  0.7284
  877MOL0     C18307   0.490   0.561   5.822 -1.1336 -0.1902  0.5696
  877MOL0     O18308   0.870   0.469   5.913  0.0415 -0.1914  0.2531
  877MOL0     C18309   0.919   0.813   5.870 -0.1588 -0.6344 -0.2251
  877MOL0     C18310   1.018   0.913   5.859 -0.5499  0.4707 -0.5287
  877MOL0     N18311   1.827   0.805   5.915  0.3012  0.2762 -0.6859
  877MOL0     N18312   1.937   0.775   5.876 -0.6759  0.5003  0.1309
  877MOL0     C18313   2.924   0.990   5.971 -0.1246 -0.8225  0.6112
  877MOL0     C18314   3.038   0.948   6.039 -0.4383 -0.2277  0.2939
  877MOL0     C18315   3.280   0.799   6.414  0.2052 -0.2456  0.1663
  877MOL0     C18316   3.407   0.854   6.379  0.1120  0.1202 -0.7023
  877MOL0     C18317   3.530   0.809   6.428 -0.4612 -0.5251 -0.6916
  877MOL0     C18318   3.541   0.693   6.501 -0.1061 -0.0743 -0.6355
  877MOL0     O18319   3.660   0.650   6.554  0.4895 -0.0408 -0.1982
  877MOL0     C18320   3.773   0.727   6.523  0.1848 -0.1577  0.2299
  877MOL0     C18321   3.888   0.656   6.600  0.5246  0.6284  1.6875
  877MOL0     C18322   4.020   0.628   6.522  0.0675  0.9083 -0.9784
  877MOL0     C18323   4.071   0.755   6.452 -0.6081 -0.7367 -0.2759
  877MOL0     C18324   4.079   0.867   6.552 -0.6254 -0.9496  0.2532
  877MOL0     C18325   4.102   0.953   6.632 -0.4473  0.2777 -1.1264
  877MOL0     C18326   3.422   0.629   6.533  0.2591  0.2012  0.7448
  877MOL0     C18327   3.291   0.685   6.498  0.1185  0.3131 -0.6258
  877MOL0     H18328   2.969   1.064   6.350 -0.6123  0.3786  0.0894
  877MOL0     H18329   2.757   1.138   6.239 -0.2357  1.4208  0.9984
  877MOL0     H18330   2.773   1.196   5.826  1.0696  0.1691 -1.1591
  877MOL0     H18331   2.735   1.029   5.791 -1.4465 -0.4513 -0.5575
  877MOL0     H18332   2.502   1.055   5.831  1.7525 -1.6172 -1.0254
  877MOL0     H18333   2.523   1.230   5.854 -2.5192 -1.2740  1.1877
  877MOL0     H18334   2.646   1.210   5.615 -3.1166  2.3915 -1.2279
  877MOL0     H18335   2.582   1.038   5.613  1.3299 -0.9611 -0.2841
  877MOL0     H18336   2.454   1.310   5.603 -0.8544  0.2869  1.6943
  877MOL0     H18337   2.442   1.177   5.486 -2.9036 -0.7579  0.0785
  877MOL0     H18338   2.300   1.193   5.749  1.3613  0.8339  0.2870
  877MOL0     H18339   2.222   1.228   5.591  0.6148  1.4077  0.2307
  877MOL0     H18340   2.265   1.005   5.517  0.5134 -3.6346  1.6352
  877MOL0     H18341   2.342   0.949   5.653  1.7092  0.8052 -2.1881
  877MOL0     H18342   2.068   1.070   5.685 -1.5103 -0.1536 -0.2130
  877MOL0     H18343   2.078   0.910   5.616 -1.7562  1.3843  0.4544
  877MOL0     H18344   2.210   0.970   5.891  1.6438 -1.6799 -1.1923
  877MOL0     H18345   2.198   0.811   5.816  0.4597 -0.1442 -1.5799
  877MOL0     H18346   1.942   1.102   5.931 -0.5720 -0.8968  0.2087
  877MOL0     H18347   1.647   0.920   6.069 -2.0231  0.4482  0.4516
  877MOL0     H18348   1.713   1.084   6.067 -0.9658  0.0713 -0.6365
  877MOL0     H18349   1.607   1.058   5.812 -1.7611  2.0999  0.5965
  877MOL0     H18350   1.515   1.133   5.945  0.0747  0.3046  1.3090
  877MOL0     H18351   1.413   0.892   5.968  0.4326 -0.3836 -0.4166
  877MOL0     H18352   1.530   0.830   5.845  1.6833  1.1926 -0.6754
  877MOL0     H18353   1.368   0.880   5.691 -0.2218  1.3944 -1.8743
  877MOL0     H18354   1.413   1.046   5.714  4.6862 -0.9497 -1.0355
  877MOL0     H18355   1.300   0.719   5.811 -0.0397 -0.0375 -0.9572
  877MOL0     H18356   1.121   0.451   5.745 -3.7184  1.4766 -1.0006
  877MOL0     H18357   1.261   0.503   5.863  0.4482  0.6813 -0.0767
  877MOL0     H18358   1.109   0.455   5.915  1.4670  1.7230  0.5781
  877MOL0     H18359   0.678   0.580   6.100 -0.0221  0.5443 -0.1219
  877MOL0     H18360   0.483   0.543   6.206  0.8967  2.1326 -0.2672
  877MOL0     H18361   0.099   0.369   6.134  0.5123  0.5927  0.0168
  877MOL0     H18362   0.253   0.316   6.073 -0.3740  0.6752 -1.9903
  877MOL0     H18363   0.226   0.261   6.310 -0.0240  1.8648  4.0953
  877MOL0     H18364   0.355   0.385   6.305  0.1548  1.4590  0.1481
  877MOL0     H18365   0.202   0.403   6.475  4.8425 -4.0973 -3.0202
  877MOL0     H18366   0.062   0.447   6.372  0.8352  0.2641  1.8001
  877MOL0     H18367   0.311   0.615   6.347  1.0899  0.2398  2.4453
  877MOL0     H18368   0.143   0.655   6.300  2.5237  2.5225  0.0549
  877MOL0     H18369   0.230   0.629   6.600 -2.1545 -1.6871  2.4783
  877MOL0     H18370   0.076   0.631   6.521  0.8678  1.2638 -1.3178
  877MOL0     H18371   0.146   0.863   6.408 -0.6531  1.4739  0.5463
  877MOL0     H18372   0.107   0.858   6.569 -1.5037 -4.4330  0.2614
  877MOL0     H18373   0.387   0.825   6.449 -1.1092 -0.2420  0.1627
  877MOL0     H18374   0.357   0.828   6.633 -2.1864 -2.1527 -0.3246
  877MOL0     H18375   0.287   1.065   6.590  0.5933 -0.2882  1.3111
  877MOL0     H18376   0.357   1.054   6.426  1.2338 -1.3663 -0.9374
  877MOL0     H18377   0.287   0.517   5.820  2.5560 -2.2862 -2.0164
  877MOL0     H18378   0.495   0.568   5.713  0.1960 -0.2079  0.6040
  877MOL0     H18379   0.819   0.832   5.907 -0.8767 -0.4171 -2.2068
  877MOL0     H18380   0.991   1.016   5.880  0.9025  0.6933  0.3854
  877MOL0     H18381   2.936   0.971   5.865  2.8559 -0.4133  0.7836
  877MOL0     H18382   3.110   0.882   5.991 -2.1199 -0.3349 -2.2838
  877MOL0     H18383   3.402   0.942   6.315  0.2746 -0.0765 -0.9853
  877MOL0     H18384   3.614   0.873   6.402 -1.0613  0.5169 -0.1476
  877MOL0     H18385   3.781   0.721   6.414 -1.7850  0.8340 -0.0123
  877MOL0     H18386   3.779   0.831   6.557  1.7030 -0.5784  1.3657
  877MOL0     H18387   3.852   0.553   6.611 -0.2743  0.0328 -3.5380
  877MOL0     H18388   3.901   0.704   6.697  1.4769  3.2091  0.3904
  877MOL0     H18389   4.015   0.548   6.447 -0.1076  2.2629 -2.4749
  877MOL0     H18390   4.090   0.597   6.600 -1.7925 -0.3881  0.2560
  877MOL0     H18391   4.006   0.778   6.366 -0.0520 -0.8689 -0.7406
  877MOL0     H18392   4.176   0.740   6.427  0.1475  0.9518  1.6128
  877MOL0     H18393   4.139   1.027   6.700  2.6527 -1.8488 -0.3194
  877MOL0     H18394   3.427   0.540   6.595  1.3223 -0.7164 -0.5991
  877MOL0     H18395   3.202   0.634   6.533  0.4114  0.9001  1.0989
  878MOL0     O18396   9.692  11.343   1.649 -0.7756 -0.2585  0.0445
  878MOL0     C18397   9.660  11.449   1.591 -0.6753  0.2657 -0.2346
  878MOL0     O18398   9.634  11.463   1.456  0.8137  0.3713 -0.6281
  878MOL0     C18399   9.669  11.353   1.377  0.0014  0.4073 -0.3791
  878MOL0     C18400   9.782  11.278   1.377 -0.4058  0.1185  0.0444
  878MOL0     C18401   9.808  11.165   1.300  0.6284 -0.4334  1.2752
  878MOL0     C18402   9.721  11.136   1.192 -0.2083 -0.3786  0.0866
  878MOL0     O18403   9.743  11.041   1.100  0.5287  0.0467 -1.8497
  878MOL0     C18404   9.636  11.000   1.009  0.5216 -0.1393 -0.1070
  878MOL0     C18405   9.657  10.899   0.898  0.1517 -0.0654  0.5490
  878MOL0     C18406   9.549  10.791   0.888 -0.3345  0.4851 -0.0180
  878MOL0     C18407   9.413  10.830   0.848  0.0983  0.5504  0.2890
  878MOL0     C18408   9.315  10.728   0.786 -0.2439 -0.4150  0.5702
  878MOL0     C18409   9.281  10.610   0.888 -0.4860  0.1554 -0.4944
  878MOL0     C18410   9.353  10.475   0.862 -0.3942 -0.1315  0.5166
  878MOL0     C18411   9.348  10.430   0.713 -0.5845  0.1177 -0.2089
  878MOL0     N18412   9.217  10.419   0.658  0.2073 -0.3186 -0.3317
  878MOL0     C18413   9.166  10.503   0.559  0.0509 -0.0375 -0.6162
  878MOL0     C18414   9.045  10.451   0.529 -0.3711  0.2384  0.2316
  878MOL0     C18415   8.961  10.495   0.416 -0.6077  0.2422 -0.0278
  878MOL0     C18416   8.808  10.524   0.433 -0.4177  0.5363 -0.1964
  878MOL0     C18417   8.750  10.633   0.529 -0.1308 -0.3984  0.5776
  878MOL0     C18418   8.832  10.630   0.655  0.2621 -0.6001 -0.4004
  878MOL0     O18419   8.775  10.728   0.746 -0.7481 -0.3752  0.6936
  878MOL0     C18420   8.698  10.692   0.855 -1.2739  0.0017  0.3806
  878MOL0     C18421   8.616  10.575   0.858 -0.2054  0.9754 -0.2274
  878MOL0     C18422   8.532  10.551   0.968 -0.5499  0.2205 -0.0847
  878MOL0     C18423   8.456  10.417   0.968 -0.1633 -0.7741 -0.2292
  878MOL0     C18424   8.536  10.645   1.076  0.0790  0.6385  0.2494
  878MOL0     C18425   8.469  10.607   1.209 -0.0815  0.2829  0.1508
  878MOL0     O18426   8.528  10.682   1.321 -0.8394  0.3021  1.2068
  878MOL0     C18427   8.458  10.699   1.437 -0.3428  0.4065  0.0764
  878MOL0     C18428   8.381  10.589   1.495 -0.2178 -0.7625 -0.0121
  878MOL0     C18429   8.324  10.603   1.614  1.3949 -0.2611  0.0143
  878MOL0     C18430   8.333  10.727   1.685 -0.4605 -0.7942 -0.3254
  878MOL0     O18431   8.272  10.759   1.804  0.0417  0.2524 -0.5696
  878MOL0     C18432   8.128  10.756   1.797 -0.0081 -0.4088  0.1748
  878MOL0     C18433   8.086  10.802   1.931  0.0305  0.0619 -0.3722
  878MOL0     C18434   7.929  10.814   1.948 -0.8691  0.5953 -0.1330
  878MOL0     C18435   7.891  10.857   2.094  0.0264 -0.5444 -0.3743
  878MOL0     C18436   7.740  10.841   2.120  0.1497  0.0100 -1.2840
  878MOL0     C18437   7.688  10.871   2.267 -0.2949  0.7312 -0.8162
  878MOL0     C18438   7.655  11.015   2.296  0.1536  0.6887 -0.4096
  878MOL0     C18439   7.616  11.054   2.441 -1.2890  0.7567 -0.3028
  878MOL0    Cl18440   7.503  11.186   2.457  0.0117 -0.0347  0.1260
  878MOL0     C18441   8.411  10.835   1.633 -0.0729 -0.0350  0.4432
  878MOL0     C18442   8.473  10.819   1.506  0.8166  0.8607 -0.1872
  878MOL0     O18443   8.389  10.518   1.217 -0.3158 -0.1802  0.0004
  878MOL0     C18444   8.621  10.755   1.073  0.2432 -0.1058 -0.2288
  878MOL0     C18445   8.702  10.782   0.962  0.1558  0.0067 -0.4048
  878MOL0     N18446   9.022  10.343   0.616  0.4306  0.1510  0.5685
  878MOL0     N18447   9.122  10.334   0.697 -0.3795 -0.5298  0.2473
  878MOL0     C18448   9.600  11.211   1.190 -0.4480  0.1874  0.2895
  878MOL0     C18449   9.583  11.324   1.275  0.3973  0.2863  0.5060
  878MOL0     C18450   9.619  11.557   1.672 -0.1565 -0.4314  0.1533
  878MOL0     C18451   9.604  11.539   1.806  0.6022 -0.3884 -0.9155
  878MOL0     C18452   9.558  11.635   1.896 -0.0768 -0.4374  0.1248
  878MOL0     C18453   9.518  11.765   1.842  0.4343  0.0667  0.9039
  878MOL0     O18454   9.447  11.854   1.920 -0.9259  0.3430 -1.2442
  878MOL0     C18455   9.508  11.973   1.963 -0.6945  0.2933 -0.2073
  878MOL0     C18456   9.426  12.097   1.921  0.1941 -0.8916  0.5961
  878MOL0     C18457   9.273  12.085   1.965 -0.1041  0.4281  0.4602
  878MOL0     C18458   9.200  12.225   1.969  0.0790 -0.1311  0.1060
  878MOL0     C18459   9.168  12.283   1.842  1.2497 -0.9288 -0.5634
  878MOL0     C18460   9.140  12.361   1.745 -0.0993  0.2300  0.1677
  878MOL0     C18461   9.527  11.785   1.702  0.4746 -0.0268 -0.2422
  878MOL0     C18462   9.570  11.685   1.626 -0.4171  0.0515  0.6191
  878MOL0     H18463   9.857  11.316   1.446  2.1762 -3.1810 -0.6950
  878MOL0     H18464   9.901  11.109   1.307  0.4695 -1.0128 -0.6254
  878MOL0     H18465   9.543  10.969   1.059 -1.4162  5.0315  0.1277
  878MOL0     H18466   9.595  11.086   0.955 -1.8662 -0.5617  0.8648
  878MOL0     H18467   9.678  10.951   0.805 -0.3295  0.9141  0.9718
  878MOL0     H18468   9.746  10.840   0.924  1.4437  1.8696  0.6831
  878MOL0     H18469   9.582  10.703   0.831  1.6178 -0.6511  2.6502
  878MOL0     H18470   9.547  10.742   0.986 -0.8881  0.2215 -0.1543
  878MOL0     H18471   9.363  10.882   0.931  0.1773  1.6232 -0.3113
  878MOL0     H18472   9.426  10.900   0.765 -4.5819 -0.3358 -1.5208
  878MOL0     H18473   9.218  10.778   0.781 -1.9069 -3.1799  2.7607
  878MOL0     H18474   9.349  10.691   0.689 -0.7267 -0.5318  0.4444
  878MOL0     H18475   9.307  10.639   0.990  1.2744 -2.7658  0.0032
  878MOL0     H18476   9.174  10.584   0.887 -0.3102 -0.7602  1.4077
  878MOL0     H18477   9.460  10.472   0.884 -0.7495 -0.3322  2.4251
  878MOL0     H18478   9.321  10.398   0.932  3.1030  0.1983  2.7092
  878MOL0     H18479   9.410  10.340   0.719  1.9067  1.8292  1.8619
  878MOL0     H18480   9.410  10.502   0.658 -0.1187  2.0550  2.6485
  878MOL0     H18481   9.220  10.591   0.526 -1.0869  1.4851  1.3554
  878MOL0     H18482   9.020  10.577   0.374  0.2529  0.1035  0.8796
  878MOL0     H18483   8.967  10.417   0.339 -0.9191  2.2301 -2.2046
  878MOL0     H18484   8.765  10.432   0.473 -0.4216  1.7414  2.8026
  878MOL0     H18485   8.765  10.546   0.335 -0.2528 -1.4390 -0.7523
  878MOL0     H18486   8.644  10.608   0.539 -0.6097  0.5012 -1.6518
  878MOL0     H18487   8.767  10.730   0.480  3.8081 -0.9692  0.4757
  878MOL0     H18488   8.934  10.669   0.642  0.0129  2.2696  4.0093
  878MOL0     H18489   8.815  10.531   0.698 -1.5830  0.0529  0.4712
  878MOL0     H18490   8.619  10.493   0.787 -1.7493 -3.4893  4.2552
  878MOL0     H18491   8.348  10.421   0.979  0.1086  1.1261  2.6404
  878MOL0     H18492   8.476  10.370   0.871 -1.0801 -0.5087 -0.5562
  878MOL0     H18493   8.500  10.357   1.048  1.8954 -1.7349 -1.9793
  878MOL0     H18494   8.380  10.495   1.441  0.1658 -0.7765  0.0013
  878MOL0     H18495   8.265  10.521   1.655 -2.3144  2.2528  0.2325
  878MOL0     H18496   8.113  10.830   1.718  3.4210 -0.6856 -0.9046
  878MOL0     H18497   8.088  10.659   1.767  0.9327 -1.0528  0.9514
  878MOL0     H18498   8.119  10.726   2.001 -4.0623 -1.5774  0.0895
  878MOL0     H18499   8.115  10.905   1.955 -2.0903  0.7453 -0.5297
  878MOL0     H18500   7.885  10.715   1.932  3.6768 -1.8940  1.0646
  878MOL0     H18501   7.885  10.874   1.867  0.3692  1.0423 -0.5162
  878MOL0     H18502   7.939  10.788   2.165 -1.1078 -0.5720  0.3903
  878MOL0     H18503   7.923  10.957   2.123  1.5169 -1.9613  3.6986
  878MOL0     H18504   7.704  10.740   2.097 -1.0802  0.3729 -1.0278
  878MOL0     H18505   7.692  10.912   2.053  1.3953  2.2170  0.0318
  878MOL0     H18506   7.602  10.807   2.290  0.8018 -0.8440 -0.9310
  878MOL0     H18507   7.761  10.832   2.338 -4.1800 -3.2173  1.5464
  878MOL0     H18508   7.577  11.033   2.221 -1.2261  0.0452  0.8160
  878MOL0     H18509   7.735  11.083   2.268 -0.0762  1.1649  0.0824
  878MOL0     H18510   7.703  11.081   2.501 -0.8615  3.5711 -1.9953
  878MOL0     H18511   7.567  10.966   2.483 -1.8569  1.0653 -0.2975
  878MOL0     H18512   8.439  10.918   1.697  2.5151 -0.0531 -0.5305
  878MOL0     H18513   8.553  10.879   1.463  1.3414  0.0485 -0.3821
  878MOL0     H18514   8.627  10.822   1.158 -1.3212 -1.2872  0.8634
  878MOL0     H18515   8.766  10.867   0.944 -1.7953  1.8046  0.6619
  878MOL0     H18516   9.527  11.204   1.111  1.0690  0.6501 -1.2087
  878MOL0     H18517   9.492  11.376   1.247  0.1819 -1.0395 -1.4658
  878MOL0     H18518   9.622  11.441   1.848 -1.2283 -0.4995 -0.3225
  878MOL0     H18519   9.553  11.609   2.001 -1.2104  0.2139  0.2507
  878MOL0     H18520   9.504  11.976   2.072 -0.6376  3.2993 -0.2056
  878MOL0     H18521   9.610  11.982   1.924 -1.3916  1.2738 -1.9032
  878MOL0     H18522   9.440  12.115   1.814 -2.9018 -0.6511  0.1582
  878MOL0     H18523   9.470  12.188   1.966  2.9098 -1.3623 -0.8719
  878MOL0     H18524   9.264  12.033   2.061  2.7644 -3.7464 -1.2344
  878MOL0     H18525   9.213  12.033   1.889 -0.9668 -0.4658  1.6984
  878MOL0     H18526   9.258  12.295   2.030  0.6018 -1.2083  0.8816
  878MOL0     H18527   9.104  12.195   2.014  0.2882 -2.5044 -0.8921
  878MOL0     H18528   9.108  12.417   1.659  1.0780 -0.2446 -0.6059
  878MOL0     H18529   9.483  11.875   1.662  0.6050 -1.4282 -3.8619
  878MOL0     H18530   9.565  11.692   1.518 -1.4101  0.0338  0.6579
  879MOL0     O18531   7.763   8.708   8.010  0.1705 -1.1496 -0.0330
  879MOL0     C18532   7.758   8.752   7.894 -0.2334  0.4696  0.1154
  879MOL0     O18533   7.638   8.771   7.824  0.4074 -0.2981  0.2240
  879MOL0     C18534   7.530   8.764   7.907  0.1350 -0.7618 -0.1921
  879MOL0     C18535   7.467   8.637   7.906  0.3639 -0.3969 -0.3227
  879MOL0     C18536   7.365   8.617   8.004 -0.5646  0.7648  0.6045
  879MOL0     C18537   7.320   8.718   8.083  0.5485 -0.0304  0.2670
  879MOL0     O18538   7.206   8.687   8.153  0.7361  0.1165  0.3325
  879MOL0     C18539   7.124   8.794   8.190 -0.2250 -0.3999 -0.2490
  879MOL0     C18540   6.977   8.754   8.236  0.4724 -1.0068  0.0858
  879MOL0     C18541   6.908   8.870   8.307  0.2299 -1.1057  0.2965
  879MOL0     C18542   6.784   8.824   8.373  0.7930  1.0372 -0.1919
  879MOL0     C18543   6.761   8.920   8.490 -0.1646  0.0104 -0.6497
  879MOL0     C18544   6.621   8.900   8.549  0.4402 -0.6738  0.2002
  879MOL0     C18545   6.596   9.022   8.646 -1.3835  0.0911 -0.8675
  879MOL0     C18546   6.507   8.974   8.761 -0.8029 -0.5734  0.1116
  879MOL0     N18547   6.472   9.090   8.843  1.0117 -0.0240 -1.0108
  879MOL0     C18548   6.558   9.170   8.919 -0.5151  0.2200 -0.2430
  879MOL0     C18549   6.466   9.248   8.986 -0.1608  1.1954  0.0158
  879MOL0     C18550   6.505   9.347   9.097 -0.1953 -0.8117  0.1286
  879MOL0     C18551   6.614   9.283   9.196  0.0533 -0.1654  0.2420
  879MOL0     C18552   6.622   9.378   9.313 -0.4239 -0.6109 -0.8970
  879MOL0     C18553   6.734   9.331   9.399  0.4959 -0.0300 -0.6352
  879MOL0     O18554   6.857   9.389   9.355 -0.3589  0.1436 -0.6367
  879MOL0     C18555   6.964   9.302   9.343  0.2540 -0.1252 -0.8425
  879MOL0     C18556   7.020   9.231   9.458 -0.4997 -0.4048 -0.0469
  879MOL0     C18557   7.126   9.143   9.441  0.1836  0.1183  0.1416
  879MOL0     C18558   7.169   9.053   9.565  0.0409  0.3404 -0.6500
  879MOL0     C18559   7.197   9.134   9.317  0.9201  0.6908  1.1506
  879MOL0     C18560   7.320   9.039   9.287  0.1386  0.4395  0.9366
  879MOL0     O18561   7.381   8.971   9.387 -0.8011  0.4166  0.7635
  879MOL0     C18562   7.500   8.910   9.366 -0.0843  0.5780 -0.2133
  879MOL0     C18563   7.623   8.959   9.411 -0.6967 -0.8288 -1.0581
  879MOL0     C18564   7.741   8.889   9.395 -0.2927 -0.2418 -0.2039
  879MOL0     C18565   7.743   8.756   9.345  0.5162  0.0266 -0.5852
  879MOL0     O18566   7.847   8.687   9.292 -0.7918 -0.0666  0.1527
  879MOL0     C18567   7.947   8.776   9.233  0.4435  0.5230 -0.6716
  879MOL0     C18568   8.061   8.783   9.334 -0.0211  0.4310 -0.3763
  879MOL0     C18569   8.172   8.880   9.297 -0.7886 -0.2110 -0.0683
  879MOL0     C18570   8.237   8.851   9.150 -0.0111  0.4670 -0.3580
  879MOL0     C18571   8.355   8.952   9.133 -0.0787  1.3845  0.7286
  879MOL0     C18572   8.305   9.100   9.129 -0.7940 -0.3444 -0.2618
  879MOL0     C18573   8.176   9.123   9.047  0.3556 -0.8398 -0.9790
  879MOL0     C18574   8.168   9.272   9.003 -0.9552  0.0345 -0.9590
  879MOL0    Cl18575   8.011   9.309   8.925  0.1885 -0.0366  0.3877
  879MOL0     C18576   7.618   8.708   9.293  0.2387  0.1376 -0.2350
  879MOL0     C18577   7.499   8.778   9.308 -1.3086 -0.3891 -0.3174
  879MOL0     O18578   7.362   9.037   9.172  0.5837  0.0422  0.4476
  879MOL0     C18579   7.136   9.205   9.206  0.2579  0.6360  0.1182
  879MOL0     C18580   7.020   9.280   9.221 -0.2815  0.6548 -0.2277
  879MOL0     N18581   6.340   9.221   8.944  0.6796  0.0819  0.1820
  879MOL0     N18582   6.344   9.139   8.842 -0.4658  0.9260  0.2349
  879MOL0     C18583   7.390   8.835   8.087  0.0997 -0.4377 -0.4023
  879MOL0     C18584   7.501   8.862   8.005 -0.2664  0.6425  0.3061
  879MOL0     C18585   7.876   8.779   7.811 -0.9978 -0.7874  0.1241
  879MOL0     C18586   7.875   8.827   7.674  0.2722 -0.7500  0.5185
  879MOL0     C18587   7.990   8.823   7.600 -0.2003  0.0009 -0.1417
  879MOL0     C18588   8.113   8.798   7.664 -0.4051 -0.5803  0.1045
  879MOL0     O18589   8.235   8.819   7.603  1.0534  0.0345 -0.4998
  879MOL0     C18590   8.236   8.845   7.465 -0.4672  0.3596  0.6805
  879MOL0     C18591   8.390   8.830   7.420  1.2584  0.7156  0.4157
  879MOL0     C18592   8.422   8.685   7.455 -0.6897  0.3010  0.1937
  879MOL0     C18593   8.573   8.651   7.432  0.5092 -0.6440 -0.7140
  879MOL0     C18594   8.598   8.523   7.371 -0.2186 -0.1545  0.4382
  879MOL0     C18595   8.625   8.417   7.321 -0.8363 -0.1307  0.7577
  879MOL0     C18596   8.119   8.764   7.795  0.4840 -0.0929 -0.1094
  879MOL0     C18597   8.002   8.764   7.872 -0.9295  0.2211 -0.0867
  879MOL0     H18598   7.511   8.571   7.832 -0.6472 -2.4909  0.8643
  879MOL0     H18599   7.309   8.527   8.027 -0.7506  0.6117 -0.3822
  879MOL0     H18600   7.180   8.847   8.268 -2.0746 -0.5400  1.2309
  879MOL0     H18601   7.122   8.852   8.097 -0.1764 -0.6813 -0.4278
  879MOL0     H18602   6.912   8.738   8.150 -1.0132  0.4211  0.8702
  879MOL0     H18603   6.978   8.671   8.307 -2.3336 -1.8167 -0.6833
  879MOL0     H18604   6.979   8.906   8.382  1.4924  1.3462 -1.9372
  879MOL0     H18605   6.880   8.956   8.245 -0.0401 -0.6644  1.0096
  879MOL0     H18606   6.697   8.829   8.308  2.4920 -2.3092 -3.0743
  879MOL0     H18607   6.808   8.727   8.420 -0.4136  1.0379  0.4600
  879MOL0     H18608   6.828   8.914   8.576 -2.5768 -1.4167  1.2221
  879MOL0     H18609   6.762   9.022   8.450 -0.6847  0.0759 -0.4969
  879MOL0     H18610   6.560   8.917   8.459  2.4168  0.7261 -0.9717
  879MOL0     H18611   6.592   8.806   8.596  0.7017 -1.0478 -0.3756
  879MOL0     H18612   6.688   9.061   8.690 -2.2612 -0.7522  1.9123
  879MOL0     H18613   6.550   9.105   8.591  2.5845  0.4846 -4.0362
  879MOL0     H18614   6.548   8.896   8.825 -1.3667 -1.8609 -1.0567
  879MOL0     H18615   6.414   8.934   8.721 -0.1025 -0.8186 -1.3126
  879MOL0     H18616   6.665   9.164   8.931 -0.4694 -1.2062 -1.1036
  879MOL0     H18617   6.548   9.441   9.061 -1.3351 -0.4027 -0.1929
  879MOL0     H18618   6.420   9.372   9.161 -0.0248  2.1031 -0.6437
  879MOL0     H18619   6.710   9.290   9.144  0.1982  1.2806  0.6442
  879MOL0     H18620   6.582   9.183   9.227 -0.6688  0.2748  0.9698
  879MOL0     H18621   6.527   9.385   9.366 -1.4783 -1.7472 -2.5336
  879MOL0     H18622   6.652   9.475   9.274 -0.6865 -0.2286 -0.1625
  879MOL0     H18623   6.735   9.222   9.383 -1.2161 -0.0266 -0.9596
  879MOL0     H18624   6.722   9.340   9.507 -1.6023  3.6991 -1.0429
  879MOL0     H18625   6.975   9.220   9.556 -0.6074  0.4189  0.0096
  879MOL0     H18626   7.145   8.946   9.561  2.9561 -0.3857 -1.1067
  879MOL0     H18627   7.277   9.066   9.577 -0.1391  1.3521 -0.0947
  879MOL0     H18628   7.106   9.089   9.646 -3.4970 -1.5960 -2.3038
  879MOL0     H18629   7.634   9.043   9.478  1.4661 -1.1279 -0.9584
  879MOL0     H18630   7.833   8.936   9.427  0.4320 -2.8482  1.9183
  879MOL0     H18631   7.990   8.724   9.147  2.1245 -1.2167  1.1090
  879MOL0     H18632   7.920   8.880   9.212 -1.0131  0.9080  2.5464
  879MOL0     H18633   8.014   8.802   9.430  0.2717 -2.0001  0.3212
  879MOL0     H18634   8.108   8.684   9.340  2.4306  1.2075 -3.6038
  879MOL0     H18635   8.253   8.863   9.369 -0.5910 -1.6387 -0.5832
  879MOL0     H18636   8.145   8.985   9.304  5.7720  1.8276  2.2907
  879MOL0     H18637   8.267   8.746   9.143  0.1259  0.6121 -3.4402
  879MOL0     H18638   8.165   8.868   9.069 -0.4398  2.3248  0.3604
  879MOL0     H18639   8.408   8.931   9.040  0.4898 -0.3237  1.4043
  879MOL0     H18640   8.432   8.935   9.209 -0.9398 -3.1812  0.8253
  879MOL0     H18641   8.295   9.140   9.231  1.1246  0.0790 -0.1849
  879MOL0     H18642   8.391   9.146   9.079  0.4443 -0.8530  1.2954
  879MOL0     H18643   8.095   9.095   9.115  0.3019 -2.0379 -1.4991
  879MOL0     H18644   8.181   9.057   8.959 -0.5954 -2.5305  0.1559
  879MOL0     H18645   8.258   9.294   8.945  0.5226 -0.0090  1.1936
  879MOL0     H18646   8.172   9.329   9.096 -0.1173 -0.9885 -0.3356
  879MOL0     H18647   7.630   8.605   9.260 -0.2113 -0.1966  0.5954
  879MOL0     H18648   7.406   8.723   9.298 -2.1797 -0.0473  3.9675
  879MOL0     H18649   7.172   9.187   9.106  3.3579 -0.6785  1.3510
  879MOL0     H18650   6.960   9.317   9.139 -2.0115 -0.9232  0.2472
  879MOL0     H18651   7.349   8.912   8.150 -1.7435 -1.0181 -0.8348
  879MOL0     H18652   7.556   8.955   7.994  0.2362  0.1904 -1.2775
  879MOL0     H18653   7.782   8.850   7.623  0.3255 -2.5778 -0.4618
  879MOL0     H18654   7.976   8.839   7.494 -0.7775 -1.6302 -0.3392
  879MOL0     H18655   8.176   8.777   7.406 -0.2548 -1.4436  2.4490
  879MOL0     H18656   8.211   8.945   7.427  2.5251  0.9781  0.0409
  879MOL0     H18657   8.451   8.900   7.477 -1.2742  1.8713  1.9076
  879MOL0     H18658   8.400   8.849   7.313  4.9616  0.9359  0.6761
  879MOL0     H18659   8.368   8.611   7.396  1.7757 -0.2559 -1.5330
  879MOL0     H18660   8.408   8.668   7.562 -1.7278 -0.5119 -0.0488
  879MOL0     H18661   8.609   8.660   7.535 -2.6595  1.4536  0.3875
  879MOL0     H18662   8.609   8.730   7.366  1.6151  0.1762  0.7990
  879MOL0     H18663   8.645   8.326   7.268 -0.2845  0.5858 -0.2920
  879MOL0     H18664   8.220   8.753   7.832  1.1839  3.3691 -0.6858
  879MOL0     H18665   8.012   8.718   7.969  3.4493 -1.8002 -1.2382
  880MOL0     O18666   1.721   3.216   2.227 -0.1954 -0.1234  0.0639
  880MOL0     C18667   1.673   3.143   2.144 -0.2941 -0.9040  0.7718
  880MOL0     O18668   1.552   3.087   2.152  0.5289  0.5184 -0.1297
  880MOL0     C18669   1.485   3.104   2.271 -0.5908 -0.6301  0.5634
  880MOL0     C18670   1.533   3.096   2.407 -0.2357  0.2841 -0.7941
  880MOL0     C18671   1.445   3.116   2.517 -0.6882  0.2334 -0.2101
  880MOL0     C18672   1.314   3.162   2.495 -1.4834  0.2951 -0.6788
  880MOL0     O18673   1.217   3.174   2.599 -0.2561  0.0212  0.2506
  880MOL0     C18674   1.261   3.186   2.735 -0.3966  0.1312 -0.2455
  880MOL0     C18675   1.153   3.120   2.834 -0.4898 -0.3416  0.9323
  880MOL0     C18676   1.030   3.207   2.858  0.6116  0.3735  0.6248
  880MOL0     C18677   0.950   3.237   2.732 -0.0808  1.4163 -0.0768
  880MOL0     C18678   0.830   3.314   2.775 -0.0717 -0.4594  0.0266
  880MOL0     C18679   0.741   3.360   2.661  0.3164 -0.7066  1.4781
  880MOL0     C18680   0.594   3.378   2.710 -0.7949  0.0176  0.2279
  880MOL0     C18681   0.568   3.510   2.782  0.0722 -0.8565  0.1640
  880MOL0     N18682   0.431   3.545   2.775  0.4684 -0.1930  0.3389
  880MOL0     C18683   0.375   3.615   2.676 -0.2940  0.6164  0.3142
  880MOL0     C18684   0.240   3.628   2.713 -0.1881  0.3177  0.2138
  880MOL0     C18685   0.150   3.704   2.632  0.1525  0.3056  1.1905
  880MOL0     C18686   0.096   3.825   2.710 -0.8957 -0.2691 -0.4716
  880MOL0     C18687  -0.021   3.804   2.803  0.6000  0.1832  0.8935
  880MOL0     C18688  -0.161   3.785   2.748  0.1713 -0.8973  0.2079
  880MOL0     O18689  -0.192   3.916   2.693  0.7452  0.2521 -0.0897
  880MOL0     C18690  -0.322   3.953   2.676  0.1977  0.3060 -0.3607
  880MOL0     C18691  -0.438   3.877   2.687  0.1890 -0.0225  0.3418
  880MOL0     C18692  -0.569   3.939   2.672  0.4236 -0.0945 -0.6905
  880MOL0     C18693  -0.692   3.854   2.673 -1.0810 -0.3173 -0.4398
  880MOL0     C18694  -0.579   4.077   2.633  0.0885 -0.0420  0.5791
  880MOL0     C18695  -0.707   4.156   2.634 -0.0723 -0.1491 -0.6420
  880MOL0     O18696  -0.685   4.284   2.586 -0.9476 -0.5781 -0.9748
  880MOL0     C18697  -0.768   4.388   2.579 -0.5206 -0.2485  0.6174
  880MOL0     C18698  -0.702   4.515   2.565 -0.0903 -0.6906 -0.2877
  880MOL0     C18699  -0.779   4.635   2.568 -0.0727  0.3345  0.7297
  880MOL0     C18700  -0.918   4.634   2.561 -0.2622  0.1836  0.6760
  880MOL0     O18701  -0.994   4.746   2.553 -0.9924  0.1761  0.0723
  880MOL0     C18702  -0.954   4.830   2.436 -0.0837  0.5909  0.3281
  880MOL0     C18703  -1.063   4.921   2.389  0.4521  0.0811 -0.0535
  880MOL0     C18704  -1.097   5.034   2.492 -0.5979 -0.3888  0.6092
  880MOL0     C18705  -1.192   4.990   2.603 -0.0196  0.2255 -0.1044
  880MOL0     C18706  -1.230   5.103   2.695 -0.4582  0.0575 -0.7325
  880MOL0     C18707  -1.381   5.095   2.727 -0.1045  0.8486  0.0830
  880MOL0     C18708  -1.420   4.979   2.812  0.3256  0.5801  0.2518
  880MOL0     C18709  -1.573   4.954   2.805 -0.7501  1.6822  1.1603
  880MOL0    Cl18710  -1.669   5.067   2.918  0.1508  0.1196 -0.2422
  880MOL0     C18711  -0.983   4.508   2.572 -0.2027 -0.1531  0.2092
  880MOL0     C18712  -0.912   4.388   2.579 -0.1129 -0.5459 -0.9743
  880MOL0     O18713  -0.817   4.121   2.695 -0.2024 -0.7649  0.2620
  880MOL0     C18714  -0.454   4.153   2.613 -0.2989  0.6483 -0.1749
  880MOL0     C18715  -0.330   4.087   2.647  0.6373  0.2630  0.4647
  880MOL0     N18716   0.231   3.591   2.849 -0.2401 -0.8803 -0.3604
  880MOL0     N18717   0.346   3.541   2.881  0.1807  0.3304  0.6387
  880MOL0     C18718   1.278   3.196   2.363  0.8042 -0.1065 -0.0378
  880MOL0     C18719   1.359   3.165   2.254 -0.9199 -0.1602  0.3373
  880MOL0     C18720   1.751   3.126   2.017  0.4522 -0.8072 -0.0388
  880MOL0     C18721   1.863   3.206   1.983 -0.0022 -0.3936 -0.5635
  880MOL0     C18722   1.909   3.202   1.855  0.5215  0.2253  0.1954
  880MOL0     C18723   1.854   3.111   1.757 -0.7129 -0.1774 -2.1208
  880MOL0     O18724   1.890   3.115   1.628 -0.4589 -0.3274  0.0719
  880MOL0     C18725   1.890   3.256   1.572  0.7448  0.0162 -0.5167
  880MOL0     C18726   1.956   3.254   1.428  0.3552  0.5462 -0.2820
  880MOL0     C18727   2.094   3.194   1.437  0.2484 -0.2008  0.2256
  880MOL0     C18728   2.176   3.194   1.302 -0.1399  0.0879 -0.0859
  880MOL0     C18729   2.202   3.320   1.248 -0.5607 -0.7358  0.3757
  880MOL0     C18730   2.233   3.428   1.204 -1.2368 -0.1139 -0.8263
  880MOL0     C18731   1.760   3.023   1.795 -0.3092  0.1136 -0.4609
  880MOL0     C18732   1.698   3.036   1.920  0.1796  0.5705 -0.2598
  880MOL0     H18733   1.630   3.057   2.435 -0.6037 -1.2084 -1.4890
  880MOL0     H18734   1.487   3.087   2.613 -0.1962  0.4251 -0.3631
  880MOL0     H18735   1.348   3.121   2.752 -1.4906 -1.4971 -0.6176
  880MOL0     H18736   1.279   3.290   2.765 -2.4592  0.2836  0.6112
  880MOL0     H18737   1.122   3.030   2.781  1.3323  0.1122 -1.0661
  880MOL0     H18738   1.203   3.103   2.929  0.6690 -1.2970  0.1819
  880MOL0     H18739   0.971   3.161   2.938  0.4556 -0.6983 -0.0892
  880MOL0     H18740   1.067   3.305   2.891  0.9843  1.8806 -3.6454
  880MOL0     H18741   1.010   3.289   2.657 -1.4513  2.1257 -0.7202
  880MOL0     H18742   0.916   3.148   2.677 -4.5054  2.6749  0.2500
  880MOL0     H18743   0.774   3.253   2.847 -1.2689 -0.3197 -0.7553
  880MOL0     H18744   0.865   3.400   2.834  0.9091 -0.6857 -0.2105
  880MOL0     H18745   0.789   3.450   2.621 -1.9109 -0.9675 -2.1812
  880MOL0     H18746   0.739   3.283   2.584 -3.0601 -0.6090  1.3149
  880MOL0     H18747   0.526   3.373   2.624 -1.8294 -0.3971  1.0417
  880MOL0     H18748   0.560   3.296   2.773 -1.3460 -2.9100 -3.5265
  880MOL0     H18749   0.624   3.596   2.744 -1.8291  1.4998  2.3741
  880MOL0     H18750   0.591   3.496   2.888 -0.4508  0.0215  0.3969
  880MOL0     H18751   0.413   3.642   2.578 -1.6509  0.0400 -0.4116
  880MOL0     H18752   0.194   3.734   2.537 -0.1282  0.2023  1.0266
  880MOL0     H18753   0.063   3.642   2.607  1.2029 -0.1640 -1.7093
  880MOL0     H18754   0.069   3.903   2.637 -2.2403 -0.1791  0.0867
  880MOL0     H18755   0.181   3.864   2.767 -3.2340  0.8461  2.5311
  880MOL0     H18756  -0.019   3.880   2.882 -0.6145  0.5200  0.6193
  880MOL0     H18757  -0.003   3.717   2.867 -2.1316  1.4195  3.5710
  880MOL0     H18758  -0.229   3.773   2.833 -1.0050  1.5618 -0.2941
  880MOL0     H18759  -0.163   3.703   2.676 -0.5861  0.0608 -0.8855
  880MOL0     H18760  -0.424   3.772   2.708  1.3143 -0.1244 -0.7913
  880MOL0     H18761  -0.788   3.893   2.706 -0.8154 -0.2204  0.2406
  880MOL0     H18762  -0.706   3.806   2.576 -1.2192 -2.2195  0.4732
  880MOL0     H18763  -0.686   3.765   2.737 -0.3273 -2.2501 -3.0151
  880MOL0     H18764  -0.593   4.518   2.569 -0.1222  1.1759  0.2728
  880MOL0     H18765  -0.729   4.731   2.570 -0.0181  0.4028 -1.3912
  880MOL0     H18766  -0.865   4.891   2.454  1.0578 -0.9529  0.0540
  880MOL0     H18767  -0.940   4.772   2.345 -4.3437  1.2575 -0.9667
  880MOL0     H18768  -1.037   4.980   2.300 -2.0276  0.5741 -0.5267
  880MOL0     H18769  -1.154   4.870   2.356  0.5104 -1.2796  1.7497
  880MOL0     H18770  -1.139   5.109   2.426 -1.8600 -3.5501 -2.5029
  880MOL0     H18771  -1.002   5.067   2.535 -0.2917  3.0198 -2.2772
  880MOL0     H18772  -1.279   4.941   2.558  1.0133 -0.5375 -1.3359
  880MOL0     H18773  -1.135   4.915   2.659 -1.9936 -0.5086  1.0705
  880MOL0     H18774  -1.204   5.205   2.663 -1.4019  1.6657  3.0777
  880MOL0     H18775  -1.173   5.102   2.788  0.9309 -1.1378 -1.5537
  880MOL0     H18776  -1.423   5.184   2.775 -1.4788 -0.5888  1.6995
  880MOL0     H18777  -1.434   5.091   2.632  1.8693 -1.2138 -1.0314
  880MOL0     H18778  -1.383   4.988   2.914 -0.0133  2.6618  0.2319
  880MOL0     H18779  -1.374   4.891   2.766  1.0533  1.8626 -1.5901
  880MOL0     H18780  -1.589   4.856   2.851  0.2439  0.5499 -0.8247
  880MOL0     H18781  -1.609   4.963   2.702  0.2799  1.2051  0.7492
  880MOL0     H18782  -1.091   4.508   2.584 -0.4212  0.5134 -1.4682
  880MOL0     H18783  -0.975   4.299   2.583 -3.5463  1.7280 -0.1597
  880MOL0     H18784  -0.446   4.258   2.584 -0.9922  0.1149 -2.5504
  880MOL0     H18785  -0.235   4.140   2.639  0.3458  0.5782 -1.2666
  880MOL0     H18786   1.192   3.258   2.340  0.3695 -0.8785 -0.5537
  880MOL0     H18787   1.339   3.207   2.156  1.8888 -0.4822 -0.4862
  880MOL0     H18788   1.899   3.271   2.062 -0.4569 -3.0827  2.0422
  880MOL0     H18789   1.996   3.265   1.837 -0.2370  1.5007  0.8746
  880MOL0     H18790   1.792   3.302   1.561 -0.7077 -2.6569  0.4811
  880MOL0     H18791   1.946   3.324   1.637 -0.2793 -0.2531  0.6809
  880MOL0     H18792   1.951   3.356   1.390 -3.0598  1.9965  3.3130
  880MOL0     H18793   1.879   3.196   1.377 -0.9743 -0.0953  2.2624
  880MOL0     H18794   2.082   3.090   1.469 -0.7559  0.2232  1.2743
  880MOL0     H18795   2.152   3.243   1.516  1.1577 -0.9665  0.0520
  880MOL0     H18796   2.113   3.145   1.227  0.8775  1.4966 -1.9323
  880MOL0     H18797   2.271   3.140   1.308 -1.2605 -1.9172  0.6940
  880MOL0     H18798   2.252   3.524   1.160 -0.7076 -0.0456 -0.4494
  880MOL0     H18799   1.730   2.940   1.732 -1.7147 -0.0663  0.3926
  880MOL0     H18800   1.619   2.968   1.949 -1.7274  1.0947 -3.7356
  881MOL0     O18801   6.314   6.728   0.611  0.3716 -0.7073  0.2132
  881MOL0     C18802   6.292   6.628   0.554  1.0208 -0.2721  0.5754
  881MOL0     O18803   6.176   6.557   0.566 -1.2833 -0.3899  0.9149
  881MOL0     C18804   6.061   6.590   0.627 -0.2633 -0.1915  0.5397
  881MOL0     C18805   5.973   6.488   0.654 -0.8566 -0.1085  0.6474
  881MOL0     C18806   5.847   6.523   0.711  0.7722  0.0550  0.1371
  881MOL0     C18807   5.811   6.656   0.750  0.4237 -0.6459  0.3949
  881MOL0     O18808   5.696   6.685   0.813  0.1188  0.7588 -0.1375
  881MOL0     C18809   5.576   6.637   0.764 -0.2854 -0.2875  0.2596
  881MOL0     C18810   5.510   6.757   0.685 -0.5072  0.0788  0.4174
  881MOL0     C18811   5.364   6.719   0.628 -0.4387 -0.2500 -0.3681
  881MOL0     C18812   5.311   6.837   0.555  0.0265 -0.4477  0.4325
  881MOL0     C18813   5.172   6.829   0.502  0.2278  0.2700  0.1057
  881MOL0     C18814   5.067   6.809   0.618  0.0195  0.0604  0.9843
  881MOL0     C18815   4.923   6.819   0.549  0.6754 -0.0007 -0.4342
  881MOL0     C18816   4.890   6.955   0.492  0.4132 -0.8702  0.0069
  881MOL0     N18817   4.749   6.975   0.443 -0.8239 -0.3496 -0.4840
  881MOL0     C18818   4.653   7.047   0.504 -0.0565  0.6510  0.5145
  881MOL0     C18819   4.538   7.025   0.440 -0.5460 -0.6325  0.1254
  881MOL0     C18820   4.410   7.088   0.476 -0.1977 -0.7703  0.8406
  881MOL0     C18821   4.327   7.115   0.349  0.3273  0.3594  0.1158
  881MOL0     C18822   4.178   7.136   0.383 -0.8990  0.0255 -0.1839
  881MOL0     C18823   4.096   7.182   0.261  0.1459 -0.0673 -0.1670
  881MOL0     O18824   4.167   7.274   0.181 -0.3253 -0.3975  0.0389
  881MOL0     C18825   4.107   7.347   0.077 -1.1358  0.6468 -0.8124
  881MOL0     C18826   4.176   7.450   0.012  0.0099  0.4496 -0.2477
  881MOL0     C18827   4.118   7.532  -0.081  0.3969  0.2431  0.1280
  881MOL0     C18828   4.204   7.653  -0.116 -0.4494  0.4776  0.2013
  881MOL0     C18829   3.987   7.504  -0.124 -0.3787  0.6084  1.1578
  881MOL0     C18830   3.919   7.574  -0.228 -0.7185  0.3391 -0.2286
  881MOL0     O18831   3.842   7.489  -0.309  0.0360 -0.3840  0.2793
  881MOL0     C18832   3.761   7.564  -0.396 -0.5466 -0.3492 -0.5096
  881MOL0     C18833   3.629   7.594  -0.362  0.5260 -0.1011  0.0302
  881MOL0     C18834   3.542   7.664  -0.453 -0.1104 -0.6976 -0.3085
  881MOL0     C18835   3.599   7.720  -0.575 -0.9508  1.6057 -0.3376
  881MOL0     O18836   3.526   7.792  -0.662  0.5102 -0.0246 -0.5066
  881MOL0     C18837   3.389   7.809  -0.643  0.1443  0.0645 -0.0554
  881MOL0     C18838   3.334   7.897  -0.754  0.1974 -0.3563 -0.5330
  881MOL0     C18839   3.363   7.854  -0.893 -0.9462  0.1100 -0.0666
  881MOL0     C18840   3.294   7.940  -0.992  0.8083  1.0241 -0.0551
  881MOL0     C18841   3.305   8.093  -0.980  1.4053 -0.1350  0.2768
  881MOL0     C18842   3.443   8.148  -1.013 -0.0830 -0.1559  0.7146
  881MOL0     C18843   3.468   8.172  -1.158  0.1188 -1.1194  0.5963
  881MOL0     C18844   3.593   8.256  -1.187 -0.4300 -0.5620 -0.7172
  881MOL0    Cl18845   3.596   8.419  -1.104  0.0794  0.3358  0.0760
  881MOL0     C18846   3.739   7.700  -0.598 -0.2630  0.4471  1.2371
  881MOL0     C18847   3.809   7.610  -0.522  0.0598  0.9217 -0.9285
  881MOL0     O18848   3.944   7.694  -0.236  1.0487 -0.2911 -0.1889
  881MOL0     C18849   3.917   7.402  -0.067  0.6842  0.1064 -0.5868
  881MOL0     C18850   3.972   7.334   0.039  0.2626  0.6974 -0.5223
  881MOL0     N18851   4.567   6.935   0.343  0.1294 -0.8991 -0.3336
  881MOL0     N18852   4.699   6.914   0.343  0.0770  0.4595 -0.2229
  881MOL0     C18853   5.906   6.755   0.736 -0.8029  0.3655  0.6523
  881MOL0     C18854   6.024   6.720   0.663  0.3833  0.8541  0.1336
  881MOL0     C18855   6.391   6.563   0.474 -0.6934 -0.3494  0.3771
  881MOL0     C18856   6.504   6.640   0.427 -0.9248  0.2941 -0.1042
  881MOL0     C18857   6.597   6.581   0.339  0.5437  0.5205  0.1986
  881MOL0     C18858   6.582   6.444   0.300  0.3957 -0.4592 -0.0404
  881MOL0     O18859   6.687   6.407   0.226 -0.2617  0.3882  0.3335
  881MOL0     C18860   6.716   6.271   0.191 -1.5442  0.2248 -0.2194
  881MOL0     C18861   6.835   6.194   0.271  0.8961 -0.4562  0.5037
  881MOL0     C18862   6.831   6.221   0.424 -0.2331 -0.0384 -0.7667
  881MOL0     C18863   6.944   6.311   0.472  0.4764  0.6804 -0.4586
  881MOL0     C18864   6.968   6.441   0.409 -0.1305  0.5528  0.1153
  881MOL0     C18865   6.997   6.537   0.337  0.6663 -0.0271  0.2293
  881MOL0     C18866   6.475   6.362   0.340  0.8910 -0.3512  0.6498
  881MOL0     C18867   6.380   6.421   0.423 -0.4136 -0.0698  0.0839
  881MOL0     H18868   5.998   6.385   0.631  1.9764  0.1515  2.1369
  881MOL0     H18869   5.771   6.453   0.744  0.0188  1.9404  2.7888
  881MOL0     H18870   5.595   6.558   0.691  0.0796  1.1585 -1.3023
  881MOL0     H18871   5.509   6.600   0.842 -0.5465 -0.4586 -0.0413
  881MOL0     H18872   5.501   6.834   0.763  2.1025  0.0057  0.8731
  881MOL0     H18873   5.580   6.784   0.606 -0.7875 -0.3644  0.0169
  881MOL0     H18874   5.378   6.629   0.566 -2.4086 -0.6980 -0.2287
  881MOL0     H18875   5.297   6.697   0.711  0.8641 -0.8410  0.5715
  881MOL0     H18876   5.309   6.922   0.624  3.7111 -1.2687  1.8304
  881MOL0     H18877   5.378   6.859   0.471 -1.1281 -4.7296 -1.8930
  881MOL0     H18878   5.149   6.919   0.444  1.0845  1.1505  1.0681
  881MOL0     H18879   5.166   6.747   0.431  0.3820  1.2993 -1.1263
  881MOL0     H18880   5.071   6.705   0.650 -0.2581 -0.3937 -0.3979
  881MOL0     H18881   5.087   6.880   0.699  2.8414  3.7907 -2.5667
  881MOL0     H18882   4.929   6.755   0.460 -1.0030  1.6181 -1.7786
  881MOL0     H18883   4.846   6.791   0.622 -1.3378  1.1607 -2.0286
  881MOL0     H18884   4.956   6.978   0.407  1.0465 -0.0825  0.6936
  881MOL0     H18885   4.908   7.028   0.571  0.3695  0.3264 -1.0533
  881MOL0     H18886   4.655   7.119   0.585 -2.5673  0.3059  0.9642
  881MOL0     H18887   4.350   7.024   0.542 -2.1497  0.4231  0.2886
  881MOL0     H18888   4.418   7.181   0.533  1.3164  1.7605 -3.1045
  881MOL0     H18889   4.336   7.031   0.279  1.0526  0.8217 -0.3497
  881MOL0     H18890   4.368   7.202   0.298  2.9077 -0.2264  1.0762
  881MOL0     H18891   4.181   7.211   0.463  1.6416 -1.6188  1.3943
  881MOL0     H18892   4.136   7.042   0.419 -0.0930  0.5595  2.3461
  881MOL0     H18893   4.002   7.221   0.300 -0.6753  1.6771 -3.5115
  881MOL0     H18894   4.075   7.087   0.211 -0.1792  1.1083 -2.3947
  881MOL0     H18895   4.276   7.483   0.040  0.7190 -0.3006 -1.7462
  881MOL0     H18896   4.166   7.734  -0.053 -1.0449 -1.9947  3.2460
  881MOL0     H18897   4.309   7.647  -0.086 -0.6980 -1.6680  0.7929
  881MOL0     H18898   4.210   7.672  -0.224 -2.8875  0.7669  0.0772
  881MOL0     H18899   3.584   7.571  -0.266  0.9340  0.6112  0.3967
  881MOL0     H18900   3.439   7.692  -0.433  0.9266  3.4408  0.3489
  881MOL0     H18901   3.339   7.712  -0.651 -0.2350  0.1907  0.6962
  881MOL0     H18902   3.379   7.849  -0.542  1.2166 -0.6976  0.3683
  881MOL0     H18903   3.227   7.914  -0.738  0.4705 -0.3795  1.5767
  881MOL0     H18904   3.379   7.995  -0.732 -1.1092 -0.0542  0.9802
  881MOL0     H18905   3.341   7.751  -0.919  0.2124  0.3620 -2.3642
  881MOL0     H18906   3.472   7.868  -0.903 -0.8693 -1.0603 -1.1038
  881MOL0     H18907   3.322   7.899  -1.090  0.4901  0.3948  0.1125
  881MOL0     H18908   3.188   7.918  -0.985  0.0420  3.9944 -0.9748
  881MOL0     H18909   3.289   8.135  -0.880  1.5809 -0.9994  0.6737
  881MOL0     H18910   3.223   8.135  -1.039  2.5508  0.8343 -0.6722
  881MOL0     H18911   3.468   8.239  -0.958 -1.6714  1.3911 -1.0054
  881MOL0     H18912   3.524   8.082  -0.980  1.0935  1.5814  1.4445
  881MOL0     H18913   3.384   8.230  -1.197  0.3232  1.0573  3.0711
  881MOL0     H18914   3.486   8.081  -1.216 -0.0846  0.7552 -2.6682
  881MOL0     H18915   3.609   8.272  -1.294 -2.5273  0.4492 -0.9307
  881MOL0     H18916   3.676   8.200  -1.145 -2.3896  0.4273  5.4981
  881MOL0     H18917   3.787   7.753  -0.679 -2.2421 -1.1821 -1.1747
  881MOL0     H18918   3.908   7.574  -0.546  0.0206  0.5490 -0.5316
  881MOL0     H18919   3.815   7.381  -0.096  0.7524 -1.2755  0.1145
  881MOL0     H18920   3.908   7.264   0.091 -1.6124  1.8559 -1.1761
  881MOL0     H18921   5.897   6.850   0.787 -0.7150  0.0724  1.2219
  881MOL0     H18922   6.091   6.799   0.629  1.2843  0.2415  0.4442
  881MOL0     H18923   6.511   6.745   0.454  0.0830 -0.2833  2.1585
  881MOL0     H18924   6.681   6.641   0.306  0.0273  1.2869  0.2711
  881MOL0     H18925   6.625   6.212   0.183  0.0229 -2.1178 -2.4154
  881MOL0     H18926   6.755   6.276   0.089  2.0057 -0.5338  0.9309
  881MOL0     H18927   6.930   6.229   0.230  0.2967  2.4776  1.3646
  881MOL0     H18928   6.811   6.091   0.244 -1.5333  0.4406 -1.1927
  881MOL0     H18929   6.823   6.131   0.486  1.1723  1.3194  1.5105
  881MOL0     H18930   6.742   6.281   0.446  1.2135  2.2079 -0.7654
  881MOL0     H18931   7.033   6.253   0.445 -0.4506 -0.1180 -1.9368
  881MOL0     H18932   6.941   6.315   0.581  0.9908 -1.1516 -0.3412
  881MOL0     H18933   7.037   6.620   0.282  0.5051 -0.0635  0.0556
  881MOL0     H18934   6.453   6.259   0.314  1.6323 -1.0895  2.6943
  881MOL0     H18935   6.291   6.370   0.456 -1.1644  1.4081  0.4390
  882MOL0     O18936   6.105   3.956   3.398  0.3215  1.0263 -0.1517
  882MOL0     C18937   6.140   3.852   3.447 -0.3642  0.0329  0.0194
  882MOL0     O18938   6.239   3.837   3.534  0.1973 -0.8302 -0.0630
  882MOL0     C18939   6.329   3.936   3.543  0.1807 -1.2469  0.2594
  882MOL0     C18940   6.446   3.936   3.469 -0.5021 -0.7596  0.3740
  882MOL0     C18941   6.540   4.038   3.486  0.1847  0.8989 -0.9471
  882MOL0     C18942   6.528   4.137   3.583 -0.9593  0.8308  0.2528
  882MOL0     O18943   6.618   4.242   3.593 -0.7496  0.6425  0.1048
  882MOL0     C18944   6.750   4.229   3.521  1.3158  0.3875 -0.6874
  882MOL0     C18945   6.839   4.334   3.573 -0.1335  0.9730 -0.2248
  882MOL0     C18946   6.786   4.477   3.589 -0.4883 -0.2514 -0.8359
  882MOL0     C18947   6.907   4.577   3.594 -0.0113  0.7980  0.6085
  882MOL0     C18948   6.868   4.705   3.658 -0.2229  0.4479  0.2666
  882MOL0     C18949   6.962   4.821   3.612 -0.5673 -0.1416  0.4640
  882MOL0     C18950   6.995   4.917   3.728  0.2664  0.3864  0.2396
  882MOL0     C18951   7.072   5.036   3.665  1.0022  0.2085 -0.1663
  882MOL0     N18952   7.131   5.133   3.759 -0.1822  0.9421 -0.5070
  882MOL0     C18953   7.072   5.250   3.805 -0.3103 -0.8021 -0.8500
  882MOL0     C18954   7.179   5.312   3.867 -0.4784  0.5628 -0.9649
  882MOL0     C18955   7.174   5.455   3.912 -0.6873 -0.0877  0.4632
  882MOL0     C18956   7.186   5.558   3.797 -0.3670 -0.7931  0.4265
  882MOL0     C18957   7.196   5.709   3.827 -0.1046 -0.3876  0.8501
  882MOL0     C18958   7.334   5.730   3.868 -0.8411  0.6159 -0.5345
  882MOL0     O18959   7.416   5.757   3.753 -0.1482 -0.1135  0.5940
  882MOL0     C18960   7.551   5.781   3.773  0.2412  0.1457 -0.5772
  882MOL0     C18961   7.611   5.838   3.888 -0.0746  0.1974 -0.7254
  882MOL0     C18962   7.754   5.866   3.894 -0.1650 -0.0837 -0.4577
  882MOL0     C18963   7.793   5.928   4.024  0.0567  0.4961  0.1558
  882MOL0     C18964   7.830   5.846   3.782 -0.0597  1.2618  0.2483
  882MOL0     C18965   7.971   5.881   3.782 -0.6310  0.4117  0.1180
  882MOL0     O18966   8.031   5.918   3.664 -0.4030 -1.0145 -0.6665
  882MOL0     C18967   8.168   5.953   3.649  0.1110  0.5083  0.9431
  882MOL0     C18968   8.239   5.914   3.541  0.7906  0.0974  0.5107
  882MOL0     C18969   8.371   5.948   3.516 -0.5651  0.5195  0.1262
  882MOL0     C18970   8.432   6.027   3.607 -0.3287  0.5108  0.4353
  882MOL0     O18971   8.561   6.073   3.578 -0.0209  0.8115 -0.4248
  882MOL0     C18972   8.644   6.140   3.678  0.2910 -0.1536  0.3732
  882MOL0     C18973   8.789   6.161   3.616 -0.2925 -0.3537  0.8040
  882MOL0     C18974   8.850   6.031   3.568  0.8212  0.2918 -1.0211
  882MOL0     C18975   9.000   6.021   3.566 -0.0972  0.4947 -0.0411
  882MOL0     C18976   9.049   5.951   3.693 -0.6818  1.5201  0.0149
  882MOL0     C18977   9.205   5.933   3.679  0.5576  0.3296 -0.0180
  882MOL0     C18978   9.282   6.065   3.673  0.2257 -0.3752 -1.1400
  882MOL0     C18979   9.424   6.043   3.715 -0.0357 -0.1957 -0.4601
  882MOL0    Cl18980   9.496   5.928   3.618 -0.2139  0.4319  0.2152
  882MOL0     C18981   8.362   6.065   3.722  0.8193 -0.1996  1.0918
  882MOL0     C18982   8.239   6.019   3.746 -0.0839  0.7141 -0.7565
  882MOL0     O18983   8.038   5.850   3.879 -0.0820 -0.1775 -0.2940
  882MOL0     C18984   7.763   5.807   3.661  0.0984 -0.0333 -1.3547
  882MOL0     C18985   7.625   5.774   3.660 -1.1039  0.1320  0.3122
  882MOL0     N18986   7.291   5.238   3.860  0.7601  0.7238  0.0328
  882MOL0     N18987   7.257   5.131   3.801  0.9593 -0.2610 -0.9143
  882MOL0     C18988   6.414   4.132   3.661 -0.8825 -0.6911 -0.6802
  882MOL0     C18989   6.314   4.037   3.647 -0.3523  0.1471  0.2872
  882MOL0     C18990   6.064   3.728   3.413 -0.5270  0.0680  0.9646
  882MOL0     C18991   5.973   3.731   3.309  0.4919  1.0933 -0.1101
  882MOL0     C18992   5.903   3.623   3.270  0.5364  0.5276  0.0183
  882MOL0     C18993   5.918   3.502   3.336  0.1050  0.5502  0.3203
  882MOL0     O18994   5.857   3.384   3.292  0.2058 -0.2230  0.2277
  882MOL0     C18995   5.710   3.384   3.290 -0.3045 -0.6202 -0.2408
  882MOL0     C18996   5.660   3.283   3.185 -0.4062 -0.6316 -0.1271
  882MOL0     C18997   5.529   3.211   3.235  0.4594  0.7032 -0.6397
  882MOL0     C18998   5.418   3.302   3.269  0.1972 -0.0710 -0.4978
  882MOL0     C18999   5.301   3.244   3.348 -0.2625 -0.7004  0.0373
  882MOL0     C19000   5.208   3.197   3.409  0.8294 -0.0124 -0.0975
  882MOL0     C19001   6.020   3.490   3.435  0.2772 -0.0764  0.5133
  882MOL0     C19002   6.088   3.605   3.480  0.7249  0.2564  0.3689
  882MOL0     H19003   6.449   3.868   3.384 -1.7341  1.0776 -1.2209
  882MOL0     H19004   6.620   4.029   3.413  1.1806 -3.8713  0.4086
  882MOL0     H19005   6.779   4.126   3.541 -2.2281 -0.5652  0.0555
  882MOL0     H19006   6.742   4.249   3.414 -2.4241 -1.1208 -0.8226
  882MOL0     H19007   6.868   4.296   3.672 -0.9340  4.2660  1.4192
  882MOL0     H19008   6.927   4.338   3.509 -1.0052  2.4108 -1.3785
  882MOL0     H19009   6.719   4.510   3.509 -1.1740 -1.3846 -0.7464
  882MOL0     H19010   6.732   4.484   3.684  1.1017  0.6274  0.0554
  882MOL0     H19011   6.995   4.536   3.645  0.6709  0.0610 -1.0769
  882MOL0     H19012   6.949   4.598   3.495  1.3796 -1.0325  0.7526
  882MOL0     H19013   6.766   4.729   3.625 -0.7177 -1.6984  0.1160
  882MOL0     H19014   6.845   4.686   3.764 -2.4634 -2.1027 -0.5563
  882MOL0     H19015   7.055   4.782   3.569 -0.6457 -0.8512  0.9091
  882MOL0     H19016   6.912   4.870   3.528 -1.0802 -1.4483 -0.0259
  882MOL0     H19017   6.901   4.940   3.779  0.9950 -0.8814  2.2672
  882MOL0     H19018   7.063   4.866   3.797  2.7008  1.9140 -0.9016
  882MOL0     H19019   6.998   5.087   3.602 -0.2192 -1.1706  0.0913
  882MOL0     H19020   7.147   4.995   3.597 -0.2342 -0.1206 -1.3815
  882MOL0     H19021   6.968   5.278   3.794 -0.5956 -2.4088 -2.4476
  882MOL0     H19022   7.076   5.463   3.960 -0.2365 -1.8736  1.8080
  882MOL0     H19023   7.254   5.474   3.985 -0.4974  2.3042 -0.2654
  882MOL0     H19024   7.096   5.538   3.738  0.3125 -0.8931 -0.6073
  882MOL0     H19025   7.272   5.536   3.733 -0.0411  0.3523  0.4549
  882MOL0     H19026   7.121   5.737   3.901 -0.2552  2.8719 -0.3507
  882MOL0     H19027   7.175   5.770   3.739  2.2137  0.2545  0.6698
  882MOL0     H19028   7.378   5.648   3.925 -1.7940  0.9984  0.7930
  882MOL0     H19029   7.331   5.814   3.938 -1.3020 -0.2947  0.5511
  882MOL0     H19030   7.542   5.845   3.971 -0.4001 -1.6212 -0.8022
  882MOL0     H19031   7.712   5.923   4.098 -0.8545  1.9887 -0.7045
  882MOL0     H19032   7.881   5.886   4.074  1.6061  2.3512 -0.8975
  882MOL0     H19033   7.829   6.029   4.004 -1.0036  0.5827 -1.4763
  882MOL0     H19034   8.187   5.871   3.456  0.9371 -1.1706  1.0354
  882MOL0     H19035   8.419   5.918   3.424 -1.3856  1.2028 -0.5468
  882MOL0     H19036   8.593   6.235   3.697 -0.5029 -0.5955  0.4700
  882MOL0     H19037   8.658   6.089   3.774  0.3854  0.0322  0.4596
  882MOL0     H19038   8.787   6.218   3.523  2.2990 -2.8551 -0.9641
  882MOL0     H19039   8.855   6.215   3.684  0.4924 -0.3433  0.0430
  882MOL0     H19040   8.816   6.011   3.466 -1.2590  1.8704 -0.7028
  882MOL0     H19041   8.814   5.959   3.641  3.3222  0.3732  0.4267
  882MOL0     H19042   9.042   5.976   3.475 -1.5152 -0.3105 -0.3159
  882MOL0     H19043   9.048   6.120   3.568  4.5129 -1.4786 -0.2133
  882MOL0     H19044   9.015   5.847   3.703 -0.1210  1.4938  2.0281
  882MOL0     H19045   9.030   6.004   3.787  4.1683  1.0549  1.5392
  882MOL0     H19046   9.229   5.866   3.763 -3.6029 -0.4516  0.7815
  882MOL0     H19047   9.215   5.884   3.582 -0.2357 -1.4759  0.7614
  882MOL0     H19048   9.245   6.148   3.735  1.2316  0.8142 -2.0681
  882MOL0     H19049   9.300   6.113   3.576  0.0557  0.9055 -0.5648
  882MOL0     H19050   9.424   6.033   3.824 -2.5488  1.9972 -0.1509
  882MOL0     H19051   9.472   6.140   3.696 -1.8211  0.3205 -2.8045
  882MOL0     H19052   8.397   6.133   3.799  0.3018  0.7113  0.5550
  882MOL0     H19053   8.191   6.052   3.837  0.7670 -1.6370  0.6408
  882MOL0     H19054   7.809   5.803   3.563  0.3949  3.3263 -1.4902
  882MOL0     H19055   7.592   5.761   3.557  0.8931  2.6171 -0.7566
  882MOL0     H19056   6.402   4.220   3.723 -0.7099  1.3375 -3.3390
  882MOL0     H19057   6.220   4.037   3.701  0.6052  2.2550  2.1187
  882MOL0     H19058   5.944   3.815   3.246 -1.5740  0.4520 -0.1010
  882MOL0     H19059   5.835   3.627   3.186 -0.7576  1.0437  1.0582
  882MOL0     H19060   5.670   3.348   3.385 -0.7424 -0.7303 -0.4664
  882MOL0     H19061   5.665   3.483   3.278 -1.1202 -0.5848  2.5011
  882MOL0     H19062   5.740   3.209   3.191 -1.3232 -1.6064  4.7776
  882MOL0     H19063   5.654   3.329   3.086  2.4445  0.8132  0.2892
  882MOL0     H19064   5.567   3.159   3.324  0.6896  1.9935  0.0469
  882MOL0     H19065   5.499   3.129   3.169 -0.6652  0.6505 -0.0742
  882MOL0     H19066   5.373   3.340   3.177 -1.0147 -0.9425 -0.2922
  882MOL0     H19067   5.449   3.384   3.334 -1.6568  1.2944 -1.2433
  882MOL0     H19068   5.122   3.160   3.460  0.9617  1.6613  1.4428
  882MOL0     H19069   6.029   3.388   3.472 -1.6200 -0.3185  0.4099
  882MOL0     H19070   6.160   3.592   3.560  2.2072  0.4656 -0.8715
  883MOL0     O19071   3.025   0.054   3.707 -0.3306 -0.3225 -0.9061
  883MOL0     C19072   3.139   0.047   3.748 -0.1665  0.3737 -0.7803
  883MOL0     O19073   3.223   0.150   3.778 -0.3898 -0.1375  0.2975
  883MOL0     C19074   3.185   0.273   3.755  0.3623  0.3814  0.7170
  883MOL0     C19075   3.239   0.345   3.644 -0.3067 -0.6115 -0.1094
  883MOL0     C19076   3.193   0.472   3.609 -0.4773 -0.2345  0.0183
  883MOL0     C19077   3.097   0.531   3.680  0.4197 -0.2946 -0.3813
  883MOL0     O19078   3.038   0.649   3.644 -0.4501 -0.3372  0.2574
  883MOL0     C19079   2.912   0.688   3.697 -0.4981  0.6561 -0.5682
  883MOL0     C19080   2.871   0.800   3.612  0.8389 -0.3148 -0.2689
  883MOL0     C19081   2.745   0.870   3.664  0.5990  0.3809 -0.0444
  883MOL0     C19082   2.720   1.013   3.615 -0.5202 -0.2765  0.3407
  883MOL0     C19083   2.802   1.104   3.706 -0.0002  0.4414  0.2648
  883MOL0     C19084   2.779   1.244   3.651  0.3900 -0.4447  0.5525
  883MOL0     C19085   2.854   1.347   3.733 -0.6592  0.2089 -0.1771
  883MOL0     C19086   2.757   1.392   3.846 -0.5844 -0.2252  0.2612
  883MOL0     N19087   2.828   1.498   3.917  0.5499  0.6757  0.4927
  883MOL0     C19088   2.929   1.484   4.000  0.0573 -0.0041 -1.0997
  883MOL0     C19089   2.980   1.610   4.022  1.0215 -0.5449  0.2409
  883MOL0     C19090   3.085   1.651   4.116 -1.3821  0.6053 -0.0612
  883MOL0     C19091   3.219   1.595   4.068  0.8092 -0.0480  0.7063
  883MOL0     C19092   3.322   1.644   4.163  0.8080  0.2671  0.8180
  883MOL0     C19093   3.453   1.577   4.142 -0.4980  0.1474 -0.8283
  883MOL0     O19094   3.522   1.615   4.018  0.6339  0.1106 -0.1662
  883MOL0     C19095   3.563   1.510   3.948 -0.9976 -0.3247  0.4736
  883MOL0     C19096   3.473   1.441   3.855 -0.2492 -0.1235 -0.1226
  883MOL0     C19097   3.526   1.331   3.782  0.3211  0.1583  1.0075
  883MOL0     C19098   3.429   1.261   3.686  0.0187 -1.0431 -0.5755
  883MOL0     C19099   3.660   1.289   3.801 -1.0976 -0.3311  0.3900
  883MOL0     C19100   3.716   1.174   3.726  0.8423 -0.1015 -0.4200
  883MOL0     O19101   3.681   1.042   3.763  0.2725  0.3726 -0.0773
  883MOL0     C19102   3.732   0.940   3.682  0.6036  0.1917  0.2791
  883MOL0     C19103   3.861   0.891   3.685 -0.2367 -0.3249  0.0841
  883MOL0     C19104   3.890   0.772   3.612  0.1106  0.0138 -0.5490
  883MOL0     C19105   3.807   0.717   3.511 -0.2099  0.3457 -0.2413
  883MOL0     O19106   3.853   0.605   3.435 -0.2282 -0.4535 -0.6470
  883MOL0     C19107   3.824   0.478   3.491  0.8878 -0.1748 -0.0104
  883MOL0     C19108   3.955   0.411   3.505  0.4921  0.3194  0.6638
  883MOL0     C19109   4.004   0.353   3.375 -0.4604  0.1251 -0.1159
  883MOL0     C19110   4.137   0.265   3.388  0.9788 -0.0929  0.2117
  883MOL0     C19111   4.146   0.167   3.267  0.1150 -0.5349 -1.1535
  883MOL0     C19112   4.292   0.137   3.241  0.3118 -0.4364  0.5996
  883MOL0     C19113   4.307   0.019   3.144 -0.8968 -0.2055  0.3513
  883MOL0     C19114   4.353  -0.097   3.233  0.6077  0.0276 -0.3012
  883MOL0    Cl19115   4.306  -0.267   3.188  0.3444  0.4583 -0.2249
  883MOL0     C19116   3.678   0.775   3.508 -0.1171  0.3911  0.1174
  883MOL0     C19117   3.647   0.885   3.589 -0.2399 -0.2246 -0.3453
  883MOL0     O19118   3.792   1.206   3.633  0.8789 -0.9674 -0.3235
  883MOL0     C19119   3.742   1.372   3.882  0.9765  0.2537 -0.6319
  883MOL0     C19120   3.693   1.479   3.953  0.1869 -0.1421  0.1069
  883MOL0     N19121   2.894   1.702   3.957  0.4020 -0.4613 -0.4966
  883MOL0     N19122   2.801   1.631   3.899  0.0804 -0.1891 -0.1489
  883MOL0     C19123   3.035   0.461   3.789 -0.2625 -1.0101  0.8399
  883MOL0     C19124   3.076   0.331   3.820 -0.0985  0.6181 -0.2186
  883MOL0     C19125   3.197  -0.087   3.770 -0.5660  0.1763 -0.3499
  883MOL0     C19126   3.321  -0.102   3.850  0.5201  0.8148 -0.0011
  883MOL0     C19127   3.368  -0.228   3.888  0.3266  1.0279  0.0288
  883MOL0     C19128   3.300  -0.346   3.829 -0.3438  0.1586  0.3390
  883MOL0     O19129   3.340  -0.471   3.864  0.0668  0.5090  0.5196
  883MOL0     C19130   3.372  -0.556   3.756 -0.6046  0.0444  0.1546
  883MOL0     C19131   3.462  -0.674   3.800  0.9061 -1.0648  0.7122
  883MOL0     C19132   3.611  -0.626   3.810  0.0703 -0.7282  0.1133
  883MOL0     C19133   3.634  -0.489   3.879  0.2939  0.2695  0.1661
  883MOL0     C19134   3.780  -0.465   3.890  0.1192  1.2926  0.3774
  883MOL0     C19135   3.902  -0.430   3.899 -0.4505  0.4726 -0.8001
  883MOL0     C19136   3.184  -0.335   3.748 -0.6033  0.0469 -0.5654
  883MOL0     C19137   3.135  -0.211   3.726 -0.0631 -0.8404  0.1064
  883MOL0     H19138   3.325   0.305   3.591  0.7148  1.8118 -0.4208
  883MOL0     H19139   3.253   0.523   3.534  3.8772 -1.9958  1.9112
  883MOL0     H19140   2.836   0.609   3.687  1.7271 -1.6585 -0.1342
  883MOL0     H19141   2.932   0.718   3.800  1.5633 -1.5844 -0.2434
  883MOL0     H19142   2.950   0.876   3.613 -1.9776  2.8842  1.7788
  883MOL0     H19143   2.838   0.769   3.512  0.3855  0.6156 -0.4208
  883MOL0     H19144   2.659   0.813   3.626  1.2627 -0.2984 -0.5563
  883MOL0     H19145   2.753   0.874   3.773  5.3785  1.6114 -0.2266
  883MOL0     H19146   2.743   1.010   3.508 -0.2058  0.6996  0.3791
  883MOL0     H19147   2.614   1.040   3.625 -0.2492  1.1562 -0.4921
  883MOL0     H19148   2.776   1.110   3.812  1.2830  2.0730  0.5295
  883MOL0     H19149   2.909   1.084   3.703  0.4903  2.2812  2.5815
  883MOL0     H19150   2.828   1.241   3.553  0.6222 -0.3666  0.6635
  883MOL0     H19151   2.677   1.282   3.644  1.0363  1.1131 -1.2530
  883MOL0     H19152   2.951   1.312   3.769  0.0941  0.5710 -1.7468
  883MOL0     H19153   2.883   1.431   3.668  1.9662 -0.7810 -0.4153
  883MOL0     H19154   2.729   1.306   3.908 -1.4662  0.5424  0.9702
  883MOL0     H19155   2.667   1.437   3.803 -0.1184  1.6155  1.1238
  883MOL0     H19156   2.958   1.396   4.056 -0.6368  0.3711 -0.1200
  883MOL0     H19157   3.111   1.756   4.126  1.5587 -0.1526  1.4270
  883MOL0     H19158   3.070   1.602   4.213  1.2292  1.0161  0.6362
  883MOL0     H19159   3.233   1.635   3.967  0.8205  0.1701  0.7952
  883MOL0     H19160   3.212   1.485   4.067  0.8124 -0.1297 -2.5546
  883MOL0     H19161   3.287   1.632   4.265 -0.7752  2.0807  0.5482
  883MOL0     H19162   3.339   1.749   4.137  2.5698 -0.2786 -0.4934
  883MOL0     H19163   3.443   1.468   4.145 -0.1714  0.1454  1.3431
  883MOL0     H19164   3.520   1.602   4.225 -1.1540 -2.8005  0.7094
  883MOL0     H19165   3.372   1.479   3.843 -0.1069  0.6019  0.9305
  883MOL0     H19166   3.456   1.158   3.663  2.7499 -1.0973  2.2224
  883MOL0     H19167   3.328   1.258   3.729 -0.1607 -1.4986 -1.0276
  883MOL0     H19168   3.430   1.312   3.589 -0.4344 -0.4935 -0.3001
  883MOL0     H19169   3.924   0.938   3.760  1.2672 -0.0398 -1.2923
  883MOL0     H19170   3.984   0.722   3.634 -0.2735  0.2960  2.0776
  883MOL0     H19171   3.772   0.482   3.587  0.0218  0.3322 -0.4890
  883MOL0     H19172   3.761   0.422   3.420  0.5040 -3.8723  2.9498
  883MOL0     H19173   4.028   0.484   3.539 -0.5930  1.2111  1.1289
  883MOL0     H19174   3.956   0.328   3.576  1.4357  0.4812  0.8519
  883MOL0     H19175   4.019   0.436   3.304 -0.6986 -0.1964 -0.5469
  883MOL0     H19176   3.927   0.282   3.344 -1.9052  1.1668  0.9624
  883MOL0     H19177   4.228   0.326   3.399  0.7881  0.3028 -0.3877
  883MOL0     H19178   4.136   0.204   3.479  1.2772  1.0171  0.9808
  883MOL0     H19179   4.107   0.226   3.183 -3.4867  0.4228  0.9327
  883MOL0     H19180   4.076   0.084   3.281  0.4853 -0.8778 -1.3542
  883MOL0     H19181   4.341   0.224   3.196  2.3190 -1.7516  0.1271
  883MOL0     H19182   4.347   0.116   3.333 -0.3886 -1.7102  0.7496
  883MOL0     H19183   4.384   0.045   3.071  0.0591 -2.9196  0.2885
  883MOL0     H19184   4.209  -0.011   3.106 -1.0920 -1.9626  2.0757
  883MOL0     H19185   4.289  -0.088   3.321  0.3313  2.7924 -0.6845
  883MOL0     H19186   4.456  -0.098   3.270  0.7400 -1.3237 -0.6372
  883MOL0     H19187   3.600   0.729   3.447 -0.7591  1.0618  0.4289
  883MOL0     H19188   3.549   0.932   3.584 -1.4430 -2.6573 -3.5856
  883MOL0     H19189   3.844   1.337   3.892  1.1732  0.9881 -0.0301
  883MOL0     H19190   3.756   1.541   4.017 -1.1544  1.4993 -0.0873
  883MOL0     H19191   2.954   0.497   3.852 -0.3273  1.3868 -0.5018
  883MOL0     H19192   3.028   0.287   3.907  2.0824 -3.3817 -0.7519
  883MOL0     H19193   3.385  -0.020   3.881  0.5455  0.6746  0.3198
  883MOL0     H19194   3.448  -0.238   3.961  1.3239 -1.4765 -1.2946
  883MOL0     H19195   3.284  -0.596   3.704 -1.0346 -0.4789  1.2608
  883MOL0     H19196   3.418  -0.504   3.671 -1.1293 -0.5336 -0.5044
  883MOL0     H19197   3.463  -0.765   3.739  0.7337 -1.5032  1.3428
  883MOL0     H19198   3.442  -0.708   3.903 -0.8900 -0.7458  0.5100
  883MOL0     H19199   3.646  -0.608   3.708 -1.3892 -1.1962 -0.4907
  883MOL0     H19200   3.673  -0.704   3.854 -1.3044 -2.6332 -1.1486
  883MOL0     H19201   3.577  -0.473   3.971  0.3331  3.0065 -0.2046
  883MOL0     H19202   3.597  -0.411   3.811  1.0874  1.5377  1.1325
  883MOL0     H19203   4.003  -0.396   3.898 -0.2346 -0.0653  0.3954
  883MOL0     H19204   3.129  -0.417   3.703  2.5341 -2.3343 -0.3062
  883MOL0     H19205   3.049  -0.207   3.660  0.5045 -0.8372 -0.6528
  884MOL0     O19206   4.706   6.486   9.031  0.5988 -0.2677 -0.4633
  884MOL0     C19207   4.806   6.422   9.011 -0.2698 -0.3700 -0.4318
  884MOL0     O19208   4.841   6.305   9.060  0.2127 -0.2177 -0.0945
  884MOL0     C19209   4.775   6.244   9.167  0.1773 -0.1830 -0.5322
  884MOL0     C19210   4.742   6.312   9.290 -0.2679 -0.3611 -0.0864
  884MOL0     C19211   4.691   6.248   9.403  0.5734 -1.3723 -0.9460
  884MOL0     C19212   4.671   6.116   9.399 -0.4525  0.2134 -0.0022
  884MOL0     O19213   4.608   6.051   9.503 -0.0615 -0.1491  0.8491
  884MOL0     C19214   4.476   6.094   9.549  0.0049 -0.0373  0.8952
  884MOL0     C19215   4.378   5.985   9.573 -0.9534  0.0996  0.2987
  884MOL0     C19216   4.241   6.031   9.556  0.4793 -0.4453  0.1891
  884MOL0     C19217   4.137   5.920   9.589 -0.2715  0.6888  0.6192
  884MOL0     C19218   3.995   5.938   9.536 -1.3491  0.2001 -0.8177
  884MOL0     C19219   3.923   6.025   9.634  0.7620  0.1032  0.0687
  884MOL0     C19220   3.771   5.998   9.628  0.4791 -0.0608 -0.6538
  884MOL0     C19221   3.717   6.044   9.490 -0.6637  0.0540  0.6435
  884MOL0     N19222   3.574   6.065   9.514  0.5392 -0.6757  0.2888
  884MOL0     C19223   3.471   5.972   9.520  0.1858 -0.0458  1.0448
  884MOL0     C19224   3.353   6.043   9.507  0.1846 -0.5320 -0.1015
  884MOL0     C19225   3.209   5.988   9.531 -0.0333  0.1204 -0.0898
  884MOL0     C19226   3.152   6.052   9.657  0.2356 -0.5663 -0.1151
  884MOL0     C19227   3.021   5.979   9.711 -0.3289  0.2657 -0.1006
  884MOL0     C19228   2.902   5.963   9.610  0.0165 -1.2382  0.7649
  884MOL0     O19229   2.933   5.837   9.544 -0.0988 -0.5984  0.0203
  884MOL0     C19230   2.824   5.767   9.499 -0.1816  0.1886 -0.2199
  884MOL0     C19231   2.722   5.820   9.420 -0.1921 -0.7750 -0.3975
  884MOL0     C19232   2.614   5.753   9.376 -0.5532  0.3130  0.1742
  884MOL0     C19233   2.500   5.820   9.321  0.8478  0.2570 -0.0928
  884MOL0     C19234   2.596   5.616   9.420  0.3962  0.4310 -1.1875
  884MOL0     C19235   2.479   5.539   9.382 -0.1686 -0.4255 -0.5990
  884MOL0     O19236   2.454   5.519   9.252 -0.3513 -1.0575  0.1297
  884MOL0     C19237   2.329   5.472   9.222  0.1771  0.2073  0.7254
  884MOL0     C19238   2.210   5.545   9.237 -0.7284 -0.8575 -0.6246
  884MOL0     C19239   2.091   5.498   9.194  0.3358  0.0165 -0.3512
  884MOL0     C19240   2.081   5.367   9.136  0.0046  0.1875 -0.2352
  884MOL0     O19241   1.960   5.321   9.088  0.9045  0.0126  0.0160
  884MOL0     C19242   1.916   5.205   9.150 -0.2985  0.4421 -0.2977
  884MOL0     C19243   1.811   5.140   9.058 -0.8387  0.0800 -0.5274
  884MOL0     C19244   1.699   5.067   9.129  0.1788  0.0097  0.0493
  884MOL0     C19245   1.591   5.016   9.034 -0.4104  0.7458  0.6806
  884MOL0     C19246   1.479   4.931   9.107  0.6908 -0.3396 -0.9548
  884MOL0     C19247   1.438   4.826   9.007 -0.4827 -0.4640 -0.3402
  884MOL0     C19248   1.308   4.757   9.049  0.4625 -0.8585 -0.0161
  884MOL0     C19249   1.247   4.680   8.926  0.0855  0.7307 -0.3934
  884MOL0    Cl19250   1.080   4.609   8.966 -0.0459  0.1011 -0.0129
  884MOL0     C19251   2.201   5.296   9.123  0.7368  0.4858  0.4422
  884MOL0     C19252   2.321   5.348   9.158  0.1980  0.0755  0.4693
  884MOL0     O19253   2.420   5.477   9.477 -0.5094 -0.7869  0.4954
  884MOL0     C19254   2.702   5.548   9.485  0.0121  0.3842 -0.4505
  884MOL0     C19255   2.815   5.632   9.528  0.2507  0.7584  0.8982
  884MOL0     N19256   3.388   6.173   9.495 -0.8571  0.2259 -0.0020
  884MOL0     N19257   3.510   6.187   9.497 -0.6615  1.1736  0.4689
  884MOL0     C19258   4.691   6.045   9.276 -0.7364  0.5150 -0.3426
  884MOL0     C19259   4.741   6.107   9.159  0.2916 -0.0035 -0.0720
  884MOL0     C19260   4.903   6.477   8.908 -0.5169 -0.7857  0.6647
  884MOL0     C19261   5.043   6.434   8.907  0.1281  0.1445  0.1931
  884MOL0     C19262   5.129   6.499   8.816  0.0888 -0.8565  0.3550
  884MOL0     C19263   5.079   6.582   8.715  0.3342 -0.6212  0.3864
  884MOL0     O19264   5.172   6.634   8.619  0.1429 -0.4147  0.3403
  884MOL0     C19265   5.200   6.547   8.506 -0.2077 -0.5381  0.1813
  884MOL0     C19266   5.225   6.639   8.387  0.6573  1.1206  0.4733
  884MOL0     C19267   5.352   6.729   8.386  0.9997  0.0617 -0.7327
  884MOL0     C19268   5.482   6.645   8.397  0.9543 -0.0405  0.1928
  884MOL0     C19269   5.605   6.717   8.362 -0.3881 -1.0487 -1.6700
  884MOL0     C19270   5.716   6.769   8.337 -0.6170 -0.0378 -0.7913
  884MOL0     C19271   4.939   6.614   8.712 -0.3506  0.0368  0.8724
  884MOL0     C19272   4.856   6.570   8.813 -0.5747 -0.6642  0.7174
  884MOL0     H19273   4.780   6.413   9.303  1.5238 -1.3085  2.8458
  884MOL0     H19274   4.674   6.301   9.496 -0.3659 -1.2073 -1.2018
  884MOL0     H19275   4.484   6.159   9.636 -0.0468 -0.1125  0.9561
  884MOL0     H19276   4.434   6.161   9.474 -2.5721  2.5692  4.3682
  884MOL0     H19277   4.403   5.909   9.499  0.8900 -1.1609  2.1200
  884MOL0     H19278   4.396   5.948   9.674  1.3202 -1.9771 -0.7487
  884MOL0     H19279   4.228   6.104   9.636  1.2064 -2.3300  2.1038
  884MOL0     H19280   4.209   6.069   9.458 -2.3961  0.9081  1.5380
  884MOL0     H19281   4.181   5.836   9.535  1.8428  2.2648 -0.2356
  884MOL0     H19282   4.138   5.898   9.696  0.7212 -1.7688  0.1746
  884MOL0     H19283   3.990   5.995   9.443  0.3515  2.5071  0.4028
  884MOL0     H19284   3.951   5.838   9.526 -0.7877  0.1620 -3.8108
  884MOL0     H19285   3.954   5.991   9.734  2.4731 -1.2007 -0.8461
  884MOL0     H19286   3.946   6.132   9.639 -2.7981  0.9514  1.3000
  884MOL0     H19287   3.761   5.891   9.647 -3.4567 -0.1735 -2.3851
  884MOL0     H19288   3.724   6.046   9.715  0.8311 -4.4508  2.2567
  884MOL0     H19289   3.743   5.960   9.424 -1.8703 -0.1502  0.4040
  884MOL0     H19290   3.764   6.133   9.448  1.9353 -1.4352  0.2019
  884MOL0     H19291   3.474   5.865   9.539 -1.2236 -0.4819 -0.8965
  884MOL0     H19292   3.140   6.002   9.447 -0.5181  0.8599  0.4238
  884MOL0     H19293   3.214   5.883   9.561  3.2191  0.7130  2.0284
  884MOL0     H19294   3.127   6.157   9.638  3.5226  0.3109 -0.2541
  884MOL0     H19295   3.226   6.053   9.738  1.1412  1.6646 -0.8892
  884MOL0     H19296   2.995   6.029   9.805 -4.2161 -3.3836  1.0899
  884MOL0     H19297   3.060   5.879   9.727  1.3206  1.0220  0.9317
  884MOL0     H19298   2.893   6.048   9.542 -1.4569 -0.2001  2.1823
  884MOL0     H19299   2.813   5.963   9.674 -0.0917  1.5190  0.7449
  884MOL0     H19300   2.731   5.928   9.418 -0.8728 -0.6598  1.2645
  884MOL0     H19301   2.449   5.770   9.237 -1.3279  0.8463  0.7965
  884MOL0     H19302   2.429   5.825   9.404  0.8138 -1.6403  0.0497
  884MOL0     H19303   2.536   5.916   9.285 -0.3562  0.8842  0.2998
  884MOL0     H19304   2.205   5.642   9.286  0.9217 -1.2076  0.3265
  884MOL0     H19305   2.005   5.564   9.206  2.7287  2.9539  2.2809
  884MOL0     H19306   1.989   5.130   9.181  0.1539  1.9753  2.7328
  884MOL0     H19307   1.870   5.242   9.242  1.0065  0.9447  0.1703
  884MOL0     H19308   1.762   5.224   9.008  0.4726  2.4665  1.9570
  884MOL0     H19309   1.867   5.065   9.002  1.4307  0.5354  0.9986
  884MOL0     H19310   1.656   5.135   9.203  0.2454  1.0679 -0.8754
  884MOL0     H19311   1.748   4.985   9.182  0.3646 -1.6878 -2.5554
  884MOL0     H19312   1.557   5.101   8.974 -0.6675 -2.3231 -3.9257
  884MOL0     H19313   1.637   4.952   8.959  0.9884 -1.5373  3.2888
  884MOL0     H19314   1.399   4.997   9.143  2.4657  0.9550  0.8532
  884MOL0     H19315   1.520   4.883   9.196  0.0625 -0.3189 -0.6487
  884MOL0     H19316   1.414   4.890   8.921  1.6717  0.4296 -0.3492
  884MOL0     H19317   1.512   4.753   8.973 -2.2867 -0.7133 -4.3349
  884MOL0     H19318   1.237   4.835   9.077  0.1120 -1.1353 -0.1269
  884MOL0     H19319   1.315   4.696   9.139  2.8396 -1.1826 -0.3567
  884MOL0     H19320   1.310   4.593   8.907  0.7580  0.6456  1.8741
  884MOL0     H19321   1.242   4.741   8.835  0.5432 -0.1128 -0.9985
  884MOL0     H19322   2.179   5.197   9.084 -2.5667  0.2536  2.5545
  884MOL0     H19323   2.418   5.304   9.138  1.4587  2.9765 -0.3415
  884MOL0     H19324   2.690   5.444   9.510 -0.1391  1.0356  2.5905
  884MOL0     H19325   2.893   5.580   9.582  2.1231  1.5614 -0.9091
  884MOL0     H19326   4.674   5.938   9.275  0.1242  0.2649 -4.2148
  884MOL0     H19327   4.757   6.056   9.065 -2.0287  0.6152 -0.8751
  884MOL0     H19328   5.069   6.352   8.974 -0.1416 -1.5945 -1.7183
  884MOL0     H19329   5.234   6.472   8.815 -0.2178 -2.2913 -2.0679
  884MOL0     H19330   5.286   6.485   8.535 -0.2973 -0.8647 -0.2300
  884MOL0     H19331   5.113   6.486   8.480 -0.7666  0.5890 -0.6922
  884MOL0     H19332   5.137   6.702   8.370  0.2804 -0.2681 -4.2324
  884MOL0     H19333   5.230   6.581   8.295  0.8021  0.1463  1.0775
  884MOL0     H19334   5.348   6.791   8.476 -3.1168 -1.3809  0.3321
  884MOL0     H19335   5.357   6.778   8.289  0.0431  0.2346 -0.7055
  884MOL0     H19336   5.480   6.554   8.337  0.4852  0.5089 -0.6397
  884MOL0     H19337   5.488   6.622   8.504 -2.4100  0.4098  0.5811
  884MOL0     H19338   5.813   6.812   8.327 -0.0400 -1.3517 -1.0611
  884MOL0     H19339   4.891   6.676   8.637 -2.7890 -0.5168  1.8980
  884MOL0     H19340   4.756   6.611   8.808 -0.9553 -1.6942 -0.8197
  885MOL0     O19341   3.327  11.251  10.483  0.4514  0.2224 -0.6549
  885MOL0     C19342   3.267  11.151  10.527  0.4129  0.5521 -0.2457
  885MOL0     O19343   3.284  11.026  10.490  0.1642 -1.3467  0.7346
  885MOL0     C19344   3.169  10.972  10.428  0.4065  0.7706 -0.3628
  885MOL0     C19345   3.145  10.836  10.456  0.9063  0.4218  0.5368
  885MOL0     C19346   3.031  10.775  10.400 -0.4629 -0.3942 -1.1667
  885MOL0     C19347   2.933  10.846  10.328 -1.0066  0.1229  0.2024
  885MOL0     O19348   2.828  10.771  10.289  0.6873 -0.1748  0.2286
  885MOL0     C19349   2.742  10.826  10.191  0.1897 -0.5448 -1.0008
  885MOL0     C19350   2.649  10.720  10.134  0.3440 -0.5928 -0.3533
  885MOL0     C19351   2.566  10.662  10.239  0.4505  0.2392 -0.7715
  885MOL0     C19352   2.486  10.549  10.175 -0.3646 -0.0865  0.6569
  885MOL0     C19353   2.381  10.501  10.270  0.5084  0.7500  0.8579
  885MOL0     C19354   2.304  10.370  10.228  1.2619 -1.4131 -0.5891
  885MOL0     C19355   2.183  10.406  10.135  0.5237 -0.0224 -0.7229
  885MOL0     C19356   2.120  10.284  10.071 -0.1995  0.6554 -0.5236
  885MOL0     N19357   1.984  10.307  10.013 -0.8419  0.8299 -0.1172
  885MOL0     C19358   1.949  10.405   9.921 -0.8075 -0.0602 -0.2673
  885MOL0     C19359   1.816  10.419   9.935 -0.0739  0.2302  0.3341
  885MOL0     C19360   1.738  10.513   9.849  0.2486  0.7356 -0.5842
  885MOL0     C19361   1.584  10.488   9.855 -0.0969 -0.1333 -0.0666
  885MOL0     C19362   1.519  10.604   9.769 -0.5358 -0.0960 -0.7199
  885MOL0     C19363   1.375  10.571   9.757 -0.0154  0.2993  0.3998
  885MOL0     O19364   1.317  10.591   9.882  0.3428  0.0532 -0.7503
  885MOL0     C19365   1.177  10.576   9.881  0.4388  0.0427 -0.2703
  885MOL0     C19366   1.089  10.577   9.776  0.8063 -0.2777  0.1069
  885MOL0     C19367   0.948  10.572   9.792 -0.0562 -0.5080  0.2678
  885MOL0     C19368   0.862  10.572   9.669  0.1641 -0.5506 -0.1141
  885MOL0     C19369   0.893  10.551   9.916 -1.0247 -0.0077 -0.7137
  885MOL0     C19370   0.748  10.532   9.934  0.3135 -0.9508 -0.5913
  885MOL0     O19371   0.670  10.627  10.001 -0.0983  0.2213 -0.2821
  885MOL0     C19372   0.548  10.596  10.051  0.4178  0.7224 -0.5105
  885MOL0     C19373   0.509  10.471  10.095  0.9685 -0.7949  0.2555
  885MOL0     C19374   0.385  10.460  10.156 -0.0373  0.7096  0.4737
  885MOL0     C19375   0.304  10.564  10.172  1.3012 -0.5937 -0.1718
  885MOL0     O19376   0.187  10.537  10.234 -0.2975  0.0034 -0.7856
  885MOL0     C19377   0.158  10.609  10.353  0.0837  0.1126  0.0462
  885MOL0     C19378   0.058  10.529  10.432 -0.2515  0.4982 -0.9771
  885MOL0     C19379   0.058  10.582  10.584 -1.1461  0.4507  0.7410
  885MOL0     C19380  -0.059  10.516  10.650 -0.3473 -0.2131 -0.5086
  885MOL0     C19381  -0.070  10.363  10.661 -0.4059 -0.0507 -0.2018
  885MOL0     C19382  -0.131  10.310  10.785  0.1356  0.1414 -0.0761
  885MOL0     C19383  -0.273  10.348  10.806  0.0747 -1.2522  0.4031
  885MOL0     C19384  -0.340  10.270  10.919 -0.3840 -0.5097  0.2157
  885MOL0    Cl19385  -0.281  10.314  11.082  0.1852 -0.0054 -0.3799
  885MOL0     C19386   0.337  10.693  10.126 -0.6531 -0.0231  0.2469
  885MOL0     C19387   0.465  10.713  10.061 -0.4859 -0.3084 -0.5252
  885MOL0     O19388   0.699  10.439   9.871  0.2033  0.2446  0.6445
  885MOL0     C19389   0.973  10.544  10.033  0.6489  0.2710 -0.4566
  885MOL0     C19390   1.117  10.552  10.012  1.5555  0.2693  0.1388
  885MOL0     N19391   1.776  10.335  10.029  0.4028  0.0079  0.4468
  885MOL0     N19392   1.874  10.266  10.076 -0.2413 -1.0025  0.3765
  885MOL0     C19393   2.966  10.979  10.286 -0.7612  0.7959 -0.8516
  885MOL0     C19394   3.086  11.034  10.336  0.5485  0.3681 -0.5103
  885MOL0     C19395   3.190  11.175  10.653 -0.2198  0.6401 -0.2681
  885MOL0     C19396   3.151  11.301  10.705 -0.6526  0.6575  0.1187
  885MOL0     C19397   3.097  11.315  10.831  0.2213  0.2070  0.4703
  885MOL0     C19398   3.055  11.205  10.910 -0.3761  0.3977 -0.4257
  885MOL0     O19399   2.991  11.231  11.029 -0.5748 -0.8264 -0.4794
  885MOL0     C19400   3.048  11.161  11.146  0.3903 -0.0667 -0.0049
  885MOL0     C19401   3.017  11.228  11.275  0.2347 -0.5613 -0.0674
  885MOL0     C19402   3.056  11.382  11.266 -0.6847  0.5702 -0.8469
  885MOL0     C19403   3.068  11.438  11.404 -0.6054  0.2292  0.6471
  885MOL0     C19404   3.130  11.573  11.409 -0.1770 -0.2243 -0.1158
  885MOL0     C19405   3.191  11.682  11.410 -0.0042  0.3059 -0.4161
  885MOL0     C19406   3.076  11.070  10.862 -0.9903 -0.6407  0.5644
  885MOL0     C19407   3.145  11.062  10.735  0.1210  0.6335 -0.2098
  885MOL0     H19408   3.215  10.773  10.510  2.5232 -0.9448 -2.8465
  885MOL0     H19409   3.015  10.668  10.410  0.1581 -0.3699  0.2708
  885MOL0     H19410   2.685  10.911  10.230  2.7002  0.1964  1.3944
  885MOL0     H19411   2.799  10.879  10.115  1.7654 -1.0481 -0.2012
  885MOL0     H19412   2.593  10.781  10.062  1.3946  0.1021 -0.6162
  885MOL0     H19413   2.706  10.637  10.091  0.6650 -0.9764  0.7759
  885MOL0     H19414   2.611  10.614  10.326 -3.1559 -1.2559  0.4566
  885MOL0     H19415   2.508  10.745  10.281  1.3261 -0.7669  2.7804
  885MOL0     H19416   2.444  10.586  10.082  0.3450 -0.8519  0.0146
  885MOL0     H19417   2.560  10.474  10.146  0.7561  1.2867 -0.1339
  885MOL0     H19418   2.437  10.472  10.359 -1.4246  2.4616  2.7437
  885MOL0     H19419   2.325  10.591  10.293  0.1292  0.9011 -0.5630
  885MOL0     H19420   2.362  10.311  10.157 -0.1346 -4.2652  0.4875
  885MOL0     H19421   2.277  10.317  10.320 -1.3077 -1.4263 -1.2751
  885MOL0     H19422   2.102  10.460  10.186  0.9376  0.1846 -0.2719
  885MOL0     H19423   2.205  10.456  10.040 -0.5044 -3.1716 -2.7761
  885MOL0     H19424   2.120  10.199  10.139 -0.0940  0.4145 -0.8210
  885MOL0     H19425   2.188  10.252   9.992  0.4228  0.5375  0.0509
  885MOL0     H19426   2.024  10.450   9.858 -0.5170 -2.4849 -1.7557
  885MOL0     H19427   1.755  10.616   9.883  0.4155  0.4510  0.2125
  885MOL0     H19428   1.768  10.518   9.744 -0.4317  1.9426 -0.7433
  885MOL0     H19429   1.547  10.488   9.957  2.2278 -2.1672  0.8791
  885MOL0     H19430   1.558  10.394   9.806 -2.9990 -0.4478  1.8677
  885MOL0     H19431   1.551  10.602   9.665  0.0665 -0.3203 -0.5297
  885MOL0     H19432   1.533  10.705   9.809 -0.6882  0.5722 -2.2771
  885MOL0     H19433   1.358  10.477   9.703  0.0736  0.6632 -0.2651
  885MOL0     H19434   1.337  10.653   9.696 -0.1912  1.6809  2.2630
  885MOL0     H19435   1.132  10.568   9.676 -0.6886 -0.1639 -0.5773
  885MOL0     H19436   0.927  10.564   9.581  0.3351 -3.6664  0.1942
  885MOL0     H19437   0.801  10.482   9.659 -0.4202 -0.1738 -0.0148
  885MOL0     H19438   0.801  10.663   9.659 -2.5314 -2.4456 -3.9280
  885MOL0     H19439   0.565  10.379  10.087  2.7238  0.1613  0.9929
  885MOL0     H19440   0.344  10.366  10.191  1.0905 -0.6851 -1.6829
  885MOL0     H19441   0.254  10.623  10.403  0.4821 -3.2702  0.4579
  885MOL0     H19442   0.101  10.697  10.321  0.2995 -0.4109 -1.9062
  885MOL0     H19443  -0.037  10.555  10.384 -1.0846  1.4944  1.0747
  885MOL0     H19444   0.086  10.424  10.436 -1.7045  0.1211  0.4910
  885MOL0     H19445   0.057  10.692  10.585  0.2568  0.4875  0.4511
  885MOL0     H19446   0.154  10.554  10.628 -0.6817  1.3893  0.3509
  885MOL0     H19447  -0.058  10.557  10.752 -1.7390 -0.7173 -0.2752
  885MOL0     H19448  -0.153  10.547  10.603  0.2387 -0.0988 -1.6550
  885MOL0     H19449   0.034  10.330  10.661  0.9764  3.7531 -1.5305
  885MOL0     H19450  -0.131  10.325  10.579  1.1359 -0.1394 -1.3483
  885MOL0     H19451  -0.120  10.201  10.790 -0.3470  0.0612 -0.6351
  885MOL0     H19452  -0.070  10.345  10.868  1.5511  1.4860 -1.6122
  885MOL0     H19453  -0.321  10.316  10.713 -1.0754 -0.6534  0.7798
  885MOL0     H19454  -0.271  10.455  10.824  0.9754 -1.4598  1.6579
  885MOL0     H19455  -0.340  10.161  10.909 -1.4794 -0.4941 -0.0509
  885MOL0     H19456  -0.445  10.299  10.922 -0.6859 -1.3108 -1.4343
  885MOL0     H19457   0.297  10.789  10.157  2.6063  2.2737 -1.9370
  885MOL0     H19458   0.494  10.801  10.004  1.7768 -0.5839  0.1284
  885MOL0     H19459   0.923  10.519  10.125 -0.4989 -2.4128 -1.7020
  885MOL0     H19460   1.184  10.555  10.097  1.8195  4.1320 -0.0380
  885MOL0     H19461   2.910  11.043  10.218  0.3908  1.1516 -1.4978
  885MOL0     H19462   3.115  11.130  10.296  0.7254  0.8668  0.7672
  885MOL0     H19463   3.175  11.383  10.638 -3.2874  0.9847 -0.5295
  885MOL0     H19464   3.076  11.417  10.861  1.5512  0.9872 -1.0749
  885MOL0     H19465   2.998  11.063  11.148  1.0055 -0.4075 -0.6660
  885MOL0     H19466   3.155  11.148  11.127  0.4573 -1.9919  1.3584
  885MOL0     H19467   3.077  11.173  11.348  1.1352  0.9440  0.3663
  885MOL0     H19468   2.911  11.220  11.299  0.2985 -2.1543 -0.2423
  885MOL0     H19469   2.984  11.439  11.207 -2.2720  0.7410  1.1583
  885MOL0     H19470   3.156  11.393  11.223  1.7760  0.6376  4.2249
  885MOL0     H19471   3.125  11.370  11.468  0.2010 -1.0591 -1.3350
  885MOL0     H19472   2.965  11.449  11.439 -1.1640 -1.6003 -0.2614
  885MOL0     H19473   3.225  11.783  11.413 -2.9434  1.6741 -4.1923
  885MOL0     H19474   3.045  10.977  10.908  1.3583 -1.7148  0.1292
  885MOL0     H19475   3.154  10.958  10.708 -0.3090  0.2584  1.0558
  886MOL0     O19476   6.043   9.239   7.577  0.5975 -0.7305 -0.3911
  886MOL0     C19477   5.947   9.273   7.503  0.4963  0.5286  0.5608
  886MOL0     O19478   5.922   9.231   7.378  0.8830 -0.7355 -0.0839
  886MOL0     C19479   6.009   9.134   7.330  1.4086 -0.1677 -0.0547
  886MOL0     C19480   5.953   9.019   7.271 -0.0364  0.1439  0.0618
  886MOL0     C19481   6.032   8.924   7.215  0.3857  0.7881 -0.6186
  886MOL0     C19482   6.166   8.941   7.206  0.5925  0.7445  0.2187
  886MOL0     O19483   6.236   8.841   7.160 -0.0248 -0.0239  1.2019
  886MOL0     C19484   6.260   8.739   7.254 -0.5830  0.2713 -0.2991
  886MOL0     C19485   6.365   8.634   7.186 -0.1543  0.2315  0.3585
  886MOL0     C19486   6.406   8.520   7.280 -0.3445 -0.1560  0.6408
  886MOL0     C19487   6.524   8.441   7.220  0.1981 -0.0651  0.0698
  886MOL0     C19488   6.569   8.342   7.328 -0.3517  0.0331 -0.2330
  886MOL0     C19489   6.670   8.252   7.272  0.2072  0.6904  0.1737
  886MOL0     C19490   6.753   8.193   7.389 -1.0348  0.3964 -0.6607
  886MOL0     C19491   6.697   8.070   7.462  0.0755 -0.4057  0.2315
  886MOL0     N19492   6.649   7.974   7.370  0.6684 -0.1490 -0.7490
  886MOL0     C19493   6.537   7.896   7.407  0.4973 -0.0439  0.2037
  886MOL0     C19494   6.542   7.785   7.332 -0.3026 -0.3305  0.0115
  886MOL0     C19495   6.447   7.677   7.342  0.1411 -0.0268 -0.2626
  886MOL0     C19496   6.304   7.726   7.322 -0.3334 -0.4809 -0.1793
  886MOL0     C19497   6.193   7.623   7.311 -0.6206  0.0805 -0.7559
  886MOL0     C19498   6.054   7.675   7.266 -0.1628  0.7684 -0.0934
  886MOL0     O19499   6.013   7.787   7.341  0.3559 -0.3945  0.8505
  886MOL0     C19500   5.897   7.861   7.303 -0.0226 -0.0299 -0.3685
  886MOL0     C19501   5.869   7.976   7.376  0.2885  0.2795  0.0345
  886MOL0     C19502   5.756   8.057   7.348 -1.2661  0.2703 -0.1748
  886MOL0     C19503   5.719   8.177   7.440 -0.3902 -0.9829  0.7119
  886MOL0     C19504   5.682   8.023   7.229  0.0821  0.3542 -0.3076
  886MOL0     C19505   5.557   8.086   7.188  0.6281  0.0238 -0.4809
  886MOL0     O19506   5.520   8.080   7.059 -0.3896  0.0233  0.0478
  886MOL0     C19507   5.435   8.173   7.009  0.6729 -0.1992 -0.9902
  886MOL0     C19508   5.319   8.124   6.946  0.3666  0.5645 -0.2864
  886MOL0     C19509   5.227   8.214   6.890 -0.0788 -0.5858 -0.3514
  886MOL0     C19510   5.259   8.352   6.880 -0.3697 -0.2397 -0.2167
  886MOL0     O19511   5.167   8.438   6.823 -0.3358  0.3152  0.3525
  886MOL0     C19512   5.089   8.510   6.920  0.3798  0.2405 -0.5327
  886MOL0     C19513   4.985   8.604   6.856  0.0706  0.0000  1.2654
  886MOL0     C19514   4.928   8.677   6.979  0.3718 -0.1972 -0.5417
  886MOL0     C19515   4.837   8.805   6.952  0.5404  0.2169  0.5060
  886MOL0     C19516   4.789   8.865   7.084 -0.3044 -0.1801 -0.6553
  886MOL0     C19517   4.640   8.938   7.085  0.4196  0.9235 -0.5956
  886MOL0     C19518   4.521   8.826   7.090  0.7827 -0.1639 -0.3823
  886MOL0     C19519   4.373   8.879   7.096  0.0706 -0.1786  0.2418
  886MOL0    Cl19520   4.329   8.877   7.273  0.1123 -0.0307 -0.1338
  886MOL0     C19521   5.387   8.394   6.928  0.0131  0.3813 -0.1671
  886MOL0     C19522   5.470   8.306   6.997 -0.3311 -0.4794 -0.4684
  886MOL0     O19523   5.490   8.144   7.275  0.1505  0.4864 -0.4440
  886MOL0     C19524   5.722   7.910   7.152  0.2673 -0.4327  0.2219
  886MOL0     C19525   5.822   7.833   7.194 -0.5958  0.1342 -0.4961
  886MOL0     N19526   6.654   7.789   7.251 -0.9359 -0.5296 -0.2803
  886MOL0     N19527   6.719   7.899   7.278  0.5458  0.6005  0.0007
  886MOL0     C19528   6.227   9.057   7.250  0.7419  0.7970  0.4309
  886MOL0     C19529   6.151   9.150   7.318  0.7332 -0.2854 -0.2065
  886MOL0     C19530   5.833   9.350   7.566 -0.5302 -0.6274 -0.6751
  886MOL0     C19531   5.832   9.387   7.706 -0.1505 -0.1452 -0.4600
  886MOL0     C19532   5.717   9.440   7.763 -0.7437 -0.3183  0.2022
  886MOL0     C19533   5.603   9.470   7.685  0.6389 -0.3893 -0.7856
  886MOL0     O19534   5.489   9.519   7.758 -0.5828  0.1097  1.1029
  886MOL0     C19535   5.463   9.662   7.757  0.0067 -1.3726  0.5863
  886MOL0     C19536   5.399   9.693   7.894 -0.5575 -0.0280  0.0831
  886MOL0     C19537   5.493   9.675   8.016 -0.4835  0.4409  0.9656
  886MOL0     C19538   5.421   9.698   8.140  0.5529  0.3517 -0.5675
  886MOL0     C19539   5.488   9.685   8.273 -1.0460  0.4691  0.5314
  886MOL0     C19540   5.525   9.666   8.389  0.4692  0.1755 -0.2862
  886MOL0     C19541   5.609   9.447   7.547  0.2309  0.5947  0.6451
  886MOL0     C19542   5.720   9.380   7.491 -0.4199  0.5369 -0.7613
  886MOL0     H19543   5.844   9.011   7.277  0.0507 -0.0976  2.3470
  886MOL0     H19544   5.988   8.827   7.192 -2.5807  1.3167  2.0167
  886MOL0     H19545   6.306   8.778   7.345  0.8058 -5.6673  2.0563
  886MOL0     H19546   6.165   8.692   7.278  0.9319 -2.2899  1.1922
  886MOL0     H19547   6.322   8.589   7.096  1.0149  0.6765 -0.4485
  886MOL0     H19548   6.453   8.688   7.153 -2.3073  3.4298 -0.6431
  886MOL0     H19549   6.444   8.556   7.376  3.5631 -3.6141  0.6978
  886MOL0     H19550   6.313   8.463   7.287 -0.5620 -0.6703 -3.7022
  886MOL0     H19551   6.492   8.390   7.129 -1.5509  3.9843 -1.7956
  886MOL0     H19552   6.604   8.513   7.200 -2.4469  3.2083  0.4067
  886MOL0     H19553   6.597   8.404   7.413 -2.5906  1.5678 -0.5548
  886MOL0     H19554   6.486   8.280   7.363 -0.5260 -1.1427 -2.5031
  886MOL0     H19555   6.632   8.174   7.206 -1.3069  1.6966 -0.1906
  886MOL0     H19556   6.740   8.317   7.218  3.1148 -0.8374  1.8522
  886MOL0     H19557   6.840   8.158   7.335 -0.8749 -1.4784  0.6969
  886MOL0     H19558   6.784   8.266   7.464  1.2999 -1.8584  0.7358
  886MOL0     H19559   6.622   8.108   7.532  0.7258  2.0483 -0.2918
  886MOL0     H19560   6.783   8.025   7.513  0.8076  2.1502  1.4085
  886MOL0     H19561   6.481   7.923   7.496 -2.4288 -0.3892 -1.4205
  886MOL0     H19562   6.469   7.603   7.264 -3.8285 -1.3555 -0.3537
  886MOL0     H19563   6.453   7.640   7.445 -2.1001  1.9683  0.6570
  886MOL0     H19564   6.295   7.797   7.239  1.0552  0.8998  0.7947
  886MOL0     H19565   6.282   7.790   7.408  4.6873  2.0025 -0.3623
  886MOL0     H19566   6.203   7.572   7.407 -1.4553  0.6758 -0.3476
  886MOL0     H19567   6.220   7.548   7.236 -0.3472 -0.7858  0.1925
  886MOL0     H19568   5.987   7.588   7.272 -1.0140  1.4705  0.9569
  886MOL0     H19569   6.061   7.705   7.161 -0.4281 -0.3457 -0.4433
  886MOL0     H19570   5.925   7.996   7.466 -2.3762 -0.8789  2.0858
  886MOL0     H19571   5.700   8.265   7.378  2.2189 -0.9179 -0.0973
  886MOL0     H19572   5.631   8.154   7.501  0.0783  0.0859  1.8305
  886MOL0     H19573   5.803   8.210   7.502  0.3265 -0.2808 -0.5861
  886MOL0     H19574   5.305   8.016   6.942 -1.7955  0.8257 -2.6896
  886MOL0     H19575   5.148   8.168   6.832 -0.2131 -0.4895 -0.2440
  886MOL0     H19576   5.027   8.435   6.971  2.6581 -2.4658 -1.4276
  886MOL0     H19577   5.157   8.560   6.990 -1.2969  0.0779  1.3098
  886MOL0     H19578   5.032   8.668   6.781  0.9106 -0.8778  1.0308
  886MOL0     H19579   4.903   8.552   6.805 -0.6180  2.8372 -0.7301
  886MOL0     H19580   5.006   8.715   7.046 -2.1045  3.6973  0.4149
  886MOL0     H19581   4.868   8.602   7.032  0.4935  0.8560  1.1376
  886MOL0     H19582   4.885   8.887   6.898 -4.0962  2.2105 -1.1174
  886MOL0     H19583   4.751   8.774   6.892 -0.2780  3.0103  0.0845
  886MOL0     H19584   4.860   8.946   7.099 -0.1306 -0.6072  1.0450
  886MOL0     H19585   4.793   8.800   7.172 -2.7540  0.7995  0.2716
  886MOL0     H19586   4.630   9.002   7.173  1.6363 -0.4673  0.5842
  886MOL0     H19587   4.626   9.002   6.997 -0.1077  0.8018 -0.6032
  886MOL0     H19588   4.549   8.753   7.166 -0.9114 -0.7318 -0.2698
  886MOL0     H19589   4.530   8.775   6.994 -0.7575 -3.2113  0.9615
  886MOL0     H19590   4.297   8.814   7.055 -0.3503  0.8269 -0.6188
  886MOL0     H19591   4.376   8.980   7.053  2.2147 -0.4849 -0.4373
  886MOL0     H19592   5.418   8.496   6.911  0.1895  0.5939  1.3116
  886MOL0     H19593   5.566   8.338   7.036 -0.2726 -1.0865 -0.0987
  886MOL0     H19594   5.678   7.885   7.056 -2.5899 -0.5811  1.4763
  886MOL0     H19595   5.844   7.745   7.134  0.2714  0.0232 -0.0384
  886MOL0     H19596   6.335   9.063   7.252  0.8343 -0.5900  0.6331
  886MOL0     H19597   6.189   9.242   7.362 -0.5696  0.3965 -0.4431
  886MOL0     H19598   5.904   9.359   7.782 -0.2528  0.2120 -0.2291
  886MOL0     H19599   5.715   9.438   7.871 -2.0579 -0.7186  0.1905
  886MOL0     H19600   5.560   9.712   7.756  0.1306 -1.5416 -1.9206
  886MOL0     H19601   5.399   9.699   7.677  0.5893 -0.4170  0.5451
  886MOL0     H19602   5.319   9.619   7.904 -0.2713 -0.7818 -2.5720
  886MOL0     H19603   5.349   9.790   7.896 -1.9641 -0.7313  1.8432
  886MOL0     H19604   5.577   9.745   8.009 -0.7950  0.6629 -3.3989
  886MOL0     H19605   5.531   9.573   8.018  2.0003  1.1667 -1.8775
  886MOL0     H19606   5.339   9.629   8.159 -0.2833  1.6744  0.8669
  886MOL0     H19607   5.382   9.800   8.142 -0.3691  0.0076  1.2306
  886MOL0     H19608   5.538   9.651   8.494  0.9626  0.0498 -0.3603
  886MOL0     H19609   5.520   9.467   7.489 -1.2438 -0.4927  2.4577
  886MOL0     H19610   5.720   9.345   7.388  1.3937  0.1354 -0.6614
  887MOL0     O19611   3.595   8.718   8.376 -0.3574 -0.1107 -0.2673
  887MOL0     C19612   3.675   8.794   8.322 -0.0335 -0.3544 -0.7493
  887MOL0     O19613   3.638   8.905   8.249  0.0145  0.2397  0.1537
  887MOL0     C19614   3.508   8.930   8.220  0.3652  0.5432 -0.2360
  887MOL0     C19615   3.470   8.970   8.093  0.6042 -0.6031  0.2549
  887MOL0     C19616   3.341   8.963   8.046  0.5372 -0.7291  0.3769
  887MOL0     C19617   3.236   8.951   8.129  0.4916 -0.1440 -0.6557
  887MOL0     O19618   3.108   8.966   8.088 -0.2405  0.3220 -0.3434
  887MOL0     C19619   3.077   8.917   7.963  0.1954  0.0708 -0.2108
  887MOL0     C19620   2.927   8.909   7.938  0.8519  0.5600 -0.2375
  887MOL0     C19621   2.876   9.036   7.867  0.3269  0.1723 -0.4269
  887MOL0     C19622   2.914   9.160   7.956  0.0313 -0.8002  0.2769
  887MOL0     C19623   2.839   9.293   7.913  0.5044  0.1243  0.6871
  887MOL0     C19624   2.852   9.340   7.762 -0.4251  0.8578 -0.0939
  887MOL0     C19625   2.829   9.489   7.751 -1.0525  0.1823 -0.4327
  887MOL0     C19626   2.861   9.541   7.611 -0.4506  0.0839 -0.2627
  887MOL0     N19627   2.815   9.682   7.591  0.9511  0.0716  0.3390
  887MOL0     C19628   2.681   9.710   7.568 -0.2012 -0.4225 -0.4862
  887MOL0     C19629   2.678   9.848   7.561 -0.1377  0.0331  0.0957
  887MOL0     C19630   2.556   9.933   7.545 -0.0787 -0.1874 -0.0377
  887MOL0     C19631   2.465   9.896   7.425  0.2633  1.3944  0.0184
  887MOL0     C19632   2.522   9.931   7.294  0.1686 -0.0185 -0.0245
  887MOL0     C19633   2.439   9.884   7.178 -1.0721 -0.2430 -0.5231
  887MOL0     O19634   2.306   9.945   7.167 -0.2740  0.1372 -0.0760
  887MOL0     C19635   2.249   9.946   7.039 -0.1405  0.1907  1.0276
  887MOL0     C19636   2.117   9.905   7.024 -0.2283  0.0823 -0.1437
  887MOL0     C19637   2.041   9.897   6.906 -0.3101  0.4237 -0.2202
  887MOL0     C19638   1.893   9.859   6.911 -0.7362  0.1961  0.4266
  887MOL0     C19639   2.094   9.955   6.790  0.7575  0.5634 -0.1563
  887MOL0     C19640   2.030   9.960   6.653 -0.0558  0.8178  0.8084
  887MOL0     O19641   1.904   9.918   6.638 -0.1276  0.6706 -0.2330
  887MOL0     C19642   1.840   9.941   6.523  0.7662  1.0519  0.1238
  887MOL0     C19643   1.755   9.834   6.483  0.2056 -0.3183  0.1132
  887MOL0     C19644   1.677   9.826   6.374  0.3277 -0.3395 -0.2343
  887MOL0     C19645   1.672   9.941   6.297  0.1876  0.0684  0.0297
  887MOL0     O19646   1.586   9.942   6.203  0.1528 -0.2425  0.9235
  887MOL0     C19647   1.546  10.061   6.140 -0.4199 -1.2355 -0.6368
  887MOL0     C19648   1.434  10.041   6.040  0.2429  0.5087  0.5596
  887MOL0     C19649   1.489   9.971   5.909 -0.5255 -0.7710 -1.0437
  887MOL0     C19650   1.376   9.931   5.819  0.5869  0.9631 -0.0758
  887MOL0     C19651   1.420   9.860   5.687 -0.6196  0.3373  0.1503
  887MOL0     C19652   1.545   9.765   5.693 -0.4362  0.8163 -0.5458
  887MOL0     C19653   1.548   9.691   5.559  0.6132  0.9105  0.1738
  887MOL0     C19654   1.663   9.592   5.549 -0.4589  0.0818  0.1707
  887MOL0    Cl19655   1.649   9.519   5.385 -0.0304 -0.2177  0.0302
  887MOL0     C19656   1.745  10.056   6.330  0.3515 -0.1285 -0.1744
  887MOL0     C19657   1.832  10.050   6.444 -0.2597 -0.3107 -0.0400
  887MOL0     O19658   2.098  10.023   6.569  0.0991  0.7376  0.8201
  887MOL0     C19659   2.232  10.013   6.799  0.7226  0.6216 -0.0685
  887MOL0     C19660   2.309   9.997   6.920  0.5183  0.4776  0.3257
  887MOL0     N19661   2.815   9.891   7.561 -0.3017 -0.2482 -0.3172
  887MOL0     N19662   2.891   9.793   7.582 -0.9025 -0.1228  0.7541
  887MOL0     C19663   3.266   8.940   8.270 -0.5579  0.6520  0.4431
  887MOL0     C19664   3.394   8.918   8.312  0.7430  0.8522 -0.3508
  887MOL0     C19665   3.821   8.752   8.345  0.7627 -0.0235 -0.1209
  887MOL0     C19666   3.922   8.854   8.320  1.0291  0.8807 -0.2432
  887MOL0     C19667   4.056   8.830   8.344  0.7323  0.1803  1.0456
  887MOL0     C19668   4.098   8.704   8.373 -0.2932  0.2007 -0.6058
  887MOL0     O19669   4.238   8.674   8.385 -0.2626 -0.7010 -0.2571
  887MOL0     C19670   4.281   8.604   8.500  0.0860  0.0429  0.0902
  887MOL0     C19671   4.426   8.651   8.517 -0.1323  0.3930 -0.3115
  887MOL0     C19672   4.534   8.604   8.419  0.2956 -0.6402  0.3124
  887MOL0     C19673   4.647   8.714   8.407  0.8158 -0.4308 -0.8473
  887MOL0     C19674   4.749   8.689   8.304 -0.7556 -0.6425  0.4131
  887MOL0     C19675   4.839   8.669   8.221  0.6135 -0.2507 -0.6814
  887MOL0     C19676   4.006   8.606   8.405 -0.4701  0.4629 -0.1547
  887MOL0     C19677   3.869   8.623   8.393  1.0972 -0.0044 -1.4027
  887MOL0     H19678   3.546   8.998   8.020 -0.5107  1.7553 -0.1037
  887MOL0     H19679   3.334   8.977   7.939  3.3416  1.0484  0.3381
  887MOL0     H19680   3.133   8.968   7.884  1.5671 -0.7297  0.2152
  887MOL0     H19681   3.113   8.814   7.959  0.9430  0.2676  0.9754
  887MOL0     H19682   2.906   8.816   7.885 -1.4871  0.8488  0.0359
  887MOL0     H19683   2.873   8.889   8.031 -0.7751  0.1122 -1.2197
  887MOL0     H19684   2.921   9.040   7.768 -0.7707  2.1808 -0.9066
  887MOL0     H19685   2.768   9.036   7.847 -0.0997 -0.3872  1.6135
  887MOL0     H19686   2.895   9.141   8.062 -3.6721 -0.6729 -0.2075
  887MOL0     H19687   3.020   9.182   7.947 -0.3130  0.4145 -1.4375
  887MOL0     H19688   2.732   9.283   7.933 -0.0074 -1.1054 -2.0946
  887MOL0     H19689   2.872   9.373   7.979  3.2380 -1.4652  1.3871
  887MOL0     H19690   2.957   9.343   7.733 -0.4275  0.1579 -0.1848
  887MOL0     H19691   2.788   9.285   7.693 -1.0826 -0.8490  1.7614
  887MOL0     H19692   2.725   9.510   7.776 -1.0277 -1.1218  0.9184
  887MOL0     H19693   2.888   9.532   7.833  2.3299 -2.7839 -1.0439
  887MOL0     H19694   2.817   9.478   7.533 -0.9542  2.8905 -2.4200
  887MOL0     H19695   2.969   9.543   7.594 -0.4513 -1.9018 -0.7040
  887MOL0     H19696   2.602   9.636   7.562  0.2827 -0.8972 -1.1998
  887MOL0     H19697   2.496   9.920   7.636  0.7621 -0.7551  0.4490
  887MOL0     H19698   2.594  10.036   7.540 -0.5291 -0.0762 -2.0566
  887MOL0     H19699   2.369   9.945   7.443  0.2695  0.8939  1.5276
  887MOL0     H19700   2.436   9.790   7.430  0.6593  1.3037  0.3422
  887MOL0     H19701   2.625   9.894   7.301  0.4465  0.6939 -0.2447
  887MOL0     H19702   2.527  10.039   7.274  0.5097  0.0862  0.5936
  887MOL0     H19703   2.434   9.776   7.198 -1.0765  0.0635  1.2989
  887MOL0     H19704   2.492   9.903   7.084 -1.7309 -0.2312 -0.8994
  887MOL0     H19705   2.062   9.874   7.112  2.8581 -1.8841  1.2796
  887MOL0     H19706   1.846   9.947   6.866 -0.5575 -0.4964 -1.2028
  887MOL0     H19707   1.870   9.767   6.855 -1.5275  1.7621 -1.9713
  887MOL0     H19708   1.846   9.855   7.009 -1.7304 -0.3674 -0.0487
  887MOL0     H19709   1.764   9.747   6.547 -1.6310 -2.6335 -2.5426
  887MOL0     H19710   1.614   9.740   6.354 -2.2487  1.3882 -0.0889
  887MOL0     H19711   1.514  10.131   6.217 -0.1519  0.6929 -2.1934
  887MOL0     H19712   1.631  10.103   6.084 -1.7377  2.4120 -0.1451
  887MOL0     H19713   1.365   9.982   6.101  0.7037  1.9995  2.6555
  887MOL0     H19714   1.382  10.131   6.007  1.4889  0.6750 -1.0532
  887MOL0     H19715   1.546   9.879   5.925 -0.8038 -1.1256 -2.0388
  887MOL0     H19716   1.560  10.041   5.864 -0.0050  0.9635  2.1911
  887MOL0     H19717   1.312   9.866   5.880 -0.0832  1.2894 -0.4158
  887MOL0     H19718   1.308  10.016   5.804 -2.3832 -1.1569  0.4108
  887MOL0     H19719   1.435   9.939   5.612 -0.4972 -0.3797 -0.6002
  887MOL0     H19720   1.338   9.799   5.649  0.4459 -0.7493 -0.4722
  887MOL0     H19721   1.635   9.824   5.710  0.1811 -0.2907  0.1524
  887MOL0     H19722   1.541   9.691   5.773  1.3014  0.4450 -0.7653
  887MOL0     H19723   1.548   9.758   5.473  1.9821  0.5352 -0.1459
  887MOL0     H19724   1.456   9.632   5.552  1.7708 -0.7620 -2.1179
  887MOL0     H19725   1.645   9.516   5.626  0.3311 -1.3160 -0.9759
  887MOL0     H19726   1.761   9.637   5.565  0.5758 -1.1869 -2.1813
  887MOL0     H19727   1.755  10.149   6.275  3.7364  0.2948  0.9811
  887MOL0     H19728   1.895  10.130   6.481 -2.0720  1.0597  0.2339
  887MOL0     H19729   2.276  10.039   6.703 -1.7923 -2.3853 -2.2734
  887MOL0     H19730   2.417   9.996   6.927  0.4921  2.3823  1.8069
  887MOL0     H19731   3.190   8.940   8.348 -1.1528  3.7515  0.0151
  887MOL0     H19732   3.418   8.893   8.415  0.7964  0.2461 -0.5120
  887MOL0     H19733   3.895   8.955   8.292  0.2971  0.9981  0.7938
  887MOL0     H19734   4.136   8.897   8.315 -1.8438  2.2265 -1.9075
  887MOL0     H19735   4.209   8.632   8.578 -1.6882  2.9651 -2.3806
  887MOL0     H19736   4.280   8.496   8.484 -1.2607 -0.0113  0.4167
  887MOL0     H19737   4.471   8.621   8.612 -0.3141  1.5085  0.1447
  887MOL0     H19738   4.421   8.761   8.516  0.2977  0.4403  0.8151
  887MOL0     H19739   4.495   8.588   8.318  1.2423  1.0215 -0.3597
  887MOL0     H19740   4.578   8.508   8.449  2.2853  0.4681  1.1637
  887MOL0     H19741   4.696   8.711   8.504 -0.6276 -1.6901 -0.1196
  887MOL0     H19742   4.604   8.814   8.399  2.1101  0.2303  0.0499
  887MOL0     H19743   4.919   8.644   8.154  0.6575 -0.9971 -0.3616
  887MOL0     H19744   4.033   8.506   8.437 -1.3936 -0.4115 -1.9556
  887MOL0     H19745   3.801   8.539   8.401 -0.8311  1.4925 -1.3486
  888MOL0     O19746   6.802   9.578   4.181  0.3996  0.1599  0.5805
  888MOL0     C19747   6.830   9.682   4.130  0.7950  0.3504 -0.2580
  888MOL0     O19748   6.763   9.747   4.033 -0.0606 -0.2198  0.4776
  888MOL0     C19749   6.640   9.700   3.984 -0.3022  0.3609  0.3318
  888MOL0     C19750   6.603   9.724   3.850  0.2134  0.7100 -0.2320
  888MOL0     C19751   6.494   9.652   3.793  0.3144 -0.0799 -1.0650
  888MOL0     C19752   6.411   9.583   3.880 -0.1243 -0.5699 -0.1555
  888MOL0     O19753   6.300   9.529   3.819 -0.7283 -0.4974 -0.5975
  888MOL0     C19754   6.175   9.539   3.891  0.6852  0.5921 -0.2905
  888MOL0     C19755   6.059   9.482   3.801 -0.1526 -0.6637  0.2198
  888MOL0     C19756   6.092   9.342   3.737 -0.4507  0.1476 -0.2153
  888MOL0     C19757   6.112   9.237   3.855  0.9949  0.1205  0.0357
  888MOL0     C19758   6.077   9.097   3.799 -0.7519 -0.1541 -0.2755
  888MOL0     C19759   6.084   8.981   3.899  0.3134  1.2895  0.2311
  888MOL0     C19760   6.053   8.852   3.820  0.1344  0.1975 -0.5879
  888MOL0     C19761   6.002   8.735   3.913 -0.1214 -0.0389 -0.2964
  888MOL0     N19762   5.851   8.736   3.916 -0.0179 -0.2311  0.1568
  888MOL0     C19763   5.771   8.634   3.864  0.1362 -0.9018 -0.5814
  888MOL0     C19764   5.654   8.651   3.935  0.2353 -0.4981 -0.8177
  888MOL0     C19765   5.538   8.548   3.930 -0.0476 -1.2573  0.4531
  888MOL0     C19766   5.392   8.587   3.969 -0.2307 -0.8007 -0.0917
  888MOL0     C19767   5.306   8.472   3.915 -0.0245 -0.9400 -0.1762
  888MOL0     C19768   5.175   8.447   3.991  0.0036 -0.1642  0.1301
  888MOL0     O19769   5.091   8.385   3.890 -0.1614 -0.0651 -0.5148
  888MOL0     C19770   4.966   8.360   3.938 -0.2565 -0.1142  0.1574
  888MOL0     C19771   4.907   8.391   4.058  0.9010 -0.5813 -0.3496
  888MOL0     C19772   4.778   8.356   4.088  0.7129 -1.4465  0.2932
  888MOL0     C19773   4.734   8.388   4.230 -0.3330 -0.2781 -0.3415
  888MOL0     C19774   4.692   8.297   3.992 -0.4037 -0.0522 -0.0493
  888MOL0     C19775   4.548   8.268   4.011 -0.0123  0.7984  0.4179
  888MOL0     O19776   4.481   8.249   3.893 -0.4823 -0.5304 -0.3761
  888MOL0     C19777   4.347   8.220   3.892  0.1679  0.1959  0.2683
  888MOL0     C19778   4.311   8.106   3.962 -0.3562  1.1040 -0.1272
  888MOL0     C19779   4.178   8.064   3.956 -0.6883 -0.2221 -0.6548
  888MOL0     C19780   4.084   8.132   3.884  0.2060 -0.3455 -0.1113
  888MOL0     O19781   3.956   8.087   3.901 -0.9595 -0.7326  0.4884
  888MOL0     C19782   3.843   8.163   3.846 -0.8829  0.2501 -0.7956
  888MOL0     C19783   3.716   8.086   3.863 -0.2623 -0.0198  1.4075
  888MOL0     C19784   3.595   8.164   3.817 -1.0856  1.0264  0.6111
  888MOL0     C19785   3.478   8.076   3.779  0.7203  0.8765  0.8742
  888MOL0     C19786   3.362   8.166   3.741 -0.1235 -0.7857  0.0506
  888MOL0     C19787   3.232   8.086   3.720 -0.9431  0.2661 -0.3912
  888MOL0     C19788   3.248   7.968   3.620 -0.1925 -0.4370 -0.8818
  888MOL0     C19789   3.113   7.920   3.565  0.1184 -0.1792 -1.2492
  888MOL0    Cl19790   3.049   8.031   3.428 -0.2336 -0.2866  0.1183
  888MOL0     C19791   4.121   8.247   3.814  0.2363 -0.7240 -0.1893
  888MOL0     C19792   4.248   8.294   3.815 -0.6980  0.0133  0.6544
  888MOL0     O19793   4.501   8.239   4.120 -0.2441 -0.7652 -0.0687
  888MOL0     C19794   4.751   8.261   3.870  1.3044  0.8955 -0.7838
  888MOL0     C19795   4.886   8.286   3.848  0.3971 -0.2750  0.7211
  888MOL0     N19796   5.668   8.766   4.015  0.9337  0.7479 -0.3874
  888MOL0     N19797   5.791   8.808   4.007 -0.4406 -0.3623 -0.0054
  888MOL0     C19798   6.427   9.586   4.018 -0.5643 -0.9661 -0.5758
  888MOL0     C19799   6.549   9.642   4.067 -0.6122 -0.1276 -0.1004
  888MOL0     C19800   6.961   9.733   4.174 -0.1565 -0.3389  0.4013
  888MOL0     C19801   7.050   9.666   4.257  0.4901 -0.4623  0.9693
  888MOL0     C19802   7.172   9.724   4.293 -0.9845 -0.4776 -0.6278
  888MOL0     C19803   7.210   9.847   4.246 -1.7338 -0.5551 -0.5922
  888MOL0     O19804   7.338   9.897   4.263  0.5716 -0.1737 -0.7024
  888MOL0     C19805   7.453   9.816   4.241  0.2696  0.2779  0.5912
  888MOL0     C19806   7.567   9.896   4.178 -0.2444 -0.8566  0.1236
  888MOL0     C19807   7.594  10.024   4.256 -0.5638  0.3729 -0.2012
  888MOL0     C19808   7.733  10.090   4.234  1.2082 -0.9532  0.0607
  888MOL0     C19809   7.764  10.087   4.092 -0.9248  0.6353  0.3347
  888MOL0     C19810   7.802  10.069   3.978 -0.2112  0.4303 -0.3619
  888MOL0     C19811   7.123   9.925   4.178 -0.5761  0.6225  0.3859
  888MOL0     C19812   6.996   9.870   4.142 -0.8490 -0.1120  0.1188
  888MOL0     H19813   6.666   9.770   3.774 -0.1883  0.1413 -0.9298
  888MOL0     H19814   6.480   9.660   3.686  1.0771 -1.7922 -1.3222
  888MOL0     H19815   6.174   9.473   3.977  2.7096  1.8501  0.8002
  888MOL0     H19816   6.161   9.641   3.928 -0.5168  1.1173 -2.0685
  888MOL0     H19817   5.962   9.481   3.852  0.1666  1.3628  0.9723
  888MOL0     H19818   6.045   9.549   3.716 -2.8737 -1.4801 -0.0831
  888MOL0     H19819   6.008   9.306   3.677  0.1529 -0.9154 -0.4518
  888MOL0     H19820   6.181   9.342   3.672  0.6302 -3.5168  1.0242
  888MOL0     H19821   6.212   9.242   3.898  0.2816  2.3932  1.6278
  888MOL0     H19822   6.044   9.258   3.939  2.8216  0.8522  1.3888
  888MOL0     H19823   5.975   9.083   3.762  0.1496 -0.4647 -2.8492
  888MOL0     H19824   6.145   9.082   3.714  1.3199  2.0086  0.8881
  888MOL0     H19825   6.185   8.968   3.940  0.6892 -0.0413 -1.0218
  888MOL0     H19826   6.013   8.996   3.980  0.1343  0.8495  0.1576
  888MOL0     H19827   5.985   8.867   3.736 -1.3084  0.3888  0.5808
  888MOL0     H19828   6.145   8.824   3.768  0.9643  0.3882  0.7454
  888MOL0     H19829   6.043   8.748   4.014 -0.1819 -0.2294 -0.2472
  888MOL0     H19830   6.018   8.632   3.880 -1.0741 -0.5339  0.7226
  888MOL0     H19831   5.800   8.558   3.792 -2.6693 -1.6230 -1.0522
  888MOL0     H19832   5.534   8.528   3.822 -4.3524 -2.4961  0.6387
  888MOL0     H19833   5.562   8.460   3.990  0.7661 -0.8751  0.6866
  888MOL0     H19834   5.372   8.679   3.914  1.6618  0.0292  0.5217
  888MOL0     H19835   5.396   8.598   4.078 -1.1791  0.6143 -0.1786
  888MOL0     H19836   5.358   8.376   3.917 -2.5407 -2.3981  1.4342
  888MOL0     H19837   5.281   8.492   3.811  2.5760  0.2212 -0.6521
  888MOL0     H19838   5.137   8.543   4.027 -1.7406 -1.2777  1.3933
  888MOL0     H19839   5.199   8.389   4.081  1.7396  2.8645  1.7827
  888MOL0     H19840   4.970   8.430   4.138 -0.2516 -3.4563  2.1405
  888MOL0     H19841   4.814   8.430   4.293 -2.0213  1.0202  1.0375
  888MOL0     H19842   4.646   8.453   4.235 -1.2637 -1.5072 -0.3438
  888MOL0     H19843   4.706   8.291   4.273  0.1140 -0.5672 -0.6835
  888MOL0     H19844   4.384   8.040   4.008 -1.8999  0.8081  2.0313
  888MOL0     H19845   4.148   7.981   4.018  0.9294  0.2175  0.8095
  888MOL0     H19846   3.843   8.261   3.895 -2.1011  0.2342 -0.7478
  888MOL0     H19847   3.864   8.168   3.739  1.1962  1.4795 -0.3803
  888MOL0     H19848   3.732   7.999   3.799  0.8716  0.8126  0.5162
  888MOL0     H19849   3.702   8.046   3.964 -0.4572 -1.2211  0.9215
  888MOL0     H19850   3.625   8.225   3.730  0.6174  0.5947  0.8639
  888MOL0     H19851   3.560   8.223   3.902 -1.2172 -0.4279  1.6007
  888MOL0     H19852   3.503   8.006   3.698 -3.6275  1.6259 -1.4239
  888MOL0     H19853   3.453   8.012   3.863  0.2698  0.0631  0.1330
  888MOL0     H19854   3.386   8.213   3.644  0.0651 -0.1713  0.3885
  888MOL0     H19855   3.336   8.242   3.815  1.1469  0.6813 -0.9230
  888MOL0     H19856   3.198   8.042   3.815 -0.7542  1.9799  0.5090
  888MOL0     H19857   3.160   8.162   3.688 -1.9320 -0.9541 -1.1447
  888MOL0     H19858   3.304   7.896   3.681  1.3199  2.9584  2.0751
  888MOL0     H19859   3.306   8.005   3.536  1.9626 -0.2164  0.6209
  888MOL0     H19860   3.040   7.894   3.642 -0.3366  1.1815 -1.1958
  888MOL0     H19861   3.129   7.822   3.519 -0.4060 -0.8484 -0.0581
  888MOL0     H19862   4.047   8.317   3.779  1.3056  1.0269  0.9154
  888MOL0     H19863   4.274   8.382   3.756 -4.9639  0.2845 -1.1405
  888MOL0     H19864   4.693   8.211   3.793 -2.6503  2.1816  1.1217
  888MOL0     H19865   4.923   8.264   3.748 -3.0633 -1.0049 -0.5487
  888MOL0     H19866   6.357   9.548   4.092  0.8480  0.4675  1.6073
  888MOL0     H19867   6.575   9.624   4.171  2.7755 -0.5455 -0.9203
  888MOL0     H19868   7.046   9.562   4.288 -1.0029 -0.7204  0.0226
  888MOL0     H19869   7.242   9.666   4.352 -0.9986 -1.2611 -1.3666
  888MOL0     H19870   7.485   9.769   4.335  0.2882 -0.3846  0.2599
  888MOL0     H19871   7.431   9.731   4.176  1.9810  0.7021 -0.5998
  888MOL0     H19872   7.545   9.905   4.072  1.0576 -3.6410 -0.4775
  888MOL0     H19873   7.658   9.835   4.183 -1.2503 -2.3399  0.9724
  888MOL0     H19874   7.582   9.999   4.362  1.5959 -0.4083 -0.1038
  888MOL0     H19875   7.511  10.091   4.232 -0.1276  0.5055 -1.3925
  888MOL0     H19876   7.797  10.034   4.302 -2.3151 -1.0350  3.7273
  888MOL0     H19877   7.741  10.190   4.277 -0.7837 -1.4434  1.7660
  888MOL0     H19878   7.842  10.042   3.882  0.1872 -0.0372 -0.0708
  888MOL0     H19879   7.142  10.029   4.151  1.7732  0.0270 -0.5452
  888MOL0     H19880   6.930   9.940   4.092  1.1309  0.1178 -2.3977
  889MOL0     O19881   4.997   6.429  10.080  0.3426 -0.0278  0.1559
  889MOL0     C19882   5.087   6.431  10.161  0.1079  0.4280 -0.9100
  889MOL0     O19883   5.104   6.341  10.259 -0.2863  0.0104 -0.0728
  889MOL0     C19884   5.046   6.215  10.261 -0.8192  0.3454  0.0628
  889MOL0     C19885   4.919   6.201  10.305  0.2771  0.7772 -0.0423
  889MOL0     C19886   4.851   6.075  10.303  0.1974 -0.5431  0.7866
  889MOL0     C19887   4.922   5.957  10.261 -1.1102 -0.0739  0.3934
  889MOL0     O19888   4.862   5.834  10.256  0.0079  0.1810 -0.6300
  889MOL0     C19889   4.728   5.817  10.199  0.6829 -0.1563 -0.3920
  889MOL0     C19890   4.700   5.663  10.203 -0.8554  0.4166 -0.5061
  889MOL0     C19891   4.561   5.618  10.136  0.0080  0.8969 -1.0571
  889MOL0     C19892   4.566   5.470  10.084  0.3711 -0.5693  0.1422
  889MOL0     C19893   4.436   5.432  10.009 -0.1005  0.0843 -0.0074
  889MOL0     C19894   4.415   5.521   9.880 -0.2815  0.1288  0.3947
  889MOL0     C19895   4.291   5.474   9.788 -0.0408  0.0319 -0.3670
  889MOL0     C19896   4.254   5.568   9.670 -0.2942 -0.6154  0.8874
  889MOL0     N19897   4.115   5.530   9.628 -0.0935  0.0511  0.3151
  889MOL0     C19898   4.075   5.403   9.589  0.7316 -0.1515 -0.4900
  889MOL0     C19899   3.946   5.426   9.547 -0.4983  0.0820  0.5257
  889MOL0     C19900   3.839   5.328   9.511 -0.1650  0.8665  0.2357
  889MOL0     C19901   3.699   5.365   9.544 -0.5914  0.0054  0.3793
  889MOL0     C19902   3.631   5.462   9.444 -0.1531  0.4679 -0.0397
  889MOL0     C19903   3.496   5.523   9.497  0.5641  0.7514  1.3105
  889MOL0     O19904   3.404   5.428   9.549  0.1774  0.0979 -0.2412
  889MOL0     C19905   3.330   5.378   9.445  0.8962 -0.0108  0.3800
  889MOL0     C19906   3.215   5.457   9.406  0.8420  0.6767 -0.2756
  889MOL0     C19907   3.123   5.402   9.322  0.8277  0.1650 -0.4037
  889MOL0     C19908   3.003   5.475   9.308 -0.1667 -0.4061  0.2820
  889MOL0     C19909   3.147   5.280   9.257  0.4293  0.6131  0.0413
  889MOL0     C19910   3.051   5.221   9.162 -0.5745 -0.6698  0.1871
  889MOL0     O19911   3.043   5.083   9.158 -0.5390 -0.1483  0.4330
  889MOL0     C19912   2.929   5.022   9.103 -0.7419  0.1547 -0.4230
  889MOL0     C19913   2.949   4.898   9.049 -0.3711  0.3191 -0.2754
  889MOL0     C19914   2.845   4.828   8.989 -0.0286  0.7953  0.4421
  889MOL0     C19915   2.723   4.890   8.968  0.5025 -0.2650 -0.7650
  889MOL0     O19916   2.609   4.838   8.912 -0.4837  0.2001 -0.6998
  889MOL0     C19917   2.608   4.700   8.875 -0.1223 -0.3629  0.1867
  889MOL0     C19918   2.627   4.605   8.997 -0.0085  0.1099  0.3570
  889MOL0     C19919   2.580   4.459   8.969  0.4731 -0.1178  1.0850
  889MOL0     C19920   2.674   4.399   8.851 -0.6388 -0.5404 -0.9198
  889MOL0     C19921   2.831   4.402   8.872 -0.7540 -0.1275 -0.7786
  889MOL0     C19922   2.886   4.317   8.757  0.6580  0.5192 -1.0935
  889MOL0     C19923   3.037   4.310   8.757 -1.0231 -0.5868 -0.3836
  889MOL0     C19924   3.084   4.260   8.617  0.0985 -0.0507 -0.3647
  889MOL0    Cl19925   3.257   4.259   8.616  0.3241 -0.2068 -0.3991
  889MOL0     C19926   2.704   5.014   9.026  0.4478 -0.3259 -0.1834
  889MOL0     C19927   2.808   5.073   9.099  0.3862  0.3117 -0.5710
  889MOL0     O19928   2.991   5.296   9.083  0.1485  0.0848  0.0016
  889MOL0     C19929   3.272   5.209   9.285 -0.2489  0.1524  0.5680
  889MOL0     C19930   3.354   5.262   9.383  0.3109 -0.5722 -0.2331
  889MOL0     N19931   3.912   5.559   9.570 -1.3328 -0.2782  0.0249
  889MOL0     N19932   4.024   5.616   9.603  0.4745 -0.1167 -0.3432
  889MOL0     C19933   5.055   5.968  10.220 -0.0694 -0.3170 -0.0429
  889MOL0     C19934   5.121   6.093  10.223  0.8935  0.1415 -0.2404
  889MOL0     C19935   5.185   6.533  10.160 -0.3398 -0.0486 -0.1203
  889MOL0     C19936   5.224   6.598  10.042  0.0060  0.2657  0.3783
  889MOL0     C19937   5.333   6.679  10.033 -0.8999 -0.1999 -1.2505
  889MOL0     C19938   5.387   6.729  10.151 -0.5106 -0.2193 -0.3716
  889MOL0     O19939   5.474   6.829  10.125  0.0145 -0.0001  0.2241
  889MOL0     C19940   5.547   6.887  10.232 -0.2680  0.1463 -0.4213
  889MOL0     C19941   5.673   6.799  10.247  0.3124 -0.4035 -0.3212
  889MOL0     C19942   5.794   6.866  10.317 -0.0728  0.3124 -0.0894
  889MOL0     C19943   5.760   6.900  10.448 -0.1281 -0.2408 -0.0074
  889MOL0     C19944   5.694   6.794  10.534 -0.8743 -0.3608  0.3597
  889MOL0     C19945   5.634   6.717  10.604 -0.0056  0.5818  0.0095
  889MOL0     C19946   5.346   6.680  10.278  0.7340 -0.8701  0.6944
  889MOL0     C19947   5.244   6.580  10.282 -0.3302 -0.6309 -0.1707
  889MOL0     H19948   4.873   6.292  10.343 -1.0858  0.9890 -2.0187
  889MOL0     H19949   4.748   6.070  10.335  0.0375 -0.2197  0.3418
  889MOL0     H19950   4.657   5.857  10.272  1.1798 -2.9113  1.7910
  889MOL0     H19951   4.714   5.856  10.098  2.6454  1.2548 -0.1916
  889MOL0     H19952   4.778   5.595  10.166 -1.3755  1.5162 -3.9658
  889MOL0     H19953   4.704   5.634  10.309 -0.0745 -0.3402 -0.7280
  889MOL0     H19954   4.487   5.641  10.213  0.4412 -2.1630  0.4318
  889MOL0     H19955   4.540   5.680  10.048 -2.4819 -0.2435 -1.3520
  889MOL0     H19956   4.651   5.471  10.015  1.5317  1.7928  1.4574
  889MOL0     H19957   4.587   5.400  10.166 -0.4418  0.3552  1.1821
  889MOL0     H19958   4.465   5.337   9.964  0.6936  1.2693 -2.1566
  889MOL0     H19959   4.348   5.434  10.073  0.0754 -2.0625  0.3583
  889MOL0     H19960   4.402   5.625   9.912  1.1488  0.8410 -1.1624
  889MOL0     H19961   4.502   5.527   9.814  0.6455  1.5219  1.6850
  889MOL0     H19962   4.300   5.374   9.744  2.4619  0.5687 -1.2512
  889MOL0     H19963   4.207   5.472   9.858  0.9365  0.8469  0.8913
  889MOL0     H19964   4.322   5.565   9.585 -2.1744  0.0320 -0.6985
  889MOL0     H19965   4.263   5.671   9.706  2.3278 -0.6902  0.6088
  889MOL0     H19966   4.137   5.313   9.587 -1.3134 -1.6678 -3.2203
  889MOL0     H19967   3.835   5.290   9.409  0.1463 -0.7856  0.8016
  889MOL0     H19968   3.868   5.236   9.563  2.1473 -0.2443 -2.7679
  889MOL0     H19969   3.712   5.405   9.645  0.0482 -0.4254  0.4747
  889MOL0     H19970   3.641   5.273   9.537  0.0613 -0.3754 -0.1066
  889MOL0     H19971   3.612   5.416   9.346 -1.1292  0.7263  0.0151
  889MOL0     H19972   3.689   5.553   9.425  2.2778 -1.0033  0.0070
  889MOL0     H19973   3.458   5.584   9.415 -1.0341 -2.1089 -0.2548
  889MOL0     H19974   3.524   5.586   9.582 -0.7454 -1.3405  3.4180
  889MOL0     H19975   3.196   5.551   9.458  0.2911  0.0083  0.7577
  889MOL0     H19976   2.911   5.426   9.341 -1.5928 -0.6177 -3.5035
  889MOL0     H19977   3.010   5.568   9.365 -0.9237 -1.2548  1.8214
  889MOL0     H19978   2.988   5.504   9.204 -0.0809  2.4306  0.9553
  889MOL0     H19979   3.051   4.860   9.053 -0.5224  0.0284  1.7954
  889MOL0     H19980   2.870   4.730   8.947 -1.1213 -0.0739  1.7492
  889MOL0     H19981   2.511   4.696   8.825  0.3383  3.1555 -1.2579
  889MOL0     H19982   2.685   4.679   8.800 -0.4852  0.6136 -0.4643
  889MOL0     H19983   2.732   4.611   9.029  0.5316  0.7284 -1.4293
  889MOL0     H19984   2.558   4.653   9.067 -1.7941 -2.2630  0.3243
  889MOL0     H19985   2.480   4.458   8.926  2.9013 -3.6606 -6.1920
  889MOL0     H19986   2.588   4.393   9.057  1.3634 -4.0979 -1.7069
  889MOL0     H19987   2.634   4.297   8.851 -2.6138  0.1748  0.2113
  889MOL0     H19988   2.657   4.452   8.756  0.3516  0.8285 -0.3740
  889MOL0     H19989   2.855   4.340   8.959  0.1755 -1.9100 -2.2167
  889MOL0     H19990   2.876   4.501   8.882  1.7947 -1.3336  0.5974
  889MOL0     H19991   2.846   4.215   8.759  0.3518  0.6246 -1.6396
  889MOL0     H19992   2.852   4.361   8.662 -0.4098  0.7106 -0.6314
  889MOL0     H19993   3.070   4.242   8.837  0.7560  3.2969  2.5049
  889MOL0     H19994   3.079   4.408   8.782 -3.1591 -0.4967  3.6290
  889MOL0     H19995   3.057   4.337   8.546  0.9803  0.0213 -0.6352
  889MOL0     H19996   3.062   4.157   8.587  1.7753 -0.4131 -0.4837
  889MOL0     H19997   2.621   5.082   9.011  1.8110  1.6193  0.7039
  889MOL0     H19998   2.798   5.174   9.139  0.3379 -0.7472  2.2440
  889MOL0     H19999   3.282   5.114   9.234 -5.5177 -0.1822 -0.4220
  889MOL0     H20000   3.440   5.205   9.417  1.8993 -0.0024 -2.9540
  889MOL0     H20001   5.101   5.872  10.200  0.7445 -0.8865  3.7183
  889MOL0     H20002   5.215   6.099  10.169  0.0490 -1.1528 -1.9463
  889MOL0     H20003   5.173   6.567   9.951 -1.2687  4.8276 -0.7327
  889MOL0     H20004   5.366   6.726   9.941 -2.0714 -1.7544 -2.5328
  889MOL0     H20005   5.589   6.985  10.210  2.0137 -0.5058  0.7057
  889MOL0     H20006   5.497   6.887  10.329  1.1329 -0.1969  0.3184
  889MOL0     H20007   5.703   6.769  10.146 -0.7549  1.7145 -1.3324
  889MOL0     H20008   5.639   6.708  10.298  0.0442  0.3544  0.8866
  889MOL0     H20009   5.806   6.960  10.262 -0.6531 -0.0412 -0.8321
  889MOL0     H20010   5.887   6.808  10.313 -1.2737 -1.8232  1.0744
  889MOL0     H20011   5.699   6.990  10.444  0.8423  0.3954 -1.0685
  889MOL0     H20012   5.856   6.925  10.494  0.3928  0.1092 -1.2428
  889MOL0     H20013   5.599   6.643  10.674 -1.1968  1.8251  0.7677
  889MOL0     H20014   5.383   6.719  10.372  1.0686  1.5097 -0.3409
  889MOL0     H20015   5.204   6.538  10.374 -1.5289 -2.2635 -1.3848
  890MOL0     O20016   7.169   0.637   8.328 -0.2038  0.7169 -0.0635
  890MOL0     C20017   7.206   0.522   8.360 -0.3065  0.6456 -0.0581
  890MOL0     O20018   7.131   0.410   8.355 -0.5779 -0.1130  0.2174
  890MOL0     C20019   7.014   0.414   8.421  0.6103 -0.0643 -0.0596
  890MOL0     C20020   6.992   0.335   8.539 -0.3750  0.3182  0.3424
  890MOL0     C20021   6.873   0.363   8.608  1.3229  0.2033  0.2671
  890MOL0     C20022   6.775   0.456   8.567 -0.6019  0.5954 -0.1660
  890MOL0     O20023   6.648   0.460   8.619 -0.3963 -0.1291 -0.2295
  890MOL0     C20024   6.604   0.346   8.692 -0.1051  0.1122 -0.3925
  890MOL0     C20025   6.466   0.365   8.745 -0.1544 -0.5991 -0.4918
  890MOL0     C20026   6.405   0.233   8.802  0.5407 -1.5066  0.5059
  890MOL0     C20027   6.468   0.178   8.925  0.1740 -0.1438 -0.8550
  890MOL0     C20028   6.395   0.054   8.970 -0.1696 -0.4613  0.0698
  890MOL0     C20029   6.254   0.062   9.040  0.0027 -0.3104  1.2208
  890MOL0     C20030   6.167  -0.058   9.050  0.3674 -0.1461 -0.3784
  890MOL0     C20031   6.226  -0.140   9.162 -0.2297  0.3242  0.4798
  890MOL0     N20032   6.210  -0.072   9.290  0.1967  0.5672 -0.7283
  890MOL0     C20033   6.093  -0.056   9.357  0.6881 -0.4710 -0.0719
  890MOL0     C20034   6.112   0.024   9.467 -0.0299 -0.3967 -0.6522
  890MOL0     C20035   6.001   0.071   9.567 -0.6175  0.5977 -0.4479
  890MOL0     C20036   6.073   0.101   9.702  0.2349 -0.5427 -0.9728
  890MOL0     C20037   6.168   0.222   9.701  0.7427  0.1838 -1.8069
  890MOL0     C20038   6.140   0.339   9.604  0.2665  1.0658 -1.2402
  890MOL0     O20039   6.000   0.403   9.620  0.0150  0.2823 -0.0726
  890MOL0     C20040   5.953   0.464   9.739 -0.0571 -0.1943 -0.2165
  890MOL0     C20041   5.819   0.466   9.766 -0.1892  0.0393 -0.3132
  890MOL0     C20042   5.772   0.512   9.888  0.1611  0.6544 -1.1978
  890MOL0     C20043   5.620   0.507   9.909 -0.1309 -0.4063 -0.0102
  890MOL0     C20044   5.865   0.557   9.994  0.5947 -0.1870  0.6402
  890MOL0     C20045   5.832   0.605  10.126  0.9602 -0.1308  0.4178
  890MOL0     O20046   5.927   0.651  10.203 -0.0563  0.1257  0.8360
  890MOL0     C20047   5.908   0.701  10.335  0.5425  0.7661  0.8296
  890MOL0     C20048   6.025   0.747  10.397 -0.6107  0.9520 -0.2289
  890MOL0     C20049   6.037   0.789  10.525  0.4075  0.5174 -0.1139
  890MOL0     C20050   5.920   0.799  10.606 -0.0121 -1.2252  0.1358
  890MOL0     O20051   5.931   0.843  10.740 -0.0946 -0.5769  0.6091
  890MOL0     C20052   5.812   0.889  10.810  0.4263 -1.1770  1.1053
  890MOL0     C20053   5.846   0.890  10.960  0.0942  0.5204 -0.4626
  890MOL0     C20054   5.714   0.918  11.031  0.0192 -0.5224  0.4370
  890MOL0     C20055   5.705   0.844  11.167  0.4044 -0.0848 -0.4918
  890MOL0     C20056   5.687   0.695  11.158  0.4976  0.3889 -0.1305
  890MOL0     C20057   5.664   0.635  11.293 -0.0694 -0.0438  0.0552
  890MOL0     C20058   5.548   0.527  11.306 -0.5405  0.4426  0.3018
  890MOL0     C20059   5.596   0.396  11.251  0.6968 -0.5369  0.1845
  890MOL0    Cl20060   5.453   0.328  11.183 -0.2598 -0.0349 -0.1840
  890MOL0     C20061   5.797   0.767  10.537  0.5410  0.7194  0.4799
  890MOL0     C20062   5.794   0.713  10.413  0.4315  0.2974 -0.0871
  890MOL0     O20063   5.709   0.601  10.155 -0.1430  0.4597 -0.9875
  890MOL0     C20064   5.997   0.563   9.958 -0.4507  0.5101 -0.5265
  890MOL0     C20065   6.046   0.518   9.833 -0.2900 -0.6133  0.2184
  890MOL0     N20066   6.246   0.069   9.461 -0.7050  0.5412 -0.8907
  890MOL0     N20067   6.302  -0.001   9.364 -0.4092 -0.5004  0.3166
  890MOL0     C20068   6.798   0.527   8.448  0.2971 -0.3277  0.2904
  890MOL0     C20069   6.921   0.504   8.378  0.8787  0.6015  0.0009
  890MOL0     C20070   7.351   0.511   8.389  0.4791 -0.0926  0.4697
  890MOL0     C20071   7.399   0.385   8.420  0.2318 -0.4742 -0.1563
  890MOL0     C20072   7.538   0.367   8.446 -0.1144  0.7474 -0.6575
  890MOL0     C20073   7.617   0.481   8.448 -0.2221  0.7976 -0.9854
  890MOL0     O20074   7.753   0.476   8.468  0.8613  0.5709  0.2152
  890MOL0     C20075   7.827   0.588   8.514 -0.3529 -0.9901  1.2655
  890MOL0     C20076   7.972   0.555   8.565 -0.4479  0.4165  0.3994
  890MOL0     C20077   8.042   0.447   8.480 -0.0268  0.6407 -0.8247
  890MOL0     C20078   8.188   0.412   8.515  0.8416  0.8271  0.1688
  890MOL0     C20079   8.198   0.304   8.617  0.0209  0.7329 -0.5429
  890MOL0     C20080   8.216   0.220   8.710 -0.5648  0.5557 -0.6248
  890MOL0     C20081   7.562   0.606   8.423 -0.2932 -0.1046  0.4280
  890MOL0     C20082   7.430   0.621   8.393 -0.4149  0.0368  0.2856
  890MOL0     H20083   7.067   0.260   8.564  0.0599  0.1826 -1.2285
  890MOL0     H20084   6.846   0.300   8.692 -0.3478 -0.4921 -0.7496
  890MOL0     H20085   6.613   0.268   8.616 -1.4083  1.9810 -2.6119
  890MOL0     H20086   6.673   0.331   8.776 -2.2713 -1.2811  1.2540
  890MOL0     H20087   6.472   0.446   8.818  0.0158  0.0087 -1.1732
  890MOL0     H20088   6.403   0.392   8.660 -2.2391 -0.9445  0.8584
  890MOL0     H20089   6.302   0.255   8.834  1.7213  2.8219  2.0707
  890MOL0     H20090   6.404   0.162   8.719  0.0966  1.2154 -2.0123
  890MOL0     H20091   6.571   0.149   8.902  0.3750 -0.0556 -0.0962
  890MOL0     H20092   6.459   0.251   9.007  0.3997 -1.3643  0.3050
  890MOL0     H20093   6.380  -0.007   8.880 -1.6007 -0.7083  0.4563
  890MOL0     H20094   6.459  -0.000   9.041 -1.7466 -0.2986  1.6935
  890MOL0     H20095   6.270   0.116   9.134  0.2698  1.4260  0.2345
  890MOL0     H20096   6.191   0.124   8.975  1.5313 -0.2919 -0.3159
  890MOL0     H20097   6.068  -0.035   9.090  1.7831  1.0504  2.7273
  890MOL0     H20098   6.173  -0.112   8.955 -0.0735 -2.3011  0.7705
  890MOL0     H20099   6.330  -0.168   9.145 -0.1355  0.5239  0.7213
  890MOL0     H20100   6.173  -0.236   9.164 -1.8860  1.1230 -1.5631
  890MOL0     H20101   6.001  -0.098   9.317  0.1682  0.3927  0.1886
  890MOL0     H20102   5.951   0.161   9.530 -0.5210 -0.3402 -3.0618
  890MOL0     H20103   5.927  -0.008   9.580 -0.0774  0.2018  0.3176
  890MOL0     H20104   6.116   0.007   9.737  0.5055 -0.5557 -1.3391
  890MOL0     H20105   5.983   0.111   9.764  1.1160  0.1285  0.2591
  890MOL0     H20106   6.273   0.196   9.681  0.9311 -0.8730  0.2117
  890MOL0     H20107   6.168   0.247   9.808  1.2978 -3.6713 -0.7270
  890MOL0     H20108   6.153   0.310   9.499  0.7393  2.4711 -1.5978
  890MOL0     H20109   6.215   0.410   9.639 -1.2187  0.8863  2.7571
  890MOL0     H20110   5.745   0.409   9.710  1.3498 -3.9599  1.3295
  890MOL0     H20111   5.573   0.600   9.943  0.6172  0.1548 -0.4853
  890MOL0     H20112   5.575   0.467   9.818  0.1764 -1.5617  0.3329
  890MOL0     H20113   5.594   0.437   9.989  2.4602 -1.2322  0.2001
  890MOL0     H20114   6.114   0.727  10.338 -1.5673 -3.1483 -0.5930
  890MOL0     H20115   6.135   0.815  10.562  2.3277 -3.0194 -2.1585
  890MOL0     H20116   5.775   0.985  10.771 -2.2487 -3.0674 -1.4871
  890MOL0     H20117   5.728   0.821  10.792  0.1251 -0.3889 -0.7351
  890MOL0     H20118   5.882   0.791  10.989 -2.1992  0.4869  2.7525
  890MOL0     H20119   5.916   0.967  10.993 -2.1526  2.1635  0.7764
  890MOL0     H20120   5.635   0.888  10.962 -1.9829  2.0642  1.4272
  890MOL0     H20121   5.693   1.025  11.044 -2.9072 -0.9918  0.4519
  890MOL0     H20122   5.792   0.850  11.233 -0.8350 -1.0949  1.3367
  890MOL0     H20123   5.619   0.878  11.227 -0.1545 -1.8950 -0.2003
  890MOL0     H20124   5.778   0.662  11.107  0.3511  2.1755 -1.6723
  890MOL0     H20125   5.603   0.675  11.091  1.0061  0.5291 -0.8241
  890MOL0     H20126   5.761   0.591  11.319  0.2552 -0.6816 -2.0256
  890MOL0     H20127   5.632   0.717  11.358  0.3457 -0.1139  0.3520
  890MOL0     H20128   5.461   0.560  11.249  0.0822 -0.3091 -1.1383
  890MOL0     H20129   5.519   0.511  11.411 -0.8459 -3.2026 -0.2005
  890MOL0     H20130   5.630   0.344  11.341 -1.6375  2.5356  3.0628
  890MOL0     H20131   5.675   0.403  11.175  1.5358  1.7812  1.1879
  890MOL0     H20132   5.706   0.781  10.595  0.3808  3.1941 -0.2215
  890MOL0     H20133   5.698   0.691  10.367 -0.5470  1.1544  1.4791
  890MOL0     H20134   6.068   0.614  10.023  0.0043 -0.2450 -0.4262
  890MOL0     H20135   6.154   0.528   9.825 -0.6833  3.9707 -2.6603
  890MOL0     H20136   6.730   0.606   8.418  1.8105  1.3246  1.0206
  890MOL0     H20137   6.942   0.560   8.288  1.5749  0.5523  0.1317
  890MOL0     H20138   7.335   0.298   8.415  0.6977 -1.0393  2.3257
  890MOL0     H20139   7.575   0.266   8.456  0.4218  0.8045 -1.9145
  890MOL0     H20140   7.832   0.649   8.424 -0.4161 -2.6742  0.0799
  890MOL0     H20141   7.771   0.653   8.583  0.0988 -1.0108  1.6658
  890MOL0     H20142   7.971   0.512   8.666  2.0931  0.6493  0.5851
  890MOL0     H20143   8.040   0.640   8.553 -0.8423  0.6755 -0.0223
  890MOL0     H20144   8.037   0.462   8.372 -0.8570 -3.2026 -1.4642
  890MOL0     H20145   7.978   0.358   8.488 -0.3304  0.5411 -3.4393
  890MOL0     H20146   8.233   0.504   8.552 -0.5015  2.2773 -1.6350
  890MOL0     H20147   8.229   0.366   8.424  1.8484 -2.0363  1.9184
  890MOL0     H20148   8.244   0.138   8.773 -1.7295 -1.5345 -2.6759
  890MOL0     H20149   7.623   0.695   8.432 -0.3536  0.7491 -4.6292
  890MOL0     H20150   7.405   0.726   8.380  3.9873  1.2643  0.1740
  891MOL0     O20151   8.824   1.514   3.501  0.4820 -0.1780  0.1770
  891MOL0     C20152   8.736   1.447   3.454  0.8525 -0.0724  0.2498
  891MOL0     O20153   8.657   1.364   3.524 -0.1954  0.3848 -0.0448
  891MOL0     C20154   8.676   1.355   3.661 -0.0754 -0.5006  0.0985
  891MOL0     C20155   8.803   1.332   3.729 -0.1009 -0.3856  0.0624
  891MOL0     C20156   8.795   1.296   3.863 -0.8748 -0.1042  0.2275
  891MOL0     C20157   8.677   1.286   3.933  0.5264 -0.1069  1.1464
  891MOL0     O20158   8.693   1.248   4.061  0.3490  0.3486  0.9541
  891MOL0     C20159   8.573   1.215   4.136 -0.7044 -0.5995  0.3659
  891MOL0     C20160   8.533   1.349   4.197 -0.2183  0.4226 -0.3075
  891MOL0     C20161   8.407   1.341   4.290  1.1528  0.3636 -0.3895
  891MOL0     C20162   8.396   1.473   4.376 -0.2061  0.3745  0.6401
  891MOL0     C20163   8.260   1.467   4.454 -0.6633 -0.1473 -0.3307
  891MOL0     C20164   8.183   1.597   4.443 -1.6054  0.8134 -0.1893
  891MOL0     C20165   8.042   1.581   4.505  0.2256  0.5837 -0.3012
  891MOL0     C20166   8.030   1.590   4.661 -0.3706 -0.1262 -0.2515
  891MOL0     N20167   7.889   1.550   4.689 -0.9161  0.0883  0.1182
  891MOL0     C20168   7.853   1.425   4.678  0.2356 -0.3176  0.3392
  891MOL0     C20169   7.722   1.424   4.708 -0.4799  0.0745 -0.0072
  891MOL0     C20170   7.619   1.317   4.708  0.7553 -0.0273  0.7674
  891MOL0     C20171   7.594   1.240   4.839 -0.3192 -0.4114 -0.3742
  891MOL0     C20172   7.470   1.161   4.833  0.9410  0.3480  0.8384
  891MOL0     C20173   7.433   1.116   4.976 -0.0567 -0.2390  0.0682
  891MOL0     O20174   7.316   1.035   4.978  0.5512  0.1099  0.3201
  891MOL0     C20175   7.267   1.000   5.102 -0.3990 -0.1860 -0.4025
  891MOL0     C20176   7.329   1.020   5.224 -0.4314  0.0414  0.1141
  891MOL0     C20177   7.264   0.999   5.344  0.1260 -0.4913 -1.2463
  891MOL0     C20178   7.342   1.033   5.474 -0.6056 -0.0772  0.8515
  891MOL0     C20179   7.139   0.946   5.342 -0.5657 -0.1381 -0.3193
  891MOL0     C20180   7.047   0.929   5.463 -0.6120  0.2791  0.3208
  891MOL0     O20181   6.913   0.935   5.433  0.4402  0.1418 -0.1943
  891MOL0     C20182   6.819   0.908   5.525 -0.3880 -0.0320  0.9503
  891MOL0     C20183   6.710   0.830   5.480 -0.1474 -0.5487 -0.3867
  891MOL0     C20184   6.612   0.797   5.571  0.4400  0.4225  0.1819
  891MOL0     C20185   6.610   0.854   5.697 -0.5341  0.2284 -0.4149
  891MOL0     O20186   6.495   0.826   5.776  0.1815  0.2042 -0.5297
  891MOL0     C20187   6.485   0.911   5.887 -0.5555 -0.5002  0.1697
  891MOL0     C20188   6.354   0.906   5.961  0.6276  0.3846  0.3920
  891MOL0     C20189   6.329   1.025   6.052  0.6438 -0.0965  0.7624
  891MOL0     C20190   6.195   1.006   6.125 -0.5679 -1.0634 -0.3174
  891MOL0     C20191   6.069   1.024   6.046 -0.0795  0.2608  0.3218
  891MOL0     C20192   6.029   1.168   6.003 -0.3719  0.7298  0.7779
  891MOL0     C20193   5.882   1.163   5.997  0.0017 -0.4308  0.4262
  891MOL0     C20194   5.834   1.293   5.927 -0.6150 -0.9520  0.7777
  891MOL0    Cl20195   5.658   1.283   5.899  0.2879  0.5224  0.4665
  891MOL0     C20196   6.718   0.935   5.740 -0.3155  0.4353 -0.1798
  891MOL0     C20197   6.815   0.971   5.649  0.7221 -0.3472 -0.5121
  891MOL0     O20198   7.093   0.923   5.578 -0.1960 -0.6245  0.1247
  891MOL0     C20199   7.076   0.903   5.222  0.0983 -0.9854  0.5755
  891MOL0     C20200   7.146   0.930   5.104  0.6194 -0.2829 -0.6263
  891MOL0     N20201   7.684   1.551   4.739  0.0985  0.2022  0.0263
  891MOL0     N20202   7.787   1.627   4.733  0.3916  0.3473  1.4903
  891MOL0     C20203   8.550   1.308   3.867 -0.4191 -0.5194 -0.2955
  891MOL0     C20204   8.550   1.337   3.734 -0.0331 -0.5362  0.1876
  891MOL0     C20205   8.715   1.447   3.304 -0.0751 -0.7020 -0.5684
  891MOL0     C20206   8.595   1.400   3.254  0.2808  0.5791  0.1401
  891MOL0     C20207   8.577   1.413   3.117 -0.1786  0.2368  0.2235
  891MOL0     C20208   8.677   1.448   3.033 -1.1096 -0.6368  0.3466
  891MOL0     O20209   8.645   1.433   2.894 -0.4870  0.0934 -0.1672
  891MOL0     C20210   8.711   1.504   2.788  0.1291  0.3246  0.3751
  891MOL0     C20211   8.655   1.452   2.643 -0.1783 -0.6131 -1.1107
  891MOL0     C20212   8.762   1.489   2.541 -1.0398 -0.2173  0.6830
  891MOL0     C20213   8.875   1.387   2.541  0.2454  0.5662  0.2920
  891MOL0     C20214   8.963   1.436   2.435  0.2176 -1.3281 -0.2697
  891MOL0     C20215   9.043   1.505   2.374  0.2241 -0.1581 -0.1771
  891MOL0     C20216   8.799   1.515   3.090 -0.2796  0.1748 -0.7321
  891MOL0     C20217   8.821   1.516   3.230 -0.9521  0.4052  0.4526
  891MOL0     H20218   8.893   1.312   3.671 -0.0315 -3.3334  1.0164
  891MOL0     H20219   8.892   1.267   3.900 -1.2112 -3.1608 -0.9758
  891MOL0     H20220   8.499   1.168   4.072 -0.6388  1.2942 -1.1997
  891MOL0     H20221   8.605   1.148   4.217  3.5559 -2.4310 -2.5108
  891MOL0     H20222   8.609   1.382   4.268 -0.4834  1.0105 -0.2941
  891MOL0     H20223   8.513   1.423   4.119 -1.3194  0.1651 -0.2907
  891MOL0     H20224   8.318   1.336   4.228  1.3465  0.3765 -0.6705
  891MOL0     H20225   8.408   1.252   4.353 -0.5553 -0.4227 -1.4205
  891MOL0     H20226   8.481   1.476   4.444 -1.3761 -0.0979  2.1918
  891MOL0     H20227   8.407   1.548   4.298  1.8285 -0.8170 -0.2889
  891MOL0     H20228   8.194   1.392   4.410 -3.4516  1.9716  0.0006
  891MOL0     H20229   8.283   1.435   4.557 -1.4122 -1.4311 -0.5461
  891MOL0     H20230   8.236   1.678   4.494 -0.1870  1.1274 -2.0694
  891MOL0     H20231   8.181   1.624   4.337  1.0022  2.9073  0.1861
  891MOL0     H20232   7.969   1.654   4.471 -2.0023 -1.0698  0.6469
  891MOL0     H20233   8.000   1.486   4.469 -0.1522  0.7775 -0.3663
  891MOL0     H20234   8.059   1.687   4.702  4.5982 -1.2301 -0.5848
  891MOL0     H20235   8.098   1.517   4.706  0.4435  0.3468 -0.6879
  891MOL0     H20236   7.900   1.343   4.624 -0.6988  0.2889 -1.4964
  891MOL0     H20237   7.526   1.357   4.666  1.3576  0.6136 -0.0125
  891MOL0     H20238   7.649   1.245   4.631  0.5209  1.5683 -0.9034
  891MOL0     H20239   7.585   1.316   4.918  2.2331  1.7430 -1.9926
  891MOL0     H20240   7.674   1.178   4.879 -0.1274  1.5547  2.6697
  891MOL0     H20241   7.490   1.072   4.773 -1.7806 -0.8810  1.5719
  891MOL0     H20242   7.387   1.210   4.781  1.0141 -1.6663 -1.3646
  891MOL0     H20243   7.403   1.200   5.040  0.7519 -1.0446  1.5800
  891MOL0     H20244   7.517   1.065   5.024 -0.0811  0.4160  0.8363
  891MOL0     H20245   7.427   1.068   5.229 -1.4864  2.2415  0.8001
  891MOL0     H20246   7.329   0.953   5.547  0.1998  1.2939  2.5805
  891MOL0     H20247   7.449   1.049   5.456 -0.3974 -0.6381  1.5239
  891MOL0     H20248   7.304   1.126   5.516  1.0945 -0.0186  2.4061
  891MOL0     H20249   6.698   0.796   5.377 -3.6337 -1.2885  0.1397
  891MOL0     H20250   6.544   0.720   5.535  0.1849 -0.3538  2.1813
  891MOL0     H20251   6.562   0.896   5.963  0.3837  1.4759 -0.3534
  891MOL0     H20252   6.486   1.012   5.846  0.6221 -0.2236  0.8327
  891MOL0     H20253   6.265   0.901   5.898  0.5575 -1.2723  0.5639
  891MOL0     H20254   6.366   0.816   6.022 -2.6412  0.5400  1.4687
  891MOL0     H20255   6.327   1.117   5.992  0.9635 -1.2071 -1.0372
  891MOL0     H20256   6.414   1.038   6.119  0.5454 -0.9370  1.0641
  891MOL0     H20257   6.191   0.901   6.154 -3.6384 -1.0762 -0.4396
  891MOL0     H20258   6.203   1.074   6.210  2.3989 -1.2505 -0.3454
  891MOL0     H20259   5.993   0.976   6.108  0.3967  0.8742  1.4026
  891MOL0     H20260   6.073   0.963   5.955  1.2302  0.3327  0.3071
  891MOL0     H20261   6.052   1.238   6.084  0.2776 -1.3599  2.5077
  891MOL0     H20262   6.065   1.203   5.906 -2.5742  1.3786  0.1349
  891MOL0     H20263   5.843   1.170   6.099  1.0628  0.7861  0.7772
  891MOL0     H20264   5.853   1.071   5.946  4.0596 -1.0825 -1.1174
  891MOL0     H20265   5.869   1.294   5.824 -2.2458  2.3578  0.1048
  891MOL0     H20266   5.865   1.384   5.980  0.7458 -1.2237  0.4837
  891MOL0     H20267   6.723   0.970   5.842 -1.5819 -3.2629  1.3167
  891MOL0     H20268   6.880   1.045   5.695 -1.8503  1.1826  0.9006
  891MOL0     H20269   6.975   0.863   5.218  0.0326 -0.7628 -0.1645
  891MOL0     H20270   7.104   0.891   5.012  1.3858 -1.9035 -0.3204
  891MOL0     H20271   8.459   1.291   3.923 -0.9469  3.9346  0.5492
  891MOL0     H20272   8.465   1.358   3.669  1.5147  2.6625 -1.0630
  891MOL0     H20273   8.526   1.356   3.326 -0.9994 -0.0328 -1.3890
  891MOL0     H20274   8.489   1.372   3.068  1.2952 -1.3207 -1.2480
  891MOL0     H20275   8.692   1.612   2.788  0.7943  0.4509 -0.5570
  891MOL0     H20276   8.818   1.484   2.790  0.0777 -0.1048 -0.8268
  891MOL0     H20277   8.556   1.489   2.616 -0.1581  0.1207 -0.2317
  891MOL0     H20278   8.649   1.343   2.643  0.1714 -0.6700 -2.7521
  891MOL0     H20279   8.799   1.591   2.555  1.0566 -0.5569 -1.6898
  891MOL0     H20280   8.718   1.488   2.441 -1.0696  0.4618  0.6807
  891MOL0     H20281   8.841   1.284   2.529  2.3107 -0.4561  2.3333
  891MOL0     H20282   8.930   1.382   2.636 -0.8563  1.7396  1.0207
  891MOL0     H20283   9.124   1.560   2.329 -0.5868  0.8994 -0.3950
  891MOL0     H20284   8.870   1.560   3.021 -1.2255  0.2071 -1.7221
  891MOL0     H20285   8.911   1.559   3.271 -0.2208  1.1822 -1.8002
  892MOL0     O20286   1.745   1.507   7.438  0.1669  0.1481  0.2272
  892MOL0     C20287   1.854   1.446   7.428  0.8768  0.7930 -0.8130
  892MOL0     O20288   1.884   1.346   7.337 -0.3279  0.4008 -0.5052
  892MOL0     C20289   1.798   1.351   7.222  0.7762 -0.0967  0.2565
  892MOL0     C20290   1.742   1.233   7.172 -0.0830 -0.6947 -0.3675
  892MOL0     C20291   1.691   1.234   7.039 -0.8871  0.2917  0.2739
  892MOL0     C20292   1.672   1.355   6.966 -0.4638 -0.2422 -0.3213
  892MOL0     O20293   1.592   1.362   6.858 -0.6252  0.6018  0.6787
  892MOL0     C20294   1.633   1.465   6.762 -1.0815 -0.0471 -0.2804
  892MOL0     C20295   1.555   1.448   6.632 -0.3419 -0.3191 -0.0456
  892MOL0     C20296   1.596   1.547   6.513  0.5161  0.5486 -0.1986
  892MOL0     C20297   1.524   1.526   6.385  0.1049  0.7714  0.6828
  892MOL0     C20298   1.582   1.607   6.278  0.2664  0.0196  0.2918
  892MOL0     C20299   1.541   1.546   6.144 -0.0893 -0.3067  0.1546
  892MOL0     C20300   1.411   1.571   6.085  0.0777 -0.1988  1.1920
  892MOL0     C20301   1.303   1.490   6.158  0.0854 -0.1664 -0.2652
  892MOL0     N20302   1.180   1.491   6.078 -0.2950 -0.3289 -0.4617
  892MOL0     C20303   1.153   1.438   5.955 -0.1709  0.5443 -0.8927
  892MOL0     C20304   1.033   1.485   5.921 -0.3365 -0.2038  0.0289
  892MOL0     C20305   0.955   1.442   5.798 -0.7826  0.0053 -0.2484
  892MOL0     C20306   0.907   1.293   5.792 -0.7246  0.1014  0.9287
  892MOL0     C20307   0.828   1.266   5.917 -0.4765  1.2879  0.2262
  892MOL0     C20308   0.712   1.173   5.888 -0.1439  0.1784  0.0713
  892MOL0     O20309   0.633   1.201   5.767 -0.4636  0.5248 -0.3302
  892MOL0     C20310   0.552   1.106   5.705  1.0519 -0.0188 -0.0013
  892MOL0     C20311   0.502   1.130   5.577  0.1438  0.1140 -0.1511
  892MOL0     C20312   0.420   1.044   5.513  0.6112  0.6434  1.3095
  892MOL0     C20313   0.386   1.085   5.362 -0.3836 -0.3066 -0.1281
  892MOL0     C20314   0.377   0.919   5.576  0.5474 -0.2840  0.3769
  892MOL0     C20315   0.286   0.821   5.521 -0.6759 -0.1597 -0.1678
  892MOL0     O20316   0.219   0.753   5.615 -0.3616  0.2981 -0.3173
  892MOL0     C20317   0.096   0.697   5.579 -1.7299 -0.0381 -0.3771
  892MOL0     C20318   0.090   0.574   5.514  0.4239 -1.1770 -0.3186
  892MOL0     C20319  -0.037   0.518   5.476 -0.0776  0.7727  0.0639
  892MOL0     C20320  -0.156   0.585   5.519 -0.1202 -0.3959  0.7039
  892MOL0     O20321  -0.274   0.521   5.498 -0.2091  0.5473 -0.0394
  892MOL0     C20322  -0.296   0.460   5.369 -0.1060 -0.4413  0.6460
  892MOL0     C20323  -0.446   0.460   5.351 -0.2850 -0.2187 -0.0022
  892MOL0     C20324  -0.524   0.393   5.456 -0.1061 -0.0940  0.4820
  892MOL0     C20325  -0.669   0.413   5.409 -0.7575 -0.8009 -0.4934
  892MOL0     C20326  -0.774   0.360   5.515 -0.1516  0.4443 -0.3056
  892MOL0     C20327  -0.912   0.404   5.477  0.8764  0.3595  0.2051
  892MOL0     C20328  -0.988   0.370   5.603 -0.0828 -0.0008 -0.6706
  892MOL0     C20329  -1.120   0.448   5.597  0.1845  0.2435 -0.0623
  892MOL0    Cl20330  -1.220   0.401   5.742 -0.3864 -0.0366  0.2174
  892MOL0     C20331  -0.145   0.701   5.587  0.1766 -0.1888 -0.2576
  892MOL0     C20332  -0.018   0.754   5.618 -0.5722  0.5509 -0.1931
  892MOL0     O20333   0.276   0.802   5.398  0.1918  0.6015 -0.4928
  892MOL0     C20334   0.434   0.893   5.696  0.3383 -0.1389 -0.1561
  892MOL0     C20335   0.516   0.986   5.761  0.1519  0.0753  0.8632
  892MOL0     N20336   0.989   1.578   6.012 -0.2540 -0.7483  0.2554
  892MOL0     N20337   1.075   1.578   6.101 -0.4119 -0.9456 -0.2613
  892MOL0     C20338   1.725   1.471   7.019  0.0410  0.0983  0.0164
  892MOL0     C20339   1.789   1.459   7.142 -0.1151 -0.7588  0.8079
  892MOL0     C20340   1.974   1.499   7.509  0.1130  0.0285  0.0948
  892MOL0     C20341   2.090   1.427   7.508 -0.5229 -0.0109 -1.0081
  892MOL0     C20342   2.204   1.469   7.581 -0.4339 -0.5948  0.8024
  892MOL0     C20343   2.207   1.588   7.657 -0.0494 -0.4051  0.5498
  892MOL0     O20344   2.319   1.609   7.735 -0.4202  0.0802  0.1721
  892MOL0     C20345   2.359   1.735   7.788  0.3860  0.7908  0.7228
  892MOL0     C20346   2.329   1.759   7.941 -0.2912 -0.5482 -0.9149
  892MOL0     C20347   2.366   1.642   8.033 -0.4168 -0.0671  0.0521
  892MOL0     C20348   2.353   1.691   8.178  0.2328 -0.4393 -0.5429
  892MOL0     C20349   2.461   1.785   8.214 -0.1615 -0.6528 -0.5936
  892MOL0     C20350   2.549   1.870   8.229  0.4597 -0.3006 -0.5137
  892MOL0     C20351   2.079   1.658   7.669 -0.0194  0.5607 -0.1954
  892MOL0     C20352   1.970   1.620   7.581 -0.6405  0.5076 -0.1247
  892MOL0     H20353   1.765   1.147   7.233 -0.9019 -0.2804  0.5418
  892MOL0     H20354   1.651   1.140   7.002 -1.0856  1.5499 -3.0322
  892MOL0     H20355   1.601   1.564   6.794 -0.6854  0.2671 -0.8456
  892MOL0     H20356   1.742   1.472   6.751 -0.8245 -1.4017  0.9475
  892MOL0     H20357   1.564   1.344   6.598 -3.2733 -0.6706 -0.0591
  892MOL0     H20358   1.449   1.472   6.645 -0.2642  2.6190 -3.3835
  892MOL0     H20359   1.587   1.648   6.552 -1.6696 -1.2548  4.8235
  892MOL0     H20360   1.703   1.530   6.499  0.7000  0.1712  1.4950
  892MOL0     H20361   1.535   1.420   6.363 -0.5446  0.6469  0.9406
  892MOL0     H20362   1.415   1.536   6.390  0.1494  1.1185  1.0327
  892MOL0     H20363   1.544   1.710   6.274  4.3688  1.6873 -2.6046
  892MOL0     H20364   1.691   1.608   6.283  0.5066  0.5403 -2.8991
  892MOL0     H20365   1.607   1.611   6.086 -0.2073 -1.0407 -0.8212
  892MOL0     H20366   1.570   1.441   6.146 -0.1084 -0.3676 -1.5404
  892MOL0     H20367   1.373   1.673   6.078 -0.6729 -0.3567  2.5698
  892MOL0     H20368   1.426   1.540   5.981  1.0866  0.7882  1.0387
  892MOL0     H20369   1.268   1.525   6.255  1.7646  0.3515  0.1895
  892MOL0     H20370   1.344   1.389   6.167  1.4056  0.5072  2.4089
  892MOL0     H20371   1.216   1.356   5.922  0.2145  0.6658 -0.4773
  892MOL0     H20372   0.870   1.509   5.781 -3.1730 -3.2816 -2.6159
  892MOL0     H20373   1.021   1.468   5.714  2.3090  3.9103  2.9788
  892MOL0     H20374   0.984   1.223   5.759  1.4976  1.6338  2.5176
  892MOL0     H20375   0.837   1.284   5.708 -1.8617  0.4488  1.8131
  892MOL0     H20376   0.794   1.356   5.968 -1.0820  1.9736 -1.3279
  892MOL0     H20377   0.893   1.214   5.988  1.5995 -2.0632 -3.6398
  892MOL0     H20378   0.644   1.169   5.974  2.6059 -0.4172  2.4048
  892MOL0     H20379   0.752   1.071   5.887  1.0554  0.6101  1.1142
  892MOL0     H20380   0.557   1.212   5.532  3.9304 -0.0909  3.4944
  892MOL0     H20381   0.372   1.004   5.290  2.3369  2.0634 -3.6626
  892MOL0     H20382   0.288   1.134   5.360 -1.5671 -2.2747  2.4745
  892MOL0     H20383   0.464   1.149   5.322 -2.0417  1.1536 -1.1967
  892MOL0     H20384   0.185   0.534   5.479  1.2355  1.0105 -0.7398
  892MOL0     H20385  -0.043   0.417   5.438 -0.7315  0.4079  1.1177
  892MOL0     H20386  -0.250   0.515   5.287 -1.7374  1.3978  0.8790
  892MOL0     H20387  -0.249   0.361   5.374  2.5588  0.5656 -1.9503
  892MOL0     H20388  -0.477   0.563   5.331 -1.0621 -0.4911 -0.2365
  892MOL0     H20389  -0.465   0.404   5.259  1.9454 -0.9105 -0.1193
  892MOL0     H20390  -0.501   0.445   5.549  1.7042 -0.7316  0.4181
  892MOL0     H20391  -0.502   0.286   5.457 -0.5383 -0.2864 -2.1280
  892MOL0     H20392  -0.681   0.519   5.384  0.8048 -0.6177 -0.5217
  892MOL0     H20393  -0.686   0.358   5.317  2.5720 -1.0774 -1.0630
  892MOL0     H20394  -0.746   0.406   5.610  1.2610 -0.9749  0.0119
  892MOL0     H20395  -0.774   0.251   5.527 -3.3012  0.2312 -1.3235
  892MOL0     H20396  -0.918   0.512   5.457  1.1637  0.1524 -1.0902
  892MOL0     H20397  -0.949   0.348   5.391  1.9132 -2.0668  1.2648
  892MOL0     H20398  -0.936   0.380   5.699  0.7024  1.8247 -1.2339
  892MOL0     H20399  -1.003   0.262   5.592 -0.7501  0.2221 -2.1488
  892MOL0     H20400  -1.181   0.420   5.511 -1.3548  2.9318  0.0642
  892MOL0     H20401  -1.103   0.556   5.586  0.5711  0.1247 -0.6903
  892MOL0     H20402  -0.239   0.742   5.622  0.4620  1.2756 -1.1350
  892MOL0     H20403  -0.024   0.850   5.667 -1.5447 -0.3196  1.4763
  892MOL0     H20404   0.418   0.798   5.746 -0.3379 -0.6098 -1.2339
  892MOL0     H20405   0.564   0.948   5.851  2.7035 -2.3656 -1.3303
  892MOL0     H20406   1.716   1.563   6.962 -2.0087 -0.0802 -0.0058
  892MOL0     H20407   1.842   1.546   7.178 -0.2498 -0.8361  1.1915
  892MOL0     H20408   2.084   1.332   7.456 -1.1825 -0.7593  0.3659
  892MOL0     H20409   2.289   1.404   7.598  0.4921  0.4955  0.4994
  892MOL0     H20410   2.466   1.738   7.762  0.3123  2.1097  0.5002
  892MOL0     H20411   2.313   1.822   7.741  0.9022  0.4881 -0.3668
  892MOL0     H20412   2.220   1.765   7.956 -0.1919  1.3491 -0.7983
  892MOL0     H20413   2.377   1.851   7.974 -1.6363 -0.3343  0.5658
  892MOL0     H20414   2.461   1.591   8.015 -0.0487  1.0991 -1.5561
  892MOL0     H20415   2.297   1.562   8.004  0.8010 -1.6090  1.2432
  892MOL0     H20416   2.354   1.607   8.248 -2.8355  0.5187  0.8432
  892MOL0     H20417   2.262   1.747   8.200 -1.0092 -1.4853 -2.7198
  892MOL0     H20418   2.627   1.943   8.231  0.9606 -0.7566  3.6875
  892MOL0     H20419   2.076   1.742   7.737 -0.9999 -0.3013  0.8620
  892MOL0     H20420   1.873   1.668   7.572 -2.4492 -2.9137 -0.5830
  893MOL0     O20421   8.702   3.455   9.567 -0.1813 -0.5014  0.4392
  893MOL0     C20422   8.696   3.570   9.602  0.1154  0.4509  0.0447
  893MOL0     O20423   8.581   3.643   9.594  0.3056 -0.8378 -0.8019
  893MOL0     C20424   8.468   3.580   9.560 -0.0019 -0.3027  1.2982
  893MOL0     C20425   8.431   3.562   9.421  0.2393  0.2941 -0.5972
  893MOL0     C20426   8.303   3.509   9.386 -1.0689  0.6767 -0.3350
  893MOL0     C20427   8.207   3.474   9.485 -0.3499 -0.6193  0.2560
  893MOL0     O20428   8.078   3.449   9.436  0.6985 -0.4142  0.7469
  893MOL0     C20429   7.979   3.400   9.521  0.3955  0.1798 -0.5962
  893MOL0     C20430   7.889   3.497   9.599 -0.2474  0.2593 -0.0465
  893MOL0     C20431   7.777   3.422   9.665 -0.1961 -0.2952 -0.4439
  893MOL0     C20432   7.680   3.500   9.751  0.8307  0.0997 -0.3861
  893MOL0     C20433   7.736   3.538   9.889 -0.2151  0.5919 -0.0456
  893MOL0     C20434   7.645   3.623   9.984  0.2755  0.3044  0.3020
  893MOL0     C20435   7.700   3.624  10.130 -0.5085 -0.8388 -0.2768
  893MOL0     C20436   7.826   3.704  10.142 -0.8007  0.0593 -0.0102
  893MOL0     N20437   7.945   3.652  10.079 -0.4036  0.2425  0.9489
  893MOL0     C20438   8.008   3.538  10.125  0.5806 -1.3585  0.5787
  893MOL0     C20439   8.117   3.525  10.053 -0.4194 -0.6366 -0.4864
  893MOL0     C20440   8.209   3.399  10.053  0.4454 -0.7683  0.2015
  893MOL0     C20441   8.171   3.278   9.976  0.4419  0.4993 -0.4333
  893MOL0     C20442   8.036   3.229  10.014 -0.5901 -0.0199  0.2445
  893MOL0     C20443   8.009   3.082   9.979 -0.9509 -0.1717 -0.4137
  893MOL0     O20444   8.059   3.060   9.846  0.4542  0.0982 -0.1921
  893MOL0     C20445   8.097   2.934   9.806 -0.7531 -0.2870 -0.3823
  893MOL0     C20446   8.077   2.812   9.871 -0.4645  0.4424 -0.5802
  893MOL0     C20447   8.152   2.695   9.831  0.1445 -0.4522  0.9116
  893MOL0     C20448   8.104   2.573   9.902  0.2390  0.5304  0.7350
  893MOL0     C20449   8.246   2.707   9.726 -0.2268 -0.5068 -0.7186
  893MOL0     C20450   8.342   2.604   9.685 -0.1780 -0.3184  0.6273
  893MOL0     O20451   8.373   2.593   9.553 -0.8745 -0.0206 -0.1599
  893MOL0     C20452   8.497   2.535   9.497  0.2410  0.7770 -0.9269
  893MOL0     C20453   8.527   2.553   9.361  0.4854 -0.0808 -1.2209
  893MOL0     C20454   8.632   2.501   9.287 -0.5580 -0.3320 -0.7603
  893MOL0     C20455   8.726   2.425   9.355  0.1413 -0.3418  0.0100
  893MOL0     O20456   8.832   2.364   9.300  0.0922 -0.6409 -0.1010
  893MOL0     C20457   8.889   2.440   9.191 -0.6663  0.1158 -0.0431
  893MOL0     C20458   8.956   2.338   9.093  0.1816 -0.0333  0.3090
  893MOL0     C20459   9.078   2.392   9.019 -0.0371 -0.3292 -0.0590
  893MOL0     C20460   9.128   2.315   8.904 -0.3387  0.6195 -0.5975
  893MOL0     C20461   9.185   2.178   8.947  0.2939  0.3731 -0.4316
  893MOL0     C20462   9.231   2.099   8.826 -0.7747  0.3014 -0.4545
  893MOL0     C20463   9.345   2.157   8.740  1.0620  0.3808  0.3130
  893MOL0     C20464   9.474   2.160   8.818 -0.2967  0.1577 -0.7610
  893MOL0    Cl20465   9.525   2.007   8.880  0.0045  0.0549 -0.2109
  893MOL0     C20466   8.716   2.422   9.493  0.6555  0.7771  0.4889
  893MOL0     C20467   8.605   2.475   9.567  0.4042 -0.0438 -0.1371
  893MOL0     O20468   8.363   2.520   9.763 -0.1561 -0.1149  0.1408
  893MOL0     C20469   8.256   2.829   9.654 -0.7693  0.4172 -0.2604
  893MOL0     C20470   8.184   2.943   9.697 -0.5336  0.4904  0.7241
  893MOL0     N20471   8.120   3.626   9.955 -0.1980 -0.0383 -0.2956
  893MOL0     N20472   8.018   3.711   9.973  0.5826  0.7179 -0.1101
  893MOL0     C20473   8.246   3.488   9.621  0.8274  0.0372  1.0305
  893MOL0     C20474   8.369   3.551   9.657 -0.1848 -0.3251 -0.2194
  893MOL0     C20475   8.822   3.638   9.616 -0.7391  0.6079  0.1503
  893MOL0     C20476   8.951   3.577   9.610 -0.2243  0.1418  0.4805
  893MOL0     C20477   9.069   3.643   9.639 -0.4978  0.1013  1.1484
  893MOL0     C20478   9.064   3.775   9.679  0.3370 -0.6314  0.0004
  893MOL0     O20479   9.187   3.843   9.705 -0.1309 -0.5074  0.2808
  893MOL0     C20480   9.199   3.988   9.725  0.2342  0.3493 -0.1515
  893MOL0     C20481   9.142   4.036   9.861 -0.4592 -0.2781 -0.0896
  893MOL0     C20482   9.214   3.974   9.986 -0.5420  1.1000  0.1015
  893MOL0     C20483   9.188   4.047  10.112 -0.7714 -0.1257  1.0811
  893MOL0     C20484   9.258   4.177  10.123  0.2228  0.0943  0.1140
  893MOL0     C20485   9.314   4.282  10.126 -1.8920 -0.1854  0.1822
  893MOL0     C20486   8.942   3.836   9.673 -0.3269  0.1503  0.1431
  893MOL0     C20487   8.820   3.777   9.641  0.4618  0.5515 -0.8459
  893MOL0     H20488   8.489   3.604   9.339 -0.3202  0.6346 -0.8270
  893MOL0     H20489   8.269   3.508   9.283 -0.1907 -0.5375 -0.6357
  893MOL0     H20490   7.904   3.352   9.457  1.0732 -0.2275 -1.0957
  893MOL0     H20491   8.024   3.329   9.591 -0.9566 -1.0047 -0.8839
  893MOL0     H20492   7.940   3.556   9.676 -0.8727 -0.5373  1.0089
  893MOL0     H20493   7.859   3.565   9.519  3.1739  0.2698 -1.4928
  893MOL0     H20494   7.714   3.371   9.591 -1.1233  1.7801 -1.1377
  893MOL0     H20495   7.815   3.343   9.730 -0.1831  1.5826  1.9373
  893MOL0     H20496   7.648   3.593   9.702  3.3980  0.7065 -1.0621
  893MOL0     H20497   7.594   3.432   9.753  1.7084 -1.0185  0.9890
  893MOL0     H20498   7.774   3.454   9.948 -0.1321 -0.3014 -1.3310
  893MOL0     H20499   7.823   3.598   9.860  0.1685  0.8860  1.6234
  893MOL0     H20500   7.641   3.728   9.954  0.4624  0.7686  1.8480
  893MOL0     H20501   7.543   3.584   9.978 -0.5375  2.4615 -2.3636
  893MOL0     H20502   7.625   3.679  10.187 -1.0252  1.7210 -3.1377
  893MOL0     H20503   7.714   3.529  10.182  0.5386  0.1733  1.3864
  893MOL0     H20504   7.866   3.707  10.244 -3.9010  1.9992  1.3058
  893MOL0     H20505   7.813   3.804  10.098 -0.7093  0.2557  0.4082
  893MOL0     H20506   7.977   3.467  10.201 -0.4101  0.2632  1.7595
  893MOL0     H20507   8.306   3.432  10.016 -0.6589  0.1160 -2.0399
  893MOL0     H20508   8.225   3.363  10.155 -2.0142 -3.2645 -0.1383
  893MOL0     H20509   8.242   3.197   9.995  0.5330  0.8117  0.6439
  893MOL0     H20510   8.174   3.300   9.869 -1.7254 -1.4355 -0.9628
  893MOL0     H20511   7.969   3.297   9.961  0.0705  0.2231 -0.2880
  893MOL0     H20512   8.004   3.243  10.118  1.1017 -0.8610  0.9051
  893MOL0     H20513   7.905   3.053   9.996 -1.5276  1.9333 -0.0079
  893MOL0     H20514   8.074   3.016  10.037  1.3373  1.4714 -0.9793
  893MOL0     H20515   7.997   2.793   9.941 -1.1229 -0.4518 -1.5331
  893MOL0     H20516   8.103   2.578  10.011 -2.1620 -0.4432  0.8202
  893MOL0     H20517   7.998   2.552   9.881  0.2667  0.3905  0.7307
  893MOL0     H20518   8.153   2.482   9.865 -1.1627 -0.4863  1.2860
  893MOL0     H20519   8.458   2.616   9.304  0.5237 -0.4044 -1.6296
  893MOL0     H20520   8.637   2.522   9.181  2.2591 -1.4171 -0.9178
  893MOL0     H20521   8.820   2.497   9.128 -0.9832 -0.3114 -0.0893
  893MOL0     H20522   8.969   2.509   9.218 -0.2550  0.7572 -2.6136
  893MOL0     H20523   8.990   2.254   9.156  0.5356  0.2816  0.5459
  893MOL0     H20524   8.876   2.299   9.030 -0.8840  0.3031  1.4022
  893MOL0     H20525   9.157   2.380   9.095  1.2535  0.3328 -1.2505
  893MOL0     H20526   9.069   2.497   8.991 -0.8805 -0.5245 -0.5326
  893MOL0     H20527   9.042   2.284   8.843 -2.7458 -0.3407  2.9701
  893MOL0     H20528   9.197   2.379   8.848 -1.5020 -0.5904 -3.6903
  893MOL0     H20529   9.111   2.121   9.004  1.3536 -0.8516 -0.2365
  893MOL0     H20530   9.267   2.189   9.019 -0.4103  1.1287  0.2889
  893MOL0     H20531   9.257   2.001   8.865  1.7212  0.4928 -1.4946
  893MOL0     H20532   9.144   2.095   8.759 -0.0563  0.9091 -1.4621
  893MOL0     H20533   9.331   2.252   8.688 -1.9215 -1.2546 -2.2187
  893MOL0     H20534   9.368   2.092   8.654  1.9109  2.5912 -1.2229
  893MOL0     H20535   9.461   2.230   8.901  0.5417 -0.5095 -0.0452
  893MOL0     H20536   9.551   2.199   8.750 -1.0666 -0.5789 -2.0703
  893MOL0     H20537   8.789   2.366   9.550 -0.3560  1.9389  3.0935
  893MOL0     H20538   8.599   2.446   9.672  1.1983 -1.5292 -0.4756
  893MOL0     H20539   8.331   2.849   9.578 -0.3431 -0.0941  0.0096
  893MOL0     H20540   8.211   3.030   9.638  0.5856 -2.2954 -3.3816
  893MOL0     H20541   8.185   3.468   9.708 -1.1474  0.4266 -0.1902
  893MOL0     H20542   8.395   3.565   9.761  0.7090  1.1593 -0.6222
  893MOL0     H20543   8.973   3.473   9.591  2.6430  0.9660 -1.3170
  893MOL0     H20544   9.165   3.592   9.633 -0.0005  1.0879  0.2887
  893MOL0     H20545   9.301   4.022   9.704 -1.0779  2.9525 -3.1630
  893MOL0     H20546   9.155   4.053   9.650  0.7353 -1.4836 -2.1563
  893MOL0     H20547   9.036   4.015   9.874 -0.5986  1.3444  1.7678
  893MOL0     H20548   9.155   4.145   9.860  1.6787 -0.4241 -3.0029
  893MOL0     H20549   9.321   3.975   9.963 -0.2961 -1.1490  0.9482
  893MOL0     H20550   9.169   3.875   9.990  0.7967  0.4232 -0.8762
  893MOL0     H20551   9.218   3.992  10.202  0.4673 -0.3873  0.5297
  893MOL0     H20552   9.080   4.065  10.116 -0.4780  1.8469  1.2793
  893MOL0     H20553   9.361   4.377  10.140 -1.7512 -0.4199  1.3757
  893MOL0     H20554   8.933   3.944   9.684  2.5962  0.6709 -1.5106
  893MOL0     H20555   8.722   3.824   9.645 -0.6223 -1.3037 -2.9221
  894MOL0     O20556   1.024   0.524   0.719 -0.2419 -0.7878  0.5095
  894MOL0     C20557   1.050   0.431   0.645 -0.4943 -0.4076 -0.3655
  894MOL0     O20558   1.132   0.439   0.536  0.1276 -0.3451  0.2775
  894MOL0     C20559   1.208   0.551   0.499  0.3547  0.0336  1.0656
  894MOL0     C20560   1.273   0.540   0.376  0.6676  0.2130  0.4696
  894MOL0     C20561   1.348   0.651   0.325  0.0380  0.0494  0.5069
  894MOL0     C20562   1.360   0.776   0.393  1.0407  0.1612  0.6365
  894MOL0     O20563   1.434   0.884   0.335  0.2915  0.3460  0.3716
  894MOL0     C20564   1.495   0.880   0.204  0.6711 -0.4584 -0.0172
  894MOL0     C20565   1.537   1.016   0.165  0.6408  0.1134 -0.7809
  894MOL0     C20566   1.412   1.110   0.144 -0.2377 -0.9007 -0.6277
  894MOL0     C20567   1.445   1.243   0.079  0.7313 -0.6826  1.1766
  894MOL0     C20568   1.518   1.329   0.174 -0.4053 -0.7959  0.5914
  894MOL0     C20569   1.568   1.457   0.100 -0.1770 -0.2038 -0.4210
  894MOL0     C20570   1.448   1.557   0.075 -0.2294  0.9848  0.1231
  894MOL0     C20571   1.474   1.625  -0.055 -0.6063 -0.0717  0.5571
  894MOL0     N20572   1.363   1.723  -0.070  1.0181 -0.0796  0.3437
  894MOL0     C20573   1.358   1.845  -0.008  0.5411 -0.3416 -0.3125
  894MOL0     C20574   1.252   1.902  -0.058  0.3238 -0.8489  0.2007
  894MOL0     C20575   1.187   2.034  -0.027  0.6000  0.7941 -0.2090
  894MOL0     C20576   1.034   2.014  -0.012  0.1497 -0.0720 -0.4326
  894MOL0     C20577   0.976   1.903   0.079 -0.0162 -0.2739 -0.1848
  894MOL0     C20578   0.839   1.922   0.151 -1.0802 -0.4580 -0.4381
  894MOL0     O20579   0.817   1.805   0.238  0.2282 -0.4913 -0.1972
  894MOL0     C20580   0.730   1.804   0.339  1.0032 -0.5370 -0.8954
  894MOL0     C20581   0.700   1.680   0.404 -0.1165 -0.7333 -1.0844
  894MOL0     C20582   0.577   1.650   0.471  0.6467 -1.0151  0.1346
  894MOL0     C20583   0.556   1.510   0.514 -0.7468  0.8193 -0.4956
  894MOL0     C20584   0.478   1.756   0.475 -0.5348  0.0155 -0.3017
  894MOL0     C20585   0.343   1.735   0.528 -0.1524 -0.5962  0.0659
  894MOL0     O20586   0.257   1.837   0.504 -0.2928  0.3284  0.0851
  894MOL0     C20587   0.123   1.814   0.541 -0.0535 -0.3777 -0.3258
  894MOL0     C20588   0.026   1.830   0.443 -0.2062  0.5241 -0.4168
  894MOL0     C20589  -0.112   1.810   0.478  0.3206  0.0608  0.2420
  894MOL0     C20590  -0.150   1.790   0.613  0.4614  0.4798 -0.3574
  894MOL0     O20591  -0.284   1.783   0.641 -0.5246 -0.4096 -0.1130
  894MOL0     C20592  -0.332   1.651   0.683 -0.1378 -0.1947  0.2581
  894MOL0     C20593  -0.475   1.693   0.723  0.6778  0.5325  0.0077
  894MOL0     C20594  -0.538   1.582   0.797  0.2492  0.2771  0.0708
  894MOL0     C20595  -0.668   1.640   0.850  0.5549 -0.1415  0.3582
  894MOL0     C20596  -0.758   1.528   0.922 -0.0649  0.3285  0.2393
  894MOL0     C20597  -0.897   1.573   0.964 -0.4216 -0.0343 -0.1242
  894MOL0     C20598  -0.892   1.664   1.092 -0.8661 -0.9366  0.0423
  894MOL0     C20599  -1.024   1.715   1.144  0.0244 -0.7481 -0.8566
  894MOL0    Cl20600  -1.151   1.585   1.167  0.1298 -0.1078 -0.2123
  894MOL0     C20601  -0.054   1.779   0.715  0.2164 -0.1159 -0.0720
  894MOL0     C20602   0.083   1.792   0.684 -1.0478  0.4928  0.6799
  894MOL0     O20603   0.319   1.637   0.598 -0.6164 -0.1236 -0.0758
  894MOL0     C20604   0.519   1.882   0.418 -0.4645 -0.1187 -0.7627
  894MOL0     C20605   0.635   1.903   0.347  0.2548 -0.2836 -0.0730
  894MOL0     N20606   1.196   1.821  -0.159  0.3410 -0.1775 -0.4774
  894MOL0     N20607   1.268   1.719  -0.173 -0.4593 -0.1475 -0.2536
  894MOL0     C20608   1.287   0.788   0.517 -0.4919 -0.3500  0.7521
  894MOL0     C20609   1.216   0.676   0.572  0.2682  0.0378 -0.0433
  894MOL0     C20610   0.981   0.303   0.659 -0.5244  0.1295  0.0760
  894MOL0     C20611   0.878   0.280   0.758  0.3646  0.3205  0.1715
  894MOL0     C20612   0.814   0.161   0.769 -0.3097 -0.8935  0.2224
  894MOL0     C20613   0.844   0.060   0.691 -0.8324 -0.7224 -0.4074
  894MOL0     O20614   0.758  -0.049   0.704  0.3873  0.1695 -0.1936
  894MOL0     C20615   0.776  -0.168   0.618  0.3107 -1.0951  0.0228
  894MOL0     C20616   0.636  -0.240   0.618  0.1807  0.7527  0.4396
  894MOL0     C20617   0.538  -0.152   0.546  1.0725  0.2855  0.1806
  894MOL0     C20618   0.385  -0.178   0.573  0.6372 -0.4425  0.5890
  894MOL0     C20619   0.344  -0.315   0.559  0.3146  0.4641 -1.1180
  894MOL0     C20620   0.301  -0.428   0.549  0.4017  0.1156  0.4034
  894MOL0     C20621   0.945   0.070   0.589  0.1928  0.2410 -0.3895
  894MOL0     C20622   1.011   0.190   0.573  0.6107 -0.0537  0.5504
  894MOL0     H20623   1.272   0.451   0.314 -0.3384  0.2769  0.3733
  894MOL0     H20624   1.408   0.640   0.235 -0.6117 -0.9849  0.1882
  894MOL0     H20625   1.587   0.820   0.207  1.1661  0.1734 -1.6245
  894MOL0     H20626   1.420   0.835   0.138 -0.3435  1.4045 -0.1971
  894MOL0     H20627   1.596   1.059   0.246  0.5828  1.7329 -1.5543
  894MOL0     H20628   1.606   1.016   0.079  0.2005  1.8351 -1.1805
  894MOL0     H20629   1.339   1.049   0.091 -0.2416 -1.1610 -0.3274
  894MOL0     H20630   1.371   1.133   0.243  0.8653 -2.2520  0.1842
  894MOL0     H20631   1.499   1.229  -0.015 -0.8759  1.2194 -0.1217
  894MOL0     H20632   1.351   1.291   0.051  0.5299 -1.2374  0.8725
  894MOL0     H20633   1.471   1.343   0.271 -2.5239 -3.1112 -0.0077
  894MOL0     H20634   1.612   1.277   0.195  1.2562  1.7155 -0.1388
  894MOL0     H20635   1.642   1.510   0.160  0.4718 -0.1231 -1.2612
  894MOL0     H20636   1.620   1.438   0.005  0.1044  0.2254 -0.3533
  894MOL0     H20637   1.360   1.494   0.059  0.5450  0.1941 -1.3092
  894MOL0     H20638   1.437   1.619   0.164 -2.4381 -0.5384  0.9967
  894MOL0     H20639   1.468   1.551  -0.135 -1.2289 -3.8955  3.8379
  894MOL0     H20640   1.567   1.681  -0.061  1.4891 -3.4193 -0.9389
  894MOL0     H20641   1.411   1.880   0.080 -1.2877 -0.5730  0.9348
  894MOL0     H20642   1.230   2.080   0.062 -2.6387  2.5468  0.6270
  894MOL0     H20643   1.203   2.088  -0.121 -0.7977 -2.6337 -2.6101
  894MOL0     H20644   0.981   2.012  -0.108 -0.2278 -0.1757 -0.2259
  894MOL0     H20645   0.995   2.107   0.030 -1.7506 -1.6408  1.5752
  894MOL0     H20646   1.051   1.881   0.157  2.1219 -0.7457 -2.2671
  894MOL0     H20647   0.957   1.808   0.029  0.9251 -0.5936  0.0282
  894MOL0     H20648   0.756   1.926   0.079 -1.7136 -2.6517  0.1088
  894MOL0     H20649   0.843   2.020   0.199 -0.1980 -1.1707  0.9965
  894MOL0     H20650   0.773   1.602   0.386  2.6140  1.3720  0.0576
  894MOL0     H20651   0.655   1.463   0.519 -0.8542  0.6957  2.5730
  894MOL0     H20652   0.502   1.498   0.608  1.1110 -3.4404  0.2606
  894MOL0     H20653   0.491   1.455   0.446 -0.9862  1.7584 -1.0448
  894MOL0     H20654   0.042   1.862   0.341  0.0561 -0.1338 -0.5897
  894MOL0     H20655  -0.189   1.818   0.402  0.8323  0.6478 -0.2178
  894MOL0     H20656  -0.323   1.577   0.603 -0.6376  0.4699 -0.4360
  894MOL0     H20657  -0.275   1.618   0.770  3.5415 -0.6657 -2.1114
  894MOL0     H20658  -0.483   1.784   0.783 -1.8435 -0.5383  1.4523
  894MOL0     H20659  -0.528   1.717   0.630  1.2386  0.6903 -0.2719
  894MOL0     H20660  -0.471   1.542   0.874 -1.1188 -0.3474  0.9864
  894MOL0     H20661  -0.548   1.498   0.727  0.6415 -2.1638  2.7582
  894MOL0     H20662  -0.644   1.714   0.927  1.3635  1.2517 -1.1657
  894MOL0     H20663  -0.730   1.689   0.775  0.6488  0.5183  0.7010
  894MOL0     H20664  -0.700   1.490   1.007 -2.4826 -0.5017  1.6202
  894MOL0     H20665  -0.763   1.450   0.845  1.4950  1.6335 -1.2503
  894MOL0     H20666  -0.935   1.638   0.884 -2.5979 -1.0878 -0.0305
  894MOL0     H20667  -0.972   1.494   0.978 -1.8985  1.1574 -0.9644
  894MOL0     H20668  -0.838   1.752   1.059 -1.1093 -1.5207 -2.0436
  894MOL0     H20669  -0.831   1.618   1.171  0.1851 -1.5283 -1.0729
  894MOL0     H20670  -1.060   1.798   1.082  2.1727  1.6471  0.9243
  894MOL0     H20671  -0.998   1.755   1.242 -2.3427 -1.8386  0.2982
  894MOL0     H20672  -0.094   1.758   0.813 -0.8869  0.6108 -0.3392
  894MOL0     H20673   0.161   1.765   0.754 -1.9098 -2.4340  0.6867
  894MOL0     H20674   0.442   1.959   0.420  0.7835  1.1677 -0.7922
  894MOL0     H20675   0.657   1.997   0.297 -2.6816  0.8768  0.6131
  894MOL0     H20676   1.317   0.874   0.577  0.8051  0.9192 -1.5526
  894MOL0     H20677   1.188   0.700   0.674  1.1541 -1.0812  0.4963
  894MOL0     H20678   0.844   0.353   0.831 -2.0112 -1.5703  1.0799
  894MOL0     H20679   0.734   0.154   0.843 -0.3787 -0.7265  0.1642
  894MOL0     H20680   0.814  -0.144   0.519  1.0681 -2.3818 -0.0107
  894MOL0     H20681   0.847  -0.241   0.659  1.0217 -0.7549 -0.5763
  894MOL0     H20682   0.602  -0.253   0.721  1.1748  1.3855  0.8682
  894MOL0     H20683   0.641  -0.337   0.569 -2.8946  0.8554 -0.2801
  894MOL0     H20684   0.540  -0.163   0.438 -2.4428  0.7937 -0.0528
  894MOL0     H20685   0.550  -0.047   0.574 -1.4795  0.3267  1.4771
  894MOL0     H20686   0.333  -0.113   0.502  1.5541  1.3776  1.5037
  894MOL0     H20687   0.356  -0.139   0.671 -3.1642 -0.1584 -0.5068
  894MOL0     H20688   0.254  -0.524   0.554 -0.3025  0.4717  4.8111
  894MOL0     H20689   0.977  -0.007   0.520  2.4508 -1.0957  1.9520
  894MOL0     H20690   1.101   0.202   0.513  0.9832 -0.6025  0.9821
  895MOL0     O20691  10.966   2.411   1.209  0.2272  0.3652 -0.9725
  895MOL0     C20692  11.029   2.459   1.116 -0.9886  0.2372  0.1129
  895MOL0     O20693  10.972   2.533   1.012  0.4104 -0.1246 -0.5650
  895MOL0     C20694  10.837   2.537   1.003 -0.3063 -0.0444 -0.6379
  895MOL0     C20695  10.754   2.425   0.966  0.2966  0.5138  0.1913
  895MOL0     C20696  10.613   2.433   0.958  0.1199 -0.3722  0.7726
  895MOL0     C20697  10.559   2.564   0.977 -0.2441 -0.6884  0.4539
  895MOL0     O20698  10.431   2.599   0.949 -0.5406 -0.2304 -0.7616
  895MOL0     C20699  10.351   2.506   0.880  0.7043 -0.1747 -1.1238
  895MOL0     C20700  10.226   2.587   0.825  0.2545 -0.0364  0.0383
  895MOL0     C20701  10.172   2.694   0.932  0.0235 -0.1085  0.0993
  895MOL0     C20702  10.031   2.739   0.914  1.0619 -0.5818  0.6525
  895MOL0     C20703  10.002   2.816   0.787  0.1599 -0.2619  0.5949
  895MOL0     C20704   9.869   2.895   0.786  0.0874 -0.0392 -0.1383
  895MOL0     C20705   9.845   3.006   0.893  0.0475 -0.0308 -1.0278
  895MOL0     C20706   9.729   3.098   0.853 -0.3670  0.4338 -0.1677
  895MOL0     N20707   9.754   3.221   0.920 -0.1631  0.8285 -0.2008
  895MOL0     C20708   9.724   3.259   1.050 -0.4924 -0.0141  0.0291
  895MOL0     C20709   9.748   3.395   1.047 -0.1422 -1.1237 -0.3443
  895MOL0     C20710   9.740   3.484   1.165 -0.4394  0.6710  1.0925
  895MOL0     C20711   9.779   3.417   1.296 -0.1381  0.2583 -0.2308
  895MOL0     C20712   9.854   3.521   1.385  1.1395 -0.5750  0.4890
  895MOL0     C20713   9.980   3.586   1.324 -1.0431 -0.4523  0.3960
  895MOL0     O20714  10.037   3.502   1.221  0.2013  0.2504  0.4513
  895MOL0     C20715  10.149   3.533   1.146 -0.1303  0.3286 -0.3189
  895MOL0     C20716  10.166   3.452   1.034 -0.2647  0.7020  0.7587
  895MOL0     C20717  10.280   3.467   0.954  0.9395 -0.7341  0.4944
  895MOL0     C20718  10.300   3.369   0.842 -0.5015  0.8496 -0.7266
  895MOL0     C20719  10.374   3.567   0.976 -0.2488  0.1983  0.6764
  895MOL0     C20720  10.505   3.566   0.901  0.5878  0.2004 -0.5377
  895MOL0     O20721  10.570   3.692   0.914  0.2241  0.0461 -0.2289
  895MOL0     C20722  10.703   3.701   0.878 -0.1982 -0.2123 -0.1880
  895MOL0     C20723  10.797   3.729   0.978 -0.4006  0.5598  0.1801
  895MOL0     C20724  10.929   3.734   0.941 -0.7558  0.4255 -0.0612
  895MOL0     C20725  10.971   3.712   0.806 -0.4224 -0.2989  0.1331
  895MOL0     O20726  11.106   3.729   0.756  0.5682 -0.4124 -0.4133
  895MOL0     C20727  11.208   3.760   0.847  0.4702 -0.5101  0.1883
  895MOL0     C20728  11.342   3.732   0.773 -0.8053  0.4461 -0.1689
  895MOL0     C20729  11.461   3.769   0.867  0.5775 -0.2817 -0.2749
  895MOL0     C20730  11.590   3.753   0.794 -0.1397 -0.5061 -0.7135
  895MOL0     C20731  11.704   3.814   0.881  0.0415  0.0170  0.0991
  895MOL0     C20732  11.840   3.773   0.826  0.0090 -0.1195 -0.2395
  895MOL0     C20733  11.957   3.807   0.924  0.2841 -0.0038  0.0319
  895MOL0     C20734  12.099   3.799   0.862 -0.3608 -0.0347 -0.6515
  895MOL0    Cl20735  12.205   3.900   0.965 -0.2327 -0.0724 -0.2729
  895MOL0     C20736  10.879   3.683   0.712  0.2645 -0.5022 -0.7209
  895MOL0     C20737  10.743   3.685   0.738  0.4468  0.2832 -0.2043
  895MOL0     O20738  10.555   3.462   0.852 -0.3013 -0.0625 -0.5500
  895MOL0     C20739  10.359   3.642   1.092 -0.6873  0.1932  0.8045
  895MOL0     C20740  10.247   3.628   1.181 -0.1916 -0.2347  0.8575
  895MOL0     N20741   9.805   3.429   0.928  0.5223 -0.1393 -0.3040
  895MOL0     N20742   9.812   3.324   0.855 -0.0802  0.2406  0.2190
  895MOL0     C20743  10.637   2.673   1.019  0.1837  0.1870 -0.6368
  895MOL0     C20744  10.778   2.658   1.042  0.4262  0.4927  0.1316
  895MOL0     C20745  11.183   2.447   1.109 -0.7361  0.0257  0.7472
  895MOL0     C20746  11.261   2.410   1.219  0.0618 -0.7876 -0.8164
  895MOL0     C20747  11.398   2.375   1.207  0.0916 -0.3337 -0.5368
  895MOL0     C20748  11.464   2.393   1.088 -0.4932 -0.8722  0.1706
  895MOL0     O20749  11.595   2.381   1.053 -1.2400 -0.0824  0.0130
  895MOL0     C20750  11.679   2.329   1.154 -0.1012  0.7142  1.0758
  895MOL0     C20751  11.827   2.353   1.113 -0.2931  0.4314 -0.4857
  895MOL0     C20752  11.915   2.282   1.215  0.0372 -0.4108  0.0343
  895MOL0     C20753  12.067   2.268   1.193  0.2836  0.2026 -0.0693
  895MOL0     C20754  12.134   2.394   1.187  0.1794 -0.6659  0.2725
  895MOL0     C20755  12.185   2.503   1.180  0.1034 -0.8872  0.4884
  895MOL0     C20756  11.381   2.419   0.977 -0.5134 -0.0193  0.1113
  895MOL0     C20757  11.245   2.451   0.987  0.2894  0.3277  0.5744
  895MOL0     H20758  10.805   2.333   0.938  0.6240  1.0120 -0.9003
  895MOL0     H20759  10.555   2.344   0.936  0.9609 -1.1554  1.6026
  895MOL0     H20760  10.405   2.456   0.800 -0.0245 -0.5255 -1.4096
  895MOL0     H20761  10.312   2.423   0.940 -0.9650  0.4083 -1.3451
  895MOL0     H20762  10.258   2.644   0.738  2.3078  0.5744  1.1402
  895MOL0     H20763  10.147   2.513   0.806  0.9505 -0.8762  0.3576
  895MOL0     H20764  10.163   2.632   1.022 -4.6250 -4.1361 -2.6811
  895MOL0     H20765  10.244   2.776   0.949 -1.0439  0.4667  2.2598
  895MOL0     H20766   9.970   2.648   0.922 -3.2170  1.8726 -0.8501
  895MOL0     H20767  10.000   2.802   0.997  0.2828  0.9669 -0.7565
  895MOL0     H20768  10.087   2.883   0.769 -1.1038  1.0948 -0.5510
  895MOL0     H20769  10.008   2.746   0.703 -1.5198  2.0853 -1.6382
  895MOL0     H20770   9.866   2.939   0.685  0.9903  0.9028  0.2305
  895MOL0     H20771   9.783   2.829   0.800 -2.7395  3.8895  4.0764
  895MOL0     H20772   9.836   2.957   0.990  3.4898  3.0399  1.1310
  895MOL0     H20773   9.934   3.069   0.899  1.0463 -1.4281 -0.6946
  895MOL0     H20774   9.634   3.055   0.886 -0.2922 -0.4341 -1.0329
  895MOL0     H20775   9.723   3.113   0.745 -3.8703  1.7073  0.0912
  895MOL0     H20776   9.704   3.186   1.128  0.1630  2.5328  2.7539
  895MOL0     H20777   9.800   3.572   1.141  5.4481 -3.1359 -0.5075
  895MOL0     H20778   9.642   3.530   1.177  0.0784  2.2859 -0.4452
  895MOL0     H20779   9.861   3.346   1.282  0.7540  1.1305  0.4482
  895MOL0     H20780   9.693   3.367   1.342  0.2180 -0.5458 -0.4236
  895MOL0     H20781   9.883   3.461   1.472  1.7650 -2.6331 -1.0499
  895MOL0     H20782   9.792   3.603   1.421  1.6345  0.4565 -0.9195
  895MOL0     H20783  10.049   3.599   1.408  0.4604  0.2581 -0.8895
  895MOL0     H20784   9.955   3.681   1.276 -1.1321 -0.8429 -0.3579
  895MOL0     H20785  10.082   3.385   1.017 -0.1729  1.2877 -2.9240
  895MOL0     H20786  10.352   3.420   0.761 -1.4919  1.2540 -1.1244
  895MOL0     H20787  10.345   3.279   0.885 -1.8375  0.1702 -0.7151
  895MOL0     H20788  10.203   3.333   0.807 -1.0509  0.7431  0.8267
  895MOL0     H20789  10.753   3.749   1.076 -1.6289  0.8794 -0.4104
  895MOL0     H20790  11.006   3.752   1.015  1.4192  1.8822 -2.5181
  895MOL0     H20791  11.195   3.861   0.885 -3.9655 -0.2118 -1.5960
  895MOL0     H20792  11.202   3.702   0.940 -0.7078 -1.1854 -0.2864
  895MOL0     H20793  11.346   3.624   0.755  2.5820  0.3194  0.5658
  895MOL0     H20794  11.342   3.788   0.679 -0.3287  0.3933 -0.2063
  895MOL0     H20795  11.445   3.690   0.941 -1.2884 -3.1049 -3.3795
  895MOL0     H20796  11.447   3.869   0.910  1.1784  0.3055 -1.4037
  895MOL0     H20797  11.601   3.644   0.785 -4.4194 -1.3442  1.2520
  895MOL0     H20798  11.596   3.789   0.691 -1.4458 -2.0785 -1.3971
  895MOL0     H20799  11.689   3.771   0.981 -1.2499 -0.1814 -0.1634
  895MOL0     H20800  11.698   3.922   0.893  2.5910  0.2638 -0.3478
  895MOL0     H20801  11.836   3.667   0.800 -0.3163 -0.1866  0.0810
  895MOL0     H20802  11.853   3.828   0.732 -2.1302  0.8200 -0.0455
  895MOL0     H20803  11.971   3.744   1.012  3.2139 -2.1877 -1.8208
  895MOL0     H20804  11.936   3.911   0.951  3.2817  1.9762 -4.0586
  895MOL0     H20805  12.105   3.831   0.758 -0.5755  2.9893  0.1776
  895MOL0     H20806  12.138   3.697   0.871 -1.5169 -0.3642  1.2180
  895MOL0     H20807  10.915   3.667   0.611  2.1798  1.7565 -0.4635
  895MOL0     H20808  10.666   3.649   0.671 -0.6014 -0.8397  1.5239
  895MOL0     H20809  10.435   3.711   1.126 -1.2781 -0.2563  3.1934
  895MOL0     H20810  10.237   3.679   1.277  0.0214  0.0399  0.7359
  895MOL0     H20811  10.588   2.765   1.048  0.8803  0.1107  0.8561
  895MOL0     H20812  10.851   2.736   1.065 -1.0054  1.9724 -0.1847
  895MOL0     H20813  11.219   2.413   1.319  3.7570  1.2781  0.9278
  895MOL0     H20814  11.459   2.346   1.291 -0.1746 -2.0221 -0.8931
  895MOL0     H20815  11.667   2.378   1.251 -0.8739 -3.9226  3.5560
  895MOL0     H20816  11.651   2.225   1.171  1.6468  0.0253 -0.0189
  895MOL0     H20817  11.861   2.457   1.109 -1.2124  0.7035 -1.9651
  895MOL0     H20818  11.856   2.306   1.019  3.6067 -1.0511  1.2295
  895MOL0     H20819  11.883   2.177   1.217  4.2915 -1.9086 -0.3132
  895MOL0     H20820  11.915   2.328   1.314 -0.5425 -0.3988  0.0314
  895MOL0     H20821  12.082   2.202   1.107 -2.6904 -0.9553  0.1932
  895MOL0     H20822  12.113   2.219   1.279  1.7036  0.7317 -0.5028
  895MOL0     H20823  12.231   2.599   1.167  1.4742 -1.5105  0.5457
  895MOL0     H20824  11.421   2.428   0.877 -2.5780  0.8121 -0.6746
  895MOL0     H20825  11.188   2.472   0.897 -1.8699 -2.1912  1.2362
  896MOL0     O20826   5.619   6.157   4.039 -0.0156  0.1727 -0.8783
  896MOL0     C20827   5.637   6.079   3.946  0.1761 -0.2323 -0.8297
  896MOL0     O20828   5.532   6.017   3.875  0.1142  0.3350 -0.1473
  896MOL0     C20829   5.392   6.012   3.905 -1.8428 -0.3330 -0.7564
  896MOL0     C20830   5.316   5.952   3.810  0.8217  0.1824 -0.3246
  896MOL0     C20831   5.175   5.966   3.817 -0.5632  0.4319  0.6543
  896MOL0     C20832   5.110   6.025   3.922  0.2617  0.8017  0.2085
  896MOL0     O20833   4.965   6.005   3.919  0.7005  0.1260  0.2919
  896MOL0     C20834   4.890   6.104   3.993 -0.9528 -0.4429  0.3749
  896MOL0     C20835   4.741   6.084   3.979 -0.1449 -0.1379 -0.1592
  896MOL0     C20836   4.686   6.138   3.852 -0.3607  0.0490  0.8645
  896MOL0     C20837   4.552   6.097   3.811 -0.3725 -0.3957 -0.7124
  896MOL0     C20838   4.512   6.117   3.667  0.7426  0.1517 -0.0199
  896MOL0     C20839   4.386   6.032   3.626  0.2744 -0.1912 -0.2433
  896MOL0     C20840   4.316   6.071   3.488 -1.3347  0.0597 -1.4117
  896MOL0     C20841   4.175   6.009   3.467 -0.1203 -0.4794  0.3719
  896MOL0     N20842   4.075   6.055   3.560  0.0986  0.2852 -0.9251
  896MOL0     C20843   3.998   6.166   3.554  0.4166  0.3727 -0.1991
  896MOL0     C20844   3.919   6.156   3.665 -0.0404  0.0607  0.1335
  896MOL0     C20845   3.809   6.260   3.700 -0.5308  0.0822 -0.1941
  896MOL0     C20846   3.666   6.219   3.678 -0.5015 -0.1421  0.3939
  896MOL0     C20847   3.597   6.145   3.780 -0.0546  0.3334  0.5650
  896MOL0     C20848   3.446   6.154   3.776 -0.6978 -0.2834  0.3425
  896MOL0     O20849   3.398   6.134   3.640  0.6263  0.2321 -0.4195
  896MOL0     C20850   3.258   6.125   3.617 -0.1092  1.0018 -0.2463
  896MOL0     C20851   3.169   6.052   3.696 -0.5997 -0.1172 -1.6238
  896MOL0     C20852   3.037   6.037   3.654 -0.2378 -0.4219 -0.1817
  896MOL0     C20853   2.954   5.948   3.754  0.0735 -0.5178  0.5298
  896MOL0     C20854   2.996   6.085   3.524 -0.0154 -0.7782 -0.6157
  896MOL0     C20855   2.871   6.042   3.459 -0.3882 -0.0070 -0.0087
  896MOL0     O20856   2.860   6.090   3.327  0.3772 -0.8096  0.4076
  896MOL0     C20857   2.751   6.074   3.248 -0.6293  0.1703 -0.0926
  896MOL0     C20858   2.772   6.070   3.108  0.0865  0.1785 -0.3581
  896MOL0     C20859   2.664   6.064   3.016 -0.2551 -0.5235 -0.3837
  896MOL0     C20860   2.542   6.051   3.065  0.1318 -0.4247 -0.2828
  896MOL0     O20861   2.446   6.065   2.961  0.2427  0.6499  0.6695
  896MOL0     C20862   2.303   6.078   2.973 -0.3470  0.4686  0.4511
  896MOL0     C20863   2.233   6.044   2.847  0.5129  0.2189  0.0859
  896MOL0     C20864   2.090   5.994   2.882  0.1404 -0.3662 -0.3618
  896MOL0     C20865   2.004   5.965   2.760 -1.1584  0.5380  0.1317
  896MOL0     C20866   1.849   5.992   2.776  1.0476  0.7799 -1.1592
  896MOL0     C20867   1.809   6.143   2.774 -0.6604 -0.3224 -0.6485
  896MOL0     C20868   1.661   6.160   2.791  0.3953 -0.2086  0.8483
  896MOL0     C20869   1.599   6.083   2.899  0.3423 -0.0446 -0.4157
  896MOL0    Cl20870   1.630   6.144   3.058  0.0070 -0.2326 -0.0054
  896MOL0     C20871   2.513   6.041   3.206  0.4846  0.1855  0.2190
  896MOL0     C20872   2.624   6.051   3.295 -0.5444 -0.7928  0.3863
  896MOL0     O20873   2.791   5.962   3.503 -0.2504  0.0091 -0.2433
  896MOL0     C20874   3.084   6.161   3.450 -0.5589  0.2392  0.3411
  896MOL0     C20875   3.217   6.188   3.499 -0.2335  0.9671 -0.1010
  896MOL0     N20876   3.944   6.037   3.723 -0.8354 -0.1977  0.0772
  896MOL0     N20877   4.044   5.979   3.673  0.3831  0.8489  0.7097
  896MOL0     C20878   5.187   6.097   4.007 -0.0714  0.2872 -0.5870
  896MOL0     C20879   5.331   6.089   4.009  0.2400  0.4848  0.0892
  896MOL0     C20880   5.775   6.052   3.914 -0.3449  0.6549 -0.2011
  896MOL0     C20881   5.810   5.970   3.809 -0.2204 -0.5899 -0.4227
  896MOL0     C20882   5.944   5.956   3.775 -0.1327 -0.1660  0.7256
  896MOL0     C20883   6.047   6.017   3.843 -0.5485  0.2268  0.1508
  896MOL0     O20884   6.177   5.999   3.807  0.7177 -0.7540  0.4952
  896MOL0     C20885   6.208   5.912   3.698 -1.1219  0.6452  0.6572
  896MOL0     C20886   6.348   5.861   3.711 -0.3098  0.5577 -0.1852
  896MOL0     C20887   6.429   5.859   3.585 -0.3299  0.4198 -0.6279
  896MOL0     C20888   6.394   5.765   3.468 -0.4641 -0.1708  0.0073
  896MOL0     C20889   6.380   5.632   3.510  0.2440 -0.6723  0.0635
  896MOL0     C20890   6.383   5.515   3.539  0.3756  0.1007 -0.1312
  896MOL0     C20891   6.012   6.077   3.964  0.7988  0.0533  0.3001
  896MOL0     C20892   5.879   6.090   4.012 -0.3324 -0.8705  0.3620
  896MOL0     H20893   5.366   5.887   3.739  1.2247 -0.1541  0.2599
  896MOL0     H20894   5.107   5.920   3.747 -1.3736 -0.9042  2.2642
  896MOL0     H20895   4.917   6.101   4.099 -0.2185  2.1468  0.3269
  896MOL0     H20896   4.911   6.208   3.968 -3.5178  0.6152  2.1845
  896MOL0     H20897   4.729   5.975   3.975 -1.3110 -0.0198 -3.4981
  896MOL0     H20898   4.700   6.120   4.074  0.8824 -0.4218  0.4039
  896MOL0     H20899   4.695   6.247   3.853  1.6222 -0.0642  0.5246
  896MOL0     H20900   4.744   6.104   3.766 -1.1226  0.1354  0.3149
  896MOL0     H20901   4.528   5.992   3.829 -3.1535  0.1684 -0.7395
  896MOL0     H20902   4.490   6.165   3.871  0.5326 -0.6791  0.5863
  896MOL0     H20903   4.504   6.224   3.643  3.1285 -0.1524 -2.8716
  896MOL0     H20904   4.593   6.079   3.604 -0.1758 -1.2568 -0.3852
  896MOL0     H20905   4.412   5.926   3.634  1.5950  0.3059  3.6813
  896MOL0     H20906   4.317   6.058   3.706 -1.0999  0.7711 -1.6742
  896MOL0     H20907   4.311   6.180   3.481 -2.6681  0.2495  1.4660
  896MOL0     H20908   4.382   6.025   3.413 -0.3255 -4.2391  1.7194
  896MOL0     H20909   4.189   5.902   3.487 -2.5966 -0.9414  0.0503
  896MOL0     H20910   4.132   6.010   3.366 -3.6548 -0.1165  1.7329
  896MOL0     H20911   3.990   6.241   3.476 -1.8276 -1.1526 -1.5213
  896MOL0     H20912   3.819   6.297   3.802  0.1414 -1.8612  0.4859
  896MOL0     H20913   3.837   6.341   3.631 -0.3024 -0.0014 -0.2023
  896MOL0     H20914   3.660   6.170   3.580 -1.1924  1.1507 -0.2343
  896MOL0     H20915   3.611   6.313   3.671 -0.8585 -0.2118  1.9118
  896MOL0     H20916   3.620   6.189   3.878 -0.7629  3.2292 -0.4688
  896MOL0     H20917   3.615   6.038   3.772  0.6305  0.4970 -0.1274
  896MOL0     H20918   3.412   6.246   3.823  1.4942 -0.0274  1.5948
  896MOL0     H20919   3.419   6.079   3.851  2.0669  0.2006  1.9850
  896MOL0     H20920   3.195   6.005   3.790 -0.7687  2.2588 -0.3157
  896MOL0     H20921   2.847   5.970   3.746 -0.3463 -2.4827 -0.0202
  896MOL0     H20922   2.966   5.843   3.724 -0.1083  0.3468 -3.0715
  896MOL0     H20923   2.987   5.956   3.858  0.6669  0.3728  0.2835
  896MOL0     H20924   2.873   6.072   3.069 -1.2282 -0.5412 -4.2215
  896MOL0     H20925   2.674   6.084   2.910  1.1336 -1.7232 -0.4999
  896MOL0     H20926   2.268   6.008   3.049 -2.3169 -1.3811 -1.9988
  896MOL0     H20927   2.265   6.177   3.001  1.6031  1.4936 -0.3193
  896MOL0     H20928   2.222   6.120   2.769 -0.4313 -1.5930 -1.6320
  896MOL0     H20929   2.287   5.958   2.806 -0.7655  0.5142 -2.3776
  896MOL0     H20930   2.038   6.076   2.932  2.0252  1.3305 -1.0424
  896MOL0     H20931   2.088   5.911   2.954 -1.3420 -0.9723 -1.0442
  896MOL0     H20932   2.047   6.005   2.667  1.0854  0.0637  0.9104
  896MOL0     H20933   2.009   5.856   2.754 -0.8173  0.4233  2.0062
  896MOL0     H20934   1.814   5.938   2.864  3.0864  0.3340 -0.5787
  896MOL0     H20935   1.791   5.947   2.695 -1.9341  0.5866  0.9087
  896MOL0     H20936   1.858   6.194   2.857  1.9277 -1.3343 -1.4517
  896MOL0     H20937   1.867   6.182   2.690  2.2889 -3.0181 -0.0430
  896MOL0     H20938   1.615   6.116   2.701  0.6407 -0.2941  0.7633
  896MOL0     H20939   1.638   6.267   2.791 -2.4737 -0.7227  0.0542
  896MOL0     H20940   1.608   5.974   2.898 -2.6692 -0.3965  1.0787
  896MOL0     H20941   1.495   6.102   2.874 -0.8537 -1.0310  3.1224
  896MOL0     H20942   2.414   6.034   3.250  1.8853  0.2229  3.7068
  896MOL0     H20943   2.600   6.034   3.399  2.1995  2.1059  1.6368
  896MOL0     H20944   3.049   6.218   3.365 -0.9946  0.7110  0.8309
  896MOL0     H20945   3.288   6.247   3.441  0.6157  1.0019  0.9151
  896MOL0     H20946   5.143   6.155   4.086  0.4916  2.2933 -1.6864
  896MOL0     H20947   5.392   6.154   4.071  0.3645  0.1394  0.3323
  896MOL0     H20948   5.730   5.922   3.754 -3.3168  2.1279  1.4139
  896MOL0     H20949   5.968   5.890   3.692  4.0648 -0.6497  2.1177
  896MOL0     H20950   6.143   5.824   3.694  0.7744 -0.7706 -1.4370
  896MOL0     H20951   6.205   5.960   3.600 -2.2373 -1.5064 -0.4279
  896MOL0     H20952   6.343   5.757   3.746  1.4053  1.1797  2.1336
  896MOL0     H20953   6.396   5.916   3.792 -1.3496 -2.0836  2.3921
  896MOL0     H20954   6.525   5.823   3.625  0.2181  0.8017 -1.5449
  896MOL0     H20955   6.459   5.957   3.545 -2.0219  1.1644 -0.1477
  896MOL0     H20956   6.473   5.769   3.392 -0.8060  2.1783 -0.2972
  896MOL0     H20957   6.294   5.793   3.433 -0.1249  0.3494 -0.5710
  896MOL0     H20958   6.406   5.413   3.562  1.1345  0.4784  0.8885
  896MOL0     H20959   6.086   6.111   4.036  2.2247 -0.5396 -0.8307
  896MOL0     H20960   5.856   6.131   4.110  0.3425  0.3446  0.0321
  897MOL0     O20961   4.070  10.975   4.403  1.1328 -0.1060 -0.5056
  897MOL0     C20962   4.067  10.940   4.283 -0.6652 -0.6378  0.3273
  897MOL0     O20963   3.967  10.871   4.213  0.3595 -0.5447 -0.3628
  897MOL0     C20964   3.844  10.860   4.267 -0.2778 -0.5132 -0.2108
  897MOL0     C20965   3.759  10.779   4.198 -0.3899 -0.7971  0.2246
  897MOL0     C20966   3.623  10.756   4.227 -0.4814  0.6101  0.0620
  897MOL0     C20967   3.560  10.829   4.326  0.2295  0.9533 -0.4044
  897MOL0     O20968   3.430  10.801   4.348 -0.5367  0.8752  0.3837
  897MOL0     C20969   3.369  10.872   4.457 -1.0913 -0.4011 -0.3035
  897MOL0     C20970   3.222  10.838   4.465 -0.5287 -0.7635 -0.1081
  897MOL0     C20971   3.206  10.689   4.484 -0.1008  0.0619 -0.3629
  897MOL0     C20972   3.062  10.651   4.488 -0.1452  0.2096 -0.0792
  897MOL0     C20973   3.032  10.507   4.522 -0.5802  0.0007  1.0437
  897MOL0     C20974   3.057  10.402   4.417  0.0558  0.1596  0.6433
  897MOL0     C20975   2.990  10.271   4.463 -0.6485  0.0452 -0.2417
  897MOL0     C20976   3.029  10.142   4.381 -0.4968 -0.4300 -0.1414
  897MOL0     N20977   2.975  10.135   4.245  0.2349  0.5211 -0.4416
  897MOL0     C20978   3.008  10.202   4.126  0.8887  0.8143  0.0475
  897MOL0     C20979   2.928  10.144   4.031  0.6144  0.3888  0.4538
  897MOL0     C20980   2.936  10.165   3.879  0.5302 -0.3270  0.7775
  897MOL0     C20981   2.890  10.303   3.807  0.3094  0.2285 -0.0569
  897MOL0     C20982   2.736  10.314   3.799  0.2590  0.0151  0.5915
  897MOL0     C20983   2.692  10.411   3.693  0.0194 -0.3036 -0.5491
  897MOL0     O20984   2.553  10.415   3.672  0.3393 -0.1077  0.0899
  897MOL0     C20985   2.489  10.338   3.581  0.5532  0.1243 -0.9667
  897MOL0     C20986   2.356  10.391   3.572  0.6858  0.5089 -0.3613
  897MOL0     C20987   2.267  10.340   3.479  0.2103  0.7481 -0.0321
  897MOL0     C20988   2.128  10.403   3.479 -0.7541 -0.8536 -0.6908
  897MOL0     C20989   2.306  10.243   3.382 -0.4826  0.0464 -0.0120
  897MOL0     C20990   2.217  10.186   3.281  1.6504 -0.5954  0.3655
  897MOL0     O20991   2.084  10.183   3.313 -1.1847 -0.5334  0.1459
  897MOL0     C20992   2.005  10.108   3.233 -0.1492 -0.0588 -0.4910
  897MOL0     C20993   1.929  10.177   3.143 -0.2233 -0.3903 -0.6122
  897MOL0     C20994   1.835  10.113   3.053  0.5798  1.5260 -0.4873
  897MOL0     C20995   1.832   9.974   3.056 -0.5806  0.1135  0.7235
  897MOL0     O20996   1.756   9.890   2.970 -0.5560 -0.2260 -0.3275
  897MOL0     C20997   1.646   9.947   2.908 -0.0647  0.1132  0.2154
  897MOL0     C20998   1.557   9.825   2.873  0.0447 -0.0436  0.1944
  897MOL0     C20999   1.486   9.836   2.734  0.1679  0.0166 -0.0538
  897MOL0     C21000   1.414   9.700   2.712  0.0390  0.9142  0.4206
  897MOL0     C21001   1.343   9.703   2.575 -0.8509 -0.0730 -0.1804
  897MOL0     C21002   1.273   9.568   2.541 -0.1910 -0.1385  0.2155
  897MOL0     C21003   1.145   9.546   2.620  0.7696 -1.0262  0.3025
  897MOL0     C21004   1.069   9.436   2.554 -0.3229  0.1208  0.5975
  897MOL0    Cl21005   0.997   9.483   2.387 -0.1233 -0.1904 -0.3241
  897MOL0     C21006   1.914   9.897   3.151 -0.2698 -0.5828  0.5031
  897MOL0     C21007   1.996   9.972   3.245  0.7530 -0.3429  0.5277
  897MOL0     O21008   2.268  10.136   3.180 -0.1656  0.4792 -1.0929
  897MOL0     C21009   2.441  10.187   3.394  0.5027  0.1494 -0.3414
  897MOL0     C21010   2.532  10.240   3.496 -0.1775 -0.0498  0.3550
  897MOL0     N21011   2.837  10.057   4.095  0.9732 -0.1942  1.1069
  897MOL0     N21012   2.865  10.046   4.215  0.1825 -0.4114  0.0004
  897MOL0     C21013   3.637  10.919   4.395  0.0213  0.1129  0.7152
  897MOL0     C21014   3.781  10.933   4.375 -0.2865 -0.6717  0.8258
  897MOL0     C21015   4.195  10.954   4.207  0.3490  0.1795  0.1666
  897MOL0     C21016   4.290  11.048   4.247 -0.0091  0.3657 -0.2465
  897MOL0     C21017   4.417  11.060   4.192 -0.0554 -0.8006 -1.2466
  897MOL0     C21018   4.449  10.984   4.079 -1.2201  0.1642  0.4735
  897MOL0     O21019   4.567  11.001   4.008  0.3996  0.1081  0.2218
  897MOL0     C21020   4.660  11.093   4.062 -0.8357 -0.1978 -0.8672
  897MOL0     C21021   4.794  11.090   3.987  0.4671 -0.2330  0.1907
  897MOL0     C21022   4.874  10.953   4.001 -0.4611 -0.2002  0.4582
  897MOL0     C21023   4.841  10.859   3.874 -0.8071 -0.1147 -0.0061
  897MOL0     C21024   4.941  10.872   3.769  0.2620  0.1679  0.0771
  897MOL0     C21025   5.031  10.882   3.688  0.5554  0.0163  0.2345
  897MOL0     C21026   4.358  10.881   4.044  0.3474 -0.8548  0.0318
  897MOL0     C21027   4.230  10.864   4.102 -0.1659  0.6447 -1.1976
  897MOL0     H21028   3.808  10.730   4.114  0.2177 -0.0545  0.1281
  897MOL0     H21029   3.557  10.688   4.176  0.6634 -1.9704  1.8119
  897MOL0     H21030   3.422  10.846   4.549  0.3437  0.2845 -0.9162
  897MOL0     H21031   3.381  10.981   4.449 -0.2828 -0.3144  1.5238
  897MOL0     H21032   3.171  10.907   4.532 -1.1708 -0.0231 -1.3157
  897MOL0     H21033   3.189  10.863   4.363 -0.6745  1.1789  0.3713
  897MOL0     H21034   3.262  10.631   4.410  2.2025 -1.2347  2.2473
  897MOL0     H21035   3.256  10.662   4.577  3.9755  5.3254 -0.5328
  897MOL0     H21036   3.018  10.713   4.567 -0.7570 -2.0511  1.4839
  897MOL0     H21037   3.009  10.670   4.395  0.2677 -3.3775 -1.2098
  897MOL0     H21038   3.103  10.488   4.603  0.4292  1.3024  0.5057
  897MOL0     H21039   2.927  10.494   4.551 -0.6922 -2.2637 -0.2004
  897MOL0     H21040   3.009  10.443   4.328  1.7505 -0.5967 -0.6836
  897MOL0     H21041   3.166  10.404   4.405  0.0390 -2.0583 -0.4434
  897MOL0     H21042   3.002  10.258   4.571 -1.7072 -2.6403 -0.3593
  897MOL0     H21043   2.882  10.286   4.460 -0.6491  0.7698  1.6097
  897MOL0     H21044   2.985  10.057   4.434 -0.4277 -0.4876 -0.1766
  897MOL0     H21045   3.138  10.140   4.387 -0.4494 -1.0128 -1.0314
  897MOL0     H21046   3.082  10.280   4.110  3.2107 -0.8694  1.9154
  897MOL0     H21047   3.043  10.158   3.855  0.1356 -1.2050 -0.8405
  897MOL0     H21048   2.895  10.076   3.831  0.9460 -0.4067  0.5630
  897MOL0     H21049   2.932  10.306   3.706 -1.4130 -0.0703 -0.8158
  897MOL0     H21050   2.936  10.383   3.866 -1.0460 -0.5289  2.1572
  897MOL0     H21051   2.690  10.343   3.895  1.2474 -0.1181  1.1221
  897MOL0     H21052   2.705  10.213   3.769  1.9466 -0.2539 -0.3128
  897MOL0     H21053   2.743  10.386   3.599  3.0081  1.7913  0.3560
  897MOL0     H21054   2.725  10.512   3.720  2.2605 -0.7341 -1.4199
  897MOL0     H21055   2.327  10.481   3.626  0.9657  1.2081 -1.3435
  897MOL0     H21056   2.145  10.510   3.494 -4.7572  0.6998 -4.6683
  897MOL0     H21057   2.081  10.405   3.380 -0.6537 -1.0419 -0.7428
  897MOL0     H21058   2.053  10.372   3.552  0.6815 -1.4635  0.5784
  897MOL0     H21059   1.942  10.285   3.143  0.9688 -0.5171 -0.8267
  897MOL0     H21060   1.776  10.163   2.978 -0.5404  2.8932  1.2136
  897MOL0     H21061   1.594  10.013   2.978  0.6671  1.7710 -0.7468
  897MOL0     H21062   1.680  10.003   2.820  1.5036  1.0675  1.3763
  897MOL0     H21063   1.619   9.736   2.860  0.3302 -0.0298  1.3555
  897MOL0     H21064   1.491   9.796   2.954  0.3253  1.2902  0.9424
  897MOL0     H21065   1.572   9.840   2.667  0.5015 -2.9965  0.0496
  897MOL0     H21066   1.423   9.925   2.724  0.9426  0.9579  2.5398
  897MOL0     H21067   1.482   9.614   2.717 -0.0608  0.8614  0.9924
  897MOL0     H21068   1.345   9.681   2.795  2.4390 -1.4821  2.0755
  897MOL0     H21069   1.423   9.717   2.501 -0.4745  0.6526  0.3541
  897MOL0     H21070   1.266   9.779   2.562 -3.2342 -1.6808  3.1031
  897MOL0     H21071   1.262   9.583   2.433  2.8916  1.4338 -0.0019
  897MOL0     H21072   1.338   9.481   2.552 -2.5778 -1.9335  1.0015
  897MOL0     H21073   1.080   9.634   2.617 -0.0981 -1.6727 -0.7097
  897MOL0     H21074   1.168   9.517   2.723 -0.5693  0.1977  0.9835
  897MOL0     H21075   0.981   9.409   2.613 -0.2578 -0.1605  0.5675
  897MOL0     H21076   1.130   9.345   2.553  1.5521  1.3322  0.5637
  897MOL0     H21077   1.904   9.790   3.163  2.1706 -0.9283 -0.1702
  897MOL0     H21078   2.049   9.922   3.325  1.0557 -0.3660  0.3119
  897MOL0     H21079   2.470  10.108   3.326 -2.9853  0.0699 -1.9403
  897MOL0     H21080   2.637  10.215   3.512  0.4836  2.2809  0.0913
  897MOL0     H21081   3.590  10.984   4.468 -0.4907  1.1596 -0.5051
  897MOL0     H21082   3.832  11.006   4.438 -1.8510  0.6870  0.5965
  897MOL0     H21083   4.275  11.109   4.336 -1.1935  3.1027 -2.1649
  897MOL0     H21084   4.478  11.136   4.240 -0.9914  0.6960 -2.3600
  897MOL0     H21085   4.618  11.193   4.053  1.4850  0.7905 -1.3328
  897MOL0     H21086   4.683  11.071   4.167 -1.2821  1.3156 -0.4345
  897MOL0     H21087   4.849  11.172   4.035  1.0823  0.1691 -1.1528
  897MOL0     H21088   4.771  11.118   3.884 -0.8369  0.6962  0.6986
  897MOL0     H21089   4.854  10.904   4.097 -0.1779  1.0805  1.2058
  897MOL0     H21090   4.982  10.970   4.002 -0.6273  0.9466  0.0814
  897MOL0     H21091   4.745  10.891   3.831 -0.4843  0.7637 -0.0919
  897MOL0     H21092   4.849  10.755   3.907  2.4466 -0.8077 -2.4947
  897MOL0     H21093   5.121  10.905   3.634  2.8673 -2.6244  2.6462
  897MOL0     H21094   4.384  10.812   3.963  0.3290 -1.7637  0.7858
  897MOL0     H21095   4.163  10.785   4.069  0.8630  0.6284 -3.4194
  898MOL0     O21096   1.181   7.592   7.959 -0.2829 -0.2404 -0.5111
  898MOL0     C21097   1.272   7.627   8.030 -0.1033 -0.3564 -0.1796
  898MOL0     O21098   1.339   7.552   8.121  0.2344  0.5319  0.0937
  898MOL0     C21099   1.301   7.421   8.154  0.4958 -0.3069 -0.4119
  898MOL0     C21100   1.404   7.317   8.176 -0.1046 -0.5022 -0.0651
  898MOL0     C21101   1.369   7.198   8.224  0.8420 -0.5164 -0.8130
  898MOL0     C21102   1.237   7.165   8.259  0.4705  0.2414 -1.1867
  898MOL0     O21103   1.205   7.043   8.321  0.1648  1.3832  0.2431
  898MOL0     C21104   1.156   7.049   8.452 -0.3031 -0.0136 -0.3085
  898MOL0     C21105   1.207   6.925   8.532 -1.1939  0.2754  0.6983
  898MOL0     C21106   1.366   6.931   8.550 -0.0100 -1.2571  1.0514
  898MOL0     C21107   1.427   6.798   8.598 -0.7010 -0.3440 -0.2165
  898MOL0     C21108   1.579   6.789   8.612  0.2422  0.3429  0.7490
  898MOL0     C21109   1.669   6.804   8.481  0.3469  0.3159 -0.6600
  898MOL0     C21110   1.821   6.762   8.510  0.6187  0.3020  0.8862
  898MOL0     C21111   1.893   6.863   8.599 -0.0952 -0.0293 -0.3494
  898MOL0     N21112   2.042   6.856   8.601  0.2996  1.5597  0.7159
  898MOL0     C21113   2.119   6.743   8.626  0.1936 -0.0267 -1.0026
  898MOL0     C21114   2.251   6.787   8.610 -0.2392 -0.2705  0.8853
  898MOL0     C21115   2.378   6.724   8.650 -1.8434  0.2581  0.3021
  898MOL0     C21116   2.496   6.818   8.657 -0.5821 -1.1180  0.0234
  898MOL0     C21117   2.619   6.755   8.723  1.3501  0.0546  0.4574
  898MOL0     C21118   2.727   6.855   8.716  0.4710 -0.2675  0.2548
  898MOL0     O21119   2.821   6.815   8.820  0.3885 -0.4997 -0.2456
  898MOL0     C21120   2.923   6.906   8.844 -0.0384 -0.1832  0.2696
  898MOL0     C21121   2.940   7.029   8.785 -0.0300 -0.9126  1.5142
  898MOL0     C21122   3.046   7.111   8.815 -0.4324  0.2799  0.0296
  898MOL0     C21123   3.070   7.239   8.735 -0.3504 -0.9979 -0.6089
  898MOL0     C21124   3.149   7.069   8.914 -0.2979  0.9288  0.6532
  898MOL0     C21125   3.268   7.144   8.960  0.1547  0.7594 -0.4310
  898MOL0     O21126   3.367   7.083   9.025  0.6438 -0.0839  0.4968
  898MOL0     C21127   3.473   7.144   9.091  0.0157  1.0213  1.0132
  898MOL0     C21128   3.502   7.286   9.084 -0.5900  1.2064  0.5962
  898MOL0     C21129   3.618   7.325   9.148 -0.6066 -0.6117 -0.4615
  898MOL0     C21130   3.706   7.244   9.213 -0.8711  0.1657  0.1342
  898MOL0     O21131   3.814   7.308   9.268  0.7086 -0.4247  0.1492
  898MOL0     C21132   3.913   7.245   9.348  0.1056 -0.3085 -0.1984
  898MOL0     C21133   4.048   7.318   9.335  0.3962  0.1323  0.5181
  898MOL0     C21134   4.038   7.454   9.360  0.0604  0.8898 -1.1804
  898MOL0     C21135   4.175   7.535   9.360 -0.3092 -0.2218 -0.2935
  898MOL0     C21136   4.148   7.679   9.407 -0.8794 -1.0736  0.5815
  898MOL0     C21137   4.276   7.739   9.468 -0.4479 -0.5167 -1.0683
  898MOL0     C21138   4.406   7.739   9.385  0.1156  0.3776 -0.2037
  898MOL0     C21139   4.520   7.790   9.465  0.5979  0.1361 -0.4119
  898MOL0    Cl21140   4.672   7.746   9.384 -0.0507 -0.0952 -0.0758
  898MOL0     C21141   3.684   7.108   9.221 -0.8503  0.3472 -0.3400
  898MOL0     C21142   3.566   7.062   9.163  0.7658  0.5414 -0.1290
  898MOL0     O21143   3.249   7.264   8.954 -0.0668  0.3841  0.2170
  898MOL0     C21144   3.132   6.943   8.974 -0.0105  1.3835  0.3730
  898MOL0     C21145   3.022   6.862   8.937  0.1136 -0.2367  1.2057
  898MOL0     N21146   2.245   6.913   8.560 -0.9405 -0.5889 -0.9205
  898MOL0     N21147   2.122   6.956   8.572 -0.7649 -0.5145 -0.0961
  898MOL0     C21148   1.131   7.259   8.240 -0.6668  0.6516 -0.4018
  898MOL0     C21149   1.164   7.385   8.189 -0.4027  0.0815  0.3417
  898MOL0     C21150   1.298   7.777   8.019 -1.0632  1.2334  0.0398
  898MOL0     C21151   1.221   7.861   7.930 -0.3279 -0.0296  0.1032
  898MOL0     C21152   1.253   7.995   7.927 -0.5618 -0.8598  0.6958
  898MOL0     C21153   1.353   8.049   8.011  0.4664  0.2286  0.7809
  898MOL0     O21154   1.380   8.181   7.992 -0.5264  0.1789  0.1413
  898MOL0     C21155   1.507   8.233   8.022  0.1239  0.5618 -0.2311
  898MOL0     C21156   1.581   8.272   7.896  0.1524 -0.7509 -0.0105
  898MOL0     C21157   1.596   8.156   7.793 -0.2417 -0.3580 -0.0884
  898MOL0     C21158   1.589   8.203   7.654  0.5196 -0.4644  0.1480
  898MOL0     C21159   1.461   8.260   7.620  0.2629 -0.4508  0.3865
  898MOL0     C21160   1.350   8.295   7.590  0.6268 -0.0769 -0.6338
  898MOL0     C21161   1.420   7.973   8.098 -0.2221 -0.3657 -0.1162
  898MOL0     C21162   1.399   7.834   8.099  0.3185 -0.0139  0.4985
  898MOL0     H21163   1.504   7.354   8.156  0.7452 -1.7889  1.5986
  898MOL0     H21164   1.445   7.121   8.238  1.1691 -0.1145 -0.3363
  898MOL0     H21165   1.186   7.145   8.494  1.1662  0.0051 -1.3329
  898MOL0     H21166   1.047   7.054   8.455 -0.2895  3.5205 -1.3523
  898MOL0     H21167   1.159   6.929   8.630 -3.5181  1.2303 -0.4136
  898MOL0     H21168   1.178   6.836   8.476  3.5968 -1.3869  0.3744
  898MOL0     H21169   1.404   6.956   8.450 -1.1648 -0.0687  0.8905
  898MOL0     H21170   1.400   7.015   8.610  4.4997 -0.2201 -2.3652
  898MOL0     H21171   1.376   6.780   8.693 -1.7315  2.0380 -0.2553
  898MOL0     H21172   1.392   6.710   8.543 -0.6839 -1.5245  1.5786
  898MOL0     H21173   1.600   6.865   8.688 -4.5431  0.9231  1.7633
  898MOL0     H21174   1.605   6.692   8.655 -3.0166 -1.9236 -1.8250
  898MOL0     H21175   1.621   6.746   8.402  2.5851  0.0893 -1.9071
  898MOL0     H21176   1.657   6.909   8.456  3.8278  1.0806  0.3448
  898MOL0     H21177   1.817   6.661   8.553  0.1475  0.8082  2.1041
  898MOL0     H21178   1.877   6.742   8.419  1.1719 -0.1925  1.3218
  898MOL0     H21179   1.848   6.855   8.699 -3.3958 -0.5055 -1.7655
  898MOL0     H21180   1.856   6.959   8.561 -1.1897 -1.5795 -3.5204
  898MOL0     H21181   2.085   6.646   8.662 -0.2804  1.1750  2.1207
  898MOL0     H21182   2.364   6.686   8.752  1.8654  0.8709  1.2101
  898MOL0     H21183   2.394   6.637   8.585  3.2407 -1.3821  3.1654
  898MOL0     H21184   2.462   6.906   8.712 -0.3456 -1.3604  0.5627
  898MOL0     H21185   2.522   6.858   8.559  0.9101 -1.6939  0.1701
  898MOL0     H21186   2.651   6.665   8.671 -2.8598 -1.6373  0.4030
  898MOL0     H21187   2.588   6.738   8.827 -3.4274  0.2651 -0.6670
  898MOL0     H21188   2.692   6.955   8.742 -0.1119 -0.9542  2.3273
  898MOL0     H21189   2.791   6.861   8.627  0.7235  1.2918  0.5152
  898MOL0     H21190   2.866   7.060   8.711  1.5132 -0.3061  0.1730
  898MOL0     H21191   2.978   7.245   8.676  0.7849 -0.3064 -2.3768
  898MOL0     H21192   3.074   7.324   8.804 -0.2735  0.2430 -2.1061
  898MOL0     H21193   3.162   7.240   8.676 -0.9889 -0.7044 -1.6158
  898MOL0     H21194   3.445   7.360   9.029 -0.9794  1.7735  1.7300
  898MOL0     H21195   3.647   7.430   9.154 -0.7091 -0.6733  1.9559
  898MOL0     H21196   3.884   7.244   9.453  4.6882 -1.0078  1.2896
  898MOL0     H21197   3.928   7.140   9.322  0.3906 -0.6978  1.4260
  898MOL0     H21198   4.125   7.268   9.394  0.2859 -0.9746 -0.2495
  898MOL0     H21199   4.076   7.308   9.230 -1.2768 -0.9555  0.1409
  898MOL0     H21200   3.977   7.472   9.449 -2.1685 -1.1323 -2.1840
  898MOL0     H21201   3.978   7.495   9.278  0.2785  3.0465 -0.3146
  898MOL0     H21202   4.251   7.495   9.427 -0.9445  3.0081  2.6527
  898MOL0     H21203   4.208   7.540   9.256 -2.5340 -2.0369 -1.1662
  898MOL0     H21204   4.064   7.684   9.477  0.6487 -1.2084  2.5069
  898MOL0     H21205   4.128   7.748   9.325 -0.9325 -0.1682  1.3422
  898MOL0     H21206   4.254   7.844   9.490  0.8160 -0.0471 -1.9509
  898MOL0     H21207   4.298   7.690   9.564 -0.2509  0.4409 -0.6116
  898MOL0     H21208   4.398   7.799   9.294 -0.7064 -0.9497 -1.0354
  898MOL0     H21209   4.431   7.638   9.353  0.8154 -0.1038  1.7257
  898MOL0     H21210   4.519   7.764   9.571 -1.0183  1.3079 -0.1085
  898MOL0     H21211   4.513   7.899   9.468 -0.2617  0.0818 -0.1207
  898MOL0     H21212   3.755   7.034   9.255  0.7603  0.6899 -2.7191
  898MOL0     H21213   3.547   6.956   9.152 -1.5958  0.9401 -0.5473
  898MOL0     H21214   3.209   6.896   9.035  2.2861 -0.6054 -3.6462
  898MOL0     H21215   2.986   6.766   8.971  0.4260 -0.1975  1.6570
  898MOL0     H21216   1.029   7.233   8.267 -1.1478  0.7735 -2.0057
  898MOL0     H21217   1.096   7.469   8.204 -2.1030 -1.3377  0.8800
  898MOL0     H21218   1.141   7.816   7.872 -2.9765  1.5996  2.2489
  898MOL0     H21219   1.185   8.059   7.873 -2.6884 -3.2198  0.3613
  898MOL0     H21220   1.486   8.322   8.082 -2.1434  1.1311 -1.7244
  898MOL0     H21221   1.571   8.169   8.083 -1.0093  1.0384  1.5046
  898MOL0     H21222   1.679   8.299   7.936  0.7664 -2.4777 -0.2777
  898MOL0     H21223   1.540   8.361   7.848  0.9189  1.2470  2.7518
  898MOL0     H21224   1.515   8.086   7.813 -2.1858  2.3754  2.5090
  898MOL0     H21225   1.689   8.101   7.810  0.2158  0.5836  0.5782
  898MOL0     H21226   1.604   8.119   7.586  2.4030  0.6469 -0.8852
  898MOL0     H21227   1.669   8.277   7.642  0.8175 -0.4404  2.0221
  898MOL0     H21228   1.251   8.333   7.578 -0.4555 -1.4582  2.8579
  898MOL0     H21229   1.501   8.006   8.163 -0.7547 -1.0833  0.9540
  898MOL0     H21230   1.449   7.772   8.173 -0.6164  0.2794  1.4050
  899MOL0     O21231   0.605   4.641   3.514 -0.1608  0.7259  0.5469
  899MOL0     C21232   0.693   4.551   3.509  0.2486 -0.2518  0.6957
  899MOL0     O21233   0.692   4.433   3.571  0.2280 -0.7444 -0.1645
  899MOL0     C21234   0.588   4.417   3.661 -0.5110  0.6212 -0.7024
  899MOL0     C21235   0.494   4.322   3.626 -0.0545 -1.3148 -0.4382
  899MOL0     C21236   0.390   4.297   3.704  0.0289 -0.5661  0.3327
  899MOL0     C21237   0.381   4.364   3.832  0.2105  0.2503  0.2119
  899MOL0     O21238   0.287   4.335   3.924  0.1178 -0.2426 -0.0267
  899MOL0     C21239   0.162   4.387   3.892  0.5594  0.3084 -0.2873
  899MOL0     C21240   0.052   4.349   4.002  0.6719  0.0586 -0.4353
  899MOL0     C21241   0.088   4.384   4.147 -0.6238  0.1707  1.0730
  899MOL0     C21242  -0.041   4.352   4.234  0.4219 -0.0798 -0.3370
  899MOL0     C21243  -0.013   4.350   4.384  0.1771 -0.8305 -0.8056
  899MOL0     C21244  -0.123   4.302   4.481  0.1144  0.4738  0.8128
  899MOL0     C21245  -0.107   4.358   4.630 -0.5435 -0.0136  0.3836
  899MOL0     C21246  -0.164   4.500   4.646  1.0917  0.3256  0.7194
  899MOL0     N21247  -0.201   4.517   4.786 -0.3799 -0.0572  0.5480
  899MOL0     C21248  -0.291   4.456   4.868 -0.5588  0.4184  0.2367
  899MOL0     C21249  -0.276   4.514   4.988  0.7334 -0.0892  0.4699
  899MOL0     C21250  -0.341   4.461   5.111  0.2239 -0.4238 -0.1408
  899MOL0     C21251  -0.492   4.495   5.120  0.7049  0.5602  0.4243
  899MOL0     C21252  -0.544   4.463   5.263  0.2345 -0.0426  0.0783
  899MOL0     C21253  -0.684   4.515   5.282 -0.3713 -0.0650 -0.4954
  899MOL0     O21254  -0.768   4.487   5.170 -0.0144 -0.4320  0.9323
  899MOL0     C21255  -0.888   4.558   5.175 -0.3716 -0.9774  0.4428
  899MOL0     C21256  -1.006   4.494   5.189  0.1057  0.4329 -0.1496
  899MOL0     C21257  -1.122   4.559   5.226  0.1793 -0.1158 -0.3240
  899MOL0     C21258  -1.237   4.477   5.250 -0.5896 -0.5460  0.5667
  899MOL0     C21259  -1.112   4.698   5.254 -0.3990 -0.2691  0.8957
  899MOL0     C21260  -1.221   4.777   5.325 -0.5504 -0.6084  0.8517
  899MOL0     O21261  -1.227   4.910   5.303 -0.1127  0.5157  0.6118
  899MOL0     C21262  -1.344   4.976   5.348 -0.5966 -1.2280  0.0278
  899MOL0     C21263  -1.341   5.016   5.482 -0.7037  0.0514  0.3989
  899MOL0     C21264  -1.440   5.095   5.536  0.1475 -0.7486  0.5023
  899MOL0     C21265  -1.562   5.130   5.460  0.4883  0.3726  0.6924
  899MOL0     O21266  -1.671   5.179   5.536 -0.3990  0.4939  0.1199
  899MOL0     C21267  -1.797   5.166   5.475 -0.1105  0.2500  0.7478
  899MOL0     C21268  -1.904   5.176   5.579  0.1191  0.9397 -0.6956
  899MOL0     C21269  -1.886   5.064   5.688 -0.8405 -0.0327  0.0839
  899MOL0     C21270  -2.007   5.061   5.782 -0.0516  0.1672  0.4061
  899MOL0     C21271  -1.970   5.003   5.922  0.0483 -0.3333 -0.1336
  899MOL0     C21272  -2.090   5.024   6.015 -0.3786 -0.0819 -0.2109
  899MOL0     C21273  -2.077   4.961   6.154 -0.1280 -0.1574 -0.2209
  899MOL0     C21274  -1.969   5.029   6.250  0.8102  0.6910 -0.2830
  899MOL0    Cl21275  -2.048   5.181   6.291 -0.3283  0.4141 -0.3558
  899MOL0     C21276  -1.559   5.077   5.319  0.1692  0.2622 -0.1737
  899MOL0     C21277  -1.454   5.000   5.271  0.5599  0.9387 -0.2484
  899MOL0     O21278  -1.295   4.718   5.404 -0.1626 -0.4650  0.1928
  899MOL0     C21279  -0.992   4.770   5.231 -0.2399  0.1709  0.4208
  899MOL0     C21280  -0.884   4.699   5.190 -0.5917 -0.1672 -0.4407
  899MOL0     N21281  -0.184   4.611   4.980  0.3144  0.0945  0.1536
  899MOL0     N21282  -0.143   4.615   4.856 -0.2598 -0.3102 -0.1469
  899MOL0     C21283   0.470   4.456   3.866  0.8156 -0.2703  1.4050
  899MOL0     C21284   0.580   4.492   3.778  0.4356  0.0559 -0.3552
  899MOL0     C21285   0.810   4.570   3.418  0.2027 -0.1509 -0.0339
  899MOL0     C21286   0.811   4.667   3.313 -0.0183 -0.0244  0.9325
  899MOL0     C21287   0.922   4.677   3.230 -0.0879 -0.0691 -0.1108
  899MOL0     C21288   1.021   4.584   3.232 -0.2279  0.4914 -0.3885
  899MOL0     O21289   1.119   4.581   3.132  0.2050 -0.5253 -0.5260
  899MOL0     C21290   1.160   4.450   3.078 -0.2177 -0.4776  0.1541
  899MOL0     C21291   1.306   4.458   3.017 -0.3641  0.4921 -0.1871
  899MOL0     C21292   1.354   4.311   2.973  0.5226 -0.2514  0.5941
  899MOL0     C21293   1.505   4.307   2.972 -0.6170 -0.3325 -0.0806
  899MOL0     C21294   1.574   4.378   2.865  0.3609 -0.3362  0.7444
  899MOL0     C21295   1.622   4.425   2.762  0.8088  0.2930  0.5021
  899MOL0     C21296   1.015   4.486   3.337 -0.7075 -0.0739  0.4746
  899MOL0     C21297   0.917   4.480   3.425 -0.4012 -0.3446  0.3127
  899MOL0     H21298   0.497   4.260   3.536 -3.3000  2.4197 -3.5478
  899MOL0     H21299   0.307   4.234   3.675 -2.4105  1.1227  3.0107
  899MOL0     H21300   0.165   4.496   3.882  2.8984  0.4196  0.8557
  899MOL0     H21301   0.118   4.350   3.800  2.9794 -0.7332 -1.1045
  899MOL0     H21302  -0.031   4.419   3.988 -0.9710 -1.0045  2.9897
  899MOL0     H21303   0.020   4.245   3.994  3.1863 -0.8309  0.1840
  899MOL0     H21304   0.172   4.317   4.169 -0.0329  0.5024 -0.1090
  899MOL0     H21305   0.110   4.491   4.157  0.0930  0.1099  0.1900
  899MOL0     H21306  -0.117   4.428   4.213  2.2695  1.6169 -1.2075
  899MOL0     H21307  -0.092   4.258   4.212 -2.1841  0.9063  1.0297
  899MOL0     H21308   0.078   4.294   4.409  0.1799  0.2581  1.9299
  899MOL0     H21309   0.002   4.457   4.399 -1.2192 -0.7410  0.1303
  899MOL0     H21310  -0.224   4.315   4.440 -0.3777 -1.9627  1.0872
  899MOL0     H21311  -0.119   4.193   4.475  0.0484  0.5193 -0.1969
  899MOL0     H21312  -0.158   4.285   4.694 -3.3173  1.6270  0.2188
  899MOL0     H21313  -0.002   4.361   4.660 -0.4051 -0.8485  0.0335
  899MOL0     H21314  -0.261   4.521   4.599  1.6112 -0.7094 -0.9292
  899MOL0     H21315  -0.091   4.569   4.604  2.0686 -0.9760  0.2171
  899MOL0     H21316  -0.354   4.369   4.848 -0.6857  0.8186 -1.2393
  899MOL0     H21317  -0.327   4.353   5.122  2.3409 -0.4366 -2.2358
  899MOL0     H21318  -0.294   4.504   5.200 -1.9572  1.0736  0.3610
  899MOL0     H21319  -0.536   4.426   5.048  1.0350 -2.1828  2.7026
  899MOL0     H21320  -0.519   4.598   5.095 -0.7913  0.7720  2.5891
  899MOL0     H21321  -0.490   4.528   5.332 -1.6709  2.9208 -1.0333
  899MOL0     H21322  -0.539   4.356   5.286 -0.0228 -0.0765 -0.0191
  899MOL0     H21323  -0.678   4.619   5.315 -0.0033 -0.8040  1.9720
  899MOL0     H21324  -0.719   4.457   5.367  0.8266 -0.5276 -0.2904
  899MOL0     H21325  -1.003   4.386   5.178  0.7040  0.2367  1.6482
  899MOL0     H21326  -1.328   4.536   5.242 -0.2473 -0.0840 -0.1024
  899MOL0     H21327  -1.242   4.389   5.185 -0.6259 -0.3068  0.2405
  899MOL0     H21328  -1.224   4.447   5.354 -0.6213 -2.6200  0.0248
  899MOL0     H21329  -1.256   4.986   5.543 -1.6251 -0.8148  1.2748
  899MOL0     H21330  -1.437   5.105   5.645  2.1152 -1.2497  0.5433
  899MOL0     H21331  -1.806   5.250   5.406  0.9121  0.8990  1.3924
  899MOL0     H21332  -1.823   5.078   5.415 -0.0031 -1.0284  2.4849
  899MOL0     H21333  -1.906   5.270   5.635 -0.4285 -0.1903  1.3074
  899MOL0     H21334  -2.005   5.168   5.536 -0.8303  1.4768  1.2732
  899MOL0     H21335  -1.791   5.089   5.736 -0.6241 -1.9909  0.7602
  899MOL0     H21336  -1.873   4.970   5.633 -1.9236  1.8980 -3.8217
  899MOL0     H21337  -2.050   5.160   5.797  0.7461  0.2647  2.5341
  899MOL0     H21338  -2.087   4.990   5.762  0.8297 -0.8903  0.5225
  899MOL0     H21339  -1.885   5.054   5.968  0.3893  0.8441 -1.9660
  899MOL0     H21340  -1.952   4.895   5.926 -1.6810 -0.6359  0.1981
  899MOL0     H21341  -2.103   5.132   6.028 -2.4057 -0.3650  0.4519
  899MOL0     H21342  -2.181   4.987   5.965  1.2753 -2.1221 -1.9517
  899MOL0     H21343  -2.050   4.858   6.129  1.2870  0.1657 -0.0965
  899MOL0     H21344  -2.167   4.961   6.216 -1.0240 -1.4783 -1.4661
  899MOL0     H21345  -1.873   5.049   6.201  1.9570  1.8144  2.2441
  899MOL0     H21346  -1.966   4.960   6.335 -0.4890  0.0527 -0.7355
  899MOL0     H21347  -1.639   5.087   5.246  0.6770  0.0800 -0.7577
  899MOL0     H21348  -1.452   4.964   5.169 -2.5849  0.3881 -0.2045
  899MOL0     H21349  -0.986   4.876   5.256  2.3827 -0.4813  3.1064
  899MOL0     H21350  -0.788   4.751   5.189 -0.9610  0.5637 -2.5826
  899MOL0     H21351   0.467   4.498   3.966 -1.2902 -0.8964  1.6549
  899MOL0     H21352   0.661   4.555   3.811  0.1668  0.8208 -1.1200
  899MOL0     H21353   0.737   4.747   3.317  0.8720  0.8849 -0.3452
  899MOL0     H21354   0.924   4.749   3.149 -1.0358 -1.1473 -1.1329
  899MOL0     H21355   1.158   4.381   3.163  1.1443  3.5938  3.8462
  899MOL0     H21356   1.094   4.426   2.994  0.6267  0.0166 -0.6532
  899MOL0     H21357   1.367   4.514   3.089 -0.5966  1.6832 -0.8802
  899MOL0     H21358   1.313   4.521   2.928  0.7359 -0.2731 -0.6515
  899MOL0     H21359   1.319   4.284   2.873 -0.7879 -2.7053  1.6529
  899MOL0     H21360   1.315   4.246   3.052  0.9214 -0.7338  0.3984
  899MOL0     H21361   1.537   4.203   2.959 -0.4773 -0.0486 -2.3570
  899MOL0     H21362   1.534   4.343   3.071 -1.6226 -0.9552  0.4617
  899MOL0     H21363   1.680   4.480   2.691  1.4664 -0.9531  0.0506
  899MOL0     H21364   1.104   4.423   3.343 -0.2729  0.3229 -1.1868
  899MOL0     H21365   0.923   4.417   3.513  2.2711  0.6146  0.9146
  900MOL0     O21366   5.739  10.647   8.003 -0.6778 -0.2525  0.3219
  900MOL0     C21367   5.795  10.745   7.946 -0.2033  0.9539  0.4883
  900MOL0     O21368   5.750  10.874   7.948 -0.6904 -0.5387  0.0368
  900MOL0     C21369   5.628  10.903   7.997  0.8572 -0.7251 -0.0055
  900MOL0     C21370   5.606  11.032   8.039  0.1403 -0.2728 -0.1522
  900MOL0     C21371   5.480  11.075   8.070  0.1484  0.3517  0.9388
  900MOL0     C21372   5.369  10.996   8.056  0.0530  0.5437  0.2857
  900MOL0     O21373   5.236  11.026   8.088 -0.2784  0.6726 -0.2173
  900MOL0     C21374   5.200  11.118   8.189  0.6665 -0.6739 -0.4043
  900MOL0     C21375   5.054  11.122   8.228 -0.9931 -0.0087  0.4152
  900MOL0     C21376   5.019  11.240   8.309  0.6440  0.0128 -0.7103
  900MOL0     C21377   4.865  11.246   8.337 -0.0594 -0.1378  0.0806
  900MOL0     C21378   4.824  11.322   8.463  0.0483 -0.5249 -0.7930
  900MOL0     C21379   4.801  11.476   8.433  0.2034 -0.2228  0.9023
  900MOL0     C21380   4.760  11.551   8.549  0.0358  0.3619  0.0341
  900MOL0     C21381   4.773  11.702   8.527 -0.3811 -0.9651 -1.2381
  900MOL0     N21382   4.735  11.767   8.651 -0.0742 -0.7914 -0.2239
  900MOL0     C21383   4.609  11.825   8.677  0.3197 -0.3513  0.0812
  900MOL0     C21384   4.635  11.878   8.798  0.1803 -0.0877 -0.5149
  900MOL0     C21385   4.547  11.966   8.885 -0.4073 -0.4907  0.1408
  900MOL0     C21386   4.620  12.072   8.965 -0.2798 -0.7663  0.4818
  900MOL0     C21387   4.720  12.164   8.888 -0.1289 -0.1684 -0.0772
  900MOL0     C21388   4.650  12.231   8.765  0.1731 -0.2327  0.1345
  900MOL0     O21389   4.547  12.325   8.827 -0.4004 -0.5030  0.7041
  900MOL0     C21390   4.437  12.342   8.752  0.0978  0.1454  0.2266
  900MOL0     C21391   4.442  12.355   8.616 -0.6513  0.4172  0.6243
  900MOL0     C21392   4.328  12.379   8.542  0.1541  1.0291  0.3517
  900MOL0     C21393   4.348  12.427   8.403 -0.3159 -0.3089  0.1137
  900MOL0     C21394   4.207  12.396   8.613  0.7096  0.2265  0.1218
  900MOL0     C21395   4.078  12.423   8.539 -0.9301  0.0605  0.4362
  900MOL0     O21396   4.058  12.549   8.481 -0.4302  1.0083  0.7619
  900MOL0     C21397   3.936  12.587   8.445 -0.8333 -0.7407  0.1262
  900MOL0     C21398   3.882  12.561   8.320 -0.3557  0.5760 -0.0696
  900MOL0     C21399   3.757  12.600   8.296  0.1557 -0.0573 -0.0984
  900MOL0     C21400   3.681  12.671   8.391  0.0866  0.2480  0.3484
  900MOL0     O21401   3.551  12.695   8.365 -0.2033 -0.4949 -0.4270
  900MOL0     C21402   3.494  12.669   8.237  0.0716  0.1645 -0.2368
  900MOL0     C21403   3.353  12.731   8.245 -0.1009 -0.1970 -0.0111
  900MOL0     C21404   3.249  12.659   8.326 -0.7315 -0.2721 -0.1994
  900MOL0     C21405   3.114  12.729   8.336 -0.0226  0.6604  0.2083
  900MOL0     C21406   3.003  12.635   8.390 -0.1577  0.4378 -0.2655
  900MOL0     C21407   2.875  12.699   8.431  0.6942  0.2225  0.4530
  900MOL0     C21408   2.826  12.782   8.319  0.3028 -0.2184 -0.1714
  900MOL0     C21409   2.689  12.841   8.352  1.0765 -0.1438  0.0614
  900MOL0    Cl21410   2.553  12.732   8.294 -0.1905  0.1104  0.0038
  900MOL0     C21411   3.733  12.690   8.523 -0.1950 -0.1958  0.2369
  900MOL0     C21412   3.865  12.645   8.544 -0.1311 -0.0615 -0.5900
  900MOL0     O21413   3.990  12.341   8.563  0.1113 -0.2863  0.2169
  900MOL0     C21414   4.199  12.369   8.745 -0.0140  0.4748 -0.1703
  900MOL0     C21415   4.316  12.351   8.815  1.0407  0.4977 -0.3177
  900MOL0     N21416   4.763  11.850   8.845  0.3294 -0.6651  0.9888
  900MOL0     N21417   4.818  11.778   8.751 -0.8840  0.1583  0.1987
  900MOL0     C21418   5.386  10.868   8.016  0.7622 -0.0239  1.0036
  900MOL0     C21419   5.515  10.830   7.964  0.3669  0.2025 -0.2740
  900MOL0     C21420   5.937  10.728   7.872  0.7370 -0.1405  0.1100
  900MOL0     C21421   5.997  10.602   7.849  0.6034  0.0984  0.7606
  900MOL0     C21422   6.123  10.599   7.787 -1.2350  0.9027  0.3943
  900MOL0     C21423   6.186  10.716   7.742  0.0467 -0.0582  0.2602
  900MOL0     O21424   6.314  10.706   7.684  0.5146 -0.4459  0.5506
  900MOL0     C21425   6.375  10.822   7.621  0.5520  0.1767  0.5116
  900MOL0     C21426   6.488  10.766   7.541 -0.7357 -0.0786  0.2175
  900MOL0     C21427   6.615  10.750   7.629  1.0496  0.3004  0.7185
  900MOL0     C21428   6.716  10.652   7.560  0.0789 -0.9548  0.2881
  900MOL0     C21429   6.672  10.517   7.533 -0.0374  0.7209 -0.5494
  900MOL0     C21430   6.599  10.421   7.513 -0.0848  0.1021  1.0660
  900MOL0     C21431   6.123  10.832   7.763  0.0848  0.3833 -0.1333
  900MOL0     C21432   6.008  10.837   7.836  0.3958  0.0228  0.0165
  900MOL0     H21433   5.683  11.108   8.039  0.9774 -1.1018 -0.2914
  900MOL0     H21434   5.462  11.179   8.096 -0.0897  0.8603 -1.0909
  900MOL0     H21435   5.263  11.099   8.277  0.9426  0.6569 -0.3011
  900MOL0     H21436   5.236  11.217   8.159 -1.1593  0.3695  0.6692
  900MOL0     H21437   4.998  11.132   8.135 -0.6205  1.3885  0.3222
  900MOL0     H21438   5.040  11.021   8.269  0.9835 -0.3777  0.2856
  900MOL0     H21439   5.067  11.227   8.406 -0.0705  1.2969 -0.1722
  900MOL0     H21440   5.050  11.331   8.256  2.3376 -2.0852 -3.6610
  900MOL0     H21441   4.813  11.289   8.251  4.7373  2.4172 -1.9325
  900MOL0     H21442   4.825  11.146   8.359  0.9978 -0.6558 -0.2786
  900MOL0     H21443   4.736  11.276   8.508  1.0345 -1.9323 -0.2434
  900MOL0     H21444   4.900  11.308   8.540  1.3963 -0.6524 -2.0967
  900MOL0     H21445   4.892  11.516   8.388 -0.6784  2.1749  1.1137
  900MOL0     H21446   4.725  11.492   8.356 -0.2982 -0.6596  1.2984
  900MOL0     H21447   4.660  11.526   8.587 -0.5890  1.3385 -0.9108
  900MOL0     H21448   4.822  11.528   8.637 -3.1570 -2.6276  1.7573
  900MOL0     H21449   4.707  11.743   8.450 -0.7388  1.0576  0.0650
  900MOL0     H21450   4.879  11.716   8.503  0.0770 -2.0473  0.0752
  900MOL0     H21451   4.523  11.834   8.611 -1.4524  1.1602  2.4687
  900MOL0     H21452   4.474  12.014   8.819  1.5000  0.8434 -1.0872
  900MOL0     H21453   4.493  11.903   8.956  0.4330 -0.7143  0.5940
  900MOL0     H21454   4.672  12.018   9.044  1.0312 -0.7995 -0.3845
  900MOL0     H21455   4.549  12.131   9.024  0.7278  1.1002 -0.0790
  900MOL0     H21456   4.802  12.101   8.854 -0.6084  0.1092 -1.8618
  900MOL0     H21457   4.752  12.238   8.963 -0.9955 -0.8648  1.0178
  900MOL0     H21458   4.594  12.157   8.706 -1.5717  0.6494  0.6371
  900MOL0     H21459   4.724  12.291   8.710  2.2192 -0.1674  2.7664
  900MOL0     H21460   4.529  12.332   8.556  0.1425  4.0345  0.1911
  900MOL0     H21461   4.448  12.407   8.365 -0.1417  0.4883  0.1423
  900MOL0     H21462   4.277  12.368   8.343  0.1348 -1.2182  0.4450
  900MOL0     H21463   4.325  12.533   8.389 -0.3788 -0.4250 -0.7116
  900MOL0     H21464   3.939  12.499   8.251 -3.0067  1.0086 -2.8716
  900MOL0     H21465   3.716  12.569   8.200 -1.7709 -2.3527  1.3432
  900MOL0     H21466   3.544  12.717   8.152 -2.7141  2.1179 -0.9187
  900MOL0     H21467   3.477  12.564   8.212  2.2176 -0.1892 -0.4090
  900MOL0     H21468   3.370  12.822   8.304 -0.5961 -0.2415  0.2014
  900MOL0     H21469   3.323  12.748   8.141 -2.2945 -4.5337 -0.2893
  900MOL0     H21470   3.297  12.652   8.424  3.9324  1.6555 -2.0615
  900MOL0     H21471   3.238  12.562   8.277 -0.2580  0.4799 -1.8528
  900MOL0     H21472   3.125  12.804   8.415  0.4690  0.4499  0.3406
  900MOL0     H21473   3.084  12.771   8.239 -1.9976 -1.4271 -0.1558
  900MOL0     H21474   3.034  12.572   8.474 -0.8624 -2.9340 -2.3612
  900MOL0     H21475   2.976  12.570   8.306 -3.2139 -2.0342  2.3638
  900MOL0     H21476   2.807  12.618   8.455  0.5775  0.5773  1.3589
  900MOL0     H21477   2.876  12.763   8.519  0.1412 -0.0178  0.6365
  900MOL0     H21478   2.808  12.708   8.241  1.0055 -1.0423  0.4220
  900MOL0     H21479   2.896  12.861   8.287  1.6801 -2.1016 -2.1205
  900MOL0     H21480   2.668  12.937   8.303 -2.2329 -1.3903 -1.2659
  900MOL0     H21481   2.676  12.860   8.459  1.5961  0.0789  0.0857
  900MOL0     H21482   3.660  12.718   8.599  2.6023 -0.6391  3.3018
  900MOL0     H21483   3.906  12.658   8.643 -0.9633  2.4689 -0.5011
  900MOL0     H21484   4.107  12.373   8.803  1.9184 -0.4222  3.2573
  900MOL0     H21485   4.309  12.339   8.923 -1.1879 -0.2627 -0.5049
  900MOL0     H21486   5.304  10.800   7.996  1.2912 -0.5849  0.7240
  900MOL0     H21487   5.519  10.731   7.919 -1.7365 -0.5159  0.9942
  900MOL0     H21488   5.943  10.515   7.886 -1.3581  1.2858  0.8191
  900MOL0     H21489   6.186  10.512   7.799  2.5960  2.9968 -2.2812
  900MOL0     H21490   6.302  10.872   7.556  1.6720 -0.3907 -1.2427
  900MOL0     H21491   6.404  10.896   7.696 -1.6805  1.1482  0.5024
  900MOL0     H21492   6.519  10.830   7.457 -4.4924 -2.1681 -3.1383
  900MOL0     H21493   6.454  10.672   7.497  1.3027 -1.5217  1.5469
  900MOL0     H21494   6.586  10.708   7.726 -0.9261  0.3451  0.1913
  900MOL0     H21495   6.656  10.850   7.645  0.8450  0.5637 -0.3402
  900MOL0     H21496   6.814  10.655   7.610  0.9731 -1.4686 -1.3404
  900MOL0     H21497   6.743  10.704   7.467  2.3877  0.9979  1.9119
  900MOL0     H21498   6.531  10.344   7.481 -1.2193  2.3425 -2.5366
  900MOL0     H21499   6.164  10.928   7.736 -2.3975  1.6510  0.3740
  900MOL0     H21500   5.975  10.936   7.866  1.2219  0.9624 -1.9476
  901MOL0     O21501   6.564   7.724   0.821  0.0811 -0.0875 -0.8870
  901MOL0     C21502   6.675   7.744   0.865  0.7960 -0.8700  0.5535
  901MOL0     O21503   6.706   7.844   0.960  0.1776 -0.3855  0.4803
  901MOL0     C21504   6.614   7.929   1.005  0.8590 -0.2268  0.4055
  901MOL0     C21505   6.584   7.956   1.132 -0.9219  0.3550 -0.7237
  901MOL0     C21506   6.503   8.047   1.171 -0.1466 -0.3726 -0.3163
  901MOL0     C21507   6.449   8.143   1.083  0.5150 -1.0287 -0.5053
  901MOL0     O21508   6.357   8.243   1.109  0.2997  0.3889 -0.3587
  901MOL0     C21509   6.349   8.306   1.233 -0.3348  0.8357 -0.2134
  901MOL0     C21510   6.253   8.418   1.221  0.1209  0.1970  0.4711
  901MOL0     C21511   6.111   8.387   1.231  0.5362 -1.0339 -0.5052
  901MOL0     C21512   6.035   8.514   1.185  0.2679  0.0943 -0.8828
  901MOL0     C21513   5.881   8.473   1.186 -0.4645  0.0494 -0.2157
  901MOL0     C21514   5.806   8.607   1.188  0.1185 -0.0497  0.4826
  901MOL0     C21515   5.655   8.604   1.141  0.1143 -0.0754 -0.5066
  901MOL0     C21516   5.558   8.555   1.250  0.3571 -0.8394 -0.6176
  901MOL0     N21517   5.509   8.667   1.338  0.7301  0.1812  0.0229
  901MOL0     C21518   5.578   8.780   1.390 -0.3031 -0.4899  0.1796
  901MOL0     C21519   5.482   8.880   1.401 -0.4979  0.6391 -0.6300
  901MOL0     C21520   5.506   9.028   1.434 -0.0246  0.6799 -0.3441
  901MOL0     C21521   5.443   9.055   1.567  0.5301  0.6476  0.0913
  901MOL0     C21522   5.401   9.197   1.597 -0.8482  0.6848 -0.7556
  901MOL0     C21523   5.478   9.315   1.544 -0.6519 -0.3875  0.2901
  901MOL0     O21524   5.398   9.434   1.564  0.3210 -0.0191 -0.3865
  901MOL0     C21525   5.373   9.470   1.692  0.4768 -0.2418 -0.2562
  901MOL0     C21526   5.465   9.464   1.803  0.1027  0.7354  0.3513
  901MOL0     C21527   5.427   9.521   1.927 -0.1851 -0.1656 -0.2554
  901MOL0     C21528   5.529   9.496   2.034  0.7942  0.5441 -1.1035
  901MOL0     C21529   5.302   9.596   1.935  0.2019  0.1168  0.0354
  901MOL0     C21530   5.253   9.668   2.051  0.4711  0.0592  0.1684
  901MOL0     O21531   5.142   9.756   2.022 -0.2342  0.4752 -0.2147
  901MOL0     C21532   5.091   9.822   2.128 -0.2682 -0.0907  0.5053
  901MOL0     C21533   4.998   9.750   2.204 -0.1909  0.1224 -0.9031
  901MOL0     C21534   4.936   9.804   2.318 -0.6735  0.0228  0.4514
  901MOL0     C21535   4.975   9.927   2.363  0.5438 -0.1603  0.8666
  901MOL0     O21536   4.918   9.976   2.482 -0.6688  0.4331  0.2267
  901MOL0     C21537   4.777  10.003   2.464 -0.0924 -0.6201 -0.0809
  901MOL0     C21538   4.727  10.059   2.590 -0.5531  0.4355 -0.5297
  901MOL0     C21539   4.581  10.039   2.586 -0.3193  0.4636 -0.6419
  901MOL0     C21540   4.506  10.132   2.678  0.2561  0.8285 -0.1528
  901MOL0     C21541   4.345  10.125   2.668  0.3781  0.0729  0.6448
  901MOL0     C21542   4.292  10.195   2.793 -0.3894  0.7454 -0.1109
  901MOL0     C21543   4.150  10.162   2.828  0.0846  0.5339 -0.5918
  901MOL0     C21544   4.072  10.231   2.941  0.6389 -0.7035  0.1440
  901MOL0    Cl21545   3.976  10.363   2.887  0.0798  0.1465  0.0529
  901MOL0     C21546   5.080   9.994   2.292 -0.6574 -0.0400 -0.3086
  901MOL0     C21547   5.137   9.949   2.171  0.0104  0.6470 -0.3984
  901MOL0     O21548   5.313   9.657   2.158  0.0997 -0.2370 -0.5810
  901MOL0     C21549   5.221   9.605   1.819 -0.4717 -0.0873  0.5532
  901MOL0     C21550   5.250   9.542   1.708  1.2603  0.5558 -0.2171
  901MOL0     N21551   5.359   8.824   1.371  0.8809  0.1450 -0.0886
  901MOL0     N21552   5.376   8.705   1.342  0.1788  0.3717  0.3101
  901MOL0     C21553   6.466   8.117   0.942 -0.3249  0.5040 -0.6986
  901MOL0     C21554   6.555   8.017   0.904  1.0217 -0.0988  0.1945
  901MOL0     C21555   6.783   7.657   0.817 -0.8104  0.3743  0.2350
  901MOL0     C21556   6.911   7.659   0.885 -0.1112 -0.6961 -0.0878
  901MOL0     C21557   7.017   7.589   0.830 -0.5776  0.3584 -0.3473
  901MOL0     C21558   6.997   7.493   0.718  0.7261 -0.8354 -0.1271
  901MOL0     O21559   7.089   7.400   0.689 -1.0189 -0.3938  0.7316
  901MOL0     C21560   7.227   7.449   0.643  0.1493 -0.5738 -0.1745
  901MOL0     C21561   7.207   7.577   0.554  0.0125  0.7911 -0.0004
  901MOL0     C21562   7.343   7.628   0.506 -0.0963  0.1362  0.3394
  901MOL0     C21563   7.422   7.528   0.428 -0.4176  0.0990 -0.1406
  901MOL0     C21564   7.535   7.592   0.362  0.0074 -0.4559 -0.9542
  901MOL0     C21565   7.602   7.665   0.296 -1.1394  0.1729  0.2353
  901MOL0     C21566   6.877   7.488   0.656  0.9309  1.1707 -0.1725
  901MOL0     C21567   6.770   7.580   0.703  0.1253  0.5201 -0.2463
  901MOL0     H21568   6.624   7.903   1.218 -1.4281  0.3395 -0.4886
  901MOL0     H21569   6.476   8.058   1.276  0.6959  0.2030 -0.1524
  901MOL0     H21570   6.316   8.235   1.309  0.8060 -0.8517 -1.2248
  901MOL0     H21571   6.446   8.349   1.258 -0.5514  2.4003 -1.8431
  901MOL0     H21572   6.280   8.483   1.304  0.9482 -1.6995  1.7550
  901MOL0     H21573   6.269   8.484   1.135 -1.0571  0.9922  0.8323
  901MOL0     H21574   6.098   8.302   1.164  0.8294 -0.5233 -1.2227
  901MOL0     H21575   6.083   8.356   1.332 -0.6685 -0.9965 -0.8199
  901MOL0     H21576   6.069   8.596   1.248 -3.2291  1.2378 -0.2331
  901MOL0     H21577   6.056   8.539   1.080  0.0408 -1.0889 -1.2221
  901MOL0     H21578   5.859   8.406   1.103 -1.6390 -1.2447  1.0917
  901MOL0     H21579   5.849   8.423   1.278  1.3857  0.1069  0.4995
  901MOL0     H21580   5.823   8.668   1.277  1.3614  1.9829 -1.0424
  901MOL0     H21581   5.843   8.668   1.105 -2.7508 -0.2848 -1.0971
  901MOL0     H21582   5.626   8.708   1.124  1.2490  0.1024 -1.5450
  901MOL0     H21583   5.641   8.533   1.059  1.1624 -2.3166  1.1469
  901MOL0     H21584   5.615   8.482   1.309 -1.8280 -0.5536  2.0229
  901MOL0     H21585   5.468   8.511   1.208 -0.4345  2.0823 -2.2554
  901MOL0     H21586   5.683   8.794   1.415  0.3569 -2.5429 -1.1902
  901MOL0     H21587   5.612   9.053   1.445 -0.4029  1.7001  1.3844
  901MOL0     H21588   5.465   9.088   1.352 -1.1045  2.1160  1.1860
  901MOL0     H21589   5.510   9.017   1.645  0.6249 -2.6235 -1.4174
  901MOL0     H21590   5.354   8.992   1.577 -2.7213  4.0069 -4.0694
  901MOL0     H21591   5.379   9.202   1.704 -1.3110 -1.5147 -0.6948
  901MOL0     H21592   5.304   9.207   1.549 -0.7520  0.1295 -1.0731
  901MOL0     H21593   5.491   9.290   1.438 -2.1936 -1.9908  0.4401
  901MOL0     H21594   5.577   9.330   1.590 -1.3135  0.3477  1.5491
  901MOL0     H21595   5.561   9.415   1.794 -1.2063 -1.8348 -0.5347
  901MOL0     H21596   5.484   9.442   2.117  2.4951  1.4632  0.4838
  901MOL0     H21597   5.606   9.423   2.008 -0.4337 -1.6232  0.9807
  901MOL0     H21598   5.563   9.593   2.072 -1.2275  0.4881  1.0288
  901MOL0     H21599   4.963   9.650   2.181 -1.3886 -0.2281  2.0362
  901MOL0     H21600   4.862   9.741   2.367  1.1448 -1.9963  0.7273
  901MOL0     H21601   4.768  10.069   2.377  3.3738 -0.9833 -0.8817
  901MOL0     H21602   4.726   9.912   2.433 -1.2582  0.1284 -0.4552
  901MOL0     H21603   4.779  10.016   2.677  0.0623  3.7146  0.8839
  901MOL0     H21604   4.752  10.165   2.592  0.8593  0.1166  0.2980
  901MOL0     H21605   4.557   9.936   2.615  0.2770 -0.4907 -3.3343
  901MOL0     H21606   4.541  10.056   2.486  0.1827 -1.4030 -1.1855
  901MOL0     H21607   4.539  10.102   2.778  1.9298  1.1785 -0.5756
  901MOL0     H21608   4.535  10.237   2.666 -3.3206  2.1368  1.2415
  901MOL0     H21609   4.322  10.020   2.649  0.0314  0.6838 -3.0744
  901MOL0     H21610   4.305  10.181   2.583 -0.8347 -2.6710 -0.7249
  901MOL0     H21611   4.347  10.166   2.883 -0.5709 -1.4294 -0.6554
  901MOL0     H21612   4.306  10.303   2.781 -0.5557  0.6053 -1.7990
  901MOL0     H21613   4.150  10.055   2.854 -0.7162  0.9921  1.5093
  901MOL0     H21614   4.091  10.165   2.736 -0.9439  1.0721  0.0717
  901MOL0     H21615   4.136  10.258   3.025  1.4972  0.9261 -0.9734
  901MOL0     H21616   3.993  10.164   2.978 -1.5906  1.3069 -0.7284
  901MOL0     H21617   5.112  10.096   2.311 -0.2891 -0.3356  0.7127
  901MOL0     H21618   5.211  10.005   2.115 -3.4753  2.5602 -3.5325
  901MOL0     H21619   5.137   9.673   1.810  0.0564  0.3535 -1.2987
  901MOL0     H21620   5.176   9.559   1.631  1.1098  0.9039  0.0056
  901MOL0     H21621   6.427   8.181   0.863 -1.3009  0.2677 -0.4221
  901MOL0     H21622   6.571   7.999   0.798 -2.6516  3.1764 -1.1428
  901MOL0     H21623   6.928   7.716   0.975 -1.7988  0.6714 -0.5946
  901MOL0     H21624   7.113   7.592   0.880 -1.2309  1.7633  0.8884
  901MOL0     H21625   7.291   7.468   0.730 -0.0251  0.4033 -0.2544
  901MOL0     H21626   7.289   7.376   0.589  1.0962  1.5886 -2.1508
  901MOL0     H21627   7.161   7.662   0.604 -1.2942  1.8414 -2.7691
  901MOL0     H21628   7.150   7.556   0.463  0.8487 -1.0416 -0.1332
  901MOL0     H21629   7.410   7.658   0.588  0.6019 -0.2747 -0.0665
  901MOL0     H21630   7.329   7.719   0.447 -0.3316  0.7889  1.3708
  901MOL0     H21631   7.373   7.474   0.347 -0.1300  0.3361 -0.4732
  901MOL0     H21632   7.462   7.446   0.488 -3.2639 -1.0458  0.3206
  901MOL0     H21633   7.686   7.714   0.251 -0.0486 -0.9538  0.9793
  901MOL0     H21634   6.863   7.414   0.577  2.6055  1.5915 -0.8969
  901MOL0     H21635   6.680   7.583   0.642  0.3450 -1.2515 -0.7236
  902MOL0     O21636   1.172   7.343  11.083  0.0976  0.5622  0.2290
  902MOL0     C21637   1.104   7.367  11.186 -0.4775  0.4526 -0.2542
  902MOL0     O21638   1.066   7.491  11.231 -0.6549 -0.1532  0.5002
  902MOL0     C21639   1.108   7.595  11.153 -0.2160  0.2555 -0.0739
  902MOL0     C21640   1.038   7.631  11.041 -0.1232  0.1477 -0.7360
  902MOL0     C21641   1.082   7.738  10.963  0.3395 -0.3096 -0.3918
  902MOL0     C21642   1.195   7.811  10.994 -0.7809 -1.2616 -0.4068
  902MOL0     O21643   1.223   7.909  10.912 -0.0450 -0.2270 -0.1140
  902MOL0     C21644   1.214   8.041  10.964 -0.5521 -0.2234 -0.1471
  902MOL0     C21645   1.207   8.136  10.849 -0.3175 -0.9484  0.9353
  902MOL0     C21646   1.115   8.101  10.731  0.9576 -0.2175  0.3533
  902MOL0     C21647   0.965   8.062  10.764  0.3524 -0.4891  0.4173
  902MOL0     C21648   0.874   8.055  10.635 -0.3851 -0.0178  0.0778
  902MOL0     C21649   0.730   8.030  10.657  0.6064 -0.1933  0.0736
  902MOL0     C21650   0.663   8.145  10.745 -0.0904 -0.5527  0.6130
  902MOL0     C21651   0.506   8.157  10.725  0.0104  0.8929  0.1589
  902MOL0     N21652   0.443   8.050  10.811 -0.0358  0.1357 -0.1574
  902MOL0     C21653   0.403   7.926  10.762 -0.2991 -0.4273 -1.1792
  902MOL0     C21654   0.372   7.855  10.875  0.8372  0.2502  0.5619
  902MOL0     C21655   0.312   7.717  10.879 -0.2974  0.2320 -0.6301
  902MOL0     C21656   0.169   7.722  10.828 -0.0371  0.2839 -0.0786
  902MOL0     C21657   0.127   7.574  10.818  0.4560 -0.1435  0.2605
  902MOL0     C21658  -0.020   7.566  10.847  0.1838  0.1854  0.4677
  902MOL0     O21659  -0.089   7.661  10.767 -0.1397 -0.3377 -0.2508
  902MOL0     C21660  -0.221   7.654  10.753 -0.0132 -0.0875  0.2216
  902MOL0     C21661  -0.307   7.614  10.849 -0.5285  0.7353  0.1120
  902MOL0     C21662  -0.445   7.597  10.831 -0.2423 -0.4552  0.0926
  902MOL0     C21663  -0.512   7.533  10.953  0.0242  0.2363 -0.5884
  902MOL0     C21664  -0.503   7.626  10.705 -0.1373 -0.1205 -0.0724
  902MOL0     C21665  -0.649   7.621  10.676  0.1179  0.0613  0.0496
  902MOL0     O21666  -0.685   7.630  10.546 -0.2008  0.5222  1.0284
  902MOL0     C21667  -0.815   7.643  10.510 -1.2692  0.7990  0.2993
  902MOL0     C21668  -0.923   7.567  10.565 -0.6338  1.2195 -0.1529
  902MOL0     C21669  -1.052   7.588  10.516 -0.3088  0.1150  0.6096
  902MOL0     C21670  -1.083   7.692  10.425  0.1154  0.7214 -0.7197
  902MOL0     O21671  -1.213   7.707  10.376  0.8386  0.0633  0.9812
  902MOL0     C21672  -1.238   7.815  10.276  0.5348 -0.0240  0.7849
  902MOL0     C21673  -1.382   7.813  10.243 -0.5464 -0.1936  0.9196
  902MOL0     C21674  -1.442   7.686  10.181 -0.2381  0.3741  1.0708
  902MOL0     C21675  -1.591   7.702  10.148 -0.0309 -1.0126  0.1211
  902MOL0     C21676  -1.650   7.594  10.052  0.3482 -0.2379 -0.2855
  902MOL0     C21677  -1.800   7.604  10.019  0.6768  0.1231  0.1823
  902MOL0     C21678  -1.863   7.487   9.944  1.1935  0.0872  0.2117
  902MOL0     C21679  -1.773   7.418   9.855 -0.6508 -1.3888  0.4179
  902MOL0    Cl21680  -1.869   7.307   9.762  0.6148 -0.2997  0.0122
  902MOL0     C21681  -0.979   7.770  10.383 -0.1152  0.3653  0.5104
  902MOL0     C21682  -0.844   7.751  10.419  0.7720  0.2351 -0.6591
  902MOL0     O21683  -0.728   7.616  10.770 -0.7287  0.5263  0.4459
  902MOL0     C21684  -0.422   7.685  10.602  0.2167  0.6218  0.0020
  902MOL0     C21685  -0.282   7.695  10.629  0.4583 -0.8842  0.0942
  902MOL0     N21686   0.357   7.944  10.978  0.0457 -0.1828 -0.7298
  902MOL0     N21687   0.411   8.056  10.946 -0.3035  0.0093 -0.0224
  902MOL0     C21688   1.257   7.790  11.119  1.3773 -0.4131 -0.2697
  902MOL0     C21689   1.208   7.680  11.196 -0.7196 -0.7753  1.3549
  902MOL0     C21690   1.060   7.256  11.280 -0.4221  0.4326 -0.6334
  902MOL0     C21691   0.974   7.284  11.385 -0.3621  0.1265  0.1305
  902MOL0     C21692   0.927   7.180  11.466  0.4345  0.0622  0.8045
  902MOL0     C21693   0.973   7.048  11.450 -0.4546  0.2312  0.0788
  902MOL0     O21694   0.923   6.939  11.506 -0.0742 -0.4809  0.0195
  902MOL0     C21695   0.853   6.938  11.628  0.2823  0.3986 -0.4191
  902MOL0     C21696   0.932   6.991  11.754 -0.3457  0.4184  0.0957
  902MOL0     C21697   0.831   6.990  11.868  0.3069  0.0563  0.1428
  902MOL0     C21698   0.782   7.135  11.886  0.3850 -0.2861  0.5259
  902MOL0     C21699   0.685   7.153  11.982  0.7232  0.2206  0.2673
  902MOL0     C21700   0.601   7.181  12.068 -0.0041  0.6119  0.8791
  902MOL0     C21701   1.071   7.026  11.351 -0.1515  0.0310 -0.3689
  902MOL0     C21702   1.118   7.127  11.273  0.2328  0.1576 -0.9254
  902MOL0     H21703   0.948   7.574  11.020  0.5939 -0.6085 -1.8646
  902MOL0     H21704   1.035   7.757  10.867  1.2284  0.7355 -0.6405
  902MOL0     H21705   1.125   8.040  11.027  0.1774 -1.7025  0.9133
  902MOL0     H21706   1.298   8.059  11.032 -0.2315  0.4154 -0.6993
  902MOL0     H21707   1.182   8.233  10.894 -0.3194 -1.7295  2.6871
  902MOL0     H21708   1.306   8.138  10.802 -1.2390 -3.2193 -1.3320
  902MOL0     H21709   1.105   8.189  10.667 -2.9664 -1.0237 -0.4119
  902MOL0     H21710   1.165   8.031  10.664  2.1966  1.9121 -1.0941
  902MOL0     H21711   0.971   7.965  10.815 -0.3115  0.2096  1.9018
  902MOL0     H21712   0.919   8.133  10.833  1.6078  0.1510  0.6297
  902MOL0     H21713   0.880   8.144  10.572 -3.0464  0.9008  1.0052
  902MOL0     H21714   0.919   7.974  10.576  0.3666 -2.0726  3.2158
  902MOL0     H21715   0.675   8.023  10.563 -1.0951  0.2990  0.9944
  902MOL0     H21716   0.716   7.929  10.696  1.3493  0.0817  1.0880
  902MOL0     H21717   0.696   8.134  10.849  1.1808 -1.8761  0.1147
  902MOL0     H21718   0.698   8.241  10.708  0.3235 -0.5167  1.0806
  902MOL0     H21719   0.481   8.138  10.620  1.2893 -0.7269  0.0967
  902MOL0     H21720   0.469   8.255  10.758 -1.9738  0.3593 -0.3350
  902MOL0     H21721   0.401   7.885  10.661 -3.8071  1.6351 -2.1081
  902MOL0     H21722   0.376   7.642  10.831 -1.2213 -1.8046  1.0993
  902MOL0     H21723   0.306   7.667  10.976  0.9712 -0.7064 -1.0097
  902MOL0     H21724   0.159   7.751  10.723 -4.6983 -0.4164 -0.0540
  902MOL0     H21725   0.114   7.785  10.900  0.3600 -0.0645  0.5361
  902MOL0     H21726   0.181   7.501  10.878  0.4152 -1.3011 -1.0559
  902MOL0     H21727   0.143   7.547  10.713  0.9058 -0.4388  0.4016
  902MOL0     H21728  -0.033   7.586  10.954 -3.5741 -1.9103  0.5600
  902MOL0     H21729  -0.060   7.468  10.818 -3.1322  1.9334 -1.3312
  902MOL0     H21730  -0.272   7.582  10.946  0.6302  1.0732 -0.1653
  902MOL0     H21731  -0.463   7.573  11.043  0.6884  0.2469 -0.9517
  902MOL0     H21732  -0.619   7.555  10.967  0.1722  0.1271  0.9375
  902MOL0     H21733  -0.508   7.424  10.950  0.0104  0.2404 -3.1054
  902MOL0     H21734  -0.902   7.493  10.642 -3.7609  1.6710  1.3076
  902MOL0     H21735  -1.128   7.521  10.556  1.3521 -1.5916  1.0638
  902MOL0     H21736  -1.207   7.915  10.309  0.6102 -0.3527  1.7423
  902MOL0     H21737  -1.177   7.795  10.188  0.7963 -1.4155  1.2650
  902MOL0     H21738  -1.442   7.839  10.330  0.2887 -0.2748  1.5342
  902MOL0     H21739  -1.400   7.887  10.164 -3.4011 -0.3305  1.3510
  902MOL0     H21740  -1.429   7.596  10.241 -1.8200 -0.0643  0.7785
  902MOL0     H21741  -1.386   7.668  10.088 -1.4955  0.9733  0.1645
  902MOL0     H21742  -1.641   7.707  10.245  0.3296 -2.4639  0.4060
  902MOL0     H21743  -1.598   7.796  10.092  3.4570 -1.1576 -0.8266
  902MOL0     H21744  -1.632   7.496  10.099  1.5021 -0.1118 -0.4326
  902MOL0     H21745  -1.599   7.605   9.956  0.9672  2.1837  0.2613
  902MOL0     H21746  -1.859   7.624  10.109  1.4842 -1.7374  1.1917
  902MOL0     H21747  -1.810   7.695   9.959 -1.8927 -0.3674 -0.2323
  902MOL0     H21748  -1.948   7.536   9.897  0.6464  2.3663  3.2209
  902MOL0     H21749  -1.892   7.422  10.028  0.8280  3.4548  2.9161
  902MOL0     H21750  -1.690   7.372   9.910  1.3249  3.1447  1.7014
  902MOL0     H21751  -1.720   7.492   9.795 -2.6108  0.1398  0.4672
  902MOL0     H21752  -0.991   7.844  10.304 -4.0975 -1.7560 -1.1577
  902MOL0     H21753  -0.769   7.814  10.373  0.2469  0.4095 -1.2862
  902MOL0     H21754  -0.462   7.702  10.503 -2.2856  4.4106  1.4315
  902MOL0     H21755  -0.207   7.739  10.564  0.8705  4.2785  3.4596
  902MOL0     H21756   1.341   7.847  11.157 -0.3223  0.9584  1.6417
  902MOL0     H21757   1.256   7.660  11.292  0.6538  0.1864  0.9029
  902MOL0     H21758   0.925   7.381  11.389  0.7416  0.8385 -1.8991
  902MOL0     H21759   0.854   7.219  11.536  1.6774  0.6601  1.8046
  902MOL0     H21760   0.766   7.005  11.623  1.0973  1.4224 -1.7971
  902MOL0     H21761   0.816   6.837  11.644 -0.1465  0.6013 -0.1173
  902MOL0     H21762   0.963   7.094  11.736 -0.7858  0.8653  1.7765
  902MOL0     H21763   1.020   6.928  11.771 -0.7330 -0.6119 -1.4167
  902MOL0     H21764   0.878   6.952  11.959 -0.9540 -3.1045 -0.4109
  902MOL0     H21765   0.748   6.923  11.841  1.3944 -0.4308 -2.1893
  902MOL0     H21766   0.739   7.177  11.795 -0.0132  3.6258  2.2971
  902MOL0     H21767   0.869   7.195  11.916 -0.3811 -0.4486  3.3221
  902MOL0     H21768   0.525   7.207  12.139 -1.8739 -3.2756  0.5776
  902MOL0     H21769   1.097   6.922  11.329 -1.0420 -0.6802  1.6864
  902MOL0     H21770   1.196   7.111  11.200 -0.9395 -0.1168 -2.1493
  903MOL0     O21771   4.071   8.426   9.673  0.0827 -0.3214  0.9444
  903MOL0     C21772   4.118   8.494   9.580 -0.1577 -0.1338 -0.4803
  903MOL0     O21773   4.051   8.523   9.459 -0.4694  1.0998 -0.1034
  903MOL0     C21774   3.915   8.513   9.455 -0.0757  1.1152  0.2732
  903MOL0     C21775   3.861   8.388   9.424  0.3221  0.0743 -0.2772
  903MOL0     C21776   3.721   8.368   9.419 -0.1258  0.4177 -0.4398
  903MOL0     C21777   3.633   8.484   9.434 -0.0536 -0.0762 -0.1200
  903MOL0     O21778   3.500   8.488   9.428 -0.3524  0.2613  0.0888
  903MOL0     C21779   3.430   8.356   9.416 -0.7120 -0.4337  0.0392
  903MOL0     C21780   3.290   8.401   9.375 -0.3967 -0.0075 -0.2266
  903MOL0     C21781   3.190   8.294   9.331  0.1169 -0.1281 -1.1335
  903MOL0     C21782   3.200   8.253   9.186  0.0462 -1.0537 -0.0006
  903MOL0     C21783   3.101   8.133   9.151  0.2070  0.3699  0.2857
  903MOL0     C21784   2.957   8.180   9.155 -0.3189  0.1350  0.0023
  903MOL0     C21785   2.865   8.093   9.068 -1.2588 -0.5287  0.6723
  903MOL0     C21786   2.718   8.136   9.063 -1.1880 -0.6764 -0.4551
  903MOL0     N21787   2.651   8.047   8.967  0.0547 -0.0051 -0.0364
  903MOL0     C21788   2.616   8.075   8.840 -0.5654 -1.0941 -0.3275
  903MOL0     C21789   2.546   7.973   8.800  0.6367 -0.1664 -2.0062
  903MOL0     C21790   2.485   7.962   8.664  0.1594  1.2968 -0.3705
  903MOL0     C21791   2.544   7.863   8.555  0.1451  0.9068  0.1593
  903MOL0     C21792   2.646   7.922   8.457  0.3408 -0.0829  0.3225
  903MOL0     C21793   2.742   8.034   8.520 -0.5947 -0.1446 -0.1981
  903MOL0     O21794   2.838   7.997   8.621  0.0078  0.2234  0.1279
  903MOL0     C21795   2.946   8.079   8.638 -0.8315 -0.3294  0.0802
  903MOL0     C21796   2.956   8.206   8.594  0.3308 -0.3259  0.1489
  903MOL0     C21797   3.058   8.291   8.639 -0.0598 -0.2565 -0.6424
  903MOL0     C21798   3.029   8.431   8.596  0.4335 -0.6206  0.5193
  903MOL0     C21799   3.163   8.242   8.713  1.1220  0.1913 -0.3532
  903MOL0     C21800   3.289   8.323   8.738  0.6066  0.0595 -0.6965
  903MOL0     O21801   3.357   8.297   8.851 -0.6775  0.1075  0.1710
  903MOL0     C21802   3.483   8.354   8.872  0.3378  0.8104  0.4285
  903MOL0     C21803   3.488   8.451   8.974 -0.2060 -0.9625 -0.2671
  903MOL0     C21804   3.622   8.494   8.999  0.1684 -0.1041  0.1275
  903MOL0     C21805   3.729   8.434   8.937 -0.1017  0.0462  0.4219
  903MOL0     O21806   3.862   8.463   8.964  0.3744 -0.3600  0.4613
  903MOL0     C21807   3.898   8.436   9.097 -0.0911 -0.2100 -0.1942
  903MOL0     C21808   4.035   8.385   9.091 -1.1078  0.4743  0.6861
  903MOL0     C21809   4.136   8.488   9.066  0.3492  0.0591 -0.8554
  903MOL0     C21810   4.262   8.415   9.005  1.3394  0.4282 -0.2023
  903MOL0     C21811   4.397   8.492   8.984  0.2959  0.9985  0.3692
  903MOL0     C21812   4.459   8.536   9.117  0.6421  0.5397 -0.1025
  903MOL0     C21813   4.597   8.614   9.086  0.4823 -0.5382 -0.7078
  903MOL0     C21814   4.649   8.701   9.205 -0.1241  1.3265 -0.1370
  903MOL0    Cl21815   4.818   8.684   9.246  0.1187  0.3753  0.0191
  903MOL0     C21816   3.712   8.349   8.830 -0.1750  0.5788 -0.0541
  903MOL0     C21817   3.589   8.299   8.799 -0.1670 -0.2842  1.0495
  903MOL0     O21818   3.327   8.399   8.649  0.4914 -0.1631 -0.6991
  903MOL0     C21819   3.160   8.107   8.746 -0.4729 -0.7956 -0.2813
  903MOL0     C21820   3.052   8.023   8.710 -0.5563  0.2573  0.9608
  903MOL0     N21821   2.536   7.876   8.905  0.1846  0.1393  0.7059
  903MOL0     N21822   2.612   7.920   8.999 -0.1342  0.0816  0.4049
  903MOL0     C21823   3.693   8.611   9.455  0.9888 -0.0849  0.3815
  903MOL0     C21824   3.831   8.623   9.458 -0.3374  0.1915  0.2632
  903MOL0     C21825   4.251   8.551   9.598 -0.7083  0.3054  0.2380
  903MOL0     C21826   4.301   8.656   9.521  0.1256  0.6556  0.5261
  903MOL0     C21827   4.422   8.722   9.549  1.2608 -0.2119  0.1310
  903MOL0     C21828   4.502   8.674   9.653 -0.0445 -1.1787  0.6983
  903MOL0     O21829   4.624   8.733   9.695 -0.4448  0.0676  0.1628
  903MOL0     C21830   4.685   8.838   9.620 -0.4730  0.0581 -0.8744
  903MOL0     C21831   4.801   8.890   9.711  0.2513 -0.2766 -0.5288
  903MOL0     C21832   4.893   9.003   9.663 -1.2197 -0.7704  0.3180
  903MOL0     C21833   5.014   8.930   9.600 -0.3229 -0.7227  0.7399
  903MOL0     C21834   5.102   9.034   9.534 -0.1912  0.4971  0.2113
  903MOL0     C21835   5.162   9.116   9.471 -0.0352 -0.0934 -1.1942
  903MOL0     C21836   4.456   8.569   9.727 -0.7267  0.4426  0.1363
  903MOL0     C21837   4.330   8.508   9.705  0.7648 -0.5494 -0.1509
  903MOL0     H21838   3.918   8.299   9.398 -1.7235 -0.8055 -2.0119
  903MOL0     H21839   3.684   8.271   9.387  2.9969 -1.4337  1.1420
  903MOL0     H21840   3.479   8.281   9.353  1.4599  0.3207  0.7659
  903MOL0     H21841   3.434   8.318   9.518 -1.5180 -2.6954 -0.6908
  903MOL0     H21842   3.261   8.435   9.475 -1.3768  1.1464 -0.8700
  903MOL0     H21843   3.298   8.481   9.301 -2.7040 -0.7064 -1.3477
  903MOL0     H21844   3.188   8.214   9.405 -2.6450 -0.5147 -1.5362
  903MOL0     H21845   3.091   8.338   9.343 -0.3383 -1.6531  1.0966
  903MOL0     H21846   3.181   8.339   9.121 -1.1812 -1.6288 -0.4474
  903MOL0     H21847   3.305   8.226   9.173  0.0807 -0.4046 -1.1491
  903MOL0     H21848   3.114   8.109   9.045 -0.4609 -0.7269  0.4348
  903MOL0     H21849   3.119   8.039   9.203 -0.2395  0.2148  0.1602
  903MOL0     H21850   2.925   8.165   9.259  0.0682 -3.0413 -0.2584
  903MOL0     H21851   2.958   8.285   9.122  1.9137  0.4194  0.7839
  903MOL0     H21852   2.904   8.106   8.966 -0.8257  1.2342  1.0349
  903MOL0     H21853   2.872   7.987   9.093  1.3566 -0.7449 -0.6118
  903MOL0     H21854   2.707   8.243   9.040 -1.9143 -0.7386 -0.4199
  903MOL0     H21855   2.675   8.126   9.163  4.0279 -0.6392  2.1320
  903MOL0     H21856   2.625   8.167   8.783  0.1385  0.0525  1.5310
  903MOL0     H21857   2.382   7.933   8.685  0.3762  0.6006 -0.2329
  903MOL0     H21858   2.471   8.063   8.627  0.9605  1.0969 -1.2648
  903MOL0     H21859   2.461   7.817   8.500 -0.1676 -2.7790  3.3163
  903MOL0     H21860   2.585   7.778   8.611 -0.8654  0.6275  0.4923
  903MOL0     H21861   2.584   7.970   8.381  0.8512 -0.2623 -0.2131
  903MOL0     H21862   2.710   7.843   8.417  0.7943  0.4287  0.0156
  903MOL0     H21863   2.688   8.120   8.561 -3.0003 -2.4861  1.9959
  903MOL0     H21864   2.795   8.063   8.429  0.4889 -1.6705 -0.0922
  903MOL0     H21865   2.877   8.254   8.536  0.8155  2.6405  1.7215
  903MOL0     H21866   3.089   8.508   8.644 -0.1437  1.2255 -1.5588
  903MOL0     H21867   3.058   8.447   8.492  0.6873 -1.5817  0.4318
  903MOL0     H21868   2.927   8.468   8.609  0.5097 -0.0760 -0.3670
  903MOL0     H21869   3.403   8.498   9.024 -0.3000 -0.5177 -0.8326
  903MOL0     H21870   3.638   8.564   9.081 -3.7561 -2.8353  3.6596
  903MOL0     H21871   3.909   8.526   9.159  1.1139  0.0406 -0.7415
  903MOL0     H21872   3.844   8.354   9.144  4.4078 -2.2403  2.0132
  903MOL0     H21873   4.060   8.343   9.189 -0.4293  0.8639  0.6793
  903MOL0     H21874   4.036   8.315   9.006 -4.2115  2.1827 -0.9611
  903MOL0     H21875   4.166   8.521   9.166  0.0024 -3.8871  0.7201
  903MOL0     H21876   4.106   8.570   9.001 -0.5864  0.7776  0.4379
  903MOL0     H21877   4.293   8.330   9.066  0.2174 -3.3883 -4.3685
  903MOL0     H21878   4.245   8.368   8.908  0.3488 -1.3412  0.7883
  903MOL0     H21879   4.376   8.577   8.919 -2.0668 -0.5968 -1.1317
  903MOL0     H21880   4.469   8.419   8.947 -1.6480  0.1676 -1.9530
  903MOL0     H21881   4.385   8.593   9.175 -0.4955 -0.7700 -0.2117
  903MOL0     H21882   4.475   8.445   9.177 -1.4087 -0.2962 -0.7660
  903MOL0     H21883   4.591   8.680   9.000  0.1308 -1.6989 -1.6057
  903MOL0     H21884   4.676   8.546   9.052 -0.4057 -1.3512 -1.1999
  903MOL0     H21885   4.603   8.677   9.301  3.4495  1.6595  1.8193
  903MOL0     H21886   4.617   8.804   9.188  2.0025  1.8263 -1.4270
  903MOL0     H21887   3.802   8.321   8.776  0.9332  0.7320  1.6496
  903MOL0     H21888   3.570   8.223   8.723  0.4600  1.5064 -0.9723
  903MOL0     H21889   3.250   8.070   8.795  1.0345  3.2530  0.3837
  903MOL0     H21890   3.040   7.924   8.752 -0.2412  0.0752  0.6289
  903MOL0     H21891   3.628   8.698   9.458 -1.0079 -1.4673 -0.7081
  903MOL0     H21892   3.870   8.720   9.487 -0.2848  0.2617 -0.0341
  903MOL0     H21893   4.249   8.699   9.436  0.7770  3.4840  1.4447
  903MOL0     H21894   4.455   8.801   9.483  1.1128 -0.2834 -0.0306
  903MOL0     H21895   4.721   8.800   9.524  3.3194 -1.4437  0.9440
  903MOL0     H21896   4.610   8.918   9.615  1.9350  3.2628  4.9156
  903MOL0     H21897   4.861   8.805   9.743  0.9010  0.9969  1.8460
  903MOL0     H21898   4.754   8.926   9.803  0.5917 -1.6405  0.2043
  903MOL0     H21899   4.939   9.053   9.748 -0.3029 -1.6898  0.3882
  903MOL0     H21900   4.835   9.060   9.590 -0.7070  0.3312  0.7618
  903MOL0     H21901   4.980   8.861   9.522  1.7434 -1.9050  0.8013
  903MOL0     H21902   5.067   8.877   9.680 -0.0624  1.2476  1.9558
  903MOL0     H21903   5.216   9.182   9.406 -0.0390 -0.9949 -2.1355
  903MOL0     H21904   4.518   8.531   9.808 -2.5522  0.7310  1.7441
  903MOL0     H21905   4.297   8.427   9.770 -2.0334 -0.8437 -1.8000
  904MOL0     O21906   1.746   2.242   8.580 -0.4173 -0.6378  0.0814
  904MOL0     C21907   1.691   2.156   8.643  0.0390 -1.2782 -0.3579
  904MOL0     O21908   1.588   2.088   8.608  0.8197  0.0594 -0.0026
  904MOL0     C21909   1.568   2.055   8.474 -0.6528  0.2603  0.0804
  904MOL0     C21910   1.653   1.989   8.393 -0.8709 -0.1365 -0.7018
  904MOL0     C21911   1.629   1.959   8.257  0.2684  0.1064  0.0821
  904MOL0     C21912   1.506   1.995   8.204  0.2945  0.4230 -0.0617
  904MOL0     O21913   1.490   1.983   8.066 -1.0029 -0.6577 -0.2301
  904MOL0     C21914   1.361   2.020   8.015 -0.0681  0.2746 -0.1993
  904MOL0     C21915   1.348   1.968   7.872 -0.4258 -0.1853  0.3160
  904MOL0     C21916   1.201   1.973   7.823 -0.0204  0.0152 -0.0537
  904MOL0     C21917   1.140   2.115   7.813  0.2895  0.3824 -0.9315
  904MOL0     C21918   0.992   2.103   7.772 -0.7545  0.4461 -0.4411
  904MOL0     C21919   0.934   2.238   7.744 -0.0786 -0.1631  0.0197
  904MOL0     C21920   0.794   2.247   7.703  0.0339  0.0350  0.6868
  904MOL0     C21921   0.754   2.383   7.661 -0.0075  0.2047 -0.0316
  904MOL0     N21922   0.609   2.418   7.685  0.9603 -0.1774  0.1859
  904MOL0     C21923   0.537   2.402   7.799 -0.1925  0.1415  0.2300
  904MOL0     C21924   0.417   2.457   7.769  0.6145  0.3641  0.4434
  904MOL0     C21925   0.307   2.453   7.872 -0.7429  0.7206  0.0401
  904MOL0     C21926   0.302   2.586   7.953  0.2149 -0.7672 -0.5833
  904MOL0     C21927   0.201   2.585   8.069 -0.7649  0.2219  0.0364
  904MOL0     C21928   0.069   2.649   8.038 -0.3373  0.1463 -0.5238
  904MOL0     O21929   0.007   2.553   7.955  0.0600 -0.6778  0.0244
  904MOL0     C21930  -0.128   2.579   7.950  0.2715 -0.2802 -1.0210
  904MOL0     C21931  -0.183   2.713   7.946 -0.1096 -0.1790 -0.6410
  904MOL0     C21932  -0.323   2.736   7.946 -0.7410  0.3681 -0.7204
  904MOL0     C21933  -0.374   2.889   7.970  0.3397 -1.0411  0.4401
  904MOL0     C21934  -0.411   2.624   7.950  0.3967 -0.1055  0.0244
  904MOL0     C21935  -0.558   2.621   7.923 -0.4670 -0.1245 -0.1826
  904MOL0     O21936  -0.624   2.746   7.932  0.7696  0.2142  0.7807
  904MOL0     C21937  -0.764   2.742   7.921 -0.1159  0.2923  0.2015
  904MOL0     C21938  -0.852   2.656   7.986 -0.3600 -0.4411  0.3039
  904MOL0     C21939  -0.992   2.665   7.983  0.7283 -0.0525 -0.1965
  904MOL0     C21940  -1.046   2.762   7.898 -0.2834 -0.3680 -0.8935
  904MOL0     O21941  -1.181   2.772   7.872 -0.3335  0.0204  0.4586
  904MOL0     C21942  -1.273   2.701   7.958  0.3176  0.2985 -0.1783
  904MOL0     C21943  -1.412   2.740   7.934  0.1675  0.0584  0.3129
  904MOL0     C21944  -1.460   2.740   7.788 -0.9637 -0.7214  0.0327
  904MOL0     C21945  -1.454   2.602   7.735  0.3678 -0.0040  0.7615
  904MOL0     C21946  -1.586   2.565   7.669  0.0452 -0.2774  0.3644
  904MOL0     C21947  -1.589   2.432   7.608 -0.1183 -0.7840 -0.1239
  904MOL0     C21948  -1.727   2.405   7.534 -0.0741 -0.1950  0.0749
  904MOL0     C21949  -1.845   2.450   7.617  0.6700  0.2512 -0.5703
  904MOL0    Cl21950  -1.866   2.369   7.787 -0.3665  0.1010 -0.3845
  904MOL0     C21951  -0.959   2.840   7.815  0.3181  0.0564  0.0728
  904MOL0     C21952  -0.821   2.830   7.830 -0.1250 -0.1217  0.1394
  904MOL0     O21953  -0.611   2.509   7.905  0.2285 -0.0220 -0.0290
  904MOL0     C21954  -0.348   2.495   7.943 -0.1147 -0.1477 -0.8960
  904MOL0     C21955  -0.207   2.473   7.948  0.7198  0.0298 -0.0284
  904MOL0     N21956   0.403   2.484   7.627 -0.0143  0.2863 -0.9383
  904MOL0     N21957   0.524   2.467   7.584  0.4813 -0.0443 -0.7425
  904MOL0     C21958   1.406   2.051   8.287 -0.5999 -0.1130 -0.5038
  904MOL0     C21959   1.444   2.082   8.420  0.4504  0.0043  0.0507
  904MOL0     C21960   1.747   2.129   8.777 -0.0278  0.9087  0.1199
  904MOL0     C21961   1.676   2.028   8.848  1.0809 -0.5472 -0.2833
  904MOL0     C21962   1.721   1.989   8.973  0.7856  0.2805  0.6986
  904MOL0     C21963   1.833   2.042   9.031  0.0904  0.2770 -0.5568
  904MOL0     O21964   1.893   2.009   9.154  0.5159 -0.5992  0.7725
  904MOL0     C21965   1.816   1.912   9.232 -1.0629 -0.5931 -0.3272
  904MOL0     C21966   1.899   1.878   9.361  0.1979 -0.7895 -0.0500
  904MOL0     C21967   2.015   1.789   9.330 -0.3284  0.0338  0.2732
  904MOL0     C21968   2.133   1.863   9.273 -0.6950  0.2608 -1.3601
  904MOL0     C21969   2.245   1.775   9.254  0.4595  0.1648 -0.5397
  904MOL0     C21970   2.342   1.696   9.256 -0.0657  0.5821  0.8459
  904MOL0     C21971   1.917   2.131   8.950  0.3480 -0.3076 -0.6162
  904MOL0     C21972   1.865   2.180   8.833 -0.4181  0.4337 -0.0655
  904MOL0     H21973   1.754   1.971   8.429 -0.0290  3.4552 -0.8664
  904MOL0     H21974   1.707   1.922   8.191  0.6903 -0.3512  0.8134
  904MOL0     H21975   1.278   1.978   8.072 -0.3942  0.1380 -0.7640
  904MOL0     H21976   1.355   2.129   8.015 -2.5074  0.2068  1.1407
  904MOL0     H21977   1.409   2.030   7.807 -2.0316  1.8337  0.6231
  904MOL0     H21978   1.383   1.867   7.850 -0.3785  0.1791 -1.4513
  904MOL0     H21979   1.185   1.924   7.727  1.1455 -1.4264  0.4375
  904MOL0     H21980   1.155   1.919   7.906 -0.4468 -0.0838 -0.3516
  904MOL0     H21981   1.153   2.163   7.911  0.7235 -1.4674 -0.0216
  904MOL0     H21982   1.196   2.175   7.740  4.2465 -0.8324  0.8001
  904MOL0     H21983   0.985   2.039   7.684 -5.2740  0.4299 -0.3109
  904MOL0     H21984   0.926   2.053   7.844  0.4907  2.2331  2.0979
  904MOL0     H21985   0.949   2.303   7.831 -0.7705  0.8119 -0.5716
  904MOL0     H21986   0.985   2.266   7.651  1.2466 -2.7827 -0.1513
  904MOL0     H21987   0.782   2.179   7.619 -0.5036  1.3401 -0.3206
  904MOL0     H21988   0.726   2.212   7.782 -3.2836  0.3128 -1.8283
  904MOL0     H21989   0.788   2.388   7.557  1.7987 -0.2903  0.5088
  904MOL0     H21990   0.816   2.462   7.704  0.0869 -0.6115  1.4173
  904MOL0     H21991   0.575   2.354   7.889 -1.8095  1.0584  1.4574
  904MOL0     H21992   0.214   2.440   7.816  0.5420  0.4399 -2.1468
  904MOL0     H21993   0.328   2.370   7.940  0.1321  2.3905  1.9572
  904MOL0     H21994   0.268   2.665   7.885 -3.5857 -0.1673  1.6869
  904MOL0     H21995   0.394   2.638   7.983 -0.7222  0.8119 -0.3537
  904MOL0     H21996   0.241   2.652   8.146 -0.7024 -2.1907  2.2087
  904MOL0     H21997   0.183   2.488   8.115 -3.3771  1.4820  1.9200
  904MOL0     H21998   0.082   2.741   7.980 -1.1023  0.2587 -0.5251
  904MOL0     H21999   0.020   2.671   8.133 -0.7903  1.9230 -1.1384
  904MOL0     H22000  -0.123   2.804   7.946  1.6075 -1.2580 -0.1873
  904MOL0     H22001  -0.292   2.959   7.989  1.1619 -2.0047  0.4929
  904MOL0     H22002  -0.418   2.911   7.872  2.2217 -2.1765 -0.7146
  904MOL0     H22003  -0.455   2.900   8.042 -0.2466  0.1766 -0.3601
  904MOL0     H22004  -0.812   2.586   8.059 -3.3174 -0.3899  2.1461
  904MOL0     H22005  -1.044   2.597   8.050  2.0693  0.8826  1.9030
  904MOL0     H22006  -1.250   2.598   7.931  0.6477  0.5264 -0.8065
  904MOL0     H22007  -1.243   2.712   8.062  3.5558 -1.3812 -0.8213
  904MOL0     H22008  -1.473   2.673   7.995  1.3920  0.3362  1.9355
  904MOL0     H22009  -1.424   2.843   7.971  0.2273  0.7553 -1.5240
  904MOL0     H22010  -1.398   2.806   7.727 -1.7614  2.6369  2.5384
  904MOL0     H22011  -1.562   2.778   7.793 -0.7362 -0.1191  0.2310
  904MOL0     H22012  -1.374   2.586   7.663 -1.6197 -2.1653 -1.1618
  904MOL0     H22013  -1.429   2.524   7.807 -0.3288 -1.0742 -0.1127
  904MOL0     H22014  -1.610   2.636   7.589  0.6932  0.5055  0.8538
  904MOL0     H22015  -1.654   2.579   7.754  1.5791 -0.2631  1.6456
  904MOL0     H22016  -1.516   2.433   7.526 -1.8680 -1.1095 -1.7415
  904MOL0     H22017  -1.564   2.355   7.682  0.2179  0.1377  0.7484
  904MOL0     H22018  -1.728   2.299   7.506 -1.2874 -0.5425  1.3439
  904MOL0     H22019  -1.732   2.471   7.446  0.8866  0.0067  0.1611
  904MOL0     H22020  -1.943   2.446   7.570  0.4336  1.0561 -0.1800
  904MOL0     H22021  -1.833   2.556   7.642 -0.4904 -0.6753  5.1736
  904MOL0     H22022  -0.999   2.906   7.738 -0.0442  0.8200  0.9075
  904MOL0     H22023  -0.755   2.887   7.766  1.1886 -0.7621  0.9026
  904MOL0     H22024  -0.403   2.403   7.924 -1.8605  0.6833  0.0015
  904MOL0     H22025  -0.168   2.372   7.942 -0.1679 -0.2947 -0.5178
  904MOL0     H22026   1.310   2.090   8.255  1.0530  3.7556 -1.4459
  904MOL0     H22027   1.373   2.132   8.485 -0.5010  0.2590 -1.1660
  904MOL0     H22028   1.582   1.984   8.816  0.5641 -1.0605  1.7923
  904MOL0     H22029   1.663   1.909   9.017 -0.4859  0.5741 -0.3835
  904MOL0     H22030   1.717   1.955   9.246 -0.3330  1.7006 -1.7366
  904MOL0     H22031   1.807   1.817   9.179  2.0802  0.2675 -2.7510
  904MOL0     H22032   1.827   1.828   9.426 -1.9683  1.5526 -0.4834
  904MOL0     H22033   1.933   1.969   9.413  0.7745 -1.9076  1.5924
  904MOL0     H22034   1.980   1.705   9.269 -0.2148 -1.3626  2.0583
  904MOL0     H22035   2.044   1.739   9.423  0.3329  1.8326  1.0822
  904MOL0     H22036   2.160   1.950   9.333 -0.8399 -0.1611 -0.6630
  904MOL0     H22037   2.125   1.896   9.169  0.7061  1.2447 -1.1795
  904MOL0     H22038   2.417   1.619   9.246 -2.1869 -1.3343 -1.9085
  904MOL0     H22039   2.012   2.167   8.988 -0.7455  2.1227 -0.0435
  904MOL0     H22040   1.922   2.261   8.790 -1.9796  0.9944 -1.1724
  905MOL0     O22041   3.484   7.367  11.218 -0.0799 -0.3940 -0.4500
  905MOL0     C22042   3.522   7.279  11.290 -0.0909  0.8581  0.5610
  905MOL0     O22043   3.507   7.266  11.425 -0.2982 -0.0766  0.3145
  905MOL0     C22044   3.426   7.354  11.490  0.3259  0.6321  0.2769
  905MOL0     C22045   3.298   7.377  11.434 -0.4491 -0.9709 -0.0699
  905MOL0     C22046   3.221   7.483  11.485 -0.6186  0.2848 -0.4487
  905MOL0     C22047   3.250   7.548  11.609 -0.0552  0.7799 -0.4201
  905MOL0     O22048   3.145   7.630  11.652 -0.2572 -0.6638 -0.0194
  905MOL0     C22049   3.100   7.598  11.786 -0.4777  0.5571  0.1350
  905MOL0     C22050   2.975   7.684  11.826  0.3077  0.3243  0.5211
  905MOL0     C22051   2.854   7.651  11.744  0.7680 -0.4551  0.0009
  905MOL0     C22052   2.713   7.708  11.785  0.1819 -0.0020 -1.0557
  905MOL0     C22053   2.585   7.647  11.725  0.0710  0.7644  0.7616
  905MOL0     C22054   2.502   7.541  11.812 -0.2908 -0.0485  0.5892
  905MOL0     C22055   2.576   7.410  11.824 -0.0943  0.0359 -0.6130
  905MOL0     C22056   2.476   7.315  11.884 -0.0189  1.2354 -0.3278
  905MOL0     N22057   2.396   7.263  11.775 -0.4662 -0.2789  0.1181
  905MOL0     C22058   2.275   7.296  11.723 -0.1483 -1.0413 -0.7333
  905MOL0     C22059   2.235   7.194  11.641 -1.6734  0.1548  0.9533
  905MOL0     C22060   2.123   7.195  11.544  0.0751  0.2755 -0.4249
  905MOL0     C22061   2.027   7.319  11.561  0.0456  0.1069 -0.4690
  905MOL0     C22062   1.929   7.310  11.447  0.2907  0.0265 -0.7846
  905MOL0     C22063   1.825   7.424  11.455 -0.0023 -0.0805  0.3892
  905MOL0     O22064   1.767   7.417  11.585 -0.7927 -0.5998  0.3221
  905MOL0     C22065   1.652   7.486  11.593  0.7894 -0.1052  0.4917
  905MOL0     C22066   1.530   7.410  11.575 -0.1783 -0.6126  0.4894
  905MOL0     C22067   1.409   7.471  11.577  0.9293 -0.2362  1.2750
  905MOL0     C22068   1.275   7.402  11.567 -0.6347  0.2596 -0.1287
  905MOL0     C22069   1.398   7.610  11.601 -0.0769  0.9342 -0.8149
  905MOL0     C22070   1.267   7.664  11.636  0.0351 -0.3122 -0.6121
  905MOL0     O22071   1.221   7.756  11.541 -0.0247  0.0342 -0.6947
  905MOL0     C22072   1.098   7.801  11.565  1.3976  0.0792  0.7877
  905MOL0     C22073   1.091   7.907  11.657 -0.7699  0.8270 -0.8979
  905MOL0     C22074   0.970   7.974  11.677 -0.1172 -0.0831  0.3613
  905MOL0     C22075   0.852   7.933  11.610 -0.3938  0.4529  0.2643
  905MOL0     O22076   0.732   8.008  11.640 -0.4328  0.3216 -0.2137
  905MOL0     C22077   0.622   7.989  11.551  0.6266 -0.5788 -0.1779
  905MOL0     C22078   0.507   8.057  11.624 -0.3458  0.1826  0.0496
  905MOL0     C22079   0.472   7.987  11.757 -0.3569  0.2696  0.5832
  905MOL0     C22080   0.315   7.957  11.763 -0.2770 -0.3136  0.3800
  905MOL0     C22081   0.273   7.876  11.874  0.1506  0.1881  0.2566
  905MOL0     C22082   0.123   7.829  11.868  0.6087  0.0772  0.0225
  905MOL0     C22083   0.089   7.734  11.987  0.3151 -0.0073  0.7321
  905MOL0     C22084   0.103   7.586  11.958  0.5697 -0.4141 -0.4199
  905MOL0    Cl22085   0.280   7.556  11.929 -0.0328 -0.0804 -0.0641
  905MOL0     C22086   0.859   7.831  11.514  0.6813  0.2170  0.2135
  905MOL0     C22087   0.977   7.762  11.487  0.3634 -0.0423 -0.3546
  905MOL0     O22088   1.209   7.633  11.739  0.1085 -0.7955  0.3562
  905MOL0     C22089   1.518   7.686  11.621 -0.4846 -0.1651  0.2384
  905MOL0     C22090   1.648   7.624  11.617  0.7967  0.3152  0.7677
  905MOL0     N22091   2.341   7.104  11.630 -0.4552 -0.3441  0.2321
  905MOL0     N22092   2.438   7.146  11.705 -0.1553  0.5768 -0.3059
  905MOL0     C22093   3.364   7.504  11.673 -0.2969  0.3608 -0.7125
  905MOL0     C22094   3.458   7.425  11.610 -0.1146  0.5167 -0.4152
  905MOL0     C22095   3.610   7.172  11.214 -0.7678 -0.1434 -0.5765
  905MOL0     C22096   3.664   7.197  11.082 -0.1379 -0.1172 -0.9427
  905MOL0     C22097   3.745   7.106  11.026 -0.3924  0.2432  0.5693
  905MOL0     C22098   3.780   6.983  11.087 -0.0368  0.5204 -0.9216
  905MOL0     O22099   3.861   6.892  11.027 -0.2400 -0.6159  0.3047
  905MOL0     C22100   3.829   6.867  10.890  0.2408  0.2023  0.0686
  905MOL0     C22101   3.839   6.729  10.826 -0.4141  0.1844 -0.0933
  905MOL0     C22102   3.784   6.706  10.684  0.6815 -0.8880 -0.0253
  905MOL0     C22103   3.787   6.558  10.638  0.2784  0.3003  0.4207
  905MOL0     C22104   3.713   6.463  10.717  1.0146  0.2097 -0.5397
  905MOL0     C22105   3.649   6.384  10.787 -0.6739 -0.1270 -0.4253
  905MOL0     C22106   3.731   6.962  11.216 -0.4991 -0.0689 -1.1363
  905MOL0     C22107   3.657   7.060  11.285  0.6718  0.0829  0.1082
  905MOL0     H22108   3.247   7.328  11.352 -1.7483  0.3381 -0.0857
  905MOL0     H22109   3.126   7.509  11.439 -1.8005 -0.2422  1.5170
  905MOL0     H22110   3.080   7.492  11.806  2.2314  0.1320  0.9563
  905MOL0     H22111   3.187   7.627  11.846  1.9410 -0.3304 -2.6922
  905MOL0     H22112   2.949   7.653  11.928 -1.3599 -3.5275 -0.8861
  905MOL0     H22113   2.998   7.791  11.818 -1.3358  0.6157 -0.8501
  905MOL0     H22114   2.850   7.688  11.641 -2.4805  2.6749  1.0670
  905MOL0     H22115   2.849   7.541  11.750 -1.8709 -0.3548  1.0176
  905MOL0     H22116   2.703   7.706  11.894  0.5301 -3.5054 -0.9990
  905MOL0     H22117   2.712   7.812  11.749  0.8556  0.1826 -0.5721
  905MOL0     H22118   2.519   7.734  11.712 -0.2096  0.3638 -0.6941
  905MOL0     H22119   2.605   7.611  11.623 -1.3228  0.4131  0.5813
  905MOL0     H22120   2.473   7.585  11.908 -1.6063  2.4954 -0.8502
  905MOL0     H22121   2.413   7.527  11.750 -0.7315 -1.1412  1.4383
  905MOL0     H22122   2.611   7.366  11.730  2.7651 -0.8641  0.7490
  905MOL0     H22123   2.654   7.422  11.899 -0.1236 -0.8048 -0.4446
  905MOL0     H22124   2.411   7.370  11.953 -0.0188  0.7276  0.0862
  905MOL0     H22125   2.525   7.238  11.944 -3.9760  0.0238  1.6892
  905MOL0     H22126   2.217   7.382  11.755  0.8866 -0.9452  1.0303
  905MOL0     H22127   2.165   7.202  11.443  0.5785 -1.3538 -0.3642
  905MOL0     H22128   2.066   7.102  11.556  0.3961  0.4326  3.2376
  905MOL0     H22129   2.072   7.418  11.564 -0.8508  0.5171  0.0975
  905MOL0     H22130   1.973   7.306  11.655 -0.8383 -1.4026 -1.1416
  905MOL0     H22131   1.881   7.212  11.444 -3.5319  1.6530  0.6670
  905MOL0     H22132   1.970   7.331  11.348 -1.5104  2.3872 -1.1092
  905MOL0     H22133   1.757   7.412  11.371  2.4307  1.4193 -1.9616
  905MOL0     H22134   1.881   7.517  11.437  1.4815 -0.5923  1.9928
  905MOL0     H22135   1.535   7.302  11.585  0.8674 -0.9488 -2.7035
  905MOL0     H22136   1.294   7.306  11.519 -2.6366  0.2065 -0.9151
  905MOL0     H22137   1.222   7.386  11.661 -0.7469  2.5311  0.2503
  905MOL0     H22138   1.211   7.456  11.496  2.1007  0.9010 -2.2765
  905MOL0     H22139   1.181   7.946  11.705 -1.7250  2.4333 -0.3292
  905MOL0     H22140   0.952   8.066  11.731 -2.4220  0.9454 -1.9034
  905MOL0     H22141   0.635   8.029  11.450  1.8581  3.9591  1.5478
  905MOL0     H22142   0.591   7.886  11.528  0.0740 -0.5372  0.3495
  905MOL0     H22143   0.531   8.164  11.626  4.6195 -0.7107  0.7823
  905MOL0     H22144   0.416   8.037  11.568 -1.1375 -0.1432  1.4013
  905MOL0     H22145   0.486   8.052  11.844  0.8513 -1.4382  1.7461
  905MOL0     H22146   0.529   7.896  11.781  1.4298  1.8477  2.8024
  905MOL0     H22147   0.264   8.054  11.772 -1.1798 -0.6629 -0.6921
  905MOL0     H22148   0.285   7.907  11.670 -1.0368  0.5525  0.1437
  905MOL0     H22149   0.293   7.926  11.969 -0.4498 -0.1871  0.5842
  905MOL0     H22150   0.331   7.784  11.883 -3.2627 -1.9703  2.7129
  905MOL0     H22151   0.056   7.915  11.865  0.3183 -0.0500  1.7636
  905MOL0     H22152   0.099   7.773  11.777 -0.9208  0.6259  0.0604
  905MOL0     H22153  -0.017   7.747  12.010 -0.2170 -1.8002 -0.4981
  905MOL0     H22154   0.153   7.762  12.071  0.8331 -2.7791  1.3637
  905MOL0     H22155   0.059   7.554  11.863 -0.4267  1.5646 -0.6711
  905MOL0     H22156   0.059   7.534  12.044  0.8294  0.1735  0.0745
  905MOL0     H22157   0.779   7.794  11.452  1.1813 -1.9043  0.7571
  905MOL0     H22158   0.984   7.682  11.415 -0.2017 -0.1522 -0.2953
  905MOL0     H22159   1.498   7.791  11.643 -0.4034  0.0922 -0.8332
  905MOL0     H22160   1.746   7.668  11.632  0.0925  1.8775  0.9981
  905MOL0     H22161   3.401   7.565  11.754  0.6704 -3.7865  2.2695
  905MOL0     H22162   3.559   7.414  11.647  1.9059  5.3220 -3.4431
  905MOL0     H22163   3.640   7.291  11.033 -0.8000  0.1409 -0.1351
  905MOL0     H22164   3.787   7.130  10.930  1.0593 -0.4608  1.0040
  905MOL0     H22165   3.724   6.891  10.870 -1.6594 -3.2220  4.2129
  905MOL0     H22166   3.900   6.926  10.831  2.2714 -2.0023  0.1375
  905MOL0     H22167   3.784   6.657  10.889 -0.6283  0.2420 -0.2140
  905MOL0     H22168   3.941   6.692  10.840 -1.2012 -2.6099 -0.9809
  905MOL0     H22169   3.841   6.780  10.627 -0.9455  2.7685  2.6959
  905MOL0     H22170   3.683   6.741  10.662  1.3673  0.3816 -1.3478
  905MOL0     H22171   3.895   6.539  10.635  0.6916  2.5712 -1.4945
  905MOL0     H22172   3.750   6.541  10.537  1.6084  1.5306 -0.3209
  905MOL0     H22173   3.608   6.301  10.841  0.3999 -1.5912 -1.7826
  905MOL0     H22174   3.766   6.879  11.277 -2.2478  1.6542  2.5519
  905MOL0     H22175   3.617   7.034  11.383  0.5461 -0.5387 -0.1063
  906MOL0     O22176   4.340  10.258   1.650  0.8196  0.0163  0.4794
  906MOL0     C22177   4.381  10.342   1.727  0.5384 -0.0286  1.0693
  906MOL0     O22178   4.340  10.364   1.847 -0.2898  0.5908 -0.8408
  906MOL0     C22179   4.228  10.317   1.905  0.3504  0.4548  0.6309
  906MOL0     C22180   4.220  10.300   2.051  0.7880 -1.1410  0.2602
  906MOL0     C22181   4.110  10.238   2.113 -0.4827  0.3688 -0.7439
  906MOL0     C22182   4.004  10.197   2.031 -0.1315  0.2019 -0.2557
  906MOL0     O22183   3.893  10.139   2.075  0.5063  0.1510 -0.3354
  906MOL0     C22184   3.779  10.229   2.069 -0.0535  0.1127  0.1578
  906MOL0     C22185   3.786  10.300   2.199  0.8906  0.6642 -1.0238
  906MOL0     C22186   3.743  10.207   2.312  0.3137 -0.7618 -0.1875
  906MOL0     C22187   3.819  10.227   2.440  1.0138  0.0733  0.5775
  906MOL0     C22188   3.775  10.156   2.569  0.0700  0.0350  0.5156
  906MOL0     C22189   3.813  10.009   2.565  0.0603 -0.2506  0.2106
  906MOL0     C22190   3.739   9.949   2.688  0.3045  1.3915 -0.9316
  906MOL0     C22191   3.714   9.800   2.672  0.3726 -0.0079 -0.1885
  906MOL0     N22192   3.679   9.724   2.788 -0.1698  0.1328 -0.3057
  906MOL0     C22193   3.610   9.780   2.890  1.0893 -0.2666  0.9629
  906MOL0     C22194   3.593   9.676   2.978  0.1841  0.1507 -0.0373
  906MOL0     C22195   3.526   9.688   3.117  0.5800 -0.6711 -1.0612
  906MOL0     C22196   3.396   9.605   3.112  0.0813 -0.5031 -0.6651
  906MOL0     C22197   3.309   9.651   3.230  0.2091 -0.9981 -0.0748
  906MOL0     C22198   3.189   9.559   3.252  0.3215 -0.3604  0.1428
  906MOL0     O22199   3.176   9.547   3.391  0.8120  0.7194  0.2137
  906MOL0     C22200   3.069   9.492   3.444  1.0926 -0.6325  0.0616
  906MOL0     C22201   3.056   9.500   3.585 -0.5973  0.6960  0.1877
  906MOL0     C22202   2.932   9.466   3.648 -0.3720  0.0137 -0.1401
  906MOL0     C22203   2.937   9.480   3.803 -0.4258  0.4012 -0.1818
  906MOL0     C22204   2.824   9.414   3.571  0.8110 -0.2258 -0.1640
  906MOL0     C22205   2.689   9.375   3.622 -0.4710 -0.1857 -0.3892
  906MOL0     O22206   2.617   9.291   3.540 -0.7100 -0.1624  0.2465
  906MOL0     C22207   2.500   9.239   3.573  0.1350 -0.4439 -0.3792
  906MOL0     C22208   2.506   9.109   3.626 -0.1066 -0.2356  1.0425
  906MOL0     C22209   2.396   9.029   3.648 -0.1267  0.0238  0.1062
  906MOL0     C22210   2.258   9.076   3.619 -0.0507 -0.1327  0.2199
  906MOL0     O22211   2.135   9.021   3.631  0.7812 -0.3278 -0.2625
  906MOL0     C22212   2.128   8.915   3.729  0.3052 -0.2520  0.5462
  906MOL0     C22213   1.993   8.848   3.713  0.6113 -0.4436 -0.0678
  906MOL0     C22214   1.970   8.746   3.830  0.6443  0.2444  0.0458
  906MOL0     C22215   1.955   8.814   3.971 -1.2731  0.6231 -0.6769
  906MOL0     C22216   2.035   8.743   4.090 -0.2756  0.0881 -0.4908
  906MOL0     C22217   1.958   8.611   4.123  0.6214  0.5297 -0.0670
  906MOL0     C22218   2.040   8.534   4.222 -0.2119  0.1880  0.1248
  906MOL0     C22219   1.954   8.473   4.329  0.2204  0.4719 -0.0096
  906MOL0    Cl22220   2.066   8.363   4.424  0.3381 -0.7541 -0.3915
  906MOL0     C22221   2.255   9.213   3.576 -0.8586 -0.7682  0.5723
  906MOL0     C22222   2.370   9.295   3.559  0.1558 -0.2147 -0.0301
  906MOL0     O22223   2.652   9.405   3.732 -0.8466 -0.6100  0.2101
  906MOL0     C22224   2.847   9.392   3.434  1.0408  0.5279  0.5379
  906MOL0     C22225   2.967   9.427   3.371 -0.2587  0.5387 -0.2805
  906MOL0     N22226   3.673   9.570   2.920  0.1249  0.5634  0.4752
  906MOL0     N22227   3.727   9.600   2.812  0.1291 -0.3265 -0.0208
  906MOL0     C22228   4.014  10.202   1.894 -0.2179 -0.1249  0.0986
  906MOL0     C22229   4.117  10.275   1.829  0.0697  0.4579 -0.2937
  906MOL0     C22230   4.510  10.406   1.692 -0.0326  0.2774 -0.0354
  906MOL0     C22231   4.561  10.514   1.761  0.1767 -0.3367 -0.6754
  906MOL0     C22232   4.681  10.577   1.724 -0.0678  0.5225  0.4828
  906MOL0     C22233   4.767  10.517   1.627  0.7880  0.2006  0.2828
  906MOL0     O22234   4.889  10.566   1.618  0.2748  0.0770  0.1133
  906MOL0     C22235   5.003  10.479   1.609  0.6769  0.9869 -0.2535
  906MOL0     C22236   5.125  10.556   1.585  0.9693  0.6158  0.4156
  906MOL0     C22237   5.178  10.645   1.694 -0.3217  0.5663  0.3223
  906MOL0     C22238   5.066  10.720   1.763  0.4594 -0.1013 -0.2811
  906MOL0     C22239   5.129  10.809   1.856  0.1755  0.4949 -0.4353
  906MOL0     C22240   5.175  10.885   1.945  1.0128 -0.6950 -0.7683
  906MOL0     C22241   4.714  10.412   1.545 -0.2668  0.0314 -0.7939
  906MOL0     C22242   4.588  10.366   1.575  1.9713  0.7857 -0.4543
  906MOL0     H22243   4.296  10.339   2.118 -0.7563  0.9376  0.9047
  906MOL0     H22244   4.106  10.234   2.221  1.5184  1.1796 -0.5900
  906MOL0     H22245   3.792  10.301   1.987  1.0583  0.2239  0.4222
  906MOL0     H22246   3.682  10.180   2.055 -0.0232 -0.3863  1.5667
  906MOL0     H22247   3.882  10.345   2.226  0.7540 -0.4435  1.7078
  906MOL0     H22248   3.720  10.386   2.187 -1.0828 -0.9910 -2.7393
  906MOL0     H22249   3.639  10.233   2.332  0.9186 -1.2604  5.2436
  906MOL0     H22250   3.760  10.103   2.282  0.4815 -0.2645 -1.9425
  906MOL0     H22251   3.917  10.186   2.416  0.1653 -0.7071 -1.8825
  906MOL0     H22252   3.838  10.334   2.455  0.1625  0.6278 -1.9137
  906MOL0     H22253   3.830  10.202   2.651 -1.0221  2.7181 -0.1400
  906MOL0     H22254   3.670  10.175   2.592 -0.0218 -0.4980  0.5614
  906MOL0     H22255   3.757   9.960   2.484 -1.2790 -0.8213  1.4458
  906MOL0     H22256   3.921   9.998   2.553 -0.1234 -1.5217 -0.4256
  906MOL0     H22257   3.808   9.958   2.772 -0.4582  0.6804 -0.2040
  906MOL0     H22258   3.643   9.998   2.709  0.2435  0.5355  1.0296
  906MOL0     H22259   3.805   9.758   2.628  0.6708 -2.0476  2.1793
  906MOL0     H22260   3.631   9.795   2.601  1.0124  1.5312 -1.0912
  906MOL0     H22261   3.576   9.882   2.905 -3.5295 -0.7264 -3.4423
  906MOL0     H22262   3.590   9.638   3.191  0.8386  0.8122 -0.2511
  906MOL0     H22263   3.511   9.791   3.149  1.0606 -0.4858 -1.4241
  906MOL0     H22264   3.427   9.501   3.113 -1.0433 -0.8481  0.0341
  906MOL0     H22265   3.345   9.621   3.016 -0.2146 -1.3385 -0.6551
  906MOL0     H22266   3.278   9.756   3.221  3.5708 -0.0956 -3.0826
  906MOL0     H22267   3.369   9.641   3.321 -1.2246 -2.5482  0.7605
  906MOL0     H22268   3.199   9.459   3.210 -1.7805 -0.7065  0.3699
  906MOL0     H22269   3.105   9.610   3.205  1.6022  1.4025 -0.3462
  906MOL0     H22270   3.131   9.551   3.646 -0.7910  1.2393 -0.0245
  906MOL0     H22271   3.027   9.433   3.843  0.0390  1.7453  0.4160
  906MOL0     H22272   2.926   9.586   3.828 -1.1752  0.5104 -0.9439
  906MOL0     H22273   2.860   9.429   3.860 -1.8862 -0.3818 -2.7197
  906MOL0     H22274   2.596   9.052   3.649  0.7667  1.4055  1.8702
  906MOL0     H22275   2.400   8.922   3.670 -0.8026 -0.6435 -2.6325
  906MOL0     H22276   2.211   8.848   3.703  1.2288  1.8270 -2.5125
  906MOL0     H22277   2.144   8.956   3.829  0.4706  0.1371  0.3642
  906MOL0     H22278   1.914   8.923   3.719 -0.1287 -0.9022 -2.9487
  906MOL0     H22279   1.979   8.811   3.612  0.5326 -1.2541  0.2313
  906MOL0     H22280   2.050   8.672   3.834  0.0464 -0.4345 -0.2393
  906MOL0     H22281   1.878   8.694   3.800  0.7195 -0.1718  0.5282
  906MOL0     H22282   1.997   8.914   3.958  2.0467 -0.9109 -3.8313
  906MOL0     H22283   1.849   8.810   3.999 -0.7470 -1.0625  1.3493
  906MOL0     H22284   2.041   8.803   4.181  3.4364 -0.5502 -0.1545
  906MOL0     H22285   2.139   8.721   4.066  0.5089 -0.2660  2.7788
  906MOL0     H22286   1.859   8.627   4.168 -1.6377 -2.6798 -3.2389
  906MOL0     H22287   1.939   8.543   4.040 -1.4149 -0.2549  0.9666
  906MOL0     H22288   2.109   8.598   4.277 -1.8523  1.2617  1.0058
  906MOL0     H22289   2.093   8.456   4.166 -1.7012 -1.0731  0.4010
  906MOL0     H22290   1.870   8.415   4.289  0.0340  2.1297 -2.2225
  906MOL0     H22291   1.916   8.541   4.406  1.4182 -0.4543  1.4545
  906MOL0     H22292   2.155   9.246   3.551 -1.1864 -1.1890  1.3039
  906MOL0     H22293   2.371   9.399   3.528  0.7688  0.1032  1.0053
  906MOL0     H22294   2.766   9.341   3.382 -0.1218  1.0379  1.7984
  906MOL0     H22295   2.980   9.405   3.265 -0.6360  0.7642 -0.3713
  906MOL0     H22296   3.940  10.145   1.839  2.4781 -3.3882 -0.4767
  906MOL0     H22297   4.112  10.301   1.724  2.6455  0.4289 -0.4795
  906MOL0     H22298   4.493  10.561   1.832 -0.7432 -1.0947 -1.0296
  906MOL0     H22299   4.711  10.672   1.766  3.3888  1.4610 -3.4697
  906MOL0     H22300   5.010  10.413   1.695 -3.4527 -2.1129 -1.9312
  906MOL0     H22301   4.990  10.419   1.518  2.7657  0.9593 -0.5756
  906MOL0     H22302   5.100  10.621   1.500 -0.4317  0.5046  0.7191
  906MOL0     H22303   5.210  10.495   1.555  1.3446  0.7861  1.1190
  906MOL0     H22304   5.251  10.708   1.643 -0.2769  1.8450  1.9040
  906MOL0     H22305   5.239  10.586   1.763 -1.6753  0.0867  1.1424
  906MOL0     H22306   4.995  10.665   1.826  2.1039 -0.8381  1.0202
  906MOL0     H22307   5.019  10.787   1.691 -1.1994 -1.1884 -0.2668
  906MOL0     H22308   5.227  10.946   2.017  1.4564 -1.0641 -0.7743
  906MOL0     H22309   4.769  10.359   1.468 -2.3090 -1.6579 -1.1853
  906MOL0     H22310   4.552  10.292   1.505 -0.4063 -0.3144  1.7567
  907MOL0     O22311   9.679   0.261   4.766  0.7340  1.1993 -0.5993
  907MOL0     C22312   9.744   0.363   4.755 -0.2740 -0.1367 -1.1349
  907MOL0     O22313   9.695   0.489   4.722 -0.5996 -0.4437  0.0229
  907MOL0     C22314   9.556   0.501   4.721  0.5050  0.1559 -0.5339
  907MOL0     C22315   9.499   0.538   4.597  0.8496 -0.6726  0.5538
  907MOL0     C22316   9.355   0.546   4.591 -0.5819 -0.0983 -0.6895
  907MOL0     C22317   9.275   0.512   4.701 -0.3435  0.2258  0.5840
  907MOL0     O22318   9.140   0.520   4.699 -0.4452 -0.1089  0.2845
  907MOL0     C22319   9.079   0.635   4.641 -0.4918  0.0627 -0.5485
  907MOL0     C22320   8.932   0.625   4.640 -1.1910  0.0386 -0.1162
  907MOL0     C22321   8.874   0.527   4.536  0.8864 -0.0410  1.0382
  907MOL0     C22322   8.726   0.526   4.542  0.5935 -0.2340  0.2974
  907MOL0     C22323   8.650   0.661   4.513 -0.0741 -0.1469  0.2670
  907MOL0     C22324   8.496   0.646   4.486 -0.3960  0.1115 -0.1285
  907MOL0     C22325   8.449   0.607   4.342 -0.4621  1.4103 -0.1586
  907MOL0     C22326   8.453   0.716   4.240  0.1765 -0.1008  0.4228
  907MOL0     N22327   8.362   0.827   4.275 -0.1022 -0.6945 -0.2138
  907MOL0     C22328   8.230   0.804   4.305 -0.7475 -0.2294  1.0787
  907MOL0     C22329   8.191   0.924   4.357 -0.3375 -0.1185  0.0821
  907MOL0     C22330   8.050   0.960   4.381 -0.0623  0.0246 -0.1898
  907MOL0     C22331   8.026   1.111   4.382  0.5481  0.0414 -0.1389
  907MOL0     C22332   7.885   1.160   4.419  0.0612 -0.9849 -0.4486
  907MOL0     C22333   7.780   1.141   4.303 -0.4679  0.2436 -0.2680
  907MOL0     O22334   7.824   1.188   4.176  0.0682  0.2782 -0.0919
  907MOL0     C22335   7.756   1.168   4.058  0.5591  0.3181 -0.4656
  907MOL0     C22336   7.810   1.215   3.945  0.9101 -0.5412  0.2820
  907MOL0     C22337   7.729   1.220   3.823 -0.3659  1.1129  0.1377
  907MOL0     C22338   7.798   1.295   3.715  0.2395  0.5961  0.3256
  907MOL0     C22339   7.603   1.159   3.825  0.0433 -0.5877  0.4819
  907MOL0     C22340   7.523   1.162   3.703  0.2947 -0.0294  1.4429
  907MOL0     O22341   7.408   1.083   3.700 -0.2284  0.0389 -0.4112
  907MOL0     C22342   7.328   1.091   3.586  0.2812 -0.5047  0.0460
  907MOL0     C22343   7.356   1.016   3.470  0.0225 -0.4314  0.0531
  907MOL0     C22344   7.271   1.030   3.359  0.2642  0.0764 -0.3576
  907MOL0     C22345   7.161   1.114   3.365 -0.5671 -0.5319  0.3540
  907MOL0     O22346   7.079   1.146   3.262  0.1492  0.1396  0.3044
  907MOL0     C22347   7.124   1.196   3.136  0.5037 -0.8843 -0.5808
  907MOL0     C22348   7.045   1.140   3.027  0.4019 -0.5916  1.2665
  907MOL0     C22349   7.068   0.988   3.010 -0.2146  0.2433 -0.1186
  907MOL0     C22350   7.096   0.923   2.865 -0.0567 -0.6549  0.5917
  907MOL0     C22351   7.230   0.958   2.800 -0.0188 -0.2286  0.3198
  907MOL0     C22352   7.333   0.873   2.867 -0.7006  0.3810 -0.8875
  907MOL0     C22353   7.471   0.923   2.826  0.1608  0.7394  0.4665
  907MOL0     C22354   7.555   0.809   2.786  0.0436 -0.1529 -0.8106
  907MOL0    Cl22355   7.480   0.740   2.635  0.1165 -0.4855  0.0288
  907MOL0     C22356   7.132   1.184   3.476 -0.5023 -0.8509 -0.2896
  907MOL0     C22357   7.210   1.171   3.587 -0.1278  0.3198 -0.5920
  907MOL0     O22358   7.559   1.226   3.605 -0.6860  0.4188 -0.1639
  907MOL0     C22359   7.556   1.096   3.941 -0.2454 -0.2638  0.3394
  907MOL0     C22360   7.632   1.103   4.054 -0.8359  0.5094 -0.8823
  907MOL0     N22361   8.297   1.005   4.369 -0.4891 -1.0988  0.3126
  907MOL0     N22362   8.401   0.954   4.302  0.3035 -0.6172 -1.3355
  907MOL0     C22363   9.331   0.472   4.818 -0.2667  0.0114 -0.2067
  907MOL0     C22364   9.473   0.483   4.825 -0.8024 -0.7142  0.5311
  907MOL0     C22365   9.885   0.355   4.786  0.2194 -0.0672 -0.7726
  907MOL0     C22366   9.953   0.225   4.798  0.0613  0.2761  0.2681
  907MOL0     C22367  10.096   0.224   4.814 -0.4511  0.4539  0.1706
  907MOL0     C22368  10.168   0.346   4.818  0.1180  0.2347  0.5895
  907MOL0     O22369  10.311   0.350   4.810 -0.1356  0.1434 -0.6315
  907MOL0     C22370  10.381   0.469   4.859  0.3747 -0.2809  0.2707
  907MOL0     C22371  10.541   0.450   4.865 -0.3919  0.2147  0.0823
  907MOL0     C22372  10.571   0.338   4.973 -0.1136 -0.1930  0.5716
  907MOL0     C22373  10.715   0.338   5.004  0.2202  0.1852 -0.4383
  907MOL0     C22374  10.751   0.203   5.054  1.2451 -0.0434  0.4890
  907MOL0     C22375  10.784   0.097   5.104 -1.3645 -0.4031  0.2996
  907MOL0     C22376  10.100   0.462   4.814  0.7773 -0.2310  0.4662
  907MOL0     C22377   9.964   0.474   4.799 -0.7074  1.2040 -0.0639
  907MOL0     H22378   9.554   0.574   4.511  0.5069 -0.3366  0.4700
  907MOL0     H22379   9.314   0.590   4.501 -0.3175  2.4810  0.3839
  907MOL0     H22380   9.113   0.725   4.692 -2.6251  0.7779 -0.3039
  907MOL0     H22381   9.108   0.651   4.536  1.9547  0.5697  0.1315
  907MOL0     H22382   8.885   0.610   4.738 -1.2576 -0.1333 -0.1756
  907MOL0     H22383   8.895   0.727   4.627 -1.1033  0.3155  1.5443
  907MOL0     H22384   8.912   0.545   4.435 -0.5482 -1.7125  0.1566
  907MOL0     H22385   8.903   0.426   4.565  2.2987  0.5587  1.8800
  907MOL0     H22386   8.686   0.441   4.487 -4.2138  0.5370  2.1518
  907MOL0     H22387   8.703   0.498   4.645  3.8203  1.1045  1.5088
  907MOL0     H22388   8.672   0.728   4.597  3.5636 -3.1860  2.0238
  907MOL0     H22389   8.696   0.702   4.422 -0.3937  1.0632  0.6251
  907MOL0     H22390   8.459   0.562   4.545 -2.9650  1.3898  0.2236
  907MOL0     H22391   8.437   0.733   4.515 -2.0136 -0.6140 -1.0641
  907MOL0     H22392   8.516   0.530   4.301 -2.1851  1.5606 -3.6292
  907MOL0     H22393   8.349   0.563   4.336 -0.4054  1.2277  0.2157
  907MOL0     H22394   8.432   0.684   4.137  0.9508 -2.6279  1.0056
  907MOL0     H22395   8.550   0.767   4.242 -0.5745  1.4977 -0.8417
  907MOL0     H22396   8.172   0.713   4.294 -0.0894 -0.7570  1.9068
  907MOL0     H22397   7.985   0.930   4.298 -0.7789  1.5919 -0.2372
  907MOL0     H22398   8.012   0.917   4.474 -1.9687  0.0174 -0.9319
  907MOL0     H22399   8.030   1.150   4.280  1.0815  0.1287 -0.0855
  907MOL0     H22400   8.091   1.160   4.455 -0.1274  0.2575  0.3226
  907MOL0     H22401   7.882   1.269   4.426  2.1456 -1.0030  2.9445
  907MOL0     H22402   7.851   1.117   4.514 -0.7357 -0.0478 -0.2957
  907MOL0     H22403   7.692   1.194   4.340  1.7283  3.5820  0.6463
  907MOL0     H22404   7.758   1.034   4.312  0.8298  0.0857  1.7520
  907MOL0     H22405   7.909   1.260   3.946  1.3523 -1.4738 -0.0312
  907MOL0     H22406   7.812   1.225   3.632 -1.6081  0.9864 -0.3698
  907MOL0     H22407   7.736   1.375   3.673 -0.8939 -1.1234 -1.4721
  907MOL0     H22408   7.898   1.330   3.742  0.6192 -0.6871  0.6648
  907MOL0     H22409   7.448   0.957   3.468 -0.3954 -1.1677 -2.9258
  907MOL0     H22410   7.286   0.974   3.267 -2.1915 -0.7930 -0.3059
  907MOL0     H22411   7.125   1.305   3.133  0.4869 -0.8787 -0.4081
  907MOL0     H22412   7.231   1.177   3.126  0.3448 -2.1803 -0.1129
  907MOL0     H22413   6.938   1.149   3.048  0.4810 -0.3412  1.5616
  907MOL0     H22414   7.075   1.189   2.934 -2.3476  0.8345  1.0479
  907MOL0     H22415   6.990   0.940   3.070  0.9825 -0.4393  0.9542
  907MOL0     H22416   7.157   0.958   3.066 -1.5915 -1.6868  1.1395
  907MOL0     H22417   7.092   0.814   2.874  0.6673 -0.8769 -1.2771
  907MOL0     H22418   7.022   0.969   2.798  1.3761  3.4038  1.4743
  907MOL0     H22419   7.258   1.062   2.813  2.1771 -0.6232 -0.7860
  907MOL0     H22420   7.227   0.948   2.691  3.0874  3.0701 -0.2665
  907MOL0     H22421   7.330   0.876   2.976  3.6158 -1.1880 -0.5331
  907MOL0     H22422   7.311   0.772   2.833 -0.7180  0.3955 -0.9188
  907MOL0     H22423   7.521   0.975   2.908  2.2083  0.7098 -0.6939
  907MOL0     H22424   7.476   0.989   2.739 -0.0163 -1.9629 -1.7159
  907MOL0     H22425   7.560   0.743   2.873 -0.2782  0.7117 -0.1156
  907MOL0     H22426   7.656   0.844   2.765  0.5471  0.6095  2.2711
  907MOL0     H22427   7.055   1.261   3.484  0.5568 -0.0018  3.0831
  907MOL0     H22428   7.189   1.237   3.671 -0.3764  0.5013 -0.7974
  907MOL0     H22429   7.456   1.054   3.941 -0.0089 -0.9416 -1.6733
  907MOL0     H22430   7.583   1.068   4.145 -1.9291  0.2770 -1.5390
  907MOL0     H22431   9.282   0.438   4.908 -1.2497  1.1606 -0.2860
  907MOL0     H22432   9.536   0.461   4.910  2.3176  1.4924 -1.0214
  907MOL0     H22433   9.907   0.129   4.779  1.6638 -0.4712  0.0640
  907MOL0     H22434  10.160   0.137   4.815 -0.9145  0.1148  0.7102
  907MOL0     H22435  10.363   0.551   4.788  0.8187 -1.0679 -0.7795
  907MOL0     H22436  10.343   0.500   4.957 -2.1462 -0.0113 -0.7212
  907MOL0     H22437  10.581   0.549   4.887 -2.0014  2.1455 -4.3726
  907MOL0     H22438  10.573   0.421   4.764 -0.7826 -1.5965  0.4415
  907MOL0     H22439  10.545   0.240   4.930  0.2824 -0.8259  1.7496
  907MOL0     H22440  10.514   0.351   5.065 -1.3656 -1.0134 -0.0468
  907MOL0     H22441  10.734   0.411   5.084  1.6557 -0.7526  0.1155
  907MOL0     H22442  10.779   0.349   4.917 -1.0481 -1.3284 -1.6183
  907MOL0     H22443  10.827   0.011   5.152 -2.4910 -1.6034 -0.7454
  907MOL0     H22444  10.149   0.559   4.813  2.6441 -1.0044 -4.0325
  907MOL0     H22445   9.909   0.566   4.821 -1.6425  0.1510  2.4385
  908MOL0     O22446   6.088   2.489   1.749 -0.0558  0.1081  1.4168
  908MOL0     C22447   6.201   2.532   1.733  0.0972 -0.2588 -0.3145
  908MOL0     O22448   6.273   2.535   1.618  0.4729  0.5022 -0.3524
  908MOL0     C22449   6.208   2.484   1.511  0.0418  0.6295 -0.7140
  908MOL0     C22450   6.204   2.561   1.393  0.3285  0.1157  0.6221
  908MOL0     C22451   6.140   2.512   1.276 -0.7399 -0.1506 -0.0142
  908MOL0     C22452   6.081   2.387   1.284 -0.3086 -0.4205  0.6289
  908MOL0     O22453   6.003   2.343   1.180  0.8160 -0.1329 -0.0473
  908MOL0     C22454   6.081   2.330   1.061 -0.3538  0.4480  0.9198
  908MOL0     C22455   6.112   2.184   1.033 -0.5803  0.3940  0.1944
  908MOL0     C22456   5.987   2.094   1.013  0.2920 -0.0266 -0.4742
  908MOL0     C22457   6.001   1.943   0.989 -0.3175  0.8589  0.2732
  908MOL0     C22458   6.074   1.868   1.098 -0.5112 -1.0760 -0.8815
  908MOL0     C22459   5.988   1.857   1.221  0.0587 -0.4499  0.1892
  908MOL0     C22460   6.027   1.734   1.304 -0.4966  0.2867 -0.7245
  908MOL0     C22461   5.942   1.715   1.428 -0.8736  0.4329  0.3306
  908MOL0     N22462   5.816   1.647   1.388  0.1632 -0.0039  0.2690
  908MOL0     C22463   5.803   1.518   1.331 -0.1718  0.8869  0.7431
  908MOL0     C22464   5.681   1.514   1.276 -0.6129  0.1246 -1.0927
  908MOL0     C22465   5.641   1.408   1.181  0.2160 -0.7609  0.7288
  908MOL0     C22466   5.539   1.311   1.224  0.0607 -0.8084 -0.1600
  908MOL0     C22467   5.396   1.354   1.178  0.3628  1.0382 -0.1700
  908MOL0     C22468   5.378   1.361   1.029  0.2820 -1.1645 -0.3181
  908MOL0     O22469   5.375   1.223   0.988 -0.1229 -0.2680 -0.2995
  908MOL0     C22470   5.273   1.189   0.902 -0.3748  0.2148 -0.0735
  908MOL0     C22471   5.136   1.231   0.913 -0.0372 -0.7382 -0.2357
  908MOL0     C22472   5.038   1.168   0.834  0.2895  0.8290 -0.9931
  908MOL0     C22473   4.896   1.228   0.848  0.0961  0.3975  0.0632
  908MOL0     C22474   5.068   1.072   0.735  0.1910 -0.2746 -1.0292
  908MOL0     C22475   4.972   1.010   0.645  0.1155 -0.5413  0.2533
  908MOL0     O22476   4.851   0.970   0.706 -0.2251 -0.3375  0.1344
  908MOL0     C22477   4.740   0.970   0.624  0.1358 -0.2607  0.1298
  908MOL0     C22478   4.662   1.085   0.625  0.5435  0.2547 -0.1823
  908MOL0     C22479   4.538   1.079   0.564 -0.9703  0.2307 -0.0841
  908MOL0     C22480   4.487   0.961   0.509 -0.2825  0.7744 -0.3944
  908MOL0     O22481   4.368   0.947   0.438  0.0696 -0.0673 -0.0242
  908MOL0     C22482   4.306   1.068   0.390  0.2528 -0.1239  0.0071
  908MOL0     C22483   4.180   1.021   0.307  0.2907  0.3491 -0.5408
  908MOL0     C22484   4.064   0.988   0.407  0.7159 -0.1802 -0.3413
  908MOL0     C22485   3.916   0.993   0.346  0.1588  0.2255 -0.2795
  908MOL0     C22486   3.798   0.973   0.448 -0.1014  0.1650  0.7226
  908MOL0     C22487   3.655   1.002   0.385  0.1813 -0.6435  0.6008
  908MOL0     C22488   3.638   1.153   0.359 -0.7287 -0.5050 -0.0941
  908MOL0     C22489   3.531   1.182   0.242 -0.3736 -0.2329 -0.5065
  908MOL0    Cl22490   3.600   1.190   0.077  0.6689  0.0876 -0.5921
  908MOL0     C22491   4.568   0.842   0.521  0.2189 -0.4915 -0.5165
  908MOL0     C22492   4.696   0.846   0.576  0.1968  0.5202 -0.1366
  908MOL0     O22493   5.004   1.009   0.530  0.0852 -0.0067  0.1998
  908MOL0     C22494   5.206   1.024   0.724 -0.6587 -0.4799 -0.3455
  908MOL0     C22495   5.300   1.083   0.813  0.5379 -0.1267  1.3473
  908MOL0     N22496   5.617   1.633   1.311 -0.0830  0.7692  0.6723
  908MOL0     N22497   5.701   1.720   1.363  0.5074 -0.1977  0.1380
  908MOL0     C22498   6.093   2.300   1.393 -0.0069 -0.3739 -0.5956
  908MOL0     C22499   6.157   2.348   1.508 -0.7770  0.2977 -0.2977
  908MOL0     C22500   6.256   2.602   1.850  0.3863  0.5721 -0.7114
  908MOL0     C22501   6.184   2.614   1.968 -0.5534 -0.3992  0.1682
  908MOL0     C22502   6.243   2.683   2.073 -0.7620 -0.0568 -0.5558
  908MOL0     C22503   6.362   2.749   2.069  0.6472 -0.0543 -0.1581
  908MOL0     O22504   6.401   2.829   2.175 -1.0230  0.1695 -0.2221
  908MOL0     C22505   6.508   2.927   2.156 -1.0041 -0.7367  1.4237
  908MOL0     C22506   6.508   3.035   2.268  0.6626 -0.4952  0.8705
  908MOL0     C22507   6.373   3.106   2.272  0.2153  0.3326 -0.2655
  908MOL0     C22508   6.369   3.225   2.370  0.5122  0.3500 -1.4949
  908MOL0     C22509   6.476   3.317   2.348  0.4875 -0.1696 -0.4216
  908MOL0     C22510   6.557   3.409   2.333  0.1821  0.3353 -0.8183
  908MOL0     C22511   6.435   2.720   1.954 -0.2806 -0.2615  0.3807
  908MOL0     C22512   6.383   2.658   1.844  0.8012  0.3672  1.1318
  908MOL0     H22513   6.264   2.651   1.383  1.5759 -0.9127 -2.0189
  908MOL0     H22514   6.139   2.573   1.187  2.1552  1.4016  0.8863
  908MOL0     H22515   6.022   2.352   0.971  1.8071 -0.9415 -0.9417
  908MOL0     H22516   6.170   2.394   1.057 -0.1384  0.1120  0.1803
  908MOL0     H22517   6.175   2.173   0.944  2.5257 -1.4272  2.4252
  908MOL0     H22518   6.176   2.152   1.116  0.8834  1.9581 -0.2788
  908MOL0     H22519   5.932   2.099   1.107 -0.3587  0.9878 -0.8965
  908MOL0     H22520   5.935   2.137   0.927  1.8662  3.3491  0.0965
  908MOL0     H22521   5.902   1.898   0.977  1.5614 -3.2372 -2.0327
  908MOL0     H22522   6.064   1.926   0.901  1.7300 -2.6445  2.1931
  908MOL0     H22523   6.107   1.768   1.068 -2.1251 -2.1812  0.8127
  908MOL0     H22524   6.166   1.916   1.134 -0.4123 -3.4320  2.4857
  908MOL0     H22525   5.995   1.950   1.277 -0.3271  0.2899 -0.9688
  908MOL0     H22526   5.889   1.831   1.182  0.8187 -0.9105 -1.5511
  908MOL0     H22527   6.019   1.638   1.252  0.2193 -0.4619  0.4977
  908MOL0     H22528   6.129   1.754   1.337 -0.9808  4.3858 -1.2634
  908MOL0     H22529   5.928   1.813   1.473 -4.2216 -0.8526  2.4146
  908MOL0     H22530   5.999   1.657   1.502 -1.9969 -0.6284  0.3939
  908MOL0     H22531   5.879   1.441   1.323 -0.6435  0.5637 -0.9738
  908MOL0     H22532   5.600   1.458   1.092 -0.0501 -0.4816  1.0045
  908MOL0     H22533   5.732   1.357   1.148  0.1428 -0.1554 -0.4651
  908MOL0     H22534   5.542   1.289   1.331  1.5152  0.6037  0.1263
  908MOL0     H22535   5.567   1.217   1.176 -1.1891 -1.0599 -0.4238
  908MOL0     H22536   5.373   1.454   1.216  0.4624  0.0013  2.9241
  908MOL0     H22537   5.329   1.278   1.220  1.5530  0.6617  1.1096
  908MOL0     H22538   5.456   1.420   0.979  4.7810 -1.0132  5.7150
  908MOL0     H22539   5.290   1.424   1.014  2.5507  2.2512 -0.2936
  908MOL0     H22540   5.105   1.300   0.991 -0.3758  0.7272 -1.6096
  908MOL0     H22541   4.856   1.269   0.754 -1.5626 -1.3772 -0.0766
  908MOL0     H22542   4.837   1.143   0.883  1.7057 -1.0645 -0.6375
  908MOL0     H22543   4.887   1.308   0.922 -1.8633  1.4569 -1.2165
  908MOL0     H22544   4.699   1.160   0.694  3.0013 -0.5236 -0.5571
  908MOL0     H22545   4.485   1.172   0.546 -0.4594  0.3969 -0.7696
  908MOL0     H22546   4.265   1.121   0.477 -0.0365 -0.7884  0.2793
  908MOL0     H22547   4.375   1.119   0.322 -2.3235 -1.3311 -3.8457
  908MOL0     H22548   4.155   1.106   0.243 -0.7275 -0.3812 -1.1432
  908MOL0     H22549   4.205   0.929   0.252  0.8820 -0.8186  1.5550
  908MOL0     H22550   4.061   1.065   0.485  4.0590  0.3631 -0.6001
  908MOL0     H22551   4.083   0.893   0.458 -2.5199  0.4092  2.3337
  908MOL0     H22552   3.904   1.085   0.288 -2.7143 -0.6633 -1.2458
  908MOL0     H22553   3.917   0.908   0.278  1.7732  0.0519 -0.0724
  908MOL0     H22554   3.826   1.031   0.536  1.0363 -1.9673  1.8671
  908MOL0     H22555   3.798   0.869   0.484  2.2479 -0.2686 -0.3218
  908MOL0     H22556   3.648   0.941   0.295 -1.3603  0.9804 -0.4396
  908MOL0     H22557   3.573   0.962   0.445 -3.0301  0.4031 -2.7297
  908MOL0     H22558   3.730   1.196   0.319 -1.8723  2.0996 -0.1071
  908MOL0     H22559   3.616   1.215   0.446  1.4903 -1.1264  0.9698
  908MOL0     H22560   3.477   1.276   0.258 -0.4367 -0.4853  0.8813
  908MOL0     H22561   3.455   1.103   0.242 -0.4584 -0.1509 -0.0142
  908MOL0     H22562   4.532   0.748   0.483 -0.1442  1.0976 -4.6308
  908MOL0     H22563   4.755   0.756   0.590 -0.0790  0.3822  0.1609
  908MOL0     H22564   5.235   0.956   0.645 -0.1473  0.6836 -1.1869
  908MOL0     H22565   5.402   1.045   0.811  0.8287  0.6615  0.8625
  908MOL0     H22566   6.044   2.206   1.413  2.1649 -1.8530 -1.8505
  908MOL0     H22567   6.162   2.288   1.598 -0.7103  0.8286  0.0561
  908MOL0     H22568   6.087   2.566   1.978  0.3958 -2.1953  1.1791
  908MOL0     H22569   6.192   2.692   2.168  1.2792  1.0478  0.4768
  908MOL0     H22570   6.606   2.886   2.131  0.0460  2.2328  0.2398
  908MOL0     H22571   6.482   2.981   2.065 -0.1950 -0.1271  1.5430
  908MOL0     H22572   6.598   3.096   2.255  2.8161 -2.7174  3.8698
  908MOL0     H22573   6.517   2.995   2.369  0.9346  0.5587  1.2730
  908MOL0     H22574   6.299   3.028   2.289 -0.0960  0.8333  0.7376
  908MOL0     H22575   6.364   3.139   2.168 -0.2693  0.9183 -0.0456
  908MOL0     H22576   6.360   3.181   2.470 -2.6862 -2.2416 -2.7142
  908MOL0     H22577   6.270   3.273   2.372 -1.0043 -2.1089  3.8019
  908MOL0     H22578   6.628   3.489   2.343 -0.4683  0.8465 -0.1687
  908MOL0     H22579   6.534   2.763   1.944 -0.0627 -0.9928 -0.6934
  908MOL0     H22580   6.448   2.654   1.757  2.4446 -0.5967  2.3461
  909MOL0     O22581   5.857   8.613   8.152 -0.2844  1.0858  0.3768
  909MOL0     C22582   5.827   8.672   8.049 -1.1449  0.2878 -1.3571
  909MOL0     O22583   5.704   8.683   8.002  0.3239  0.0719  0.8401
  909MOL0     C22584   5.609   8.592   8.039  1.5550 -0.0812 -0.1328
  909MOL0     C22585   5.473   8.628   8.033  0.5507  0.2483  0.2051
  909MOL0     C22586   5.364   8.536   8.055  0.4846  0.3352 -0.9737
  909MOL0     C22587   5.391   8.410   8.108 -0.1703 -0.1179 -0.1469
  909MOL0     O22588   5.287   8.322   8.141  0.5216  0.7431 -0.2971
  909MOL0     C22589   5.310   8.193   8.192  0.0415 -0.3763  0.0898
  909MOL0     C22590   5.366   8.221   8.332  0.6006  0.7401  0.0674
  909MOL0     C22591   5.432   8.097   8.406  1.0546  0.1916 -1.0386
  909MOL0     C22592   5.342   7.974   8.413 -0.3107 -0.4725  0.1619
  909MOL0     C22593   5.244   7.992   8.532 -0.6034 -0.1692  0.1264
  909MOL0     C22594   5.139   7.885   8.510 -0.8492  0.8897  0.0024
  909MOL0     C22595   5.033   7.898   8.620 -0.5651 -0.2185  0.2639
  909MOL0     C22596   4.956   7.771   8.661 -0.0029  0.0645 -0.3239
  909MOL0     N22597   4.890   7.698   8.550  0.0803 -0.2781 -0.1610
  909MOL0     C22598   4.935   7.600   8.470 -0.2286 -0.3947  0.3316
  909MOL0     C22599   4.842   7.577   8.376 -0.0613  0.0912 -0.0850
  909MOL0     C22600   4.838   7.462   8.279 -0.9272  0.8371 -0.9138
  909MOL0     C22601   4.914   7.502   8.154  0.4960  0.1037 -0.3796
  909MOL0     C22602   4.915   7.403   8.037  0.8469 -0.1923  0.4923
  909MOL0     C22603   4.763   7.378   7.997  0.4014  0.2357 -0.1901
  909MOL0     O22604   4.708   7.283   8.092  0.5776 -0.1141 -0.1583
  909MOL0     C22605   4.585   7.232   8.061  0.0216  0.1573  0.5420
  909MOL0     C22606   4.561   7.113   8.120 -0.0233 -0.4570  0.3145
  909MOL0     C22607   4.446   7.039   8.111 -1.1830 -0.7877  1.1399
  909MOL0     C22608   4.447   6.896   8.164  0.4167 -0.4922 -1.1296
  909MOL0     C22609   4.338   7.103   8.029  0.5474 -0.2273 -0.6947
  909MOL0     C22610   4.211   7.038   8.002 -0.6204  0.2383 -0.1075
  909MOL0     O22611   4.187   6.919   8.064 -0.3604  0.8754  0.2987
  909MOL0     C22612   4.061   6.866   8.039  0.7308  0.6566 -0.2612
  909MOL0     C22613   3.949   6.923   8.099  0.5076 -0.4747 -0.3543
  909MOL0     C22614   3.821   6.875   8.062  0.2540  0.2903 -0.2088
  909MOL0     C22615   3.810   6.759   7.993  0.0473  0.7621 -0.1538
  909MOL0     O22616   3.682   6.701   7.972  0.5865  0.1459  0.1880
  909MOL0     C22617   3.575   6.749   8.051 -0.2614 -0.5618  0.1099
  909MOL0     C22618   3.452   6.666   8.027  0.3480  0.3007 -0.7249
  909MOL0     C22619   3.415   6.664   7.875  0.8508  0.2159 -0.5104
  909MOL0     C22620   3.281   6.586   7.848 -0.8342 -0.1617 -0.3970
  909MOL0     C22621   3.246   6.584   7.696 -0.8266  0.6607 -0.6866
  909MOL0     C22622   3.146   6.476   7.654  0.0654  0.6823  0.1519
  909MOL0     C22623   3.094   6.489   7.514  1.5459  0.2754 -0.3997
  909MOL0     C22624   2.982   6.380   7.485 -0.3096  0.2901  0.3369
  909MOL0    Cl22625   3.049   6.285   7.346 -0.1680 -0.2232 -0.1177
  909MOL0     C22626   3.916   6.695   7.932 -0.2861 -0.4646 -0.2350
  909MOL0     C22627   4.038   6.759   7.948  0.4619 -0.2539  0.0370
  909MOL0     O22628   4.129   7.104   7.936 -0.4237  0.4160  0.0216
  909MOL0     C22629   4.365   7.225   7.964 -0.3049  0.1426  0.9646
  909MOL0     C22630   4.488   7.286   7.977 -0.9852 -0.0893  0.7267
  909MOL0     N22631   4.745   7.677   8.383 -0.4253  0.6510 -0.1880
  909MOL0     N22632   4.766   7.744   8.495  0.3576  0.4397 -0.3198
  909MOL0     C22633   5.526   8.369   8.108 -0.3513  0.4236 -0.0913
  909MOL0     C22634   5.625   8.452   8.069 -0.6454 -0.4886 -0.3338
  909MOL0     C22635   5.919   8.764   7.991  0.1828  0.0735  0.3901
  909MOL0     C22636   6.060   8.769   8.023 -0.1113  0.0741  0.0736
  909MOL0     C22637   6.144   8.858   7.962 -0.2537 -0.5161  1.2575
  909MOL0     C22638   6.093   8.936   7.858 -0.1057  0.4961  0.4598
  909MOL0     O22639   6.172   9.029   7.789  0.4676 -1.2807 -0.1008
  909MOL0     C22640   6.210   8.976   7.660 -0.3698 -0.0313 -0.4704
  909MOL0     C22641   6.355   8.931   7.643 -0.0443  0.1745 -0.5494
  909MOL0     C22642   6.448   9.060   7.643  0.3351  0.1433  0.5274
  909MOL0     C22643   6.597   9.031   7.625  0.3411  0.2742 -0.2732
  909MOL0     C22644   6.626   8.968   7.498  0.0655  0.2075  0.7260
  909MOL0     C22645   6.647   8.906   7.395 -0.1185 -0.2292  0.1916
  909MOL0     C22646   5.955   8.940   7.828 -0.3620  0.3874  0.2242
  909MOL0     C22647   5.876   8.845   7.884 -0.3427 -0.4259  1.0110
  909MOL0     H22648   5.455   8.730   8.000 -3.4370 -0.8432 -1.6449
  909MOL0     H22649   5.263   8.577   8.059 -1.4483 -3.8234 -1.9473
  909MOL0     H22650   5.212   8.146   8.198 -0.9294  1.2755 -1.7882
  909MOL0     H22651   5.366   8.127   8.125  2.3156  1.9341 -0.4777
  909MOL0     H22652   5.441   8.300   8.333  2.6687 -1.1021 -0.2448
  909MOL0     H22653   5.279   8.254   8.390 -0.0002 -0.2768 -0.2198
  909MOL0     H22654   5.529   8.079   8.359  1.5307  2.2127 -0.8888
  909MOL0     H22655   5.456   8.137   8.504  0.3245  1.5082 -1.3783
  909MOL0     H22656   5.293   7.969   8.315  1.6841 -2.2826 -0.8067
  909MOL0     H22657   5.412   7.892   8.431 -0.0210 -0.3763 -0.5127
  909MOL0     H22658   5.303   7.970   8.622  0.5519  1.2463 -0.2392
  909MOL0     H22659   5.201   8.092   8.545 -1.2198 -0.7095  3.1489
  909MOL0     H22660   5.089   7.900   8.414  1.1975  0.4168 -1.2062
  909MOL0     H22661   5.190   7.789   8.506  1.4757  2.0876 -1.2783
  909MOL0     H22662   5.079   7.936   8.711 -0.1819  1.6156 -0.6376
  909MOL0     H22663   4.969   7.979   8.584  2.6661  1.4742 -2.2953
  909MOL0     H22664   4.889   7.805   8.741  0.0678  0.9209 -0.6107
  909MOL0     H22665   5.029   7.701   8.703 -1.2367 -0.1351  1.6101
  909MOL0     H22666   5.032   7.555   8.489  0.5563  1.5767  1.2296
  909MOL0     H22667   4.885   7.376   8.327 -2.2556  0.7843  0.3629
  909MOL0     H22668   4.731   7.448   8.259 -1.3343  4.2041 -1.6880
  909MOL0     H22669   5.017   7.536   8.172 -0.0149  1.8115 -0.5716
  909MOL0     H22670   4.859   7.586   8.111 -3.6967 -0.8625  2.5049
  909MOL0     H22671   4.969   7.308   8.051 -0.1440 -0.8121  0.2431
  909MOL0     H22672   4.962   7.455   7.953 -0.2676 -0.6561 -0.4582
  909MOL0     H22673   4.767   7.322   7.903 -0.5748 -0.6677  0.2811
  909MOL0     H22674   4.701   7.468   7.994 -0.6269 -0.4567 -0.3483
  909MOL0     H22675   4.642   7.054   8.162  0.1575 -1.6063 -1.5173
  909MOL0     H22676   4.532   6.881   8.231 -0.7237  1.1855  0.7938
  909MOL0     H22677   4.359   6.882   8.227  0.9832 -1.5533 -0.5564
  909MOL0     H22678   4.459   6.813   8.094 -1.8091 -0.4078 -1.6712
  909MOL0     H22679   3.962   6.996   8.178  1.6311 -1.0490  0.0080
  909MOL0     H22680   3.736   6.935   8.093 -0.5703 -1.0111  0.1293
  909MOL0     H22681   3.580   6.745   8.160 -2.4227 -0.3698  0.2508
  909MOL0     H22682   3.535   6.845   8.017 -0.3541 -0.6126  0.0777
  909MOL0     H22683   3.477   6.568   8.067  0.2651  1.0812  1.3502
  909MOL0     H22684   3.364   6.711   8.075  0.2261  0.5693 -1.1850
  909MOL0     H22685   3.501   6.630   7.817  1.7411  3.7569 -1.4884
  909MOL0     H22686   3.390   6.766   7.846  0.8344 -0.3388 -2.5776
  909MOL0     H22687   3.289   6.486   7.893  1.3400  0.9465  1.8855
  909MOL0     H22688   3.191   6.631   7.891  0.8810  1.5084  1.6277
  909MOL0     H22689   3.339   6.576   7.640 -1.7987  0.2989 -2.3159
  909MOL0     H22690   3.198   6.681   7.680 -3.4355 -0.0688  1.7595
  909MOL0     H22691   3.196   6.381   7.674 -2.1084 -0.2272  1.6274
  909MOL0     H22692   3.068   6.467   7.730  0.3110 -1.8581  0.1926
  909MOL0     H22693   3.171   6.487   7.436 -1.5567  0.7790 -3.7196
  909MOL0     H22694   3.042   6.585   7.513 -0.9388 -0.8565  2.5882
  909MOL0     H22695   2.879   6.417   7.480 -0.9457 -0.8373  3.1417
  909MOL0     H22696   2.980   6.308   7.567  2.7933  0.8393  1.0406
  909MOL0     H22697   3.900   6.616   7.859  4.7261 -0.2274 -2.0242
  909MOL0     H22698   4.125   6.718   7.897  2.7277  1.9028  1.9039
  909MOL0     H22699   4.290   7.276   7.905  0.4573 -0.8087 -0.9267
  909MOL0     H22700   4.493   7.373   7.912  1.8308  0.0039  0.9451
  909MOL0     H22701   5.549   8.263   8.114  0.2086  0.4808 -0.9575
  909MOL0     H22702   5.725   8.411   8.060 -0.5359 -0.8885  2.1003
  909MOL0     H22703   6.090   8.709   8.108 -1.4315  0.3158  0.7279
  909MOL0     H22704   6.248   8.869   7.989 -0.2302 -1.5771  1.6499
  909MOL0     H22705   6.163   8.879   7.640 -1.0500  0.5299 -1.7203
  909MOL0     H22706   6.177   9.037   7.576  2.6447  0.5115 -1.3801
  909MOL0     H22707   6.371   8.873   7.551 -1.4794 -1.6509  0.2951
  909MOL0     H22708   6.379   8.864   7.726 -0.9023  1.0908  0.4663
  909MOL0     H22709   6.424   9.118   7.733  3.1083 -1.0643  2.1903
  909MOL0     H22710   6.410   9.119   7.560  0.8119 -0.5052 -0.1626
  909MOL0     H22711   6.619   8.959   7.704  0.4146 -0.9884 -1.4014
  909MOL0     H22712   6.654   9.123   7.641  0.6347  0.0411  0.0353
  909MOL0     H22713   6.671   8.876   7.295 -0.3199  0.3760 -0.0442
  909MOL0     H22714   5.914   8.999   7.746 -1.8584  0.0627  0.7146
  909MOL0     H22715   5.787   8.828   7.825  0.6916  1.9931 -1.4543
  910MOL0     O22716   1.278   1.298   5.473 -0.3742  0.3998  0.6530
  910MOL0     C22717   1.184   1.376   5.480 -0.0105 -0.7662 -0.4655
  910MOL0     O22718   1.049   1.356   5.455 -0.2813  0.9978  0.6337
  910MOL0     C22719   0.999   1.225   5.438  0.2255 -0.5999 -0.0108
  910MOL0     C22720   0.885   1.210   5.365  0.7822 -1.0438  0.1193
  910MOL0     C22721   0.834   1.078   5.360 -0.7553 -0.5336  1.2634
  910MOL0     C22722   0.898   0.968   5.421  0.0494  0.4184 -0.0077
  910MOL0     O22723   0.843   0.843   5.415 -0.1057 -0.8928  0.0775
  910MOL0     C22724   0.718   0.834   5.477  0.4009  0.3851 -0.3215
  910MOL0     C22725   0.694   0.681   5.483 -0.0344 -0.2209 -0.4426
  910MOL0     C22726   0.646   0.629   5.348  0.1972 -0.2659  0.5839
  910MOL0     C22727   0.638   0.478   5.356  0.4079  0.1001 -0.4243
  910MOL0     C22728   0.542   0.422   5.255  0.0630  0.0576  0.7777
  910MOL0     C22729   0.389   0.436   5.289  0.2555  0.1733  0.1958
  910MOL0     C22730   0.298   0.426   5.159  0.4207 -0.2049  0.4859
  910MOL0     C22731   0.149   0.422   5.193  0.3841  0.4885  0.1551
  910MOL0     N22732   0.058   0.368   5.092 -0.1484  1.0672  0.2327
  910MOL0     C22733  -0.068   0.412   5.079  0.3705 -0.2553  0.9157
  910MOL0     C22734  -0.139   0.301   5.033  0.1195  0.5581  0.8088
  910MOL0     C22735  -0.288   0.289   4.999 -0.3090 -0.4253 -0.0542
  910MOL0     C22736  -0.304   0.341   4.858  0.1448  0.4151  0.0042
  910MOL0     C22737  -0.287   0.223   4.751  0.5504 -0.0694  0.6887
  910MOL0     C22738  -0.367   0.261   4.618  0.0101 -0.3192 -0.6445
  910MOL0     O22739  -0.501   0.223   4.626  0.0879  0.2765 -0.5585
  910MOL0     C22740  -0.592   0.294   4.547  0.2323 -0.7752 -0.2927
  910MOL0     C22741  -0.564   0.351   4.427  0.6596  0.3825  0.4018
  910MOL0     C22742  -0.655   0.425   4.351  0.9265  0.3409  0.0948
  910MOL0     C22743  -0.591   0.489   4.228  0.4835  0.5380  0.9606
  910MOL0     C22744  -0.788   0.425   4.395  1.5947  0.5960 -0.0578
  910MOL0     C22745  -0.896   0.496   4.326  0.2539  0.4955  0.3402
  910MOL0     O22746  -0.993   0.530   4.420 -0.0212 -0.0593  0.3279
  910MOL0     C22747  -1.114   0.592   4.386 -0.5709  1.0489  0.3664
  910MOL0     C22748  -1.152   0.653   4.259  0.2484 -0.2472  0.6197
  910MOL0     C22749  -1.285   0.678   4.224  0.0624 -0.4425  0.2754
  910MOL0     C22750  -1.391   0.662   4.315  0.2410  0.9783 -0.2478
  910MOL0     O22751  -1.523   0.701   4.284  0.0480 -0.2035  0.2171
  910MOL0     C22752  -1.629   0.676   4.374  0.4594  0.5621  0.6550
  910MOL0     C22753  -1.735   0.739   4.294  0.0937  0.1880  0.4169
  910MOL0     C22754  -1.804   0.661   4.181  0.1962  0.3843 -0.7729
  910MOL0     C22755  -1.914   0.748   4.132  0.3736 -0.2076 -0.2799
  910MOL0     C22756  -2.052   0.714   4.187 -0.1166 -0.1301 -0.0857
  910MOL0     C22757  -2.170   0.787   4.130  0.1257 -0.2982 -0.3190
  910MOL0     C22758  -2.299   0.751   4.189 -0.7364  0.5938  0.3920
  910MOL0     C22759  -2.421   0.814   4.128  0.1976  0.7616 -0.2719
  910MOL0    Cl22760  -2.555   0.747   4.212  0.0755 -0.1353 -0.1840
  910MOL0     C22761  -1.360   0.609   4.441  0.0072 -0.7055 -0.0402
  910MOL0     C22762  -1.225   0.581   4.471 -0.4228 -0.3831  1.0101
  910MOL0     O22763  -0.897   0.535   4.208  0.2985 -0.5219  0.4889
  910MOL0     C22764  -0.818   0.358   4.516  0.4468 -0.0472  0.3683
  910MOL0     C22765  -0.720   0.302   4.594  0.2486 -0.9626  0.1082
  910MOL0     N22766  -0.054   0.195   5.023  0.3515 -0.2853 -1.2124
  910MOL0     N22767   0.060   0.237   5.067 -0.4505  0.1411  0.3635
  910MOL0     C22768   1.013   0.992   5.502  0.7485 -1.0262  1.0444
  910MOL0     C22769   1.055   1.124   5.517  0.4838  0.4130  0.1860
  910MOL0     C22770   1.222   1.519   5.510 -1.4279 -0.6236  0.3755
  910MOL0     C22771   1.338   1.535   5.592  0.7320  0.7205  1.4978
  910MOL0     C22772   1.370   1.671   5.619 -0.4317  0.7287 -0.2650
  910MOL0     C22773   1.293   1.780   5.573  0.0601 -1.3208 -0.3039
  910MOL0     O22774   1.319   1.914   5.598 -0.2998 -0.8929 -0.9194
  910MOL0     C22775   1.438   1.956   5.664  0.1539  0.0709  0.3035
  910MOL0     C22776   1.436   1.948   5.808 -0.8619  0.1372 -0.1675
  910MOL0     C22777   1.312   2.009   5.873 -0.0708 -0.8375  0.0791
  910MOL0     C22778   1.298   2.162   5.836 -0.6989  0.4197  0.6866
  910MOL0     C22779   1.393   2.251   5.906  0.2841  0.0868  0.0074
  910MOL0     C22780   1.470   2.330   5.961  0.9051 -0.1636 -0.2030
  910MOL0     C22781   1.190   1.762   5.491  0.2963  0.2598  1.2374
  910MOL0     C22782   1.151   1.629   5.461 -1.1836  0.2534  0.9301
  910MOL0     H22783   0.835   1.294   5.317  0.0684 -1.3474  0.3095
  910MOL0     H22784   0.758   1.045   5.289  0.1647 -3.8290  1.6411
  910MOL0     H22785   0.705   0.881   5.575  1.1497 -0.1741  0.0565
  910MOL0     H22786   0.639   0.876   5.414  1.0521  0.3954 -1.1488
  910MOL0     H22787   0.783   0.634   5.525  0.0875 -0.2940 -0.7833
  910MOL0     H22788   0.622   0.665   5.565 -0.6782 -1.2065 -1.1826
  910MOL0     H22789   0.547   0.664   5.320  0.4933 -0.2732 -0.5358
  910MOL0     H22790   0.707   0.663   5.264  0.2292  2.1788  1.4940
  910MOL0     H22791   0.741   0.443   5.343 -0.1218 -2.4690  1.4506
  910MOL0     H22792   0.594   0.445   5.451 -3.0243  1.9582 -1.2254
  910MOL0     H22793   0.543   0.472   5.157 -3.1023 -1.0776  0.0493
  910MOL0     H22794   0.578   0.319   5.241 -1.3611 -0.4043  0.3202
  910MOL0     H22795   0.364   0.353   5.357  0.6032  2.6828  3.6406
  910MOL0     H22796   0.369   0.529   5.343  1.4541  0.2256  0.5639
  910MOL0     H22797   0.325   0.502   5.085  2.0069 -1.2290 -0.0478
  910MOL0     H22798   0.321   0.331   5.110 -0.4978  0.0680 -0.5064
  910MOL0     H22799   0.131   0.530   5.195 -3.1028  0.0308  1.9397
  910MOL0     H22800   0.134   0.383   5.294 -2.7134  1.3702  0.1676
  910MOL0     H22801  -0.117   0.508   5.088  2.3982  1.4955 -3.6949
  910MOL0     H22802  -0.322   0.185   5.006 -4.8865  0.8593  0.6220
  910MOL0     H22803  -0.353   0.349   5.064  1.3080  0.7319  0.5497
  910MOL0     H22804  -0.240   0.428   4.837 -2.5616  2.9039  1.3823
  910MOL0     H22805  -0.403   0.383   4.836 -0.0733  0.7479  1.5134
  910MOL0     H22806  -0.309   0.124   4.790 -1.5543  0.2052  0.3003
  910MOL0     H22807  -0.180   0.206   4.735  0.6016 -0.8217  1.7427
  910MOL0     H22808  -0.318   0.223   4.528  0.7667  1.8892 -1.2214
  910MOL0     H22809  -0.369   0.371   4.613  0.2475 -0.3579 -3.0184
  910MOL0     H22810  -0.468   0.342   4.376 -0.5526  1.8147 -2.3127
  910MOL0     H22811  -0.498   0.437   4.202 -0.0398 -1.9148  3.5001
  910MOL0     H22812  -0.654   0.474   4.140  0.5104  0.8332  0.8888
  910MOL0     H22813  -0.586   0.597   4.245 -1.3638  0.4007  2.7227
  910MOL0     H22814  -1.068   0.670   4.192  0.6850  2.0666  1.6306
  910MOL0     H22815  -1.301   0.719   4.125  0.5079 -2.1520 -0.5324
  910MOL0     H22816  -1.636   0.567   4.388  2.0453  0.3530 -0.0074
  910MOL0     H22817  -1.630   0.726   4.471 -1.6523  2.0762 -0.0524
  910MOL0     H22818  -1.814   0.764   4.365  0.2927  1.3314  0.2502
  910MOL0     H22819  -1.698   0.830   4.247 -0.8555  0.1347 -0.4809
  910MOL0     H22820  -1.840   0.564   4.216  0.3717  1.2477  2.0522
  910MOL0     H22821  -1.730   0.638   4.103  1.3556 -0.6517  0.5828
  910MOL0     H22822  -1.894   0.855   4.138  1.8414 -0.5417  1.6411
  910MOL0     H22823  -1.930   0.726   4.026 -2.3846  1.2250 -0.2366
  910MOL0     H22824  -2.041   0.745   4.291  1.4177  0.6546 -0.4562
  910MOL0     H22825  -2.069   0.606   4.194  0.2179 -0.1531  0.4314
  910MOL0     H22826  -2.154   0.891   4.159  0.7952 -0.2154 -0.9654
  910MOL0     H22827  -2.166   0.782   4.021  2.6576  0.6461 -0.3473
  910MOL0     H22828  -2.287   0.762   4.297 -1.2927 -1.7654  0.7646
  910MOL0     H22829  -2.310   0.642   4.182  1.7856  0.2293  1.0791
  910MOL0     H22830  -2.429   0.786   4.023  2.1421 -0.3952 -0.1638
  910MOL0     H22831  -2.407   0.923   4.122 -0.9313  1.1189  2.3600
  910MOL0     H22832  -1.436   0.575   4.512  1.3404 -0.2894  1.6554
  910MOL0     H22833  -1.218   0.533   4.568 -1.8527  0.6350  1.6385
  910MOL0     H22834  -0.917   0.356   4.560  1.2525 -0.6793  2.2541
  910MOL0     H22835  -0.734   0.260   4.693  2.2087  3.6054  2.6113
  910MOL0     H22836   1.073   0.911   5.544  0.2203 -3.1672 -2.0356
  910MOL0     H22837   1.137   1.138   5.588  2.0457 -1.3513 -1.1666
  910MOL0     H22838   1.394   1.456   5.642  4.4932  1.6485 -0.8624
  910MOL0     H22839   1.454   1.698   5.681 -0.4924 -0.0258  0.1577
  910MOL0     H22840   1.517   1.892   5.623  0.9093  0.9628  0.3118
  910MOL0     H22841   1.458   2.058   5.629 -0.2795  0.1963  0.4109
  910MOL0     H22842   1.526   1.999   5.842  1.7021 -3.6547 -0.5799
  910MOL0     H22843   1.450   1.848   5.850 -0.0860  0.9763  1.6818
  910MOL0     H22844   1.306   1.996   5.981 -2.9215 -2.1348 -0.1452
  910MOL0     H22845   1.226   1.944   5.851 -1.8099  1.8592 -1.8219
  910MOL0     H22846   1.205   2.196   5.882 -1.1164 -2.4731  2.2176
  910MOL0     H22847   1.291   2.179   5.728  1.9785 -0.3204  0.3285
  910MOL0     H22848   1.529   2.416   5.986 -0.4662  0.9197 -0.5239
  910MOL0     H22849   1.138   1.849   5.455 -0.7283 -0.4871  0.8673
  910MOL0     H22850   1.071   1.612   5.390  0.2732  1.5867 -1.1530
  911MOL0     O22851   6.180   1.056  10.317 -0.6942  0.2294 -0.3775
  911MOL0     C22852   6.176   1.037  10.196 -0.1767  0.4007 -0.5610
  911MOL0     O22853   6.274   0.999  10.115 -0.0308 -0.2318 -0.6386
  911MOL0     C22854   6.407   0.982  10.154  1.0555  0.3035 -1.3537
  911MOL0     C22855   6.478   1.062  10.243  0.7168 -0.5012  0.5042
  911MOL0     C22856   6.620   1.043  10.266 -0.5531  0.4294 -0.5835
  911MOL0     C22857   6.690   0.936  10.203  0.2880 -0.8497 -0.0478
  911MOL0     O22858   6.825   0.907  10.224 -0.3164  0.2519  0.0508
  911MOL0     C22859   6.875   0.928  10.357 -0.5472  0.5593  0.1276
  911MOL0     C22860   7.008   0.851  10.375  0.1642  0.5270 -0.1475
  911MOL0     C22861   7.129   0.901  10.287  0.2061 -0.2140  0.5715
  911MOL0     C22862   7.240   0.800  10.276  0.3388 -0.0133  0.4432
  911MOL0     C22863   7.294   0.777  10.418  0.2698 -0.2468  0.2471
  911MOL0     C22864   7.432   0.709  10.418 -0.0153 -0.1856 -0.1218
  911MOL0     C22865   7.515   0.733  10.541  0.5544  0.4901 -0.1273
  911MOL0     C22866   7.666   0.756  10.527  0.9723 -0.2649 -0.4549
  911MOL0     N22867   7.727   0.623  10.495 -0.6126 -0.0584  0.4814
  911MOL0     C22868   7.769   0.523  10.577  0.7002 -0.2770 -0.9612
  911MOL0     C22869   7.795   0.417  10.505 -0.2898 -0.7784 -1.1099
  911MOL0     C22870   7.854   0.285  10.548  0.1767  0.2250 -0.4317
  911MOL0     C22871   7.986   0.303  10.625  0.3623 -0.2244  0.1671
  911MOL0     C22872   8.034   0.155  10.644 -0.6908  0.2389  0.3465
  911MOL0     C22873   8.181   0.138  10.692 -0.4667 -0.1623 -0.0059
  911MOL0     O22874   8.246   0.266  10.672 -0.1601  0.0397  0.0878
  911MOL0     C22875   8.385   0.260  10.673 -0.0845  0.4495  0.2272
  911MOL0     C22876   8.452   0.378  10.636  0.9993  0.2596  0.7885
  911MOL0     C22877   8.595   0.392  10.648  0.3119 -0.9024  0.2865
  911MOL0     C22878   8.643   0.529  10.598 -0.2087  0.2112 -0.3500
  911MOL0     C22879   8.670   0.275  10.677  0.4078  0.7934 -0.2760
  911MOL0     C22880   8.823   0.283  10.696 -0.5012 -0.4629 -0.6579
  911MOL0     O22881   8.887   0.171  10.748 -0.0887  0.0778 -0.6731
  911MOL0     C22882   9.023   0.190  10.773  0.5130  0.6812 -0.2790
  911MOL0     C22883   9.079   0.185  10.908 -0.2686 -0.1191  0.4560
  911MOL0     C22884   9.214   0.202  10.928 -0.4731  0.0233  0.1401
  911MOL0     C22885   9.300   0.205  10.812 -0.6987 -0.0763 -0.7328
  911MOL0     O22886   9.433   0.198  10.840  0.0799  0.2715  0.4518
  911MOL0     C22887   9.518   0.169  10.726 -0.7037 -0.2229  1.3427
  911MOL0     C22888   9.663   0.133  10.746 -0.1290  0.0749  0.0908
  911MOL0     C22889   9.728   0.232  10.830  0.0092 -0.5995  0.1047
  911MOL0     C22890   9.858   0.174  10.896  0.1774  0.3050 -0.0447
  911MOL0     C22891   9.932   0.276  10.980  0.2623 -0.1430 -0.6036
  911MOL0     C22892  10.054   0.217  11.055 -0.6815  0.0187 -0.2779
  911MOL0     C22893  10.156   0.137  10.971 -0.3218 -0.2574  0.1150
  911MOL0     C22894  10.276   0.086  11.053  0.4930 -0.1003  0.5752
  911MOL0    Cl22895  10.351   0.216  11.141  0.0684 -0.2739  0.2548
  911MOL0     C22896   9.245   0.211  10.686 -0.1569 -0.0593 -0.2709
  911MOL0     C22897   9.106   0.203  10.668  0.0044 -0.2606  0.3036
  911MOL0     O22898   8.883   0.392  10.673 -0.2764  0.1832 -0.3381
  911MOL0     C22899   8.605   0.159  10.719 -0.4887 -0.8788 -0.3949
  911MOL0     C22900   8.460   0.150  10.719 -0.7762 -0.0442 -0.6523
  911MOL0     N22901   7.766   0.453  10.375 -0.6315 -0.6851 -0.6391
  911MOL0     N22902   7.729   0.576  10.367  0.6810 -0.4544  0.4187
  911MOL0     C22903   6.617   0.862  10.109 -0.1348 -0.3867  0.0738
  911MOL0     C22904   6.480   0.878  10.088 -0.0979  0.0404 -0.4692
  911MOL0     C22905   6.036   1.037  10.147 -0.1390  0.8018  0.6444
  911MOL0     C22906   6.012   1.001  10.013 -0.6432 -0.1184 -0.1534
  911MOL0     C22907   5.883   0.962   9.976 -0.4330 -0.6906 -0.0870
  911MOL0     C22908   5.774   0.971  10.059  0.4290 -0.1389 -1.0250
  911MOL0     O22909   5.655   0.918  10.007  0.4025 -0.1165  0.1383
  911MOL0     C22910   5.532   0.920  10.086 -0.8266 -0.4760  0.5445
  911MOL0     C22911   5.463   1.047  10.054  0.2847  0.1473  0.2627
  911MOL0     C22912   5.426   1.040   9.906  0.3426  0.0745 -0.7759
  911MOL0     C22913   5.331   1.138   9.866  0.2644  0.3058 -0.1977
  911MOL0     C22914   5.376   1.276   9.882 -1.0599 -0.4367  0.3597
  911MOL0     C22915   5.444   1.375   9.902  0.1583  0.4107  0.2293
  911MOL0     C22916   5.793   1.024  10.184  0.1319  0.4954  0.0367
  911MOL0     C22917   5.921   1.059  10.231 -0.3399 -0.9612 -0.4197
  911MOL0     H22918   6.424   1.142  10.292  0.8890  0.0244 -0.1519
  911MOL0     H22919   6.666   1.108  10.339 -0.8236 -0.9196  0.8278
  911MOL0     H22920   6.888   1.036  10.367  0.1225  0.5766 -0.8134
  911MOL0     H22921   6.804   0.897  10.434  0.0198 -3.2053 -0.6718
  911MOL0     H22922   7.030   0.862  10.481  0.8123 -2.4110  0.1000
  911MOL0     H22923   6.985   0.748  10.347 -0.1791  1.1661 -2.4069
  911MOL0     H22924   7.096   0.917  10.184  2.6243  1.0208 -0.0889
  911MOL0     H22925   7.162   1.002  10.314  0.2038 -0.5496  1.8934
  911MOL0     H22926   7.220   0.704  10.228 -0.4412  0.4067 -0.0878
  911MOL0     H22927   7.321   0.850  10.222 -0.4782 -0.0446 -0.8553
  911MOL0     H22928   7.299   0.873  10.471 -2.2761  0.4969 -0.7028
  911MOL0     H22929   7.218   0.714  10.464 -1.0743 -1.4824 -3.2789
  911MOL0     H22930   7.403   0.603  10.413 -0.0802 -0.1768  0.1008
  911MOL0     H22931   7.487   0.736  10.327  2.0983  1.6132  1.5684
  911MOL0     H22932   7.486   0.821  10.599  1.7092 -0.0721  1.3967
  911MOL0     H22933   7.515   0.656  10.618 -1.6022  1.0467  0.4834
  911MOL0     H22934   7.692   0.803  10.622 -0.3064  1.3025 -0.8383
  911MOL0     H22935   7.680   0.830  10.448  3.4325 -0.5342 -0.3591
  911MOL0     H22936   7.780   0.537  10.685 -1.8505  0.1492 -0.6822
  911MOL0     H22937   7.785   0.231  10.614 -0.0325  1.0562  0.0344
  911MOL0     H22938   7.871   0.243  10.448 -2.1462  2.5196 -1.9245
  911MOL0     H22939   7.984   0.363  10.716 -0.0933  4.5648 -2.6829
  911MOL0     H22940   8.052   0.359  10.559 -1.5534  0.4959 -1.2077
  911MOL0     H22941   8.027   0.096  10.552 -1.3242  1.3451 -0.3460
  911MOL0     H22942   7.979   0.099  10.720 -0.4541 -0.6797 -0.1484
  911MOL0     H22943   8.237   0.059  10.641  1.3671  1.7686 -1.1668
  911MOL0     H22944   8.172   0.108  10.797 -2.0316 -1.2912 -0.4214
  911MOL0     H22945   8.399   0.464  10.597  2.2080 -0.2289 -2.1985
  911MOL0     H22946   8.666   0.593  10.684 -1.9226  0.2450  0.1349
  911MOL0     H22947   8.735   0.521  10.540  0.2222 -0.3119  0.3852
  911MOL0     H22948   8.563   0.572  10.537 -3.1213 -4.7151 -0.5751
  911MOL0     H22949   9.012   0.182  10.993 -2.2702 -1.0694 -1.0580
  911MOL0     H22950   9.252   0.196  11.030  0.0530  0.4505 -0.0210
  911MOL0     H22951   9.471   0.090  10.666 -0.8860  0.3704  0.6832
  911MOL0     H22952   9.514   0.262  10.667  1.9548  0.2535  1.8153
  911MOL0     H22953   9.663   0.033  10.792 -1.5454  0.1125  0.2057
  911MOL0     H22954   9.716   0.124  10.651 -0.1845  0.8267 -0.0188
  911MOL0     H22955   9.657   0.267  10.905 -1.3888  1.6299 -2.1304
  911MOL0     H22956   9.760   0.314  10.765  3.6715 -1.6352  0.3692
  911MOL0     H22957   9.831   0.090  10.961  0.0755  0.0241 -0.4449
  911MOL0     H22958   9.916   0.130  10.814 -1.2722  0.2232 -1.0725
  911MOL0     H22959   9.854   0.313  11.047 -0.9861 -2.7875 -0.4769
  911MOL0     H22960   9.956   0.366  10.923  1.0834 -0.8529 -1.4173
  911MOL0     H22961  10.095   0.298  11.116 -1.2998 -0.4112  0.7282
  911MOL0     H22962  10.018   0.144  11.128 -0.8330  0.0611 -0.3099
  911MOL0     H22963  10.204   0.200  10.896  0.4615 -1.6493 -0.6063
  911MOL0     H22964  10.102   0.061  10.914 -0.6624  1.9222 -2.7306
  911MOL0     H22965  10.348   0.040  10.985 -2.2823 -2.0335 -1.2810
  911MOL0     H22966  10.233   0.011  11.121 -0.1194 -0.9512 -0.7067
  911MOL0     H22967   9.294   0.236  10.592 -0.8467  0.7352 -0.4283
  911MOL0     H22968   9.077   0.207  10.563 -0.7269  3.0762  0.5200
  911MOL0     H22969   8.654   0.074  10.765 -0.7046  0.2001  1.9802
  911MOL0     H22970   8.427   0.062  10.774 -0.2608  2.4480  4.2008
  911MOL0     H22971   6.662   0.787  10.045 -0.0486  1.3526 -2.0424
  911MOL0     H22972   6.407   0.817  10.035 -1.1185  0.2313  0.6570
  911MOL0     H22973   6.098   0.991   9.947  0.9965  0.2863  1.8275
  911MOL0     H22974   5.864   0.931   9.874  1.4030  1.5857 -1.2127
  911MOL0     H22975   5.475   0.833  10.053 -2.3810 -0.8204  3.7470
  911MOL0     H22976   5.550   0.918  10.194  0.9082  2.8343  0.4623
  911MOL0     H22977   5.522   1.139  10.064 -1.5426  1.5732 -1.2769
  911MOL0     H22978   5.375   1.057  10.118 -0.0878  0.6596 -0.3166
  911MOL0     H22979   5.370   0.948   9.884 -1.1040  0.9104 -0.7407
  911MOL0     H22980   5.515   1.054   9.845  2.1304 -0.6436  1.5422
  911MOL0     H22981   5.236   1.122   9.918  0.6568  0.5628  0.6109
  911MOL0     H22982   5.311   1.119   9.761  1.1367  4.4823 -1.3327
  911MOL0     H22983   5.491   1.470   9.919  1.1314  0.2263 -1.2694
  911MOL0     H22984   5.713   1.027  10.257  2.0008 -2.9813  2.5193
  911MOL0     H22985   5.942   1.082  10.335  0.4458 -0.7345 -0.6242
  912MOL0     O22986   4.152   5.517   5.050  1.4966 -0.0365 -0.4500
  912MOL0     C22987   4.134   5.556   4.937 -0.5063  0.0484  0.1262
  912MOL0     O22988   4.023   5.511   4.859 -0.4224 -1.4394  0.4511
  912MOL0     C22989   3.936   5.430   4.927 -0.2237 -0.4558 -0.4227
  912MOL0     C22990   3.941   5.294   4.906  0.3400 -0.0153  0.3301
  912MOL0     C22991   3.850   5.206   4.966  0.8653  0.6748  0.5456
  912MOL0     C22992   3.764   5.265   5.053  0.0790 -0.3092 -0.5416
  912MOL0     O22993   3.672   5.191   5.129  0.3590 -0.5583  0.3243
  912MOL0     C22994   3.695   5.047   5.166  0.5565  0.1537 -0.1882
  912MOL0     C22995   3.572   4.990   5.244 -0.3797  0.5985 -0.5850
  912MOL0     C22996   3.592   4.839   5.240  0.5216  0.3980 -0.7204
  912MOL0     C22997   3.474   4.763   5.309  0.1448  0.3530  0.4144
  912MOL0     C22998   3.357   4.735   5.217 -0.1574 -0.8612  0.7907
  912MOL0     C22999   3.309   4.847   5.125 -0.2930 -0.3299 -0.7082
  912MOL0     C23000   3.188   4.795   5.037 -0.2066  0.1722 -0.8779
  912MOL0     C23001   3.046   4.799   5.087  0.6721  0.2478 -0.5258
  912MOL0     N23002   2.961   4.712   5.005  0.0428 -0.2775 -0.0729
  912MOL0     C23003   2.988   4.594   4.950  0.7193 -0.0690  0.5084
  912MOL0     C23004   2.878   4.573   4.863  0.1325 -0.1926  0.8831
  912MOL0     C23005   2.854   4.449   4.780  0.4286  0.4413 -0.3541
  912MOL0     C23006   2.806   4.328   4.870  0.6911 -1.1322  0.3351
  912MOL0     C23007   2.655   4.348   4.920  0.4404 -0.4647  1.0547
  912MOL0     C23008   2.601   4.224   4.999 -0.8815 -0.3103  0.6087
  912MOL0     O23009   2.493   4.256   5.083  0.1801  1.0855  0.2287
  912MOL0     C23010   2.424   4.150   5.136  0.7442 -0.6949  0.3018
  912MOL0     C23011   2.295   4.179   5.189 -0.0773 -1.2966 -0.8693
  912MOL0     C23012   2.210   4.080   5.243  0.6190 -0.4292  0.1721
  912MOL0     C23013   2.072   4.124   5.269  0.2091  0.5573  0.5196
  912MOL0     C23014   2.265   3.950   5.260 -0.3030  0.2969  0.1677
  912MOL0     C23015   2.189   3.837   5.308  0.0821  1.1161 -0.5119
  912MOL0     O23016   2.212   3.727   5.232  0.4287 -0.1737  0.0908
  912MOL0     C23017   2.141   3.606   5.259  0.2386  0.8021  0.4186
  912MOL0     C23018   2.206   3.482   5.256 -0.0033 -0.8201  0.9615
  912MOL0     C23019   2.143   3.361   5.273  0.5762  0.4086 -0.6880
  912MOL0     C23020   2.005   3.359   5.298  0.3557 -0.1741 -1.2123
  912MOL0     O23021   1.925   3.255   5.321  0.2621  0.7096 -0.7940
  912MOL0     C23022   1.988   3.151   5.409  0.2233 -0.2927 -0.1055
  912MOL0     C23023   1.892   3.044   5.472 -0.5176 -0.2169 -0.4758
  912MOL0     C23024   1.817   2.976   5.354  0.4596 -0.0000  1.6599
  912MOL0     C23025   1.717   2.871   5.408 -0.4800  0.1720 -0.1686
  912MOL0     C23026   1.790   2.743   5.442  0.2165 -0.2872 -0.2692
  912MOL0     C23027   1.705   2.624   5.486  0.9430 -0.7725 -1.1405
  912MOL0     C23028   1.617   2.648   5.607 -0.1432  0.6106 -0.8222
  912MOL0     C23029   1.553   2.519   5.654 -0.1805  0.4559 -0.2133
  912MOL0    Cl23030   1.674   2.395   5.714  0.1107  0.1116  0.1001
  912MOL0     C23031   1.941   3.474   5.300  0.3749 -0.8267 -0.7117
  912MOL0     C23032   2.004   3.600   5.284  0.4576  0.5341 -0.1513
  912MOL0     O23033   2.110   3.841   5.401 -0.0916 -1.1386 -0.5957
  912MOL0     C23034   2.388   3.927   5.208  0.0907 -0.1076  0.1326
  912MOL0     C23035   2.465   4.021   5.143  0.1567  0.2013  0.1341
  912MOL0     N23036   2.802   4.682   4.861 -0.1500 -0.5071  0.1041
  912MOL0     N23037   2.847   4.759   4.954  0.5660  0.0626 -0.7280
  912MOL0     C23038   3.751   5.399   5.069 -0.3995 -0.6965  0.2434
  912MOL0     C23039   3.844   5.489   5.015  0.6803  0.4038  0.5601
  912MOL0     C23040   4.220   5.680   4.904  0.5985 -0.4386  0.6295
  912MOL0     C23041   4.210   5.744   4.781  0.3734 -0.1516  1.1345
  912MOL0     C23042   4.285   5.857   4.754 -0.2754  0.1857 -0.8435
  912MOL0     C23043   4.367   5.915   4.847 -0.4863 -0.0012 -0.2325
  912MOL0     O23044   4.456   6.018   4.823 -0.2653 -0.1371 -0.0759
  912MOL0     C23045   4.464   6.081   4.699  0.0301 -0.2584 -0.2977
  912MOL0     C23046   4.575   6.181   4.669  0.0908 -0.7793 -0.1614
  912MOL0     C23047   4.711   6.113   4.672 -0.3094 -0.1699  0.5130
  912MOL0     C23048   4.766   6.072   4.807 -0.3695  0.1562  1.0214
  912MOL0     C23049   4.897   6.012   4.788  0.2169  0.2875 -0.9314
  912MOL0     C23050   5.010   5.967   4.780 -0.3474 -0.2713  0.2956
  912MOL0     C23051   4.374   5.856   4.971  0.3139  0.4366 -0.0480
  912MOL0     C23052   4.309   5.728   4.997 -0.0268  0.0621  0.6473
  912MOL0     H23053   4.007   5.258   4.828 -0.0652  1.9566 -1.0168
  912MOL0     H23054   3.846   5.098   4.952  4.3482  0.0847  2.7352
  912MOL0     H23055   3.714   4.980   5.082  0.2259  0.2146 -0.3131
  912MOL0     H23056   3.788   5.048   5.223  0.8563 -1.0328 -0.6255
  912MOL0     H23057   3.579   5.029   5.346  3.7607  1.4972 -1.0161
  912MOL0     H23058   3.470   5.016   5.213 -0.5625 -0.7090 -1.1280
  912MOL0     H23059   3.609   4.820   5.133  1.0584 -2.1882 -0.2405
  912MOL0     H23060   3.683   4.809   5.293 -0.6066 -1.4519  0.2608
  912MOL0     H23061   3.497   4.671   5.363  0.0310  0.5979  0.8814
  912MOL0     H23062   3.437   4.832   5.385  0.4502  0.0338  0.8597
  912MOL0     H23063   3.388   4.649   5.156  0.6430  0.5326 -0.8301
  912MOL0     H23064   3.282   4.690   5.282 -0.6203 -1.6819 -0.2678
  912MOL0     H23065   3.268   4.931   5.183 -1.6366  0.4334 -2.6151
  912MOL0     H23066   3.375   4.896   5.053 -1.5664  1.8298 -0.5205
  912MOL0     H23067   3.202   4.842   4.939 -3.1562 -1.4326 -2.2026
  912MOL0     H23068   3.201   4.689   5.015 -0.2630 -0.0779  0.2190
  912MOL0     H23069   3.015   4.903   5.077 -1.1663 -0.3379 -1.4417
  912MOL0     H23070   3.043   4.778   5.195  0.0234 -0.1338 -0.6123
  912MOL0     H23071   3.074   4.532   4.974  1.4110  0.6124 -0.1415
  912MOL0     H23072   2.778   4.481   4.708  2.3355  1.6577 -1.9367
  912MOL0     H23073   2.946   4.431   4.724 -0.7954  1.9062 -3.0416
  912MOL0     H23074   2.870   4.319   4.958  1.0017 -0.2282  0.2054
  912MOL0     H23075   2.807   4.230   4.822 -0.0767 -1.7864  1.5850
  912MOL0     H23076   2.586   4.366   4.838 -1.0198  0.4329  2.4300
  912MOL0     H23077   2.652   4.435   4.986  0.8774 -1.3926  2.3342
  912MOL0     H23078   2.684   4.188   5.060 -0.0654  0.5885  0.0591
  912MOL0     H23079   2.561   4.154   4.925 -2.8454 -1.2879  2.4901
  912MOL0     H23080   2.254   4.279   5.184  2.2654 -0.1877  0.2536
  912MOL0     H23081   2.030   4.191   5.194  0.3547  1.0716  0.8898
  912MOL0     H23082   1.996   4.045   5.268  1.2223 -0.5331  2.5698
  912MOL0     H23083   2.067   4.169   5.369 -0.5753  2.3645 -0.2902
  912MOL0     H23084   2.313   3.501   5.249  0.3963 -2.3579  2.3596
  912MOL0     H23085   2.202   3.270   5.285 -2.1036 -1.6527 -2.0836
  912MOL0     H23086   2.073   3.101   5.362  3.0440  3.7203  0.2558
  912MOL0     H23087   2.019   3.206   5.498 -1.4592  2.2665 -0.9949
  912MOL0     H23088   1.940   2.968   5.535  0.3238  0.7937  0.1297
  912MOL0     H23089   1.813   3.089   5.534  0.9380 -0.7862  1.9424
  912MOL0     H23090   1.881   2.939   5.274 -2.2896 -0.7183 -0.3388
  912MOL0     H23091   1.754   3.049   5.303  0.2086 -1.5855 -0.4225
  912MOL0     H23092   1.673   2.917   5.497 -0.5795  0.4321 -0.3519
  912MOL0     H23093   1.628   2.842   5.351 -0.9457 -0.8771  1.0438
  912MOL0     H23094   1.862   2.758   5.523  1.5415 -3.7714 -0.5971
  912MOL0     H23095   1.843   2.700   5.356  0.0705  0.3413 -0.6803
  912MOL0     H23096   1.627   2.607   5.412 -0.8774 -0.5525  0.6500
  912MOL0     H23097   1.770   2.536   5.489 -0.0632 -1.5142 -0.4352
  912MOL0     H23098   1.534   2.716   5.584 -0.0641  0.3472 -1.9490
  912MOL0     H23099   1.676   2.685   5.691 -0.4224 -3.4088  1.3739
  912MOL0     H23100   1.502   2.469   5.571  0.9752 -0.3056 -0.5058
  912MOL0     H23101   1.489   2.548   5.738 -2.1174  1.7344 -2.0293
  912MOL0     H23102   1.834   3.471   5.318  0.2659  0.3830 -1.0269
  912MOL0     H23103   1.936   3.684   5.288 -1.9685 -0.9965 -3.6833
  912MOL0     H23104   2.442   3.833   5.215  1.2787  0.6450  1.3051
  912MOL0     H23105   2.565   3.996   5.107  0.9053 -1.0229  2.8052
  912MOL0     H23106   3.666   5.436   5.125  1.2186  1.6408  1.3279
  912MOL0     H23107   3.851   5.591   5.050 -1.1548 -0.5345  4.1154
  912MOL0     H23108   4.159   5.701   4.696  1.3256  0.3375  0.2833
  912MOL0     H23109   4.289   5.883   4.649 -2.8266  0.1748 -1.0170
  912MOL0     H23110   4.479   5.997   4.631 -3.2022 -1.5835  0.4307
  912MOL0     H23111   4.366   6.122   4.675 -0.0356 -0.4245 -0.3197
  912MOL0     H23112   4.575   6.270   4.732  1.2324 -0.1379 -1.0314
  912MOL0     H23113   4.548   6.221   4.570 -0.5607  1.4364  0.8585
  912MOL0     H23114   4.775   6.181   4.616  1.1074  0.2010  2.4663
  912MOL0     H23115   4.692   6.025   4.610 -1.6917 -1.7790  3.0279
  912MOL0     H23116   4.698   6.000   4.855 -0.9877 -0.1271 -0.2193
  912MOL0     H23117   4.782   6.158   4.872  2.6304  0.7845 -0.4041
  912MOL0     H23118   5.109   5.928   4.764 -0.4420  0.4445 -2.5021
  912MOL0     H23119   4.445   5.908   5.033  3.9697 -1.9448 -1.8738
  912MOL0     H23120   4.336   5.668   5.083 -1.1053 -0.4257  0.6566
  913MOL0     O23121   9.953  10.868   9.301 -0.4053 -0.2680 -0.3421
  913MOL0     C23122   9.988  10.986   9.319 -0.3423 -0.4448  0.4424
  913MOL0     O23123   9.928  11.082   9.397 -0.0408  0.3860 -0.2123
  913MOL0     C23124   9.824  11.059   9.475  0.2315 -1.0866  0.3912
  913MOL0     C23125   9.715  11.148   9.466  0.7393 -0.0274  0.5866
  913MOL0     C23126   9.605  11.138   9.546  0.1092 -0.6984  0.0623
  913MOL0     C23127   9.598  11.034   9.645 -0.3457 -0.6452 -0.7343
  913MOL0     O23128   9.495  11.021   9.731 -0.4999  0.4002 -0.6348
  913MOL0     C23129   9.375  11.099   9.706 -1.6727 -0.2490  0.4083
  913MOL0     C23130   9.272  11.066   9.809  1.2259  0.6972 -0.1691
  913MOL0     C23131   9.137  11.114   9.752 -0.5199  0.5334  0.1645
  913MOL0     C23132   9.023  11.047   9.831  0.0408  0.4090  0.0005
  913MOL0     C23133   8.885  11.067   9.762  0.5651  0.1703  0.3083
  913MOL0     C23134   8.841  11.206   9.755 -0.4706 -0.0945 -0.1463
  913MOL0     C23135   8.700  11.222   9.700  0.5850 -0.1417  0.1325
  913MOL0     C23136   8.579  11.173   9.781  0.2653  0.3235  0.1016
  913MOL0     N23137   8.460  11.233   9.709  0.3736  0.5838 -0.2341
  913MOL0     C23138   8.368  11.160   9.643  0.1634 -0.2792  0.0300
  913MOL0     C23139   8.260  11.244   9.627  0.0736 -0.8885 -0.1789
  913MOL0     C23140   8.127  11.214   9.558 -0.4244  0.8089  0.2909
  913MOL0     C23141   8.150  11.156   9.418 -0.1788 -0.8006  0.7378
  913MOL0     C23142   8.027  11.105   9.347 -0.7579 -0.0934  1.1349
  913MOL0     C23143   8.045  11.099   9.193 -0.2799  0.2939 -1.2902
  913MOL0     O23144   8.167  11.028   9.163  0.0648  0.2588  0.2286
  913MOL0     C23145   8.237  11.082   9.060  0.2880  0.0359  1.1956
  913MOL0     C23146   8.226  11.022   8.931  0.0274 -0.4250 -0.3636
  913MOL0     C23147   8.312  11.056   8.830 -0.2949  0.9175  0.3007
  913MOL0     C23148   8.307  10.990   8.695  0.9360  0.0680  1.0396
  913MOL0     C23149   8.396  11.171   8.851  0.8292  0.5347  0.3760
  913MOL0     C23150   8.486  11.222   8.748 -0.9813 -0.4846  0.8478
  913MOL0     O23151   8.577  11.330   8.784  0.6863 -0.8676 -0.4173
  913MOL0     C23152   8.622  11.409   8.682 -0.9553  0.3215 -0.7333
  913MOL0     C23153   8.741  11.374   8.615  0.5844 -0.7207  0.8138
  913MOL0     C23154   8.790  11.464   8.523  0.5700  0.7464  1.1670
  913MOL0     C23155   8.728  11.590   8.505 -0.3160  0.5091 -0.6607
  913MOL0     O23156   8.781  11.688   8.430  0.3553 -0.0442 -0.1772
  913MOL0     C23157   8.911  11.692   8.383  0.1567 -1.1662  0.0337
  913MOL0     C23158   8.925  11.626   8.244  0.4684 -0.0859 -0.4518
  913MOL0     C23159   9.069  11.628   8.193 -0.1142 -0.1921 -0.0695
  913MOL0     C23160   9.150  11.529   8.282  0.2903  0.9426  0.2871
  913MOL0     C23161   9.273  11.468   8.214 -0.1798 -0.0676  0.9816
  913MOL0     C23162   9.373  11.419   8.319 -0.5938  0.7153 -0.9147
  913MOL0     C23163   9.500  11.374   8.253 -0.1515 -0.2453  0.0022
  913MOL0     C23164   9.585  11.313   8.369  0.4789  1.0962  0.6948
  913MOL0    Cl23165   9.714  11.198   8.306 -0.0635 -0.3484 -0.1677
  913MOL0     C23166   8.611  11.617   8.564  0.2098  0.3829  0.3276
  913MOL0     C23167   8.551  11.527   8.657  0.2033  0.3635 -0.0425
  913MOL0     O23168   8.467  11.186   8.629 -0.6448 -0.2999 -0.2247
  913MOL0     C23169   8.407  11.230   8.973 -0.0799  0.3492  0.1005
  913MOL0     C23170   8.336  11.181   9.077  0.0727 -0.1303  0.0374
  913MOL0     N23171   8.294  11.366   9.678  0.3973 -0.0996  0.8432
  913MOL0     N23172   8.417  11.360   9.727  0.4257 -0.6688  0.2566
  913MOL0     C23173   9.710  10.948   9.657  0.3134  0.8744  0.2863
  913MOL0     C23174   9.817  10.959   9.569  0.1504 -0.1190  0.4736
  913MOL0     C23175  10.118  11.021   9.262 -0.2729 -0.0409 -0.3114
  913MOL0     C23176  10.166  11.154   9.258 -0.0135 -0.1401  0.6578
  913MOL0     C23177  10.294  11.179   9.204  0.2003 -0.6448  0.0730
  913MOL0     C23178  10.373  11.082   9.151  0.0257 -0.3510  0.3856
  913MOL0     O23179  10.496  11.115   9.103 -0.1103  0.9598  0.0180
  913MOL0     C23180  10.584  11.012   9.053  0.1377  0.4512  0.8201
  913MOL0     C23181  10.719  11.069   8.995 -0.5459 -0.3060  0.7092
  913MOL0     C23182  10.810  10.946   8.948  0.2107 -0.8672 -0.3663
  913MOL0     C23183  10.907  10.975   8.830 -0.2291  0.3745 -0.1504
  913MOL0     C23184  10.998  11.084   8.862  0.0826 -0.3218 -0.2576
  913MOL0     C23185  11.077  11.168   8.899 -0.4895  0.4841  0.3259
  913MOL0     C23186  10.323  10.951   9.154 -0.0472  0.5313  0.3154
  913MOL0     C23187  10.195  10.928   9.201  0.3300 -0.8559  0.5070
  913MOL0     H23188   9.724  11.232   9.398 -3.5569 -0.6687 -1.0983
  913MOL0     H23189   9.533  11.220   9.547 -0.0036 -0.8006  0.4165
  913MOL0     H23190   9.396  11.205   9.722  0.4645 -0.7399  1.2658
  913MOL0     H23191   9.348  11.084   9.601 -3.3604 -1.0059  0.9164
  913MOL0     H23192   9.270  10.958   9.825 -1.2577  0.8295  0.8577
  913MOL0     H23193   9.289  11.118   9.903 -2.8232  0.0689  1.0951
  913MOL0     H23194   9.143  11.224   9.746  5.8994  0.5019 -0.7503
  913MOL0     H23195   9.129  11.089   9.646  1.1330  0.9646 -0.0866
  913MOL0     H23196   9.049  10.941   9.827  1.1814  0.6987 -1.0336
  913MOL0     H23197   9.017  11.088   9.932  1.4258  1.3766 -0.2778
  913MOL0     H23198   8.888  11.020   9.663  1.4937 -0.0682  0.4379
  913MOL0     H23199   8.817  10.997   9.812 -1.1771  0.4097 -1.6076
  913MOL0     H23200   8.843  11.246   9.857  0.3721 -0.3581 -0.0546
  913MOL0     H23201   8.907  11.266   9.691 -4.3159  2.0945 -2.4659
  913MOL0     H23202   8.679  11.329   9.690 -3.1134 -0.7979 -0.5492
  913MOL0     H23203   8.688  11.175   9.602 -1.3141 -0.0680  0.2931
  913MOL0     H23204   8.583  11.204   9.886  2.0271 -2.6094  1.0278
  913MOL0     H23205   8.576  11.064   9.791  2.9530  0.3107  2.0190
  913MOL0     H23206   8.375  11.060   9.601  1.3462  0.2871 -1.2085
  913MOL0     H23207   8.073  11.146   9.624 -0.8341  2.3509  1.6097
  913MOL0     H23208   8.077  11.311   9.555 -0.7768  0.6112 -1.6497
  913MOL0     H23209   8.230  11.083   9.406 -0.0645 -0.6266  0.4199
  913MOL0     H23210   8.184  11.243   9.360 -0.7823 -0.2746  1.1608
  913MOL0     H23211   7.949  11.178   9.374  1.2527  1.3495  3.4688
  913MOL0     H23212   7.990  11.009   9.383  1.8487 -0.1364  4.0107
  913MOL0     H23213   8.048  11.204   9.166  0.6590  0.8359  0.7137
  913MOL0     H23214   7.963  11.042   9.148 -1.0940  1.5208 -1.4086
  913MOL0     H23215   8.146  10.952   8.911  0.9345 -2.0405  1.3727
  913MOL0     H23216   8.398  10.935   8.669 -0.5031 -2.0965  0.3001
  913MOL0     H23217   8.238  10.905   8.693 -1.6457  2.0192  2.1973
  913MOL0     H23218   8.268  11.051   8.613 -1.4750 -2.8844 -0.2307
  913MOL0     H23219   8.788  11.277   8.629  2.8102  0.5622  3.0401
  913MOL0     H23220   8.871  11.429   8.461 -0.8261 -0.9180  0.1769
  913MOL0     H23221   8.922  11.800   8.371  1.7272 -1.1574  1.2388
  913MOL0     H23222   8.979  11.661   8.463  0.1034 -2.2248 -0.3205
  913MOL0     H23223   8.886  11.524   8.254 -2.5139  0.8868 -1.0787
  913MOL0     H23224   8.858  11.680   8.177 -0.2354 -1.8412 -1.2453
  913MOL0     H23225   9.106  11.730   8.183  0.2453 -0.2759  0.3672
  913MOL0     H23226   9.066  11.592   8.090  0.2218  0.9887 -0.5011
  913MOL0     H23227   9.183  11.583   8.371  2.9129 -1.1410  0.7332
  913MOL0     H23228   9.085  11.445   8.309  1.8935  0.4769  3.0925
  913MOL0     H23229   9.316  11.554   8.162  1.4900  0.6267  3.3740
  913MOL0     H23230   9.241  11.386   8.149 -4.0839 -1.8446  4.6984
  913MOL0     H23231   9.387  11.504   8.388  1.4279 -0.9161  0.8325
  913MOL0     H23232   9.332  11.333   8.372 -0.0916 -0.9487 -3.1078
  913MOL0     H23233   9.554  11.454   8.202 -1.4887 -0.7640 -2.3780
  913MOL0     H23234   9.490  11.293   8.181  2.9829 -0.5406 -0.2416
  913MOL0     H23235   9.522  11.250   8.432 -1.6282 -0.3268 -2.5446
  913MOL0     H23236   9.634  11.386   8.434  0.4531  1.9395 -0.2126
  913MOL0     H23237   8.563  11.708   8.530  1.9529  1.0574 -0.4360
  913MOL0     H23238   8.460  11.544   8.713 -0.1675 -0.4680 -0.3695
  913MOL0     H23239   8.474  11.312   8.997 -1.4402  2.0904 -1.6424
  913MOL0     H23240   8.360  11.217   9.176  0.9999  1.6750 -0.7933
  913MOL0     H23241   9.708  10.861   9.722  4.0688 -0.4419 -1.1284
  913MOL0     H23242   9.902  10.896   9.594  0.6544 -0.6142 -2.1617
  913MOL0     H23243  10.110  11.237   9.301  1.0331  1.4098 -0.8388
  913MOL0     H23244  10.325  11.283   9.210 -0.2614 -0.5781  2.2159
  913MOL0     H23245  10.599  10.938   9.133 -1.2700 -1.6231 -0.7315
  913MOL0     H23246  10.540  10.952   8.973 -0.3342  1.4906  0.2802
  913MOL0     H23247  10.779  11.125   9.067 -1.5520  0.5446  0.9192
  913MOL0     H23248  10.688  11.142   8.920 -0.2319  1.7928  2.5083
  913MOL0     H23249  10.754  10.859   8.912  2.6685 -1.5175 -2.9840
  913MOL0     H23250  10.870  10.914   9.033 -2.1399 -0.0046  1.7703
  913MOL0     H23251  10.843  10.993   8.742  1.2435  1.9235 -0.9629
  913MOL0     H23252  10.964  10.888   8.796 -1.6105 -0.1252 -1.2991
  913MOL0     H23253  11.143  11.248   8.926 -3.1258  2.0358  2.5714
  913MOL0     H23254  10.379  10.862   9.129  1.7511  1.5208  0.6897
  913MOL0     H23255  10.147  10.832   9.183  0.1634 -0.6970  0.0833
  914MOL0     O23256   3.134   8.192   7.505  0.0924 -0.1251  0.0725
  914MOL0     C23257   3.099   8.164   7.618 -0.9867  0.0724  1.2921
  914MOL0     O23258   2.978   8.203   7.678 -0.5529 -0.1650 -0.3098
  914MOL0     C23259   2.891   8.294   7.625  0.0223  0.2965 -0.3763
  914MOL0     C23260   2.767   8.276   7.683  0.5979  0.1002 -0.2833
  914MOL0     C23261   2.666   8.348   7.629  0.2512  0.1815  0.1694
  914MOL0     C23262   2.687   8.449   7.522  0.0875  0.0009 -1.4164
  914MOL0     O23263   2.590   8.520   7.459 -0.0972 -0.5731 -0.3702
  914MOL0     C23264   2.460   8.482   7.485 -0.0477  0.0112  0.5621
  914MOL0     C23265   2.354   8.548   7.391 -0.0774  0.0297 -0.8101
  914MOL0     C23266   2.334   8.475   7.265 -0.2716  0.4764 -0.1867
  914MOL0     C23267   2.195   8.494   7.194 -0.1875  0.0896  0.0369
  914MOL0     C23268   2.202   8.475   7.041 -0.5237  0.2947 -0.5415
  914MOL0     C23269   2.082   8.539   6.971  0.1049  0.9516  0.7797
  914MOL0     C23270   1.946   8.478   7.008 -0.3981  0.6044  0.2461
  914MOL0     C23271   1.837   8.528   6.919  0.2236 -0.2221 -0.2329
  914MOL0     N23272   1.705   8.460   6.942 -0.0491  1.2570 -0.8496
  914MOL0     C23273   1.634   8.433   7.055 -0.0197  1.0088 -0.5253
  914MOL0     C23274   1.519   8.376   7.013  0.0980  0.5085 -0.3428
  914MOL0     C23275   1.402   8.308   7.091 -0.3578 -0.1664  0.3320
  914MOL0     C23276   1.271   8.359   7.046  0.2672 -0.5302  0.4396
  914MOL0     C23277   1.147   8.277   7.100  0.3861 -0.0311  0.7625
  914MOL0     C23278   1.024   8.354   7.060  0.0668  0.3412 -0.3210
  914MOL0     O23279   1.030   8.384   6.918  0.9031  0.2175 -0.0250
  914MOL0     C23280   0.916   8.409   6.847  0.9000  0.2087  1.2464
  914MOL0     C23281   0.789   8.443   6.902 -0.4593 -0.5821 -0.3455
  914MOL0     C23282   0.679   8.490   6.819 -0.2125  0.9472  0.0762
  914MOL0     C23283   0.561   8.553   6.898  1.0954 -0.7006 -0.1312
  914MOL0     C23284   0.690   8.483   6.674  0.1786 -0.5186 -0.2766
  914MOL0     C23285   0.588   8.534   6.562 -0.2360  0.9303 -0.0250
  914MOL0     O23286   0.480   8.606   6.615 -0.1411 -0.1854  0.0452
  914MOL0     C23287   0.377   8.642   6.534 -0.3397  0.3938 -0.2905
  914MOL0     C23288   0.416   8.727   6.429  0.5325 -0.2957 -0.7223
  914MOL0     C23289   0.312   8.797   6.360 -0.3117 -0.2121  1.0368
  914MOL0     C23290   0.180   8.766   6.379  0.8828 -0.1800  0.2612
  914MOL0     O23291   0.074   8.835   6.316 -0.9038  0.5031  0.2357
  914MOL0     C23292   0.094   8.943   6.219 -0.0812 -0.1085  0.2846
  914MOL0     C23293  -0.046   8.986   6.175 -0.9217 -0.2971  0.5767
  914MOL0     C23294  -0.037   9.112   6.077 -0.9254  0.0321 -0.2815
  914MOL0     C23295  -0.172   9.156   6.021 -0.2895 -0.3146  0.3331
  914MOL0     C23296  -0.256   9.229   6.126  0.1480  0.4291 -0.3243
  914MOL0     C23297  -0.405   9.212   6.088 -0.2675  0.2810  0.1653
  914MOL0     C23298  -0.494   9.282   6.191 -0.7820  1.0294 -0.0320
  914MOL0     C23299  -0.639   9.236   6.187 -0.1335  0.6051 -1.0133
  914MOL0    Cl23300  -0.683   9.253   6.014  0.1078 -0.0150  0.1115
  914MOL0     C23301   0.147   8.679   6.477  0.6940 -0.0915 -0.9839
  914MOL0     C23302   0.242   8.617   6.564 -0.7070 -0.8401 -0.0437
  914MOL0     O23303   0.592   8.484   6.449  0.6367  0.4040 -0.1660
  914MOL0     C23304   0.812   8.438   6.623  0.0538 -0.1341 -0.3135
  914MOL0     C23305   0.925   8.404   6.708 -0.4041 -0.1445 -0.3653
  914MOL0     N23306   1.526   8.359   6.882 -0.6953  0.6777  0.4449
  914MOL0     N23307   1.630   8.410   6.839  0.2465 -0.9956 -0.5287
  914MOL0     C23308   2.817   8.467   7.473  0.0025 -1.1281  0.6833
  914MOL0     C23309   2.915   8.384   7.516 -0.0512  0.3640 -0.6185
  914MOL0     C23310   3.193   8.070   7.687 -0.2822 -0.5439  0.3583
  914MOL0     C23311   3.173   8.064   7.826 -0.8823  0.7627  0.2708
  914MOL0     C23312   3.249   7.984   7.910  0.1306 -0.3385  0.2984
  914MOL0     C23313   3.353   7.899   7.854 -0.3210  0.5816  0.1234
  914MOL0     O23314   3.437   7.811   7.933  0.3574  0.3970 -0.3417
  914MOL0     C23315   3.398   7.824   8.068 -0.4707  0.2296 -0.6182
  914MOL0     C23316   3.480   7.734   8.167 -0.2565 -0.3791 -0.0214
  914MOL0     C23317   3.629   7.753   8.165  0.4222  0.4144 -0.0086
  914MOL0     C23318   3.702   7.664   8.271  0.0028  0.8677 -0.4882
  914MOL0     C23319   3.839   7.723   8.294 -0.1737 -0.1467  0.2323
  914MOL0     C23320   3.963   7.749   8.308  0.1931 -0.1476  0.0945
  914MOL0     C23321   3.375   7.913   7.711 -0.7134 -0.3281  0.5515
  914MOL0     C23322   3.298   7.999   7.632 -0.9795 -0.3564 -0.3310
  914MOL0     H23323   2.753   8.198   7.757  1.1246  0.3975  0.1413
  914MOL0     H23324   2.571   8.336   7.682  0.4130  0.3095  0.4893
  914MOL0     H23325   2.440   8.375   7.477 -3.1776  0.5434  0.2276
  914MOL0     H23326   2.439   8.505   7.589  0.6557 -1.4519  1.0463
  914MOL0     H23327   2.257   8.546   7.440 -1.7074 -0.3789 -3.8195
  914MOL0     H23328   2.378   8.650   7.361  1.6412 -0.4902 -1.3939
  914MOL0     H23329   2.412   8.505   7.195  0.8358 -0.9604  0.3728
  914MOL0     H23330   2.351   8.368   7.283  3.6222  0.8723 -0.4837
  914MOL0     H23331   2.131   8.422   7.247  0.4096 -0.2592  0.2933
  914MOL0     H23332   2.161   8.596   7.212 -0.8531  0.0747 -1.0524
  914MOL0     H23333   2.289   8.535   7.011  2.0304 -2.0067  1.6928
  914MOL0     H23334   2.212   8.368   7.025  4.6992 -0.6676  5.2357
  914MOL0     H23335   2.079   8.647   6.990 -1.3499  0.7557  1.8025
  914MOL0     H23336   2.103   8.536   6.864  2.3356  0.4535  1.1646
  914MOL0     H23337   1.953   8.373   6.976 -0.5787  0.7470 -0.2634
  914MOL0     H23338   1.907   8.490   7.109 -0.2716 -2.5732  0.7879
  914MOL0     H23339   1.877   8.519   6.817  2.0109 -0.6410  0.4621
  914MOL0     H23340   1.831   8.633   6.951  0.7929 -0.3594  0.3627
  914MOL0     H23341   1.682   8.443   7.152 -3.0041 -1.0781  1.3191
  914MOL0     H23342   1.417   8.202   7.069 -1.7256 -0.9832  2.9021
  914MOL0     H23343   1.422   8.321   7.198 -0.4243 -1.7385  0.5602
  914MOL0     H23344   1.278   8.336   6.939 -1.2209 -6.1413  1.2307
  914MOL0     H23345   1.260   8.466   7.069  2.8077 -0.0375 -0.3153
  914MOL0     H23346   1.144   8.267   7.209  0.5746 -0.2798  0.7442
  914MOL0     H23347   1.137   8.181   7.049 -4.8245  1.1261 -1.0538
  914MOL0     H23348   1.022   8.441   7.126  1.0269 -2.2377  3.4156
  914MOL0     H23349   0.933   8.295   7.072  0.3450  0.1957  1.1771
  914MOL0     H23350   0.801   8.441   7.010  2.4334  0.3368 -0.5726
  914MOL0     H23351   0.563   8.546   7.007  0.1995  1.4751  0.0714
  914MOL0     H23352   0.568   8.661   6.882 -1.9491 -0.5609 -1.3838
  914MOL0     H23353   0.459   8.531   6.864  0.6981  0.3862  0.2897
  914MOL0     H23354   0.520   8.744   6.404  0.4422  0.6084 -0.5220
  914MOL0     H23355   0.344   8.882   6.301 -1.4940 -0.0201  0.6573
  914MOL0     H23356   0.145   9.026   6.271  0.4809 -0.2239 -0.0748
  914MOL0     H23357   0.157   8.915   6.135 -1.0624 -1.2315 -0.1008
  914MOL0     H23358  -0.096   8.904   6.121  1.4829 -0.6152 -1.3332
  914MOL0     H23359  -0.112   9.025   6.253  2.0689  2.5896  1.8724
  914MOL0     H23360   0.012   9.072   5.988 -0.9981  0.0314 -0.3208
  914MOL0     H23361   0.021   9.189   6.129  1.8414 -1.3583 -1.1169
  914MOL0     H23362  -0.153   9.212   5.929 -0.3910 -2.7346 -1.2572
  914MOL0     H23363  -0.214   9.057   5.999 -0.9941 -0.1204  0.7629
  914MOL0     H23364  -0.217   9.330   6.137  3.6342 -0.9588  1.5268
  914MOL0     H23365  -0.233   9.199   6.228  0.0075 -0.7840 -0.6256
  914MOL0     H23366  -0.409   9.261   5.990 -0.6203 -1.4893 -0.7498
  914MOL0     H23367  -0.434   9.108   6.069  3.6729 -0.4686 -3.4720
  914MOL0     H23368  -0.458   9.385   6.189 -1.2583  1.2060 -2.7696
  914MOL0     H23369  -0.451   9.239   6.282 -2.2720 -2.0154 -0.6312
  914MOL0     H23370  -0.699   9.303   6.248  2.5157  0.4933  1.9673
  914MOL0     H23371  -0.644   9.134   6.227 -0.3661  1.5809  1.6551
  914MOL0     H23372   0.042   8.663   6.501  1.2700 -2.0490  0.4968
  914MOL0     H23373   0.210   8.560   6.651 -3.8911  2.4388  1.1749
  914MOL0     H23374   0.825   8.437   6.515  0.5401 -3.0705 -0.3112
  914MOL0     H23375   1.015   8.378   6.652  0.3263  1.9620 -0.2572
  914MOL0     H23376   2.841   8.537   7.394 -1.9255 -1.6954 -0.4605
  914MOL0     H23377   3.010   8.387   7.463 -0.6108  0.0281 -1.6628
  914MOL0     H23378   3.102   8.133   7.870 -0.9085  1.1590 -0.3732
  914MOL0     H23379   3.226   7.972   8.015 -1.5687  0.8306  0.0933
  914MOL0     H23380   3.400   7.919   8.121 -0.3138 -0.3841  0.5002
  914MOL0     H23381   3.294   7.794   8.085 -0.8420  1.9242  0.3113
  914MOL0     H23382   3.457   7.633   8.133  2.7513 -0.3620 -2.5378
  914MOL0     H23383   3.450   7.759   8.270 -0.5664 -1.9331  0.2862
  914MOL0     H23384   3.657   7.857   8.182 -0.7359  0.6391  0.5980
  914MOL0     H23385   3.663   7.728   8.063 -0.1170  2.7164 -0.8125
  914MOL0     H23386   3.704   7.565   8.224 -2.2196  0.7626 -0.4564
  914MOL0     H23387   3.645   7.660   8.364 -3.7483 -1.4570 -2.6144
  914MOL0     H23388   4.067   7.765   8.331  0.5730 -1.1989 -0.7880
  914MOL0     H23389   3.450   7.854   7.660 -0.9422 -0.7731  0.7258
  914MOL0     H23390   3.311   8.014   7.525 -0.4285  3.5113  0.1569
  915MOL0     O23391   6.181   4.634   4.098  0.6411  0.3700  0.2925
  915MOL0     C23392   6.202   4.612   3.972 -0.6563 -0.2257 -0.3355
  915MOL0     O23393   6.138   4.511   3.903 -0.2496  0.4639  0.5937
  915MOL0     C23394   6.013   4.472   3.946  0.1119 -0.1228 -0.1114
  915MOL0     C23395   5.984   4.345   4.007 -0.3295 -0.5960  0.3732
  915MOL0     C23396   5.857   4.312   4.044 -0.1344 -0.3346 -0.4200
  915MOL0     C23397   5.759   4.401   4.031  0.3330 -0.5496  0.2440
  915MOL0     O23398   5.639   4.401   4.088  0.1590  0.1060 -0.4713
  915MOL0     C23399   5.627   4.325   4.205  0.4959  0.8678 -0.2564
  915MOL0     C23400   5.531   4.396   4.309 -1.0388  0.1233 -0.0003
  915MOL0     C23401   5.594   4.537   4.353 -0.5115 -0.6642  0.3323
  915MOL0     C23402   5.709   4.532   4.455  0.0605  0.6616  0.8842
  915MOL0     C23403   5.779   4.661   4.487  0.2033  0.4916 -0.0043
  915MOL0     C23404   5.850   4.713   4.369 -0.5682  0.7901 -0.0458
  915MOL0     C23405   5.891   4.861   4.385  0.6589  0.8511 -0.3835
  915MOL0     C23406   5.983   4.892   4.273 -0.0538 -0.2297  0.0871
  915MOL0     N23407   5.996   5.034   4.234 -0.0357  0.0181  0.3711
  915MOL0     C23408   5.899   5.129   4.254  0.2211  0.0493 -0.1701
  915MOL0     C23409   5.945   5.241   4.198 -0.3152  0.5981  0.4977
  915MOL0     C23410   5.875   5.368   4.181  0.7587  0.5596 -0.6583
  915MOL0     C23411   5.725   5.354   4.140  0.0556 -0.8187 -0.3875
  915MOL0     C23412   5.704   5.290   3.999  0.0439  0.0259  0.3162
  915MOL0     C23413   5.558   5.304   3.954 -0.7158  0.4184  0.2130
  915MOL0     O23414   5.492   5.208   4.036  0.0949 -0.1556 -0.3050
  915MOL0     C23415   5.355   5.198   4.031  0.7961  0.3405  0.4427
  915MOL0     C23416   5.282   5.245   3.923 -0.0278  0.2529  0.9529
  915MOL0     C23417   5.149   5.212   3.916  0.3982 -1.3632  0.7005
  915MOL0     C23418   5.088   5.244   3.779  0.9332 -0.0391  0.1252
  915MOL0     C23419   5.084   5.140   4.010  1.0458  0.8580 -0.0836
  915MOL0     C23420   4.944   5.085   4.010  0.5132 -0.6796 -0.1294
  915MOL0     O23421   4.922   4.976   4.094  0.2977  0.1573 -0.7525
  915MOL0     C23422   4.811   4.889   4.065 -0.5773  0.1076  0.3825
  915MOL0     C23423   4.708   4.888   4.151  0.2856  0.0910 -0.0059
  915MOL0     C23424   4.598   4.806   4.129 -0.7403 -0.1930 -0.2537
  915MOL0     C23425   4.579   4.736   4.004  0.3261 -0.3143  0.3313
  915MOL0     O23426   4.470   4.667   3.963  0.0666 -0.7361  0.3673
  915MOL0     C23427   4.386   4.621   4.069  0.4287 -0.3467 -0.3327
  915MOL0     C23428   4.267   4.537   4.027  0.2559  0.5577 -0.4456
  915MOL0     C23429   4.163   4.632   3.958 -0.4441  0.5959 -1.0337
  915MOL0     C23430   4.030   4.566   3.939  0.9759  0.0093  1.3421
  915MOL0     C23431   3.937   4.661   3.869 -0.0303 -0.1076  0.0190
  915MOL0     C23432   3.815   4.583   3.823 -0.0566  0.2119  0.4462
  915MOL0     C23433   3.826   4.482   3.703 -0.1368 -1.2046  0.3171
  915MOL0     C23434   3.757   4.352   3.737 -0.1115  0.0718 -0.4542
  915MOL0    Cl23435   3.591   4.358   3.797  0.2011 -0.2599  0.0312
  915MOL0     C23436   4.677   4.748   3.907  0.2460 -0.6070 -0.7281
  915MOL0     C23437   4.785   4.834   3.937 -0.3888  0.9026 -0.2502
  915MOL0     O23438   4.861   5.134   3.934  0.1564 -0.0598 -0.6612
  915MOL0     C23439   5.158   5.093   4.121  1.1550  0.0405 -0.1261
  915MOL0     C23440   5.290   5.120   4.127 -0.2209  0.0870  0.4690
  915MOL0     N23441   6.071   5.204   4.158 -0.0461  0.1058  0.1201
  915MOL0     N23442   6.107   5.089   4.180 -0.4902  0.4486 -0.3098
  915MOL0     C23443   5.775   4.518   3.973 -0.0395  0.7519  0.3377
  915MOL0     C23444   5.903   4.554   3.920 -0.3854 -0.3216  0.4689
  915MOL0     C23445   6.299   4.707   3.900  0.7988  0.1594  0.3898
  915MOL0     C23446   6.386   4.794   3.961 -0.2853 -1.0932  0.2395
  915MOL0     C23447   6.464   4.885   3.888  0.2651  0.9916 -0.5633
  915MOL0     C23448   6.464   4.892   3.744 -0.4022 -0.0548 -0.9495
  915MOL0     O23449   6.535   4.991   3.674  0.5993  0.4612 -0.8932
  915MOL0     C23450   6.518   5.013   3.537  0.0093 -0.0352 -0.3292
  915MOL0     C23451   6.558   5.160   3.510  0.1627  0.2557 -0.0470
  915MOL0     C23452   6.704   5.150   3.497 -0.1411 -0.7545 -0.7105
  915MOL0     C23453   6.765   5.292   3.466  0.1841 -0.3559 -0.4503
  915MOL0     C23454   6.769   5.381   3.583  0.0444 -0.8150 -0.1448
  915MOL0     C23455   6.791   5.473   3.658 -0.3896 -0.1064 -0.9010
  915MOL0     C23456   6.385   4.796   3.680 -0.0761 -0.1655  0.7404
  915MOL0     C23457   6.302   4.710   3.758 -0.2207  0.9833 -0.2134
  915MOL0     H23458   6.060   4.268   4.015 -2.3470 -2.5351  1.8808
  915MOL0     H23459   5.859   4.223   4.105  1.2800  1.8294  2.9745
  915MOL0     H23460   5.581   4.229   4.178  1.7631  0.8840 -2.6803
  915MOL0     H23461   5.717   4.304   4.265  0.4124  1.6957  0.1687
  915MOL0     H23462   5.433   4.403   4.259 -1.3034  0.2541  0.5281
  915MOL0     H23463   5.524   4.342   4.404 -0.5150 -1.2455 -0.7059
  915MOL0     H23464   5.636   4.586   4.265 -2.5513  0.6759  0.0512
  915MOL0     H23465   5.515   4.601   4.391 -1.0064  0.4652 -2.4044
  915MOL0     H23466   5.674   4.481   4.545 -0.9926  1.0913  0.7308
  915MOL0     H23467   5.781   4.456   4.423 -0.2512  0.0106  1.6918
  915MOL0     H23468   5.714   4.741   4.522 -0.7855  0.0981 -0.8873
  915MOL0     H23469   5.854   4.645   4.564  1.0125  0.4835 -0.7756
  915MOL0     H23470   5.946   4.661   4.364  1.0943  3.5838  0.7319
  915MOL0     H23471   5.809   4.710   4.267  0.6142  1.7400 -0.5734
  915MOL0     H23472   5.809   4.933   4.395 -1.1160 -1.2023  0.5928
  915MOL0     H23473   5.945   4.876   4.479  1.4172  0.8411 -0.8112
  915MOL0     H23474   5.954   4.833   4.185 -1.8295  0.6498  0.0426
  915MOL0     H23475   6.086   4.860   4.289 -0.3040 -0.6877  0.8374
  915MOL0     H23476   5.800   5.102   4.290  0.9219 -2.4883 -0.0190
  915MOL0     H23477   5.873   5.418   4.279  1.1661  2.0939 -1.4062
  915MOL0     H23478   5.938   5.431   4.118  0.1019 -1.1021 -3.0851
  915MOL0     H23479   5.685   5.456   4.134 -1.0711 -1.1045  1.5377
  915MOL0     H23480   5.667   5.301   4.216 -2.0441  0.4839 -1.0052
  915MOL0     H23481   5.738   5.186   4.010 -1.0042 -0.8502 -3.2447
  915MOL0     H23482   5.775   5.331   3.927 -0.5396 -2.6102 -1.9282
  915MOL0     H23483   5.541   5.286   3.847  0.4512 -0.5251  0.1810
  915MOL0     H23484   5.527   5.405   3.986  0.7147  1.0345 -0.2946
  915MOL0     H23485   5.330   5.295   3.840 -0.8572 -1.6230 -0.7337
  915MOL0     H23486   5.045   5.154   3.735 -1.4782  1.4198 -0.7184
  915MOL0     H23487   5.009   5.318   3.796 -0.0357 -1.7052  3.6643
  915MOL0     H23488   5.145   5.288   3.696 -1.9625  4.0567 -0.0012
  915MOL0     H23489   4.702   4.948   4.241 -2.5355 -1.2649  0.8473
  915MOL0     H23490   4.517   4.819   4.200  0.5997  1.6854  1.0441
  915MOL0     H23491   4.455   4.557   4.124  0.1427 -3.2018 -3.0093
  915MOL0     H23492   4.336   4.702   4.122  1.4876  0.1319 -0.0583
  915MOL0     H23493   4.301   4.460   3.957  0.7836 -0.6506  1.1017
  915MOL0     H23494   4.232   4.497   4.122 -1.9510 -0.3150 -1.5755
  915MOL0     H23495   4.200   4.666   3.861  0.7253  3.0905  0.1833
  915MOL0     H23496   4.146   4.724   4.016 -1.4111  0.7805 -1.5906
  915MOL0     H23497   4.046   4.485   3.867 -1.0883  0.8902 -0.1979
  915MOL0     H23498   3.997   4.533   4.037  0.8210  0.7305  1.5362
  915MOL0     H23499   3.989   4.706   3.784  1.2960 -0.1129  0.8002
  915MOL0     H23500   3.908   4.746   3.932 -3.8950 -0.0179 -1.6139
  915MOL0     H23501   3.766   4.534   3.909 -1.3583 -2.3818 -1.6299
  915MOL0     H23502   3.754   4.666   3.785  1.3064  1.4128  0.8189
  915MOL0     H23503   3.929   4.460   3.673 -0.1982 -2.2521  0.8516
  915MOL0     H23504   3.774   4.524   3.616  0.8243 -1.8521 -0.6010
  915MOL0     H23505   3.810   4.298   3.816 -2.3975  0.9299  1.8021
  915MOL0     H23506   3.766   4.284   3.651  0.3504 -1.3515  0.6817
  915MOL0     H23507   4.676   4.700   3.809  1.1470  0.8259 -1.4791
  915MOL0     H23508   4.856   4.849   3.857 -0.5826 -1.5390 -0.9389
  915MOL0     H23509   5.126   5.030   4.204 -2.5648  0.7154 -0.8745
  915MOL0     H23510   5.352   5.087   4.210  2.7982 -1.2615 -2.0886
  915MOL0     H23511   5.696   4.590   3.958 -0.2915  0.4511  0.1985
  915MOL0     H23512   5.901   4.639   3.853 -2.1129 -0.5800  0.1476
  915MOL0     H23513   6.380   4.809   4.068  1.7293 -0.3711  0.2866
  915MOL0     H23514   6.526   4.953   3.946 -0.6006 -0.5258  2.3356
  915MOL0     H23515   6.583   4.945   3.480  0.8450  1.2943 -1.0177
  915MOL0     H23516   6.421   4.999   3.489  0.3051  0.4520 -1.0940
  915MOL0     H23517   6.532   5.225   3.594  0.2278  2.2455 -1.4897
  915MOL0     H23518   6.513   5.203   3.420  2.3667 -0.4154 -1.5486
  915MOL0     H23519   6.740   5.086   3.416  0.5302 -1.0665 -0.1779
  915MOL0     H23520   6.757   5.112   3.585  0.9788 -0.7324 -1.3536
  915MOL0     H23521   6.699   5.328   3.387 -1.1567 -3.8819 -1.1145
  915MOL0     H23522   6.863   5.294   3.419  0.6303  2.2728  0.4305
  915MOL0     H23523   6.807   5.554   3.726 -1.4423 -1.0515  0.5274
  915MOL0     H23524   6.379   4.788   3.572  1.2103  0.6318  0.5922
  915MOL0     H23525   6.236   4.633   3.719 -2.2098  0.6578  3.3684
  916MOL0     O23526   5.902   9.846   4.414 -0.5066 -0.4714  0.2708
  916MOL0     C23527   5.955   9.734   4.427  0.6193 -0.4833 -0.1155
  916MOL0     O23528   6.018   9.683   4.535 -0.4820 -0.0786 -0.5976
  916MOL0     C23529   6.070   9.779   4.627  0.3825 -0.2824  0.8712
  916MOL0     C23530   6.055   9.746   4.759 -0.3118  0.0677 -0.2315
  916MOL0     C23531   6.112   9.823   4.862 -0.7670 -0.0194  0.4070
  916MOL0     C23532   6.190   9.928   4.834  0.0995 -0.5766  1.0661
  916MOL0     O23533   6.256   9.995   4.933  0.1809  0.5441  0.7029
  916MOL0     C23534   6.270  10.133   4.914 -0.2217  0.3725  0.2978
  916MOL0     C23535   6.337  10.196   5.039  0.5895 -0.2810  0.4293
  916MOL0     C23536   6.489  10.189   5.039 -0.3767 -0.8469 -0.5194
  916MOL0     C23537   6.545  10.185   5.186 -0.3170 -0.9280  0.5622
  916MOL0     C23538   6.694  10.184   5.197  0.3041  0.0511 -0.1339
  916MOL0     C23539   6.772  10.104   5.092 -0.0632 -0.5058  0.3666
  916MOL0     C23540   6.917  10.078   5.139  0.2796 -0.2191  0.1865
  916MOL0     C23541   6.914   9.979   5.256 -1.3891 -0.5902 -0.8029
  916MOL0     N23542   7.022   9.876   5.264 -0.4986 -0.3111  0.3592
  916MOL0     C23543   7.058   9.794   5.154 -0.0504 -0.3027 -0.5817
  916MOL0     C23544   7.148   9.717   5.210 -0.4061  1.0197 -0.5427
  916MOL0     C23545   7.221   9.616   5.137  0.1021 -0.0283  0.1846
  916MOL0     C23546   7.343   9.556   5.197 -0.0052  0.3421 -1.0023
  916MOL0     C23547   7.400   9.452   5.097 -0.9580 -0.1164 -0.6155
  916MOL0     C23548   7.498   9.349   5.166 -0.5201  0.5226 -0.5431
  916MOL0     O23549   7.546   9.264   5.060 -0.3078 -0.1275  0.0971
  916MOL0     C23550   7.663   9.282   4.997  0.0752  0.2159 -0.0765
  916MOL0     C23551   7.751   9.395   5.019  0.4756 -0.5145  0.0569
  916MOL0     C23552   7.875   9.404   4.956 -0.5960 -0.1854 -0.6917
  916MOL0     C23553   7.966   9.514   5.010  0.0230  0.4761  0.2091
  916MOL0     C23554   7.916   9.309   4.859  0.2109  0.5606 -0.0536
  916MOL0     C23555   8.053   9.307   4.792  0.3462 -0.5901 -0.6063
  916MOL0     O23556   8.096   9.176   4.784  0.1802 -0.5587  0.6873
  916MOL0     C23557   8.228   9.144   4.771 -0.4206  0.1623  0.5178
  916MOL0     C23558   8.270   9.042   4.863  0.1812 -0.9722 -0.2235
  916MOL0     C23559   8.390   8.978   4.852  0.2184 -0.5727 -0.0023
  916MOL0     C23560   8.482   9.007   4.748  0.8025  1.1280  0.4714
  916MOL0     O23561   8.594   8.929   4.731 -0.1210  0.2080 -0.5327
  916MOL0     C23562   8.712   8.990   4.786  0.0241  1.0037 -0.0258
  916MOL0     C23563   8.843   8.921   4.743  0.4039 -0.9044  0.3468
  916MOL0     C23564   8.963   8.969   4.830 -0.3591  0.1471 -0.1168
  916MOL0     C23565   9.004   8.859   4.935 -0.7338  0.3043 -0.7293
  916MOL0     C23566   9.129   8.892   5.022  0.3599  0.2185  0.8675
  916MOL0     C23567   9.264   8.842   4.957 -0.3623 -0.6797  0.0566
  916MOL0     C23568   9.377   8.885   5.055  0.0386  1.0140  0.0503
  916MOL0     C23569   9.505   8.864   4.969  0.1711  0.0006 -1.1886
  916MOL0    Cl23570   9.535   8.708   4.895 -0.1004 -0.4465  0.5340
  916MOL0     C23571   8.438   9.091   4.648  0.0785  0.8809 -0.1073
  916MOL0     C23572   8.311   9.157   4.660 -0.2198  0.3213 -0.0329
  916MOL0     O23573   8.104   9.407   4.753  0.6442 -0.2537  0.1479
  916MOL0     C23574   7.827   9.203   4.838  1.6349  0.4301  0.0312
  916MOL0     C23575   7.704   9.185   4.907 -0.2305 -0.0069 -0.8094
  916MOL0     N23576   7.169   9.740   5.352  1.0991 -0.6873 -0.4159
  916MOL0     N23577   7.100   9.840   5.372 -0.0991 -0.7664  0.5021
  916MOL0     C23578   6.225   9.952   4.698  0.3071 -0.2846  0.6183
  916MOL0     C23579   6.158   9.879   4.594 -0.0812  0.4939  0.3921
  916MOL0     C23580   5.923   9.635   4.326  0.1603 -0.1209 -0.4428
  916MOL0     C23581   5.996   9.512   4.324  0.8846 -0.0901 -0.6617
  916MOL0     C23582   5.965   9.415   4.233 -0.8567 -0.6907  0.0778
  916MOL0     C23583   5.856   9.427   4.141  0.3788  0.2131  0.1250
  916MOL0     O23584   5.821   9.326   4.059 -0.2467 -0.3347 -0.2008
  916MOL0     C23585   5.700   9.328   3.980 -0.1973  0.3459 -0.8310
  916MOL0     C23586   5.662   9.196   3.927 -0.0572 -0.5658 -0.2124
  916MOL0     C23587   5.513   9.173   3.880 -0.2074 -0.9846 -0.3387
  916MOL0     C23588   5.402   9.239   3.972  0.0647  0.1138 -0.2836
  916MOL0     C23589   5.267   9.176   3.959  0.3249 -0.0028  0.1434
  916MOL0     C23590   5.164   9.112   3.952 -0.3489  0.5421  0.0220
  916MOL0     C23591   5.785   9.549   4.135 -0.3185 -0.9227 -0.3998
  916MOL0     C23592   5.814   9.654   4.231 -0.5260  0.5551  0.4696
  916MOL0     H23593   5.994   9.665   4.795  0.1243  0.6364  1.9249
  916MOL0     H23594   6.083   9.791   4.962  2.2229 -0.7549  1.1256
  916MOL0     H23595   6.336  10.157   4.830 -0.2024 -1.6700 -0.3323
  916MOL0     H23596   6.179  10.191   4.897 -1.1943 -0.2126  2.9429
  916MOL0     H23597   6.328  10.305   5.026 -1.0136 -0.6261 -1.9654
  916MOL0     H23598   6.285  10.168   5.130  0.2017  2.7307  1.2384
  916MOL0     H23599   6.518  10.106   4.973 -0.3616 -2.0735  0.9583
  916MOL0     H23600   6.518  10.285   4.997 -4.3189  0.8838  0.3306
  916MOL0     H23601   6.515  10.272   5.246 -0.4512 -0.9063  0.4652
  916MOL0     H23602   6.513  10.092   5.234 -0.0198 -0.8147  0.9820
  916MOL0     H23603   6.717  10.290   5.190 -1.3343  0.3639 -1.1413
  916MOL0     H23604   6.726  10.142   5.293 -0.3831 -0.3505 -0.0765
  916MOL0     H23605   6.712  10.013   5.084 -0.9125  0.1506 -0.9118
  916MOL0     H23606   6.774  10.155   4.996 -3.9614  1.3883  1.0920
  916MOL0     H23607   6.981  10.039   5.060 -1.3333 -2.1588 -0.2482
  916MOL0     H23608   6.964  10.169   5.177  0.8793 -0.2801 -0.3965
  916MOL0     H23609   6.813   9.937   5.266 -1.6612 -0.3127 -2.2062
  916MOL0     H23610   6.909  10.034   5.351  1.0722 -1.2491 -0.2307
  916MOL0     H23611   7.020   9.796   5.052  0.3311  2.4833 -0.7353
  916MOL0     H23612   7.152   9.534   5.118  1.9796 -1.1405 -2.4480
  916MOL0     H23613   7.252   9.666   5.044  2.5671 -0.7566  0.5662
  916MOL0     H23614   7.300   9.502   5.282  1.4111 -1.9962 -1.6947
  916MOL0     H23615   7.416   9.628   5.236 -0.1494 -1.2354  2.6131
  916MOL0     H23616   7.450   9.512   5.019 -2.4323  2.1454  0.1012
  916MOL0     H23617   7.324   9.386   5.055 -1.0540 -0.4789  0.1301
  916MOL0     H23618   7.430   9.297   5.234  0.2032  1.1759  0.7168
  916MOL0     H23619   7.582   9.391   5.222  0.0734 -2.0769  0.6962
  916MOL0     H23620   7.722   9.474   5.088  2.7835  1.4736 -1.1005
  916MOL0     H23621   7.931   9.576   5.093 -2.1987 -1.3923  0.7490
  916MOL0     H23622   8.050   9.458   5.052  0.7162  1.3787  0.0510
  916MOL0     H23623   7.999   9.582   4.930 -0.9941  1.0016  0.2194
  916MOL0     H23624   8.202   9.001   4.936 -1.9944 -1.5660 -2.4181
  916MOL0     H23625   8.413   8.899   4.923  0.1385 -0.4731  0.1340
  916MOL0     H23626   8.709   9.097   4.766 -2.2744  0.9567 -0.2931
  916MOL0     H23627   8.711   8.978   4.895 -1.0491 -3.5479 -0.3219
  916MOL0     H23628   8.829   8.813   4.749  0.4426 -0.9420 -0.1477
  916MOL0     H23629   8.853   8.931   4.634 -0.7919 -3.8375 -0.1415
  916MOL0     H23630   8.952   9.063   4.885 -0.6553 -0.6166  1.1747
  916MOL0     H23631   9.048   8.988   4.764  0.2866 -0.2020  0.5881
  916MOL0     H23632   8.927   8.865   5.013  1.3948 -0.9025  1.6350
  916MOL0     H23633   9.014   8.761   4.888 -0.0884 -0.5391  1.0575
  916MOL0     H23634   9.102   8.841   5.115 -1.1931 -1.5784 -0.4876
  916MOL0     H23635   9.125   8.999   5.045  0.5469  0.3534  0.3039
  916MOL0     H23636   9.264   8.741   4.916 -3.0985 -0.3501 -0.9300
  916MOL0     H23637   9.275   8.901   4.866  3.6694 -1.2614 -0.0279
  916MOL0     H23638   9.365   8.829   5.148 -0.8779  1.4261  0.1958
  916MOL0     H23639   9.375   8.992   5.074  0.7198  1.1327 -0.5391
  916MOL0     H23640   9.587   8.895   5.035  1.1573 -5.2259  0.5133
  916MOL0     H23641   9.504   8.934   4.886 -0.4691  1.5510  0.0773
  916MOL0     H23642   8.491   9.115   4.556 -0.2015  4.5997  0.5258
  916MOL0     H23643   8.270   9.227   4.587 -1.7427  1.3647  1.7333
  916MOL0     H23644   7.856   9.125   4.770 -1.1795  1.2101 -2.2504
  916MOL0     H23645   7.640   9.105   4.869 -0.5812 -0.4638  0.6901
  916MOL0     H23646   6.294  10.030   4.666 -0.2055  0.0799  0.3943
  916MOL0     H23647   6.186   9.897   4.491 -2.3489 -1.2575 -0.6213
  916MOL0     H23648   6.085   9.505   4.387 -0.2541  0.4923  1.0853
  916MOL0     H23649   6.017   9.320   4.232  0.0391 -0.2221  0.5474
  916MOL0     H23650   5.618   9.362   4.044  2.3348 -0.8323  3.4889
  916MOL0     H23651   5.732   9.392   3.898  3.2334  2.5479  1.9133
  916MOL0     H23652   5.676   9.118   4.002 -0.9560  1.2112  1.8819
  916MOL0     H23653   5.731   9.178   3.844  0.5074 -1.2034  0.3768
  916MOL0     H23654   5.494   9.066   3.864 -0.5384 -1.1790  1.2047
  916MOL0     H23655   5.502   9.217   3.781 -0.5439  3.5236  1.4630
  916MOL0     H23656   5.401   9.344   3.944 -1.5736  0.6699  1.5954
  916MOL0     H23657   5.436   9.223   4.075 -0.4700  1.8218  0.1935
  916MOL0     H23658   5.085   9.040   3.957  2.3759 -2.6075  3.9354
  916MOL0     H23659   5.715   9.581   4.059  0.5749 -1.5225 -1.5083
  916MOL0     H23660   5.751   9.740   4.213 -4.0054 -1.5431  1.6128
  917MOL0     O23661   0.375   4.120   0.570  0.5314  0.1863 -0.3805
  917MOL0     C23662   0.344   4.205   0.651 -0.6530 -0.1133  0.2127
  917MOL0     O23663   0.436   4.285   0.710  0.7684  0.3717 -0.3594
  917MOL0     C23664   0.567   4.287   0.661 -0.3235  0.0828  0.2650
  917MOL0     C23665   0.648   4.179   0.667  0.2207 -0.7182 -0.9290
  917MOL0     C23666   0.778   4.192   0.613  0.0185  0.8496  0.2447
  917MOL0     C23667   0.831   4.316   0.558 -1.4214  0.1679  0.7469
  917MOL0     O23668   0.955   4.341   0.502  0.1850 -0.0004 -0.0322
  917MOL0     C23669   1.062   4.270   0.563 -0.6330 -0.2135 -0.0991
  917MOL0     C23670   1.188   4.368   0.602  0.2232  0.2944  0.3278
  917MOL0     C23671   1.147   4.498   0.670 -0.4224 -0.7713  0.4545
  917MOL0     C23672   1.242   4.615   0.647  0.2781 -0.4452 -0.0774
  917MOL0     C23673   1.164   4.731   0.711  0.2831 -0.5152  0.3845
  917MOL0     C23674   1.245   4.863   0.713  0.4877 -0.6769 -0.1047
  917MOL0     C23675   1.157   4.983   0.748 -0.1474 -0.7770 -0.3560
  917MOL0     C23676   1.246   5.111   0.759 -0.3463  0.4770  0.4118
  917MOL0     N23677   1.278   5.163   0.624 -0.2060  0.4920 -0.3733
  917MOL0     C23678   1.190   5.227   0.541 -0.4105 -0.8744 -0.6293
  917MOL0     C23679   1.246   5.223   0.420  0.5655 -0.6805 -0.3070
  917MOL0     C23680   1.195   5.275   0.290 -0.7804 -0.3670 -0.1575
  917MOL0     C23681   1.048   5.258   0.263 -0.1801  0.7638 -0.1148
  917MOL0     C23682   1.036   5.244   0.107 -0.5025  0.8858 -0.4113
  917MOL0     C23683   0.890   5.254   0.065 -0.1889 -0.2937 -0.3122
  917MOL0     O23684   0.849   5.389   0.077 -0.6172 -0.0143 -0.9082
  917MOL0     C23685   0.721   5.407   0.041  0.6262 -0.6967  0.2826
  917MOL0     C23686   0.680   5.527   0.089  0.2499 -0.6531  0.1384
  917MOL0     C23687   0.553   5.572   0.062  0.6302  0.2299  0.3783
  917MOL0     C23688   0.530   5.718   0.095 -0.3646 -0.7691 -0.2540
  917MOL0     C23689   0.456   5.480   0.011 -0.2562 -0.5255 -0.3773
  917MOL0     C23690   0.312   5.514  -0.005  0.6898 -0.3594  0.4168
  917MOL0     O23691   0.223   5.415  -0.043 -0.2206  0.0655 -0.9810
  917MOL0     C23692   0.088   5.435  -0.055 -0.2694  0.7669  1.2769
  917MOL0     C23693   0.007   5.524   0.020  0.2857  0.0021  1.2119
  917MOL0     C23694  -0.130   5.529   0.003  0.0514  0.9640  0.1103
  917MOL0     C23695  -0.199   5.437  -0.086  0.1719  0.1881 -0.3145
  917MOL0     O23696  -0.332   5.435  -0.102  1.4866  0.0379 -0.8633
  917MOL0     C23697  -0.425   5.523  -0.029 -0.3322  0.4006  0.7772
  917MOL0     C23698  -0.556   5.458  -0.052  0.1985 -0.3068 -0.6936
  917MOL0     C23699  -0.551   5.324   0.024  0.8915  0.4632 -0.0654
  917MOL0     C23700  -0.696   5.256   0.028 -1.2827 -0.4589  0.4660
  917MOL0     C23701  -0.687   5.151   0.145  0.2582  0.1984  0.3256
  917MOL0     C23702  -0.822   5.072   0.153  0.2687  0.5360  0.4321
  917MOL0     C23703  -0.854   4.987   0.024  0.1892  0.1859 -0.9667
  917MOL0     C23704  -0.976   4.892   0.046 -0.5807 -0.0237 -0.0088
  917MOL0    Cl23705  -1.117   4.987   0.050 -0.1916 -0.2307  0.1722
  917MOL0     C23706  -0.115   5.350  -0.163 -0.8335  0.4844 -0.5227
  917MOL0     C23707   0.021   5.346  -0.138 -0.0407  0.2113  0.3445
  917MOL0     O23708   0.275   5.631   0.021 -0.6319 -0.1995 -0.2374
  917MOL0     C23709   0.499   5.344  -0.021 -0.0491 -0.0035 -0.3347
  917MOL0     C23710   0.641   5.315  -0.014 -0.5822 -0.9793 -0.4799
  917MOL0     N23711   1.371   5.160   0.425  0.1978  0.0849 -0.0416
  917MOL0     N23712   1.378   5.105   0.551  0.1338 -0.7129  0.3730
  917MOL0     C23713   0.747   4.420   0.555  0.3251 -0.3028 -0.3144
  917MOL0     C23714   0.623   4.410   0.613 -0.7466 -0.7709 -0.5945
  917MOL0     C23715   0.216   4.203   0.717  0.7833 -0.7631  0.1718
  917MOL0     C23716   0.120   4.113   0.677 -0.2849 -0.2371  0.5671
  917MOL0     C23717   0.003   4.103   0.737 -0.2293  0.3018 -1.7108
  917MOL0     C23718  -0.033   4.188   0.842 -0.0948 -0.1157 -1.0319
  917MOL0     O23719  -0.158   4.170   0.883  0.4420 -0.4387  0.3642
  917MOL0     C23720  -0.216   4.274   0.951  0.2002 -0.3273 -0.1764
  917MOL0     C23721  -0.370   4.242   0.974 -0.4836  0.3742  0.3472
  917MOL0     C23722  -0.394   4.100   1.040 -0.0762  0.4889  0.2922
  917MOL0     C23723  -0.531   4.084   1.105 -0.6711  0.3260 -0.6512
  917MOL0     C23724  -0.528   3.989   1.219 -0.4466  0.5517 -0.7669
  917MOL0     C23725  -0.539   3.899   1.298 -0.4768  1.0011  0.0756
  917MOL0     C23726   0.065   4.279   0.887 -0.1376  1.1067  0.1720
  917MOL0     C23727   0.191   4.277   0.834 -0.3741  0.0020 -0.3149
  917MOL0     H23728   0.611   4.084   0.705 -1.9707 -0.2266 -1.6579
  917MOL0     H23729   0.824   4.095   0.621 -3.6958 -1.4228 -2.5683
  917MOL0     H23730   1.041   4.219   0.658  0.6430  2.3394  1.6417
  917MOL0     H23731   1.103   4.199   0.490  2.3279  0.5990  0.6607
  917MOL0     H23732   1.258   4.320   0.671 -0.1746 -0.7065  0.0505
  917MOL0     H23733   1.234   4.389   0.505  2.4398 -1.8434  0.8040
  917MOL0     H23734   1.048   4.534   0.641  0.1097  3.2765  2.8833
  917MOL0     H23735   1.142   4.487   0.779  0.2354  5.1818  1.4142
  917MOL0     H23736   1.330   4.585   0.704  1.1178 -1.7376 -1.9399
  917MOL0     H23737   1.276   4.641   0.546  0.8973  2.3554  0.7640
  917MOL0     H23738   1.067   4.749   0.663  0.1302 -0.9474  0.5320
  917MOL0     H23739   1.140   4.707   0.815  0.8972  1.0796  0.9266
  917MOL0     H23740   1.324   4.850   0.787  1.8672 -1.4918 -1.6694
  917MOL0     H23741   1.304   4.877   0.622  0.3185  0.0211 -0.1144
  917MOL0     H23742   1.079   4.992   0.673  0.4759  1.7947 -0.7690
  917MOL0     H23743   1.108   4.961   0.843 -1.0976  1.2177 -0.3583
  917MOL0     H23744   1.338   5.084   0.811  1.7039  2.4637 -1.9349
  917MOL0     H23745   1.196   5.187   0.820  0.2724 -0.7474  2.5525
  917MOL0     H23746   1.091   5.266   0.563  0.7149  1.7582  0.2059
  917MOL0     H23747   1.220   5.382   0.294 -0.1788 -0.5405  2.7325
  917MOL0     H23748   1.250   5.230   0.206 -1.3173 -1.1710 -0.0836
  917MOL0     H23749   1.001   5.342   0.315  1.5836  0.6093  1.8713
  917MOL0     H23750   1.014   5.166   0.310 -0.8627  0.9777 -0.1839
  917MOL0     H23751   1.087   5.155   0.071  0.3116  2.2420 -2.9106
  917MOL0     H23752   1.094   5.328   0.066  1.1488 -0.8774 -1.8832
  917MOL0     H23753   0.831   5.186   0.128  0.1609 -0.9408 -0.6766
  917MOL0     H23754   0.872   5.226  -0.039 -2.0646  1.0161 -0.3988
  917MOL0     H23755   0.751   5.591   0.140 -1.6463  1.9763 -0.3425
  917MOL0     H23756   0.438   5.719   0.155 -0.5398  0.2016 -0.5222
  917MOL0     H23757   0.614   5.765   0.147  0.9853 -3.9564  0.7049
  917MOL0     H23758   0.510   5.775   0.004  2.5711 -1.0096 -1.1538
  917MOL0     H23759   0.056   5.591   0.090  0.7550 -2.1873  3.1042
  917MOL0     H23760  -0.190   5.599   0.060  0.3587  1.6182 -0.3501
  917MOL0     H23761  -0.397   5.520   0.076  1.0468 -0.1103  0.4132
  917MOL0     H23762  -0.424   5.622  -0.075  0.0412 -0.5500 -1.4124
  917MOL0     H23763  -0.643   5.513  -0.013 -1.6594 -0.6821 -3.9773
  917MOL0     H23764  -0.562   5.457  -0.161  1.6032 -0.9157 -0.7815
  917MOL0     H23765  -0.520   5.343   0.127  4.2621  0.9088 -1.0273
  917MOL0     H23766  -0.479   5.255  -0.022  0.7514 -0.3448  0.8932
  917MOL0     H23767  -0.773   5.325   0.064  0.2610  1.3858  0.3803
  917MOL0     H23768  -0.716   5.219  -0.073 -4.4173 -0.0267  0.8242
  917MOL0     H23769  -0.661   5.205   0.236  0.7720  0.4524  0.0294
  917MOL0     H23770  -0.608   5.078   0.122 -0.1066  0.7067 -3.0463
  917MOL0     H23771  -0.828   5.020   0.249 -2.6795 -1.7208 -0.8172
  917MOL0     H23772  -0.901   5.147   0.143  0.1783  0.6020  1.5422
  917MOL0     H23773  -0.767   4.924  -0.000  0.4814  0.4593 -0.6512
  917MOL0     H23774  -0.879   5.061  -0.052  0.0001  0.2277 -0.8630
  917MOL0     H23775  -0.956   4.837   0.139  2.6635  0.3643 -0.3618
  917MOL0     H23776  -0.988   4.822  -0.038  0.1467 -1.1974  0.8227
  917MOL0     H23777  -0.176   5.295  -0.234 -1.4530 -0.9743  1.0464
  917MOL0     H23778   0.089   5.281  -0.193 -0.6212 -0.3846  0.3251
  917MOL0     H23779   0.433   5.269  -0.062  0.5452 -0.5888 -0.2304
  917MOL0     H23780   0.662   5.213  -0.042 -2.1682 -1.0695 -1.4404
  917MOL0     H23781   0.775   4.522   0.528  0.1439 -0.9752 -3.4395
  917MOL0     H23782   0.565   4.501   0.632 -0.1831 -0.9893  2.8072
  917MOL0     H23783   0.138   4.052   0.589 -1.5273 -1.4895  1.1518
  917MOL0     H23784  -0.076   4.033   0.710  0.3221 -1.0679  0.0128
  917MOL0     H23785  -0.162   4.285   1.046  0.3149 -3.4987  0.2366
  917MOL0     H23786  -0.212   4.366   0.893 -1.0927 -1.4661 -2.1991
  917MOL0     H23787  -0.423   4.260   0.880 -3.1621 -2.8890  1.0446
  917MOL0     H23788  -0.402   4.317   1.047 -0.6865  1.0434 -0.4210
  917MOL0     H23789  -0.311   4.067   1.103 -0.4305  0.7024  0.8706
  917MOL0     H23790  -0.392   4.028   0.957  2.0860 -1.7414  2.1113
  917MOL0     H23791  -0.601   4.044   1.031  2.9245 -2.9379 -2.6831
  917MOL0     H23792  -0.558   4.183   1.143  2.5285  1.2017 -0.3430
  917MOL0     H23793  -0.546   3.833   1.382  2.4451  3.4259  2.4544
  917MOL0     H23794   0.051   4.352   0.966 -0.6699 -1.4459  2.5956
  917MOL0     H23795   0.253   4.362   0.862  2.5181 -2.2882  0.7411
  918MOL0     O23796   4.957   7.357   7.547  0.1826  0.1481  0.4659
  918MOL0     C23797   4.923   7.292   7.638  0.5395 -0.5240 -0.0724
  918MOL0     O23798   4.794   7.265   7.677 -0.4479  0.2553  0.1248
  918MOL0     C23799   4.688   7.312   7.610  0.8171 -0.9222 -0.2202
  918MOL0     C23800   4.678   7.443   7.552  0.0736 -0.1377  0.4331
  918MOL0     C23801   4.559   7.500   7.513  0.4397 -0.1252 -0.5021
  918MOL0     C23802   4.442   7.420   7.525 -0.1051 -0.4280  0.6787
  918MOL0     O23803   4.323   7.477   7.494 -0.1341  0.1722  0.4790
  918MOL0     C23804   4.236   7.523   7.594  0.1634  0.2821 -0.4604
  918MOL0     C23805   4.099   7.538   7.538  0.4450 -0.3554 -0.5896
  918MOL0     C23806   4.001   7.606   7.638  0.5924 -0.2057  0.0483
  918MOL0     C23807   3.856   7.563   7.601 -0.2085  0.6393 -0.5239
  918MOL0     C23808   3.812   7.636   7.474  0.7436  0.5010 -0.9701
  918MOL0     C23809   3.665   7.606   7.430  0.2948 -0.1408 -0.3799
  918MOL0     C23810   3.632   7.677   7.301 -0.1849 -0.4653 -0.4181
  918MOL0     C23811   3.493   7.629   7.250 -0.3380  0.0982  0.5578
  918MOL0     N23812   3.378   7.685   7.328  0.8397 -0.1651 -0.4009
  918MOL0     C23813   3.297   7.616   7.426  0.4583 -0.4355  0.0240
  918MOL0     C23814   3.181   7.686   7.427 -0.6065  0.1622  0.3598
  918MOL0     C23815   3.072   7.662   7.526 -0.2110 -0.6700 -0.0647
  918MOL0     C23816   2.933   7.668   7.456 -0.8076  0.8211  1.0672
  918MOL0     C23817   2.826   7.611   7.545  0.6344  0.0930 -0.5398
  918MOL0     C23818   2.684   7.621   7.482  0.1052  0.3781  0.1098
  918MOL0     O23819   2.576   7.558   7.557 -0.7881 -0.6650 -0.0779
  918MOL0     C23820   2.454   7.559   7.493 -0.6414  0.3547  0.5747
  918MOL0     C23821   2.353   7.492   7.561 -0.4896 -0.5617  0.7452
  918MOL0     C23822   2.225   7.469   7.513 -0.3579  0.3435  0.5665
  918MOL0     C23823   2.133   7.388   7.599  0.2057  0.0324  1.0752
  918MOL0     C23824   2.187   7.512   7.388 -0.2400 -0.1845  0.2615
  918MOL0     C23825   2.056   7.497   7.315  0.5354 -0.2261 -0.5451
  918MOL0     O23826   1.968   7.409   7.387 -0.4179 -0.1658  0.6588
  918MOL0     C23827   1.834   7.402   7.338 -0.0772  0.2028 -0.2978
  918MOL0     C23828   1.760   7.281   7.329 -0.9969  0.0882  0.1669
  918MOL0     C23829   1.629   7.274   7.316  0.6161  0.3604 -1.3247
  918MOL0     C23830   1.550   7.394   7.285  0.1475  0.1038 -0.0526
  918MOL0     O23831   1.417   7.379   7.262  0.5767 -0.1068  0.3716
  918MOL0     C23832   1.345   7.491   7.214 -0.6753 -0.0937 -0.5097
  918MOL0     C23833   1.199   7.470   7.254  0.3796 -0.8492 -0.9331
  918MOL0     C23834   1.128   7.365   7.177 -0.2982  0.4209 -0.0442
  918MOL0     C23835   0.985   7.352   7.220 -0.2696 -0.2162  0.6971
  918MOL0     C23836   0.896   7.344   7.101 -0.3206  0.5530  0.4505
  918MOL0     C23837   0.754   7.307   7.136 -0.4021  0.5601 -0.6821
  918MOL0     C23838   0.663   7.355   7.020 -0.0127 -0.2968 -0.1558
  918MOL0     C23839   0.521   7.306   7.053  0.8960  0.3412  0.0846
  918MOL0    Cl23840   0.402   7.375   6.937 -0.2221 -0.1548  0.4695
  918MOL0     C23841   1.627   7.518   7.287 -0.6904  0.3140 -0.4506
  918MOL0     C23842   1.760   7.520   7.326  0.2891 -0.2903  0.0587
  918MOL0     O23843   2.038   7.554   7.207  0.2002 -0.1497 -0.2840
  918MOL0     C23844   2.287   7.593   7.320  0.3395 -0.1805 -0.4938
  918MOL0     C23845   2.415   7.609   7.365 -1.3560 -1.3896  0.1328
  918MOL0     N23846   3.185   7.793   7.344  0.2417  0.2580  0.2974
  918MOL0     N23847   3.302   7.791   7.297 -0.1072 -0.9019  1.0981
  918MOL0     C23848   4.442   7.278   7.561  0.2753 -0.1213  0.6968
  918MOL0     C23849   4.572   7.235   7.613 -0.3326 -0.2538  0.9598
  918MOL0     C23850   5.042   7.234   7.711 -0.3005  0.6289  0.2817
  918MOL0     C23851   5.030   7.135   7.807  0.5176  0.6993 -0.1684
  918MOL0     C23852   5.148   7.090   7.881 -0.0974 -0.3370 -0.8583
  918MOL0     C23853   5.276   7.144   7.855 -0.7636 -0.8041  0.2604
  918MOL0     O23854   5.390   7.120   7.919 -0.8143  0.2337  0.0859
  918MOL0     C23855   5.392   7.023   8.031 -0.1951  0.4160 -0.9912
  918MOL0     C23856   5.536   6.976   8.080 -0.0817  0.6327  0.1430
  918MOL0     C23857   5.627   6.920   7.967 -0.0767 -0.7320 -0.3124
  918MOL0     C23858   5.774   6.926   8.011  0.6630  0.7326 -0.1020
  918MOL0     C23859   5.870   6.872   7.909  0.3149  0.3641  0.0169
  918MOL0     C23860   5.946   6.831   7.825 -0.6038 -0.6090 -0.5459
  918MOL0     C23861   5.286   7.238   7.749  0.4408 -0.4799 -0.1414
  918MOL0     C23862   5.171   7.279   7.681 -0.2051 -0.2959 -0.2892
  918MOL0     H23863   4.759   7.516   7.551 -0.0736  0.0460 -1.6020
  918MOL0     H23864   4.561   7.602   7.475 -1.2232 -0.2993 -1.1504
  918MOL0     H23865   4.239   7.454   7.678  2.2571 -0.4102 -1.0482
  918MOL0     H23866   4.256   7.627   7.622  0.0367  0.3293 -0.5441
  918MOL0     H23867   4.097   7.601   7.449 -3.4547 -0.4685 -0.7746
  918MOL0     H23868   4.053   7.443   7.509 -3.9927  1.9218 -1.9774
  918MOL0     H23869   4.013   7.575   7.742  0.4516 -1.7147 -0.3675
  918MOL0     H23870   4.003   7.715   7.627 -0.6144 -0.2405 -0.6766
  918MOL0     H23871   3.859   7.454   7.589  5.2986  0.4175  0.2507
  918MOL0     H23872   3.784   7.582   7.681  0.1400  1.0018 -0.2902
  918MOL0     H23873   3.810   7.744   7.488 -3.5787  0.8187 -2.4614
  918MOL0     H23874   3.878   7.614   7.390  0.8466  0.0652 -0.7787
  918MOL0     H23875   3.642   7.500   7.415 -0.1520 -0.2507  0.9038
  918MOL0     H23876   3.601   7.640   7.512 -1.8841 -0.6796 -1.7719
  918MOL0     H23877   3.634   7.784   7.326  2.6421 -0.7061  0.8645
  918MOL0     H23878   3.711   7.663   7.227 -1.1287 -1.1655 -1.3216
  918MOL0     H23879   3.503   7.520   7.246 -0.5666 -0.0297  2.5075
  918MOL0     H23880   3.484   7.667   7.148  3.1005  1.7700  0.7250
  918MOL0     H23881   3.312   7.524   7.481 -1.9004 -1.0950 -0.3475
  918MOL0     H23882   3.092   7.562   7.565  0.6152 -0.6095 -0.3131
  918MOL0     H23883   3.069   7.733   7.609 -0.1851 -2.4663  1.5235
  918MOL0     H23884   2.942   7.612   7.362 -0.1700  0.4502  1.3461
  918MOL0     H23885   2.907   7.774   7.443 -0.8243  0.5474 -2.0735
  918MOL0     H23886   2.828   7.657   7.644  1.2415 -2.6442  0.8053
  918MOL0     H23887   2.846   7.504   7.558  0.0396 -0.0645 -0.8867
  918MOL0     H23888   2.696   7.582   7.381  0.8872 -2.7632  1.3008
  918MOL0     H23889   2.672   7.730   7.475 -2.1781  0.2959  1.6915
  918MOL0     H23890   2.388   7.437   7.648  1.3672  0.5581  0.7791
  918MOL0     H23891   2.119   7.289   7.555  4.8437  0.8544 -3.2019
  918MOL0     H23892   2.175   7.376   7.699  1.8758 -3.6369  0.1117
  918MOL0     H23893   2.038   7.441   7.614  0.1221  0.2578 -0.1511
  918MOL0     H23894   1.819   7.190   7.339 -0.7738  0.2001 -0.0999
  918MOL0     H23895   1.589   7.174   7.330  1.6094  0.1491  0.1380
  918MOL0     H23896   1.387   7.584   7.254  0.8195  0.1792 -2.5463
  918MOL0     H23897   1.365   7.489   7.107 -0.3083 -0.0517 -0.4431
  918MOL0     H23898   1.188   7.465   7.362 -0.5200 -0.4291 -0.9944
  918MOL0     H23899   1.148   7.562   7.221  0.6526 -0.3671 -0.0475
  918MOL0     H23900   1.186   7.273   7.181  1.7561  1.6841  0.7359
  918MOL0     H23901   1.115   7.398   7.074 -5.0607  1.1661  0.5411
  918MOL0     H23902   0.978   7.270   7.292  2.2757  1.7608  3.4284
  918MOL0     H23903   0.952   7.448   7.259 -0.2124 -1.8302  5.3851
  918MOL0     H23904   0.952   7.277   7.035 -0.7022  0.4490  0.2310
  918MOL0     H23905   0.905   7.438   7.046  3.4107  1.5373  2.3873
  918MOL0     H23906   0.745   7.198   7.143  3.0510  0.1021 -1.4417
  918MOL0     H23907   0.719   7.356   7.227 -0.3740 -4.0490  2.1744
  918MOL0     H23908   0.687   7.322   6.918 -1.2883  1.1008 -0.9508
  918MOL0     H23909   0.658   7.464   7.023 -1.2358 -0.2952 -1.3112
  918MOL0     H23910   0.507   7.339   7.156 -1.0086 -2.1759  0.7388
  918MOL0     H23911   0.515   7.197   7.055  2.8260  0.2038  2.2210
  918MOL0     H23912   1.582   7.610   7.250 -0.5706 -0.4588 -2.6019
  918MOL0     H23913   1.799   7.617   7.354  1.2840 -0.8703  0.7606
  918MOL0     H23914   2.261   7.635   7.223 -0.0874 -1.3632 -0.9063
  918MOL0     H23915   2.483   7.661   7.299 -2.2916 -0.4253 -0.0971
  918MOL0     H23916   4.352   7.224   7.587 -2.4463  3.4843 -0.4183
  918MOL0     H23917   4.588   7.142   7.666 -2.0501 -2.6608 -2.4403
  918MOL0     H23918   4.935   7.091   7.834  0.3611 -0.6190 -2.5803
  918MOL0     H23919   5.129   7.018   7.960 -0.3145 -0.7751 -1.2989
  918MOL0     H23920   5.342   7.071   8.116  0.3441  0.8418 -0.9099
  918MOL0     H23921   5.329   6.934   8.023 -3.5311  1.3021  6.5410
  918MOL0     H23922   5.520   6.896   8.153  0.3860 -0.7785 -1.2473
  918MOL0     H23923   5.580   7.057   8.138 -1.1974  0.5824  1.0857
  918MOL0     H23924   5.617   6.984   7.879 -1.9045  0.6988  0.8530
  918MOL0     H23925   5.602   6.816   7.943 -1.3903 -0.3620 -0.6116
  918MOL0     H23926   5.772   6.871   8.105  0.2828 -0.8003 -0.9717
  918MOL0     H23927   5.795   7.032   8.032 -1.9757  0.7613  3.3420
  918MOL0     H23928   5.995   6.798   7.736  0.0936 -1.6167  0.2010
  918MOL0     H23929   5.384   7.277   7.722  1.3692  0.5516  4.0574
  918MOL0     H23930   5.183   7.348   7.598 -0.3250  3.3824  2.5207
  919MOL0     O23931   1.134   5.526   1.226  0.5672  0.5893 -0.4310
  919MOL0     C23932   1.243   5.473   1.219  0.1053  0.1041 -0.3414
  919MOL0     O23933   1.261   5.342   1.184  0.5788  0.6066 -0.0262
  919MOL0     C23934   1.150   5.277   1.129  0.1819 -1.1310  0.4787
  919MOL0     C23935   1.073   5.343   1.028 -0.6262  0.1278 -0.0671
  919MOL0     C23936   0.971   5.271   0.968  0.3227 -0.1018  0.7010
  919MOL0     C23937   0.945   5.133   1.009  0.4052  0.0514 -0.8775
  919MOL0     O23938   0.844   5.057   0.954  0.1403  0.3419  0.5677
  919MOL0     C23939   0.785   5.087   0.822 -0.2332 -0.6169 -0.5743
  919MOL0     C23940   0.695   4.982   0.757  0.2340 -0.5062 -0.3130
  919MOL0     C23941   0.773   4.852   0.735  0.5139  0.5270 -0.6560
  919MOL0     C23942   0.766   4.752   0.863  0.0545 -0.7689  0.1994
  919MOL0     C23943   0.634   4.691   0.892 -0.2114  0.1013 -0.6215
  919MOL0     C23944   0.660   4.555   0.974  0.0148  0.2554  0.4981
  919MOL0     C23945   0.522   4.500   1.008  0.1566  0.3772 -0.2428
  919MOL0     C23946   0.532   4.362   1.073 -0.5947  0.3963 -0.4718
  919MOL0     N23947   0.420   4.354   1.165  0.1714  0.4170  0.9189
  919MOL0     C23948   0.403   4.422   1.285 -0.6564 -0.0453  0.2569
  919MOL0     C23949   0.283   4.374   1.333  0.5367 -0.0774  0.4546
  919MOL0     C23950   0.225   4.389   1.472  0.5115  0.1384  0.2339
  919MOL0     C23951   0.247   4.260   1.559  0.1479  0.3638  0.3149
  919MOL0     C23952   0.112   4.187   1.562  0.6486 -0.3689 -1.0127
  919MOL0     C23953   0.125   4.050   1.627 -0.2044 -0.7026  0.1833
  919MOL0     O23954   0.168   4.052   1.767 -0.7014 -0.4035 -0.4846
  919MOL0     C23955   0.297   3.997   1.785  0.3500  0.8341  0.2814
  919MOL0     C23956   0.349   3.872   1.722  0.0232  0.3010  0.2989
  919MOL0     C23957   0.483   3.837   1.743 -0.0774 -0.0030  0.1098
  919MOL0     C23958   0.524   3.711   1.688 -0.3347  1.3380  0.1122
  919MOL0     C23959   0.563   3.918   1.831  0.1613  0.3506  0.0632
  919MOL0     C23960   0.704   3.882   1.854  0.9660  0.4322 -0.4996
  919MOL0     O23961   0.795   3.974   1.816  0.2028 -0.3187 -0.1686
  919MOL0     C23962   0.931   3.939   1.821 -0.2721  0.0280 -0.4539
  919MOL0     C23963   0.981   3.826   1.758  0.5362  0.2200  0.0143
  919MOL0     C23964   1.116   3.800   1.765 -0.5696 -0.4549  0.0567
  919MOL0     C23965   1.209   3.893   1.811 -0.7264 -1.2789  0.1580
  919MOL0     O23966   1.343   3.865   1.794  0.3583 -0.1518 -0.2769
  919MOL0     C23967   1.437   3.934   1.880  0.0173  0.6075 -0.4144
  919MOL0     C23968   1.496   4.043   1.791 -0.3731  0.0011  0.1226
  919MOL0     C23969   1.556   3.991   1.652 -0.8144  0.4520 -0.1400
  919MOL0     C23970   1.654   4.100   1.594  0.1428 -0.2522 -0.0062
  919MOL0     C23971   1.718   4.056   1.463 -0.1112  0.2395 -0.6916
  919MOL0     C23972   1.786   3.924   1.467  0.1077 -0.6664  0.1846
  919MOL0     C23973   1.878   3.908   1.343 -0.2145  0.0112 -0.0958
  919MOL0     C23974   1.992   3.797   1.362  0.3657  0.5703 -0.0288
  919MOL0    Cl23975   1.910   3.637   1.409  0.8613  0.1027  0.1788
  919MOL0     C23976   1.158   4.015   1.862 -0.4360  0.1394  0.9256
  919MOL0     C23977   1.020   4.038   1.872 -0.5785 -0.0944  0.4586
  919MOL0     O23978   0.721   3.784   1.931 -0.5086  0.1555  0.0910
  919MOL0     C23979   0.502   4.027   1.898 -0.4883 -0.6535  0.0831
  919MOL0     C23980   0.377   4.066   1.869  0.0348 -0.1536  0.3808
  919MOL0     N23981   0.221   4.303   1.231  0.1903 -0.5015  0.1732
  919MOL0     N23982   0.306   4.300   1.132 -0.6842 -0.5977  0.7606
  919MOL0     C23983   1.025   5.073   1.105  0.0206 -0.3300 -1.6538
  919MOL0     C23984   1.132   5.146   1.152  0.0098 -0.1825 -0.1842
  919MOL0     C23985   1.357   5.542   1.279 -0.6161  0.2947  0.3924
  919MOL0     C23986   1.338   5.635   1.383  0.4457  0.3367 -0.1754
  919MOL0     C23987   1.452   5.690   1.445 -0.6620  0.7594  0.6869
  919MOL0     C23988   1.583   5.654   1.411 -1.1469  0.9345  0.1463
  919MOL0     O23989   1.680   5.718   1.472  0.6166 -0.2737 -0.3381
  919MOL0     C23990   1.806   5.646   1.475  0.0433 -0.0257 -0.2767
  919MOL0     C23991   1.906   5.694   1.367  1.1369  0.2415  0.0828
  919MOL0     C23992   2.024   5.601   1.358 -0.2878 -0.1807 -0.4918
  919MOL0     C23993   2.130   5.624   1.467  0.0559  0.6324  0.0981
  919MOL0     C23994   2.244   5.525   1.462  0.7335 -0.3996 -1.0178
  919MOL0     C23995   2.344   5.457   1.448  0.1530 -0.9827 -0.3575
  919MOL0     C23996   1.593   5.563   1.306  0.3324  0.7029 -0.2055
  919MOL0     C23997   1.483   5.507   1.249  0.1928  0.0358 -0.0155
  919MOL0     H23998   1.103   5.440   0.988 -1.2063 -0.0842 -1.0317
  919MOL0     H23999   0.909   5.300   0.884  1.8686 -1.7725 -1.0995
  919MOL0     H24000   0.729   5.179   0.839  2.1188  0.8563 -0.2250
  919MOL0     H24001   0.861   5.104   0.745  0.6066 -0.8232  0.1915
  919MOL0     H24002   0.607   4.964   0.820  1.5811  0.6776  2.0345
  919MOL0     H24003   0.665   5.027   0.661 -0.9904  0.4435  0.4815
  919MOL0     H24004   0.742   4.804   0.641  0.0913  1.7597 -1.1654
  919MOL0     H24005   0.880   4.872   0.724  0.0665  2.9086 -1.1746
  919MOL0     H24006   0.847   4.680   0.845  1.7514  1.1057 -0.0041
  919MOL0     H24007   0.798   4.805   0.953  0.2661  4.1885 -2.4341
  919MOL0     H24008   0.582   4.762   0.957 -0.7501 -1.7809  1.0841
  919MOL0     H24009   0.581   4.675   0.798 -1.4757 -0.7586  0.2229
  919MOL0     H24010   0.708   4.481   0.909 -2.6807 -0.8967 -0.3287
  919MOL0     H24011   0.720   4.558   1.066 -0.2143 -2.5515  0.8194
  919MOL0     H24012   0.470   4.574   1.070 -1.3957  1.2488 -2.4465
  919MOL0     H24013   0.468   4.492   0.913 -2.8123  4.3524  0.8479
  919MOL0     H24014   0.627   4.358   1.128 -0.7101  1.7992 -0.1338
  919MOL0     H24015   0.533   4.272   1.010 -1.9729 -2.2219  2.8940
  919MOL0     H24016   0.481   4.481   1.333 -0.8437  1.8326 -1.5789
  919MOL0     H24017   0.269   4.477   1.519  1.5619 -0.1865 -0.1155
  919MOL0     H24018   0.119   4.410   1.461 -0.2875 -2.9186  1.1774
  919MOL0     H24019   0.267   4.283   1.664  1.6202  4.6552 -0.6821
  919MOL0     H24020   0.314   4.185   1.517  1.5663  1.2386  0.9259
  919MOL0     H24021   0.057   4.186   1.468 -0.6954  1.4592 -0.3137
  919MOL0     H24022   0.055   4.254   1.628  0.2512  0.5942 -2.2906
  919MOL0     H24023   0.189   3.989   1.563  0.2582  1.2861 -1.3528
  919MOL0     H24024   0.024   4.011   1.610  0.5767 -2.1381 -1.5555
  919MOL0     H24025   0.276   3.817   1.663  1.1911  0.7248 -1.6450
  919MOL0     H24026   0.495   3.725   1.584 -0.2216 -0.7128 -0.2269
  919MOL0     H24027   0.632   3.694   1.686 -0.6244 -2.0529  3.1574
  919MOL0     H24028   0.484   3.620   1.734  1.0243 -1.2955 -3.4608
  919MOL0     H24029   0.908   3.761   1.712  0.3812 -0.2931  0.9757
  919MOL0     H24030   1.162   3.713   1.719 -0.2352  0.0441 -0.5842
  919MOL0     H24031   1.396   3.974   1.974  1.4532 -2.4645  1.7028
  919MOL0     H24032   1.524   3.873   1.904 -0.8878 -0.8652 -0.7394
  919MOL0     H24033   1.414   4.111   1.766 -1.2692 -0.8623  0.6090
  919MOL0     H24034   1.574   4.097   1.845 -2.2674  0.8523  2.1925
  919MOL0     H24035   1.470   3.970   1.586 -2.4475  1.0500  1.6984
  919MOL0     H24036   1.608   3.896   1.662  2.0385  2.0894  2.1321
  919MOL0     H24037   1.594   4.191   1.585  1.1429  0.3292 -1.1181
  919MOL0     H24038   1.732   4.117   1.669 -0.0285 -2.6289  0.7713
  919MOL0     H24039   1.791   4.134   1.441 -1.6503  2.9970  2.8650
  919MOL0     H24040   1.638   4.053   1.388 -1.7729  1.0731  0.9468
  919MOL0     H24041   1.853   3.907   1.552  0.0876 -3.6564 -0.3186
  919MOL0     H24042   1.715   3.841   1.468 -0.5445 -0.1221 -0.3010
  919MOL0     H24043   1.930   4.003   1.326  2.9709 -1.5484  0.1308
  919MOL0     H24044   1.828   3.884   1.249  0.0110  1.8507 -0.7246
  919MOL0     H24045   2.050   3.817   1.452  0.3068 -1.0703  0.4060
  919MOL0     H24046   2.060   3.787   1.277 -2.7406  0.3453 -2.6938
  919MOL0     H24047   1.226   4.089   1.903  0.2146 -1.2925  2.5756
  919MOL0     H24048   0.971   4.129   1.905  0.7228  1.1729 -0.9252
  919MOL0     H24049   0.566   4.071   1.974  0.6104 -0.4523 -0.9394
  919MOL0     H24050   0.329   4.153   1.914 -1.4632 -0.1888 -1.0677
  919MOL0     H24051   1.014   4.969   1.137  0.1867 -0.2108 -1.1990
  919MOL0     H24052   1.200   5.090   1.215  0.1250 -0.9557 -0.9842
  919MOL0     H24053   1.241   5.656   1.426  1.1216  0.0375  1.5569
  919MOL0     H24054   1.424   5.755   1.528  0.1315 -0.0428  1.6012
  919MOL0     H24055   1.859   5.655   1.571  4.0806 -1.5245 -2.1073
  919MOL0     H24056   1.779   5.541   1.462 -0.5186  0.1285 -0.3674
  919MOL0     H24057   1.932   5.800   1.370 -0.8813  0.9503 -3.1472
  919MOL0     H24058   1.841   5.691   1.279  1.0596  0.8062  0.1174
  919MOL0     H24059   2.062   5.621   1.257 -3.8466  2.0297 -1.5827
  919MOL0     H24060   1.988   5.498   1.365 -0.1625 -0.1307  1.6201
  919MOL0     H24061   2.089   5.619   1.568  3.2561  0.3517  1.5049
  919MOL0     H24062   2.171   5.724   1.451 -1.4757  1.6334  2.0449
  919MOL0     H24063   2.420   5.381   1.452  1.1398  0.0021  2.7000
  919MOL0     H24064   1.689   5.527   1.269  1.0706 -1.3941  3.2672
  919MOL0     H24065   1.504   5.428   1.177  0.8904  0.4019 -0.2271
  920MOL0     O24066   9.301   9.435   9.837 -0.4136 -0.3906 -0.2410
  920MOL0     C24067   9.347   9.493   9.934  0.0119  0.1866  0.3813
  920MOL0     O24068   9.291   9.594   9.996  0.1038  0.0556  0.2189
  920MOL0     C24069   9.173   9.646   9.938 -0.6174  0.5609 -0.6692
  920MOL0     C24070   9.176   9.767   9.874 -0.4243 -0.4933 -0.1941
  920MOL0     C24071   9.063   9.818   9.810  0.3056 -0.4924  0.7773
  920MOL0     C24072   8.946   9.744   9.818  0.0939  0.2981  0.7422
  920MOL0     O24073   8.835   9.788   9.742 -0.3506  1.1233 -0.3693
  920MOL0     C24074   8.834   9.743   9.603  0.6651  0.0486  0.4353
  920MOL0     C24075   8.767   9.613   9.572 -0.5724  0.0601  0.0156
  920MOL0     C24076   8.613   9.592   9.588 -0.5159  0.1425 -0.9808
  920MOL0     C24077   8.569   9.625   9.732 -0.0654  0.7841  0.0071
  920MOL0     C24078   8.417   9.616   9.749 -0.1310 -0.1828  0.0332
  920MOL0     C24079   8.394   9.646   9.900 -0.2755  0.1944  0.2456
  920MOL0     C24080   8.244   9.665   9.923 -0.2690  0.1223 -0.7153
  920MOL0     C24081   8.206   9.665  10.068 -0.1061 -0.1466 -0.1146
  920MOL0     N24082   8.249   9.791  10.136  0.3686 -0.4388  0.9191
  920MOL0     C24083   8.155   9.887  10.187  0.4385 -0.3186  0.2925
  920MOL0     C24084   8.231   9.982  10.242 -0.7125 -0.7927 -0.1162
  920MOL0     C24085   8.178  10.107  10.302 -0.2817 -1.0740  0.5452
  920MOL0     C24086   8.023  10.120  10.330 -0.0713 -0.0132  0.3900
  920MOL0     C24087   7.994  10.248  10.415  0.4345  0.8696 -0.3821
  920MOL0     C24088   7.847  10.289  10.421  0.0577  0.5659  0.1838
  920MOL0     O24089   7.786  10.176  10.480 -0.0770 -0.3042 -0.2931
  920MOL0     C24090   7.652  10.170  10.457 -0.2143 -0.9702 -0.0688
  920MOL0     C24091   7.575  10.264  10.518  0.4264 -0.1394  0.3725
  920MOL0     C24092   7.438  10.278  10.485  0.5746  0.7870 -0.8038
  920MOL0     C24093   7.365  10.392  10.563  1.2991 -0.7506 -0.4440
  920MOL0     C24094   7.378  10.189  10.386  0.8857  0.1494 -0.5025
  920MOL0     C24095   7.238  10.194  10.336  0.3138  0.2315 -0.1592
  920MOL0     O24096   7.203  10.112  10.225  0.8065  0.4846 -0.0223
  920MOL0     C24097   7.090  10.142  10.143 -0.4538  0.2628  0.4427
  920MOL0     C24098   7.049  10.034  10.056 -0.3703 -0.1244 -0.1513
  920MOL0     C24099   6.946  10.062   9.968  0.1046  0.2222  0.7823
  920MOL0     C24100   6.882  10.189   9.961 -0.0392  0.1913  0.3523
  920MOL0     O24101   6.774  10.223   9.883 -1.1899 -0.3097  0.3331
  920MOL0     C24102   6.763  10.146   9.759  0.5044  0.4053  1.4274
  920MOL0     C24103   6.662  10.218   9.668  0.5855 -0.3908 -0.6893
  920MOL0     C24104   6.667  10.154   9.530 -1.3140 -0.2583  0.4162
  920MOL0     C24105   6.566  10.210   9.438  0.8547  0.0513 -0.1545
  920MOL0     C24106   6.588  10.177   9.287  0.4080  0.3727 -0.4231
  920MOL0     C24107   6.459  10.227   9.214 -0.0313 -0.4289 -0.9586
  920MOL0     C24108   6.444  10.179   9.068 -0.3369 -0.5210 -0.0348
  920MOL0     C24109   6.323  10.238   9.010 -0.2839 -0.1321 -0.2311
  920MOL0    Cl24110   6.188  10.211   9.110 -0.2455  0.1323 -0.3997
  920MOL0     C24111   6.934  10.295  10.035  0.2864 -0.2696  0.6193
  920MOL0     C24112   7.034  10.265  10.127  0.0326  0.4690  0.4178
  920MOL0     O24113   7.169  10.278  10.388 -0.1749  0.3561  1.0200
  920MOL0     C24114   7.464  10.086  10.334 -0.1531  1.2066 -1.2175
  920MOL0     C24115   7.595  10.076  10.370 -0.0181  0.0129 -0.0079
  920MOL0     N24116   8.364   9.951  10.224 -0.0496  0.5717  0.0893
  920MOL0     N24117   8.374   9.828  10.169 -0.3339 -0.0329  0.0351
  920MOL0     C24118   8.943   9.616   9.873 -0.1221 -1.5903  0.5229
  920MOL0     C24119   9.060   9.574   9.934 -0.0780 -0.3086 -0.6448
  920MOL0     C24120   9.475   9.446   9.978  0.0441 -0.3328  0.3105
  920MOL0     C24121   9.549   9.353   9.899  0.2745  0.2476  0.5708
  920MOL0     C24122   9.671   9.310   9.942  0.2534  0.1667  0.6788
  920MOL0     C24123   9.735   9.356  10.056  0.0803 -0.3863 -0.4390
  920MOL0     O24124   9.858   9.314  10.074 -0.4360  0.2241 -0.3042
  920MOL0     C24125   9.892   9.291  10.210 -0.3588 -0.2927 -0.5728
  920MOL0     C24126  10.017   9.199  10.220 -0.1551 -0.6910  0.0648
  920MOL0     C24127   9.994   9.087  10.115 -0.6096 -0.2487  0.8330
  920MOL0     C24128  10.076   8.961  10.143 -0.0617 -0.4597 -0.6894
  920MOL0     C24129  10.226   8.989  10.145 -0.2624  0.4080  0.3029
  920MOL0     C24130  10.341   9.023  10.136  0.2199  0.0663  0.2639
  920MOL0     C24131   9.667   9.456  10.127  0.4145  0.0208 -0.3084
  920MOL0     C24132   9.540   9.500  10.086  0.2172 -0.9666  0.2949
  920MOL0     H24133   9.275   9.810   9.873 -1.1718  1.3435  0.9577
  920MOL0     H24134   9.062   9.910   9.754  1.9977 -2.8230 -3.5352
  920MOL0     H24135   8.770   9.819   9.557  1.8718  3.3792  3.7513
  920MOL0     H24136   8.933   9.743   9.555 -0.6422 -2.0204 -2.5617
  920MOL0     H24137   8.781   9.580   9.469 -0.9526 -3.0291  0.8426
  920MOL0     H24138   8.805   9.531   9.634 -4.7301 -1.7371  0.5152
  920MOL0     H24139   8.560   9.655   9.515  1.4351  4.1664  0.8010
  920MOL0     H24140   8.580   9.489   9.569 -1.8619 -0.3422  3.1061
  920MOL0     H24141   8.598   9.558   9.813 -1.4755  0.6874  0.4714
  920MOL0     H24142   8.598   9.725   9.766 -2.2545  0.5548  2.9974
  920MOL0     H24143   8.367   9.700   9.700 -2.5350  0.7328  3.5795
  920MOL0     H24144   8.378   9.517   9.722  1.9358 -0.3308 -2.8342
  920MOL0     H24145   8.428   9.556   9.952 -0.6239 -0.3667 -0.4706
  920MOL0     H24146   8.458   9.728   9.932 -0.4917 -0.2854  2.0007
  920MOL0     H24147   8.219   9.762   9.878  1.5046  1.1161  0.3587
  920MOL0     H24148   8.183   9.594   9.866 -0.7190  0.6348 -0.8777
  920MOL0     H24149   8.253   9.583  10.122 -2.5120 -1.8752 -0.4693
  920MOL0     H24150   8.099   9.648  10.081 -0.8525  1.6331 -2.9973
  920MOL0     H24151   8.047   9.881  10.179  0.5119 -0.6470 -0.4837
  920MOL0     H24152   8.222  10.102  10.401  0.4940  0.6750  0.3345
  920MOL0     H24153   8.216  10.190  10.241  1.7540 -0.4659  2.5284
  920MOL0     H24154   7.985  10.029  10.378  0.0913 -0.2894  0.0018
  920MOL0     H24155   7.978  10.113  10.230  1.1877  1.4419 -0.3087
  920MOL0     H24156   8.050  10.332  10.372  0.1850  0.9826 -0.4935
  920MOL0     H24157   8.024  10.228  10.518 -2.5279  1.0301  0.6137
  920MOL0     H24158   7.805  10.314  10.324  0.5551 -1.8906 -0.7281
  920MOL0     H24159   7.830  10.374  10.488 -3.8802 -1.0089  1.4643
  920MOL0     H24160   7.617  10.326  10.597  1.0850 -0.1993  0.0777
  920MOL0     H24161   7.421  10.432  10.648 -0.1157 -0.7208  0.5002
  920MOL0     H24162   7.362  10.473  10.490  2.8933 -2.2200 -2.2789
  920MOL0     H24163   7.268  10.363  10.604  3.0529 -1.9953  3.2703
  920MOL0     H24164   7.109   9.944  10.064  0.6172  0.2675 -2.3640
  920MOL0     H24165   6.910   9.977   9.910  0.7336  1.3802 -1.3870
  920MOL0     H24166   6.867  10.129   9.728 -0.1789 -2.2389  0.3091
  920MOL0     H24167   6.726  10.044   9.777 -0.0830  0.4624  0.5796
  920MOL0     H24168   6.563  10.214   9.715  0.3204  1.2659 -1.0465
  920MOL0     H24169   6.691  10.323   9.664 -0.9726  0.0522 -0.7471
  920MOL0     H24170   6.651  10.046   9.540 -1.7133 -0.2804 -0.4144
  920MOL0     H24171   6.765  10.166   9.484  0.5747 -1.0624  3.8696
  920MOL0     H24172   6.467  10.187   9.478  1.5604 -0.8737  1.1152
  920MOL0     H24173   6.561  10.320   9.444 -2.4785 -0.0580  1.7284
  920MOL0     H24174   6.596  10.070   9.266  0.3521 -0.2270  2.3175
  920MOL0     H24175   6.673  10.220   9.234 -0.6856  1.0287 -1.7328
  920MOL0     H24176   6.368  10.203   9.270  0.0062  1.0737 -0.2203
  920MOL0     H24177   6.469  10.336   9.210  1.0399 -0.3227  1.8658
  920MOL0     H24178   6.417  10.073   9.061  1.6750 -1.0193 -1.3366
  920MOL0     H24179   6.536  10.198   9.011 -1.2584  2.1330 -0.7743
  920MOL0     H24180   6.299  10.197   8.911 -0.0723 -1.0161  0.0783
  920MOL0     H24181   6.345  10.346   9.009  2.4888 -0.5910  1.0863
  920MOL0     H24182   6.880  10.388  10.021 -0.9020 -0.8234  1.3604
  920MOL0     H24183   7.063  10.348  10.190  3.0368  0.1855 -0.4554
  920MOL0     H24184   7.430  10.032  10.246 -4.8039  1.6298  0.0830
  920MOL0     H24185   7.665  10.024  10.305 -0.8728  0.4034 -1.2747
  920MOL0     H24186   8.853   9.556   9.869  0.1529 -1.9482 -1.1219
  920MOL0     H24187   9.058   9.472   9.970 -2.2526 -0.5282 -1.2130
  920MOL0     H24188   9.513   9.331   9.799 -2.2832  2.9394  0.7637
  920MOL0     H24189   9.724   9.248   9.871 -4.0863 -1.2928 -1.6099
  920MOL0     H24190   9.913   9.385  10.262  1.5726 -1.4611  0.8802
  920MOL0     H24191   9.820   9.238  10.273  2.4194 -0.6301  2.5987
  920MOL0     H24192  10.028   9.158  10.321  2.8649 -1.1526 -0.3805
  920MOL0     H24193  10.110   9.247  10.189 -0.3369 -0.1589  0.3369
  920MOL0     H24194  10.015   9.136  10.020  1.0514 -1.1926  0.6735
  920MOL0     H24195   9.893   9.045  10.111  0.8228 -4.0656  0.3762
  920MOL0     H24196  10.058   8.890  10.062 -0.3631 -1.2214  0.0370
  920MOL0     H24197  10.043   8.920  10.239 -0.3074  2.2249  0.4728
  920MOL0     H24198  10.442   9.058  10.132 -0.4356  2.1909  1.2760
  920MOL0     H24199   9.718   9.499  10.213 -2.8046  2.0405  0.7440
  920MOL0     H24200   9.488   9.575  10.144 -3.4004 -2.6738 -0.4081
  921MOL0     O24201   0.227   5.580   0.474  0.6889 -0.2239 -0.1871
  921MOL0     C24202   0.173   5.661   0.395 -0.5786 -0.1716  0.7803
  921MOL0     O24203   0.048   5.652   0.342 -0.8254 -0.1257 -0.6744
  921MOL0     C24204  -0.030   5.557   0.401  0.0519  1.5726 -0.2320
  921MOL0     C24205  -0.012   5.414   0.382 -0.3528 -0.3545  0.1023
  921MOL0     C24206  -0.108   5.321   0.437 -0.1843  0.4891 -0.6622
  921MOL0     C24207  -0.214   5.369   0.503 -0.9653 -0.3185  0.1497
  921MOL0     O24208  -0.302   5.265   0.540  0.0898 -0.1572 -0.6013
  921MOL0     C24209  -0.444   5.287   0.531  0.5464 -0.4715 -0.0275
  921MOL0     C24210  -0.506   5.164   0.588  0.2035 -0.3545  0.0749
  921MOL0     C24211  -0.661   5.174   0.599 -0.0531 -1.1376 -0.1331
  921MOL0     C24212  -0.734   5.045   0.611  0.3731 -0.5162 -0.4242
  921MOL0     C24213  -0.696   4.952   0.731  0.3873 -0.6306 -0.4192
  921MOL0     C24214  -0.730   5.005   0.880  0.0285  0.2212  0.4819
  921MOL0     C24215  -0.684   4.899   0.974  0.4663  0.0843  0.8357
  921MOL0     C24216  -0.680   4.946   1.124 -0.4501  0.7580  0.1132
  921MOL0     N24217  -0.561   5.029   1.144  0.4021 -0.2729 -0.4496
  921MOL0     C24218  -0.425   4.987   1.150 -0.7134  0.5749 -0.0921
  921MOL0     C24219  -0.353   5.096   1.175  0.2287 -0.5501 -0.2946
  921MOL0     C24220  -0.214   5.106   1.227 -0.1258 -0.1212  0.3838
  921MOL0     C24221  -0.204   5.195   1.352 -0.3276 -0.1771 -0.1072
  921MOL0     C24222  -0.192   5.343   1.319 -0.1703  0.3346  0.4353
  921MOL0     C24223  -0.194   5.435   1.437 -0.7834  0.1520 -0.1766
  921MOL0     O24224  -0.308   5.392   1.513 -0.3854 -0.0194  0.8435
  921MOL0     C24225  -0.326   5.477   1.623 -0.5929 -0.4761  1.0702
  921MOL0     C24226  -0.461   5.471   1.671  0.1685 -0.0684  0.4450
  921MOL0     C24227  -0.504   5.543   1.780 -0.1586 -1.2039 -0.1035
  921MOL0     C24228  -0.640   5.521   1.820  0.4045  0.2506  0.6240
  921MOL0     C24229  -0.415   5.646   1.837  0.3627 -0.9325 -0.8071
  921MOL0     C24230  -0.452   5.728   1.960  0.0519  0.1468 -0.3556
  921MOL0     O24231  -0.571   5.704   2.030 -0.8849  0.3835  0.7943
  921MOL0     C24232  -0.625   5.788   2.123  0.5999 -0.1234  0.4910
  921MOL0     C24233  -0.568   5.890   2.199 -0.1283 -0.8324 -0.8415
  921MOL0     C24234  -0.642   5.984   2.278 -1.2506 -0.1406  0.0029
  921MOL0     C24235  -0.782   5.975   2.277 -0.0074  0.8077 -0.1396
  921MOL0     O24236  -0.872   6.048   2.354 -0.8745  0.3550 -0.0214
  921MOL0     C24237  -0.832   6.106   2.477 -0.4799  0.1107 -0.3969
  921MOL0     C24238  -0.944   6.202   2.533 -0.5535 -0.1267  0.1506
  921MOL0     C24239  -0.970   6.316   2.441 -0.0621 -0.2826  0.0001
  921MOL0     C24240  -1.091   6.391   2.491 -0.3613 -1.0408 -0.3697
  921MOL0     C24241  -1.117   6.519   2.400  0.3284  0.4477 -0.2634
  921MOL0     C24242  -1.203   6.610   2.482 -0.9824  0.4534 -0.6194
  921MOL0     C24243  -1.245   6.719   2.394 -0.3509  0.6504  0.7765
  921MOL0     C24244  -1.348   6.800   2.461 -0.4452 -0.6962  0.4060
  921MOL0    Cl24245  -1.272   6.896   2.596  0.4812 -0.1401  1.3025
  921MOL0     C24246  -0.840   5.866   2.209 -0.2857  0.5488 -1.0641
  921MOL0     C24247  -0.760   5.773   2.142 -0.3724 -0.5963  0.5632
  921MOL0     O24248  -0.369   5.810   1.996  0.0343 -0.2940  0.3814
  921MOL0     C24249  -0.284   5.662   1.785 -0.8454  0.7325 -0.6778
  921MOL0     C24250  -0.244   5.576   1.672  0.0730  0.8647 -0.5777
  921MOL0     N24251  -0.448   5.203   1.159 -0.3891  0.0179  0.4795
  921MOL0     N24252  -0.568   5.160   1.150 -0.7256 -0.4830  0.1225
  921MOL0     C24253  -0.235   5.505   0.529  0.0263 -0.1401  0.2689
  921MOL0     C24254  -0.148   5.595   0.474 -0.0205 -0.2339  0.1913
  921MOL0     C24255   0.254   5.766   0.328 -0.9389 -1.0410  0.2889
  921MOL0     C24256   0.372   5.823   0.389 -0.5318 -1.0165  0.2522
  921MOL0     C24257   0.442   5.935   0.338 -0.3629  0.0983  0.8041
  921MOL0     C24258   0.392   5.994   0.217  0.8750 -0.6179  0.8122
  921MOL0     O24259   0.442   6.103   0.155 -0.1914 -0.5884 -0.0551
  921MOL0     C24260   0.582   6.137   0.171  0.0780 -0.4029  0.0478
  921MOL0     C24261   0.610   6.271   0.110  0.0130 -0.5614  0.3106
  921MOL0     C24262   0.548   6.287  -0.034 -0.0180 -0.4480  0.2040
  921MOL0     C24263   0.641   6.367  -0.124 -0.3383  0.6899  0.6120
  921MOL0     C24264   0.573   6.378  -0.257 -0.4860 -0.9232  0.0072
  921MOL0     C24265   0.516   6.391  -0.356  0.0900 -0.2713 -0.2640
  921MOL0     C24266   0.270   5.954   0.163 -0.1697 -0.5350 -0.4053
  921MOL0     C24267   0.209   5.843   0.215 -0.1266  0.3221 -0.4126
  921MOL0     H24268   0.071   5.380   0.321  1.5825  2.4531  0.9828
  921MOL0     H24269  -0.114   5.213   0.434 -2.9181  0.4211  2.3658
  921MOL0     H24270  -0.478   5.381   0.576  0.3695 -0.4411 -0.2237
  921MOL0     H24271  -0.458   5.291   0.423  0.1780  4.3139 -0.0151
  921MOL0     H24272  -0.476   5.070   0.541 -1.0737 -2.4521  3.1087
  921MOL0     H24273  -0.470   5.151   0.691 -2.5792 -1.1748  1.0523
  921MOL0     H24274  -0.680   5.231   0.690 -0.9268  1.0967 -1.6414
  921MOL0     H24275  -0.716   5.234   0.527 -1.0445  1.1407  2.3526
  921MOL0     H24276  -0.838   5.062   0.639  0.6719 -2.6851  2.4501
  921MOL0     H24277  -0.723   4.979   0.524  0.6737  1.6742 -2.1327
  921MOL0     H24278  -0.749   4.857   0.724 -0.5719 -0.0887 -0.7245
  921MOL0     H24279  -0.590   4.930   0.715  0.2249 -2.7772  1.0553
  921MOL0     H24280  -0.692   5.107   0.892 -2.3548  1.2682 -0.2113
  921MOL0     H24281  -0.837   5.024   0.894  0.0706  0.8759 -0.0509
  921MOL0     H24282  -0.758   4.819   0.969  0.4791  0.0734  0.8129
  921MOL0     H24283  -0.586   4.864   0.942  0.1879 -1.3449  1.4497
  921MOL0     H24284  -0.673   4.860   1.192 -0.6292  0.5275 -0.1592
  921MOL0     H24285  -0.772   4.999   1.152 -0.4900  0.5306  0.4235
  921MOL0     H24286  -0.380   4.888   1.147 -2.2991 -0.3772  3.1738
  921MOL0     H24287  -0.176   5.005   1.247  2.2267  1.1860  3.1929
  921MOL0     H24288  -0.154   5.147   1.145 -0.5112 -2.9213 -1.4410
  921MOL0     H24289  -0.116   5.170   1.412 -0.3912  1.5627  0.7580
  921MOL0     H24290  -0.298   5.187   1.407 -1.8643  1.2333 -2.3779
  921MOL0     H24291  -0.269   5.393   1.258  0.1709  2.3828  1.5707
  921MOL0     H24292  -0.096   5.359   1.270 -0.9273 -3.8069 -2.9845
  921MOL0     H24293  -0.204   5.541   1.413 -0.3154  0.8891  2.5259
  921MOL0     H24294  -0.103   5.419   1.495  1.7092  1.2881 -3.4729
  921MOL0     H24295  -0.519   5.389   1.630 -0.6266 -0.3018  1.9579
  921MOL0     H24296  -0.708   5.604   1.842 -0.6228 -0.4961  0.3368
  921MOL0     H24297  -0.695   5.462   1.745  0.3379 -0.8719  1.5238
  921MOL0     H24298  -0.618   5.452   1.902  0.8927 -2.1672 -1.4362
  921MOL0     H24299  -0.461   5.911   2.192 -0.0310 -1.0099 -0.0608
  921MOL0     H24300  -0.586   6.064   2.325  0.8651 -0.6363 -1.5357
  921MOL0     H24301  -0.809   6.041   2.562  0.4532  1.2940  0.3037
  921MOL0     H24302  -0.737   6.160   2.467 -0.7011  0.6804  0.4735
  921MOL0     H24303  -1.034   6.144   2.557  1.3373 -2.9074  1.0254
  921MOL0     H24304  -0.928   6.242   2.634  1.7457 -0.3357 -0.0903
  921MOL0     H24305  -0.979   6.276   2.340  1.7423 -1.1291  0.1226
  921MOL0     H24306  -0.879   6.376   2.441  1.2482 -2.0481 -2.6193
  921MOL0     H24307  -1.178   6.325   2.484  0.4775 -2.0315 -2.0454
  921MOL0     H24308  -1.075   6.415   2.596 -1.9358 -3.2696  0.4607
  921MOL0     H24309  -1.166   6.486   2.308  1.2029  0.1481 -0.6278
  921MOL0     H24310  -1.027   6.576   2.379  0.4585  0.7376  1.0081
  921MOL0     H24311  -1.295   6.551   2.488 -0.8101 -0.2119 -3.1533
  921MOL0     H24312  -1.151   6.644   2.572 -0.3636 -0.6610 -0.5308
  921MOL0     H24313  -1.288   6.686   2.299  0.4317 -0.1101  0.6759
  921MOL0     H24314  -1.162   6.785   2.369  1.2123 -1.5423 -0.0888
  921MOL0     H24315  -1.430   6.747   2.510 -0.3462 -0.5984  0.6804
  921MOL0     H24316  -1.394   6.869   2.390  0.3022 -1.0068 -0.3907
  921MOL0     H24317  -0.946   5.848   2.224 -0.5913  2.7786 -0.0610
  921MOL0     H24318  -0.811   5.687   2.099  0.1050  0.3750 -2.1074
  921MOL0     H24319  -0.216   5.741   1.814 -0.7227 -0.0511  1.2954
  921MOL0     H24320  -0.149   5.597   1.624  0.3153 -2.7759 -2.0592
  921MOL0     H24321  -0.324   5.551   0.571  0.2502 -0.6209  1.2982
  921MOL0     H24322  -0.166   5.700   0.493  0.0389 -0.3190  0.7537
  921MOL0     H24323   0.395   5.785   0.488 -0.1080  0.4773  0.7402
  921MOL0     H24324   0.531   5.975   0.385 -1.4137  5.4202 -1.0194
  921MOL0     H24325   0.613   6.152   0.275  2.2983  3.2768 -0.9724
  921MOL0     H24326   0.637   6.056   0.123 -1.4077 -0.6105 -1.3864
  921MOL0     H24327   0.718   6.281   0.109  0.0506 -0.9707 -0.5948
  921MOL0     H24328   0.554   6.344   0.170 -1.9607 -1.1922 -0.6596
  921MOL0     H24329   0.447   6.327  -0.025 -0.0845 -1.0818  3.7397
  921MOL0     H24330   0.540   6.191  -0.086 -0.3563  0.4138 -1.4127
  921MOL0     H24331   0.739   6.319  -0.133 -0.2800  0.5476  1.7533
  921MOL0     H24332   0.665   6.467  -0.087  0.2891  0.4171  0.9456
  921MOL0     H24333   0.457   6.398  -0.445 -0.4152  0.7652  0.1345
  921MOL0     H24334   0.213   5.999   0.082  0.4382 -0.5993 -0.8770
  921MOL0     H24335   0.118   5.810   0.167  0.4329  0.7862 -1.8382
  922MOL0     O24336  11.215   1.265   4.509 -0.0600  0.1934 -0.7916
  922MOL0     C24337  11.253   1.372   4.564 -0.0773 -0.2478 -0.0936
  922MOL0     O24338  11.174   1.480   4.599 -0.1689 -0.2780 -0.5651
  922MOL0     C24339  11.042   1.494   4.567  0.4897 -0.2378  0.2232
  922MOL0     C24340  10.954   1.385   4.556 -0.7154  0.8318  0.7722
  922MOL0     C24341  10.828   1.396   4.511  0.7886  0.4608  0.7665
  922MOL0     C24342  10.767   1.526   4.476  0.7743  0.7078  0.5211
  922MOL0     O24343  10.635   1.528   4.437 -0.5286 -0.2127 -0.6443
  922MOL0     C24344  10.552   1.650   4.446 -0.3364  0.4120  0.0010
  922MOL0     C24345  10.486   1.665   4.590  0.4682  0.0628 -0.0560
  922MOL0     C24346  10.580   1.685   4.705 -0.4026 -0.8850 -0.9997
  922MOL0     C24347  10.506   1.758   4.819  0.1396  0.7228 -0.0312
  922MOL0     C24348  10.397   1.670   4.896  0.0140 -0.2500 -0.4022
  922MOL0     C24349  10.444   1.593   5.017  0.2554  0.4972  0.0785
  922MOL0     C24350  10.472   1.688   5.132  0.4370 -0.1190  0.2353
  922MOL0     C24351  10.495   1.611   5.263  0.1171 -0.1443  0.0806
  922MOL0     N24352  10.370   1.575   5.333 -0.9442 -0.4189  0.1861
  922MOL0     C24353  10.261   1.657   5.347 -0.5286  0.5545 -0.3225
  922MOL0     C24354  10.179   1.578   5.420 -0.2264  0.0950 -0.9077
  922MOL0     C24355  10.051   1.613   5.483 -0.3343  0.1807 -0.2738
  922MOL0     C24356  10.065   1.746   5.560  0.2630 -1.2130 -0.8087
  922MOL0     C24357   9.927   1.804   5.588  0.1376 -0.1052  0.1976
  922MOL0     C24358   9.832   1.731   5.689 -0.3422  0.4891  0.7731
  922MOL0     O24359   9.760   1.625   5.624  0.6407 -0.1449  0.2448
  922MOL0     C24360   9.661   1.652   5.531  0.2465  0.4901  0.1054
  922MOL0     C24361   9.637   1.553   5.444  0.4450 -0.1103 -0.0120
  922MOL0     C24362   9.535   1.562   5.353 -0.3023 -0.0154 -0.2786
  922MOL0     C24363   9.520   1.434   5.268 -0.2029 -0.3596  0.4071
  922MOL0     C24364   9.453   1.674   5.343  0.8445  0.3337  0.1498
  922MOL0     C24365   9.344   1.695   5.246  0.1164 -0.7836  0.7146
  922MOL0     O24366   9.254   1.795   5.279  0.5358  0.2067 -0.1195
  922MOL0     C24367   9.177   1.831   5.169 -0.6214  0.5839 -0.0427
  922MOL0     C24368   9.072   1.749   5.126  0.5811 -0.2992  0.5000
  922MOL0     C24369   9.013   1.789   5.000 -0.1620  0.9201  0.1295
  922MOL0     C24370   9.049   1.901   4.921  0.1858  0.1125 -0.0173
  922MOL0     O24371   9.003   1.899   4.793  0.4819  0.2227  0.4050
  922MOL0     C24372   9.052   2.006   4.704  0.2295 -0.1979 -0.5065
  922MOL0     C24373   8.990   2.003   4.567  0.2169 -0.1350 -0.4689
  922MOL0     C24374   9.010   1.874   4.495  0.0276 -0.0133  0.3756
  922MOL0     C24375   8.882   1.809   4.437  0.3842  0.4029  0.1668
  922MOL0     C24376   8.934   1.699   4.339  0.1518 -0.2805 -0.1279
  922MOL0     C24377   8.983   1.572   4.393 -0.2531  0.6063 -0.4535
  922MOL0     C24378   9.055   1.459   4.308 -0.2269  0.0994  0.6575
  922MOL0     C24379   8.970   1.400   4.200  0.0126 -0.5926  0.7691
  922MOL0    Cl24380   9.058   1.285   4.104 -0.1059 -0.0103 -0.2576
  922MOL0     C24381   9.148   1.975   4.977 -0.4750  0.0566  0.4062
  922MOL0     C24382   9.214   1.941   5.094 -1.0038  0.7852 -0.1407
  922MOL0     O24383   9.360   1.649   5.132 -0.0223 -0.1863 -0.8379
  922MOL0     C24384   9.487   1.779   5.432 -0.5535 -0.3434 -0.3084
  922MOL0     C24385   9.587   1.768   5.521 -0.6020  0.3958  0.6312
  922MOL0     N24386  10.235   1.455   5.446 -0.8395  0.3204  0.1146
  922MOL0     N24387  10.354   1.457   5.398  0.2383 -1.2244  0.3241
  922MOL0     C24388  10.852   1.625   4.486 -0.6384 -0.1604  0.5426
  922MOL0     C24389  10.981   1.616   4.533  0.1382 -0.2340 -0.5746
  922MOL0     C24390  11.394   1.377   4.623  0.9236  0.1154  0.4047
  922MOL0     C24391  11.484   1.278   4.604 -0.6034 -0.4421 -0.0905
  922MOL0     C24392  11.619   1.294   4.646  0.3358  0.5626 -0.6239
  922MOL0     C24393  11.671   1.405   4.710  0.3048  0.2470 -0.1006
  922MOL0     O24394  11.803   1.412   4.745 -0.1893  0.2398 -0.0918
  922MOL0     C24395  11.839   1.498   4.852  0.0528  0.7857 -0.5447
  922MOL0     C24396  11.960   1.440   4.944 -0.6141  1.0040  0.7293
  922MOL0     C24397  11.935   1.290   5.002  0.3441  0.5459 -0.1093
  922MOL0     C24398  12.068   1.240   5.065  0.5379 -0.3873  0.1324
  922MOL0     C24399  12.161   1.185   4.955 -0.2869  0.0308 -0.1465
  922MOL0     C24400  12.245   1.143   4.878 -0.1272 -0.2685 -0.0557
  922MOL0     C24401  11.576   1.508   4.743 -0.3828  0.1891  0.2280
  922MOL0     C24402  11.443   1.493   4.696 -0.3173  0.5315 -0.9245
  922MOL0     H24403  10.997   1.285   4.564 -0.8442  0.8034  1.1069
  922MOL0     H24404  10.766   1.310   4.489  1.3884  0.5578 -1.4758
  922MOL0     H24405  10.610   1.743   4.436  0.4215 -0.1073 -0.5580
  922MOL0     H24406  10.470   1.625   4.378 -0.3712  0.5903 -0.0230
  922MOL0     H24407  10.421   1.752   4.584 -1.3943 -1.2500  0.0719
  922MOL0     H24408  10.423   1.579   4.616  0.2816  0.3425  0.4381
  922MOL0     H24409  10.618   1.594   4.752 -2.6649 -0.1310  2.6691
  922MOL0     H24410  10.665   1.748   4.675  1.2479 -3.5683 -2.3647
  922MOL0     H24411  10.577   1.798   4.892 -0.2313  0.7978  0.2873
  922MOL0     H24412  10.448   1.843   4.783 -2.3515 -0.2439  1.4655
  922MOL0     H24413  10.315   1.733   4.932  2.0153  1.9368  0.5903
  922MOL0     H24414  10.342   1.603   4.829 -0.2971  1.9855 -2.5361
  922MOL0     H24415  10.376   1.513   5.046  1.6062 -0.5547  0.4280
  922MOL0     H24416  10.540   1.551   4.986 -1.7061 -2.7844 -2.1481
  922MOL0     H24417  10.558   1.753   5.115  0.3616 -0.6194 -2.5221
  922MOL0     H24418  10.390   1.760   5.139  2.0846  1.8248  0.3847
  922MOL0     H24419  10.551   1.676   5.330  1.3673  0.3917 -1.4127
  922MOL0     H24420  10.546   1.519   5.234 -0.9076 -0.8950  0.5964
  922MOL0     H24421  10.239   1.760   5.322 -1.1001  0.1937 -1.3796
  922MOL0     H24422   9.976   1.627   5.404 -0.4698  1.1178  0.0029
  922MOL0     H24423  10.010   1.535   5.547 -3.1122  0.1687 -1.8539
  922MOL0     H24424  10.112   1.820   5.494 -1.5726 -1.8744 -3.0094
  922MOL0     H24425  10.128   1.724   5.646  1.7668  0.8875 -1.2920
  922MOL0     H24426   9.871   1.824   5.496  2.6761  6.5739 -0.4730
  922MOL0     H24427   9.950   1.905   5.624  0.2354  0.7183 -2.0576
  922MOL0     H24428   9.759   1.804   5.728 -1.5090 -2.4092  4.5794
  922MOL0     H24429   9.891   1.685   5.769 -1.4681  1.4019  2.1902
  922MOL0     H24430   9.700   1.464   5.442  0.4215 -0.1162 -1.3161
  922MOL0     H24431   9.533   1.472   5.167  3.3709 -2.8289 -0.2653
  922MOL0     H24432   9.603   1.366   5.289  2.0916  2.9549  3.2838
  922MOL0     H24433   9.422   1.386   5.281  0.4833 -1.1532  3.7100
  922MOL0     H24434   9.051   1.663   5.188 -1.2085 -0.4640 -0.2838
  922MOL0     H24435   8.933   1.723   4.968 -0.9241  0.4378  2.7686
  922MOL0     H24436   9.028   2.100   4.755 -0.1751 -1.3437  1.5678
  922MOL0     H24437   9.161   2.004   4.702  0.3852  3.2680 -1.1597
  922MOL0     H24438   8.885   2.033   4.570  0.6435  1.4751  3.0130
  922MOL0     H24439   9.035   2.086   4.512 -0.3641  0.5082  0.0126
  922MOL0     H24440   9.060   1.801   4.559 -0.8337 -2.1227 -1.2513
  922MOL0     H24441   9.082   1.893   4.414 -2.5124  0.7812 -1.8295
  922MOL0     H24442   8.818   1.761   4.511  1.8329  0.9453  1.8535
  922MOL0     H24443   8.827   1.887   4.384  1.1219  1.6282  1.1460
  922MOL0     H24444   9.022   1.726   4.280  1.2423 -2.2028  0.5438
  922MOL0     H24445   8.853   1.677   4.268 -1.2648 -2.4519  1.9993
  922MOL0     H24446   9.057   1.603   4.467 -0.5082 -0.4238  0.2586
  922MOL0     H24447   8.905   1.533   4.459  0.7103 -0.1253  0.2803
  922MOL0     H24448   9.084   1.388   4.386 -3.0673  0.3043  2.0044
  922MOL0     H24449   9.153   1.488   4.267  0.6390 -1.2167  1.7178
  922MOL0     H24450   8.935   1.473   4.126  1.3411 -1.6131 -0.9537
  922MOL0     H24451   8.874   1.363   4.239  0.8044 -1.5756  1.8542
  922MOL0     H24452   9.188   2.062   4.926 -0.2282 -2.1280 -3.4880
  922MOL0     H24453   9.297   2.003   5.126  0.5998 -2.1591  1.7419
  922MOL0     H24454   9.429   1.871   5.433  0.6965  0.5442 -2.3846
  922MOL0     H24455   9.599   1.851   5.589  0.1045  1.7257 -1.0283
  922MOL0     H24456  10.808   1.723   4.471  1.8049  0.7478 -1.1550
  922MOL0     H24457  11.036   1.708   4.520  0.0499 -0.3843 -2.3339
  922MOL0     H24458  11.455   1.182   4.561 -0.5240 -0.9932  1.0589
  922MOL0     H24459  11.685   1.207   4.651 -0.0208  0.2508 -1.2842
  922MOL0     H24460  11.862   1.599   4.817 -0.5717  0.9329 -0.5365
  922MOL0     H24461  11.752   1.517   4.916  0.2043  0.0036 -0.0841
  922MOL0     H24462  11.984   1.510   5.024  0.3271 -0.6028  1.8964
  922MOL0     H24463  12.043   1.427   4.874  0.3636  0.4909  1.9537
  922MOL0     H24464  11.908   1.227   4.916 -1.0870  2.1255 -0.8750
  922MOL0     H24465  11.859   1.293   5.080 -1.8954 -0.2553 -2.1487
  922MOL0     H24466  12.045   1.150   5.123  2.9095 -0.4391  1.1101
  922MOL0     H24467  12.099   1.313   5.141 -1.1337  0.4981  0.0004
  922MOL0     H24468  12.330   1.113   4.821  1.0575  2.4426  0.1282
  922MOL0     H24469  11.594   1.604   4.790 -3.0128  0.3128  1.1542
  922MOL0     H24470  11.379   1.574   4.731 -1.1390 -1.0579  1.5743
  923MOL0     O24471   1.730   9.064   0.774  0.1632 -0.2081  0.2751
  923MOL0     C24472   1.684   9.128   0.671  0.2126  0.5411 -0.6290
  923MOL0     O24473   1.548   9.124   0.619 -0.1570  0.2160 -0.6522
  923MOL0     C24474   1.438   9.071   0.690  0.2902  0.6009  0.6606
  923MOL0     C24475   1.337   9.011   0.620  0.2209 -1.0228  0.5798
  923MOL0     C24476   1.217   8.962   0.680 -0.9936  0.7109 -0.2394
  923MOL0     C24477   1.206   8.969   0.821 -0.5897  0.5514 -0.1244
  923MOL0     O24478   1.104   8.899   0.879 -0.2554 -0.5676 -0.1199
  923MOL0     C24479   1.111   8.832   1.013 -0.3526 -0.6702  0.3482
  923MOL0     C24480   1.149   8.689   0.995 -1.0649 -0.0180 -0.2140
  923MOL0     C24481   1.300   8.673   0.964 -0.0141 -0.1780 -0.5489
  923MOL0     C24482   1.334   8.527   0.992 -1.3286 -0.1377 -0.1198
  923MOL0     C24483   1.473   8.499   0.943 -0.3260 -0.5601 -0.5545
  923MOL0     C24484   1.530   8.357   0.970  0.5551 -0.6477  0.7601
  923MOL0     C24485   1.491   8.249   0.859  0.3422  0.1384  0.4562
  923MOL0     C24486   1.593   8.141   0.865  0.3968  1.2427  0.3170
  923MOL0     N24487   1.561   8.046   0.761 -0.5375  0.0338  0.7347
  923MOL0     C24488   1.459   7.955   0.754  0.2449  0.5355  0.2712
  923MOL0     C24489   1.491   7.864   0.664  0.9397  0.8475  0.6315
  923MOL0     C24490   1.411   7.743   0.614 -0.2715  0.1810  0.4275
  923MOL0     C24491   1.437   7.610   0.703  0.6119 -0.3288  0.6120
  923MOL0     C24492   1.378   7.497   0.626 -0.3510 -0.6168 -0.6126
  923MOL0     C24493   1.217   7.511   0.629  1.0652 -0.3535 -0.2530
  923MOL0     O24494   1.177   7.486   0.767  0.2842 -0.1359  0.5538
  923MOL0     C24495   1.147   7.358   0.813  0.9393  0.3291  0.1161
  923MOL0     C24496   1.038   7.349   0.900 -0.3834 -0.1809  0.1363
  923MOL0     C24497   0.982   7.231   0.949 -0.4319  0.4031  0.5297
  923MOL0     C24498   0.849   7.252   1.014 -0.0528 -0.7463  0.3974
  923MOL0     C24499   1.042   7.105   0.909  0.3627 -0.4142  0.2004
  923MOL0     C24500   1.004   6.962   0.959 -0.2533  0.2062 -0.0637
  923MOL0     O24501   1.074   6.854   0.913  0.8888 -0.6852  0.7771
  923MOL0     C24502   1.071   6.726   0.973  0.7685 -1.0219 -0.4027
  923MOL0     C24503   0.953   6.659   1.012 -0.3369 -0.4680  0.3345
  923MOL0     C24504   0.969   6.530   1.062  0.3617  0.4444 -0.3866
  923MOL0     C24505   1.088   6.465   1.071 -0.8908 -0.9580 -0.8628
  923MOL0     O24506   1.102   6.330   1.111  0.4500 -0.2040  0.2129
  923MOL0     C24507   0.987   6.261   1.176 -0.1759 -0.3626 -0.0503
  923MOL0     C24508   1.045   6.133   1.243 -0.8171  0.3809 -0.0445
  923MOL0     C24509   1.086   6.021   1.141 -0.1123 -0.2764  0.2444
  923MOL0     C24510   0.958   5.965   1.086 -1.3375  0.3944  0.3758
  923MOL0     C24511   0.982   5.826   1.018  0.7278  0.6074 -1.1548
  923MOL0     C24512   1.009   5.843   0.875  0.3972 -0.8624 -0.2009
  923MOL0     C24513   1.073   5.721   0.807  0.1268 -0.2038  0.8455
  923MOL0     C24514   0.960   5.649   0.729  0.5215  0.2548  0.6201
  923MOL0    Cl24515   1.035   5.514   0.606  0.0914 -0.2895  0.2150
  923MOL0     C24516   1.206   6.529   1.042 -0.1731 -0.3154 -0.1038
  923MOL0     C24517   1.195   6.656   0.980  0.0145  0.2075  0.3984
  923MOL0     O24518   0.908   6.952   1.035  0.2289  0.2914 -0.3320
  923MOL0     C24519   1.163   7.115   0.829  0.6569  0.4273 -0.5108
  923MOL0     C24520   1.204   7.237   0.777 -0.3257 -0.1321  0.2314
  923MOL0     N24521   1.605   7.915   0.601 -0.0047  0.1562 -0.6443
  923MOL0     N24522   1.648   8.026   0.659 -1.1708  0.1677  0.6647
  923MOL0     C24523   1.319   9.023   0.890 -0.5042 -0.0573 -0.0094
  923MOL0     C24524   1.430   9.071   0.824 -0.8180 -0.2714 -0.3180
  923MOL0     C24525   1.777   9.214   0.603 -0.5183 -0.1826  0.5464
  923MOL0     C24526   1.893   9.266   0.663 -0.7322  0.6194  0.0240
  923MOL0     C24527   1.993   9.320   0.578 -0.8385  0.1199  0.6484
  923MOL0     C24528   1.976   9.358   0.447 -0.0334 -0.0666  1.2258
  923MOL0     O24529   2.066   9.435   0.378 -0.1449 -0.1661 -0.2767
  923MOL0     C24530   2.015   9.546   0.303 -0.1196 -0.4222 -1.0442
  923MOL0     C24531   2.137   9.588   0.229 -0.2828 -1.2229  0.7563
  923MOL0     C24532   2.124   9.713   0.137 -0.2041 -0.1059  0.6875
  923MOL0     C24533   2.157   9.847   0.209 -0.1294  0.1379  0.0914
  923MOL0     C24534   2.301   9.849   0.245 -0.4832  0.9734  0.6253
  923MOL0     C24535   2.417   9.847   0.294  0.3636 -0.1577  0.5111
  923MOL0     C24536   1.848   9.324   0.392  0.7053 -0.0854 -0.3638
  923MOL0     C24537   1.761   9.249   0.468 -0.8345 -0.0452 -0.3008
  923MOL0     H24538   1.345   9.020   0.512  0.1419 -1.9432  0.4902
  923MOL0     H24539   1.140   8.920   0.616 -1.1200  1.3068 -0.4847
  923MOL0     H24540   1.172   8.893   1.080 -0.0366 -0.1183 -0.4199
  923MOL0     H24541   1.011   8.844   1.055 -1.0006 -1.2066 -0.9802
  923MOL0     H24542   1.124   8.633   1.086 -1.9231 -0.0857 -0.4799
  923MOL0     H24543   1.093   8.651   0.909 -2.9204  2.7326 -0.3635
  923MOL0     H24544   1.319   8.696   0.859 -0.4005  1.6721 -0.2521
  923MOL0     H24545   1.358   8.738   1.031 -0.7637  0.6482 -0.6723
  923MOL0     H24546   1.321   8.498   1.097 -2.6829  3.2743  0.7930
  923MOL0     H24547   1.265   8.470   0.930 -1.0272  1.0288 -1.5782
  923MOL0     H24548   1.492   8.534   0.841 -2.5687  0.8281 -0.5708
  923MOL0     H24549   1.539   8.563   1.002  0.8914  0.1958 -2.6471
  923MOL0     H24550   1.638   8.371   0.969  0.2267  2.6690  1.6203
  923MOL0     H24551   1.509   8.337   1.076  2.6345  3.0203  2.0387
  923MOL0     H24552   1.391   8.208   0.875 -0.2293 -0.0575 -2.9688
  923MOL0     H24553   1.482   8.291   0.759 -0.5331  0.9533  0.8581
  923MOL0     H24554   1.599   8.093   0.963 -0.9059 -1.2584 -0.7315
  923MOL0     H24555   1.689   8.183   0.832  0.0574  0.5141 -1.7418
  923MOL0     H24556   1.371   7.964   0.817  0.0361  2.6644 -0.2638
  923MOL0     H24557   1.310   7.785   0.612 -1.1768 -1.9026 -0.2053
  923MOL0     H24558   1.438   7.721   0.511  0.8811 -2.4372  1.2103
  923MOL0     H24559   1.390   7.615   0.802 -0.4463  2.9752  0.0429
  923MOL0     H24560   1.545   7.596   0.721  0.2725 -1.8417  1.6793
  923MOL0     H24561   1.410   7.404   0.675 -0.8073  1.2957  3.7457
  923MOL0     H24562   1.409   7.483   0.522 -1.1650 -3.6734 -0.5359
  923MOL0     H24563   1.165   7.436   0.569 -0.1195  0.1382  0.1207
  923MOL0     H24564   1.183   7.610   0.596  1.0494  0.6587  2.5943
  923MOL0     H24565   1.002   7.449   0.920  2.3695  1.4669 -2.2928
  923MOL0     H24566   0.840   7.188   1.103  2.4591  1.2388  2.2176
  923MOL0     H24567   0.835   7.346   1.068 -2.4065 -0.9381  0.2167
  923MOL0     H24568   0.767   7.244   0.942  0.6488 -1.5162 -0.3436
  923MOL0     H24569   0.856   6.704   0.996  0.2617  0.6938 -0.1699
  923MOL0     H24570   0.879   6.474   1.087  0.1972  0.9708  0.2142
  923MOL0     H24571   0.950   6.324   1.257 -0.2905  1.2651 -1.3236
  923MOL0     H24572   0.908   6.237   1.105 -0.1224 -2.7648  0.6059
  923MOL0     H24573   1.120   6.170   1.314 -2.0119  1.0829  0.8861
  923MOL0     H24574   0.967   6.095   1.309  1.3047 -0.9002  1.8664
  923MOL0     H24575   1.139   5.942   1.194 -0.8833 -2.4966 -2.0972
  923MOL0     H24576   1.155   6.059   1.065 -0.0021 -0.4292  0.2685
  923MOL0     H24577   0.894   5.953   1.174 -0.8146  0.3511  0.7550
  923MOL0     H24578   0.903   6.034   1.021  0.8507  1.8497 -0.0211
  923MOL0     H24579   0.888   5.775   1.041  0.8750  1.6602  2.4175
  923MOL0     H24580   1.062   5.770   1.069 -0.0954 -0.0894 -0.6077
  923MOL0     H24581   0.919   5.869   0.819  1.0829 -3.1434 -2.5992
  923MOL0     H24582   1.074   5.931   0.878 -0.3544 -0.3298  0.8900
  923MOL0     H24583   1.117   5.649   0.877 -1.4073 -1.1024  0.9333
  923MOL0     H24584   1.157   5.752   0.744 -0.1285 -4.7892 -2.2012
  923MOL0     H24585   0.898   5.723   0.677 -0.0040 -1.2003 -0.9044
  923MOL0     H24586   0.890   5.605   0.800  2.9411 -1.0946  2.2832
  923MOL0     H24587   1.300   6.475   1.039  0.2721  0.4634 -0.7241
  923MOL0     H24588   1.286   6.707   0.949 -0.7151  1.0539 -0.4325
  923MOL0     H24589   1.234   7.035   0.808  0.2342 -0.5335  1.5091
  923MOL0     H24590   1.291   7.237   0.712  0.3524 -1.9908  1.0796
  923MOL0     H24591   1.319   9.013   0.998 -1.3722  0.8097  0.0896
  923MOL0     H24592   1.519   9.096   0.880 -0.3636  0.4616 -1.3290
  923MOL0     H24593   1.923   9.252   0.767  2.9800 -2.3255 -1.2116
  923MOL0     H24594   2.090   9.342   0.621 -0.6109 -1.9719  1.3284
  923MOL0     H24595   1.932   9.532   0.233 -0.2580  0.9310 -1.1753
  923MOL0     H24596   1.989   9.624   0.375  1.1608 -1.0231  0.0986
  923MOL0     H24597   2.165   9.511   0.157 -1.8103  0.5026 -1.8843
  923MOL0     H24598   2.227   9.602   0.289  0.3243 -1.8621  0.0017
  923MOL0     H24599   2.027   9.711   0.086  0.6091  0.2427 -0.9163
  923MOL0     H24600   2.198   9.710   0.057 -0.8618  0.0170  0.0682
  923MOL0     H24601   2.096   9.846   0.299  3.0968 -1.8961  2.4642
  923MOL0     H24602   2.129   9.936   0.151  0.3817  1.1029  1.2800
  923MOL0     H24603   2.522   9.848   0.317  0.4005  0.8588  0.3544
  923MOL0     H24604   1.835   9.339   0.286  1.0826 -3.6012 -1.0402
  923MOL0     H24605   1.673   9.215   0.416  0.6195  0.9329 -3.6268
  924MOL0     O24606   4.259   6.816   4.203  0.0411 -0.3507 -0.7896
  924MOL0     C24607   4.148   6.856   4.169  0.2368 -0.0692  0.9984
  924MOL0     O24608   4.122   6.913   4.051 -0.2214  0.1081 -0.0528
  924MOL0     C24609   4.224   6.925   3.959 -0.7313 -0.4242 -0.2802
  924MOL0     C24610   4.333   7.002   3.976  0.3666  0.0903  0.0905
  924MOL0     C24611   4.428   7.016   3.875 -0.3650  0.3618 -0.2150
  924MOL0     C24612   4.409   6.951   3.747  0.1450 -0.7628  0.2923
  924MOL0     O24613   4.502   6.963   3.651 -0.0687  0.2464  0.0192
  924MOL0     C24614   4.558   7.088   3.621  0.2484  1.0097 -0.1331
  924MOL0     C24615   4.597   7.085   3.475  0.6848  0.3090 -0.4630
  924MOL0     C24616   4.632   7.230   3.422  0.1826  0.5907 -0.7282
  924MOL0     C24617   4.501   7.278   3.359 -0.3170 -0.0288 -0.3456
  924MOL0     C24618   4.484   7.425   3.344  0.5284 -0.0356  0.3489
  924MOL0     C24619   4.578   7.496   3.242  0.2308  0.5756  0.0825
  924MOL0     C24620   4.546   7.645   3.241  0.3146 -0.5057  0.1428
  924MOL0     C24621   4.653   7.726   3.163  0.3202  0.5688 -0.7436
  924MOL0     N24622   4.653   7.867   3.204 -0.8072  0.1021 -0.1503
  924MOL0     C24623   4.691   7.915   3.325  0.3260 -0.2339 -0.7076
  924MOL0     C24624   4.664   8.051   3.332 -0.4548  0.3499 -0.5933
  924MOL0     C24625   4.699   8.142   3.447 -0.5364  0.7506  0.0738
  924MOL0     C24626   4.732   8.284   3.409  0.4614  0.2377  0.8469
  924MOL0     C24627   4.625   8.365   3.345  1.3196 -0.3164 -0.1675
  924MOL0     C24628   4.481   8.358   3.403  0.3093  0.1506  0.5438
  924MOL0     O24629   4.396   8.458   3.338  0.4189 -0.4539  0.1482
  924MOL0     C24630   4.266   8.411   3.313  0.1136  0.8996  0.9100
  924MOL0     C24631   4.223   8.411   3.177 -0.3255  0.3016  0.8366
  924MOL0     C24632   4.092   8.373   3.147 -0.0005  0.2776  0.1509
  924MOL0     C24633   4.053   8.385   2.996  0.6736 -0.0477  0.6655
  924MOL0     C24634   4.004   8.343   3.253  0.4715 -0.0414  0.3780
  924MOL0     C24635   3.858   8.317   3.243  0.1773 -0.0183 -0.9208
  924MOL0     O24636   3.777   8.365   3.350 -0.6887 -0.5720 -1.1286
  924MOL0     C24637   3.640   8.366   3.325  0.0310 -0.1358  0.0787
  924MOL0     C24638   3.582   8.458   3.235  0.3959  0.3906  0.2790
  924MOL0     C24639   3.444   8.447   3.205 -0.9120 -0.0279  0.0718
  924MOL0     C24640   3.362   8.350   3.265  0.1718  0.0183  0.2385
  924MOL0     O24641   3.227   8.348   3.234  0.6654  0.6765 -0.4549
  924MOL0     C24642   3.171   8.436   3.137  0.2233 -0.4250 -0.9290
  924MOL0     C24643   3.032   8.390   3.101  0.1880  0.1978 -0.3788
  924MOL0     C24644   2.962   8.465   2.983  0.1655  0.6259  0.1616
  924MOL0     C24645   2.824   8.403   2.954  0.2598  0.4731 -0.5204
  924MOL0     C24646   2.728   8.501   2.901 -1.2448 -0.9086 -0.2030
  924MOL0     C24647   2.589   8.454   2.865  0.3679 -0.7928 -0.7252
  924MOL0     C24648   2.502   8.425   2.992 -0.1241  0.1460  0.5145
  924MOL0     C24649   2.356   8.415   2.940 -0.7331  0.0633  0.0376
  924MOL0    Cl24650   2.250   8.366   3.078  0.0691  0.0801  0.3252
  924MOL0     C24651   3.416   8.265   3.360 -0.1536 -0.2937  0.6479
  924MOL0     C24652   3.555   8.275   3.388 -0.5471  0.7501  0.1245
  924MOL0     O24653   3.812   8.263   3.143  0.3254  0.6222  0.1124
  924MOL0     C24654   4.058   8.347   3.386 -0.4848 -0.3281 -0.0003
  924MOL0     C24655   4.181   8.383   3.416 -0.5688  0.6071 -0.4195
  924MOL0     N24656   4.617   8.078   3.207  0.5125 -0.1702  0.1373
  924MOL0     N24657   4.601   7.971   3.136 -0.3772 -0.4428  0.3018
  924MOL0     C24658   4.297   6.878   3.735  1.0256 -0.2724  0.5622
  924MOL0     C24659   4.204   6.860   3.834  0.1193  0.1831 -0.0672
  924MOL0     C24660   4.032   6.828   4.261  0.0113 -0.4809 -0.5675
  924MOL0     C24661   3.904   6.884   4.251  0.1913  0.5228 -0.3956
  924MOL0     C24662   3.800   6.861   4.348 -0.5744 -0.7556 -0.1538
  924MOL0     C24663   3.828   6.755   4.449 -1.0049  0.4102 -1.4031
  924MOL0     O24664   3.737   6.705   4.536  1.0163  0.1706  0.4150
  924MOL0     C24665   3.606   6.651   4.490  0.0283 -0.0448  1.0832
  924MOL0     C24666   3.632   6.521   4.413 -0.0955 -0.1063 -0.4173
  924MOL0     C24667   3.705   6.549   4.274 -0.4027  0.8045 -0.0869
  924MOL0     C24668   3.680   6.434   4.165  0.8338 -1.1886 -0.4382
  924MOL0     C24669   3.703   6.305   4.232 -0.6907  0.0269  0.0044
  924MOL0     C24670   3.734   6.193   4.264  0.9989 -1.0761 -0.0273
  924MOL0     C24671   3.950   6.692   4.451  0.7133  0.3145 -0.1525
  924MOL0     C24672   4.047   6.731   4.362 -0.3829  0.5152  0.0657
  924MOL0     H24673   4.369   7.030   4.075  0.8766 -3.6409  1.1480
  924MOL0     H24674   4.520   7.073   3.885  0.0223 -0.3032  0.0120
  924MOL0     H24675   4.480   7.165   3.623  0.9384  1.7148  0.6041
  924MOL0     H24676   4.646   7.107   3.684 -0.5091  0.5905  1.0825
  924MOL0     H24677   4.689   7.028   3.461  0.0090 -1.2421  1.0577
  924MOL0     H24678   4.525   7.028   3.415 -0.3404  0.6369  0.4352
  924MOL0     H24679   4.670   7.299   3.498  1.5352  2.1445 -2.7050
  924MOL0     H24680   4.707   7.232   3.343  1.3514  1.0254  0.3683
  924MOL0     H24681   4.476   7.225   3.267 -1.3732 -0.1670  0.0100
  924MOL0     H24682   4.418   7.245   3.422 -0.5144  1.3622  0.1636
  924MOL0     H24683   4.380   7.447   3.319  0.9040  0.5272 -0.7941
  924MOL0     H24684   4.505   7.470   3.441 -1.1292 -0.1174  0.7659
  924MOL0     H24685   4.683   7.486   3.271  0.4526 -0.8412 -1.0985
  924MOL0     H24686   4.557   7.442   3.149 -0.5282 -1.3685  1.3271
  924MOL0     H24687   4.449   7.645   3.189  1.3405 -1.2240 -1.8631
  924MOL0     H24688   4.533   7.692   3.339  1.9017  0.7058 -0.1923
  924MOL0     H24689   4.649   7.711   3.055  1.4950 -0.1016 -0.7112
  924MOL0     H24690   4.749   7.683   3.191  0.0394  0.4570  0.0799
  924MOL0     H24691   4.732   7.843   3.396 -3.5887 -1.3910  0.6296
  924MOL0     H24692   4.613   8.151   3.514 -0.8698  1.8020 -0.4658
  924MOL0     H24693   4.784   8.096   3.499 -0.8420  1.1990  0.9871
  924MOL0     H24694   4.821   8.300   3.348 -0.5078  4.7753  0.2618
  924MOL0     H24695   4.750   8.336   3.504  1.8052 -2.3763  2.1244
  924MOL0     H24696   4.621   8.336   3.239  1.6403  1.3980 -0.6901
  924MOL0     H24697   4.658   8.470   3.347 -0.4943  0.3161 -1.3387
  924MOL0     H24698   4.481   8.370   3.511  2.3982 -0.2534  0.6272
  924MOL0     H24699   4.446   8.255   3.387 -0.0606  0.1466  1.3670
  924MOL0     H24700   4.283   8.444   3.093 -0.0519 -1.5271  0.2814
  924MOL0     H24701   4.039   8.284   2.956 -2.5230  0.4844  0.2167
  924MOL0     H24702   3.963   8.443   2.975  0.8087 -0.2927 -0.7003
  924MOL0     H24703   4.134   8.426   2.934 -1.1906  1.6018 -0.7984
  924MOL0     H24704   3.636   8.540   3.189 -0.4420  0.0717 -1.3509
  924MOL0     H24705   3.407   8.518   3.132 -0.6605 -0.4576 -0.4797
  924MOL0     H24706   3.178   8.540   3.170  1.2335 -1.1468  1.2761
  924MOL0     H24707   3.232   8.420   3.047 -2.3258 -1.4795 -2.5647
  924MOL0     H24708   3.016   8.282   3.101  0.7325  0.1179 -0.6121
  924MOL0     H24709   2.966   8.411   3.186 -0.1026  1.5659 -0.9185
  924MOL0     H24710   3.025   8.466   2.894 -0.1951 -0.7277 -0.1247
  924MOL0     H24711   2.937   8.569   3.009  0.8089  0.8576 -0.1273
  924MOL0     H24712   2.837   8.330   2.873 -1.9009  2.7776 -3.1416
  924MOL0     H24713   2.780   8.342   3.034 -0.3194 -1.2560 -2.0834
  924MOL0     H24714   2.771   8.525   2.804 -1.0505  0.8989  0.3007
  924MOL0     H24715   2.716   8.590   2.963 -2.4086 -1.2026  0.0166
  924MOL0     H24716   2.547   8.518   2.786  0.3619  0.2588  0.0975
  924MOL0     H24717   2.598   8.357   2.816  0.4839 -1.5806  0.7696
  924MOL0     H24718   2.524   8.507   3.062  0.1112  2.5514 -2.1853
  924MOL0     H24719   2.521   8.325   3.030  1.4401 -0.3320 -1.3775
  924MOL0     H24720   2.350   8.335   2.866  0.2941  0.4454 -0.4831
  924MOL0     H24721   2.316   8.510   2.902  0.2984  0.1862 -0.7807
  924MOL0     H24722   3.347   8.197   3.409 -0.5869 -1.3174 -1.2843
  924MOL0     H24723   3.591   8.206   3.464 -0.4235 -1.1139 -1.5427
  924MOL0     H24724   3.993   8.326   3.471 -1.0536  1.7807  0.1360
  924MOL0     H24725   4.215   8.388   3.519  0.8392  1.1457 -0.8955
  924MOL0     H24726   4.283   6.836   3.636  2.0458  2.1467 -0.6845
  924MOL0     H24727   4.114   6.800   3.826 -0.6622  1.4465 -1.1697
  924MOL0     H24728   3.876   6.960   4.177 -4.3164  1.0553  1.5090
  924MOL0     H24729   3.707   6.916   4.340 -1.4197 -2.2356 -1.0153
  924MOL0     H24730   3.553   6.629   4.584 -1.0588 -0.4279  0.3949
  924MOL0     H24731   3.549   6.725   4.435 -3.4384 -3.8174 -0.9248
  924MOL0     H24732   3.539   6.469   4.387 -0.6369  0.6902 -0.1276
  924MOL0     H24733   3.698   6.456   4.471  0.7603  1.3730  0.3290
  924MOL0     H24734   3.814   6.548   4.279 -0.3007  1.9916 -1.5028
  924MOL0     H24735   3.680   6.651   4.245 -1.8911  1.3925  2.9079
  924MOL0     H24736   3.754   6.455   4.087 -1.1240  2.7074 -1.4913
  924MOL0     H24737   3.580   6.434   4.122  0.4169  2.6729  0.1488
  924MOL0     H24738   3.749   6.090   4.289 -1.8585 -1.3355  0.9635
  924MOL0     H24739   3.961   6.595   4.499 -3.6519 -0.6016 -0.5692
  924MOL0     H24740   4.140   6.676   4.357 -0.5822  0.2639 -1.0464
  925MOL0     O24741   3.633   9.279   5.322 -0.1285 -0.1343  0.4070
  925MOL0     C24742   3.632   9.296   5.443  0.3432 -0.2598 -0.0591
  925MOL0     O24743   3.522   9.270   5.526  0.6418 -0.8354 -0.3511
  925MOL0     C24744   3.409   9.219   5.474  0.4077  1.1766 -0.1303
  925MOL0     C24745   3.291   9.268   5.546 -0.2610 -0.2250 -0.0781
  925MOL0     C24746   3.166   9.221   5.509  1.1203  0.0208 -0.0252
  925MOL0     C24747   3.143   9.142   5.398 -0.2563  0.1100  0.2353
  925MOL0     O24748   3.012   9.096   5.375  0.6567 -0.3617  0.2254
  925MOL0     C24749   3.006   8.976   5.290 -0.2791  0.4986  0.2226
  925MOL0     C24750   2.863   8.912   5.308  0.1244  0.5514  0.2024
  925MOL0     C24751   2.845   8.832   5.432 -0.4450 -0.0785 -0.3756
  925MOL0     C24752   2.698   8.814   5.480 -0.0269  1.0302  0.1589
  925MOL0     C24753   2.636   8.716   5.389  0.3017  0.2366 -0.1131
  925MOL0     C24754   2.488   8.744   5.378 -0.1247 -1.2613  0.1589
  925MOL0     C24755   2.414   8.632   5.289 -0.4420 -0.7121  0.6275
  925MOL0     C24756   2.380   8.501   5.347 -0.5082  0.0709  0.0725
  925MOL0     N24757   2.366   8.405   5.242  0.4270 -0.0957 -0.3648
  925MOL0     C24758   2.471   8.353   5.167 -1.2215 -0.1640  0.1326
  925MOL0     C24759   2.426   8.231   5.109  0.0391 -0.6172  0.3446
  925MOL0     C24760   2.494   8.131   5.020  0.6067  0.3719 -0.2068
  925MOL0     C24761   2.647   8.156   4.993  0.0363 -0.0763 -0.4292
  925MOL0     C24762   2.732   8.099   5.111  0.3738 -0.8194 -0.4636
  925MOL0     C24763   2.865   8.172   5.120  0.5426  0.7753  0.4655
  925MOL0     O24764   2.946   8.123   5.223  0.5635 -0.0867  0.9761
  925MOL0     C24765   3.085   8.132   5.217  0.5025 -0.3679  0.4877
  925MOL0     C24766   3.158   8.038   5.295  0.6619 -0.6442 -1.1595
  925MOL0     C24767   3.294   8.044   5.297 -0.7758 -0.5607  0.3308
  925MOL0     C24768   3.363   7.946   5.389  0.0681 -0.2320 -0.1896
  925MOL0     C24769   3.372   8.136   5.215  0.7640  0.2150 -0.4194
  925MOL0     C24770   3.518   8.145   5.206  0.3267 -0.8782  0.0009
  925MOL0     O24771   3.569   8.275   5.189  0.3003 -0.8771 -0.3412
  925MOL0     C24772   3.705   8.276   5.196 -0.4492 -0.7292 -0.1668
  925MOL0     C24773   3.779   8.322   5.308  0.1789 -0.7283  0.5896
  925MOL0     C24774   3.911   8.319   5.298 -0.6480  0.4908  0.3675
  925MOL0     C24775   3.983   8.278   5.191 -0.9121  0.1735 -0.1666
  925MOL0     O24776   4.119   8.270   5.214 -0.6192  0.5462  0.5103
  925MOL0     C24777   4.198   8.204   5.112 -0.3347 -0.4285  1.2178
  925MOL0     C24778   4.338   8.194   5.163 -0.5247 -0.9541  0.1110
  925MOL0     C24779   4.408   8.328   5.175 -0.2461 -0.0660  0.6238
  925MOL0     C24780   4.552   8.309   5.236  0.3621  0.8438  0.5663
  925MOL0     C24781   4.657   8.276   5.131  0.7258  0.8112  0.4430
  925MOL0     C24782   4.774   8.195   5.178 -0.2981  0.2502 -0.1109
  925MOL0     C24783   4.860   8.280   5.279 -0.5307  0.5724  0.6287
  925MOL0     C24784   4.995   8.235   5.316  0.4062 -0.2467 -0.2968
  925MOL0    Cl24785   5.103   8.282   5.185 -0.1820  0.2429 -0.6842
  925MOL0     C24786   3.906   8.229   5.085  0.4065 -0.6868 -0.7220
  925MOL0     C24787   3.769   8.230   5.081 -0.5750  1.0694 -0.0506
  925MOL0     O24788   3.587   8.042   5.226  0.2820 -1.0641 -0.7057
  925MOL0     C24789   3.295   8.215   5.129  1.5760  0.8749 -0.3032
  925MOL0     C24790   3.157   8.215   5.129  0.0535  0.1623 -0.3069
  925MOL0     N24791   2.291   8.233   5.138  0.5024  0.0025 -0.6847
  925MOL0     N24792   2.255   8.333   5.215  0.0779  0.5015  0.3209
  925MOL0     C24793   3.257   9.090   5.331  0.2039 -0.3250  0.4862
  925MOL0     C24794   3.386   9.123   5.374  0.3717 -0.6429 -0.7066
  925MOL0     C24795   3.752   9.346   5.505 -0.4176 -1.0357  0.1041
  925MOL0     C24796   3.758   9.394   5.635  0.4158 -0.2543 -0.5682
  925MOL0     C24797   3.877   9.430   5.694 -0.8397  0.1113 -0.6296
  925MOL0     C24798   4.002   9.428   5.632  0.0979  0.3925 -0.3785
  925MOL0     O24799   4.121   9.451   5.690  0.2455  0.4300 -0.7948
  925MOL0     C24800   4.125   9.495   5.829  0.4363 -0.1540 -0.3152
  925MOL0     C24801   4.249   9.582   5.867 -0.0211 -0.9106  0.3296
  925MOL0     C24802   4.249   9.715   5.792 -0.4192 -0.8566 -0.1272
  925MOL0     C24803   4.345   9.820   5.853  0.4054 -0.4830  0.6925
  925MOL0     C24804   4.338   9.945   5.766  0.4210 -0.2282  0.0945
  925MOL0     C24805   4.325  10.051   5.704 -0.6763 -0.1790 -0.2440
  925MOL0     C24806   3.997   9.387   5.501 -0.4139 -0.2085 -0.9774
  925MOL0     C24807   3.883   9.347   5.431  0.4712  0.7482 -0.9180
  925MOL0     H24808   3.316   9.321   5.638  0.3850  1.1651 -1.0206
  925MOL0     H24809   3.077   9.254   5.561  0.7371 -0.7534 -0.1630
  925MOL0     H24810   3.028   8.996   5.185  0.7915 -1.0545  0.1106
  925MOL0     H24811   3.078   8.899   5.320 -2.4767 -0.3104  4.1983
  925MOL0     H24812   2.777   8.979   5.307 -0.4265 -0.1293 -1.3028
  925MOL0     H24813   2.848   8.848   5.220  1.8917 -1.0582  0.9874
  925MOL0     H24814   2.889   8.734   5.413  0.4041  0.5336 -1.6888
  925MOL0     H24815   2.901   8.878   5.514 -2.8151 -2.2980  2.7316
  925MOL0     H24816   2.683   8.789   5.585 -0.2756 -2.1645 -0.5229
  925MOL0     H24817   2.639   8.906   5.477 -2.8414 -0.5911  1.6579
  925MOL0     H24818   2.689   8.712   5.293  1.3821  0.1385  0.4747
  925MOL0     H24819   2.647   8.623   5.444 -1.5864 -0.0583 -0.1710
  925MOL0     H24820   2.439   8.752   5.475  0.9458 -0.3499  0.6387
  925MOL0     H24821   2.480   8.841   5.328  2.7483 -1.4386 -0.8224
  925MOL0     H24822   2.316   8.672   5.259 -1.3037 -2.0980  1.4998
  925MOL0     H24823   2.474   8.639   5.198 -1.3552  1.6828  0.1364
  925MOL0     H24824   2.293   8.507   5.413 -1.2912  0.7317 -0.9918
  925MOL0     H24825   2.468   8.478   5.407  0.3707 -0.5780 -1.4151
  925MOL0     H24826   2.569   8.393   5.141 -1.8075  1.4688  0.3169
  925MOL0     H24827   2.483   8.032   5.064 -1.2778 -0.6617 -2.7744
  925MOL0     H24828   2.428   8.139   4.933 -0.4822  0.1635  0.5771
  925MOL0     H24829   2.681   8.256   4.966  0.2453 -0.9858 -3.9134
  925MOL0     H24830   2.666   8.101   4.901  1.0160  0.0793 -0.3366
  925MOL0     H24831   2.751   7.995   5.081 -1.8916 -1.1269 -1.0627
  925MOL0     H24832   2.681   8.096   5.208  0.6194  0.2472 -0.2987
  925MOL0     H24833   2.848   8.279   5.136 -0.2879  0.6943  0.1881
  925MOL0     H24834   2.920   8.162   5.026  0.5096 -2.3159  0.6789
  925MOL0     H24835   3.101   7.973   5.360 -1.5494  3.2380  1.2069
  925MOL0     H24836   3.285   7.915   5.460 -0.3036 -0.1481 -0.5528
  925MOL0     H24837   3.414   7.865   5.336  1.5113  0.2899  0.3726
  925MOL0     H24838   3.439   8.005   5.440 -0.6366  0.4325  0.1235
  925MOL0     H24839   3.727   8.351   5.399  0.1806  0.2427  0.2870
  925MOL0     H24840   3.968   8.360   5.381  1.5151  0.7820 -1.1805
  925MOL0     H24841   4.160   8.102   5.105  0.6572 -0.7390 -0.1886
  925MOL0     H24842   4.191   8.257   5.016 -0.2759 -2.8498 -0.1889
  925MOL0     H24843   4.344   8.145   5.261  0.8584  1.8769  1.5846
  925MOL0     H24844   4.391   8.130   5.092  2.3003  1.8967 -0.5948
  925MOL0     H24845   4.343   8.385   5.241  1.0875  1.5909  0.5576
  925MOL0     H24846   4.411   8.369   5.074 -2.6313 -3.1164 -0.8590
  925MOL0     H24847   4.577   8.404   5.284 -0.7137  0.1037  2.7099
  925MOL0     H24848   4.552   8.231   5.313  0.1512 -0.0242 -0.3076
  925MOL0     H24849   4.703   8.370   5.101  2.3027 -0.1597 -0.2817
  925MOL0     H24850   4.614   8.221   5.047  0.3142  1.7480  0.0216
  925MOL0     H24851   4.740   8.099   5.219 -0.2225 -0.9616 -2.7051
  925MOL0     H24852   4.836   8.170   5.092 -0.0669  1.2476 -0.2464
  925MOL0     H24853   4.799   8.291   5.369  0.9935  1.8264  1.5700
  925MOL0     H24854   4.872   8.385   5.250 -4.7956  1.0652  0.0712
  925MOL0     H24855   4.984   8.132   5.349  0.1859 -0.8319 -2.0826
  925MOL0     H24856   5.039   8.288   5.401  0.2401 -0.9027  0.2049
  925MOL0     H24857   3.957   8.180   5.003  0.3950 -2.0873  0.0702
  925MOL0     H24858   3.719   8.191   4.993  1.8506 -0.3731 -0.9040
  925MOL0     H24859   3.339   8.273   5.049  1.0300 -2.1317 -3.0111
  925MOL0     H24860   3.116   8.289   5.061 -1.0847  1.1209  1.3640
  925MOL0     H24861   3.248   9.026   5.243  1.5291  1.7758 -1.2713
  925MOL0     H24862   3.467   9.078   5.317 -1.7279 -2.2428 -2.6181
  925MOL0     H24863   3.667   9.409   5.693 -1.5564 -0.7943 -3.3326
  925MOL0     H24864   3.879   9.466   5.797  0.2697  5.4112 -2.1778
  925MOL0     H24865   4.044   9.567   5.845  0.5116  0.5982 -2.9534
  925MOL0     H24866   4.107   9.408   5.893  1.3722  1.5837  2.4811
  925MOL0     H24867   4.337   9.522   5.842 -0.6990 -0.8196 -2.6341
  925MOL0     H24868   4.264   9.602   5.974  4.0097  1.3539 -0.4283
  925MOL0     H24869   4.147   9.753   5.789  0.3621  1.3166 -1.6888
  925MOL0     H24870   4.275   9.686   5.689 -1.5383 -4.5359  0.4685
  925MOL0     H24871   4.445   9.775   5.848  0.6046 -0.0012 -3.4412
  925MOL0     H24872   4.311   9.849   5.952  1.1650 -0.8844  1.0827
  925MOL0     H24873   4.313  10.128   5.630  4.4816  0.9653 -0.2345
  925MOL0     H24874   4.096   9.389   5.455  0.1717 -4.8360 -0.3290
  925MOL0     H24875   3.911   9.300   5.337  1.4319  1.7793 -1.1628
  926MOL0     O24876   5.295   8.113   6.111  0.1309 -0.3482 -0.1397
  926MOL0     C24877   5.383   8.115   6.016 -0.3583  0.8419 -0.6039
  926MOL0     O24878   5.370   8.172   5.900 -0.2300  0.3356  0.7736
  926MOL0     C24879   5.244   8.204   5.862  0.1035  0.1781  0.9353
  926MOL0     C24880   5.185   8.323   5.905  0.0866 -0.2573  0.4436
  926MOL0     C24881   5.066   8.367   5.848  0.0063  0.3634  0.9144
  926MOL0     C24882   5.001   8.301   5.743 -0.3045 -0.9073 -0.5175
  926MOL0     O24883   4.892   8.355   5.678  0.5043  0.2875 -0.6666
  926MOL0     C24884   4.861   8.497   5.679 -0.4991 -1.4908 -0.8154
  926MOL0     C24885   4.754   8.548   5.593 -0.4724  0.2715 -0.3558
  926MOL0     C24886   4.622   8.464   5.616 -0.0861 -0.3981  0.1725
  926MOL0     C24887   4.486   8.531   5.584  0.0869  0.7449  0.5000
  926MOL0     C24888   4.365   8.447   5.598 -0.3395  0.9527  0.3732
  926MOL0     C24889   4.383   8.350   5.729 -0.1861 -0.1667 -0.7370
  926MOL0     C24890   4.254   8.270   5.757  0.0938  1.1367  0.4611
  926MOL0     C24891   4.244   8.152   5.663  0.3810 -0.0664 -0.2078
  926MOL0     N24892   4.119   8.082   5.681 -0.2394  0.4624  0.0698
  926MOL0     C24893   4.021   8.075   5.586  0.9663  0.2084 -0.6593
  926MOL0     C24894   3.922   8.007   5.640  0.6276 -0.5844 -0.1975
  926MOL0     C24895   3.794   7.990   5.555  0.3160 -0.0639 -1.2675
  926MOL0     C24896   3.770   7.833   5.508 -0.1529 -0.7147  0.1740
  926MOL0     C24897   3.742   7.736   5.624 -0.1667 -1.5784 -0.2522
  926MOL0     C24898   3.679   7.603   5.578  0.0562  0.5790 -0.7851
  926MOL0     O24899   3.551   7.636   5.520 -0.5967 -0.2780 -1.3606
  926MOL0     C24900   3.460   7.538   5.501 -0.7328 -0.5832 -0.1698
  926MOL0     C24901   3.327   7.584   5.461 -0.4740  0.2610  0.1484
  926MOL0     C24902   3.217   7.497   5.453 -0.0572  0.1942  0.1359
  926MOL0     C24903   3.082   7.573   5.448 -0.2812 -0.4322  0.5008
  926MOL0     C24904   3.233   7.363   5.473 -1.2235  0.5417 -0.1058
  926MOL0     C24905   3.124   7.253   5.452  0.1192  0.4560  0.6858
  926MOL0     O24906   3.019   7.291   5.379  0.3938 -0.2408  0.4155
  926MOL0     C24907   2.910   7.215   5.345  0.0548 -0.2275 -0.1995
  926MOL0     C24908   2.851   7.119   5.426  0.0629  0.3560  0.0798
  926MOL0     C24909   2.751   7.031   5.368  0.1148 -1.3615  0.3137
  926MOL0     C24910   2.710   7.053   5.238 -0.6911 -0.1579 -0.0550
  926MOL0     O24911   2.623   6.977   5.171 -0.2792 -0.1450 -0.2060
  926MOL0     C24912   2.627   6.838   5.202  0.2958 -1.3839  0.3553
  926MOL0     C24913   2.575   6.766   5.078  0.6852  0.4114 -0.2135
  926MOL0     C24914   2.584   6.615   5.087  0.1001  0.0569 -0.4051
  926MOL0     C24915   2.513   6.551   4.968 -0.5004 -0.3051 -0.0135
  926MOL0     C24916   2.359   6.565   4.961 -0.2931 -0.7125 -0.4321
  926MOL0     C24917   2.305   6.497   4.831  0.4728  0.2992 -0.6110
  926MOL0     C24918   2.363   6.568   4.703 -0.6243 -0.2003 -0.7508
  926MOL0     C24919   2.282   6.530   4.593  0.1005  0.0804 -0.1756
  926MOL0    Cl24920   2.306   6.356   4.555 -0.1013  0.1369  0.3807
  926MOL0     C24921   2.753   7.157   5.163 -0.5603 -0.8350  0.4966
  926MOL0     C24922   2.861   7.231   5.215  0.6735  0.2261  0.0023
  926MOL0     O24923   3.145   7.137   5.489 -0.3716 -0.4111  0.2806
  926MOL0     C24924   3.369   7.320   5.493  0.2658 -0.6280 -0.0371
  926MOL0     C24925   3.478   7.404   5.516  0.4175  0.3692  0.3551
  926MOL0     N24926   3.951   7.970   5.766 -0.1286 -0.5030 -0.1325
  926MOL0     N24927   4.073   8.008   5.784  0.2874 -0.3605 -0.7416
  926MOL0     C24928   5.055   8.183   5.696  0.7454  0.2306 -0.5619
  926MOL0     C24929   5.181   8.137   5.756 -1.3618 -0.3955  0.6998
  926MOL0     C24930   5.514   8.042   6.051 -0.0303 -1.0112  0.2657
  926MOL0     C24931   5.615   8.047   5.956 -1.4319 -0.0158 -0.0972
  926MOL0     C24932   5.736   7.992   5.987  0.0186 -0.1359  0.7388
  926MOL0     C24933   5.780   7.958   6.110 -0.7763  0.2810  0.5716
  926MOL0     O24934   5.896   7.904   6.135 -0.0606  0.5674 -0.6488
  926MOL0     C24935   5.993   7.909   6.032 -0.6151 -0.2969 -0.2528
  926MOL0     C24936   6.128   7.855   6.077  0.0364  0.5916  0.1697
  926MOL0     C24937   6.187   7.924   6.202  0.5925  0.5591  0.8483
  926MOL0     C24938   6.317   7.862   6.257  0.3845 -0.3376  0.2617
  926MOL0     C24939   6.409   7.812   6.157  0.7983 -0.2441 -1.0016
  926MOL0     C24940   6.475   7.770   6.063  0.2767  0.5660 -0.5901
  926MOL0     C24941   5.682   7.956   6.205 -0.4381 -0.8536  1.1952
  926MOL0     C24942   5.552   7.997   6.182 -0.1486  0.3085 -0.1954
  926MOL0     H24943   5.236   8.375   5.985  0.1624 -3.5723  2.7553
  926MOL0     H24944   5.036   8.464   5.886 -2.2364  0.0932 -0.0078
  926MOL0     H24945   4.855   8.537   5.781 -3.9654  0.8222 -1.7426
  926MOL0     H24946   4.946   8.554   5.642  0.2763 -2.7873 -1.0980
  926MOL0     H24947   4.738   8.654   5.616  0.6731  0.4194 -0.1845
  926MOL0     H24948   4.777   8.534   5.487 -1.6777  1.1534 -0.7628
  926MOL0     H24949   4.637   8.368   5.566 -1.1503 -0.6980  0.4151
  926MOL0     H24950   4.625   8.439   5.722 -0.4636 -3.6216 -0.4742
  926MOL0     H24951   4.478   8.622   5.644 -1.8315  2.2303 -1.7854
  926MOL0     H24952   4.484   8.564   5.479  0.5594 -1.8283 -0.3857
  926MOL0     H24953   4.281   8.515   5.617  0.2034  1.0771  2.6811
  926MOL0     H24954   4.342   8.390   5.507 -0.2929  2.3261 -0.5255
  926MOL0     H24955   4.460   8.274   5.720  1.4152  0.8290  2.7326
  926MOL0     H24956   4.403   8.404   5.822 -2.3128 -2.5327  1.2650
  926MOL0     H24957   4.244   8.241   5.862  3.7551  2.0577  1.1915
  926MOL0     H24958   4.170   8.339   5.743 -2.1616 -0.9995  2.3871
  926MOL0     H24959   4.325   8.081   5.682  1.1265  1.3103  2.2392
  926MOL0     H24960   4.255   8.185   5.559 -0.9830 -0.0866 -0.3825
  926MOL0     H24961   4.011   8.123   5.489 -0.1569 -1.3992 -1.3857
  926MOL0     H24962   3.708   8.029   5.609 -0.2633  0.8746 -2.7808
  926MOL0     H24963   3.807   8.058   5.469  2.7632  0.9390 -0.2024
  926MOL0     H24964   3.861   7.807   5.452  0.6231  0.6209  0.7561
  926MOL0     H24965   3.686   7.839   5.438 -0.7520 -0.0450  0.9356
  926MOL0     H24966   3.678   7.782   5.701  0.0684 -1.5259 -0.0851
  926MOL0     H24967   3.836   7.714   5.675  1.4429  3.5660 -0.4055
  926MOL0     H24968   3.675   7.543   5.669  1.4063  1.5150 -0.0654
  926MOL0     H24969   3.734   7.540   5.507 -2.6067 -0.1844 -2.2964
  926MOL0     H24970   3.326   7.692   5.447  0.2047  0.0592 -1.7582
  926MOL0     H24971   3.110   7.677   5.466  1.6206 -0.3089 -2.4147
  926MOL0     H24972   3.018   7.564   5.359 -0.9386  0.3300  0.8888
  926MOL0     H24973   3.033   7.535   5.538  3.0289  0.9244  3.0417
  926MOL0     H24974   2.896   7.098   5.522  0.3374  0.9339  0.0815
  926MOL0     H24975   2.696   6.955   5.423 -1.8104 -0.2785 -0.0344
  926MOL0     H24976   2.729   6.801   5.216  0.4043 -1.3122 -0.2117
  926MOL0     H24977   2.571   6.820   5.294  1.1058  3.2346  2.0386
  926MOL0     H24978   2.477   6.807   5.053  1.7489  2.2694 -1.5946
  926MOL0     H24979   2.636   6.796   4.992  1.6020 -1.9148 -0.4583
  926MOL0     H24980   2.527   6.573   5.170  1.4070 -1.8728 -0.4249
  926MOL0     H24981   2.685   6.572   5.093 -0.7119 -1.7218  2.1336
  926MOL0     H24982   2.559   6.596   4.879 -0.4554 -3.5446 -1.7547
  926MOL0     H24983   2.514   6.442   4.976 -0.8797 -0.3715 -0.7889
  926MOL0     H24984   2.330   6.670   4.966 -2.4436 -1.2702 -0.5418
  926MOL0     H24985   2.323   6.507   5.046 -1.4598  0.0601 -0.3883
  926MOL0     H24986   2.342   6.395   4.843 -0.4312  0.2053  1.9683
  926MOL0     H24987   2.196   6.495   4.827  0.1655  0.0277  3.5200
  926MOL0     H24988   2.470   6.550   4.689 -0.0076  1.7190  0.9842
  926MOL0     H24989   2.360   6.677   4.710  0.8456 -0.1457 -0.6405
  926MOL0     H24990   2.302   6.598   4.509  1.4416 -0.8970 -0.6896
  926MOL0     H24991   2.176   6.542   4.618  0.0496 -3.5255  2.0822
  926MOL0     H24992   2.716   7.172   5.062  0.1269 -1.7954  0.0862
  926MOL0     H24993   2.908   7.301   5.146  1.4686 -2.4725 -2.4065
  926MOL0     H24994   3.382   7.213   5.505  1.5589 -0.6939 -1.6863
  926MOL0     H24995   3.574   7.361   5.543  1.2308  1.6167 -0.4437
  926MOL0     H24996   5.000   8.139   5.613  1.7109  0.1025 -1.1599
  926MOL0     H24997   5.245   8.054   5.727 -1.0106  0.6494 -1.7925
  926MOL0     H24998   5.607   8.100   5.862 -0.2949 -0.7951 -0.6521
  926MOL0     H24999   5.812   7.987   5.910 -0.6524 -0.2635  0.0801
  926MOL0     H25000   5.968   7.848   5.945 -1.8298 -0.7159  0.3714
  926MOL0     H25001   6.011   8.015   6.009 -0.1910 -0.4782 -0.7769
  926MOL0     H25002   6.189   7.871   5.988 -1.2201 -3.5121 -1.6815
  926MOL0     H25003   6.114   7.748   6.095  2.0665  0.0780 -1.0308
  926MOL0     H25004   6.113   7.924   6.283 -1.0899 -1.2654 -0.5994
  926MOL0     H25005   6.206   8.029   6.177 -1.7621  0.7651 -0.3445
  926MOL0     H25006   6.286   7.784   6.327 -1.1360  1.1187  1.2701
  926MOL0     H25007   6.380   7.938   6.305  1.4693  0.7117 -2.6068
  926MOL0     H25008   6.535   7.750   5.976  1.3990 -0.3654  0.3563
  926MOL0     H25009   5.712   7.915   6.301 -0.1440 -1.0160  1.0333
  926MOL0     H25010   5.485   7.982   6.267  1.6723  0.9343  1.4131
  927MOL0     O25011   9.359   2.439   5.440  0.2735 -0.9449 -0.0241
  927MOL0     C25012   9.364   2.347   5.354  0.6559  0.2563  0.1068
  927MOL0     O25013   9.424   2.225   5.370 -0.2709 -0.5963 -0.6914
  927MOL0     C25014   9.472   2.183   5.495 -0.2233 -0.5966 -0.0206
  927MOL0     C25015   9.400   2.209   5.611  0.0727  0.1473  0.2457
  927MOL0     C25016   9.474   2.174   5.733 -0.9123 -0.2443 -0.2756
  927MOL0     C25017   9.606   2.115   5.735  0.5662 -0.4540  0.3456
  927MOL0     O25018   9.686   2.096   5.854 -0.1575 -0.2923 -0.1395
  927MOL0     C25019   9.618   2.094   5.974 -0.1659 -0.9445  0.5128
  927MOL0     C25020   9.672   1.973   6.057 -0.5838  0.1279  0.4260
  927MOL0     C25021   9.566   1.943   6.165 -0.4753 -0.4754 -0.3135
  927MOL0     C25022   9.605   1.995   6.306 -0.0926 -0.6985 -0.0065
  927MOL0     C25023   9.725   1.950   6.373 -0.3234 -0.8402  0.1045
  927MOL0     C25024   9.741   1.795   6.378  0.4373 -0.0971  0.4030
  927MOL0     C25025   9.876   1.760   6.429 -0.2101 -0.5471  0.9250
  927MOL0     C25026   9.889   1.610   6.439 -0.2103  0.2417 -0.2344
  927MOL0     N25027  10.037   1.580   6.455  0.3725 -0.3857  0.7530
  927MOL0     C25028  10.112   1.613   6.562 -0.0594 -0.6821  0.3867
  927MOL0     C25029  10.230   1.549   6.556 -0.8016 -0.7134 -0.8099
  927MOL0     C25030  10.332   1.562   6.665  0.6308 -0.2646 -0.9716
  927MOL0     C25031  10.397   1.425   6.678 -0.0509 -0.3074  0.8102
  927MOL0     C25032  10.493   1.435   6.796 -0.3122 -0.6631  0.6760
  927MOL0     C25033  10.531   1.293   6.851 -0.8991 -0.6867  0.6466
  927MOL0     O25034  10.574   1.209   6.745 -0.0620 -0.1877  0.2527
  927MOL0     C25035  10.586   1.079   6.781 -1.1385  0.3695  0.3213
  927MOL0     C25036  10.704   1.035   6.846 -0.2575 -1.0880  0.2901
  927MOL0     C25037  10.730   0.899   6.871 -0.5950  0.6686  0.4802
  927MOL0     C25038  10.872   0.861   6.947 -0.2924 -0.3734  0.5362
  927MOL0     C25039  10.625   0.811   6.867 -0.0034 -0.0911  0.6746
  927MOL0     C25040  10.629   0.671   6.923 -0.8187 -0.8325  0.5977
  927MOL0     O25041  10.502   0.619   6.941 -0.1910 -0.0992 -0.3603
  927MOL0     C25042  10.490   0.481   6.944 -0.3971  0.3861 -0.0020
  927MOL0     C25043  10.447   0.422   6.824  0.0473 -0.6869  0.1759
  927MOL0     C25044  10.432   0.279   6.825  0.1452  0.0887 -0.0828
  927MOL0     C25045  10.467   0.205   6.939 -0.2549 -0.6032  0.0180
  927MOL0     O25046  10.435   0.071   6.956 -0.5096 -0.0882  0.2965
  927MOL0     C25047  10.378  -0.019   6.859  0.3746  0.8548  0.0466
  927MOL0     C25048  10.221   0.006   6.855 -0.8310 -0.1105 -0.5136
  927MOL0     C25049  10.155  -0.014   6.714  0.9788  0.5504 -0.6412
  927MOL0     C25050   9.999  -0.000   6.737 -0.5117  0.7597 -1.2309
  927MOL0     C25051   9.928   0.003   6.600  0.5532  0.2675 -0.6839
  927MOL0     C25052   9.771  -0.004   6.629 -0.5150  1.0295 -0.1302
  927MOL0     C25053   9.718   0.117   6.704 -0.1459 -0.1766 -0.5072
  927MOL0     C25054   9.570   0.127   6.731 -0.1504  0.0350  0.4658
  927MOL0    Cl25055   9.472   0.131   6.583 -0.6159 -0.2635  0.5311
  927MOL0     C25056  10.523   0.268   7.051  1.2520  0.6112  0.2421
  927MOL0     C25057  10.535   0.403   7.048 -0.1190  0.2649  0.2889
  927MOL0     O25058  10.737   0.611   6.927 -0.0463  0.3748 -0.8601
  927MOL0     C25059  10.502   0.855   6.816 -0.3682  0.0248 -0.2414
  927MOL0     C25060  10.485   0.987   6.769 -0.2371  0.6299  0.0323
  927MOL0     N25061  10.222   1.468   6.441  0.2952 -0.6918  0.5764
  927MOL0     N25062  10.111   1.491   6.386 -0.5481  0.5319  0.3179
  927MOL0     C25063   9.659   2.091   5.610 -0.8232  0.4333 -0.6902
  927MOL0     C25064   9.596   2.117   5.491  0.3144 -0.5101  0.1630
  927MOL0     C25065   9.324   2.376   5.211 -0.1453 -0.2647  0.5926
  927MOL0     C25066   9.349   2.282   5.109  0.3948 -0.4675 -1.0201
  927MOL0     C25067   9.330   2.320   4.979 -0.1386  0.7008 -0.3535
  927MOL0     C25068   9.295   2.453   4.948  0.6222 -0.2073 -0.2312
  927MOL0     O25069   9.276   2.483   4.811  1.0273 -0.1603 -0.3889
  927MOL0     C25070   9.232   2.390   4.716  0.6710  0.3448  0.5328
  927MOL0     C25071   9.185   2.465   4.587  0.3862  0.8049  0.3166
  927MOL0     C25072   9.305   2.521   4.511 -0.0141  0.6403 -0.1507
  927MOL0     C25073   9.253   2.617   4.407 -0.1934 -0.6225  0.4445
  927MOL0     C25074   9.200   2.560   4.288 -0.1813 -0.3727 -0.5608
  927MOL0     C25075   9.151   2.518   4.187 -0.5964  0.3738  0.5826
  927MOL0     C25076   9.271   2.539   5.050  0.1940 -0.5557 -0.0789
  927MOL0     C25077   9.286   2.506   5.182  0.0504 -0.2392 -0.4506
  927MOL0     H25078   9.298   2.247   5.607  0.1824  0.4457  0.2606
  927MOL0     H25079   9.419   2.200   5.823 -2.0476 -0.7302 -0.7973
  927MOL0     H25080   9.637   2.184   6.032 -0.5016 -2.7054  3.5773
  927MOL0     H25081   9.510   2.079   5.958 -0.6465  1.8812  0.6876
  927MOL0     H25082   9.685   1.884   5.996 -1.5941  1.2612 -1.5316
  927MOL0     H25083   9.767   2.004   6.102 -0.9732  1.2886  0.4873
  927MOL0     H25084   9.466   1.970   6.132 -0.4703  1.0146  0.7972
  927MOL0     H25085   9.553   1.834   6.173 -0.7800 -0.4085  0.1273
  927MOL0     H25086   9.605   2.105   6.306  2.2290 -0.6417  1.3293
  927MOL0     H25087   9.529   1.963   6.378 -1.1117 -0.5223 -0.9666
  927MOL0     H25088   9.801   1.987   6.302  1.9707 -2.0170  1.8063
  927MOL0     H25089   9.744   1.994   6.471  0.2141 -1.0388  0.0939
  927MOL0     H25090   9.667   1.751   6.445 -2.4050  2.4629 -0.8298
  927MOL0     H25091   9.745   1.758   6.275 -1.2427 -0.2452  0.3631
  927MOL0     H25092   9.957   1.784   6.359 -0.0636 -1.9142  0.5869
  927MOL0     H25093   9.903   1.807   6.524 -0.5402  1.8948 -0.1313
  927MOL0     H25094   9.853   1.565   6.346 -1.0717  0.9641 -0.2677
  927MOL0     H25095   9.836   1.580   6.530 -0.4758  2.7017  0.5033
  927MOL0     H25096  10.079   1.685   6.637  0.5942 -0.6470  0.6416
  927MOL0     H25097  10.409   1.639   6.648  1.2972 -0.8482 -0.6358
  927MOL0     H25098  10.283   1.596   6.756  0.7492 -1.6719 -0.3622
  927MOL0     H25099  10.446   1.396   6.585 -4.8787  0.5304 -2.3614
  927MOL0     H25100  10.316   1.351   6.683  0.3803 -1.0202 -1.5452
  927MOL0     H25101  10.447   1.494   6.875 -2.1953 -2.5594  1.1027
  927MOL0     H25102  10.582   1.495   6.772 -0.2800 -1.6399 -2.0451
  927MOL0     H25103  10.447   1.248   6.903  0.1207 -4.5416 -0.6750
  927MOL0     H25104  10.604   1.293   6.933 -3.3028  0.4253  2.9021
  927MOL0     H25105  10.773   1.118   6.850 -0.0057 -1.1710 -1.3977
  927MOL0     H25106  10.920   0.785   6.884 -2.3658  1.0835 -3.0936
  927MOL0     H25107  10.929   0.952   6.967  0.5001 -1.1694  2.1694
  927MOL0     H25108  10.841   0.808   7.039 -2.6362  1.8571  1.1413
  927MOL0     H25109  10.417   0.473   6.733 -2.7004 -1.4448  0.5590
  927MOL0     H25110  10.396   0.234   6.733 -2.1442  1.2617  0.1753
  927MOL0     H25111  10.433   0.004   6.768  0.9356 -2.6641 -0.6660
  927MOL0     H25112  10.403  -0.123   6.883 -0.3753  1.2017  2.7588
  927MOL0     H25113  10.174  -0.064   6.925  0.6118  0.5197  1.1763
  927MOL0     H25114  10.201   0.107   6.893 -4.1467 -0.0134 -2.1354
  927MOL0     H25115  10.174  -0.115   6.674 -0.4860  0.5874 -1.5187
  927MOL0     H25116  10.199   0.065   6.653  1.3600 -0.0226 -1.1280
  927MOL0     H25117   9.974  -0.092   6.791  0.6132 -0.3173 -2.4723
  927MOL0     H25118   9.981   0.092   6.792 -2.0806  0.9261 -1.9564
  927MOL0     H25119   9.956  -0.086   6.542  0.6790 -1.0016  1.2362
  927MOL0     H25120   9.954   0.094   6.546  0.0565 -0.1328 -1.6275
  927MOL0     H25121   9.712   0.006   6.537 -2.2975 -1.8251  0.5452
  927MOL0     H25122   9.741  -0.097   6.678  0.7108  0.7634  0.1320
  927MOL0     H25123   9.751   0.206   6.651  0.5977 -0.4650 -0.5420
  927MOL0     H25124   9.769   0.128   6.800  0.0304  1.5866 -0.7881
  927MOL0     H25125   9.559   0.226   6.777  0.7683  1.2641 -1.7906
  927MOL0     H25126   9.533   0.052   6.800  2.6159 -1.8988 -0.0125
  927MOL0     H25127  10.551   0.220   7.144 -2.5409  1.3065  1.9380
  927MOL0     H25128  10.595   0.441   7.130  0.5216 -2.2723  1.1025
  927MOL0     H25129  10.411   0.798   6.802  1.0894 -2.2227 -1.3027
  927MOL0     H25130  10.390   1.021   6.729  0.2472  0.7868 -1.0039
  927MOL0     H25131   9.759   2.051   5.602  0.0842  1.9405  1.7701
  927MOL0     H25132   9.638   2.092   5.395 -0.2268 -1.7455  0.2236
  927MOL0     H25133   9.388   2.183   5.133 -0.4974 -0.1720  2.0613
  927MOL0     H25134   9.368   2.243   4.913  3.7061 -0.2857  2.6693
  927MOL0     H25135   9.311   2.322   4.683 -0.6319 -1.3299  0.7458
  927MOL0     H25136   9.146   2.338   4.759 -3.3910  2.3422 -4.2675
  927MOL0     H25137   9.107   2.540   4.604 -2.7789 -2.0066 -0.5706
  927MOL0     H25138   9.134   2.396   4.519  2.9918 -1.2749  0.3130
  927MOL0     H25139   9.363   2.445   4.459  0.0583  2.5007 -3.0546
  927MOL0     H25140   9.366   2.573   4.586 -1.8532  0.2436  1.7109
  927MOL0     H25141   9.334   2.684   4.373 -3.0415  1.6318 -2.6416
  927MOL0     H25142   9.180   2.690   4.443  1.2207  1.0724  0.0808
  927MOL0     H25143   9.118   2.470   4.097 -1.0998  0.2690  0.8192
  927MOL0     H25144   9.243   2.639   5.017 -0.3198 -0.5139  0.4720
  927MOL0     H25145   9.279   2.591   5.249  0.7836 -1.7641  1.6715
  928MOL0     O25146   5.112   1.282   4.013 -0.9291 -0.8151 -0.3319
  928MOL0     C25147   5.038   1.211   4.083 -0.0102 -0.6178  0.0057
  928MOL0     O25148   5.067   1.093   4.141 -0.0954  0.7391  0.3249
  928MOL0     C25149   5.194   1.050   4.130  0.6085 -0.5836  0.4015
  928MOL0     C25150   5.225   0.920   4.095 -0.0409  0.3996  0.6066
  928MOL0     C25151   5.355   0.867   4.098 -0.3372 -0.4699  0.0086
  928MOL0     C25152   5.460   0.952   4.125 -0.0632 -0.0639 -0.6545
  928MOL0     O25153   5.596   0.907   4.114  0.3047  0.3233  0.6584
  928MOL0     C25154   5.625   0.844   3.992 -0.4598  0.6275 -0.5798
  928MOL0     C25155   5.764   0.883   3.942  0.6985 -0.3434  0.2210
  928MOL0     C25156   5.827   0.814   3.820  0.2579  0.5864  0.3699
  928MOL0     C25157   5.953   0.874   3.781  0.6961  0.1800  0.6179
  928MOL0     C25158   6.018   0.809   3.654 -0.1117 -0.2668 -0.4482
  928MOL0     C25159   6.111   0.685   3.681 -0.0495 -1.2506 -0.3850
  928MOL0     C25160   6.262   0.720   3.715 -0.4054  0.1174  0.6206
  928MOL0     C25161   6.342   0.794   3.611 -0.6684 -0.1167  1.3297
  928MOL0     N25162   6.485   0.796   3.637  0.2188  0.0745  0.1140
  928MOL0     C25163   6.564   0.687   3.630 -0.1234 -0.5033 -0.4043
  928MOL0     C25164   6.684   0.731   3.679 -0.1064  0.7241  0.4514
  928MOL0     C25165   6.813   0.648   3.683  0.4159  0.3999  1.0367
  928MOL0     C25166   6.878   0.631   3.543 -0.2302 -0.0464 -0.1689
  928MOL0     C25167   6.948   0.758   3.504 -0.3741  0.2123  1.0739
  928MOL0     C25168   7.018   0.734   3.372 -1.3333  0.2827 -0.1108
  928MOL0     O25169   6.928   0.720   3.271  0.0243 -0.1159 -0.1468
  928MOL0     C25170   6.966   0.648   3.163 -0.6275  0.2317 -1.0353
  928MOL0     C25171   6.867   0.617   3.071 -0.6898  0.2459  0.8424
  928MOL0     C25172   6.903   0.571   2.942 -0.4094  0.4662  0.3635
  928MOL0     C25173   6.792   0.547   2.854 -0.4510 -0.1427 -0.0479
  928MOL0     C25174   7.037   0.531   2.923 -0.5232 -0.3382  0.0723
  928MOL0     C25175   7.084   0.457   2.808  0.6316 -0.3979  0.5009
  928MOL0     O25176   7.185   0.367   2.837  0.0511 -0.0848 -0.7303
  928MOL0     C25177   7.279   0.334   2.742 -0.9666 -0.2526 -0.3021
  928MOL0     C25178   7.331   0.415   2.642 -0.2054  0.7231  0.0133
  928MOL0     C25179   7.413   0.369   2.542  0.7355  0.2955  0.3223
  928MOL0     C25180   7.453   0.240   2.554  0.1810  0.5625  0.3617
  928MOL0     O25181   7.543   0.197   2.459 -0.2988 -0.5788  0.1568
  928MOL0     C25182   7.514   0.078   2.384 -0.3179  0.1195  0.1086
  928MOL0     C25183   7.513   0.123   2.237  0.3053  0.2777  0.1484
  928MOL0     C25184   7.508   0.013   2.142 -0.2805 -0.6977  0.2792
  928MOL0     C25185   7.642  -0.044   2.110 -0.1935 -0.5230  0.1246
  928MOL0     C25186   7.629  -0.159   2.005 -0.5781 -0.2655  0.3916
  928MOL0     C25187   7.755  -0.225   1.958 -0.3798 -0.4584 -0.1805
  928MOL0     C25188   7.833  -0.126   1.881 -0.8050  0.2008  0.1005
  928MOL0     C25189   7.934  -0.201   1.790  0.0538  0.4161  0.2392
  928MOL0    Cl25190   8.084  -0.251   1.880  0.6171  0.3059  0.4871
  928MOL0     C25191   7.416   0.153   2.652  0.1605  0.4141 -0.0599
  928MOL0     C25192   7.322   0.195   2.746 -0.2140 -0.7297 -0.3225
  928MOL0     O25193   7.030   0.474   2.693 -0.4324 -0.3789 -0.0419
  928MOL0     C25194   7.131   0.568   3.014 -0.6789 -0.1270  0.1444
  928MOL0     C25195   7.094   0.618   3.137 -0.2279 -0.2482 -0.0862
  928MOL0     N25196   6.674   0.860   3.712 -0.0152 -0.8666  1.7271
  928MOL0     N25197   6.552   0.904   3.684  0.1333  0.1378  0.2059
  928MOL0     C25198   5.441   1.083   4.158  0.6470 -0.1374  1.0202
  928MOL0     C25199   5.303   1.130   4.169  0.5153  0.6983 -0.4488
  928MOL0     C25200   4.906   1.268   4.117  0.4408 -0.4327  0.0637
  928MOL0     C25201   4.876   1.402   4.083 -0.9754 -0.6990 -0.7282
  928MOL0     C25202   4.749   1.452   4.115 -0.3475 -0.5888 -0.5897
  928MOL0     C25203   4.648   1.378   4.163 -0.1279  0.4436  0.4224
  928MOL0     O25204   4.532   1.439   4.208  0.3656 -0.1805 -0.1213
  928MOL0     C25205   4.466   1.516   4.109  0.3824  0.0101 -0.3101
  928MOL0     C25206   4.315   1.504   4.136  0.4252  1.0444  0.1238
  928MOL0     C25207   4.234   1.541   4.012  0.1629 -0.1257 -0.2237
  928MOL0     C25208   4.086   1.571   4.047 -1.0288  0.0467  0.0955
  928MOL0     C25209   4.017   1.637   3.939  0.2801  0.7900 -0.2223
  928MOL0     C25210   3.961   1.688   3.846 -0.0918 -0.4091  0.4803
  928MOL0     C25211   4.676   1.238   4.185  0.1294  0.6037  0.0831
  928MOL0     C25212   4.803   1.178   4.155  0.7678 -0.6098 -0.8300
  928MOL0     H25213   5.139   0.861   4.064  0.5503  0.5027 -1.3856
  928MOL0     H25214   5.366   0.762   4.073 -3.7284 -0.6500 -1.3023
  928MOL0     H25215   5.624   0.735   4.004  0.7985  0.6797  0.1125
  928MOL0     H25216   5.547   0.874   3.921  0.2647  4.8423  0.1910
  928MOL0     H25217   5.768   0.990   3.918 -0.6189 -0.6027 -1.3025
  928MOL0     H25218   5.824   0.868   4.032 -3.5697 -1.8037  3.0965
  928MOL0     H25219   5.837   0.710   3.850  0.1547  0.8979  1.5307
  928MOL0     H25220   5.771   0.835   3.728 -0.7659 -4.1755 -0.3448
  928MOL0     H25221   5.941   0.980   3.758 -2.5905 -0.1139  0.5140
  928MOL0     H25222   6.025   0.874   3.863 -0.1623  1.5994  1.4140
  928MOL0     H25223   5.936   0.792   3.583  0.0433  1.4973 -1.0933
  928MOL0     H25224   6.077   0.891   3.614 -1.0960 -0.1296 -1.6886
  928MOL0     H25225   6.071   0.618   3.758 -1.7222  2.5648  2.3702
  928MOL0     H25226   6.119   0.632   3.585 -0.0611 -0.3191 -0.9160
  928MOL0     H25227   6.265   0.779   3.807 -0.5661 -0.1340  0.7878
  928MOL0     H25228   6.304   0.620   3.728 -1.2948 -0.3705 -0.1965
  928MOL0     H25229   6.311   0.899   3.611  0.1126  0.1270  0.3876
  928MOL0     H25230   6.321   0.757   3.510  0.5955  2.5870 -0.0462
  928MOL0     H25231   6.536   0.591   3.587  0.2016 -0.4589 -0.7202
  928MOL0     H25232   6.885   0.696   3.750  0.1018 -0.1402  1.7732
  928MOL0     H25233   6.802   0.547   3.723  2.1240 -1.0859 -1.8581
  928MOL0     H25234   6.800   0.594   3.476 -0.4814 -1.4425  0.8499
  928MOL0     H25235   6.946   0.546   3.555 -0.5870 -0.1071  1.6781
  928MOL0     H25236   7.020   0.800   3.575 -1.1349  1.0161  1.4041
  928MOL0     H25237   6.880   0.842   3.481  1.0772  0.9088 -0.9174
  928MOL0     H25238   7.089   0.652   3.384 -1.2263  0.4704  0.5767
  928MOL0     H25239   7.076   0.821   3.340  0.7656 -2.0153 -2.9684
  928MOL0     H25240   6.762   0.637   3.086 -0.5532  0.1325  2.0501
  928MOL0     H25241   6.696   0.548   2.906  0.5981  0.1075  2.0023
  928MOL0     H25242   6.786   0.620   2.773 -0.1517  0.0910  0.1402
  928MOL0     H25243   6.788   0.448   2.808  1.2233 -0.8447  1.1975
  928MOL0     H25244   7.300   0.519   2.640  1.5121  1.2748 -2.8791
  928MOL0     H25245   7.465   0.433   2.471  2.7717 -0.9543  0.5910
  928MOL0     H25246   7.599   0.012   2.402 -0.1585  1.3285  5.4400
  928MOL0     H25247   7.422   0.022   2.401 -0.0489 -1.1265 -2.2058
  928MOL0     H25248   7.432   0.195   2.225 -0.5271 -0.8082 -0.9966
  928MOL0     H25249   7.610   0.169   2.216  1.2518 -1.8545 -0.4203
  928MOL0     H25250   7.468   0.059   2.051 -1.5705  0.5323  1.4183
  928MOL0     H25251   7.431  -0.059   2.172  2.5885 -2.5686  3.9028
  928MOL0     H25252   7.713   0.032   2.076  1.1611 -1.2118  1.2657
  928MOL0     H25253   7.688  -0.096   2.195 -0.7320 -0.5187  0.4201
  928MOL0     H25254   7.566  -0.128   1.921  0.9247  2.3078  0.1282
  928MOL0     H25255   7.570  -0.244   2.042 -1.6722 -1.2013 -3.1404
  928MOL0     H25256   7.812  -0.260   2.044 -0.3901  1.1484  0.5151
  928MOL0     H25257   7.724  -0.307   1.892 -2.0109  0.8896 -1.1880
  928MOL0     H25258   7.885  -0.067   1.958  0.0298 -2.8683  2.0502
  928MOL0     H25259   7.772  -0.056   1.822 -2.3971 -0.4734  0.8900
  928MOL0     H25260   7.963  -0.141   1.703 -2.0782  0.6965 -0.3354
  928MOL0     H25261   7.888  -0.290   1.746  2.0411  0.0721 -1.2661
  928MOL0     H25262   7.443   0.048   2.655 -0.3311  0.2965  1.5583
  928MOL0     H25263   7.290   0.118   2.815  1.8828 -1.8268 -0.5031
  928MOL0     H25264   7.239   0.560   3.001 -0.5065 -0.7609  1.6966
  928MOL0     H25265   7.177   0.642   3.203 -1.4366  0.7236  1.1321
  928MOL0     H25266   5.521   1.151   4.186 -1.1544  0.9234  4.0197
  928MOL0     H25267   5.293   1.230   4.208 -2.4650 -0.5429  2.4908
  928MOL0     H25268   4.947   1.468   4.035  0.3173 -1.3567  0.2195
  928MOL0     H25269   4.735   1.560   4.116 -0.3294 -0.5299  2.6422
  928MOL0     H25270   4.486   1.624   4.110 -1.0459  0.2875  0.0493
  928MOL0     H25271   4.488   1.472   4.011 -1.6298 -0.3576 -0.6299
  928MOL0     H25272   4.284   1.571   4.216 -4.4861 -1.7699  1.0193
  928MOL0     H25273   4.295   1.401   4.168  1.7322  0.6165 -0.3373
  928MOL0     H25274   4.231   1.448   3.954 -0.0469 -1.7627  2.2439
  928MOL0     H25275   4.273   1.628   3.958  1.8022  1.0228  2.5991
  928MOL0     H25276   4.096   1.638   4.133  0.2339 -2.5040  2.0749
  928MOL0     H25277   4.042   1.478   4.082  1.8142 -1.7570 -0.7571
  928MOL0     H25278   3.898   1.738   3.775 -0.1456  1.3227  1.6960
  928MOL0     H25279   4.604   1.180   4.241  3.2411  0.8718  4.9269
  928MOL0     H25280   4.805   1.070   4.166 -2.3862 -0.9149 -2.1169
  929MOL0     O25281   4.468   7.683   7.792 -0.1822  0.4555  0.1833
  929MOL0     C25282   4.512   7.778   7.730 -0.5740  0.4207 -0.0513
  929MOL0     O25283   4.438   7.879   7.682 -0.1776 -0.1046  0.2751
  929MOL0     C25284   4.313   7.926   7.718  0.6491  0.3445  0.1883
  929MOL0     C25285   4.230   7.855   7.807  0.2246  0.4368  0.1043
  929MOL0     C25286   4.094   7.902   7.831  0.4881 -0.0762  0.0609
  929MOL0     C25287   4.043   8.005   7.762  0.4948  0.8424 -0.0755
  929MOL0     O25288   3.902   8.028   7.775 -0.1808 -0.2078  0.1381
  929MOL0     C25289   3.824   7.996   7.652 -0.1368  0.5749 -0.1890
  929MOL0     C25290   3.689   8.073   7.652  0.1970  0.5263  1.0095
  929MOL0     C25291   3.704   8.231   7.655 -0.7690 -0.0977  0.5643
  929MOL0     C25292   3.564   8.287   7.623 -0.0175  0.4170 -0.0150
  929MOL0     C25293   3.557   8.436   7.635 -0.5032 -0.6656  0.0130
  929MOL0     C25294   3.423   8.488   7.585 -0.6286 -0.8113 -0.0275
  929MOL0     C25295   3.308   8.477   7.687 -0.9918 -0.3259  0.0928
  929MOL0     C25296   3.272   8.617   7.744 -0.6238  0.0249 -0.1710
  929MOL0     N25297   3.211   8.724   7.664 -0.1358 -0.4476  0.1496
  929MOL0     C25298   3.122   8.710   7.565  0.2399 -0.2736  0.2698
  929MOL0     C25299   3.101   8.834   7.508 -1.1636  0.5492 -0.1569
  929MOL0     C25300   3.000   8.863   7.403  0.1060  0.5047  0.1509
  929MOL0     C25301   2.873   8.918   7.468 -0.5079  0.3084  0.5753
  929MOL0     C25302   2.855   9.072   7.460 -0.2555 -0.3284  0.2252
  929MOL0     C25303   2.811   9.100   7.311 -0.3114  0.2150 -0.5065
  929MOL0     O25304   2.842   9.235   7.291  1.1222  0.1814 -0.4213
  929MOL0     C25305   2.971   9.272   7.259 -0.8682 -0.7620 -0.3996
  929MOL0     C25306   2.997   9.407   7.258 -0.6667  0.4892  0.4592
  929MOL0     C25307   3.126   9.463   7.237  0.3247  0.2121 -0.9510
  929MOL0     C25308   3.142   9.610   7.234 -0.1446 -0.1725  0.2279
  929MOL0     C25309   3.233   9.372   7.209 -0.2876 -0.0834 -0.6406
  929MOL0     C25310   3.378   9.401   7.187  0.6130  0.3947  0.3843
  929MOL0     O25311   3.445   9.317   7.094  0.1457 -0.3709  0.4024
  929MOL0     C25312   3.580   9.302   7.121  0.5430  0.0364  0.9627
  929MOL0     C25313   3.621   9.192   7.198  0.7287  0.4315  0.2132
  929MOL0     C25314   3.748   9.156   7.220  0.9511  0.2355 -0.3498
  929MOL0     C25315   3.849   9.238   7.165 -0.6128 -0.5901 -0.3474
  929MOL0     O25316   3.979   9.198   7.187  0.8097 -0.4844  0.4141
  929MOL0     C25317   4.085   9.262   7.113 -0.3066  0.4420  0.4010
  929MOL0     C25318   4.222   9.262   7.201  1.1318  0.1401 -0.1146
  929MOL0     C25319   4.334   9.306   7.107 -0.0809  0.2058  0.6721
  929MOL0     C25320   4.455   9.309   7.192  0.4668  0.5297 -0.2809
  929MOL0     C25321   4.575   9.351   7.092 -0.6884  0.9227 -0.2598
  929MOL0     C25322   4.707   9.357   7.171 -0.1765  0.3680  0.3898
  929MOL0     C25323   4.817   9.411   7.073 -0.3493  0.8100  0.1555
  929MOL0     C25324   4.935   9.464   7.153  0.0566 -0.2716 -1.0747
  929MOL0    Cl25325   5.052   9.515   7.039 -0.8786 -0.2652  0.1881
  929MOL0     C25326   3.816   9.355   7.084  0.7362 -0.4977 -0.6699
  929MOL0     C25327   3.678   9.385   7.067  0.3491 -0.3593 -0.3187
  929MOL0     O25328   3.438   9.482   7.259  0.7895 -0.5208  0.3293
  929MOL0     C25329   3.201   9.232   7.213 -0.0148 -0.8335  0.6816
  929MOL0     C25330   3.073   9.186   7.236  0.7746  0.1263 -0.4906
  929MOL0     N25331   3.173   8.922   7.586  0.4042 -0.4132  0.2770
  929MOL0     N25332   3.240   8.862   7.669  0.6904 -0.1470  0.5430
  929MOL0     C25333   4.127   8.071   7.673  0.4634 -0.6259 -1.0274
  929MOL0     C25334   4.263   8.037   7.648 -0.2177  0.2380  0.1909
  929MOL0     C25335   4.656   7.777   7.703 -0.9489 -0.8167  1.2185
  929MOL0     C25336   4.718   7.871   7.609 -0.0287  0.5845 -0.6561
  929MOL0     C25337   4.847   7.866   7.577  1.4690 -0.1328 -0.0606
  929MOL0     C25338   4.930   7.776   7.631 -0.2881  0.1692  0.0179
  929MOL0     O25339   5.065   7.798   7.593  0.7893  0.6074 -0.1236
  929MOL0     C25340   5.164   7.711   7.639 -0.7561 -0.6429 -0.6679
  929MOL0     C25341   5.292   7.768   7.578  0.0672 -0.6404  0.3758
  929MOL0     C25342   5.406   7.668   7.592 -0.1133 -0.0201 -0.6500
  929MOL0     C25343   5.541   7.714   7.530 -0.8751 -0.2271  0.6786
  929MOL0     C25344   5.644   7.609   7.554 -0.0398  0.6912  0.0333
  929MOL0     C25345   5.735   7.528   7.546 -0.1282  0.1849 -0.1295
  929MOL0     C25346   4.879   7.684   7.723  0.1890  0.0289  0.0195
  929MOL0     C25347   4.746   7.683   7.758  0.0830 -0.1648 -0.5616
  929MOL0     H25348   4.267   7.776   7.872 -1.7899  2.1158  3.6263
  929MOL0     H25349   4.031   7.845   7.898 -2.5010 -0.8843 -3.1624
  929MOL0     H25350   3.882   7.993   7.560 -0.2578 -0.7132 -0.2415
  929MOL0     H25351   3.803   7.889   7.662  0.7583 -0.0637 -3.8456
  929MOL0     H25352   3.638   8.036   7.562 -0.5733  0.0525  1.6319
  929MOL0     H25353   3.628   8.037   7.735 -0.1316 -1.5768 -0.0915
  929MOL0     H25354   3.733   8.259   7.757 -2.0315 -1.5983  1.3751
  929MOL0     H25355   3.782   8.263   7.585 -0.9610 -2.9050 -1.0500
  929MOL0     H25356   3.535   8.261   7.520 -1.5778  4.6674 -0.8938
  929MOL0     H25357   3.491   8.235   7.685  2.8563 -1.6905  1.7792
  929MOL0     H25358   3.577   8.465   7.739  1.9173 -1.0304 -0.2927
  929MOL0     H25359   3.633   8.481   7.571 -0.6974  1.0855  0.9524
  929MOL0     H25360   3.434   8.596   7.571  1.9995 -0.7419  1.7833
  929MOL0     H25361   3.385   8.440   7.495 -2.1567 -0.0242  0.1513
  929MOL0     H25362   3.223   8.417   7.654  0.8220 -1.8533 -2.1041
  929MOL0     H25363   3.346   8.427   7.776  1.4718  0.0450 -0.6776
  929MOL0     H25364   3.366   8.659   7.781  0.7597 -1.1071 -2.2126
  929MOL0     H25365   3.202   8.594   7.825 -0.4599  0.6937  0.1684
  929MOL0     H25366   3.065   8.620   7.547 -0.4210 -0.1161  1.4608
  929MOL0     H25367   3.045   8.916   7.318  0.3226 -1.1817 -0.8378
  929MOL0     H25368   2.970   8.768   7.358 -1.0690  0.5683  0.7690
  929MOL0     H25369   2.862   8.880   7.569 -1.6481 -0.3838  0.2048
  929MOL0     H25370   2.797   8.867   7.408  2.8315 -1.8046 -2.2765
  929MOL0     H25371   2.943   9.123   7.500  0.1430 -2.6390  2.5230
  929MOL0     H25372   2.782   9.103   7.534  2.0397  3.3416  1.2434
  929MOL0     H25373   2.708   9.069   7.294 -0.5637 -0.8380  2.3791
  929MOL0     H25374   2.867   9.037   7.241  2.0719  0.6067  0.9438
  929MOL0     H25375   2.919   9.482   7.265  0.1803  2.2703 -4.6651
  929MOL0     H25376   3.196   9.644   7.145  0.7370  0.3387  0.9502
  929MOL0     H25377   3.049   9.668   7.236  0.1249  0.3611 -1.2641
  929MOL0     H25378   3.209   9.631   7.317  1.0410  1.1959 -1.0054
  929MOL0     H25379   3.544   9.134   7.247  1.8580 -3.5737 -2.2878
  929MOL0     H25380   3.773   9.060   7.264 -0.5005  0.7486  1.7649
  929MOL0     H25381   4.098   9.213   7.016 -0.2717 -2.1335  1.6448
  929MOL0     H25382   4.071   9.368   7.089  1.9685  0.7541  0.2461
  929MOL0     H25383   4.217   9.339   7.279 -2.9879  1.1599 -1.1054
  929MOL0     H25384   4.242   9.163   7.242  1.3999 -0.2080 -1.0624
  929MOL0     H25385   4.315   9.408   7.074  1.4759  0.7787  1.4502
  929MOL0     H25386   4.333   9.233   7.026 -1.1831  1.3591 -0.4126
  929MOL0     H25387   4.438   9.379   7.274 -2.0892 -1.5351  1.0866
  929MOL0     H25388   4.472   9.208   7.229  1.7086  0.6427 -0.4783
  929MOL0     H25389   4.559   9.452   7.054  2.8431  1.9578  0.6406
  929MOL0     H25390   4.592   9.280   7.010  0.9540  1.3128 -0.2790
  929MOL0     H25391   4.701   9.429   7.253  0.6556  1.6523 -0.6370
  929MOL0     H25392   4.743   9.264   7.216  0.2211 -0.3719 -1.3762
  929MOL0     H25393   4.773   9.490   7.011 -1.8144  0.1737  0.3366
  929MOL0     H25394   4.857   9.327   7.016  1.6038  0.6123  1.7194
  929MOL0     H25395   4.978   9.385   7.215  2.0546 -0.5365 -2.6959
  929MOL0     H25396   4.902   9.551   7.211  0.8125 -0.2640 -0.6291
  929MOL0     H25397   3.885   9.426   7.041  1.5928 -0.8212  0.1337
  929MOL0     H25398   3.658   9.477   7.012  1.9269 -0.2599 -0.7889
  929MOL0     H25399   3.277   9.157   7.197 -0.6424 -0.9588 -2.3808
  929MOL0     H25400   3.052   9.082   7.214 -0.5981  0.2497  0.1392
  929MOL0     H25401   4.081   8.153   7.618  2.1522 -0.2296 -1.8998
  929MOL0     H25402   4.327   8.093   7.580  0.9771 -0.1468  0.9601
  929MOL0     H25403   4.669   7.960   7.571 -1.5235  0.1707  0.2083
  929MOL0     H25404   4.872   7.948   7.511 -1.9129  1.2611  0.1576
  929MOL0     H25405   5.176   7.702   7.747  2.2677 -2.5898 -1.0181
  929MOL0     H25406   5.137   7.611   7.604  0.8550 -1.0727 -0.7803
  929MOL0     H25407   5.327   7.863   7.619  1.2604 -0.4005 -1.0851
  929MOL0     H25408   5.281   7.785   7.470  1.0402  1.2133  0.5210
  929MOL0     H25409   5.382   7.569   7.554 -1.2177 -0.0262  0.0183
  929MOL0     H25410   5.424   7.667   7.700  1.1250  0.9191 -0.8256
  929MOL0     H25411   5.585   7.807   7.566 -5.0854  2.1560  0.2731
  929MOL0     H25412   5.542   7.710   7.421  1.0224  1.0495  0.6056
  929MOL0     H25413   5.800   7.444   7.528 -0.3858  0.5168 -3.0634
  929MOL0     H25414   4.942   7.616   7.780 -0.3734  0.4844  1.2159
  929MOL0     H25415   4.709   7.597   7.813 -0.4988  0.6592  0.3529
  930MOL0     O25416   9.920  10.312  10.227  0.3004 -0.3984  0.1172
  930MOL0     C25417   9.929  10.425  10.278 -0.6025 -0.2362  0.2192
  930MOL0     O25418  10.048  10.491  10.300 -0.3149  0.5145  0.0861
  930MOL0     C25419  10.168  10.422  10.283 -0.5180  0.9712  0.1561
  930MOL0     C25420  10.274  10.515  10.266 -0.3943  0.4606  0.8886
  930MOL0     C25421  10.404  10.471  10.226  0.0649  0.3866 -0.9969
  930MOL0     C25422  10.430  10.331  10.205 -0.1068 -0.0904 -0.4664
  930MOL0     O25423  10.550  10.301  10.162 -0.1918  0.8655  0.3818
  930MOL0     C25424  10.570  10.178  10.099 -0.3527 -0.2988  0.5481
  930MOL0     C25425  10.708  10.180  10.025 -0.4462  0.4802  0.2894
  930MOL0     C25426  10.750  10.053   9.944  0.3299 -0.8998 -0.4710
  930MOL0     C25427  10.858  10.074   9.843  0.3817  0.1733  0.5991
  930MOL0     C25428  11.001  10.053   9.918  0.2267 -0.4398 -0.4914
  930MOL0     C25429  11.095   9.993   9.809  0.4949 -0.6604  0.2910
  930MOL0     C25430  11.243   9.989   9.847 -0.4449 -0.4904 -0.0719
  930MOL0     C25431  11.301   9.844   9.868  0.2147  0.1246 -0.5050
  930MOL0     N25432  11.222   9.784   9.976  0.8139 -0.0804  0.1514
  930MOL0     C25433  11.215   9.836  10.103  0.5426 -0.2599  0.1473
  930MOL0     C25434  11.130   9.753  10.172 -0.6516  0.6358 -0.0234
  930MOL0     C25435  11.090   9.765  10.312  0.2767 -0.0777  0.9590
  930MOL0     C25436  10.938   9.738  10.322 -0.3667 -0.1979  0.2506
  930MOL0     C25437  10.845   9.812  10.223 -0.0647 -0.6908 -0.4036
  930MOL0     C25438  10.705   9.798  10.283 -0.0709 -0.0465  0.6857
  930MOL0     O25439  10.616   9.850  10.183  0.2886  0.6160 -0.2625
  930MOL0     C25440  10.483   9.857  10.215 -0.4406  0.1126  0.1036
  930MOL0     C25441  10.435   9.846  10.350 -0.0626 -0.3042  0.1115
  930MOL0     C25442  10.299   9.871  10.389  0.5797 -0.6535 -0.3351
  930MOL0     C25443  10.254   9.827  10.527 -0.0579  0.4614 -0.6310
  930MOL0     C25444  10.203   9.896  10.286  0.0770 -0.1587  0.3939
  930MOL0     C25445  10.062   9.913  10.313 -0.4036  0.1705  0.4868
  930MOL0     O25446   9.979   9.856  10.215  0.3504 -0.2113 -0.0375
  930MOL0     C25447   9.850   9.904  10.204 -0.6219  0.4959  0.2321
  930MOL0     C25448   9.748   9.856  10.281  0.5453  0.4436  0.1462
  930MOL0     C25449   9.623   9.900  10.274  0.8275 -0.2166 -0.0628
  930MOL0     C25450   9.591  10.003  10.180 -0.3466 -0.6079 -0.1361
  930MOL0     O25451   9.463  10.050  10.160 -0.1583 -0.6301  0.3782
  930MOL0     C25452   9.346   9.983  10.209 -0.0784 -0.2012  0.2259
  930MOL0     C25453   9.229  10.050  10.149 -0.1824 -0.0084  0.0630
  930MOL0     C25454   9.102   9.979  10.186  0.0666  0.6128 -0.5383
  930MOL0     C25455   8.980  10.038  10.120  0.5488  0.5289  0.4798
  930MOL0     C25456   8.859   9.964  10.181  0.0629 -0.2638 -0.3752
  930MOL0     C25457   8.829   9.812  10.150  0.3693 -0.4109 -0.1195
  930MOL0     C25458   8.733   9.753  10.262 -0.7316 -1.1965 -0.4951
  930MOL0     C25459   8.703   9.609  10.229 -0.1166 -0.2112  0.3471
  930MOL0    Cl25460   8.619   9.539  10.373 -0.1935  0.1951  0.3360
  930MOL0     C25461   9.695  10.062  10.101  0.2962  0.5805 -0.0085
  930MOL0     C25462   9.824  10.005  10.106  0.5922 -0.1913  0.4186
  930MOL0     O25463  10.025   9.991  10.400  0.0094  0.0230 -0.1723
  930MOL0     C25464  10.249   9.906  10.143 -0.5921 -0.1127 -0.0761
  930MOL0     C25465  10.386   9.881  10.114 -0.3856 -0.5070 -0.3053
  930MOL0     N25466  11.106   9.646  10.090  0.5226 -0.4839 -0.5223
  930MOL0     N25467  11.155   9.665   9.973 -0.3688 -0.2921  0.4173
  930MOL0     C25468  10.332  10.237  10.227  0.4206 -0.4158  0.5609
  930MOL0     C25469  10.200  10.289  10.251  0.0797  0.1438  1.2727
  930MOL0     C25470   9.802  10.493  10.302 -0.0983 -0.3508  0.3507
  930MOL0     C25471   9.673  10.436  10.284  0.0058 -0.0945  0.8095
  930MOL0     C25472   9.559  10.497  10.335 -0.1577 -0.3588  0.9142
  930MOL0     C25473   9.560  10.621  10.390 -0.6311 -0.3266 -0.3232
  930MOL0     O25474   9.449  10.701  10.414  0.1664 -0.0034  0.2564
  930MOL0     C25475   9.397  10.755  10.289 -0.3296  0.1269 -0.8625
  930MOL0     C25476   9.344  10.899  10.319  0.4423 -0.0440 -0.6850
  930MOL0     C25477   9.268  10.929  10.197  0.7168  0.5505  0.7614
  930MOL0     C25478   9.183  11.055  10.208  0.2647  0.0714  1.4346
  930MOL0     C25479   9.241  11.164  10.293  0.3321  0.4310  0.3811
  930MOL0     C25480   9.311  11.238  10.363  0.1779  0.7982 -0.2389
  930MOL0     C25481   9.685  10.680  10.413 -0.0413 -0.9290  0.1762
  930MOL0     C25482   9.806  10.614  10.364  0.3326 -0.1699  0.1980
  930MOL0     H25483  10.252  10.619  10.286 -2.0106  1.2606 -3.7811
  930MOL0     H25484  10.482  10.545  10.214  1.7745 -1.1962 -0.1919
  930MOL0     H25485  10.559  10.091  10.164  1.8238 -1.4820 -0.5507
  930MOL0     H25486  10.502  10.166  10.015 -0.3917  0.5286  0.4525
  930MOL0     H25487  10.700  10.264   9.956 -0.2032 -2.1904 -3.3208
  930MOL0     H25488  10.786  10.210  10.095  0.4277 -0.6155 -0.1658
  930MOL0     H25489  10.758   9.959   9.999  1.1783 -0.0887  0.8563
  930MOL0     H25490  10.656  10.036   9.890 -2.0298  0.3810  2.9089
  930MOL0     H25491  10.848   9.997   9.765  1.4246  1.0637 -0.4541
  930MOL0     H25492  10.850  10.167   9.785  1.8515 -0.2014 -0.2540
  930MOL0     H25493  11.050  10.142   9.958  1.1124 -0.7715 -0.8100
  930MOL0     H25494  10.985   9.986  10.002 -2.8190  0.2365 -0.4147
  930MOL0     H25495  11.071   9.888   9.788  0.1460 -0.2563 -1.5169
  930MOL0     H25496  11.094  10.066   9.727  0.9148  0.7476  1.5106
  930MOL0     H25497  11.294  10.029   9.760  0.1628  1.3702  1.0873
  930MOL0     H25498  11.265  10.060   9.927 -0.1743 -1.2002  0.4988
  930MOL0     H25499  11.408   9.847   9.892  0.1253 -1.4054  0.1861
  930MOL0     H25500  11.292   9.775   9.784  1.7739 -2.3236  1.2040
  930MOL0     H25501  11.264   9.926  10.140 -0.9303  0.1242  1.2673
  930MOL0     H25502  11.143   9.694  10.375  1.5106 -0.0132  0.0382
  930MOL0     H25503  11.118   9.866  10.340 -0.0566 -0.2664  2.0280
  930MOL0     H25504  10.916   9.762  10.427  0.8003  1.8303  0.0937
  930MOL0     H25505  10.919   9.631  10.319 -4.3549  0.3427  0.6789
  930MOL0     H25506  10.834   9.771  10.122  0.7391 -1.4085 -0.2066
  930MOL0     H25507  10.873   9.917  10.210  0.3796 -1.0916 -3.7249
  930MOL0     H25508  10.702   9.838  10.385 -0.5143 -0.0363  0.6711
  930MOL0     H25509  10.692   9.691  10.297 -3.5481  0.6015  4.3584
  930MOL0     H25510  10.504   9.811  10.426  0.9095  3.1500  0.9853
  930MOL0     H25511  10.274   9.720  10.535 -1.3731  0.1375 -1.3922
  930MOL0     H25512  10.330   9.871  10.593  2.5017 -0.6507 -2.6502
  930MOL0     H25513  10.155   9.850  10.567  0.7950  1.4824  1.0527
  930MOL0     H25514   9.769   9.777  10.353 -1.6290 -1.2692 -0.9758
  930MOL0     H25515   9.556   9.862  10.351  0.4609  1.8337  0.6878
  930MOL0     H25516   9.348   9.875  10.193  1.2307 -0.4712  1.9007
  930MOL0     H25517   9.333   9.990  10.318  0.1774 -2.3152  0.4351
  930MOL0     H25518   9.220  10.152  10.187  1.0422  1.0017 -2.1401
  930MOL0     H25519   9.233  10.048  10.039 -1.5787  0.0673 -0.0057
  930MOL0     H25520   9.090   9.996  10.294 -0.9370 -0.8409 -0.3885
  930MOL0     H25521   9.109   9.871  10.172 -0.1201  0.4903  0.2200
  930MOL0     H25522   8.974  10.145  10.143 -4.1061 -0.2293  4.4086
  930MOL0     H25523   8.988  10.025  10.012  0.6275 -0.4952  0.5959
  930MOL0     H25524   8.772  10.024  10.152  1.9479  4.5170  2.6465
  930MOL0     H25525   8.871   9.967  10.289  0.9116 -2.4723 -0.3651
  930MOL0     H25526   8.778   9.814  10.053  0.0092 -3.1422 -0.0660
  930MOL0     H25527   8.915   9.745  10.142 -0.0814 -1.0110  0.0672
  930MOL0     H25528   8.646   9.815  10.282 -0.6427  0.2590 -3.9616
  930MOL0     H25529   8.790   9.757  10.356 -0.2698 -0.1063 -0.8085
  930MOL0     H25530   8.798   9.560  10.207  0.2879  1.6569 -2.7710
  930MOL0     H25531   8.638   9.604  10.141 -0.6779 -0.3636  0.7677
  930MOL0     H25532   9.665  10.139  10.029 -1.9891  1.0936  1.3681
  930MOL0     H25533   9.899  10.034  10.033  2.8496 -0.0990  2.6504
  930MOL0     H25534  10.178   9.938  10.067 -0.2457 -2.2556 -1.3506
  930MOL0     H25535  10.432   9.883  10.016 -1.0585 -1.6523 -0.6606
  930MOL0     H25536  10.345  10.131  10.206  0.7478 -0.1603 -0.6524
  930MOL0     H25537  10.130  10.210  10.275 -0.0749 -0.9876 -2.3585
  930MOL0     H25538   9.660  10.344  10.228  1.8098  1.0788 -1.7260
  930MOL0     H25539   9.469  10.437  10.327 -0.3036 -0.4668  2.8639
  930MOL0     H25540   9.483  10.765  10.221  0.3742  1.6549  0.1975
  930MOL0     H25541   9.316  10.690  10.255 -1.6569  0.8383  0.8098
  930MOL0     H25542   9.432  10.962  10.338  1.5362 -1.7734  0.1850
  930MOL0     H25543   9.292  10.908  10.415  0.0649 -0.9361 -0.7972
  930MOL0     H25544   9.201  10.842  10.191  0.5810  0.6780  0.3672
  930MOL0     H25545   9.338  10.943  10.114 -1.1924 -0.1017 -1.0410
  930MOL0     H25546   9.086  11.040  10.255 -0.1793 -0.4077  0.4151
  930MOL0     H25547   9.175  11.112  10.114 -0.2594  1.5593  2.3527
  930MOL0     H25548   9.379  11.304  10.413  2.5280  0.8214 -3.1922
  930MOL0     H25549   9.691  10.779  10.457 -0.3257  0.0700 -1.9240
  930MOL0     H25550   9.897  10.671  10.382  0.5995 -1.0621  1.8009
  931MOL0     O25551   0.839   5.752   0.417 -0.6402 -0.4472  0.4209
  931MOL0     C25552   0.907   5.849   0.389  0.0482 -0.3152  0.2252
  931MOL0     O25553   0.888   5.985   0.432 -0.4874  0.6538  0.4950
  931MOL0     C25554   0.784   6.027   0.502  0.2187 -0.5702  0.0865
  931MOL0     C25555   0.776   6.169   0.499 -0.4365 -0.3045 -0.1097
  931MOL0     C25556   0.680   6.225   0.576  0.4305 -0.7758 -0.2754
  931MOL0     C25557   0.575   6.157   0.643  0.2627  0.8271 -0.1592
  931MOL0     O25558   0.456   6.210   0.694 -0.1859 -0.1618 -0.2633
  931MOL0     C25559   0.399   6.324   0.630  0.1771  0.1019  0.0771
  931MOL0     C25560   0.268   6.386   0.698 -0.3189 -0.6055 -0.2804
  931MOL0     C25561   0.152   6.282   0.702  0.5319  0.1131  0.7439
  931MOL0     C25562   0.104   6.236   0.566  0.6800  0.7641  0.5591
  931MOL0     C25563   0.015   6.116   0.588  0.2150 -0.2586  0.2466
  931MOL0     C25564   0.101   5.997   0.612 -0.1632  0.2805 -0.9912
  931MOL0     C25565   0.016   5.871   0.662  0.0726  0.5485 -0.0196
  931MOL0     C25566   0.062   5.824   0.805 -0.4769 -0.0147 -0.5569
  931MOL0     N25567  -0.010   5.712   0.871  0.2989  0.7196  0.3675
  931MOL0     C25568  -0.119   5.647   0.829  0.1770 -0.1334 -0.2677
  931MOL0     C25569  -0.134   5.535   0.911 -0.2406  0.4351  0.2211
  931MOL0     C25570  -0.237   5.425   0.902 -0.1041  0.1247 -0.9173
  931MOL0     C25571  -0.373   5.474   0.944 -0.3804  0.0795  0.0715
  931MOL0     C25572  -0.476   5.385   0.879  0.1725  0.5095  0.4830
  931MOL0     C25573  -0.606   5.412   0.945 -0.3209 -0.2718  0.2957
  931MOL0     O25574  -0.638   5.540   0.908  0.0590 -0.7279  0.1897
  931MOL0     C25575  -0.744   5.591   0.977  0.2268 -0.2014  0.0173
  931MOL0     C25576  -0.767   5.721   0.945  0.4562 -0.7365 -0.7034
  931MOL0     C25577  -0.876   5.796   0.993 -0.2420 -0.0160  0.3855
  931MOL0     C25578  -0.864   5.943   0.961  0.2108  0.0273 -0.3844
  931MOL0     C25579  -0.968   5.727   1.071  0.0850  0.0203 -0.0247
  931MOL0     C25580  -1.084   5.781   1.142 -0.0209 -0.7728 -0.7863
  931MOL0     O25581  -1.196   5.705   1.175 -0.4277 -0.3775 -0.0422
  931MOL0     C25582  -1.295   5.763   1.253  0.2382  0.1353 -0.4320
  931MOL0     C25583  -1.321   5.692   1.368  0.0472 -0.4558 -0.2892
  931MOL0     C25584  -1.422   5.751   1.443 -0.1151  0.0668  0.1717
  931MOL0     C25585  -1.501   5.864   1.406 -0.1059 -0.0195 -0.4107
  931MOL0     O25586  -1.610   5.901   1.485 -0.2483  0.2419  0.7630
  931MOL0     C25587  -1.723   5.964   1.431  0.4806  0.9174 -0.3052
  931MOL0     C25588  -1.838   5.944   1.526  0.4905 -0.4208 -0.3422
  931MOL0     C25589  -1.958   6.039   1.510  0.8773  0.5836  0.6752
  931MOL0     C25590  -2.076   6.020   1.611  0.1347 -0.4009  0.3039
  931MOL0     C25591  -2.190   6.120   1.582 -0.6460  0.5320  0.0736
  931MOL0     C25592  -2.300   6.117   1.678 -0.0176 -0.3204  0.1034
  931MOL0     C25593  -2.403   6.235   1.652  0.2374  0.5069  0.8368
  931MOL0     C25594  -2.501   6.221   1.764 -0.1366 -0.3236  0.3508
  931MOL0    Cl25595  -2.626   6.325   1.731 -0.1506 -0.1296  0.3857
  931MOL0     C25596  -1.474   5.920   1.282 -0.0763  0.4147  0.2323
  931MOL0     C25597  -1.370   5.878   1.204 -0.3025  0.2194 -0.1035
  931MOL0     O25598  -1.078   5.900   1.175 -0.8243  0.1225  0.0249
  931MOL0     C25599  -0.956   5.589   1.092 -0.4153 -0.6528 -0.0098
  931MOL0     C25600  -0.845   5.524   1.047 -0.2891 -0.9158 -0.7370
  931MOL0     N25601  -0.031   5.538   1.001 -0.5076 -0.7072 -0.0917
  931MOL0     N25602   0.040   5.643   0.974 -0.1274 -0.6738 -0.5234
  931MOL0     C25603   0.581   6.017   0.651  0.2361  0.1632  0.3553
  931MOL0     C25604   0.693   5.957   0.585  1.3175  0.1422  0.1212
  931MOL0     C25605   1.027   5.813   0.309  0.1905  0.2621  0.2597
  931MOL0     C25606   1.121   5.908   0.277 -1.3414 -1.2580  0.0147
  931MOL0     C25607   1.245   5.873   0.215  0.5781 -0.4175 -0.0760
  931MOL0     C25608   1.265   5.739   0.173  0.0981  0.0689 -0.3090
  931MOL0     O25609   1.372   5.686   0.103 -0.8329  0.8118 -0.4948
  931MOL0     C25610   1.470   5.763   0.032  0.0682 -0.1887  0.2144
  931MOL0     C25611   1.570   5.839   0.125  0.0094  0.6943 -0.4152
  931MOL0     C25612   1.647   5.743   0.217  0.2142 -0.1107  0.6928
  931MOL0     C25613   1.718   5.809   0.336  0.6626  0.7356  1.0674
  931MOL0     C25614   1.817   5.902   0.282 -0.8049 -0.2456  0.3144
  931MOL0     C25615   1.906   5.965   0.231 -0.0818  0.5702  0.2922
  931MOL0     C25616   1.167   5.646   0.210 -0.8851  0.4780  0.4366
  931MOL0     C25617   1.055   5.679   0.273  0.8565 -0.0297  0.0478
  931MOL0     H25618   0.853   6.225   0.448  0.9733 -2.0438 -0.0122
  931MOL0     H25619   0.685   6.333   0.583 -4.2489 -0.0580 -3.2544
  931MOL0     H25620   0.490   6.386   0.630  1.8972 -2.0027  4.0492
  931MOL0     H25621   0.370   6.295   0.529 -1.4503  1.1975  0.2052
  931MOL0     H25622   0.296   6.417   0.799 -2.2039  2.2424 -0.5125
  931MOL0     H25623   0.234   6.477   0.649 -0.6928  1.0956  2.8788
  931MOL0     H25624   0.193   6.198   0.758 -0.5149 -1.1102 -0.2452
  931MOL0     H25625   0.069   6.327   0.757  1.1137  0.3810  1.4122
  931MOL0     H25626   0.049   6.315   0.516 -2.1026 -1.7171 -0.5864
  931MOL0     H25627   0.183   6.209   0.495  1.5694  0.5271  1.6060
  931MOL0     H25628  -0.055   6.122   0.672  0.1886 -0.5721  0.2510
  931MOL0     H25629  -0.050   6.098   0.502  2.9186 -0.6536 -1.8190
  931MOL0     H25630   0.137   5.962   0.515 -2.5909 -1.1377 -1.4507
  931MOL0     H25631   0.184   6.015   0.681 -0.9678  1.2620 -0.2517
  931MOL0     H25632  -0.092   5.889   0.660  0.2536  1.6656 -0.9612
  931MOL0     H25633   0.025   5.788   0.591  2.6277  1.2855 -0.6732
  931MOL0     H25634   0.039   5.911   0.868 -0.3010 -1.2178  1.2379
  931MOL0     H25635   0.170   5.809   0.799 -0.4234  0.3388 -0.5016
  931MOL0     H25636  -0.181   5.675   0.745  2.3291  0.0682 -1.8783
  931MOL0     H25637  -0.229   5.394   0.797 -1.5403  2.1851 -1.7047
  931MOL0     H25638  -0.210   5.340   0.965 -1.1463 -1.3674 -2.4157
  931MOL0     H25639  -0.393   5.573   0.901 -1.6830 -0.0581  0.3061
  931MOL0     H25640  -0.376   5.471   1.053  2.9229  1.1662  0.2945
  931MOL0     H25641  -0.440   5.282   0.889  0.3616  0.7243  2.3295
  931MOL0     H25642  -0.492   5.403   0.772  0.7442 -1.1594  0.0796
  931MOL0     H25643  -0.593   5.410   1.054 -1.1934  0.0238  0.4152
  931MOL0     H25644  -0.682   5.341   0.914 -0.8813  1.2829 -2.1488
  931MOL0     H25645  -0.697   5.778   0.883  1.4503 -2.1810 -0.9598
  931MOL0     H25646  -0.782   5.983   1.022  0.7437 -1.0995 -0.3454
  931MOL0     H25647  -0.845   5.971   0.857  0.8246  0.3551 -0.1905
  931MOL0     H25648  -0.959   5.990   0.991  1.8711  0.9566  4.2077
  931MOL0     H25649  -1.254   5.612   1.399  0.8152 -1.0070 -3.1073
  931MOL0     H25650  -1.424   5.708   1.543  1.2248  1.3219  0.7792
  931MOL0     H25651  -1.711   6.073   1.438 -1.1142  1.0239  1.5887
  931MOL0     H25652  -1.751   5.908   1.342 -1.2788 -2.3753  2.1010
  931MOL0     H25653  -1.872   5.840   1.524 -0.3041 -0.2060  0.7865
  931MOL0     H25654  -1.793   5.954   1.625  1.1722  3.6995 -0.9311
  931MOL0     H25655  -1.987   6.037   1.405  0.8738 -1.0684  0.6774
  931MOL0     H25656  -1.934   6.142   1.536 -0.8231  0.2576  4.2703
  931MOL0     H25657  -2.115   5.919   1.601 -0.4582 -0.0969 -0.6314
  931MOL0     H25658  -2.036   6.029   1.712 -1.8094 -0.1567  1.1116
  931MOL0     H25659  -2.227   6.100   1.481  0.5761  2.9417 -0.9464
  931MOL0     H25660  -2.143   6.219   1.572 -2.8414  1.5158 -1.6220
  931MOL0     H25661  -2.348   6.020   1.683  2.4935 -1.6952 -0.6220
  931MOL0     H25662  -2.250   6.140   1.773 -0.0578  0.6551 -0.0951
  931MOL0     H25663  -2.462   6.216   1.561  3.6506 -2.2123 -1.0559
  931MOL0     H25664  -2.351   6.331   1.649 -1.5935  1.5280  0.1617
  931MOL0     H25665  -2.451   6.242   1.859 -1.6778 -0.8476  1.3133
  931MOL0     H25666  -2.532   6.117   1.773 -1.0136  0.0302  1.7750
  931MOL0     H25667  -1.533   6.010   1.271 -0.8407  0.5051  3.8210
  931MOL0     H25668  -1.343   5.926   1.110  0.7248 -1.5770 -0.7784
  931MOL0     H25669  -1.029   5.531   1.149 -1.0193  0.8860  0.8591
  931MOL0     H25670  -0.837   5.418   1.069  1.4445 -0.2741  2.1744
  931MOL0     H25671   0.507   5.953   0.700  0.2709  0.0402  0.2481
  931MOL0     H25672   0.705   5.849   0.577 -0.4237 -0.0323 -0.7373
  931MOL0     H25673   1.102   6.009   0.312 -2.8804 -0.9094 -1.6474
  931MOL0     H25674   1.313   5.954   0.191 -0.0539  0.3872  0.7741
  931MOL0     H25675   1.535   5.704  -0.034  2.1238  2.4806 -0.3495
  931MOL0     H25676   1.426   5.849  -0.020  1.5100  1.4782  1.6099
  931MOL0     H25677   1.523   5.917   0.186  1.8880  2.1794 -0.7881
  931MOL0     H25678   1.630   5.898   0.055 -0.3503  0.8588 -0.5878
  931MOL0     H25679   1.704   5.677   0.151  0.8490  1.8326 -0.7981
  931MOL0     H25680   1.568   5.684   0.263 -2.0544  0.4944 -2.1522
  931MOL0     H25681   1.763   5.735   0.403  1.0726  2.0345  2.2559
  931MOL0     H25682   1.647   5.865   0.397  0.9175  1.3016  0.8469
  931MOL0     H25683   1.991   6.024   0.204  1.3021 -1.2908  0.3576
  931MOL0     H25684   1.193   5.550   0.168  0.9859  1.4865 -0.8469
  931MOL0     H25685   0.984   5.605   0.308  1.1763  0.6063  2.2136
  932MOL0     O25686   4.043  11.304   7.473  0.2138  0.0819 -0.4742
  932MOL0     C25687   4.042  11.238   7.575 -1.0521  0.8553 -0.6564
  932MOL0     O25688   4.154  11.199   7.639  0.1066  0.7575  0.6844
  932MOL0     C25689   4.279  11.244   7.604  0.0267  0.1197 -0.1217
  932MOL0     C25690   4.362  11.292   7.704  0.3295 -0.5116 -0.9268
  932MOL0     C25691   4.492  11.348   7.670  1.1072 -0.5921 -0.0285
  932MOL0     C25692   4.535  11.346   7.544  0.9226  0.1195 -0.4568
  932MOL0     O25693   4.662  11.393   7.526 -0.2356 -0.0960 -0.8458
  932MOL0     C25694   4.745  11.330   7.429 -0.0523  0.1096  0.4467
  932MOL0     C25695   4.884  11.383   7.449  0.0494  0.2441  0.7801
  932MOL0     C25696   4.983  11.323   7.349 -0.4690 -0.0108  0.1820
  932MOL0     C25697   5.134  11.357   7.398  0.4949 -0.3073 -0.4420
  932MOL0     C25698   5.225  11.377   7.275 -0.7068 -0.2306  1.2776
  932MOL0     C25699   5.379  11.404   7.307  0.3802  0.6575 -0.7840
  932MOL0     C25700   5.454  11.436   7.176 -0.5480 -0.5161 -0.1552
  932MOL0     C25701   5.537  11.571   7.199 -0.4096  1.0853  1.3799
  932MOL0     N25702   5.624  11.575   7.082 -0.4180 -0.0342  0.5729
  932MOL0     C25703   5.692  11.686   7.047 -0.5013 -0.0211  0.2021
  932MOL0     C25704   5.751  11.651   6.928  0.6816  0.0502  0.2152
  932MOL0     C25705   5.830  11.750   6.841 -0.6056  0.1048 -0.4680
  932MOL0     C25706   5.757  11.756   6.707 -0.2793  0.5047  0.1681
  932MOL0     C25707   5.806  11.866   6.622  0.3340 -0.0022  0.4847
  932MOL0     C25708   5.701  11.894   6.520 -0.0876 -0.1384  0.0865
  932MOL0     O25709   5.759  11.985   6.418 -0.0003  0.0753  0.0860
  932MOL0     C25710   5.837  11.928   6.324  0.4706 -0.3903  0.7515
  932MOL0     C25711   5.845  11.790   6.293 -0.8246  0.5585  0.2334
  932MOL0     C25712   5.939  11.739   6.196  0.2236 -0.2620 -0.2652
  932MOL0     C25713   5.937  11.590   6.162 -0.6662 -0.5216  0.1357
  932MOL0     C25714   6.023  11.826   6.123  0.6031  0.2411  0.6308
  932MOL0     C25715   6.134  11.778   6.020  0.3488  0.0105 -0.9051
  932MOL0     O25716   6.222  11.879   5.993  0.3101  0.6274 -0.7335
  932MOL0     C25717   6.349  11.855   5.947 -0.1110  0.0652  0.7701
  932MOL0     C25718   6.406  11.725   5.937  1.2939  0.3722  0.5081
  932MOL0     C25719   6.523  11.699   5.864  0.0309 -0.5006 -0.1260
  932MOL0     C25720   6.612  11.804   5.822  0.4353  0.2114 -0.5143
  932MOL0     O25721   6.728  11.781   5.762 -0.8244  1.0526 -0.2056
  932MOL0     C25722   6.820  11.898   5.745 -0.1546 -0.4385  0.0214
  932MOL0     C25723   6.952  11.854   5.686 -0.8585 -0.2711 -0.0988
  932MOL0     C25724   7.057  11.966   5.690 -0.1098 -0.5477 -0.7006
  932MOL0     C25725   7.193  11.923   5.627 -0.6297  0.1121  0.2221
  932MOL0     C25726   7.308  12.035   5.639 -0.0430 -0.1595  0.2133
  932MOL0     C25727   7.357  12.071   5.780 -0.5412 -0.3385 -0.6986
  932MOL0     C25728   7.448  12.205   5.780  0.4527 -0.0837 -0.4266
  932MOL0     C25729   7.571  12.195   5.685 -0.6991  0.6945 -0.1460
  932MOL0    Cl25730   7.651  12.035   5.715  0.1929  0.0032 -0.3617
  932MOL0     C25731   6.563  11.934   5.843  0.0456  0.2544  0.5160
  932MOL0     C25732   6.429  11.956   5.891 -0.0572 -0.1659  0.3384
  932MOL0     O25733   6.130  11.669   5.961 -0.3718 -0.6693 -0.5812
  932MOL0     C25734   6.002  11.967   6.156  0.5019 -0.5424 -0.3728
  932MOL0     C25735   5.918  12.016   6.253  0.3274 -0.1708 -0.6602
  932MOL0     N25736   5.710  11.527   6.881  0.0048 -0.7232 -0.6810
  932MOL0     N25737   5.638  11.486   6.980  0.0693 -0.4208 -1.2162
  932MOL0     C25738   4.455  11.295   7.438  0.4447 -1.1294  0.3340
  932MOL0     C25739   4.320  11.246   7.471 -0.5058  0.0430  0.4602
  932MOL0     C25740   3.923  11.201   7.654  0.0181 -0.3198  0.4260
  932MOL0     C25741   3.932  11.149   7.782 -0.1585 -0.8045  0.2359
  932MOL0     C25742   3.820  11.122   7.858  0.6048 -0.1571  0.0671
  932MOL0     C25743   3.695  11.137   7.800  0.2010  0.6647 -0.5688
  932MOL0     O25744   3.580  11.095   7.860 -0.1986 -0.4613  0.1908
  932MOL0     C25745   3.577  11.034   7.993  0.5810 -0.2299 -0.0335
  932MOL0     C25746   3.557  11.140   8.105 -0.1026  0.5881 -1.6807
  932MOL0     C25747   3.556  11.075   8.242 -0.0943  0.5468 -0.2517
  932MOL0     C25748   3.591  11.179   8.348 -0.8468  0.4708  0.2029
  932MOL0     C25749   3.597  11.102   8.476 -0.4205 -1.1480 -0.2413
  932MOL0     C25750   3.603  11.044   8.584  0.2541 -0.0936  0.2103
  932MOL0     C25751   3.681  11.189   7.669  0.1497  0.1687 -0.6809
  932MOL0     C25752   3.798  11.227   7.601 -1.5256 -0.1924  0.0269
  932MOL0     H25753   4.338  11.303   7.809  2.1917  0.9259 -0.5925
  932MOL0     H25754   4.554  11.388   7.750  1.0486 -2.0965  0.7959
  932MOL0     H25755   4.741  11.221   7.434 -2.6896  0.1430  0.5810
  932MOL0     H25756   4.718  11.366   7.329  2.0721 -2.8099 -1.3258
  932MOL0     H25757   4.887  11.489   7.423 -0.9312 -0.2904 -1.7857
  932MOL0     H25758   4.913  11.384   7.554 -3.2271  2.3973  1.8022
  932MOL0     H25759   4.962  11.216   7.346 -0.8695  0.0714  0.0969
  932MOL0     H25760   4.966  11.354   7.246  2.9961 -2.9452 -1.4891
  932MOL0     H25761   5.123  11.453   7.449 -0.8979 -1.1104  0.8641
  932MOL0     H25762   5.168  11.298   7.484 -4.6005 -2.2700  0.5805
  932MOL0     H25763   5.215  11.293   7.207  0.9355 -1.3404  2.3274
  932MOL0     H25764   5.189  11.470   7.230 -0.5026 -0.7000  0.1100
  932MOL0     H25765   5.399  11.482   7.381 -1.1609  1.3209 -1.0228
  932MOL0     H25766   5.419  11.309   7.344  2.1422  0.4611 -2.9913
  932MOL0     H25767   5.516  11.350   7.146 -1.7616 -1.7655  0.8310
  932MOL0     H25768   5.386  11.475   7.099 -1.6155  3.7281  2.6165
  932MOL0     H25769   5.592  11.571   7.293 -0.8397 -2.2533  1.7473
  932MOL0     H25770   5.459  11.648   7.201 -1.3154  0.3181 -0.7758
  932MOL0     H25771   5.705  11.779   7.102  1.2167 -0.4790  0.6586
  932MOL0     H25772   5.826  11.847   6.891 -0.8265 -1.9347  3.8718
  932MOL0     H25773   5.932  11.709   6.839 -0.0451  1.2862  1.4903
  932MOL0     H25774   5.650  11.766   6.724 -0.1240  1.7255  0.4754
  932MOL0     H25775   5.780  11.663   6.653  0.5206  0.6035  0.3191
  932MOL0     H25776   5.905  11.851   6.578  0.8494  3.1893  0.3443
  932MOL0     H25777   5.822  11.959   6.677  2.4671  1.9460 -3.0791
  932MOL0     H25778   5.616  11.937   6.573  1.7183  1.7233  1.6026
  932MOL0     H25779   5.675  11.795   6.480  0.9022 -0.1679 -0.5133
  932MOL0     H25780   5.793  11.708   6.342 -0.1831  0.2354  0.3901
  932MOL0     H25781   5.933  11.584   6.053  0.8174 -1.4268  0.1016
  932MOL0     H25782   6.030  11.550   6.203  0.2683  1.9328  0.5444
  932MOL0     H25783   5.852  11.540   6.210  0.0801 -0.8927  1.1071
  932MOL0     H25784   6.368  11.630   5.975 -2.3776  1.3899 -0.2176
  932MOL0     H25785   6.552  11.600   5.832  0.0208 -0.8656  0.9491
  932MOL0     H25786   6.792  11.985   5.685  2.2166 -0.0265 -0.5807
  932MOL0     H25787   6.831  11.929   5.850  1.5670 -2.7051  0.5728
  932MOL0     H25788   6.990  11.773   5.748  0.5356 -1.7464 -2.7029
  932MOL0     H25789   6.934  11.821   5.583 -1.5113 -0.1633 -0.0209
  932MOL0     H25790   7.073  11.992   5.795 -2.3025 -1.2739 -0.1370
  932MOL0     H25791   7.018  12.054   5.639 -0.2580 -0.4716 -0.4556
  932MOL0     H25792   7.221  11.825   5.666  0.7799 -0.4089 -1.9466
  932MOL0     H25793   7.177  11.904   5.521  0.1168  1.9858 -0.2622
  932MOL0     H25794   7.276  12.131   5.597  3.5315  0.2446 -2.0114
  932MOL0     H25795   7.395  12.008   5.579 -0.2770  1.1995 -0.7895
  932MOL0     H25796   7.283  12.080   5.860  1.2010 -1.4068  1.1281
  932MOL0     H25797   7.418  11.987   5.815  0.7680  1.8916  2.8759
  932MOL0     H25798   7.478  12.233   5.881 -0.4306  0.9561 -0.4319
  932MOL0     H25799   7.386  12.291   5.751  0.0362 -0.6061 -1.1180
  932MOL0     H25800   7.638  12.278   5.709 -1.2130  2.0522 -2.9714
  932MOL0     H25801   7.536  12.196   5.581 -0.0401  1.0851 -0.3719
  932MOL0     H25802   6.620  12.019   5.808  1.8569 -0.5564  1.3849
  932MOL0     H25803   6.393  12.058   5.893  0.3585  0.1376 -2.9097
  932MOL0     H25804   6.056  12.040   6.096 -0.3517 -2.0447 -3.1245
  932MOL0     H25805   5.919  12.122   6.274  1.1313  0.0141 -1.5440
  932MOL0     H25806   4.491  11.292   7.336 -0.1932 -0.6581  0.0873
  932MOL0     H25807   4.250  11.210   7.396 -0.7019 -0.6624  0.9737
  932MOL0     H25808   4.031  11.132   7.823  2.0394  1.8545 -3.4463
  932MOL0     H25809   3.838  11.077   7.955  1.3647 -2.1465 -0.9509
  932MOL0     H25810   3.492  10.966   7.996  1.1317 -1.0544 -1.8417
  932MOL0     H25811   3.660  10.965   8.008 -0.7678 -1.8834  0.1531
  932MOL0     H25812   3.461  11.192   8.097  0.8125  2.2581 -2.1034
  932MOL0     H25813   3.629  11.221   8.094 -0.3057  1.5200  2.1984
  932MOL0     H25814   3.632  10.996   8.242  0.6365  1.2258  1.1687
  932MOL0     H25815   3.457  11.031   8.257 -0.4966  1.5066 -0.0619
  932MOL0     H25816   3.507  11.249   8.360 -0.9810  0.1718  1.0793
  932MOL0     H25817   3.680  11.234   8.316  0.1790 -1.5609 -0.5971
  932MOL0     H25818   3.601  10.973   8.663 -0.8560 -1.2085 -0.7729
  932MOL0     H25819   3.578  11.201   7.637 -0.1807  0.7511  0.5345
  932MOL0     H25820   3.799  11.265   7.499  2.2697  0.7461  0.2665
  933MOL0     O25821   4.563   4.220   4.791 -0.3953 -0.3893  0.6430
  933MOL0     C25822   4.618   4.240   4.897 -0.0003  0.3052 -0.0338
  933MOL0     O25823   4.563   4.221   5.017 -0.1553  0.6850 -0.3856
  933MOL0     C25824   4.449   4.137   5.012  0.0309  0.7592 -0.1083
  933MOL0     C25825   4.462   4.000   4.983  0.6420  0.2638  0.1141
  933MOL0     C25826   4.350   3.917   4.988  0.2790 -0.4936  0.1541
  933MOL0     C25827   4.218   3.966   5.000 -0.0149  0.0851 -1.0991
  933MOL0     O25828   4.111   3.890   5.015  0.5599  0.2924 -0.8348
  933MOL0     C25829   4.118   3.776   5.097  0.7122  0.0936 -0.2000
  933MOL0     C25830   3.980   3.719   5.095  0.3348 -0.7081  0.2765
  933MOL0     C25831   3.931   3.667   4.963 -0.5024 -0.1989  0.1196
  933MOL0     C25832   3.787   3.595   4.985 -0.0159  0.3742 -1.1540
  933MOL0     C25833   3.721   3.531   4.870 -1.1925  0.2019  0.6865
  933MOL0     C25834   3.816   3.455   4.773 -0.2381  0.0250 -0.3562
  933MOL0     C25835   3.735   3.408   4.657  0.8603  0.5386 -0.1328
  933MOL0     C25836   3.655   3.280   4.692 -0.7013  0.2552  0.3945
  933MOL0     N25837   3.513   3.308   4.706  0.0074  0.0875  0.4804
  933MOL0     C25838   3.427   3.212   4.754 -0.4533 -0.3462  0.3234
  933MOL0     C25839   3.308   3.265   4.735  0.1216 -0.2502  0.0741
  933MOL0     C25840   3.177   3.198   4.757  0.1227  0.3913  0.0080
  933MOL0     C25841   3.131   3.121   4.631 -0.3653  0.3894  0.3349
  933MOL0     C25842   3.058   3.217   4.520 -0.0078 -0.4728  0.1373
  933MOL0     C25843   2.992   3.148   4.404  0.8001 -0.0478 -0.6480
  933MOL0     O25844   2.877   3.068   4.449 -0.5902 -0.0808  0.4927
  933MOL0     C25845   2.766   3.131   4.480  0.6926 -0.9777 -0.0564
  933MOL0     C25846   2.653   3.058   4.524 -0.3822  0.3271 -0.0673
  933MOL0     C25847   2.529   3.116   4.549  1.0205  0.3382  0.4913
  933MOL0     C25848   2.413   3.023   4.581 -0.1702 -0.2601 -0.0073
  933MOL0     C25849   2.517   3.261   4.543 -0.3023  0.5065  0.4012
  933MOL0     C25850   2.395   3.333   4.587  0.2156 -1.3925 -0.3966
  933MOL0     O25851   2.378   3.467   4.551 -0.2258 -0.4608 -0.1236
  933MOL0     C25852   2.251   3.516   4.545  0.4660 -0.1882  0.7098
  933MOL0     C25853   2.133   3.438   4.526 -0.5788 -0.8395 -0.9009
  933MOL0     C25854   2.004   3.488   4.497  0.0035 -0.8875  0.1467
  933MOL0     C25855   1.996   3.629   4.498  0.0829 -0.1474 -0.2224
  933MOL0     O25856   1.873   3.693   4.481  0.7253  0.6682 -0.1633
  933MOL0     C25857   1.758   3.633   4.538  0.2397 -0.2460  0.1001
  933MOL0     C25858   1.672   3.758   4.564 -1.4043  0.4575 -0.2389
  933MOL0     C25859   1.739   3.840   4.672  0.4315 -0.6656 -0.5583
  933MOL0     C25860   1.631   3.885   4.778 -0.4681 -0.3964 -0.2163
  933MOL0     C25861   1.710   3.979   4.882  0.8168 -0.6327  0.9783
  933MOL0     C25862   1.611   4.030   4.988  0.7416  0.1657 -0.4546
  933MOL0     C25863   1.681   4.128   5.086 -0.1147  0.0910  0.3977
  933MOL0     C25864   1.613   4.135   5.220 -0.2455  0.3142 -0.2715
  933MOL0    Cl25865   1.445   4.178   5.187 -0.0773  0.0384  0.3202
  933MOL0     C25866   2.115   3.705   4.507  0.4811  0.2283 -0.5179
  933MOL0     C25867   2.237   3.658   4.531 -0.0422  0.0114 -0.4749
  933MOL0     O25868   2.320   3.279   4.664 -0.4147  0.0810 -0.8331
  933MOL0     C25869   2.626   3.334   4.495  0.3615 -0.3676 -0.0400
  933MOL0     C25870   2.748   3.270   4.465 -0.3305  0.5516 -0.2178
  933MOL0     N25871   3.322   3.390   4.677  0.3111 -0.1201 -0.5116
  933MOL0     N25872   3.446   3.410   4.648 -0.0979  0.1189 -1.1835
  933MOL0     C25873   4.212   4.101   5.032 -0.1317  0.5398 -0.1408
  933MOL0     C25874   4.318   4.183   5.026  0.2555  0.8963 -0.7901
  933MOL0     C25875   4.743   4.322   4.891  0.5791  0.2930 -0.9948
  933MOL0     C25876   4.777   4.398   5.006 -0.4439  0.5284 -0.8266
  933MOL0     C25877   4.903   4.468   5.011 -0.0789 -0.1549 -0.2420
  933MOL0     C25878   4.988   4.468   4.889  0.9607  0.3764 -0.7575
  933MOL0     O25879   5.113   4.531   4.884  0.6613 -0.0485  0.4023
  933MOL0     C25880   5.174   4.558   5.010  0.2927 -1.2721  0.7730
  933MOL0     C25881   5.325   4.548   5.003  0.1594  0.0218 -0.2735
  933MOL0     C25882   5.388   4.674   4.942 -0.7360 -0.3491 -0.0441
  933MOL0     C25883   5.365   4.709   4.792 -0.2866 -0.1854 -1.4210
  933MOL0     C25884   5.341   4.604   4.693 -0.2542  0.8410  0.4281
  933MOL0     C25885   5.317   4.507   4.623 -0.3820  0.2471  0.3460
  933MOL0     C25886   4.933   4.406   4.770 -0.3574  0.3807  1.0633
  933MOL0     C25887   4.816   4.330   4.775  0.1234 -0.7112  0.0556
  933MOL0     H25888   4.558   3.950   4.973  0.0750 -0.9641  0.5052
  933MOL0     H25889   4.360   3.809   4.975 -0.8386 -0.9640  2.7203
  933MOL0     H25890   4.184   3.702   5.050  1.3281  2.4172 -3.2839
  933MOL0     H25891   4.158   3.810   5.193  0.6133  1.2378 -0.5459
  933MOL0     H25892   3.961   3.647   5.175 -1.3060  0.6850  1.2017
  933MOL0     H25893   3.916   3.803   5.121 -0.5221 -0.5687 -2.0714
  933MOL0     H25894   3.929   3.742   4.883  1.7949 -0.6904 -0.4546
  933MOL0     H25895   4.009   3.597   4.933 -1.0837 -1.7381  2.0358
  933MOL0     H25896   3.821   3.516   5.052  1.8569 -1.0550 -3.6111
  933MOL0     H25897   3.713   3.655   5.038  0.2892 -1.3085  1.3529
  933MOL0     H25898   3.643   3.459   4.897  0.2036 -2.0540 -0.9092
  933MOL0     H25899   3.674   3.616   4.819 -0.8790  0.0155  0.0732
  933MOL0     H25900   3.899   3.518   4.738 -1.2262  1.1851 -0.6589
  933MOL0     H25901   3.852   3.370   4.831 -0.2317  0.8249  0.8635
  933MOL0     H25902   3.677   3.488   4.610 -1.8066 -1.0026  0.3631
  933MOL0     H25903   3.814   3.376   4.589  0.1051  0.6366 -1.0666
  933MOL0     H25904   3.698   3.214   4.767 -0.8185  0.8609  1.0049
  933MOL0     H25905   3.657   3.222   4.599  0.7590  2.0595 -0.7771
  933MOL0     H25906   3.465   3.125   4.807 -1.8616  0.0018  2.0219
  933MOL0     H25907   3.201   3.125   4.836  0.8440  1.2326  0.5928
  933MOL0     H25908   3.102   3.269   4.792 -1.2352 -0.3074 -1.3859
  933MOL0     H25909   3.058   3.045   4.659 -1.4040  1.3426  0.3079
  933MOL0     H25910   3.211   3.073   4.574  0.4951 -1.0866  2.6515
  933MOL0     H25911   3.137   3.282   4.483  1.2518 -1.8916  0.2549
  933MOL0     H25912   2.977   3.275   4.566 -0.6577  1.1559 -2.8443
  933MOL0     H25913   3.059   3.072   4.363  1.4453  0.6152 -0.8533
  933MOL0     H25914   2.962   3.207   4.317 -0.8448 -0.6817 -0.5461
  933MOL0     H25915   2.670   2.951   4.540 -1.5706  0.2585  0.9189
  933MOL0     H25916   2.321   3.050   4.528  1.6098  3.8882 -1.4249
  933MOL0     H25917   2.436   2.918   4.565  3.9130  0.0267  2.4818
  933MOL0     H25918   2.379   3.041   4.683 -1.7313  1.7887 -0.8091
  933MOL0     H25919   2.124   3.330   4.525 -0.6912 -0.9060  1.3849
  933MOL0     H25920   1.918   3.423   4.487 -0.2707 -0.3504 -1.0991
  933MOL0     H25921   1.705   3.565   4.471  0.1728  0.2448 -0.3538
  933MOL0     H25922   1.782   3.581   4.631 -1.2144 -1.6458 -0.2676
  933MOL0     H25923   1.666   3.813   4.470  1.4477 -1.0763 -1.4330
  933MOL0     H25924   1.569   3.729   4.591 -2.3944  3.1695 -0.8150
  933MOL0     H25925   1.785   3.932   4.634 -1.3480  0.3410 -0.3976
  933MOL0     H25926   1.816   3.782   4.724 -0.1408 -0.0892  1.0163
  933MOL0     H25927   1.547   3.945   4.741  0.5935  2.7127  1.9394
  933MOL0     H25928   1.576   3.798   4.813 -1.5022  0.6019  0.7170
  933MOL0     H25929   1.743   4.064   4.821 -0.8726  1.7464  3.1593
  933MOL0     H25930   1.789   3.924   4.935  1.3556  1.3478  2.3637
  933MOL0     H25931   1.535   4.087   4.933  0.6463  1.9607  1.3805
  933MOL0     H25932   1.562   3.947   5.039  0.4015 -2.0818 -4.1008
  933MOL0     H25933   1.686   4.226   5.037  1.4808 -0.2676 -0.2224
  933MOL0     H25934   1.787   4.102   5.098 -0.4033 -0.7960  1.1340
  933MOL0     H25935   1.655   4.201   5.296 -0.3469 -0.2043  0.2431
  933MOL0     H25936   1.611   4.037   5.268  0.2520 -0.1538 -1.1716
  933MOL0     H25937   2.103   3.813   4.509  2.8480  0.5602 -1.5189
  933MOL0     H25938   2.318   3.730   4.539  0.2769 -0.2592 -1.1854
  933MOL0     H25939   2.608   3.441   4.490 -3.0190 -0.6228  2.8224
  933MOL0     H25940   2.830   3.334   4.433 -1.0162  2.1255  1.0551
  933MOL0     H25941   4.117   4.143   5.064 -0.2746  1.7137 -1.9296
  933MOL0     H25942   4.304   4.282   5.069  1.1839  0.1337  1.4072
  933MOL0     H25943   4.720   4.410   5.097  1.5430  3.8676  0.1718
  933MOL0     H25944   4.932   4.513   5.105 -1.0904 -3.2691  1.7100
  933MOL0     H25945   5.143   4.659   5.038  0.6549 -0.9616  0.0733
  933MOL0     H25946   5.148   4.486   5.089 -2.5604  1.7650  2.8866
  933MOL0     H25947   5.364   4.461   4.948  4.9531  1.5845  0.1232
  933MOL0     H25948   5.361   4.533   5.105 -0.4463 -0.1796 -0.0853
  933MOL0     H25949   5.494   4.654   4.964 -1.2423 -0.3981  2.6446
  933MOL0     H25950   5.349   4.759   4.997  0.1248  0.1665 -0.2106
  933MOL0     H25951   5.461   4.757   4.770 -0.1607  0.3765  0.2208
  933MOL0     H25952   5.281   4.778   4.787 -0.2511 -0.0946 -0.8031
  933MOL0     H25953   5.307   4.410   4.580 -0.2581  0.6735 -0.6653
  933MOL0     H25954   4.982   4.406   4.673 -2.1313 -1.7551  0.0545
  933MOL0     H25955   4.793   4.282   4.681  0.3372 -2.1606  0.7182
  934MOL0     O25956   9.320   1.304   4.268  0.4825 -0.0293  0.2467
  934MOL0     C25957   9.434   1.347   4.264  0.0790 -0.5100 -0.5029
  934MOL0     O25958   9.486   1.446   4.182 -0.2718 -1.1622  0.0666
  934MOL0     C25959   9.389   1.524   4.110  0.4491  0.1228  0.8273
  934MOL0     C25960   9.385   1.662   4.118  0.0742 -0.4329  0.0878
  934MOL0     C25961   9.307   1.734   4.037  0.8981  0.6914  0.7926
  934MOL0     C25962   9.212   1.676   3.950 -0.0725 -0.1605 -0.0755
  934MOL0     O25963   9.146   1.764   3.867 -0.3281  0.2702 -0.0398
  934MOL0     C25964   9.039   1.717   3.778 -0.6500  0.7811 -0.1661
  934MOL0     C25965   8.919   1.655   3.838 -0.0298 -0.4437  0.3451
  934MOL0     C25966   8.851   1.758   3.932  0.4296 -0.4958 -0.6704
  934MOL0     C25967   8.714   1.707   3.991  0.3095  0.2908  0.5947
  934MOL0     C25968   8.645   1.814   4.085  0.4708 -0.1907 -0.2544
  934MOL0     C25969   8.515   1.766   4.139  0.4578 -0.3689  2.0820
  934MOL0     C25970   8.465   1.874   4.239 -0.0998 -0.2048 -0.1118
  934MOL0     C25971   8.425   2.001   4.172 -0.4807 -0.4872 -0.6747
  934MOL0     N25972   8.383   2.096   4.274  0.4661 -0.5449  0.0496
  934MOL0     C25973   8.253   2.128   4.310 -0.8577 -0.2837  0.3890
  934MOL0     C25974   8.257   2.248   4.373  0.3473 -0.0771 -0.2307
  934MOL0     C25975   8.146   2.325   4.438  0.1736  0.6012 -0.1516
  934MOL0     C25976   8.048   2.377   4.339  0.4211 -0.3129 -0.5540
  934MOL0     C25977   7.923   2.455   4.403 -0.0181 -0.3390  0.3195
  934MOL0     C25978   7.803   2.453   4.310  0.3812  0.0614 -0.0248
  934MOL0     O25979   7.689   2.530   4.361  0.2846 -0.0519  0.9349
  934MOL0     C25980   7.558   2.495   4.319 -0.0845 -0.1447  0.1701
  934MOL0     C25981   7.527   2.441   4.196  0.1548  0.1280 -0.2370
  934MOL0     C25982   7.400   2.400   4.165  0.6313  0.3853  0.2936
  934MOL0     C25983   7.383   2.325   4.037  0.0657 -0.1339 -0.0151
  934MOL0     C25984   7.294   2.423   4.260  1.3278 -0.1218 -0.1599
  934MOL0     C25985   7.152   2.364   4.253  0.2775 -1.1054  0.4583
  934MOL0     O25986   7.070   2.375   4.366 -0.2954 -0.0772 -0.7750
  934MOL0     C25987   6.949   2.314   4.366 -0.5292  0.1645  0.3752
  934MOL0     C25988   6.917   2.180   4.341  0.1247  0.0075 -0.3246
  934MOL0     C25989   6.783   2.131   4.341  0.0558  1.0370 -0.1803
  934MOL0     C25990   6.690   2.218   4.389 -0.7173  0.4728 -0.3796
  934MOL0     O25991   6.557   2.187   4.406  0.1788 -0.5348  0.9097
  934MOL0     C25992   6.524   2.046   4.441 -0.3642  0.5515  0.1862
  934MOL0     C25993   6.379   2.013   4.436  0.7375  0.1283  0.6968
  934MOL0     C25994   6.309   2.092   4.545  0.0044  0.6279  0.0755
  934MOL0     C25995   6.166   2.047   4.558  0.9447 -0.1756 -0.5391
  934MOL0     C25996   6.074   2.158   4.595 -0.5137 -1.3054 -0.4877
  934MOL0     C25997   6.128   2.226   4.722 -0.0129 -1.0843 -0.2240
  934MOL0     C25998   6.018   2.293   4.816 -0.2366 -0.1299 -0.3539
  934MOL0     C25999   6.087   2.411   4.882 -0.1769  0.6036 -0.3179
  934MOL0    Cl26000   5.953   2.464   4.995  0.1589 -0.8567 -0.1073
  934MOL0     C26001   6.719   2.359   4.412  0.0887 -0.1941  0.0006
  934MOL0     C26002   6.850   2.400   4.389  0.0606 -0.5467  0.4786
  934MOL0     O26003   7.126   2.289   4.159  0.4803 -0.1320  0.4387
  934MOL0     C26004   7.328   2.480   4.383 -0.2541  0.2281 -0.8332
  934MOL0     C26005   7.457   2.515   4.413 -0.0987 -0.0099  0.5069
  934MOL0     N26006   8.391   2.269   4.407  0.2410  0.4271  0.3548
  934MOL0     N26007   8.466   2.183   4.336 -0.1334 -1.5345 -0.9741
  934MOL0     C26008   9.211   1.531   3.943  0.5872  0.2036  0.8297
  934MOL0     C26009   9.306   1.457   4.012  0.8785 -0.0621  0.1238
  934MOL0     C26010   9.531   1.277   4.356 -0.4754  0.2752 -1.0127
  934MOL0     C26011   9.644   1.333   4.423 -0.1679  0.2796 -0.6646
  934MOL0     C26012   9.737   1.251   4.493  0.3055  0.4534  0.1216
  934MOL0     C26013   9.695   1.116   4.514 -0.4689  1.0013  0.1621
  934MOL0     O26014   9.766   1.038   4.607  0.1119  0.2611  1.2268
  934MOL0     C26015   9.886   1.084   4.672 -0.0324 -0.1637 -0.1660
  934MOL0     C26016   9.947   0.962   4.738  0.3352  0.6344  0.2589
  934MOL0     C26017  10.021   0.865   4.645 -0.4924  0.1710  0.0453
  934MOL0     C26018  10.164   0.921   4.614 -0.4356 -0.1006  1.0536
  934MOL0     C26019  10.255   0.896   4.720 -0.2358  1.1516 -0.1271
  934MOL0     C26020  10.339   0.859   4.802 -0.3193  0.3437 -0.1069
  934MOL0     C26021   9.584   1.054   4.454 -0.6752 -0.1054  0.1434
  934MOL0     C26022   9.509   1.141   4.376 -0.7698 -0.9088 -0.0317
  934MOL0     H26023   9.446   1.712   4.193 -1.3324  1.0425  0.3256
  934MOL0     H26024   9.330   1.840   4.041 -1.9627  1.3622  1.4276
  934MOL0     H26025   9.009   1.795   3.707  1.9511  0.1515 -2.1033
  934MOL0     H26026   9.080   1.652   3.701 -1.7927 -1.3619  0.9377
  934MOL0     H26027   8.845   1.636   3.760 -1.0836  2.0616  0.6303
  934MOL0     H26028   8.947   1.561   3.887  1.9743 -0.1564 -0.1817
  934MOL0     H26029   8.911   1.777   4.021  2.0429  0.1931 -1.8593
  934MOL0     H26030   8.828   1.847   3.872  3.0287 -0.3816 -1.6114
  934MOL0     H26031   8.639   1.681   3.915 -0.1920  2.0166  0.4359
  934MOL0     H26032   8.740   1.616   4.045  1.0948 -1.6547 -2.7360
  934MOL0     H26033   8.706   1.830   4.174  0.3068 -2.8305  0.4142
  934MOL0     H26034   8.645   1.912   4.035  0.6871 -0.6590 -1.1873
  934MOL0     H26035   8.447   1.757   4.053  1.9909  1.7048  0.5332
  934MOL0     H26036   8.522   1.670   4.190  1.4901 -1.2161  0.4488
  934MOL0     H26037   8.377   1.836   4.291 -1.1791  0.0365 -1.7105
  934MOL0     H26038   8.540   1.892   4.317  1.8653 -0.8177 -1.7743
  934MOL0     H26039   8.354   1.976   4.092  0.1459 -0.2892 -1.2999
  934MOL0     H26040   8.514   2.044   4.126  1.0346 -2.2360  0.4744
  934MOL0     H26041   8.166   2.064   4.298 -0.5379 -0.6110 -0.2292
  934MOL0     H26042   8.092   2.247   4.493  1.4305  0.8404  1.4745
  934MOL0     H26043   8.173   2.414   4.495 -2.0588  2.9075 -2.4175
  934MOL0     H26044   8.012   2.289   4.286 -1.1436  0.9916 -1.7812
  934MOL0     H26045   8.087   2.443   4.261 -0.9226  0.2293 -0.8046
  934MOL0     H26046   7.956   2.559   4.412 -2.5175  0.3268  3.2143
  934MOL0     H26047   7.887   2.420   4.500 -2.8774  1.1870 -0.0741
  934MOL0     H26048   7.769   2.353   4.280 -0.1595 -0.1122  1.1204
  934MOL0     H26049   7.848   2.490   4.217  1.0619 -1.0936 -0.1909
  934MOL0     H26050   7.606   2.425   4.124  0.9094 -0.8068  0.7652
  934MOL0     H26051   7.473   2.328   3.976  0.8688  0.8560  1.1704
  934MOL0     H26052   7.350   2.221   4.047  1.1025 -0.3220  1.6726
  934MOL0     H26053   7.301   2.382   3.990  0.7732  1.8188  1.0235
  934MOL0     H26054   6.998   2.109   4.326 -0.7725 -1.5941  1.8743
  934MOL0     H26055   6.774   2.026   4.317  0.1801  1.1202 -0.6157
  934MOL0     H26056   6.567   1.981   4.365  0.4474  3.0385 -1.6017
  934MOL0     H26057   6.576   2.025   4.535 -0.5224 -0.6943  0.0110
  934MOL0     H26058   6.339   2.040   4.337  0.0254 -2.5163  0.1817
  934MOL0     H26059   6.361   1.906   4.440  0.5462  0.1103 -0.2458
  934MOL0     H26060   6.309   2.195   4.506  3.5814  0.5358 -0.5072
  934MOL0     H26061   6.362   2.097   4.640  1.8692  2.9106 -0.9686
  934MOL0     H26062   6.129   2.005   4.464  1.0709  0.1476 -0.7348
  934MOL0     H26063   6.172   1.970   4.636 -0.3508 -1.5795 -1.7349
  934MOL0     H26064   5.973   2.119   4.607 -1.5998  1.3562 -0.5108
  934MOL0     H26065   6.075   2.233   4.515  0.9182 -2.6011 -1.7640
  934MOL0     H26066   6.187   2.156   4.781 -0.9751 -3.4085 -1.8589
  934MOL0     H26067   6.208   2.298   4.702 -0.2574 -0.1583  1.9057
  934MOL0     H26068   5.967   2.224   4.883  0.3249 -2.9150 -2.6067
  934MOL0     H26069   5.937   2.327   4.750  1.7998 -1.7063 -3.9214
  934MOL0     H26070   6.106   2.490   4.808  0.5640 -1.1255 -2.0700
  934MOL0     H26071   6.182   2.386   4.931  0.5549  1.7315 -1.1161
  934MOL0     H26072   6.642   2.423   4.452 -0.7200 -0.5018 -1.0098
  934MOL0     H26073   6.865   2.507   4.404  0.8813 -0.3522 -1.4652
  934MOL0     H26074   7.245   2.497   4.451  0.2373  1.1837 -0.4557
  934MOL0     H26075   7.469   2.564   4.510  1.8658  0.9365 -0.1541
  934MOL0     H26076   9.149   1.488   3.864 -0.6825  0.9232  1.4038
  934MOL0     H26077   9.330   1.352   3.998  2.7637  0.2446  0.8239
  934MOL0     H26078   9.658   1.441   4.417 -1.0686  0.3606 -1.5022
  934MOL0     H26079   9.818   1.308   4.538 -0.3285  3.6316 -2.3894
  934MOL0     H26080   9.957   1.130   4.603 -2.1219  3.6958 -0.0595
  934MOL0     H26081   9.856   1.152   4.753  1.1164 -0.6521  0.6907
  934MOL0     H26082   9.866   0.907   4.787  0.2667 -1.7683 -2.3484
  934MOL0     H26083  10.025   0.996   4.807 -2.1533  2.6501  2.2854
  934MOL0     H26084   9.960   0.847   4.556  1.5572  0.0812 -1.4069
  934MOL0     H26085  10.038   0.766   4.690  2.3487  0.9063  0.7879
  934MOL0     H26086  10.169   1.028   4.593  1.2799 -0.6558 -1.9256
  934MOL0     H26087  10.189   0.861   4.526 -0.6364  0.0846  0.8670
  934MOL0     H26088  10.417   0.825   4.868  1.1816 -0.0651 -1.9918
  934MOL0     H26089   9.557   0.949   4.462 -2.4591  0.3422  0.4385
  934MOL0     H26090   9.436   1.082   4.321 -0.7720 -1.3398  0.4250
  935MOL0     O26091  11.004  10.092   7.997  0.0442  0.0426 -0.2040
  935MOL0     C26092  11.020  10.204   8.049 -0.0477  0.4142 -0.1441
  935MOL0     O26093  10.919  10.279   8.089 -0.0271  0.2505  0.0152
  935MOL0     C26094  10.794  10.245   8.046  0.1578 -0.0038  0.0728
  935MOL0     C26095  10.748  10.254   7.911 -0.5054  0.8570 -0.6652
  935MOL0     C26096  10.615  10.208   7.879  1.0835  0.3239 -0.0067
  935MOL0     C26097  10.527  10.167   7.971  0.5568  0.2758 -1.4379
  935MOL0     O26098  10.398  10.122   7.947 -1.2136 -0.6922 -0.3057
  935MOL0     C26099  10.348  10.120   7.812  0.4323 -0.2607  0.5386
  935MOL0     C26100  10.205  10.065   7.804 -0.8540  0.3795 -0.4275
  935MOL0     C26101  10.097  10.129   7.891 -0.4139 -0.2582 -0.1005
  935MOL0     C26102   9.963  10.045   7.912 -0.0322 -0.1805  0.5918
  935MOL0     C26103   9.862  10.112   8.013  0.1912  0.3369 -0.1653
  935MOL0     C26104   9.844  10.267   8.017 -0.0518  0.7890  0.2323
  935MOL0     C26105   9.700  10.311   8.014  0.0765 -1.1438  0.9485
  935MOL0     C26106   9.622  10.262   8.136  0.7731  0.9985  0.4147
  935MOL0     N26107   9.475  10.281   8.118  0.1902 -0.6248 -0.2113
  935MOL0     C26108   9.414  10.403   8.133 -0.0948 -0.3903  0.0702
  935MOL0     C26109   9.285  10.385   8.116  0.1801 -0.0196 -0.4863
  935MOL0     C26110   9.179  10.482   8.143  0.3226 -0.5376  0.6588
  935MOL0     C26111   9.075  10.510   8.031  0.0785 -0.3502  0.1455
  935MOL0     C26112   8.974  10.614   8.070 -0.1449 -0.6572  0.2367
  935MOL0     C26113   8.845  10.618   7.984  0.1213 -0.2118  0.7894
  935MOL0     O26114   8.787  10.753   7.968  0.2121  0.9131  0.5064
  935MOL0     C26115   8.683  10.771   7.880  0.1307  1.4189  0.4747
  935MOL0     C26116   8.590  10.670   7.841 -0.6731  0.0997 -0.4089
  935MOL0     C26117   8.484  10.704   7.765  0.2409 -0.0691 -0.0885
  935MOL0     C26118   8.390  10.598   7.747  0.0693 -0.5738 -1.0609
  935MOL0     C26119   8.462  10.838   7.714 -0.2632  0.4713  0.3119
  935MOL0     C26120   8.353  10.876   7.630 -0.0186  0.0635  0.0320
  935MOL0     O26121   8.321  11.005   7.649 -0.1696 -0.3951 -0.1911
  935MOL0     C26122   8.191  11.043   7.639  0.6475 -0.1051  0.2968
  935MOL0     C26123   8.117  11.103   7.744  0.1603 -0.2843 -0.3754
  935MOL0     C26124   7.987  11.139   7.723  0.2462 -0.2501  0.1995
  935MOL0     C26125   7.930  11.152   7.591  0.7274  0.5481 -0.1306
  935MOL0     O26126   7.803  11.196   7.560  0.4293 -0.3128  0.4097
  935MOL0     C26127   7.752  11.282   7.658  0.3776  0.7996  0.5187
  935MOL0     C26128   7.636  11.362   7.587 -0.0803  0.0684 -0.4224
  935MOL0     C26129   7.551  11.442   7.688  0.3637  0.0564  0.0487
  935MOL0     C26130   7.459  11.345   7.781  0.2012  0.1385 -0.4522
  935MOL0     C26131   7.379  11.438   7.866  0.2067 -0.6939 -0.8202
  935MOL0     C26132   7.273  11.365   7.947  0.9465  0.0503  0.5117
  935MOL0     C26133   7.133  11.399   7.902 -0.1733 -0.0824 -0.1182
  935MOL0     C26134   7.022  11.307   7.961 -0.1337 -0.3486 -0.4665
  935MOL0    Cl26135   7.008  11.149   7.880 -0.2256  0.5942 -0.4440
  935MOL0     C26136   8.013  11.109   7.488  0.6019 -0.2729 -0.5500
  935MOL0     C26137   8.143  11.052   7.508 -0.6107  0.8103 -0.6587
  935MOL0     O26138   8.306  10.804   7.540  0.0491  0.1193  0.3379
  935MOL0     C26139   8.553  10.937   7.751 -0.2498  0.4716  0.8096
  935MOL0     C26140   8.667  10.903   7.827 -0.4502  0.4322  0.5267
  935MOL0     N26141   9.271  10.254   8.070 -0.6888 -0.2874  0.0038
  935MOL0     N26142   9.384  10.193   8.084 -0.5201  0.5964  0.2177
  935MOL0     C26143  10.571  10.167   8.107  0.9203  0.1369 -1.0750
  935MOL0     C26144  10.700  10.203   8.144  0.9768  0.8712 -1.3482
  935MOL0     C26145  11.149  10.270   8.064  0.1570  0.0237  0.9188
  935MOL0     C26146  11.266  10.201   8.022 -0.8247  0.5099  0.2796
  935MOL0     C26147  11.397  10.262   8.044 -0.5342  1.0234 -0.8757
  935MOL0     C26148  11.416  10.394   8.098  1.3587  0.6331  0.4876
  935MOL0     O26149  11.537  10.462   8.111  0.0938  0.1704 -0.1014
  935MOL0     C26150  11.653  10.424   8.028  0.9720 -0.2592 -0.4142
  935MOL0     C26151  11.725  10.545   8.012 -0.0108 -0.1595 -0.8230
  935MOL0     C26152  11.850  10.532   7.919  0.0054  0.4029 -0.5563
  935MOL0     C26153  11.917  10.663   7.893 -0.5398 -0.5316  0.1302
  935MOL0     C26154  12.037  10.623   7.824  0.0447  0.2151 -1.4849
  935MOL0     C26155  12.128  10.584   7.763 -0.1789  0.2132  0.8052
  935MOL0     C26156  11.292  10.455   8.129 -0.6926 -0.3767 -0.3323
  935MOL0     C26157  11.166  10.396   8.112  0.0498  0.2516 -0.0816
  935MOL0     H26158  10.812  10.293   7.833  1.1456 -0.3603  0.0074
  935MOL0     H26159  10.584  10.204   7.775 -1.9827 -3.7180  0.7963
  935MOL0     H26160  10.345  10.223   7.777  0.2397 -0.4546 -0.0273
  935MOL0     H26161  10.401  10.062   7.735 -1.1814  1.3977 -1.9383
  935MOL0     H26162  10.177  10.071   7.698  0.0624 -1.1007 -0.7863
  935MOL0     H26163  10.204   9.957   7.826 -3.7987  0.1005 -1.4773
  935MOL0     H26164  10.131  10.178   7.982  0.0851  0.0380 -0.4429
  935MOL0     H26165  10.057  10.212   7.831 -2.0089 -2.8526 -2.9451
  935MOL0     H26166   9.918  10.046   7.812  0.5171  1.6658  0.3334
  935MOL0     H26167   9.976   9.939   7.936 -1.0499 -0.1004  1.5771
  935MOL0     H26168   9.766  10.060   8.002  0.3906  0.0124 -0.3809
  935MOL0     H26169   9.908  10.088   8.109  0.1669 -2.9114 -0.8609
  935MOL0     H26170   9.892  10.287   8.113  0.1823  2.6348 -0.2379
  935MOL0     H26171   9.894  10.324   7.938 -1.3584  3.1966  1.0470
  935MOL0     H26172   9.697  10.420   8.011 -3.1387 -1.1799  0.0911
  935MOL0     H26173   9.655  10.284   7.918 -1.5822  1.7724  0.7931
  935MOL0     H26174   9.655  10.313   8.226  2.8373  0.2620  0.1322
  935MOL0     H26175   9.635  10.156   8.160 -1.6195 -0.3730 -3.4449
  935MOL0     H26176   9.470  10.490   8.167  0.8103 -1.3144  0.9855
  935MOL0     H26177   9.130  10.431   8.227 -1.6243  0.5217  0.2465
  935MOL0     H26178   9.219  10.580   8.171 -1.6784  0.5317  0.0449
  935MOL0     H26179   9.020  10.420   8.002  1.5042 -1.1276 -0.2748
  935MOL0     H26180   9.140  10.546   7.950  1.7321 -0.7332  1.2675
  935MOL0     H26181   9.027  10.710   8.076  1.8920 -1.8150  2.8859
  935MOL0     H26182   8.945  10.603   8.175  3.6244  1.4649  1.7398
  935MOL0     H26183   8.768  10.552   8.026 -1.8163 -1.3360 -3.9073
  935MOL0     H26184   8.859  10.573   7.886  0.2664  2.3458 -0.4516
  935MOL0     H26185   8.614  10.569   7.875  3.1631  1.3189  0.9984
  935MOL0     H26186   8.371  10.550   7.844  2.0671 -2.0481 -1.3327
  935MOL0     H26187   8.295  10.630   7.703 -1.3055  1.0086  2.6268
  935MOL0     H26188   8.430  10.522   7.679 -0.8544 -0.7788 -1.3887
  935MOL0     H26189   8.170  11.096   7.838  3.2157 -1.5071 -2.0435
  935MOL0     H26190   7.938  11.172   7.814 -1.3094  2.0058 -1.3212
  935MOL0     H26191   7.707  11.228   7.742  1.0775  0.3870  0.6414
  935MOL0     H26192   7.829  11.348   7.700  1.4711  0.3244 -0.6468
  935MOL0     H26193   7.674  11.430   7.510 -1.4384 -1.9317 -3.0461
  935MOL0     H26194   7.580  11.295   7.522 -3.3901  3.0666 -0.9639
  935MOL0     H26195   7.482  11.501   7.627  1.3833  1.9646  0.6730
  935MOL0     H26196   7.605  11.512   7.753  1.5947 -0.7059 -0.1140
  935MOL0     H26197   7.389  11.291   7.716 -1.0285  1.7796 -0.5656
  935MOL0     H26198   7.520  11.279   7.842  3.9347  1.1524 -2.7290
  935MOL0     H26199   7.329  11.503   7.794  0.5120 -0.2528 -0.6342
  935MOL0     H26200   7.450  11.487   7.933 -0.8053 -2.6160  1.8457
  935MOL0     H26201   7.298  11.259   7.941 -2.2324 -0.8280  1.0447
  935MOL0     H26202   7.283  11.388   8.054  0.4614  0.4828  0.4684
  935MOL0     H26203   7.130  11.378   7.794  2.0283 -2.5145  0.1886
  935MOL0     H26204   7.102  11.499   7.933  0.2363 -0.1449  0.4961
  935MOL0     H26205   6.922  11.351   7.951  0.7343  1.4775 -1.5829
  935MOL0     H26206   7.042  11.286   8.067  1.4319  2.4144 -0.1235
  935MOL0     H26207   7.982  11.109   7.384 -2.8018 -1.7297  0.3130
  935MOL0     H26208   8.211  11.017   7.432  1.2987 -0.2740  1.4318
  935MOL0     H26209   8.554  11.043   7.725  2.2152 -0.4390 -3.7426
  935MOL0     H26210   8.738  10.977   7.861 -0.5259  1.7972 -2.0162
  935MOL0     H26211  10.511  10.125   8.187  1.5906 -1.8613 -1.5541
  935MOL0     H26212  10.731  10.200   8.249  3.1304 -0.6424 -1.9558
  935MOL0     H26213  11.263  10.099   7.983  1.9042 -0.0372  1.3020
  935MOL0     H26214  11.488  10.212   8.010 -0.4950 -0.6337  1.4410
  935MOL0     H26215  11.714  10.365   8.096  1.2048 -0.9954 -1.2441
  935MOL0     H26216  11.641  10.358   7.941  0.8994  1.3032 -1.6475
  935MOL0     H26217  11.748  10.591   8.109 -0.6414 -1.2742 -0.1188
  935MOL0     H26218  11.661  10.624   7.971  0.3281  1.6130  1.7574
  935MOL0     H26219  11.817  10.484   7.827  0.3514 -0.5534 -0.2009
  935MOL0     H26220  11.923  10.472   7.975  3.3242  3.4192 -1.2824
  935MOL0     H26221  11.943  10.709   7.988 -0.4976 -1.2738  0.4821
  935MOL0     H26222  11.865  10.735   7.829  4.3565 -0.3302 -4.3845
  935MOL0     H26223  12.213  10.553   7.706 -0.2834 -3.0173  2.1906
  935MOL0     H26224  11.304  10.550   8.182  1.7524  1.4521 -3.7418
  935MOL0     H26225  11.081  10.452   8.149 -0.4183 -1.6125  1.8234
  936MOL0     O26226   5.132   8.556   4.712 -0.5698  0.1894 -0.3158
  936MOL0     C26227   5.127   8.665   4.767  0.6688  0.7140 -0.2653
  936MOL0     O26228   5.007   8.740   4.777  0.4682  0.5561 -0.2637
  936MOL0     C26229   4.882   8.676   4.758  0.5522 -0.0353  0.9884
  936MOL0     C26230   4.831   8.654   4.634 -0.4009  0.0095  0.4226
  936MOL0     C26231   4.696   8.610   4.615 -0.6150 -0.0799  0.5830
  936MOL0     C26232   4.617   8.589   4.732  0.4154  0.3345 -0.4163
  936MOL0     O26233   4.485   8.552   4.712 -0.0220  0.4676  0.7005
  936MOL0     C26234   4.411   8.483   4.816 -0.3395 -0.0963  0.6367
  936MOL0     C26235   4.271   8.432   4.760  0.1535 -0.0704 -0.2008
  936MOL0     C26236   4.197   8.543   4.689  0.1791  0.1566 -0.2678
  936MOL0     C26237   4.062   8.495   4.650 -0.5310 -0.1286  0.1940
  936MOL0     C26238   3.985   8.609   4.595  0.0256 -1.0097  0.0664
  936MOL0     C26239   3.853   8.564   4.522 -0.1049 -0.7683  0.2825
  936MOL0     C26240   3.747   8.518   4.616  0.3573  0.3056  1.1109
  936MOL0     C26241   3.634   8.482   4.530  0.5404  0.5514  0.3708
  936MOL0     N26242   3.527   8.427   4.617  0.1717  0.5575  0.2675
  936MOL0     C26243   3.390   8.434   4.602 -0.3615  0.3114 -0.2066
  936MOL0     C26244   3.334   8.393   4.723  0.7127  0.1216  0.8652
  936MOL0     C26245   3.187   8.394   4.748 -0.3512  0.1234  0.6414
  936MOL0     C26246   3.109   8.297   4.664 -0.8290 -0.6986  0.3400
  936MOL0     C26247   2.964   8.314   4.687 -0.4163 -0.3549 -0.5184
  936MOL0     C26248   2.890   8.211   4.610 -0.2229 -0.1797  0.5935
  936MOL0     O26249   2.749   8.250   4.586 -0.6050  0.1631 -0.1575
  936MOL0     C26250   2.639   8.174   4.617  0.4169  0.2826 -0.4031
  936MOL0     C26251   2.646   8.036   4.666 -0.4942 -0.1484 -0.1253
  936MOL0     C26252   2.534   7.974   4.716 -0.1227  0.1913  0.9376
  936MOL0     C26253   2.562   7.839   4.775  0.4429 -0.0918  0.7517
  936MOL0     C26254   2.407   8.028   4.689  0.2053 -0.3054 -1.0160
  936MOL0     C26255   2.286   7.962   4.739 -0.5376 -0.1505  0.4821
  936MOL0     O26256   2.180   8.040   4.771 -1.0354 -0.3255 -0.2094
  936MOL0     C26257   2.049   8.006   4.784 -0.4143 -0.3352 -0.2119
  936MOL0     C26258   1.991   7.891   4.729 -0.3779  0.2908 -0.2671
  936MOL0     C26259   1.859   7.857   4.755 -0.9115 -0.9028 -0.6156
  936MOL0     C26260   1.783   7.942   4.840  0.0290  0.7076 -0.5752
  936MOL0     O26261   1.660   7.912   4.891 -0.9689 -0.3084 -0.8577
  936MOL0     C26262   1.584   7.786   4.879 -0.2478 -1.2685 -0.9217
  936MOL0     C26263   1.656   7.671   4.956  0.1911 -0.2258  0.1518
  936MOL0     C26264   1.569   7.538   4.963  0.4552  0.5814 -0.2603
  936MOL0     C26265   1.631   7.438   5.060 -0.5349 -0.4319 -0.5157
  936MOL0     C26266   1.751   7.361   4.999  0.5395  0.0058 -0.0733
  936MOL0     C26267   1.816   7.289   5.111 -1.1959 -0.3751 -0.1738
  936MOL0     C26268   1.937   7.194   5.083 -1.0738 -0.2588 -0.7497
  936MOL0     C26269   2.013   7.180   5.212 -0.5626  0.2814 -0.2632
  936MOL0    Cl26270   2.150   7.066   5.189 -0.2406  0.0987 -0.1027
  936MOL0     C26271   1.839   8.061   4.889 -0.5031 -0.2808 -0.7685
  936MOL0     C26272   1.976   8.090   4.862  0.2645  0.2269 -0.3742
  936MOL0     O26273   2.287   7.840   4.735 -0.2608 -0.8841  0.4279
  936MOL0     C26274   2.397   8.155   4.622 -0.1802  0.4765  0.2147
  936MOL0     C26275   2.516   8.220   4.581  1.2721 -0.5076 -0.3783
  936MOL0     N26276   3.434   8.337   4.802 -0.6792 -0.5176  0.4162
  936MOL0     N26277   3.547   8.355   4.732  0.0283 -0.4076  0.2218
  936MOL0     C26278   4.678   8.604   4.855 -0.0628 -0.5835 -0.5060
  936MOL0     C26279   4.807   8.639   4.869 -0.0197 -0.1031 -0.0473
  936MOL0     C26280   5.241   8.729   4.823  0.4908  0.2499  0.7066
  936MOL0     C26281   5.354   8.656   4.865 -0.3020 -0.1939 -0.0403
  936MOL0     C26282   5.459   8.710   4.935 -0.4728 -0.8328  0.7487
  936MOL0     C26283   5.462   8.848   4.961 -0.2156 -1.1994 -0.0276
  936MOL0     O26284   5.565   8.907   5.032 -0.7244  0.6423  0.3285
  936MOL0     C26285   5.558   9.036   5.088 -0.4730  0.0781 -0.6050
  936MOL0     C26286   5.703   9.074   5.132  0.4332 -0.2915  0.2958
  936MOL0     C26287   5.684   9.138   5.275 -0.3510  0.3432 -0.3581
  936MOL0     C26288   5.833   9.176   5.327 -0.2981  0.1353 -0.2393
  936MOL0     C26289   5.821   9.201   5.474  0.6709 -0.7044  0.0276
  936MOL0     C26290   5.811   9.228   5.599 -0.6349  0.1357  0.5045
  936MOL0     C26291   5.352   8.927   4.919  0.0732 -0.5159 -0.6885
  936MOL0     C26292   5.246   8.868   4.858  0.4494  1.0192 -0.2520
  936MOL0     H26293   4.884   8.703   4.553 -0.6568  2.5029  1.6523
  936MOL0     H26294   4.655   8.605   4.515 -0.6814  0.1806  0.5961
  936MOL0     H26295   4.463   8.391   4.845 -0.1440 -0.9072 -1.9824
  936MOL0     H26296   4.399   8.552   4.900 -0.0245 -1.2763  1.6670
  936MOL0     H26297   4.286   8.346   4.693  0.2694 -1.1339  1.1408
  936MOL0     H26298   4.213   8.392   4.843  2.5161 -0.5666  1.3216
  936MOL0     H26299   4.187   8.637   4.744  1.3136  1.4412 -2.1589
  936MOL0     H26300   4.253   8.556   4.596  2.6977  0.4636  1.2035
  936MOL0     H26301   4.068   8.426   4.564  3.2822 -0.5122  0.6179
  936MOL0     H26302   4.009   8.463   4.740  0.3538 -1.3758  0.2960
  936MOL0     H26303   3.975   8.679   4.679  1.1663  1.0390 -1.3957
  936MOL0     H26304   4.046   8.659   4.519 -0.7038  0.4726  0.4180
  936MOL0     H26305   3.806   8.643   4.463  0.0196 -2.6360 -2.5393
  936MOL0     H26306   3.876   8.480   4.455  0.3980 -0.3888 -0.0285
  936MOL0     H26307   3.789   8.438   4.678  0.0777 -0.5889  0.1550
  936MOL0     H26308   3.727   8.601   4.685  1.2360 -0.2275  2.0481
  936MOL0     H26309   3.661   8.401   4.462 -1.3259 -0.2429  0.5293
  936MOL0     H26310   3.601   8.570   4.474  0.7233  1.1403  1.1612
  936MOL0     H26311   3.337   8.465   4.513 -0.5998 -0.8339 -0.4696
  936MOL0     H26312   3.179   8.374   4.856  1.6411  1.4382  1.0905
  936MOL0     H26313   3.155   8.498   4.737 -2.2661 -0.6594 -1.9709
  936MOL0     H26314   3.143   8.198   4.695  0.4549  0.3563  2.5369
  936MOL0     H26315   3.120   8.319   4.557 -0.0832 -0.4320  0.4628
  936MOL0     H26316   2.934   8.412   4.648  2.3533  0.1781 -1.5124
  936MOL0     H26317   2.940   8.306   4.793  0.3219  1.8284 -0.1319
  936MOL0     H26318   2.893   8.114   4.662 -2.9959 -1.3233 -1.1776
  936MOL0     H26319   2.936   8.196   4.512  0.6148  3.7794  0.2166
  936MOL0     H26320   2.742   7.986   4.676  0.1468  1.0560  0.0203
  936MOL0     H26321   2.668   7.825   4.801  0.5658 -1.8858 -0.5270
  936MOL0     H26322   2.504   7.813   4.864  1.9147 -0.1621  1.7205
  936MOL0     H26323   2.546   7.765   4.697 -0.6417 -1.9466  2.6213
  936MOL0     H26324   2.043   7.816   4.671 -2.3151 -2.3052  1.1491
  936MOL0     H26325   1.830   7.756   4.727 -0.0316 -1.0039 -1.1999
  936MOL0     H26326   1.480   7.798   4.910 -0.1708 -1.1462 -0.7124
  936MOL0     H26327   1.565   7.757   4.774  0.5643 -1.9243 -0.8935
  936MOL0     H26328   1.747   7.643   4.903 -0.5260  0.6124 -1.6069
  936MOL0     H26329   1.683   7.706   5.056  2.1899 -0.0327 -0.4108
  936MOL0     H26330   1.552   7.485   4.869 -0.8454 -1.6543  1.1489
  936MOL0     H26331   1.469   7.562   5.002  0.4957  0.3507 -0.0066
  936MOL0     H26332   1.660   7.483   5.156 -3.0330  0.2484 -0.0161
  936MOL0     H26333   1.559   7.358   5.079 -0.0361 -1.0205 -1.0612
  936MOL0     H26334   1.824   7.431   4.957  0.9948  0.9983  2.2307
  936MOL0     H26335   1.709   7.300   4.918 -2.3110  1.0880  0.4507
  936MOL0     H26336   1.845   7.375   5.172 -2.4989  0.3238 -0.5095
  936MOL0     H26337   1.741   7.240   5.175  0.1919 -0.9609  1.0892
  936MOL0     H26338   1.992   7.257   5.013 -3.7046  0.8347 -1.9656
  936MOL0     H26339   1.901   7.096   5.053 -2.6221 -0.9273  2.7414
  936MOL0     H26340   1.952   7.142   5.294  0.9489 -0.6237  0.4842
  936MOL0     H26341   2.043   7.281   5.243 -3.7898  1.1211  0.5353
  936MOL0     H26342   1.781   8.132   4.947  0.9447  0.7712 -0.5695
  936MOL0     H26343   2.014   8.189   4.883  0.8021 -0.3404  1.5246
  936MOL0     H26344   2.299   8.193   4.599 -1.3436 -0.5130  3.0638
  936MOL0     H26345   2.514   8.308   4.517 -0.3638 -1.7812 -2.1819
  936MOL0     H26346   4.632   8.591   4.952 -1.1757  0.4117 -0.8813
  936MOL0     H26347   4.854   8.664   4.964 -0.3081 -0.0285  0.0755
  936MOL0     H26348   5.359   8.548   4.855 -2.2901 -0.4478  1.2093
  936MOL0     H26349   5.542   8.653   4.975 -0.5423 -2.9523 -1.8220
  936MOL0     H26350   5.510   9.117   5.032 -0.7605  1.9054  2.0818
  936MOL0     H26351   5.499   9.025   5.179  0.8217 -0.2916  0.2270
  936MOL0     H26352   5.738   9.142   5.053 -1.4399 -2.6481 -2.7936
  936MOL0     H26353   5.771   8.989   5.141  2.0797  1.2006  3.8684
  936MOL0     H26354   5.632   9.066   5.339  2.1456 -2.0760 -0.8810
  936MOL0     H26355   5.613   9.221   5.266 -0.3800  0.4902  1.0017
  936MOL0     H26356   5.870   9.264   5.274  1.4993 -1.3898 -1.6546
  936MOL0     H26357   5.907   9.097   5.311 -1.0969 -1.3147  2.5876
  936MOL0     H26358   5.774   9.241   5.698 -1.3616  0.4531  0.1986
  936MOL0     H26359   5.349   9.035   4.925  2.6998 -0.3456 -1.0956
  936MOL0     H26360   5.163   8.930   4.825 -0.8103 -0.2721  0.4202
  937MOL0     O26361   7.307   8.722   4.220  0.0068 -1.3551  1.3668
  937MOL0     C26362   7.222   8.641   4.250  0.7218  0.2326 -0.9200
  937MOL0     O26363   7.217   8.509   4.218 -0.2139 -0.0612 -0.9029
  937MOL0     C26364   7.295   8.484   4.113 -0.1656  0.5068  0.0195
  937MOL0     C26365   7.418   8.417   4.114 -0.3760 -1.1172 -0.4557
  937MOL0     C26366   7.500   8.391   3.995  0.7067  0.3351 -0.1969
  937MOL0     C26367   7.445   8.425   3.868 -0.0851 -0.5249  0.1923
  937MOL0     O26368   7.532   8.419   3.761  0.0431  0.2388  0.2175
  937MOL0     C26369   7.476   8.461   3.636 -0.0641  0.3687  0.7847
  937MOL0     C26370   7.368   8.355   3.578 -0.0762 -1.4572  0.2669
  937MOL0     C26371   7.340   8.375   3.430  0.0942  0.1702 -0.1510
  937MOL0     C26372   7.227   8.478   3.413  0.2998 -0.3951 -0.2481
  937MOL0     C26373   7.186   8.501   3.264  0.5912  0.3168  0.1972
  937MOL0     C26374   7.088   8.621   3.247 -1.2065 -0.2145  0.0656
  937MOL0     C26375   6.946   8.588   3.307  0.0801 -0.6598 -0.7219
  937MOL0     C26376   6.865   8.721   3.279  0.4132 -0.6640 -0.1986
  937MOL0     N26377   6.727   8.728   3.327 -0.3000  0.3477  0.6349
  937MOL0     C26378   6.688   8.699   3.455  0.3188 -1.0386  1.1505
  937MOL0     C26379   6.554   8.711   3.442  0.9318  0.3966 -0.8954
  937MOL0     C26380   6.465   8.691   3.565  0.4935  1.0590 -0.2703
  937MOL0     C26381   6.518   8.732   3.699 -0.7963 -0.2005  0.7643
  937MOL0     C26382   6.598   8.863   3.704  0.3386 -0.6696  0.2101
  937MOL0     C26383   6.519   8.981   3.650 -0.4224 -0.3404 -0.2252
  937MOL0     O26384   6.608   9.099   3.653 -0.5197 -0.0626  0.0208
  937MOL0     C26385   6.561   9.205   3.592 -0.1545 -0.3831 -0.3865
  937MOL0     C26386   6.642   9.317   3.580 -0.4018  0.7396  1.3694
  937MOL0     C26387   6.612   9.436   3.507 -0.3849  0.4814  0.4436
  937MOL0     C26388   6.727   9.538   3.487  0.4222  0.1232  0.1120
  937MOL0     C26389   6.475   9.449   3.456  0.5743  0.5563 -0.0948
  937MOL0     C26390   6.419   9.583   3.394 -0.1492  0.3611  0.6198
  937MOL0     O26391   6.284   9.573   3.365 -0.4602 -0.1758 -0.6905
  937MOL0     C26392   6.210   9.683   3.351  0.4116  0.8646 -1.3035
  937MOL0     C26393   6.105   9.679   3.262  0.2375  0.0948  0.2763
  937MOL0     C26394   6.024   9.797   3.252  0.1205 -0.0084  0.7382
  937MOL0     C26395   6.036   9.912   3.335 -0.4898  0.2536  0.4537
  937MOL0     O26396   5.933   9.994   3.343 -0.4671 -0.4276 -0.0726
  937MOL0     C26397   5.804   9.948   3.388  0.0286  0.0030  0.5262
  937MOL0     C26398   5.696  10.052   3.422 -0.3910 -0.3290 -0.0857
  937MOL0     C26399   5.650  10.130   3.309 -0.9194  0.1960 -0.4654
  937MOL0     C26400   5.514  10.180   3.336  0.2120 -0.0590  0.1488
  937MOL0     C26401   5.485  10.286   3.227 -0.3132  1.0140  0.3263
  937MOL0     C26402   5.370  10.376   3.224  0.8145 -0.3687 -0.3672
  937MOL0     C26403   5.360  10.475   3.341 -0.4626 -0.1925 -0.5685
  937MOL0     C26404   5.237  10.567   3.329  0.0428 -0.4007  0.8565
  937MOL0    Cl26405   5.262  10.706   3.434  0.2650  0.0064  0.2168
  937MOL0     C26406   6.150   9.916   3.414 -0.5956  0.5918 -0.2962
  937MOL0     C26407   6.231   9.803   3.433 -0.5980  0.6585  0.2919
  937MOL0     O26408   6.493   9.677   3.359 -0.3874 -0.3859  0.6256
  937MOL0     C26409   6.386   9.351   3.494 -0.1016  0.6620 -0.3032
  937MOL0     C26410   6.426   9.234   3.563 -0.6140 -0.3530 -0.3063
  937MOL0     N26411   6.519   8.749   3.323  0.2579  0.5542  0.2214
  937MOL0     N26412   6.620   8.747   3.249  0.1643 -0.3739 -0.2637
  937MOL0     C26413   7.317   8.494   3.865 -0.0618  1.0763 -0.4879
  937MOL0     C26414   7.240   8.514   3.984  0.0071  0.2689 -0.0943
  937MOL0     C26415   7.120   8.682   4.350  1.0996 -0.3044 -0.0461
  937MOL0     C26416   7.038   8.594   4.406  0.4819 -0.6411  0.3514
  937MOL0     C26417   6.953   8.634   4.503  0.6510  0.4086 -0.0807
  937MOL0     C26418   6.942   8.769   4.544  0.1828  0.2093 -0.3833
  937MOL0     O26419   6.860   8.826   4.643  0.2219  0.4680 -0.1696
  937MOL0     C26420   6.821   8.744   4.752  0.0200 -0.3356 -0.6537
  937MOL0     C26421   6.928   8.742   4.864  0.9073 -0.3172 -0.3724
  937MOL0     C26422   7.033   8.645   4.837  0.3082  0.4378  0.4496
  937MOL0     C26423   7.091   8.594   4.966  0.6493  0.1427 -0.4049
  937MOL0     C26424   7.193   8.484   4.953  0.8425 -0.7888 -0.4967
  937MOL0     C26425   7.282   8.406   4.923  0.0940  0.3293 -0.3973
  937MOL0     C26426   7.019   8.859   4.474  0.0744  0.0274 -0.7219
  937MOL0     C26427   7.116   8.814   4.388 -0.4129  0.0212  0.6039
  937MOL0     H26428   7.456   8.387   4.211  0.7582 -1.3753 -0.9622
  937MOL0     H26429   7.603   8.357   3.995 -0.1093 -2.4032 -0.0736
  937MOL0     H26430   7.449   8.568   3.637  1.2837  0.7184  1.3743
  937MOL0     H26431   7.567   8.458   3.575 -0.1678 -0.7169  0.6747
  937MOL0     H26432   7.411   8.255   3.584  0.0475 -1.4178  0.0402
  937MOL0     H26433   7.271   8.360   3.628 -1.6233  1.9165 -2.6077
  937MOL0     H26434   7.426   8.407   3.370  1.0845 -1.4532  0.3539
  937MOL0     H26435   7.300   8.284   3.386 -0.8959 -1.0242  2.9693
  937MOL0     H26436   7.146   8.453   3.482  2.0517 -1.3930  1.5497
  937MOL0     H26437   7.259   8.573   3.457  0.2994 -1.2175  1.6111
  937MOL0     H26438   7.280   8.513   3.209  1.3717 -3.8727  0.2852
  937MOL0     H26439   7.155   8.408   3.215 -1.3973  0.6825  0.6996
  937MOL0     H26440   7.134   8.707   3.296 -2.5454 -0.9494  2.7612
  937MOL0     H26441   7.072   8.637   3.140 -0.6870 -1.5770 -0.2406
  937MOL0     H26442   6.895   8.503   3.263 -0.1986 -1.3431  0.8648
  937MOL0     H26443   6.957   8.570   3.415  0.1957 -2.3815 -0.9994
  937MOL0     H26444   6.883   8.758   3.178  3.3056 -2.0193 -0.2956
  937MOL0     H26445   6.905   8.798   3.346 -0.8982  0.4940 -0.6951
  937MOL0     H26446   6.743   8.675   3.545  0.7872  0.1132  1.1934
  937MOL0     H26447   6.372   8.747   3.554 -0.5560 -0.0161  2.1604
  937MOL0     H26448   6.439   8.586   3.581  2.3398  0.9952  3.4506
  937MOL0     H26449   6.577   8.650   3.740 -1.2584 -2.8168 -3.2937
  937MOL0     H26450   6.435   8.746   3.769  0.0111  0.6636  1.5698
  937MOL0     H26451   6.697   8.859   3.656 -0.9551  3.2545 -3.3460
  937MOL0     H26452   6.617   8.882   3.810  2.5405 -1.2272 -0.0192
  937MOL0     H26453   6.424   9.001   3.701 -0.3773 -0.9535  0.1106
  937MOL0     H26454   6.492   8.970   3.544  0.2187  0.2586 -0.4549
  937MOL0     H26455   6.746   9.304   3.607 -0.1018 -1.3599 -0.4214
  937MOL0     H26456   6.827   9.512   3.521  0.4932  0.4654  0.1655
  937MOL0     H26457   6.737   9.566   3.382  1.3604 -0.6657 -0.0168
  937MOL0     H26458   6.696   9.630   3.538  0.9447  0.1298  0.4239
  937MOL0     H26459   6.100   9.594   3.195 -0.6839  1.2238 -1.1689
  937MOL0     H26460   5.942   9.810   3.182 -0.7606 -2.5606  1.2048
  937MOL0     H26461   5.760   9.884   3.310 -1.5775  1.3163  0.3076
  937MOL0     H26462   5.822   9.882   3.473 -2.5977 -0.3534  0.8838
  937MOL0     H26463   5.605  10.010   3.464 -2.0909  0.9763 -2.2689
  937MOL0     H26464   5.747  10.126   3.484 -0.5105 -0.4722  0.1817
  937MOL0     H26465   5.639  10.068   3.220  1.4735 -0.6125 -0.2994
  937MOL0     H26466   5.720  10.212   3.287 -0.9621  0.5992  0.8228
  937MOL0     H26467   5.439  10.101   3.332 -1.5176  1.4899  0.3037
  937MOL0     H26468   5.501  10.228   3.433 -0.2234 -0.8997  0.5184
  937MOL0     H26469   5.489  10.226   3.136  2.9355 -0.1835  1.1234
  937MOL0     H26470   5.577  10.342   3.210  1.5471 -1.7206  0.6245
  937MOL0     H26471   5.388  10.437   3.135  1.0439  0.2891  0.1259
  937MOL0     H26472   5.275  10.326   3.202  1.3697 -1.6928  0.1240
  937MOL0     H26473   5.447  10.541   3.344 -0.3640 -0.3424  1.8240
  937MOL0     H26474   5.348  10.422   3.436  3.8243 -2.4981 -1.0642
  937MOL0     H26475   5.145  10.520   3.367  0.3108 -0.7717  1.0551
  937MOL0     H26476   5.224  10.603   3.226  1.3478  2.4271  1.5931
  937MOL0     H26477   6.166  10.008   3.469 -1.0398  0.3742  0.1955
  937MOL0     H26478   6.308   9.803   3.510 -1.8141  0.0362  1.5523
  937MOL0     H26479   6.279   9.362   3.487 -0.4267 -1.1583  0.9707
  937MOL0     H26480   6.342   9.167   3.582 -0.5092 -0.2544  0.5728
  937MOL0     H26481   7.272   8.519   3.770 -4.3950 -0.3128  0.9611
  937MOL0     H26482   7.145   8.566   3.984  0.6862  1.6317  1.8156
  937MOL0     H26483   7.036   8.497   4.358 -1.2562 -0.2878 -0.3464
  937MOL0     H26484   6.875   8.571   4.544  0.6245 -0.0670 -0.8490
  937MOL0     H26485   6.725   8.779   4.791 -1.9090 -3.5004 -2.2393
  937MOL0     H26486   6.785   8.648   4.715 -2.3759  0.2200  0.0456
  937MOL0     H26487   6.871   8.701   4.948 -1.3421 -1.7141 -2.4397
  937MOL0     H26488   6.960   8.845   4.885  0.5367  0.5315 -3.4463
  937MOL0     H26489   7.117   8.686   4.780 -1.5774  0.8038 -2.2206
  937MOL0     H26490   6.991   8.555   4.792 -0.1429  0.8932 -0.0476
  937MOL0     H26491   7.010   8.555   5.028  0.2347 -0.8355 -1.5117
  937MOL0     H26492   7.147   8.675   5.013  0.7413  0.4139 -0.9707
  937MOL0     H26493   7.366   8.339   4.919  1.6281  2.1580 -0.5338
  937MOL0     H26494   7.008   8.963   4.501  0.4911 -0.4477  1.4878
  937MOL0     H26495   7.177   8.899   4.356 -0.9626 -0.0476 -0.6945
  938MOL0     O26496  10.475   1.868   2.321 -0.4802  0.3658  0.0155
  938MOL0     C26497  10.477   1.742   2.328 -0.1630 -0.3895  0.1290
  938MOL0     O26498  10.371   1.661   2.346  0.6614  0.3869 -0.4391
  938MOL0     C26499  10.247   1.729   2.340 -0.3615 -0.1127  0.7416
  938MOL0     C26500  10.214   1.795   2.222 -0.3510  0.1113 -0.2913
  938MOL0     C26501  10.091   1.874   2.208  0.5281  0.7668 -0.3762
  938MOL0     C26502  10.005   1.883   2.317  0.0220  0.2452  0.0186
  938MOL0     O26503   9.882   1.941   2.290  0.4595 -0.4042  0.1167
  938MOL0     C26504   9.806   1.982   2.402 -0.8101  0.0736 -0.0054
  938MOL0     C26505   9.873   2.113   2.460  1.0812 -1.1596 -0.1161
  938MOL0     C26506   9.854   2.221   2.351 -0.9031 -0.5540 -0.5126
  938MOL0     C26507   9.914   2.350   2.407 -0.5610 -0.7961  0.2754
  938MOL0     C26508   9.939   2.440   2.291 -0.3572  0.4528 -1.0944
  938MOL0     C26509   9.953   2.588   2.318  0.4312  0.2178 -0.0543
  938MOL0     C26510   9.994   2.674   2.202 -0.3587  0.1022  0.3445
  938MOL0     C26511   9.983   2.825   2.234 -0.9226 -0.7383  0.8953
  938MOL0     N26512  10.002   2.905   2.109  0.0420  0.0296 -0.0679
  938MOL0     C26513   9.939   2.893   1.987 -0.2335 -0.8717 -0.9866
  938MOL0     C26514  10.009   2.970   1.903 -0.2335  1.0659 -0.2296
  938MOL0     C26515  10.000   2.974   1.757 -0.5704 -0.5765 -0.1765
  938MOL0     C26516   9.895   3.079   1.723 -0.7696  0.1981  1.0025
  938MOL0     C26517   9.839   3.057   1.588  0.2851  0.4387  0.7274
  938MOL0     C26518   9.730   3.158   1.547 -0.0943 -0.4127 -0.1669
  938MOL0     O26519   9.661   3.128   1.417  0.7920  0.1210 -0.5481
  938MOL0     C26520   9.619   2.993   1.414 -0.3686 -0.5554 -0.0184
  938MOL0     C26521   9.522   2.948   1.504  0.9106  0.1741 -0.0046
  938MOL0     C26522   9.467   2.822   1.499  0.6161 -0.9576 -0.0218
  938MOL0     C26523   9.357   2.795   1.587 -0.0911  0.1820 -0.0511
  938MOL0     C26524   9.521   2.732   1.407 -0.1865  1.6987  0.5430
  938MOL0     C26525   9.490   2.580   1.406 -0.2698 -0.7599  0.5438
  938MOL0     O26526   9.479   2.521   1.524 -0.2753 -0.7701 -0.4259
  938MOL0     C26527   9.444   2.392   1.534  0.7646  0.9454 -0.4806
  938MOL0     C26528   9.341   2.326   1.462  0.3660  0.0990 -0.2745
  938MOL0     C26529   9.310   2.197   1.485  0.2772 -0.1948  0.7371
  938MOL0     C26530   9.386   2.120   1.582 -0.0619 -0.2648  0.4491
  938MOL0     O26531   9.365   1.984   1.591  0.1201 -0.1869 -0.4778
  938MOL0     C26532   9.436   1.900   1.686 -0.7030 -0.2847 -1.0291
  938MOL0     C26533   9.406   1.933   1.839  0.6891  0.0086  0.4956
  938MOL0     C26534   9.525   1.893   1.925 -0.2380  0.0757  1.1397
  938MOL0     C26535   9.548   1.744   1.926  0.2230  0.3483 -0.5751
  938MOL0     C26536   9.643   1.697   2.038  0.6839  0.6403 -0.3912
  938MOL0     C26537   9.561   1.665   2.170 -0.2592 -0.0611 -0.2781
  938MOL0     C26538   9.654   1.648   2.289  0.8949  0.0102  0.4112
  938MOL0     C26539   9.588   1.572   2.409  0.2003 -0.5214 -0.3821
  938MOL0    Cl26540   9.549   1.683   2.554 -0.1437  0.1769  0.5037
  938MOL0     C26541   9.479   2.193   1.659 -0.3732  0.6683  0.0931
  938MOL0     C26542   9.508   2.324   1.634 -0.6566  0.9179 -0.4779
  938MOL0     O26543   9.485   2.522   1.293  0.2836 -0.0711 -0.6352
  938MOL0     C26544   9.610   2.781   1.312  0.5405 -0.0680  0.6183
  938MOL0     C26545   9.655   2.910   1.303 -0.4195  0.2426 -0.4876
  938MOL0     N26546  10.093   3.044   1.979  1.1226  0.7790 -0.2440
  938MOL0     N26547  10.092   2.999   2.100  0.3522  0.3267  0.7443
  938MOL0     C26548  10.041   1.810   2.440 -0.6886 -0.8551  0.0917
  938MOL0     C26549  10.161   1.742   2.447 -0.8211  0.2262  0.4543
  938MOL0     C26550  10.608   1.689   2.293  0.7067  0.1742 -0.3186
  938MOL0     C26551  10.615   1.547   2.294 -0.0780 -0.4264  0.5497
  938MOL0     C26552  10.732   1.482   2.250  0.1356 -0.9516  1.0127
  938MOL0     C26553  10.849   1.558   2.227 -0.5845 -0.1251 -0.5085
  938MOL0     O26554  10.960   1.512   2.177 -0.2595  0.1692  0.0324
  938MOL0     C26555  10.989   1.373   2.171  0.3130 -0.7935 -0.7351
  938MOL0     C26556  11.129   1.338   2.182  0.4267  0.1416  0.2151
  938MOL0     C26557  11.154   1.186   2.185  0.2715  0.4713 -0.0998
  938MOL0     C26558  11.300   1.144   2.185 -0.3959 -0.0086 -0.1027
  938MOL0     C26559  11.381   1.199   2.302 -0.4098 -0.7161 -0.1019
  938MOL0     C26560  11.457   1.238   2.393 -0.0268  0.4144  0.7679
  938MOL0     C26561  10.845   1.698   2.234  0.7871  0.2787  0.4567
  938MOL0     C26562  10.722   1.757   2.261  0.7215 -0.6092  0.7536
  938MOL0     H26563  10.282   1.774   2.140 -0.8720 -1.3313 -0.3694
  938MOL0     H26564  10.071   1.927   2.116 -0.7497  3.4923  1.3736
  938MOL0     H26565   9.702   1.996   2.374 -1.3111 -2.5388  0.3115
  938MOL0     H26566   9.807   1.909   2.483  1.3087  1.1197  1.0050
  938MOL0     H26567   9.817   2.150   2.546 -0.4419 -0.9969 -1.1380
  938MOL0     H26568   9.976   2.099   2.493  1.9731  2.4616 -0.9834
  938MOL0     H26569   9.892   2.192   2.252  2.4368  1.0513  0.1691
  938MOL0     H26570   9.748   2.247   2.341 -0.4444  1.2338 -1.1412
  938MOL0     H26571   9.854   2.403   2.481 -0.1399 -0.1115  0.1384
  938MOL0     H26572  10.013   2.338   2.453  0.0135  1.8089 -0.1079
  938MOL0     H26573  10.036   2.412   2.248 -0.9710 -0.8492 -1.6837
  938MOL0     H26574   9.861   2.425   2.216 -0.8303 -0.0905 -0.5058
  938MOL0     H26575   9.860   2.629   2.358  0.2835 -0.4928  0.3514
  938MOL0     H26576  10.019   2.595   2.404 -0.3344 -0.5207  0.6113
  938MOL0     H26577  10.100   2.656   2.179 -0.1345  3.7265 -2.3687
  938MOL0     H26578   9.933   2.647   2.116 -0.6123  0.1994  0.4919
  938MOL0     H26579  10.055   2.860   2.308 -1.9128 -0.6679  1.8465
  938MOL0     H26580   9.891   2.845   2.289 -0.0196  2.8370  1.3186
  938MOL0     H26581   9.844   2.843   1.965 -2.0925  2.5708 -1.4522
  938MOL0     H26582  10.093   3.005   1.708 -1.3438 -1.3093 -2.2268
  938MOL0     H26583   9.979   2.873   1.721  0.7313 -0.9343  0.0223
  938MOL0     H26584   9.928   3.182   1.737  0.3131 -0.2188  1.5882
  938MOL0     H26585   9.811   3.072   1.793 -1.1037 -0.4379  0.5541
  938MOL0     H26586   9.798   2.956   1.597  0.4671  0.2245 -0.5703
  938MOL0     H26587   9.910   3.070   1.506 -1.7730 -1.4837 -1.5408
  938MOL0     H26588   9.786   3.253   1.539  2.7434 -1.6819  2.3590
  938MOL0     H26589   9.660   3.174   1.630 -0.6537  1.6434 -0.9616
  938MOL0     H26590   9.478   3.011   1.581  0.0839 -0.8440  0.3935
  938MOL0     H26591   9.274   2.865   1.575  0.2943  1.1728  2.3970
  938MOL0     H26592   9.320   2.693   1.576 -0.5770  0.3481  0.0107
  938MOL0     H26593   9.405   2.798   1.686  1.6456 -0.2270 -0.8460
  938MOL0     H26594   9.287   2.388   1.391  1.4959  3.2784  1.4108
  938MOL0     H26595   9.229   2.154   1.426 -0.2611  0.7035  0.8134
  938MOL0     H26596   9.420   1.794   1.663  2.9813 -0.8551 -1.4822
  938MOL0     H26597   9.541   1.921   1.667 -0.6682 -0.4371 -1.0081
  938MOL0     H26598   9.386   2.040   1.847  1.4926  0.2677 -0.7008
  938MOL0     H26599   9.314   1.884   1.873  0.0509  0.9170  0.1244
  938MOL0     H26600   9.492   1.912   2.028 -1.2581  2.0223  0.4912
  938MOL0     H26601   9.608   1.954   1.889 -0.9547 -0.7297 -2.1956
  938MOL0     H26602   9.451   1.694   1.928  0.8546 -0.9611 -1.1252
  938MOL0     H26603   9.583   1.715   1.826 -0.4315 -1.0206 -0.4356
  938MOL0     H26604   9.721   1.771   2.057  2.0233 -1.2393  1.9476
  938MOL0     H26605   9.696   1.604   2.013  2.5280  1.8683 -1.2469
  938MOL0     H26606   9.499   1.753   2.188 -2.1584 -1.0669 -1.5190
  938MOL0     H26607   9.498   1.577   2.151  0.1968 -0.9320  1.9387
  938MOL0     H26608   9.676   1.750   2.323 -0.6411 -0.4436  3.0389
  938MOL0     H26609   9.740   1.585   2.263  0.7598  0.3211 -0.8619
  938MOL0     H26610   9.651   1.489   2.445 -3.5506 -3.0180  0.9992
  938MOL0     H26611   9.498   1.522   2.373  0.2643  0.9130 -2.6670
  938MOL0     H26612   9.543   2.157   1.739  1.6455  3.6946 -0.0078
  938MOL0     H26613   9.576   2.380   1.696 -0.0465  0.2131 -0.5000
  938MOL0     H26614   9.643   2.702   1.245 -0.5165  0.6647 -0.8252
  938MOL0     H26615   9.722   2.948   1.226 -1.6512  0.9878 -1.2310
  938MOL0     H26616   9.967   1.810   2.519  0.0077 -0.8413  0.7471
  938MOL0     H26617  10.184   1.693   2.542 -0.7143  2.3022  1.5629
  938MOL0     H26618  10.535   1.488   2.338 -0.1026  0.5404  1.8602
  938MOL0     H26619  10.734   1.374   2.239  1.8620 -0.8237 -0.5044
  938MOL0     H26620  10.940   1.327   2.257 -2.0518  2.5411 -0.0740
  938MOL0     H26621  10.944   1.344   2.076 -0.4824  1.6365 -1.1817
  938MOL0     H26622  11.174   1.372   2.276  3.5498 -2.9401  0.0402
  938MOL0     H26623  11.188   1.388   2.105 -2.6868  1.6937 -1.3587
  938MOL0     H26624  11.104   1.129   2.106 -0.4790 -2.6874  2.4244
  938MOL0     H26625  11.116   1.145   2.279 -1.9878  2.1367 -0.1950
  938MOL0     H26626  11.340   1.175   2.088  1.1652 -1.7687 -0.0552
  938MOL0     H26627  11.301   1.036   2.199  0.6179 -0.0184 -0.2094
  938MOL0     H26628  11.526   1.249   2.474  0.2649 -1.4293  0.8186
  938MOL0     H26629  10.935   1.754   2.212  0.8260  0.0120 -0.0971
  938MOL0     H26630  10.723   1.866   2.260 -1.3957 -0.5530  1.3643
  939MOL0     O26631   3.285   1.114   8.714  0.0060  0.8736  0.1002
  939MOL0     C26632   3.338   1.126   8.825  0.0231  0.1019 -0.6244
  939MOL0     O26633   3.285   1.204   8.924  0.2158  0.2214  0.0036
  939MOL0     C26634   3.165   1.283   8.906  0.0188  0.5001 -1.0727
  939MOL0     C26635   3.151   1.363   8.791 -0.2971  0.5451 -0.2109
  939MOL0     C26636   3.034   1.431   8.755 -0.4289  0.2691  0.2684
  939MOL0     C26637   2.933   1.441   8.852 -0.7523 -0.4336  1.1134
  939MOL0     O26638   2.837   1.530   8.807  0.6050  0.0913 -0.3832
  939MOL0     C26639   2.722   1.547   8.896  0.2817  0.4178  0.5721
  939MOL0     C26640   2.624   1.629   8.818 -0.2050 -0.2064  0.7858
  939MOL0     C26641   2.508   1.666   8.894  0.7603  0.4385  0.0916
  939MOL0     C26642   2.423   1.762   8.818  0.6283  0.9466  0.0379
  939MOL0     C26643   2.323   1.820   8.903  0.5020 -0.1609 -0.1931
  939MOL0     C26644   2.207   1.901   8.840  0.6993 -0.3167  0.7128
  939MOL0     C26645   2.124   1.825   8.730 -0.9553  0.0712 -0.4458
  939MOL0     C26646   2.000   1.893   8.687  0.1851 -0.3571 -0.1349
  939MOL0     N26647   1.940   1.821   8.571  0.4000 -0.1988  0.5795
  939MOL0     C26648   1.834   1.734   8.570 -0.6197  0.6795 -0.4147
  939MOL0     C26649   1.828   1.686   8.446  0.2834 -0.3391 -0.4017
  939MOL0     C26650   1.727   1.583   8.402 -0.1508  0.2571 -0.4149
  939MOL0     C26651   1.722   1.468   8.496  0.9523  0.2956  0.0072
  939MOL0     C26652   1.682   1.333   8.411 -0.3073 -0.3762  0.1404
  939MOL0     C26653   1.531   1.321   8.357 -0.0769 -0.4511 -0.5785
  939MOL0     O26654   1.446   1.384   8.463  0.8165  0.1486  0.2240
  939MOL0     C26655   1.356   1.289   8.511 -0.3687 -0.6477 -0.2183
  939MOL0     C26656   1.375   1.148   8.531 -0.6094 -0.0685 -0.2418
  939MOL0     C26657   1.278   1.055   8.581 -1.2613 -0.5103  0.4435
  939MOL0     C26658   1.317   0.906   8.602  0.0666 -0.3751 -0.0897
  939MOL0     C26659   1.154   1.113   8.623 -0.2200 -0.2176  0.2774
  939MOL0     C26660   1.038   1.038   8.679 -1.2774  1.3831  0.5885
  939MOL0     O26661   0.935   1.107   8.731 -0.1691 -0.6119  0.3285
  939MOL0     C26662   0.845   1.045   8.815 -0.1688  0.0600  0.4766
  939MOL0     C26663   0.709   1.052   8.782  1.0811  0.3082  0.5938
  939MOL0     C26664   0.613   0.983   8.850  0.2367 -1.0672 -0.5031
  939MOL0     C26665   0.646   0.903   8.966  0.9197  0.0274  0.3162
  939MOL0     O26666   0.552   0.839   9.048  0.7514  1.0394  0.2832
  939MOL0     C26667   0.414   0.886   9.059  0.2048  0.8418  0.0321
  939MOL0     C26668   0.328   0.835   9.172  0.1660 -0.0606  0.1155
  939MOL0     C26669   0.405   0.828   9.304 -0.0634  1.1810  0.1963
  939MOL0     C26670   0.312   0.800   9.427  0.9730 -0.8857  0.2667
  939MOL0     C26671   0.255   0.937   9.474  1.0856  0.2801  0.6037
  939MOL0     C26672   0.186   0.929   9.612 -0.2016 -0.1732 -0.3260
  939MOL0     C26673   0.129   1.057   9.674  0.1722  0.2994  0.0897
  939MOL0     C26674   0.123   1.057   9.830 -0.0394  0.1734  0.3990
  939MOL0    Cl26675   0.036   0.918   9.909  0.3080 -0.2885  0.1771
  939MOL0     C26676   0.777   0.902   9.007 -0.6266 -0.2828 -0.0903
  939MOL0     C26677   0.879   0.967   8.930 -0.4664  0.4720 -0.1118
  939MOL0     O26678   1.051   0.909   8.667  0.0260  0.6095  0.7410
  939MOL0     C26679   1.137   1.254   8.616  0.0484  0.0425 -0.2214
  939MOL0     C26680   1.236   1.333   8.555 -0.0470 -0.0085  0.0100
  939MOL0     N26681   1.941   1.719   8.382  0.5486 -0.3162 -0.5891
  939MOL0     N26682   2.014   1.798   8.459 -0.2601  0.1395 -0.0138
  939MOL0     C26683   2.939   1.350   8.964  0.2483  0.5380 -0.3712
  939MOL0     C26684   3.053   1.265   8.983 -0.0313 -0.6905 -0.2829
  939MOL0     C26685   3.481   1.079   8.854  0.3004  0.1078  0.6702
  939MOL0     C26686   3.524   1.072   8.987 -0.0880  0.3051  0.7932
  939MOL0     C26687   3.654   1.034   9.005 -0.0011 -0.4651 -0.5907
  939MOL0     C26688   3.743   0.996   8.905  0.0799 -0.5804 -0.1859
  939MOL0     O26689   3.860   0.936   8.933 -0.3038  0.6508 -0.5563
  939MOL0     C26690   3.915   0.932   9.067  0.0239 -0.3076 -0.2953
  939MOL0     C26691   4.031   0.823   9.062  0.0421 -0.4242  0.2650
  939MOL0     C26692   4.089   0.787   9.198  0.4591 -0.2475 -0.0298
  939MOL0     C26693   4.231   0.731   9.181  0.0063 -0.0539 -0.1808
  939MOL0     C26694   4.229   0.598   9.124 -0.4162  0.3908  0.6039
  939MOL0     C26695   4.229   0.488   9.079  0.9374  1.4789  0.2092
  939MOL0     C26696   3.691   0.996   8.776 -0.4132 -0.6137  0.7570
  939MOL0     C26697   3.558   1.036   8.743  0.9031  0.0221 -0.1390
  939MOL0     H26698   3.240   1.370   8.731  0.6427 -1.5442  0.8292
  939MOL0     H26699   3.025   1.479   8.658  0.6336 -2.7221 -1.4603
  939MOL0     H26700   2.671   1.455   8.928  0.9210 -0.6169 -1.2079
  939MOL0     H26701   2.759   1.594   8.987  4.3734  1.6074 -1.4956
  939MOL0     H26702   2.672   1.720   8.780 -0.8911 -0.7816 -1.6182
  939MOL0     H26703   2.596   1.564   8.736  0.2402  0.1925  0.3071
  939MOL0     H26704   2.449   1.578   8.920 -0.6856 -0.0648 -4.1383
  939MOL0     H26705   2.546   1.716   8.984 -0.8109  0.0341  1.0138
  939MOL0     H26706   2.482   1.839   8.767  1.3426 -0.9321 -2.1173
  939MOL0     H26707   2.378   1.692   8.748  0.2755  0.7468  0.4614
  939MOL0     H26708   2.278   1.734   8.955  2.1165 -1.0597 -0.2253
  939MOL0     H26709   2.364   1.889   8.977 -3.3522  1.1347  0.9793
  939MOL0     H26710   2.133   1.915   8.919  0.2147 -2.0418  0.6137
  939MOL0     H26711   2.235   1.997   8.795 -0.4827 -0.2988 -0.0277
  939MOL0     H26712   2.191   1.808   8.645 -1.2576 -0.9587 -0.4832
  939MOL0     H26713   2.089   1.726   8.759  0.5853 -0.6632 -0.9857
  939MOL0     H26714   2.017   1.998   8.661  0.0839 -0.6389 -1.4148
  939MOL0     H26715   1.927   1.903   8.768  2.0048 -0.3611  1.5746
  939MOL0     H26716   1.766   1.720   8.653 -0.1440 -0.3454 -0.1795
  939MOL0     H26717   1.626   1.624   8.390  0.3016  1.5475  0.0280
  939MOL0     H26718   1.751   1.554   8.299  0.8024  1.8728 -0.6780
  939MOL0     H26719   1.636   1.482   8.563 -0.3051  2.4067 -1.9004
  939MOL0     H26720   1.816   1.450   8.548 -0.1742 -4.1298  0.8786
  939MOL0     H26721   1.699   1.257   8.487  0.1619 -0.0098  0.3997
  939MOL0     H26722   1.743   1.319   8.321  0.2352  1.1730  0.2265
  939MOL0     H26723   1.492   1.224   8.324 -0.2123 -0.7882  0.5334
  939MOL0     H26724   1.505   1.383   8.271  0.1721 -0.6572 -0.8081
  939MOL0     H26725   1.473   1.107   8.513 -0.1883  0.9764 -0.4290
  939MOL0     H26726   1.413   0.874   8.561  1.2407  1.0795  1.3624
  939MOL0     H26727   1.321   0.886   8.710  2.6033  1.4677  0.2529
  939MOL0     H26728   1.241   0.844   8.554  0.7460 -0.9216 -0.4740
  939MOL0     H26729   0.685   1.121   8.701  1.1630  2.1013  2.0234
  939MOL0     H26730   0.513   1.016   8.824 -0.1153  0.0859  2.0014
  939MOL0     H26731   0.424   0.995   9.064  3.2107  0.6683  0.0670
  939MOL0     H26732   0.375   0.844   8.967  2.4676  1.2331 -1.1915
  939MOL0     H26733   0.251   0.911   9.186  1.0639  1.1878 -1.4116
  939MOL0     H26734   0.279   0.739   9.153  0.4006 -0.5255  1.7044
  939MOL0     H26735   0.456   0.923   9.319  0.0199  0.7288  3.5878
  939MOL0     H26736   0.482   0.752   9.294  0.0078  1.0957  1.2445
  939MOL0     H26737   0.232   0.728   9.408  0.8471 -1.0007  1.1970
  939MOL0     H26738   0.369   0.764   9.513 -0.8042 -1.2365  1.3601
  939MOL0     H26739   0.186   0.978   9.399  1.8580 -0.0995 -0.3474
  939MOL0     H26740   0.332   1.014   9.486  0.6690  0.7480  0.3057
  939MOL0     H26741   0.105   0.856   9.611  0.7752 -1.2763 -0.5186
  939MOL0     H26742   0.262   0.894   9.683  1.8730  0.3517 -2.1953
  939MOL0     H26743   0.032   1.071   9.626  0.3939  1.2763 -0.1081
  939MOL0     H26744   0.196   1.137   9.640  0.9576 -0.8944 -1.2564
  939MOL0     H26745   0.096   1.159   9.862 -1.1656 -0.0809  0.3164
  939MOL0     H26746   0.228   1.050   9.858  0.5359 -0.5379 -1.7363
  939MOL0     H26747   0.786   0.848   9.101 -0.0464  0.4829  0.3097
  939MOL0     H26748   0.983   0.975   8.961 -0.7195  2.9484  0.3048
  939MOL0     H26749   1.051   1.309   8.654  0.7486  0.6860  0.4663
  939MOL0     H26750   1.215   1.439   8.544 -0.5514  0.2935  3.0960
  939MOL0     H26751   2.853   1.345   9.031  0.4970  0.7798 -0.0329
  939MOL0     H26752   3.057   1.189   9.061 -1.5032 -1.7331 -1.1687
  939MOL0     H26753   3.459   1.086   9.073 -1.5543  0.7252 -0.3376
  939MOL0     H26754   3.676   1.026   9.111 -1.4920 -2.4011 -0.3567
  939MOL0     H26755   3.963   1.024   9.102 -2.6314  1.2898 -0.6469
  939MOL0     H26756   3.829   0.901   9.126 -0.8818  1.4705 -0.6110
  939MOL0     H26757   4.116   0.864   9.006 -0.5694  0.8559  0.2247
  939MOL0     H26758   3.993   0.730   9.019 -4.7283  1.7141 -0.7837
  939MOL0     H26759   4.022   0.713   9.244  3.1423 -2.8403  0.0032
  939MOL0     H26760   4.093   0.879   9.257 -2.3117 -0.5510  0.7686
  939MOL0     H26761   4.277   0.731   9.280 -1.7537  0.3868  0.6806
  939MOL0     H26762   4.296   0.794   9.120 -0.5818  1.8625  1.0760
  939MOL0     H26763   4.231   0.394   9.028  0.5245  0.9737  1.1097
  939MOL0     H26764   3.750   0.957   8.694 -2.8778 -0.8295 -1.0211
  939MOL0     H26765   3.524   1.028   8.640 -2.8694  0.5494  0.8895
  940MOL0     O26766   7.254   1.449   8.821 -0.0937 -0.2816 -0.1042
  940MOL0     C26767   7.275   1.567   8.784 -0.2603 -0.7645 -0.6804
  940MOL0     O26768   7.385   1.634   8.820 -0.4183  0.8608  0.1451
  940MOL0     C26769   7.512   1.586   8.818 -0.3889 -0.4053 -0.1768
  940MOL0     C26770   7.616   1.684   8.811  0.4887 -0.3401  0.1001
  940MOL0     C26771   7.752   1.656   8.804 -0.0246 -0.1021  0.3908
  940MOL0     C26772   7.799   1.525   8.824  0.7325  0.1353 -0.0743
  940MOL0     O26773   7.940   1.516   8.814  0.4549 -0.2465 -1.7861
  940MOL0     C26774   7.977   1.392   8.768  1.0253 -0.4776 -0.0173
  940MOL0     C26775   8.112   1.374   8.710 -0.6401 -0.0632  0.7428
  940MOL0     C26776   8.219   1.375   8.818 -0.7627 -0.4191 -0.4937
  940MOL0     C26777   8.367   1.342   8.780  0.1979  0.7012 -1.0856
  940MOL0     C26778   8.436   1.310   8.911 -0.8195 -0.6145 -0.6244
  940MOL0     C26779   8.572   1.242   8.901  0.8680  0.2570  0.3162
  940MOL0     C26780   8.694   1.335   8.923 -0.0240 -0.0772  0.0330
  940MOL0     C26781   8.687   1.415   9.048  0.6309 -0.1204 -0.5094
  940MOL0     N26782   8.655   1.339   9.163 -0.4864  0.3496  0.6034
  940MOL0     C26783   8.538   1.340   9.235 -0.6779  1.0209 -0.1304
  940MOL0     C26784   8.563   1.248   9.336  0.0250  0.9184 -0.5779
  940MOL0     C26785   8.465   1.210   9.440 -0.5883  0.0623  0.0179
  940MOL0     C26786   8.317   1.255   9.412 -0.8412  1.1622  0.3023
  940MOL0     C26787   8.259   1.166   9.302 -0.2587  0.1788  0.0290
  940MOL0     C26788   8.108   1.162   9.295 -0.4479 -0.6875 -0.7444
  940MOL0     O26789   8.068   1.298   9.267 -0.0926 -0.0024  0.1142
  940MOL0     C26790   7.932   1.324   9.262  0.2658 -0.2654 -0.6789
  940MOL0     C26791   7.829   1.237   9.304 -0.5137 -0.4556 -0.4936
  940MOL0     C26792   7.695   1.279   9.305 -0.6683 -0.3455  0.7744
  940MOL0     C26793   7.586   1.176   9.348 -0.1879 -0.5457 -0.2187
  940MOL0     C26794   7.661   1.408   9.258 -0.5337 -0.8120  0.0961
  940MOL0     C26795   7.525   1.460   9.258 -0.1028 -0.6140  0.1074
  940MOL0     O26796   7.491   1.535   9.152  0.8442  0.1412 -0.3315
  940MOL0     C26797   7.364   1.590   9.157 -0.6904  0.1591  0.8966
  940MOL0     C26798   7.250   1.511   9.126 -0.3111 -0.4325 -0.1302
  940MOL0     C26799   7.123   1.566   9.143  0.2351 -0.4428  0.5431
  940MOL0     C26800   7.110   1.705   9.185  0.1374  0.0711 -0.0605
  940MOL0     O26801   6.986   1.775   9.195  0.2177  0.0093 -0.3383
  940MOL0     C26802   6.863   1.698   9.218 -0.3470  0.6445  0.1173
  940MOL0     C26803   6.872   1.650   9.366  0.1128  0.4708 -0.1832
  940MOL0     C26804   6.753   1.568   9.413 -0.3231  0.0617 -0.0069
  940MOL0     C26805   6.618   1.643   9.375 -0.6245  0.7555  0.1522
  940MOL0     C26806   6.496   1.570   9.445 -0.1256  0.3756  0.4604
  940MOL0     C26807   6.433   1.463   9.359  0.2600 -0.5412  0.2009
  940MOL0     C26808   6.382   1.497   9.223  0.0971 -0.0206  0.9558
  940MOL0     C26809   6.312   1.372   9.161  0.7157  0.2219 -0.3105
  940MOL0    Cl26810   6.140   1.353   9.246 -0.4141  0.5413  0.2451
  940MOL0     C26811   7.229   1.781   9.212 -0.2302 -0.0809  0.3803
  940MOL0     C26812   7.354   1.726   9.202 -0.5614  1.3666 -1.0999
  940MOL0     O26813   7.453   1.437   9.358 -0.1516 -0.3388 -0.4439
  940MOL0     C26814   7.768   1.495   9.220 -0.6934 -0.0042 -1.0218
  940MOL0     C26815   7.897   1.447   9.212 -0.3512 -0.5911 -0.0042
  940MOL0     N26816   8.689   1.195   9.326  0.0644  0.0050 -0.7644
  940MOL0     N26817   8.744   1.253   9.224 -0.4506  0.3578  0.1400
  940MOL0     C26818   7.697   1.424   8.829 -0.3635  0.2020  0.0294
  940MOL0     C26819   7.558   1.448   8.821  0.1517 -0.3754 -0.2130
  940MOL0     C26820   7.163   1.622   8.706  1.0275 -0.7056  0.4767
  940MOL0     C26821   7.034   1.566   8.700 -0.1552 -0.8174  0.3641
  940MOL0     C26822   6.927   1.628   8.619 -0.5795 -0.5857  0.6231
  940MOL0     C26823   6.965   1.743   8.539  1.2363  0.3518  0.2054
  940MOL0     O26824   6.874   1.819   8.465  1.0764  0.2696 -0.4423
  940MOL0     C26825   6.748   1.764   8.405  0.0500 -0.0080  0.2638
  940MOL0     C26826   6.702   1.871   8.320  1.0414 -0.3415 -0.1244
  940MOL0     C26827   6.576   1.834   8.227 -0.3460 -0.1361 -1.4007
  940MOL0     C26828   6.509   1.961   8.159 -1.1650 -0.2062  0.0810
  940MOL0     C26829   6.420   2.031   8.256  0.7969  0.2194 -0.4283
  940MOL0     C26830   6.352   2.092   8.332  0.2750 -0.4549  0.4874
  940MOL0     C26831   7.097   1.783   8.537  0.1172 -0.0476  0.0267
  940MOL0     C26832   7.196   1.732   8.616  1.0185 -0.5883 -0.0399
  940MOL0     H26833   7.600   1.791   8.805  2.8557  0.2230  2.2099
  940MOL0     H26834   7.823   1.737   8.791 -0.5275  0.1514 -0.8509
  940MOL0     H26835   7.971   1.319   8.848  2.6150  0.2975  0.8421
  940MOL0     H26836   7.917   1.358   8.682  1.5469 -0.3345 -0.4420
  940MOL0     H26837   8.107   1.275   8.663 -2.7875  1.0615 -1.6297
  940MOL0     H26838   8.132   1.449   8.633 -1.8878 -1.4494 -1.0087
  940MOL0     H26839   8.210   1.474   8.864  0.2601 -0.8522  0.7023
  940MOL0     H26840   8.191   1.300   8.892  0.8563  1.3686  2.1244
  940MOL0     H26841   8.380   1.255   8.715  1.2298 -0.9469  1.2076
  940MOL0     H26842   8.420   1.431   8.742  0.2412  1.2645  0.2466
  940MOL0     H26843   8.434   1.400   8.973  0.6281  0.4180 -1.9770
  940MOL0     H26844   8.370   1.241   8.965 -5.1141  0.5147 -3.8899
  940MOL0     H26845   8.581   1.149   8.958  0.9769 -1.0761 -1.7569
  940MOL0     H26846   8.588   1.199   8.802 -2.2969 -0.7840  0.1488
  940MOL0     H26847   8.788   1.279   8.922 -0.8585 -1.5687 -2.3119
  940MOL0     H26848   8.699   1.404   8.838  1.3705  0.4416  0.5006
  940MOL0     H26849   8.624   1.504   9.036  1.1159  0.0016 -2.5061
  940MOL0     H26850   8.786   1.453   9.077 -0.3171  0.2799  2.5406
  940MOL0     H26851   8.446   1.396   9.227 -1.3542  0.2937  1.9250
  940MOL0     H26852   8.482   1.103   9.457 -0.8479 -0.2268 -1.4425
  940MOL0     H26853   8.486   1.258   9.536 -1.0033 -0.7957  0.5482
  940MOL0     H26854   8.319   1.362   9.388 -1.3325  1.0769 -0.1374
  940MOL0     H26855   8.257   1.244   9.503  0.4272  0.8229  1.1296
  940MOL0     H26856   8.296   1.063   9.306  1.1271  0.6886  3.4606
  940MOL0     H26857   8.294   1.196   9.202 -1.4593 -2.4110 -1.2691
  940MOL0     H26858   8.086   1.138   9.400  0.8932 -0.8466 -0.4782
  940MOL0     H26859   8.064   1.088   9.228 -3.4307  0.1077  0.1877
  940MOL0     H26860   7.859   1.140   9.342  0.9596  0.1995  0.0714
  940MOL0     H26861   7.566   1.197   9.453  0.2966  2.2209 -0.5897
  940MOL0     H26862   7.501   1.204   9.285 -0.5745  3.8969  1.8934
  940MOL0     H26863   7.609   1.072   9.323 -4.0381 -1.5490 -0.2361
  940MOL0     H26864   7.279   1.413   9.092 -0.1048  0.2216 -1.9479
  940MOL0     H26865   7.035   1.510   9.114 -0.8957  0.7087  1.5540
  940MOL0     H26866   6.787   1.769   9.188 -3.6705 -1.5607  2.6240
  940MOL0     H26867   6.850   1.618   9.144  0.7172  0.0399  0.5562
  940MOL0     H26868   6.952   1.576   9.374 -0.9028 -0.8312 -1.4187
  940MOL0     H26869   6.894   1.735   9.431  1.5909 -0.7152  0.9379
  940MOL0     H26870   6.769   1.547   9.519  1.0758 -0.5109 -0.3214
  940MOL0     H26871   6.753   1.474   9.357  0.3584  0.5018 -0.7821
  940MOL0     H26872   6.631   1.744   9.416  1.9633  1.1024 -1.2586
  940MOL0     H26873   6.605   1.653   9.267  0.6129 -1.2942 -0.2355
  940MOL0     H26874   6.423   1.650   9.465 -1.8603 -0.6709 -1.3211
  940MOL0     H26875   6.536   1.530   9.539  2.3232 -3.1865 -1.8582
  940MOL0     H26876   6.496   1.375   9.348  0.4452 -0.7303  2.3316
  940MOL0     H26877   6.350   1.422   9.417  1.9427 -3.9664  0.3966
  940MOL0     H26878   6.470   1.530   9.167 -0.7639  2.6756  1.0176
  940MOL0     H26879   6.324   1.590   9.214  0.8225  0.2474 -2.5209
  940MOL0     H26880   6.370   1.280   9.166  2.2921  0.9878 -2.7750
  940MOL0     H26881   6.288   1.397   9.057 -1.6224 -1.2545 -0.1922
  940MOL0     H26882   7.220   1.882   9.250 -1.9020 -1.1403  3.0591
  940MOL0     H26883   7.447   1.780   9.213  0.5147 -0.8989  2.4282
  940MOL0     H26884   7.750   1.598   9.189  1.4735  1.2903  1.6227
  940MOL0     H26885   7.978   1.515   9.186  1.9716 -3.1961 -0.1132
  940MOL0     H26886   7.738   1.323   8.829  3.1690  1.4893 -1.0788
  940MOL0     H26887   7.489   1.365   8.828 -1.2369  0.6602 -1.0873
  940MOL0     H26888   6.998   1.482   8.758 -3.9737  1.3858  1.5643
  940MOL0     H26889   6.823   1.600   8.628 -0.5615 -0.8896 -0.0777
  940MOL0     H26890   6.767   1.678   8.341 -2.6898 -1.8342  1.6901
  940MOL0     H26891   6.672   1.728   8.475  0.4715 -2.0671 -0.2905
  940MOL0     H26892   6.785   1.897   8.254  1.5315  2.9874  1.5729
  940MOL0     H26893   6.665   1.958   8.375  0.3849 -0.2978 -0.6123
  940MOL0     H26894   6.494   1.782   8.278  0.4604 -1.5778 -1.5211
  940MOL0     H26895   6.610   1.765   8.149 -1.4600 -1.1530 -1.0283
  940MOL0     H26896   6.454   1.936   8.068 -0.9856  2.4354 -0.8372
  940MOL0     H26897   6.587   2.025   8.117 -0.0212 -0.7546  1.3171
  940MOL0     H26898   6.291   2.166   8.380 -0.6642 -0.2211 -1.0178
  940MOL0     H26899   7.114   1.865   8.467 -2.1856  0.8893  0.4725
  940MOL0     H26900   7.289   1.787   8.612  0.7614 -0.0198  1.3703
  941MOL0     O26901   4.221   3.473   5.000 -0.6468  0.0203 -0.1357
  941MOL0     C26902   4.272   3.438   5.107 -0.1427 -0.3684  0.2976
  941MOL0     O26903   4.219   3.351   5.194 -0.0506  0.6430  0.1932
  941MOL0     C26904   4.100   3.288   5.160 -0.1094  0.6067 -1.0757
  941MOL0     C26905   3.983   3.314   5.239  0.5716 -0.3853  0.5010
  941MOL0     C26906   3.859   3.252   5.201  0.2250 -0.5094 -0.0589
  941MOL0     C26907   3.849   3.185   5.082  0.5214  0.1267 -0.7047
  941MOL0     O26908   3.734   3.134   5.026  0.4810  0.1195 -0.3825
  941MOL0     C26909   3.645   3.055   5.112 -0.2389 -0.3669 -0.5286
  941MOL0     C26910   3.501   3.087   5.095  0.2217  0.4861 -0.3627
  941MOL0     C26911   3.471   3.224   5.139  1.4343 -0.7626 -0.4622
  941MOL0     C26912   3.324   3.249   5.139 -0.8417  1.3477  0.1489
  941MOL0     C26913   3.304   3.404   5.168 -0.2905 -0.2062 -0.4180
  941MOL0     C26914   3.345   3.486   5.045 -0.7807 -0.3954 -0.3314
  941MOL0     C26915   3.303   3.633   5.052  0.7984  0.1110  0.7699
  941MOL0     C26916   3.142   3.648   5.047 -0.0705 -0.1726  0.6105
  941MOL0     N26917   3.095   3.624   4.910 -0.7440 -0.0960  0.0046
  941MOL0     C26918   3.083   3.721   4.815 -1.1773  0.3410  0.6534
  941MOL0     C26919   3.021   3.655   4.707  0.2129  0.4982  0.2866
  941MOL0     C26920   2.971   3.700   4.563 -0.0714  0.3271  0.2918
  941MOL0     C26921   3.023   3.595   4.455  0.1478 -0.0668 -0.3540
  941MOL0     C26922   3.136   3.658   4.379  0.3045  0.7224  0.6220
  941MOL0     C26923   3.231   3.562   4.302  0.7531  0.5422  0.1536
  941MOL0     O26924   3.152   3.460   4.228 -0.3560 -0.0397  0.1219
  941MOL0     C26925   3.173   3.437   4.092 -0.5702  0.6079  0.0418
  941MOL0     C26926   3.063   3.385   4.022 -0.9188  0.1168 -0.1977
  941MOL0     C26927   3.082   3.347   3.890  0.1070 -0.2052 -0.9741
  941MOL0     C26928   2.966   3.275   3.820 -0.3747 -0.3614  0.0078
  941MOL0     C26929   3.192   3.394   3.821  0.2209  0.5358  0.2636
  941MOL0     C26930   3.214   3.364   3.670 -0.0843  0.1870 -0.5115
  941MOL0     O26931   3.132   3.426   3.588 -0.3400  0.2733 -0.7287
  941MOL0     C26932   3.156   3.406   3.454  0.1799  0.5053  0.2276
  941MOL0     C26933   3.152   3.529   3.376 -0.3971 -0.1537 -1.1237
  941MOL0     C26934   3.178   3.520   3.240  0.3901 -1.8860  0.4448
  941MOL0     C26935   3.208   3.402   3.177 -0.1699 -0.2971  0.0833
  941MOL0     O26936   3.240   3.391   3.041  0.1204 -0.2117 -0.1769
  941MOL0     C26937   3.318   3.504   2.995  1.3456 -0.4159  0.2254
  941MOL0     C26938   3.394   3.476   2.874 -0.0178 -0.7150 -0.5425
  941MOL0     C26939   3.419   3.609   2.782 -0.4507 -0.1954 -1.5522
  941MOL0     C26940   3.489   3.565   2.653  0.6119  0.1043 -0.5987
  941MOL0     C26941   3.643   3.560   2.665 -1.2227 -0.1200 -1.1399
  941MOL0     C26942   3.726   3.531   2.537  0.7237  0.3575  0.2132
  941MOL0     C26943   3.875   3.568   2.554 -0.5973 -0.8213 -0.3992
  941MOL0     C26944   3.968   3.507   2.441  0.4454 -0.8371 -0.1083
  941MOL0    Cl26945   3.990   3.332   2.470 -0.1636  0.4244 -0.4574
  941MOL0     C26946   3.215   3.281   3.251 -0.6363 -0.5281  0.4253
  941MOL0     C26947   3.180   3.285   3.392  0.4494  0.0749  0.4489
  941MOL0     O26948   3.294   3.276   3.637 -0.4118 -1.3123  0.2688
  941MOL0     C26949   3.293   3.462   3.884 -0.6014 -0.3561 -0.0088
  941MOL0     C26950   3.294   3.476   4.021  0.4840  0.6688 -0.0042
  941MOL0     N26951   2.983   3.523   4.754 -0.3741 -0.4066  0.0018
  941MOL0     N26952   3.024   3.510   4.877  0.0053 -0.8662 -0.0346
  941MOL0     C26953   3.964   3.163   5.011  0.3519 -0.7969  0.0101
  941MOL0     C26954   4.095   3.207   5.046  0.3535  0.8168  0.4593
  941MOL0     C26955   4.409   3.492   5.136 -0.1729 -0.0734  0.0971
  941MOL0     C26956   4.470   3.467   5.261 -0.1926 -0.0901 -0.2997
  941MOL0     C26957   4.600   3.522   5.289  0.5061 -0.4839 -0.2805
  941MOL0     C26958   4.666   3.607   5.191  0.4099  0.4896 -0.2409
  941MOL0     O26959   4.792   3.666   5.197  0.2354 -0.4820 -0.9561
  941MOL0     C26960   4.859   3.640   5.319  0.0478  0.3992 -0.2790
  941MOL0     C26961   5.016   3.661   5.304  0.0285  0.4034 -0.0911
  941MOL0     C26962   5.093   3.558   5.213  0.2891 -0.4557  0.3002
  941MOL0     C26963   5.103   3.431   5.296  0.7505  0.4735  0.0341
  941MOL0     C26964   5.191   3.342   5.219 -0.0483  0.2239 -0.2159
  941MOL0     C26965   5.261   3.287   5.144 -0.0852  0.5218 -0.5424
  941MOL0     C26966   4.614   3.619   5.072  0.3551  0.1009  0.4802
  941MOL0     C26967   4.486   3.562   5.041  0.4782 -0.6553  0.0095
  941MOL0     H26968   3.994   3.379   5.325 -1.5058 -0.8443  1.1867
  941MOL0     H26969   3.781   3.267   5.275  0.8066 -3.2924  1.2504
  941MOL0     H26970   3.663   2.950   5.086  1.1554 -0.7507  1.7543
  941MOL0     H26971   3.663   3.053   5.220  0.8869 -0.5215 -0.7040
  941MOL0     H26972   3.472   3.070   4.991 -2.1681  0.0246  0.3201
  941MOL0     H26973   3.447   3.012   5.152 -0.3310 -1.1698 -2.9356
  941MOL0     H26974   3.522   3.246   5.234  3.2067 -1.9021 -1.0993
  941MOL0     H26975   3.518   3.287   5.064  0.8438  1.7879  1.1907
  941MOL0     H26976   3.279   3.220   5.044  1.5207 -2.1629 -0.0991
  941MOL0     H26977   3.273   3.185   5.211 -0.8166  0.9119 -0.2169
  941MOL0     H26978   3.201   3.413   5.203 -0.7724 -2.9028 -0.8907
  941MOL0     H26979   3.362   3.435   5.256 -3.3578  0.9856  1.3375
  941MOL0     H26980   3.451   3.470   5.027 -0.3797  0.7407  0.8724
  941MOL0     H26981   3.301   3.452   4.951  1.2169  0.4355 -1.6288
  941MOL0     H26982   3.349   3.680   5.140 -0.1086  1.3178  0.6255
  941MOL0     H26983   3.340   3.682   4.961  1.3861  2.2959  2.1087
  941MOL0     H26984   3.126   3.752   5.078  1.2265  0.2507 -0.0774
  941MOL0     H26985   3.099   3.581   5.122  0.7901 -1.0879  0.3024
  941MOL0     H26986   3.112   3.825   4.817  1.8920 -0.4365  2.5357
  941MOL0     H26987   2.865   3.719   4.546  0.7635  3.3759 -2.4206
  941MOL0     H26988   3.018   3.798   4.568  0.7026 -0.0725  1.1276
  941MOL0     H26989   2.947   3.573   4.380 -0.3958  0.9672 -0.1272
  941MOL0     H26990   3.049   3.497   4.495 -2.6996 -1.4049 -1.4795
  941MOL0     H26991   3.206   3.695   4.454  2.8694 -0.4248 -1.0927
  941MOL0     H26992   3.100   3.740   4.317 -2.5032 -1.7517 -1.3058
  941MOL0     H26993   3.293   3.514   4.378  2.6154 -1.0297 -2.2198
  941MOL0     H26994   3.302   3.628   4.252  0.2539  1.6624  0.8842
  941MOL0     H26995   2.972   3.373   4.080 -0.4568  1.1767  0.7814
  941MOL0     H26996   2.875   3.267   3.880 -1.1983  0.2325 -1.1076
  941MOL0     H26997   2.940   3.328   3.727  1.6402 -0.0258 -0.4251
  941MOL0     H26998   3.014   3.180   3.796  0.9641  0.3052 -0.0417
  941MOL0     H26999   3.125   3.618   3.432  1.1325 -1.8293  2.6557
  941MOL0     H27000   3.178   3.606   3.174 -1.0387  0.6254  3.4375
  941MOL0     H27001   3.249   3.586   2.972  2.5873  0.4524 -0.4830
  941MOL0     H27002   3.380   3.531   3.080  0.0657 -1.8999  1.6968
  941MOL0     H27003   3.492   3.431   2.891  1.1059  2.3088  1.8392
  941MOL0     H27004   3.338   3.407   2.810 -1.4138  1.4604 -1.8252
  941MOL0     H27005   3.479   3.684   2.834 -2.4622  0.4579 -0.0286
  941MOL0     H27006   3.326   3.659   2.754  0.8092  1.5621 -2.8384
  941MOL0     H27007   3.442   3.474   2.616 -0.7792  0.5285  0.0561
  941MOL0     H27008   3.467   3.645   2.582 -0.0586 -0.2087 -0.7495
  941MOL0     H27009   3.680   3.486   2.736 -1.8156  1.0704  0.4503
  941MOL0     H27010   3.676   3.656   2.705  2.0271 -1.7200  0.3572
  941MOL0     H27011   3.721   3.423   2.520  0.0543  0.7167 -2.2911
  941MOL0     H27012   3.686   3.585   2.451 -1.6537  0.5183  1.3473
  941MOL0     H27013   3.926   3.548   2.649  0.5726 -1.1581 -1.0860
  941MOL0     H27014   3.872   3.677   2.540 -1.4636 -1.1321 -3.2533
  941MOL0     H27015   4.058   3.569   2.444 -1.6406  2.7067 -2.6324
  941MOL0     H27016   3.915   3.530   2.348 -0.8144  2.6237  1.2939
  941MOL0     H27017   3.236   3.187   3.201 -0.6692 -0.0115 -0.5894
  941MOL0     H27018   3.193   3.192   3.447 -0.1128 -0.6710 -0.6468
  941MOL0     H27019   3.371   3.491   3.814 -0.0686 -0.6733  0.4483
  941MOL0     H27020   3.389   3.493   4.070  1.0701 -3.4279  0.6682
  941MOL0     H27021   3.960   3.104   4.920  1.1842 -1.3810  0.3403
  941MOL0     H27022   4.186   3.193   4.989 -0.8087 -2.6482 -0.7909
  941MOL0     H27023   4.410   3.409   5.330 -2.6742  3.4875  0.7995
  941MOL0     H27024   4.628   3.493   5.390  1.5458 -1.1758 -0.7553
  941MOL0     H27025   4.813   3.703   5.395 -5.3237 -1.5312 -1.4750
  941MOL0     H27026   4.859   3.537   5.356  0.5248 -0.0746 -1.5384
  941MOL0     H27027   5.055   3.662   5.406 -1.9803 -0.6706  0.7421
  941MOL0     H27028   5.037   3.753   5.248 -2.1671 -0.9142 -3.4300
  941MOL0     H27029   5.194   3.589   5.186  0.5398  1.4204  2.9667
  941MOL0     H27030   5.040   3.536   5.120  0.7205  0.2641 -0.1235
  941MOL0     H27031   5.004   3.387   5.313  0.0743  1.9905  0.2269
  941MOL0     H27032   5.147   3.456   5.393  1.3617  3.0996 -0.8342
  941MOL0     H27033   5.331   3.250   5.072  2.7446  2.8353  0.7857
  941MOL0     H27034   4.671   3.662   4.990 -3.2586 -0.4240 -2.5891
  941MOL0     H27035   4.445   3.561   4.941  1.1879  2.9406 -0.4558
  942MOL0     O27036   6.641   6.778   7.514 -0.0891 -0.1723 -0.6158
  942MOL0     C27037   6.727   6.816   7.598  0.2996 -0.0495  0.1009
  942MOL0     O27038   6.716   6.789   7.736  0.2767 -0.0684 -0.4020
  942MOL0     C27039   6.606   6.721   7.785  0.2712 -0.5662  0.9788
  942MOL0     C27040   6.476   6.775   7.786  0.1385 -0.2839 -0.1017
  942MOL0     C27041   6.371   6.693   7.829 -0.2054 -0.2709  0.1447
  942MOL0     C27042   6.381   6.576   7.894  0.3139 -0.1384  0.9291
  942MOL0     O27043   6.279   6.488   7.914  0.7585 -0.3575  0.4909
  942MOL0     C27044   6.157   6.539   7.973 -0.1927  0.5345 -0.4961
  942MOL0     C27045   6.082   6.422   8.039  0.0257 -0.4195  0.4626
  942MOL0     C27046   5.945   6.470   8.084  0.5811  0.2503 -0.4982
  942MOL0     C27047   5.845   6.450   7.977  0.0021 -0.5322 -0.3755
  942MOL0     C27048   5.708   6.490   8.024  0.5663 -0.3239 -0.3352
  942MOL0     C27049   5.600   6.507   7.911  0.3899  0.1089  0.5630
  942MOL0     C27050   5.466   6.552   7.981  0.0995 -0.6753  0.6765
  942MOL0     C27051   5.358   6.570   7.875 -0.8201  0.1251 -0.2269
  942MOL0     N27052   5.261   6.674   7.914  0.1474  0.1173  0.1445
  942MOL0     C27053   5.143   6.694   7.847  0.5524 -0.3333  0.3766
  942MOL0     C27054   5.058   6.735   7.942 -0.3168  0.4571 -1.5555
  942MOL0     C27055   4.919   6.793   7.935  0.2660 -0.5949 -0.4248
  942MOL0     C27056   4.806   6.706   7.882  1.1268  0.2538  0.7380
  942MOL0     C27057   4.680   6.788   7.877 -0.0527 -0.2255  0.6066
  942MOL0     C27058   4.563   6.697   7.839 -0.4585 -0.3856  0.6389
  942MOL0     O27059   4.533   6.613   7.948 -0.2007 -0.4168 -0.3628
  942MOL0     C27060   4.419   6.536   7.929 -0.0880  0.3539 -0.9649
  942MOL0     C27061   4.369   6.494   7.806  0.0602 -0.4410 -0.0439
  942MOL0     C27062   4.228   6.445   7.802 -0.0312 -0.5789  0.2674
  942MOL0     C27063   4.171   6.434   7.661 -0.2518  0.3763  0.2111
  942MOL0     C27064   4.152   6.417   7.922 -0.6730 -0.2233 -0.2811
  942MOL0     C27065   4.019   6.352   7.922 -0.5789 -1.3545 -0.0924
  942MOL0     O27066   3.941   6.335   7.813 -0.4907  0.2332 -0.1037
  942MOL0     C27067   3.812   6.292   7.835 -0.2347  0.6215 -0.1240
  942MOL0     C27068   3.693   6.369   7.847  0.4663 -0.3158 -1.1517
  942MOL0     C27069   3.566   6.304   7.862 -0.0704  0.2663 -0.1270
  942MOL0     C27070   3.561   6.159   7.865  0.0993 -0.5195 -0.4860
  942MOL0     O27071   3.445   6.085   7.876  0.3808 -0.0306 -0.4553
  942MOL0     C27072   3.317   6.149   7.855  0.4833 -0.5180  0.4922
  942MOL0     C27073   3.187   6.057   7.844 -0.5088  0.0431  0.2216
  942MOL0     C27074   3.056   6.145   7.844  0.0046 -0.0357  0.6918
  942MOL0     C27075   2.936   6.062   7.807  0.3276 -0.4017  0.2490
  942MOL0     C27076   2.809   6.149   7.832  0.4623  0.3275 -0.0522
  942MOL0     C27077   2.687   6.054   7.850  0.7144 -0.8149  0.8578
  942MOL0     C27078   2.566   6.114   7.916 -0.7836  0.9537 -0.8965
  942MOL0     C27079   2.588   6.134   8.073  0.0266  0.3065 -0.0261
  942MOL0    Cl27080   2.464   6.254   8.129 -0.1745 -0.0814  0.1426
  942MOL0     C27081   3.672   6.085   7.839  0.0119 -0.5072  0.0828
  942MOL0     C27082   3.799   6.150   7.830 -0.2609  0.1927  0.7267
  942MOL0     O27083   3.987   6.309   8.036  0.8913  0.1802  0.6362
  942MOL0     C27084   4.219   6.452   8.040  0.9859 -0.4883  1.7234
  942MOL0     C27085   4.349   6.514   8.046  0.7620  0.0098 -0.7722
  942MOL0     N27086   5.125   6.740   8.066  0.1754 -0.2928  1.2303
  942MOL0     N27087   5.244   6.700   8.049  0.1570  0.4226  0.0729
  942MOL0     C27088   6.510   6.531   7.909  0.3847 -0.0176 -0.1195
  942MOL0     C27089   6.623   6.602   7.851  0.0522 -0.4861  0.5712
  942MOL0     C27090   6.859   6.860   7.548 -0.1945  0.7426  0.1198
  942MOL0     C27091   6.968   6.864   7.636 -0.3702 -0.2609  0.2928
  942MOL0     C27092   7.099   6.905   7.594 -1.2074 -0.3132 -0.2573
  942MOL0     C27093   7.129   6.929   7.458  0.2342 -0.8787  0.5111
  942MOL0     O27094   7.259   6.958   7.413  0.3013  0.1852 -0.5195
  942MOL0     C27095   7.310   6.884   7.297  0.1149 -0.1115  0.8467
  942MOL0     C27096   7.461   6.915   7.286  0.6243 -0.8427  0.4564
  942MOL0     C27097   7.515   6.879   7.150  0.1730 -0.7036  0.2214
  942MOL0     C27098   7.661   6.875   7.145 -0.3339 -0.5072 -0.0553
  942MOL0     C27099   7.693   6.854   7.002  0.6228  0.1835 -0.3600
  942MOL0     C27100   7.700   6.829   6.883  0.5442  0.3660  0.0328
  942MOL0     C27101   7.018   6.912   7.371  0.0131 -0.2009  0.7057
  942MOL0     C27102   6.885   6.890   7.419  0.6507 -0.6810  0.4757
  942MOL0     H27103   6.448   6.870   7.742 -1.3664 -0.7809 -0.2662
  942MOL0     H27104   6.267   6.726   7.824  0.1002  0.7527  0.3821
  942MOL0     H27105   6.177   6.618   8.045  1.2510  1.2992 -1.6803
  942MOL0     H27106   6.101   6.575   7.887  0.9987  2.2157 -0.6049
  942MOL0     H27107   6.065   6.332   7.979 -3.9061 -0.0877  0.8299
  942MOL0     H27108   6.125   6.384   8.132  0.8369  2.5152  1.4173
  942MOL0     H27109   5.915   6.414   8.173  2.9552  0.9994  0.8521
  942MOL0     H27110   5.943   6.575   8.114 -1.0237  0.2496 -0.4953
  942MOL0     H27111   5.872   6.512   7.891 -3.1099 -0.9137 -1.7391
  942MOL0     H27112   5.844   6.348   7.938 -1.9522  0.7555 -4.1780
  942MOL0     H27113   5.678   6.408   8.089  1.1640 -1.7732 -1.8138
  942MOL0     H27114   5.711   6.590   8.069 -1.5508 -0.3351 -0.0674
  942MOL0     H27115   5.633   6.575   7.832 -0.1072  0.2678  0.4873
  942MOL0     H27116   5.578   6.409   7.868  0.0063  1.3125 -2.1825
  942MOL0     H27117   5.424   6.488   8.058 -0.4398  0.6898  1.5502
  942MOL0     H27118   5.488   6.652   8.019 -0.2084  0.6374 -2.2765
  942MOL0     H27119   5.303   6.476   7.862 -2.6981  1.2973 -1.3171
  942MOL0     H27120   5.399   6.606   7.780 -0.4674 -0.2221 -0.2089
  942MOL0     H27121   5.116   6.671   7.745 -0.7805  2.9190 -0.1279
  942MOL0     H27122   4.885   6.831   8.031  0.1151  3.5654 -1.9196
  942MOL0     H27123   4.921   6.882   7.871 -0.7601  0.7559  1.3453
  942MOL0     H27124   4.788   6.617   7.941 -2.1580 -1.5421 -2.5512
  942MOL0     H27125   4.825   6.667   7.781 -1.6172  2.4767 -0.7959
  942MOL0     H27126   4.683   6.871   7.805 -0.3637 -0.6951  0.0442
  942MOL0     H27127   4.656   6.832   7.974 -0.0163  0.4464  0.3224
  942MOL0     H27128   4.585   6.650   7.743  1.7882 -0.7833  1.2886
  942MOL0     H27129   4.473   6.759   7.830  1.5582  2.3862 -4.2876
  942MOL0     H27130   4.415   6.516   7.710 -0.6742  0.9375 -0.1028
  942MOL0     H27131   4.128   6.336   7.637 -0.3510  1.0380 -2.8212
  942MOL0     H27132   4.099   6.515   7.645  0.0223  0.2060 -2.3801
  942MOL0     H27133   4.254   6.456   7.593  0.2098  0.2625  0.7322
  942MOL0     H27134   3.692   6.477   7.847  2.0343 -0.2173  1.1109
  942MOL0     H27135   3.482   6.372   7.872  1.1475  1.7264  0.5847
  942MOL0     H27136   3.299   6.232   7.925  3.5273 -0.5321  1.4506
  942MOL0     H27137   3.319   6.207   7.762  0.3411 -0.0828  0.7554
  942MOL0     H27138   3.195   5.993   7.756  2.0065 -0.0263  0.4153
  942MOL0     H27139   3.185   5.991   7.932  2.7111  0.6262  0.8583
  942MOL0     H27140   3.070   6.227   7.774  0.0129 -0.2711  0.4147
  942MOL0     H27141   3.048   6.182   7.947  1.0860  1.4012  0.2982
  942MOL0     H27142   2.937   6.010   7.711  0.2058 -1.0534  0.5972
  942MOL0     H27143   2.930   5.973   7.870 -2.0933 -1.6460 -1.5408
  942MOL0     H27144   2.793   6.204   7.739  1.5293  0.1920 -0.3335
  942MOL0     H27145   2.822   6.216   7.918  2.9725  1.9567 -1.5683
  942MOL0     H27146   2.667   6.014   7.750  4.3195  0.9692 -0.8079
  942MOL0     H27147   2.724   5.980   7.921 -1.6052 -1.3753  1.5624
  942MOL0     H27148   2.478   6.050   7.905 -1.4631  2.1472 -3.0186
  942MOL0     H27149   2.555   6.212   7.869  1.3765  1.6836 -0.0111
  942MOL0     H27150   2.686   6.179   8.091 -0.6607  2.9338 -2.1654
  942MOL0     H27151   2.568   6.044   8.132  1.1970 -0.3783 -0.6498
  942MOL0     H27152   3.662   5.977   7.838 -0.9401 -0.4215 -0.2965
  942MOL0     H27153   3.888   6.089   7.825 -0.4264 -0.0292 -3.8196
  942MOL0     H27154   4.160   6.442   8.131 -0.9887  0.0542  0.5740
  942MOL0     H27155   4.376   6.545   8.146  0.1187  1.4160 -1.0157
  942MOL0     H27156   6.532   6.431   7.945  5.2560  0.6908 -0.4885
  942MOL0     H27157   6.725   6.569   7.868  0.3216  1.0772  2.2939
  942MOL0     H27158   6.959   6.850   7.744 -0.3646 -0.5481  0.2568
  942MOL0     H27159   7.185   6.902   7.659 -0.1358  1.1498 -1.5359
  942MOL0     H27160   7.290   6.777   7.299 -0.9157  0.0288 -0.3565
  942MOL0     H27161   7.254   6.926   7.213 -0.7595 -3.0113 -0.1081
  942MOL0     H27162   7.520   6.859   7.359 -0.2885 -0.7627  1.2869
  942MOL0     H27163   7.471   7.022   7.307  0.0803  0.0593 -3.1970
  942MOL0     H27164   7.467   6.954   7.086  0.9224  0.1397  0.6126
  942MOL0     H27165   7.468   6.784   7.124 -0.1785 -0.3720 -0.3688
  942MOL0     H27166   7.699   6.786   7.196  1.3523 -0.5847 -1.3352
  942MOL0     H27167   7.724   6.956   7.184  1.5795 -1.5021 -0.9173
  942MOL0     H27168   7.723   6.805   6.781 -1.4861  0.1330 -0.4057
  942MOL0     H27169   7.027   6.935   7.266 -2.2660  2.7879  1.0343
  942MOL0     H27170   6.807   6.884   7.344 -0.3966 -1.7845  1.6093
  943MOL0     O27171  10.900  10.177   5.388 -0.1427  0.3114  0.6540
  943MOL0     C27172  11.007  10.114   5.382 -0.1451  0.7659  0.0559
  943MOL0     O27173  11.015   9.986   5.331 -0.3410  0.8542 -0.4679
  943MOL0     C27174  10.896   9.921   5.319  0.0149 -0.9758  0.3931
  943MOL0     C27175  10.828   9.878   5.430 -0.2658  0.1359  0.2742
  943MOL0     C27176  10.699   9.830   5.413 -0.9514 -0.5323 -0.1659
  943MOL0     C27177  10.642   9.814   5.280  0.5412 -0.1099 -0.7936
  943MOL0     O27178  10.509   9.773   5.262  0.2858  0.3030  0.4697
  943MOL0     C27179  10.452   9.701   5.369 -0.7959  0.3055  0.5549
  943MOL0     C27180  10.320   9.638   5.320 -0.2387 -0.0569 -0.4218
  943MOL0     C27181  10.261   9.562   5.440 -0.3505  0.2059  0.1291
  943MOL0     C27182  10.125   9.486   5.404  0.5669  0.3201  0.8097
  943MOL0     C27183  10.027   9.465   5.523  0.4773  0.2184  0.1753
  943MOL0     C27184   9.885   9.442   5.454 -0.8787 -0.2806 -0.4476
  943MOL0     C27185   9.780   9.443   5.573  0.4811  0.3127 -0.2444
  943MOL0     C27186   9.815   9.335   5.673 -0.8927 -0.1195 -0.6038
  943MOL0     N27187   9.712   9.304   5.769  0.1591  0.2345  0.4242
  943MOL0     C27188   9.694   9.181   5.809  0.6254 -0.0895  0.1888
  943MOL0     C27189   9.581   9.179   5.890 -0.0737  0.8460  1.4975
  943MOL0     C27190   9.533   9.049   5.959  0.7102 -0.0062 -0.1265
  943MOL0     C27191   9.380   9.052   5.953 -0.3894  0.7982 -0.0582
  943MOL0     C27192   9.318   9.026   5.819  0.3016  0.3794  0.3932
  943MOL0     C27193   9.169   8.998   5.838 -0.0708  0.2505 -0.6095
  943MOL0     O27194   9.130   8.864   5.874 -0.0079  0.3152  0.3078
  943MOL0     C27195   8.993   8.824   5.866 -0.7313 -0.3110 -0.0072
  943MOL0     C27196   8.915   8.786   5.976 -0.2784  0.0306  0.3445
  943MOL0     C27197   8.783   8.744   5.975 -0.6143  0.1727 -0.9777
  943MOL0     C27198   8.718   8.716   6.109 -0.7039 -0.4532  0.1700
  943MOL0     C27199   8.718   8.725   5.846 -0.6934  0.1241  0.7538
  943MOL0     C27200   8.584   8.677   5.830  0.4712  0.5942  0.0108
  943MOL0     O27201   8.534   8.666   5.708  0.7412  0.0286  1.0516
  943MOL0     C27202   8.400   8.628   5.707 -0.1910  0.5613 -1.1649
  943MOL0     C27203   8.368   8.495   5.676 -0.4400  0.7450 -0.1617
  943MOL0     C27204   8.236   8.467   5.655  0.8699  0.7025  0.3523
  943MOL0     C27205   8.127   8.558   5.666 -0.3570  0.4447  0.0429
  943MOL0     O27206   7.999   8.518   5.646 -0.1867  0.5442  0.8557
  943MOL0     C27207   7.896   8.623   5.652 -0.7131 -0.9663  0.0723
  943MOL0     C27208   7.772   8.570   5.585 -0.0238 -0.3807  0.0617
  943MOL0     C27209   7.711   8.440   5.654  0.4398 -0.8713 -0.3304
  943MOL0     C27210   7.592   8.487   5.745  0.0620  0.2099  0.5032
  943MOL0     C27211   7.525   8.358   5.784  0.2021  0.1269 -0.9358
  943MOL0     C27212   7.418   8.376   5.897 -0.1741  0.1848 -0.3506
  943MOL0     C27213   7.364   8.244   5.947  0.6192 -0.4098  0.3736
  943MOL0     C27214   7.271   8.260   6.068  0.6822 -0.4800  0.8780
  943MOL0    Cl27215   7.110   8.325   6.006  0.2069  0.3042 -0.1447
  943MOL0     C27216   8.166   8.682   5.706 -0.2905  0.5846 -0.1321
  943MOL0     C27217   8.293   8.718   5.721 -0.6826  0.1048 -0.0657
  943MOL0     O27218   8.524   8.635   5.931  0.3258 -0.1561 -0.8532
  943MOL0     C27219   8.796   8.757   5.727 -0.3663 -0.6801 -0.1739
  943MOL0     C27220   8.929   8.809   5.745 -0.0305  0.6916  1.2364
  943MOL0     N27221   9.530   9.308   5.888  0.5127  0.1825 -0.2284
  943MOL0     N27222   9.615   9.385   5.827 -0.1896  0.1474  0.2661
  943MOL0     C27223  10.721   9.843   5.170 -1.0245  0.4943 -0.3133
  943MOL0     C27224  10.846   9.898   5.191 -0.0085  0.5871  0.1810
  943MOL0     C27225  11.138  10.171   5.415 -1.0484  0.6186  0.5635
  943MOL0     C27226  11.146  10.287   5.497 -0.6382 -0.2520 -0.2837
  943MOL0     C27227  11.272  10.327   5.546 -0.0067 -0.2545  0.2866
  943MOL0     C27228  11.383  10.255   5.514  0.2976  0.0919 -0.2130
  943MOL0     O27229  11.498  10.301   5.576  0.3148 -0.8749 -0.6739
  943MOL0     C27230  11.609  10.214   5.557  1.0686 -0.2241  0.2276
  943MOL0     C27231  11.724  10.273   5.650  0.1393 -0.6414 -0.0993
  943MOL0     C27232  11.823  10.164   5.699  0.2656  0.0254  0.1993
  943MOL0     C27233  11.917  10.233   5.791  0.1141 -0.1929 -0.5701
  943MOL0     C27234  12.049  10.173   5.778 -0.2323  0.7699  1.4029
  943MOL0     C27235  12.150  10.115   5.742 -0.2987 -0.1247  0.4039
  943MOL0     C27236  11.377  10.150   5.408 -0.7637  0.4047  0.5262
  943MOL0     C27237  11.258  10.105   5.369  0.2743 -0.0081 -0.0051
  943MOL0     H27238  10.856   9.908   5.530 -1.4357  2.5394 -0.0392
  943MOL0     H27239  10.638   9.817   5.502 -3.9715 -0.4385 -2.0867
  943MOL0     H27240  10.515   9.616   5.396 -0.7953 -0.3781 -1.4659
  943MOL0     H27241  10.447   9.766   5.457 -0.2112  0.7631  0.2584
  943MOL0     H27242  10.253   9.713   5.276  0.0788 -0.9467 -2.5431
  943MOL0     H27243  10.335   9.567   5.238  1.0954  0.7619 -0.9246
  943MOL0     H27244  10.330   9.480   5.465 -2.1556 -1.4364 -0.0012
  943MOL0     H27245  10.237   9.623   5.527 -3.1634 -0.7452  0.1329
  943MOL0     H27246  10.079   9.545   5.325 -1.6473 -1.6414  0.5229
  943MOL0     H27247  10.156   9.390   5.361  0.5009  0.8381 -0.4186
  943MOL0     H27248  10.053   9.376   5.581  1.2591  0.5902  0.3980
  943MOL0     H27249  10.031   9.546   5.596 -1.1579  0.5261 -0.0403
  943MOL0     H27250   9.863   9.508   5.370 -1.5850  0.5235  0.3432
  943MOL0     H27251   9.876   9.344   5.407 -0.3366  0.4254 -2.0906
  943MOL0     H27252   9.781   9.546   5.611  2.2082  0.9214 -1.8066
  943MOL0     H27253   9.689   9.425   5.515 -0.8254 -0.3480  1.8769
  943MOL0     H27254   9.907   9.356   5.728  0.9240 -1.3833 -2.9295
  943MOL0     H27255   9.846   9.243   5.622 -0.2041 -1.8816  2.7636
  943MOL0     H27256   9.751   9.090   5.793 -0.0545 -1.1578  3.1996
  943MOL0     H27257   9.587   8.962   5.920  1.0375  0.1525 -0.0360
  943MOL0     H27258   9.561   9.052   6.065  3.0557 -0.6897 -0.6718
  943MOL0     H27259   9.356   9.146   6.003  3.3239 -0.3263  4.4898
  943MOL0     H27260   9.350   8.974   6.023 -1.7925  1.7401  0.4323
  943MOL0     H27261   9.361   8.945   5.759 -0.4036 -1.0083  1.6650
  943MOL0     H27262   9.328   9.117   5.760 -2.3766  1.2208  1.0889
  943MOL0     H27263   9.125   9.017   5.739  0.0571  1.6376 -0.4165
  943MOL0     H27264   9.120   9.061   5.913  1.1134  1.9426 -1.1831
  943MOL0     H27265   8.951   8.805   6.076 -1.1841  0.1546  0.6592
  943MOL0     H27266   8.780   8.742   6.196  0.4502 -0.2299 -0.7035
  943MOL0     H27267   8.616   8.754   6.111 -0.5881 -0.1087 -0.2917
  943MOL0     H27268   8.698   8.610   6.130 -1.1720 -0.4721 -0.3620
  943MOL0     H27269   8.444   8.423   5.647 -1.0906  0.6171 -1.6623
  943MOL0     H27270   8.205   8.366   5.631  1.6625  0.1813  1.4358
  943MOL0     H27271   7.862   8.636   5.755 -2.1666 -1.5479 -0.3115
  943MOL0     H27272   7.932   8.717   5.610  0.2688 -0.6005  1.6564
  943MOL0     H27273   7.706   8.655   5.567  0.6499  0.1919  0.2349
  943MOL0     H27274   7.809   8.540   5.487  0.6746 -2.3050  0.8513
  943MOL0     H27275   7.788   8.386   5.710 -1.3648 -3.9395 -0.5645
  943MOL0     H27276   7.680   8.385   5.565 -0.0455 -1.1875  0.0252
  943MOL0     H27277   7.615   8.545   5.835  1.7032 -0.6943  0.7146
  943MOL0     H27278   7.537   8.554   5.678 -2.7362 -1.9453  0.4541
  943MOL0     H27279   7.605   8.297   5.828 -0.1395  0.1842 -0.2182
  943MOL0     H27280   7.474   8.301   5.706 -0.7148 -0.2240 -0.1098
  943MOL0     H27281   7.442   8.430   5.989 -1.8474 -0.6479  0.6214
  943MOL0     H27282   7.337   8.435   5.855  0.1032  0.0944 -1.0278
  943MOL0     H27283   7.456   8.191   5.974  2.0385  1.5871 -0.2802
  943MOL0     H27284   7.313   8.193   5.865 -0.4185  1.6246 -0.2942
  943MOL0     H27285   7.301   8.331   6.145  1.4766  0.1584 -0.0060
  943MOL0     H27286   7.255   8.160   6.110  0.5281  0.0351  2.0804
  943MOL0     H27287   8.095   8.752   5.748 -0.8823 -0.8418  1.3414
  943MOL0     H27288   8.310   8.825   5.731 -1.7858  0.4278 -1.3783
  943MOL0     H27289   8.753   8.741   5.629 -1.4992  1.8263 -0.1603
  943MOL0     H27290   8.992   8.831   5.660 -1.1890 -0.4573  0.0107
  943MOL0     H27291  10.675   9.846   5.072  1.6169  1.6786 -1.6108
  943MOL0     H27292  10.911   9.936   5.112 -2.7536  0.0203 -2.5347
  943MOL0     H27293  11.062  10.353   5.516  1.6132  2.0168  2.9025
  943MOL0     H27294  11.266  10.412   5.612 -0.4019  0.9961 -1.2963
  943MOL0     H27295  11.572  10.114   5.578 -2.6198  0.3018 -2.7205
  943MOL0     H27296  11.656  10.213   5.458  2.5325 -0.9336  0.8983
  943MOL0     H27297  11.671  10.318   5.735 -1.9897  0.9377 -2.1458
  943MOL0     H27298  11.771  10.361   5.605 -3.1362  2.1071  1.4038
  943MOL0     H27299  11.875  10.128   5.609 -0.9622 -1.7519  0.1666
  943MOL0     H27300  11.764  10.087   5.749  0.8856 -0.3741  0.3284
  943MOL0     H27301  11.888  10.204   5.892 -0.5697  1.3223 -0.3000
  943MOL0     H27302  11.922  10.342   5.789  3.5983 -0.0229  3.3327
  943MOL0     H27303  12.232  10.063   5.698 -1.3886 -2.1603  0.6615
  943MOL0     H27304  11.451  10.087   5.362 -3.3294 -0.9561 -2.0313
  943MOL0     H27305  11.271  10.019   5.304  1.8641 -0.0774  0.3715
  944MOL0     O27306   5.849   1.624  11.321  0.2097 -0.0011  0.7219
  944MOL0     C27307   5.895   1.740  11.312 -0.0400  0.5044  0.3303
  944MOL0     O27308   5.832   1.861  11.337  0.2582 -0.0414 -0.4906
  944MOL0     C27309   5.701   1.864  11.371 -0.2251  0.8219 -0.8342
  944MOL0     C27310   5.593   1.821  11.296  0.0241 -1.0977 -0.2987
  944MOL0     C27311   5.468   1.847  11.340  0.3711  1.1032 -0.0206
  944MOL0     C27312   5.447   1.905  11.468  0.7742  0.3232  0.3477
  944MOL0     O27313   5.327   1.935  11.523  0.2677  0.1153 -0.3345
  944MOL0     C27314   5.246   1.818  11.562 -0.2701  0.2191 -0.3115
  944MOL0     C27315   5.150   1.851  11.668  0.3241 -0.3376  0.0143
  944MOL0     C27316   5.042   1.735  11.677 -0.0014  0.1713  0.6937
  944MOL0     C27317   4.978   1.745  11.817 -0.2589 -0.1914  0.6690
  944MOL0     C27318   4.876   1.640  11.850  0.0602  0.3498 -0.9126
  944MOL0     C27319   4.829   1.658  11.997 -0.4716 -0.3705  0.6144
  944MOL0     C27320   4.764   1.797  12.032  0.1861  0.9204 -0.5932
  944MOL0     C27321   4.646   1.828  11.950 -0.3156  0.2451  0.3629
  944MOL0     N27322   4.617   1.963  11.958 -0.8846 -0.0668 -0.3745
  944MOL0     C27323   4.672   2.062  11.873 -0.3162  0.0874  0.2992
  944MOL0     C27324   4.573   2.157  11.887  0.2747  0.0289 -0.1143
  944MOL0     C27325   4.556   2.292  11.820 -0.5159  0.0152 -0.1410
  944MOL0     C27326   4.678   2.373  11.844 -0.5948  0.8676 -1.1166
  944MOL0     C27327   4.699   2.396  11.994 -0.4212 -0.6872 -0.1191
  944MOL0     C27328   4.780   2.522  12.028 -0.1247 -0.1559 -0.5397
  944MOL0     O27329   4.776   2.545  12.168  0.1092 -0.1493 -0.3767
  944MOL0     C27330   4.831   2.660  12.217  0.2626  0.0851  0.2237
  944MOL0     C27331   4.869   2.781  12.151 -0.4925 -0.9569  0.4595
  944MOL0     C27332   4.935   2.888  12.215  0.4403 -0.1649 -0.5169
  944MOL0     C27333   4.962   3.004  12.130 -0.8771  0.8582 -0.9823
  944MOL0     C27334   4.961   2.879  12.356  0.1344 -0.7651  1.4006
  944MOL0     C27335   5.023   2.983  12.434  0.2492  0.1913  0.7178
  944MOL0     O27336   5.028   2.952  12.562  0.0699 -0.3753  0.3934
  944MOL0     C27337   5.112   3.013  12.642 -0.2650 -0.6152 -0.5344
  944MOL0     C27338   5.089   2.995  12.779 -0.1825  0.0102  0.5983
  944MOL0     C27339   5.176   3.048  12.880  0.1971 -0.2879  0.4950
  944MOL0     C27340   5.293   3.104  12.834 -0.3669 -0.6587 -0.4163
  944MOL0     O27341   5.388   3.148  12.917 -0.5863  0.3059 -0.1242
  944MOL0     C27342   5.387   3.087  13.054  0.7630 -0.6274 -0.1171
  944MOL0     C27343   5.516   3.118  13.130  0.4188 -0.0960 -0.5339
  944MOL0     C27344   5.502   3.096  13.281  0.2031  0.5329 -0.1220
  944MOL0     C27345   5.642   3.069  13.351  0.3148 -0.4841  0.2350
  944MOL0     C27346   5.654   3.118  13.494  0.0120  0.3793 -0.0201
  944MOL0     C27347   5.791   3.137  13.539 -0.1361  0.2946 -0.4500
  944MOL0     C27348   5.854   3.017  13.614  0.1162 -0.3477 -0.2661
  944MOL0     C27349   6.007   3.055  13.641  0.7776 -0.0045  0.2330
  944MOL0    Cl27350   6.010   3.166  13.783  0.1048 -0.1140 -0.3077
  944MOL0     C27351   5.316   3.134  12.701  0.2798 -0.1059 -0.1687
  944MOL0     C27352   5.233   3.087  12.604 -0.2895  0.2168 -1.0544
  944MOL0     O27353   5.033   3.096  12.394 -0.4842 -0.4279 -0.5053
  944MOL0     C27354   4.920   2.762  12.424  0.0544 -1.1860  0.4281
  944MOL0     C27355   4.862   2.656  12.352 -0.4780 -0.4140 -0.3343
  944MOL0     N27356   4.484   2.125  11.981  0.7037  1.4137  0.0159
  944MOL0     N27357   4.511   2.008  12.027 -0.0626  0.3546 -0.0523
  944MOL0     C27358   5.558   1.926  11.558 -0.4657 -0.8572  0.1220
  944MOL0     C27359   5.683   1.921  11.494  0.0348  0.2851 -0.4611
  944MOL0     C27360   6.041   1.751  11.273  0.8997  0.8656  0.9618
  944MOL0     C27361   6.126   1.636  11.261  0.3591 -1.1233  0.1325
  944MOL0     C27362   6.259   1.647  11.213  0.6530 -0.1011 -0.6581
  944MOL0     C27363   6.318   1.773  11.183  0.0217 -0.0238  0.7323
  944MOL0     O27364   6.444   1.794  11.129 -0.5577 -0.1808  0.0504
  944MOL0     C27365   6.539   1.682  11.147  0.0312 -0.0842  0.0065
  944MOL0     C27366   6.546   1.583  11.024 -0.4268 -0.5870 -0.0884
  944MOL0     C27367   6.611   1.448  11.039 -0.0452 -0.2451  0.1359
  944MOL0     C27368   6.756   1.464  11.090 -0.1461 -0.5239  0.1847
  944MOL0     C27369   6.835   1.562  11.001 -0.7847  0.5037 -1.2429
  944MOL0     C27370   6.881   1.643  10.924  0.1278  0.7312  0.0785
  944MOL0     C27371   6.238   1.886  11.178 -0.1183  0.7710  0.7859
  944MOL0     C27372   6.100   1.871  11.227 -0.0752 -0.9172 -0.1225
  944MOL0     H27373   5.601   1.779  11.197 -1.3224  1.9463 -1.8309
  944MOL0     H27374   5.384   1.813  11.281  1.6221 -2.9696  0.2390
  944MOL0     H27375   5.196   1.784  11.471 -2.4769 -0.0420  0.9173
  944MOL0     H27376   5.309   1.738  11.603 -0.3026  0.4718  0.2548
  944MOL0     H27377   5.212   1.865  11.757  1.0308  2.4664 -0.7946
  944MOL0     H27378   5.106   1.949  11.645 -1.3391 -1.0708 -0.0052
  944MOL0     H27379   4.965   1.737  11.600 -1.1449  2.5256  1.7964
  944MOL0     H27380   5.088   1.636  11.674  0.4265  0.2471 -4.6937
  944MOL0     H27381   5.056   1.727  11.892  0.6579 -4.1181 -0.9342
  944MOL0     H27382   4.932   1.843  11.832 -1.1927 -0.4686 -0.2012
  944MOL0     H27383   4.790   1.659  11.785 -1.9729 -0.6903  1.3550
  944MOL0     H27384   4.913   1.538  11.858  0.6704  0.6282 -0.0059
  944MOL0     H27385   4.750   1.584  12.012 -1.7439  1.2596  2.5234
  944MOL0     H27386   4.911   1.633  12.065 -0.1084 -0.2434  0.2265
  944MOL0     H27387   4.716   1.795  12.131 -0.2033  2.5613 -0.7081
  944MOL0     H27388   4.840   1.876  12.026  1.0684  0.1549  0.2809
  944MOL0     H27389   4.555   1.771  11.971  0.3373 -1.7216 -1.6470
  944MOL0     H27390   4.657   1.808  11.843  1.1923  0.0649  0.5355
  944MOL0     H27391   4.752   2.067  11.800 -1.0360  0.4208 -0.4773
  944MOL0     H27392   4.542   2.270  11.714  0.3586 -0.1736 -0.2318
  944MOL0     H27393   4.467   2.345  11.854 -1.7579 -0.7842 -2.0112
  944MOL0     H27394   4.672   2.472  11.796  2.9673  0.9320 -1.7594
  944MOL0     H27395   4.762   2.322  11.795 -0.7311 -1.7124  1.1321
  944MOL0     H27396   4.746   2.307  12.036 -0.4199 -0.6261  0.0122
  944MOL0     H27397   4.596   2.402  12.032 -0.9265  0.7154 -1.6027
  944MOL0     H27398   4.728   2.608  11.985 -2.4472 -0.5819  1.2537
  944MOL0     H27399   4.887   2.513  12.006  0.6388  0.6942  2.3790
  944MOL0     H27400   4.845   2.788  12.045  2.5396  1.9104 -0.2133
  944MOL0     H27401   5.065   3.037  12.146 -1.2341  3.1401 -2.8120
  944MOL0     H27402   4.940   2.985  12.025  0.9755 -0.5615 -1.1769
  944MOL0     H27403   4.891   3.083  12.157 -0.9169  1.0370 -1.5911
  944MOL0     H27404   4.995   2.947  12.804  0.1001 -0.5143  0.6747
  944MOL0     H27405   5.143   3.030  12.982  1.4247 -0.9313  0.7929
  944MOL0     H27406   5.304   3.134  13.109  0.1679 -2.1954  0.3653
  944MOL0     H27407   5.369   2.980  13.048  0.4144 -0.8321  2.8653
  944MOL0     H27408   5.593   3.047  13.100 -0.6398 -2.1020  1.2530
  944MOL0     H27409   5.544   3.222  13.110  0.5149  0.2885  1.3982
  944MOL0     H27410   5.436   3.014  13.310  1.4687 -0.4515  0.0747
  944MOL0     H27411   5.460   3.185  13.328  1.0437 -0.0424  1.8131
  944MOL0     H27412   5.659   2.961  13.344 -0.7057 -0.5615 -1.9372
  944MOL0     H27413   5.712   3.124  13.287 -2.7247  2.0508 -1.1560
  944MOL0     H27414   5.586   3.067  13.563  0.0483  1.2629  0.6727
  944MOL0     H27415   5.607   3.216  13.501 -2.3876 -0.7606  0.8510
  944MOL0     H27416   5.855   3.163  13.454  1.8488  0.1521  0.9428
  944MOL0     H27417   5.795   3.221  13.608  1.1761 -0.2870  0.2353
  944MOL0     H27418   5.849   2.926  13.553  0.1145 -0.1676 -0.5386
  944MOL0     H27419   5.802   3.003  13.709 -0.4846 -1.6481 -0.7649
  944MOL0     H27420   6.046   3.100  13.550 -1.2837 -1.2083 -1.3393
  944MOL0     H27421   6.067   2.965  13.660 -0.1211 -0.5164  0.7316
  944MOL0     H27422   5.414   3.169  12.670 -0.2983  0.6265 -1.2324
  944MOL0     H27423   5.257   3.107  12.500 -0.2279  0.8856 -0.9145
  944MOL0     H27424   4.945   2.752  12.529 -0.7737 -0.4401  0.7049
  944MOL0     H27425   4.846   2.564  12.407  1.7663 -0.4240  0.4009
  944MOL0     H27426   5.554   1.958  11.661 -4.5055 -2.4600  0.6663
  944MOL0     H27427   5.762   1.952  11.561  0.9207  1.5354 -2.0106
  944MOL0     H27428   6.074   1.548  11.299 -4.1293  1.1552 -0.0615
  944MOL0     H27429   6.323   1.560  11.217  0.1000 -0.4782  2.6078
  944MOL0     H27430   6.633   1.735  11.162 -1.3509  1.7759  2.9784
  944MOL0     H27431   6.528   1.637  11.246  3.6364 -1.7027 -0.1664
  944MOL0     H27432   6.591   1.632  10.937  0.9269  2.7956  2.3064
  944MOL0     H27433   6.447   1.554  10.985  1.1644 -2.2044 -3.3462
  944MOL0     H27434   6.622   1.398  10.942  1.2063 -1.3095  0.7876
  944MOL0     H27435   6.548   1.374  11.088 -1.2539 -0.0497 -1.0597
  944MOL0     H27436   6.808   1.368  11.086 -1.0030 -0.9633 -1.0471
  944MOL0     H27437   6.755   1.482  11.198 -2.9344 -1.7680  0.4713
  944MOL0     H27438   6.938   1.713  10.866  0.9669  1.0664  1.2603
  944MOL0     H27439   6.281   1.978  11.141 -1.0609  1.4867  1.4120
  944MOL0     H27440   6.044   1.964  11.231  0.3185 -0.6481 -0.6420
  945MOL0     O27441   0.549   5.289   7.083  0.2322  0.3981  0.3145
  945MOL0     C27442   0.543   5.236   6.972 -0.2940 -0.5306  0.6721
  945MOL0     O27443   0.638   5.162   6.911 -0.1086 -0.1045 -0.3256
  945MOL0     C27444   0.763   5.168   6.971  0.2081  0.3220 -0.7422
  945MOL0     C27445   0.842   5.280   6.973  0.4832 -0.9282  0.0885
  945MOL0     C27446   0.973   5.282   7.018 -1.0396  0.6102  0.0544
  945MOL0     C27447   1.033   5.168   7.073 -1.1166  0.5029  0.2132
  945MOL0     O27448   1.166   5.171   7.117 -0.0013  0.2571 -0.0470
  945MOL0     C27449   1.221   5.042   7.159  0.0071 -0.1657 -0.4221
  945MOL0     C27450   1.375   5.054   7.179 -0.2282  1.3025 -0.2597
  945MOL0     C27451   1.425   4.907   7.202 -0.8100 -0.1445  0.0674
  945MOL0     C27452   1.434   4.856   7.348 -0.1520  0.0924  0.0172
  945MOL0     C27453   1.471   4.704   7.358  0.0965  0.1658 -0.3579
  945MOL0     C27454   1.514   4.647   7.490  0.6048  0.1501 -1.2288
  945MOL0     C27455   1.574   4.506   7.468 -0.9955 -0.5667  0.1464
  945MOL0     C27456   1.600   4.454   7.607  0.2195  0.2477  0.2178
  945MOL0     N27457   1.700   4.522   7.689  0.1438  0.9045  0.3666
  945MOL0     C27458   1.838   4.544   7.667 -0.7925 -0.7848  0.1136
  945MOL0     C27459   1.870   4.640   7.759 -0.0460 -0.1959 -0.3431
  945MOL0     C27460   1.993   4.714   7.774 -0.3857  0.4400  0.2788
  945MOL0     C27461   1.997   4.824   7.664 -0.3639  0.0678 -0.4132
  945MOL0     C27462   1.876   4.922   7.643  0.4014 -0.8272  0.0865
  945MOL0     C27463   1.847   5.015   7.761  0.2787 -0.5358  0.0863
  945MOL0     O27464   1.763   5.122   7.716 -0.1570 -0.2225 -0.6585
  945MOL0     C27465   1.633   5.108   7.697 -0.0827 -0.1979 -0.2869
  945MOL0     C27466   1.567   5.198   7.620 -0.7644 -0.2350 -0.1003
  945MOL0     C27467   1.429   5.186   7.612 -0.1960 -1.2785 -0.8884
  945MOL0     C27468   1.375   5.311   7.538 -0.4511 -0.2470 -0.2227
  945MOL0     C27469   1.361   5.086   7.667  0.8097  0.5746  0.1128
  945MOL0     C27470   1.207   5.085   7.663 -0.4239 -0.0466 -0.2758
  945MOL0     O27471   1.156   4.962   7.665  0.4063 -0.2895 -0.9107
  945MOL0     C27472   1.021   4.948   7.616 -0.1387  0.1010 -0.1269
  945MOL0     C27473   0.930   4.865   7.694  0.2476  0.4143  0.5666
  945MOL0     C27474   0.807   4.838   7.638  0.4573 -0.2548  0.1726
  945MOL0     C27475   0.762   4.878   7.514  0.1420  0.4702  0.4323
  945MOL0     O27476   0.630   4.833   7.487  0.0951  0.1018  0.1957
  945MOL0     C27477   0.581   4.847   7.358  0.2605  0.7431  0.7318
  945MOL0     C27478   0.531   4.985   7.327 -0.5536  0.7111  0.3367
  945MOL0     C27479   0.419   4.983   7.229 -0.3328  0.1410  0.1591
  945MOL0     C27480   0.272   4.961   7.269 -0.0966  0.3925 -0.1266
  945MOL0     C27481   0.181   4.928   7.148 -1.0054  0.0685  0.1866
  945MOL0     C27482   0.040   4.960   7.169  0.0605 -0.4439  0.5635
  945MOL0     C27483  -0.058   4.979   7.051 -0.1171 -0.1218 -0.0169
  945MOL0     C27484  -0.063   4.849   6.963 -0.6660  1.1760 -0.0231
  945MOL0    Cl27485  -0.178   4.842   6.831 -0.1671 -0.2449 -0.1238
  945MOL0     C27486   0.840   4.961   7.437 -0.4034 -0.3032  0.2243
  945MOL0     C27487   0.975   4.991   7.491  0.6092 -0.5707  0.9247
  945MOL0     O27488   1.148   5.194   7.661  0.3445  0.2522 -0.2650
  945MOL0     C27489   1.428   4.980   7.735 -0.0589 -0.7463 -0.9013
  945MOL0     C27490   1.565   4.995   7.746 -0.2302 -0.8111  0.0287
  945MOL0     N27491   1.766   4.661   7.845  0.2893 -0.2782  0.7077
  945MOL0     N27492   1.667   4.586   7.804  0.4745  0.3364 -0.6059
  945MOL0     C27493   0.951   5.057   7.084  1.0301  0.1396 -0.5474
  945MOL0     C27494   0.819   5.048   7.031 -0.2252 -0.1200 -0.2774
  945MOL0     C27495   0.412   5.232   6.902 -0.5396 -0.1013 -0.9024
  945MOL0     C27496   0.370   5.118   6.829  0.1031  0.0763 -0.2673
  945MOL0     C27497   0.240   5.123   6.781 -0.5786  0.3051 -0.1998
  945MOL0     C27498   0.159   5.233   6.793  0.2098 -0.3798 -0.0809
  945MOL0     O27499   0.048   5.228   6.718 -0.2109 -0.8464 -0.0241
  945MOL0     C27500  -0.044   5.328   6.756 -0.3220  0.2589  0.2501
  945MOL0     C27501  -0.170   5.325   6.665 -0.1111 -0.4949  0.0093
  945MOL0     C27502  -0.262   5.220   6.718 -0.2754 -0.5014  0.5600
  945MOL0     C27503  -0.329   5.257   6.856 -0.3491  0.3112  0.5395
  945MOL0     C27504  -0.413   5.372   6.830  0.2269  0.5816 -0.9421
  945MOL0     C27505  -0.493   5.463   6.811  1.0079 -0.5953  0.0014
  945MOL0     C27506   0.202   5.345   6.876  0.0689  0.8248 -0.2791
  945MOL0     C27507   0.329   5.342   6.930  0.6214 -0.3135 -0.1336
  945MOL0     H27508   0.797   5.371   6.934 -2.5253 -1.3240  2.2636
  945MOL0     H27509   1.029   5.374   7.006  0.6770 -0.2397  1.1455
  945MOL0     H27510   1.174   4.998   7.247 -1.1259 -3.4321 -2.4378
  945MOL0     H27511   1.206   4.970   7.077 -3.8697 -0.9928  0.8229
  945MOL0     H27512   1.415   5.094   7.086  1.6355 -0.9289 -0.4884
  945MOL0     H27513   1.401   5.108   7.271  0.2821 -0.4924  0.6999
  945MOL0     H27514   1.369   4.834   7.142 -1.4667 -0.5134  1.0866
  945MOL0     H27515   1.520   4.900   7.150 -0.7319 -0.4883  0.2542
  945MOL0     H27516   1.502   4.920   7.406  1.6462 -0.0746 -1.7726
  945MOL0     H27517   1.331   4.861   7.384 -1.1337  2.8381 -2.7496
  945MOL0     H27518   1.391   4.649   7.307  1.1687  0.0488 -1.9919
  945MOL0     H27519   1.557   4.692   7.291  1.7698 -0.9171  1.8621
  945MOL0     H27520   1.593   4.707   7.536 -1.6990  0.4620  2.7876
  945MOL0     H27521   1.432   4.638   7.561  1.1809  2.0785 -0.2389
  945MOL0     H27522   1.505   4.439   7.415  1.2476 -1.5933 -1.6606
  945MOL0     H27523   1.666   4.517   7.409  0.2049 -0.3078  1.9953
  945MOL0     H27524   1.627   4.350   7.589  0.4153  0.5788 -1.6903
  945MOL0     H27525   1.504   4.465   7.659  1.2602  3.6159  1.7389
  945MOL0     H27526   1.908   4.505   7.593 -0.2050  0.5909 -0.0804
  945MOL0     H27527   1.992   4.754   7.875 -3.3962 -1.3879  1.1050
  945MOL0     H27528   2.084   4.655   7.753 -1.3357 -1.2905  0.8352
  945MOL0     H27529   2.021   4.776   7.569 -0.4209  1.4460 -1.1469
  945MOL0     H27530   2.085   4.881   7.696 -0.9804  0.6986  0.1682
  945MOL0     H27531   1.782   4.876   7.611  0.0870 -0.0282 -0.1630
  945MOL0     H27532   1.894   4.982   7.553  0.8806 -3.0901 -1.4047
  945MOL0     H27533   1.942   5.047   7.806  1.1512 -2.5273 -0.2216
  945MOL0     H27534   1.814   4.956   7.847  0.6224  0.7092  1.1167
  945MOL0     H27535   1.622   5.282   7.578 -0.3462 -0.6180 -0.3265
  945MOL0     H27536   1.317   5.283   7.450 -1.4219  0.5161  0.1563
  945MOL0     H27537   1.318   5.379   7.602 -0.3057  2.3161 -2.5995
  945MOL0     H27538   1.460   5.368   7.499  0.4362 -2.9255 -2.4952
  945MOL0     H27539   0.973   4.822   7.784 -0.2542 -1.1437  0.0831
  945MOL0     H27540   0.736   4.785   7.701 -0.5292  2.4443  1.4513
  945MOL0     H27541   0.648   4.813   7.278 -4.1484 -0.0803 -3.0199
  945MOL0     H27542   0.497   4.779   7.340  3.8110 -3.7028 -1.2773
  945MOL0     H27543   0.496   5.016   7.426  0.3089 -1.7834  1.5090
  945MOL0     H27544   0.604   5.058   7.292 -1.4948  1.4341 -0.1514
  945MOL0     H27545   0.437   4.911   7.148 -3.4253 -0.6963  0.1114
  945MOL0     H27546   0.418   5.079   7.176 -0.3956  0.2531  0.3631
  945MOL0     H27547   0.256   4.879   7.340  0.5424  0.5961  0.2601
  945MOL0     H27548   0.245   5.057   7.313 -3.2439 -0.3828 -0.1323
  945MOL0     H27549   0.198   4.826   7.111 -2.3393  0.2039 -0.8900
  945MOL0     H27550   0.216   4.993   7.067 -1.0313  1.6258  1.3827
  945MOL0     H27551  -0.005   4.878   7.226 -0.5944  0.7066  1.7780
  945MOL0     H27552   0.032   5.057   7.220  0.4512 -1.6484  3.1071
  945MOL0     H27553  -0.019   5.061   6.990 -1.7548 -0.6764 -1.8823
  945MOL0     H27554  -0.161   5.006   7.077  0.3258  5.2870 -2.3906
  945MOL0     H27555  -0.078   4.761   7.026 -2.9718  1.5060  0.0009
  945MOL0     H27556   0.035   4.843   6.915  1.0068  0.1352  3.2157
  945MOL0     H27557   0.813   5.008   7.343 -2.3488 -0.6789  0.5682
  945MOL0     H27558   1.042   5.055   7.435 -2.8678  0.5486 -2.3628
  945MOL0     H27559   1.373   4.892   7.767 -0.8634  0.0787  0.0402
  945MOL0     H27560   1.611   4.914   7.800  2.7379  0.0841 -0.9470
  945MOL0     H27561   0.997   4.965   7.118  4.0851  2.0004  0.7588
  945MOL0     H27562   0.759   4.958   7.038 -0.2931 -0.1183 -0.7786
  945MOL0     H27563   0.443   5.040   6.808 -1.9403 -2.1697  0.4787
  945MOL0     H27564   0.197   5.032   6.738 -0.9098  1.5902 -2.8093
  945MOL0     H27565  -0.073   5.330   6.862 -0.8270  1.5704  0.1138
  945MOL0     H27566   0.002   5.424   6.731  0.4639 -0.9860 -3.8197
  945MOL0     H27567  -0.145   5.305   6.560 -0.0681 -2.1122  0.3091
  945MOL0     H27568  -0.212   5.426   6.672 -0.4536 -0.7404  2.2783
  945MOL0     H27569  -0.210   5.125   6.708  0.0861 -0.1177 -1.9681
  945MOL0     H27570  -0.342   5.222   6.643  2.0534  3.3750 -2.2246
  945MOL0     H27571  -0.258   5.274   6.937 -0.5222 -1.0648  0.9986
  945MOL0     H27572  -0.395   5.173   6.874 -2.2978  1.7569  0.4369
  945MOL0     H27573  -0.571   5.536   6.802  0.3352 -1.4530 -1.4274
  945MOL0     H27574   0.139   5.433   6.879  1.2020  1.6487  2.1537
  945MOL0     H27575   0.354   5.426   6.994  0.7983 -0.9270  0.6296
  946MOL0     O27576   4.399   4.112   9.762 -0.7194 -0.2672 -1.1608
  946MOL0     C27577   4.336   4.054   9.674 -0.6901  0.1297 -0.1714
  946MOL0     O27578   4.387   4.021   9.551  0.6995  0.0895  0.4269
  946MOL0     C27579   4.515   4.051   9.510  0.9001  0.5407 -0.3683
  946MOL0     C27580   4.521   4.022   9.376  1.5280  0.6840  0.3060
  946MOL0     C27581   4.636   4.049   9.302 -0.2152 -0.1809 -0.4818
  946MOL0     C27582   4.750   4.094   9.367  0.2267 -0.2379  0.5761
  946MOL0     O27583   4.849   4.120   9.279  0.4497 -0.4434  0.3350
  946MOL0     C27584   4.983   4.126   9.305  0.0683  0.2454  0.0776
  946MOL0     C27585   5.069   4.100   9.181 -0.1559  0.7870 -0.2434
  946MOL0     C27586   5.220   4.089   9.226 -0.6165 -0.0305  0.1734
  946MOL0     C27587   5.291   4.221   9.213 -0.1914  0.6142 -0.2411
  946MOL0     C27588   5.440   4.231   9.260  0.7795 -0.0255 -0.7846
  946MOL0     C27589   5.511   4.354   9.219  0.2392  0.5607 -0.2223
  946MOL0     C27590   5.481   4.484   9.304  0.3546 -0.3615  0.2053
  946MOL0     C27591   5.597   4.579   9.299 -0.6937 -0.1972 -0.6410
  946MOL0     N27592   5.714   4.523   9.359 -0.2729 -0.6432  0.1208
  946MOL0     C27593   5.818   4.477   9.281  1.8330 -0.4220  0.0984
  946MOL0     C27594   5.929   4.483   9.363  0.1125  1.0414  0.0982
  946MOL0     C27595   6.067   4.442   9.334  1.0011  0.2931 -0.0444
  946MOL0     C27596   6.085   4.293   9.351 -0.2547 -0.2122 -0.3421
  946MOL0     C27597   6.204   4.237   9.274 -0.7608  0.6471  0.4302
  946MOL0     C27598   6.331   4.293   9.336  0.1445  0.2925  0.0607
  946MOL0     O27599   6.443   4.216   9.290 -0.5101 -0.2092 -0.0841
  946MOL0     C27600   6.567   4.270   9.290  0.2687  0.5718  0.1635
  946MOL0     C27601   6.598   4.380   9.362 -0.0128 -1.3335 -0.0809
  946MOL0     C27602   6.726   4.420   9.367 -1.0294 -0.4226 -0.7332
  946MOL0     C27603   6.757   4.546   9.442  0.0263 -0.1357 -0.4541
  946MOL0     C27604   6.828   4.364   9.281 -0.5584  0.3095 -0.7054
  946MOL0     C27605   6.964   4.412   9.243 -0.4052 -0.0403  0.1232
  946MOL0     O27606   7.032   4.335   9.146 -0.6471 -0.3033 -0.0021
  946MOL0     C27607   7.164   4.367   9.119  0.0191  0.0161 -0.5583
  946MOL0     C27608   7.251   4.258   9.087 -0.6560  0.5568 -0.0968
  946MOL0     C27609   7.382   4.285   9.037 -0.5950  0.2676 -0.3477
  946MOL0     C27610   7.422   4.419   9.007  0.7018 -0.7291  0.7013
  946MOL0     O27611   7.551   4.452   8.965 -0.6742  0.3266  0.2141
  946MOL0     C27612   7.588   4.407   8.834 -0.0441  0.1722  0.2437
  946MOL0     C27613   7.718   4.469   8.786  0.2301 -0.7076 -0.9097
  946MOL0     C27614   7.787   4.398   8.674 -0.1692 -0.2873 -0.0806
  946MOL0     C27615   7.887   4.492   8.596 -0.1084  0.1163 -0.9252
  946MOL0     C27616   8.001   4.421   8.524  0.1795  0.2257 -0.2075
  946MOL0     C27617   7.958   4.303   8.441  0.0307  0.2961  0.0907
  946MOL0     C27618   8.068   4.233   8.366 -0.0917  0.0059  0.9173
  946MOL0     C27619   8.030   4.083   8.343 -0.7606 -0.0057  0.3258
  946MOL0    Cl27620   7.885   4.054   8.253  0.0986 -0.0702  0.0088
  946MOL0     C27621   7.325   4.517   9.030 -0.6836 -0.2173  0.7960
  946MOL0     C27622   7.196   4.498   9.087  0.4271  0.1791  0.5905
  946MOL0     O27623   7.020   4.497   9.320 -0.1402  0.1381  1.4033
  946MOL0     C27624   6.789   4.254   9.208  0.4881  0.2218 -0.1545
  946MOL0     C27625   6.667   4.202   9.217 -0.6452 -0.6151  0.6846
  946MOL0     N27626   5.898   4.545   9.482  0.5607  0.2127  0.9074
  946MOL0     N27627   5.761   4.572   9.471  0.3383 -0.1976  0.6986
  946MOL0     C27628   4.750   4.118   9.498 -0.4698 -0.6585 -0.7656
  946MOL0     C27629   4.634   4.101   9.571  0.4176  0.6704 -0.0388
  946MOL0     C27630   4.190   4.016   9.696 -0.2773 -0.0763  0.1698
  946MOL0     C27631   4.117   4.078   9.806 -0.0971 -0.7500 -0.5124
  946MOL0     C27632   3.989   4.022   9.840 -0.1855  0.4896  0.0705
  946MOL0     C27633   3.937   3.911   9.779  0.9249  0.1405 -0.4765
  946MOL0     O27634   3.809   3.881   9.828  0.1332  0.2247 -0.3548
  946MOL0     C27635   3.741   3.759   9.826  0.4795  0.6144 -0.8405
  946MOL0     C27636   3.638   3.753   9.722 -0.2271 -0.5399  0.1164
  946MOL0     C27637   3.539   3.866   9.733 -0.2063 -0.8893 -0.3929
  946MOL0     C27638   3.399   3.820   9.730  0.5880 -0.2013  0.4232
  946MOL0     C27639   3.344   3.796   9.594 -0.3172  0.4865  0.0166
  946MOL0     C27640   3.289   3.797   9.486 -0.3015  0.2079 -0.0925
  946MOL0     C27641   4.004   3.854   9.674 -0.2392 -0.3999  0.2801
  946MOL0     C27642   4.127   3.910   9.633 -0.2004 -0.3619 -0.4757
  946MOL0     H27643   4.436   3.983   9.321  1.0052  0.7173  1.0799
  946MOL0     H27644   4.638   4.051   9.193 -2.1526 -0.1324 -0.5663
  946MOL0     H27645   5.013   4.222   9.350  1.5857 -0.4378  0.6176
  946MOL0     H27646   5.012   4.062   9.389  3.7525  0.9617 -0.4537
  946MOL0     H27647   5.042   3.998   9.151 -0.7240  0.7501  0.3605
  946MOL0     H27648   5.042   4.172   9.104 -0.7642 -0.3711 -1.1527
  946MOL0     H27649   5.234   4.042   9.324  1.3695 -1.4550 -0.7301
  946MOL0     H27650   5.266   4.012   9.165 -0.7512 -2.0143  2.4269
  946MOL0     H27651   5.297   4.252   9.108  2.4749  3.3030  0.5694
  946MOL0     H27652   5.221   4.290   9.260 -2.7884 -1.0959 -1.4239
  946MOL0     H27653   5.432   4.219   9.369 -1.4146 -0.8061 -0.9954
  946MOL0     H27654   5.498   4.146   9.222 -1.0810 -1.5775 -0.3075
  946MOL0     H27655   5.619   4.341   9.212  0.0419 -0.6588 -1.4275
  946MOL0     H27656   5.501   4.361   9.110  0.6116  0.1004 -0.2866
  946MOL0     H27657   5.408   4.528   9.236 -0.5789  0.5589  1.7419
  946MOL0     H27658   5.451   4.453   9.405  1.7696  0.0423  0.7742
  946MOL0     H27659   5.573   4.672   9.351  0.6070 -0.6373  0.8202
  946MOL0     H27660   5.624   4.602   9.196 -1.0433  0.7448 -0.5283
  946MOL0     H27661   5.803   4.436   9.182 -0.1863  0.5400 -0.0365
  946MOL0     H27662   6.085   4.467   9.229  0.1436 -2.2688 -0.8918
  946MOL0     H27663   6.126   4.496   9.408  1.3454 -0.6977  0.4255
  946MOL0     H27664   5.992   4.243   9.325 -0.0084 -0.4491 -0.7715
  946MOL0     H27665   6.092   4.274   9.458 -0.9018 -1.0873 -0.4477
  946MOL0     H27666   6.204   4.275   9.172  1.2644  3.4974  1.3847
  946MOL0     H27667   6.199   4.127   9.273 -1.4731  0.6579 -1.2715
  946MOL0     H27668   6.317   4.287   9.445  0.7934 -1.5003  0.0874
  946MOL0     H27669   6.335   4.397   9.302 -0.1297 -0.2745 -1.8010
  946MOL0     H27670   6.527   4.422   9.432 -0.5430 -0.7655 -0.9459
  946MOL0     H27671   6.840   4.519   9.507 -1.9090 -1.3970  1.6302
  946MOL0     H27672   6.775   4.632   9.377  1.4130  0.5296  0.7695
  946MOL0     H27673   6.682   4.582   9.514  1.3937 -0.0783  0.9876
  946MOL0     H27674   7.214   4.157   9.101 -0.3484  0.4741  0.1159
  946MOL0     H27675   7.451   4.204   9.019 -0.7519 -0.1370  0.7793
  946MOL0     H27676   7.588   4.300   8.814  2.0869 -0.0433  1.1725
  946MOL0     H27677   7.507   4.450   8.773  0.3887 -1.0408 -1.2533
  946MOL0     H27678   7.681   4.565   8.749 -2.7044 -1.4809 -0.2075
  946MOL0     H27679   7.790   4.502   8.863  3.1677 -1.7681 -3.0302
  946MOL0     H27680   7.716   4.363   8.599 -2.5751  1.7700  1.1115
  946MOL0     H27681   7.847   4.314   8.709 -0.6335  0.2196  2.0641
  946MOL0     H27682   7.831   4.545   8.519 -0.7578 -3.2809 -2.9501
  946MOL0     H27683   7.933   4.563   8.666 -1.1966 -0.0526 -0.0160
  946MOL0     H27684   8.072   4.381   8.596 -0.2340 -3.5514 -1.6607
  946MOL0     H27685   8.060   4.488   8.460  0.4968  0.3128  0.1750
  946MOL0     H27686   7.921   4.225   8.508 -1.8534  2.0382  1.2040
  946MOL0     H27687   7.883   4.319   8.363 -1.2973 -5.0595 -0.0780
  946MOL0     H27688   8.160   4.245   8.425  0.7747 -0.4737 -0.2923
  946MOL0     H27689   8.085   4.286   8.272  0.4680 -2.8633 -0.7255
  946MOL0     H27690   8.016   4.032   8.438  1.3221  1.6859  1.6424
  946MOL0     H27691   8.111   4.029   8.294 -0.6139 -0.9647  1.5796
  946MOL0     H27692   7.346   4.619   9.000  0.2457 -0.1550  1.5826
  946MOL0     H27693   7.135   4.586   9.105  2.1645  2.5355 -3.4254
  946MOL0     H27694   6.849   4.201   9.135  0.7619 -0.7626  0.7607
  946MOL0     H27695   6.625   4.125   9.153 -1.2700  0.9933 -0.8970
  946MOL0     H27696   4.836   4.174   9.532 -1.3986  0.5166 -0.2702
  946MOL0     H27697   4.626   4.132   9.675  1.8755  0.0837  0.2729
  946MOL0     H27698   4.155   4.164   9.861  0.5607 -1.9526  0.9954
  946MOL0     H27699   3.937   4.074   9.920  0.9447  2.5375 -0.4693
  946MOL0     H27700   3.801   3.668   9.823 -1.5911 -0.8708 -0.1481
  946MOL0     H27701   3.694   3.751   9.925  2.5672 -1.9147  0.0761
  946MOL0     H27702   3.593   3.654   9.724  0.2549 -0.7725 -0.3211
  946MOL0     H27703   3.699   3.759   9.631  0.9515  1.8020  0.9752
  946MOL0     H27704   3.551   3.929   9.644 -2.9878  1.3841  0.7208
  946MOL0     H27705   3.564   3.923   9.822  3.4046 -0.7430 -1.3228
  946MOL0     H27706   3.353   3.902   9.785 -0.0426 -0.2738  0.0134
  946MOL0     H27707   3.389   3.726   9.786  0.6540 -1.0714 -0.9799
  946MOL0     H27708   3.246   3.801   9.388  0.7975 -1.4948 -0.6754
  946MOL0     H27709   3.975   3.770   9.613  0.1082 -0.8342  0.7033
  946MOL0     H27710   4.175   3.844   9.561 -1.6493 -1.1568 -0.7412
  947MOL0     O27711   6.316   1.790   3.002 -0.0514  0.4871 -0.0440
  947MOL0     C27712   6.426   1.764   3.058  0.3563  0.0932  0.5833
  947MOL0     O27713   6.443   1.657   3.145  0.1599 -0.2629 -0.3195
  947MOL0     C27714   6.329   1.628   3.221 -1.0002 -0.0302 -0.2826
  947MOL0     C27715   6.315   1.495   3.248  0.1140 -0.2410 -0.2481
  947MOL0     C27716   6.203   1.448   3.320 -0.4038 -0.5440  0.4035
  947MOL0     C27717   6.120   1.539   3.381 -0.0147 -1.1976 -0.3957
  947MOL0     O27718   6.020   1.497   3.464  0.5785  0.5497  0.2870
  947MOL0     C27719   6.064   1.399   3.568 -1.0608 -0.3224  0.8218
  947MOL0     C27720   5.949   1.377   3.672 -0.4831  0.1158  0.5223
  947MOL0     C27721   5.841   1.288   3.626 -0.9102  1.1879  0.1630
  947MOL0     C27722   5.724   1.318   3.712  0.6465 -0.3720  0.5985
  947MOL0     C27723   5.592   1.243   3.683 -0.1138 -0.0757 -0.4330
  947MOL0     C27724   5.480   1.245   3.788 -0.1687  0.2390 -0.0564
  947MOL0     C27725   5.346   1.175   3.750 -0.1357 -0.3209 -0.3167
  947MOL0     C27726   5.343   1.024   3.766  0.6922  0.3501 -0.1067
  947MOL0     N27727   5.215   0.952   3.737  0.0062  0.1312  0.2633
  947MOL0     C27728   5.088   0.984   3.773 -0.4291 -0.4103 -1.1592
  947MOL0     C27729   5.014   0.891   3.726 -0.3553 -0.0184  0.3793
  947MOL0     C27730   4.865   0.892   3.734  0.9040 -0.2041 -0.7355
  947MOL0     C27731   4.829   0.871   3.881 -0.5124 -0.1388 -0.0357
  947MOL0     C27732   4.680   0.836   3.879  0.6617  0.7353 -0.0985
  947MOL0     C27733   4.625   0.823   4.024  0.4441  0.1644 -0.6197
  947MOL0     O27734   4.487   0.829   4.020  0.6952 -0.0352 -0.6399
  947MOL0     C27735   4.428   0.798   4.138 -1.0430  0.2301 -0.2691
  947MOL0     C27736   4.435   0.893   4.246  0.6666 -0.3755  0.7520
  947MOL0     C27737   4.354   0.877   4.361 -0.9845 -0.6346  0.0823
  947MOL0     C27738   4.363   0.986   4.462 -0.6782 -0.2088 -0.2834
  947MOL0     C27739   4.287   0.754   4.377  0.3829 -1.0035  0.5917
  947MOL0     C27740   4.221   0.718   4.496 -0.3733 -0.0287  0.0898
  947MOL0     O27741   4.306   0.684   4.599 -0.2193 -0.5953  0.2940
  947MOL0     C27742   4.261   0.615   4.711 -0.3258 -0.0006 -0.6605
  947MOL0     C27743   4.340   0.639   4.824  0.5242 -0.4336 -0.5300
  947MOL0     C27744   4.321   0.557   4.942 -0.1576 -0.1830 -0.0756
  947MOL0     C27745   4.196   0.493   4.955 -0.6826  0.5991 -0.8659
  947MOL0     O27746   4.171   0.436   5.078  0.0823  0.4881 -0.9070
  947MOL0     C27747   4.035   0.450   5.131 -0.1577  0.6415 -0.3526
  947MOL0     C27748   3.988   0.326   5.205  0.0294  0.8921  0.2879
  947MOL0     C27749   3.848   0.341   5.249  1.2079  0.0577  0.5989
  947MOL0     C27750   3.757   0.345   5.124  0.4767 -0.0625 -0.7373
  947MOL0     C27751   3.617   0.287   5.145 -0.5634  0.2867 -0.3908
  947MOL0     C27752   3.532   0.291   5.013 -0.0723  0.1166  0.0981
  947MOL0     C27753   3.410   0.206   5.039  1.0673  0.5493  1.0658
  947MOL0     C27754   3.322   0.175   4.919 -0.9994 -0.0141  0.3811
  947MOL0    Cl27755   3.249   0.321   4.850  0.0744  0.1619 -0.1712
  947MOL0     C27756   4.127   0.460   4.842 -0.0965  0.3438  0.4783
  947MOL0     C27757   4.156   0.520   4.716  0.0331 -0.9136 -1.5961
  947MOL0     O27758   4.101   0.721   4.504 -0.6977 -0.3154 -0.0797
  947MOL0     C27759   4.287   0.664   4.271 -0.2775 -0.0725  0.4182
  947MOL0     C27760   4.354   0.681   4.153  0.2627 -0.6809  0.8959
  947MOL0     N27761   5.090   0.798   3.655 -0.0796  0.0367  0.2395
  947MOL0     N27762   5.209   0.835   3.667 -1.3815  0.1944 -0.2453
  947MOL0     C27763   6.140   1.672   3.362 -1.0354 -0.0342  0.5286
  947MOL0     C27764   6.241   1.719   3.275 -0.8299 -0.1380 -0.3428
  947MOL0     C27765   6.548   1.849   3.038 -0.3306  0.1832  0.1182
  947MOL0     C27766   6.543   1.965   2.953  0.0084  0.0082 -0.1798
  947MOL0     C27767   6.663   2.035   2.931  0.3712 -0.1447  0.6267
  947MOL0     C27768   6.778   2.005   2.990 -0.4130 -0.2038 -0.0952
  947MOL0     O27769   6.888   2.074   2.952 -0.1629 -0.8069  0.1085
  947MOL0     C27770   7.008   2.080   3.034 -0.3221  0.7037  0.6258
  947MOL0     C27771   7.110   1.975   2.986  0.3789 -0.4728  0.6627
  947MOL0     C27772   7.236   1.959   3.064  0.1125 -0.3528  0.4561
  947MOL0     C27773   7.326   2.082   3.050  0.8815 -0.6108  0.4672
  947MOL0     C27774   7.398   2.123   3.169 -0.2147  0.5689 -0.3160
  947MOL0     C27775   7.471   2.149   3.262  0.6717  1.3960 -0.2976
  947MOL0     C27776   6.782   1.900   3.081 -0.1207 -0.1231  0.0796
  947MOL0     C27777   6.667   1.823   3.110 -0.8065  0.2730  0.1697
  947MOL0     H27778   6.389   1.432   3.200 -0.6795  0.7523 -2.9736
  947MOL0     H27779   6.193   1.340   3.322 -0.0159 -0.7791 -3.0630
  947MOL0     H27780   6.098   1.308   3.517 -0.0574 -0.7548  2.1996
  947MOL0     H27781   6.154   1.426   3.623 -1.3821 -0.3747  1.3765
  947MOL0     H27782   5.993   1.329   3.760 -1.1015 -2.0940 -0.3225
  947MOL0     H27783   5.919   1.477   3.704  1.2704  1.8816 -2.7708
  947MOL0     H27784   5.812   1.306   3.522 -1.9665 -2.6183 -0.3527
  947MOL0     H27785   5.870   1.183   3.623 -4.4180  0.1295 -0.4731
  947MOL0     H27786   5.758   1.286   3.811 -1.8678 -1.7124  1.1299
  947MOL0     H27787   5.698   1.424   3.707 -1.7057 -0.8104  1.8025
  947MOL0     H27788   5.567   1.278   3.582  0.6966  0.1906 -0.5499
  947MOL0     H27789   5.628   1.142   3.666  0.3175  0.4207 -3.0311
  947MOL0     H27790   5.519   1.202   3.880  2.1727 -1.8708 -1.8981
  947MOL0     H27791   5.466   1.352   3.808  1.0638  0.2481  0.8729
  947MOL0     H27792   5.272   1.221   3.817  0.1853 -1.6721  1.0284
  947MOL0     H27793   5.319   1.199   3.646  1.1272  0.8382 -0.3992
  947MOL0     H27794   5.374   1.004   3.869 -1.3714 -3.3128 -0.0225
  947MOL0     H27795   5.419   0.977   3.703 -1.3305 -1.7791 -1.1484
  947MOL0     H27796   5.059   1.067   3.837 -1.3246 -1.9395  0.4986
  947MOL0     H27797   4.815   0.985   3.702  0.1079 -0.6895 -0.9427
  947MOL0     H27798   4.815   0.816   3.673  1.7920 -0.9049 -0.5909
  947MOL0     H27799   4.844   0.957   3.947  0.0136  0.4921 -0.9667
  947MOL0     H27800   4.887   0.785   3.917 -0.3279  0.3128  0.7742
  947MOL0     H27801   4.659   0.743   3.825 -1.5581  1.2882 -0.2448
  947MOL0     H27802   4.621   0.920   3.842 -0.9727  0.4520  1.7132
  947MOL0     H27803   4.672   0.909   4.074  0.4081 -0.6373  0.8345
  947MOL0     H27804   4.658   0.729   4.068 -1.6397  0.0977  0.9443
  947MOL0     H27805   4.493   0.984   4.241 -1.0983  0.8032  0.9318
  947MOL0     H27806   4.404   0.948   4.556  0.6446  2.2114  0.2027
  947MOL0     H27807   4.431   1.062   4.422 -0.0514 -1.3943 -1.5674
  947MOL0     H27808   4.272   1.035   4.497  1.2620  2.2061  1.6714
  947MOL0     H27809   4.423   0.707   4.811 -0.1745  0.1848 -2.0563
  947MOL0     H27810   4.387   0.571   5.027  1.1118 -2.7061 -0.5567
  947MOL0     H27811   4.026   0.536   5.199  0.8231 -2.3746  3.9848
  947MOL0     H27812   3.975   0.458   5.040  0.8338 -2.0328 -1.3239
  947MOL0     H27813   4.005   0.239   5.140 -0.1552  0.2339  1.1010
  947MOL0     H27814   4.047   0.314   5.296  0.5778 -0.2476 -0.1903
  947MOL0     H27815   3.844   0.429   5.314 -1.9127  0.3160  0.2131
  947MOL0     H27816   3.819   0.261   5.318  1.7527  0.6212  1.4926
  947MOL0     H27817   3.739   0.447   5.089 -0.6919  1.8211  4.4958
  947MOL0     H27818   3.791   0.275   5.047 -0.2216 -3.1859  1.6164
  947MOL0     H27819   3.567   0.343   5.225  2.1528 -0.2215  1.8305
  947MOL0     H27820   3.632   0.180   5.165  1.3120  0.4669 -0.6114
  947MOL0     H27821   3.506   0.390   4.975 -3.0273  0.0048  1.5614
  947MOL0     H27822   3.588   0.245   4.931  1.3658  0.4222  0.8671
  947MOL0     H27823   3.352   0.249   5.121 -1.4396 -0.2816 -0.1789
  947MOL0     H27824   3.435   0.107   5.078 -1.2823 -2.2071 -3.5677
  947MOL0     H27825   3.239   0.111   4.950 -0.9660 -0.9615 -1.3730
  947MOL0     H27826   3.391   0.125   4.850  1.1561 -0.7620  2.9039
  947MOL0     H27827   4.036   0.403   4.859 -0.3535  1.1095  1.7950
  947MOL0     H27828   4.103   0.491   4.626  1.9880 -1.1515 -2.7424
  947MOL0     H27829   4.241   0.568   4.292 -3.0606  1.9455  5.0038
  947MOL0     H27830   4.360   0.611   4.071 -0.0952  2.1445 -1.7431
  947MOL0     H27831   6.081   1.751   3.408  0.3329  1.3605 -0.0232
  947MOL0     H27832   6.245   1.827   3.260  2.0892 -0.1015  0.1746
  947MOL0     H27833   6.449   2.007   2.920 -0.8472  0.4738  2.6523
  947MOL0     H27834   6.653   2.129   2.878  4.0752  0.3663  0.6304
  947MOL0     H27835   7.058   2.175   3.015 -0.3039  0.8965  1.5900
  947MOL0     H27836   7.000   2.060   3.142  0.3682 -2.4877  0.1844
  947MOL0     H27837   7.138   1.995   2.882  0.9149 -0.1070  0.8745
  947MOL0     H27838   7.059   1.878   2.990 -1.7425  0.6404  2.6159
  947MOL0     H27839   7.276   1.863   3.028 -0.1303  0.6463 -2.8653
  947MOL0     H27840   7.206   1.951   3.169 -2.1422 -2.9107 -0.2689
  947MOL0     H27841   7.272   2.169   3.014 -0.1482  0.0716  3.3367
  947MOL0     H27842   7.404   2.070   2.974  0.9180  0.6108  0.2949
  947MOL0     H27843   7.535   2.167   3.346 -1.0051  0.3213  1.2867
  947MOL0     H27844   6.876   1.869   3.125  0.9308  2.5843 -0.0584
  947MOL0     H27845   6.680   1.752   3.190 -0.0059 -0.2960 -0.4559
  948MOL0     O27846   6.437   5.230   6.983  0.7639 -1.0038  0.8995
  948MOL0     C27847   6.380   5.180   6.884 -0.2553  0.3544  0.8181
  948MOL0     O27848   6.245   5.189   6.854  0.1414  0.8651 -0.0999
  948MOL0     C27849   6.158   5.260   6.928  0.1719 -0.4220 -0.7120
  948MOL0     C27850   6.077   5.347   6.867  0.3897 -0.2292  0.2184
  948MOL0     C27851   5.982   5.424   6.943  0.7734 -0.3677  0.1714
  948MOL0     C27852   5.984   5.420   7.087  0.9421 -0.1142 -0.6206
  948MOL0     O27853   5.911   5.508   7.164  0.3645 -0.0202 -0.0456
  948MOL0     C27854   5.800   5.438   7.224  0.3266  0.1640 -0.2299
  948MOL0     C27855   5.717   5.540   7.292 -0.2087 -0.4402 -0.6123
  948MOL0     C27856   5.591   5.477   7.344 -0.5674  0.2726  0.2227
  948MOL0     C27857   5.513   5.564   7.436 -0.5516  0.3311 -0.8046
  948MOL0     C27858   5.414   5.661   7.360  0.1663  0.3685 -0.2109
  948MOL0     C27859   5.272   5.648   7.422 -0.0987 -0.4127 -0.2647
  948MOL0     C27860   5.194   5.521   7.394  0.8749  0.0782 -0.6699
  948MOL0     C27861   5.160   5.509   7.244  0.5722  0.1564 -0.3885
  948MOL0     N27862   5.072   5.615   7.184 -0.1500 -0.3730 -0.1385
  948MOL0     C27863   4.932   5.597   7.168  0.0190 -0.1255 -0.3455
  948MOL0     C27864   4.889   5.693   7.082 -0.2527  0.7265  0.0639
  948MOL0     C27865   4.747   5.732   7.047  0.4022 -0.1754  0.6974
  948MOL0     C27866   4.700   5.667   6.917  0.2495 -0.1396 -0.3811
  948MOL0     C27867   4.568   5.599   6.922  0.8424  0.1632 -0.2512
  948MOL0     C27868   4.566   5.481   6.822  0.3113 -0.5426 -0.5129
  948MOL0     O27869   4.436   5.423   6.843 -0.4252  0.4628  0.7466
  948MOL0     C27870   4.386   5.332   6.752 -0.0571 -0.8879  0.1997
  948MOL0     C27871   4.449   5.310   6.634  0.1561 -0.3076 -0.1761
  948MOL0     C27872   4.379   5.238   6.529  0.2176 -0.2128 -0.3924
  948MOL0     C27873   4.449   5.199   6.401 -0.2261 -0.1614 -0.8827
  948MOL0     C27874   4.245   5.194   6.555  1.1277 -0.0616  0.6562
  948MOL0     C27875   4.154   5.140   6.453  0.9752  0.4431 -0.3649
  948MOL0     O27876   4.042   5.078   6.502 -0.6145  0.1476 -0.2746
  948MOL0     C27877   3.934   5.051   6.422  1.0043 -0.0487 -0.5900
  948MOL0     C27878   3.807   5.078   6.466 -0.3402 -0.3246  0.9846
  948MOL0     C27879   3.699   5.057   6.379  0.0880 -0.4680 -0.4489
  948MOL0     C27880   3.711   4.989   6.258  0.2551  0.2706  0.8741
  948MOL0     O27881   3.603   4.967   6.183  0.4668  0.0151  0.4520
  948MOL0     C27882   3.556   4.828   6.179 -0.0009 -1.5022  0.8771
  948MOL0     C27883   3.401   4.821   6.156 -0.3094  0.8124 -0.6261
  948MOL0     C27884   3.304   4.899   6.238 -0.9534 -1.1831 -1.2513
  948MOL0     C27885   3.167   4.895   6.163 -0.5909  0.4049  0.6353
  948MOL0     C27886   3.050   4.961   6.241  1.1142  0.1491  0.7327
  948MOL0     C27887   2.939   4.963   6.149  0.3782  0.6307 -0.3268
  948MOL0     C27888   2.815   5.051   6.199  0.1541  0.3964 -0.6893
  948MOL0     C27889   2.718   5.040   6.085 -0.2893  0.7093 -0.0047
  948MOL0    Cl27890   2.585   5.158   6.107 -0.1483  0.3142 -0.0870
  948MOL0     C27891   3.830   4.938   6.233 -0.2082 -0.0612 -0.8180
  948MOL0     C27892   3.947   4.966   6.311  0.2797 -0.5078  0.4114
  948MOL0     O27893   4.163   5.171   6.337 -1.0013  0.3649  0.0379
  948MOL0     C27894   4.196   5.208   6.688  0.6798 -0.5993 -0.1860
  948MOL0     C27895   4.259   5.287   6.782  0.2660  0.1449 -0.5191
  948MOL0     N27896   5.000   5.771   7.048  0.3894 -0.4540  0.4243
  948MOL0     N27897   5.103   5.724   7.112  0.2632  0.7628 -0.4748
  948MOL0     C27898   6.079   5.334   7.145 -0.2321 -0.0311 -0.2571
  948MOL0     C27899   6.156   5.245   7.063  0.4605 -0.3796 -0.7356
  948MOL0     C27900   6.461   5.098   6.795  0.1301 -0.5683  0.9045
  948MOL0     C27901   6.598   5.060   6.825 -0.1269 -0.0257  0.4732
  948MOL0     C27902   6.683   5.004   6.729 -0.7685  0.0336  0.0193
  948MOL0     C27903   6.642   4.992   6.593  0.0856  1.2440 -0.2606
  948MOL0     O27904   6.718   4.935   6.491  0.1405 -0.1112  0.0796
  948MOL0     C27905   6.792   5.040   6.434 -0.5589 -0.1508  0.9674
  948MOL0     C27906   6.937   5.033   6.473 -0.2316  0.8211 -0.6317
  948MOL0     C27907   6.972   5.127   6.585  1.0794 -0.3301  0.2106
  948MOL0     C27908   7.103   5.091   6.663  0.0931  0.1971 -0.1890
  948MOL0     C27909   7.227   5.137   6.603  0.6750 -0.1063  0.0760
  948MOL0     C27910   7.329   5.177   6.554  0.0261  0.0929 -0.1828
  948MOL0     C27911   6.519   5.041   6.554  0.4388  0.0519 -0.1519
  948MOL0     C27912   6.423   5.093   6.653  0.8340  0.7088 -0.0972
  948MOL0     H27913   6.076   5.353   6.758 -0.7928  2.2749  0.2844
  948MOL0     H27914   5.915   5.502   6.908 -0.4994 -0.6035  1.9680
  948MOL0     H27915   5.744   5.396   7.140  1.3838 -1.8437 -0.0107
  948MOL0     H27916   5.830   5.362   7.297 -0.9982 -0.9552 -0.8138
  948MOL0     H27917   5.781   5.595   7.361 -2.4059  0.9775  0.4069
  948MOL0     H27918   5.705   5.620   7.218  4.7231  1.4358  0.2425
  948MOL0     H27919   5.531   5.442   7.260  0.8091  0.3081 -0.8222
  948MOL0     H27920   5.610   5.392   7.410 -3.0463  0.2140  0.9370
  948MOL0     H27921   5.459   5.508   7.512 -0.0093  1.0073  0.1062
  948MOL0     H27922   5.593   5.626   7.479 -1.3580 -0.8581  2.7720
  948MOL0     H27923   5.450   5.764   7.365 -0.1739  0.4710  0.1464
  948MOL0     H27924   5.422   5.632   7.255  2.5961  3.3828 -1.0139
  948MOL0     H27925   5.268   5.652   7.532 -0.0011  0.8483 -0.2891
  948MOL0     H27926   5.220   5.736   7.383 -2.5122 -1.8252 -0.4465
  948MOL0     H27927   5.249   5.430   7.419 -1.1582 -1.0641 -0.1084
  948MOL0     H27928   5.102   5.535   7.452 -0.5172 -1.3898 -2.4133
  948MOL0     H27929   5.103   5.416   7.237 -0.1539  0.3334  2.0739
  948MOL0     H27930   5.250   5.498   7.183  0.1129  1.7666 -1.3956
  948MOL0     H27931   4.872   5.525   7.223  0.1837 -0.8958 -1.1495
  948MOL0     H27932   4.682   5.708   7.131  1.0880 -0.1017  1.2601
  948MOL0     H27933   4.744   5.841   7.031  1.1510 -0.4392 -1.6054
  948MOL0     H27934   4.781   5.598   6.893  3.2355  3.2672 -0.7394
  948MOL0     H27935   4.691   5.750   6.847 -0.3041  1.1381  1.1224
  948MOL0     H27936   4.493   5.674   6.896 -4.0275 -3.5073  1.5619
  948MOL0     H27937   4.528   5.562   7.017 -1.5976 -0.7100 -1.5418
  948MOL0     H27938   4.642   5.403   6.827  0.3151 -0.7950 -3.1363
  948MOL0     H27939   4.572   5.526   6.723 -2.4449  2.9353  0.6722
  948MOL0     H27940   4.553   5.336   6.617  0.0478 -1.1987 -2.6576
  948MOL0     H27941   4.406   5.104   6.366 -0.1045 -0.7649  0.5248
  948MOL0     H27942   4.424   5.280   6.333 -2.9848 -1.0182 -0.9898
  948MOL0     H27943   4.558   5.189   6.410 -0.2471  0.6765  0.7221
  948MOL0     H27944   3.796   5.124   6.563 -1.7761  1.3230  0.0916
  948MOL0     H27945   3.597   5.083   6.408 -1.3637 -3.5495 -2.2993
  948MOL0     H27946   3.611   4.775   6.101 -0.2253  0.4658 -0.6999
  948MOL0     H27947   3.582   4.788   6.277  1.7131 -0.8761  0.7194
  948MOL0     H27948   3.376   4.841   6.052 -3.8031  0.6726  0.0446
  948MOL0     H27949   3.385   4.714   6.175  0.0187  0.8143 -0.3210
  948MOL0     H27950   3.323   5.007   6.246 -3.8628 -0.7066  4.1213
  948MOL0     H27951   3.295   4.866   6.342  2.4739 -0.7001 -0.7023
  948MOL0     H27952   3.177   4.943   6.065 -3.2274 -1.3297 -0.5878
  948MOL0     H27953   3.159   4.787   6.153 -0.4126  0.3425  1.1593
  948MOL0     H27954   3.078   5.060   6.277 -2.2527  1.5119 -0.0345
  948MOL0     H27955   3.010   4.901   6.324  0.2374  0.1272  0.3058
  948MOL0     H27956   2.970   5.001   6.051  1.9526 -1.1888 -0.5983
  948MOL0     H27957   2.912   4.859   6.127  2.3123 -0.2821  1.3539
  948MOL0     H27958   2.843   5.154   6.223 -1.8383  0.8023  0.1114
  948MOL0     H27959   2.785   5.009   6.295  1.1645  2.4632  0.6199
  948MOL0     H27960   2.673   4.942   6.071  0.2146  0.7106 -1.9051
  948MOL0     H27961   2.763   5.064   5.988 -0.6743  0.7059 -0.1880
  948MOL0     H27962   3.852   4.873   6.149 -0.4112 -1.4148  0.1326
  948MOL0     H27963   4.043   4.921   6.288 -1.5322 -5.1501  0.8640
  948MOL0     H27964   4.097   5.171   6.712  0.2420  0.5007 -0.2322
  948MOL0     H27965   4.225   5.308   6.883 -1.8737 -0.6146 -1.0246
  948MOL0     H27966   6.087   5.336   7.253  2.8270 -1.8962 -0.3408
  948MOL0     H27967   6.224   5.167   7.095  0.9958  0.5825  0.5665
  948MOL0     H27968   6.636   5.077   6.925 -0.3122 -2.0588  0.9325
  948MOL0     H27969   6.780   4.969   6.763 -0.3032  1.3895  0.1372
  948MOL0     H27970   6.775   5.048   6.326 -1.4082 -0.4813  1.0734
  948MOL0     H27971   6.760   5.141   6.462  0.1505 -0.0626  1.4972
  948MOL0     H27972   6.998   5.053   6.385 -0.7788  0.5548 -1.0799
  948MOL0     H27973   6.956   4.933   6.512 -2.2368  0.6015 -0.0874
  948MOL0     H27974   6.899   5.135   6.665  0.1649 -2.4791 -0.3432
  948MOL0     H27975   6.996   5.221   6.535 -0.1684 -0.5680 -0.8880
  948MOL0     H27976   7.122   4.984   6.670 -2.5907 -0.2570  1.7858
  948MOL0     H27977   7.078   5.128   6.763 -3.9852 -0.7482 -0.6670
  948MOL0     H27978   7.418   5.216   6.510  0.4511 -0.3231  0.3091
  948MOL0     H27979   6.490   5.021   6.452  3.8707 -1.7304 -0.9072
  948MOL0     H27980   6.332   5.144   6.624  0.5986  1.2406  1.4944
  949MOL0     O27981   4.007   2.069  10.731  0.1782 -0.3404 -0.2382
  949MOL0     C27982   3.997   1.954  10.689 -0.2189 -0.0764 -0.0435
  949MOL0     O27983   3.887   1.866  10.708 -0.0817 -0.0277  0.6141
  949MOL0     C27984   3.767   1.909  10.754 -0.3260 -0.7311  0.0499
  949MOL0     C27985   3.720   2.048  10.769 -0.7899 -0.3445  0.1114
  949MOL0     C27986   3.589   2.085  10.817 -1.5764 -0.5186 -1.0032
  949MOL0     C27987   3.502   1.979  10.837  1.3498  0.5849  0.3246
  949MOL0     O27988   3.367   2.002  10.862  0.3404 -0.4256  0.0685
  949MOL0     C27989   3.313   2.137  10.875  0.8226  0.0665 -0.7314
  949MOL0     C27990   3.183   2.122  10.951  0.3734  0.7788  0.0491
  949MOL0     C27991   3.124   2.256  10.989  0.1243 -0.2602  0.4779
  949MOL0     C27992   3.088   2.348  10.872  0.3011 -0.0851 -0.6500
  949MOL0     C27993   2.979   2.291  10.768 -0.1409 -0.0312 -0.3413
  949MOL0     C27994   2.836   2.287  10.828  0.2769  0.6815  0.6305
  949MOL0     C27995   2.735   2.224  10.728 -0.0519  0.2216 -0.7170
  949MOL0     C27996   2.701   2.313  10.607 -0.7459  0.0933  0.1752
  949MOL0     N27997   2.562   2.354  10.590  0.0381 -0.8363 -0.1269
  949MOL0     C27998   2.472   2.309  10.497  0.1974 -0.6120  0.3826
  949MOL0     C27999   2.351   2.361  10.534  0.3997  0.2995  0.0937
  949MOL0     C28000   2.223   2.360  10.454  0.4139 -0.7333  0.2050
  949MOL0     C28001   2.099   2.289  10.497  0.4203 -0.0651 -0.5657
  949MOL0     C28002   1.971   2.365  10.447 -0.2358  0.0602 -0.2166
  949MOL0     C28003   1.836   2.295  10.487 -0.6959  0.1771  0.0488
  949MOL0     O28004   1.740   2.395  10.527  0.0374 -0.0016  0.7857
  949MOL0     C28005   1.622   2.353  10.579  1.0372  1.5550  0.0613
  949MOL0     C28006   1.579   2.220  10.567  0.4973 -0.6848 -0.4793
  949MOL0     C28007   1.463   2.177  10.623  0.3674 -0.7719  0.2268
  949MOL0     C28008   1.427   2.033  10.602  0.4554  0.8140  0.1085
  949MOL0     C28009   1.380   2.265  10.700 -0.0628 -0.1010 -0.0782
  949MOL0     C28010   1.255   2.232  10.763 -0.1054 -0.3233 -0.6872
  949MOL0     O28011   1.245   2.108  10.818  0.2541 -0.2390  0.9399
  949MOL0     C28012   1.119   2.055  10.833  0.6996  0.4432 -0.4836
  949MOL0     C28013   1.017   2.060  10.733  0.3863  0.4752 -0.1193
  949MOL0     C28014   0.894   1.988  10.754 -1.1374  0.0685 -0.2163
  949MOL0     C28015   0.870   1.902  10.860 -0.6277 -0.6003  0.1462
  949MOL0     O28016   0.756   1.839  10.873  0.7272 -0.6931 -0.1145
  949MOL0     C28017   0.758   1.696  10.861 -0.3817  0.0166 -0.8771
  949MOL0     C28018   0.666   1.649  10.749 -0.4208 -0.2684  0.4131
  949MOL0     C28019   0.686   1.731  10.619  0.2607 -0.3053  1.1612
  949MOL0     C28020   0.576   1.831  10.583 -0.3242 -0.3239 -0.3249
  949MOL0     C28021   0.599   1.900  10.456 -1.2497 -0.5218 -0.0192
  949MOL0     C28022   0.476   1.993  10.423 -0.2542  0.4237 -0.4692
  949MOL0     C28023   0.472   2.063  10.294  0.0554  0.3353 -0.2088
  949MOL0     C28024   0.332   2.123  10.274 -1.0161  0.6631  0.5110
  949MOL0    Cl28025   0.285   2.212  10.420 -0.6198  0.1534 -0.3279
  949MOL0     C28026   0.973   1.904  10.957 -0.7997  0.1734  0.0399
  949MOL0     C28027   1.090   1.976  10.950  0.1073  0.3132 -0.1891
  949MOL0     O28028   1.159   2.312  10.750  1.1137  0.7727  0.6712
  949MOL0     C28029   1.421   2.397  10.720 -1.2859  0.3180 -1.1098
  949MOL0     C28030   1.545   2.437  10.666 -0.1122  0.6875  0.1899
  949MOL0     N28031   2.371   2.451  10.642 -0.6777 -0.7293 -0.2320
  949MOL0     N28032   2.496   2.454  10.669 -0.5412  0.7933 -0.1791
  949MOL0     C28033   3.542   1.847  10.827 -0.6529  0.0296  0.0292
  949MOL0     C28034   3.668   1.814  10.780  0.2801  0.4350 -0.8156
  949MOL0     C28035   4.118   1.890  10.632 -0.3471 -0.3920 -0.1231
  949MOL0     C28036   4.140   1.753  10.647 -0.2491  0.3742 -0.0499
  949MOL0     C28037   4.264   1.697  10.613 -0.4827 -0.3087 -1.2599
  949MOL0     C28038   4.355   1.772  10.539 -0.4761  1.0665 -0.0037
  949MOL0     O28039   4.483   1.713  10.529  0.0850  0.2126 -0.3855
  949MOL0     C28040   4.603   1.794  10.522 -0.8600  0.6364 -0.3771
  949MOL0     C28041   4.728   1.711  10.539 -0.1367 -0.4138  1.0918
  949MOL0     C28042   4.731   1.595  10.435  0.5676 -0.2422  0.2934
  949MOL0     C28043   4.867   1.519  10.437 -0.6045 -0.1993 -0.1279
  949MOL0     C28044   4.973   1.576  10.352  0.2615 -0.6993 -0.7499
  949MOL0     C28045   5.061   1.632  10.293 -0.4612  0.1840  0.5324
  949MOL0     C28046   4.331   1.901  10.507  0.0992 -0.3672 -0.2940
  949MOL0     C28047   4.209   1.967  10.557 -0.8973  0.1060 -0.0558
  949MOL0     H28048   3.786   2.128  10.737 -0.6181 -0.1236  1.0097
  949MOL0     H28049   3.560   2.189  10.824 -0.5528 -0.3083  0.6139
  949MOL0     H28050   3.380   2.209  10.922  0.0369 -0.1160  0.7140
  949MOL0     H28051   3.297   2.186  10.778 -1.8852 -2.6915 -1.8487
  949MOL0     H28052   3.109   2.065  10.894 -1.3247  1.0133  1.9035
  949MOL0     H28053   3.206   2.072  11.046  2.9691  1.7899  0.0226
  949MOL0     H28054   3.039   2.250  11.057 -0.0025  3.0978  0.7848
  949MOL0     H28055   3.195   2.310  11.053 -1.8575 -0.2597  2.7750
  949MOL0     H28056   3.041   2.441  10.907 -0.2815 -0.3526 -0.7119
  949MOL0     H28057   3.183   2.374  10.824  1.1772 -1.3041  0.3726
  949MOL0     H28058   2.984   2.372  10.695 -2.6303  0.6038  0.0836
  949MOL0     H28059   3.012   2.191  10.739 -1.0503 -0.4000 -0.1450
  949MOL0     H28060   2.839   2.222  10.916  1.3252 -2.8511 -1.7628
  949MOL0     H28061   2.801   2.388  10.850 -1.1891  0.6798 -1.3901
  949MOL0     H28062   2.780   2.135  10.683  0.0693 -0.2021  0.2329
  949MOL0     H28063   2.643   2.206  10.785 -1.1654  3.8455 -1.1288
  949MOL0     H28064   2.732   2.263  10.515 -1.9153  1.2143 -0.8801
  949MOL0     H28065   2.767   2.400  10.614  2.8228 -2.2069 -1.6817
  949MOL0     H28066   2.492   2.241  10.415  2.5950  1.3739 -0.8452
  949MOL0     H28067   2.207   2.466  10.436 -0.0289 -0.0192  3.9737
  949MOL0     H28068   2.239   2.315  10.355 -3.0749  0.8724 -1.2491
  949MOL0     H28069   2.102   2.284  10.607  1.2773  2.4993 -0.4243
  949MOL0     H28070   2.096   2.189  10.453 -2.3348  0.3157 -1.4646
  949MOL0     H28071   1.981   2.371  10.339 -1.1115  3.6948 -0.2177
  949MOL0     H28072   1.974   2.467  10.486 -0.3989  0.7185 -1.8623
  949MOL0     H28073   1.852   2.233  10.576  0.6573 -0.2019 -0.4259
  949MOL0     H28074   1.804   2.243  10.396 -0.6970  1.9247 -1.0036
  949MOL0     H28075   1.628   2.150  10.500  1.9089 -0.6501  0.4912
  949MOL0     H28076   1.492   1.976  10.535 -0.2433 -0.1744  0.2548
  949MOL0     H28077   1.428   1.975  10.695  0.1112 -4.2332 -2.6469
  949MOL0     H28078   1.329   2.023  10.555  0.9046 -1.5686 -0.4567
  949MOL0     H28079   1.035   2.117  10.643  1.9521  0.5061  0.1895
  949MOL0     H28080   0.820   2.010  10.678 -0.4085  2.7643 -0.2447
  949MOL0     H28081   0.859   1.657  10.847  0.2658  1.5801 -0.7157
  949MOL0     H28082   0.718   1.666  10.958  0.7474  1.5231  0.1039
  949MOL0     H28083   0.676   1.542  10.734 -0.7891  0.0328 -2.6657
  949MOL0     H28084   0.563   1.662  10.786  0.5026  0.6759  2.8754
  949MOL0     H28085   0.699   1.653  10.544  2.1255  0.4309  0.6563
  949MOL0     H28086   0.780   1.782  10.642  1.2891 -2.2032  1.4529
  949MOL0     H28087   0.483   1.776  10.569  0.4689 -1.3198 -2.1036
  949MOL0     H28088   0.557   1.907  10.659  0.9965 -0.6581  0.3769
  949MOL0     H28089   0.613   1.826  10.377  1.3794 -2.4008  2.0063
  949MOL0     H28090   0.697   1.949  10.460 -1.6369  0.1988  2.7584
  949MOL0     H28091   0.389   1.928  10.434  0.4718 -0.1172  3.9413
  949MOL0     H28092   0.472   2.065  10.506  5.4760  0.5217  0.0863
  949MOL0     H28093   0.502   1.990  10.219  1.3064  0.7515 -0.1330
  949MOL0     H28094   0.545   2.144  10.284 -0.3328  0.6080 -0.8868
  949MOL0     H28095   0.259   2.043  10.263  0.2639 -0.3614 -1.1221
  949MOL0     H28096   0.337   2.177  10.179 -1.2951 -1.5547 -0.8436
  949MOL0     H28097   0.971   1.853  11.054  1.2531 -0.5518 -0.2398
  949MOL0     H28098   1.164   1.959  11.028  1.7849  0.9949 -1.5529
  949MOL0     H28099   1.359   2.458  10.786  1.6768  3.4604 -0.9666
  949MOL0     H28100   1.578   2.540  10.675 -0.8149  0.9295  0.0645
  949MOL0     H28101   3.467   1.771  10.847 -0.5609 -0.0408  0.1057
  949MOL0     H28102   3.690   1.710  10.755  2.1684  0.3463  0.9407
  949MOL0     H28103   4.075   1.693  10.709  0.5117  0.2199  0.6128
  949MOL0     H28104   4.299   1.597  10.637 -0.5034  0.3883  2.1066
  949MOL0     H28105   4.616   1.841  10.424  0.0269  2.6708  0.6482
  949MOL0     H28106   4.587   1.872  10.597 -2.2791 -0.6141  0.6603
  949MOL0     H28107   4.734   1.670  10.640 -0.9345 -2.1827  0.4644
  949MOL0     H28108   4.814   1.771  10.508 -2.1790  0.6849 -3.1928
  949MOL0     H28109   4.725   1.624  10.329 -1.7574 -2.5912 -0.3206
  949MOL0     H28110   4.647   1.528  10.458 -0.3215  0.8173  0.2189
  949MOL0     H28111   4.854   1.412  10.419  1.6459 -0.1819 -2.6403
  949MOL0     H28112   4.908   1.527  10.538 -0.0442 -0.8922 -0.2883
  949MOL0     H28113   5.135   1.674  10.228 -1.9158  0.5289 -0.9760
  949MOL0     H28114   4.401   1.953  10.443 -0.4841 -0.4397 -1.0075
  949MOL0     H28115   4.187   2.072  10.540 -0.3253 -0.0409 -1.9342
  950MOL0     O28116   3.348   9.059   5.833  0.1851  0.9084 -0.6950
  950MOL0     C28117   3.420   8.956   5.828 -0.8353  0.3313  0.9311
  950MOL0     O28118   3.376   8.826   5.828 -1.0395 -0.2578 -0.2288
  950MOL0     C28119   3.246   8.811   5.852  0.0738 -0.7826 -0.4616
  950MOL0     C28120   3.204   8.798   5.987 -0.5518  0.1143  0.4798
  950MOL0     C28121   3.068   8.786   6.022 -0.2860  0.2870  0.4768
  950MOL0     C28122   2.970   8.768   5.921  0.2389  0.0172  0.0290
  950MOL0     O28123   2.838   8.745   5.944 -0.1140  0.0621  0.8617
  950MOL0     C28124   2.792   8.701   6.073  0.2375 -0.1520 -0.0180
  950MOL0     C28125   2.649   8.680   6.044  0.8416 -0.0803 -0.3719
  950MOL0     C28126   2.571   8.618   6.160  0.3555 -1.1127  0.2422
  950MOL0     C28127   2.546   8.470   6.127 -0.4941 -0.3525 -0.5351
  950MOL0     C28128   2.501   8.388   6.246 -0.2872 -0.0236 -0.0475
  950MOL0     C28129   2.368   8.446   6.295 -0.1979  0.4893 -0.4887
  950MOL0     C28130   2.254   8.402   6.209  0.3899  0.1226  0.0913
  950MOL0     C28131   2.118   8.460   6.258 -0.2763 -0.0130 -0.3546
  950MOL0     N28132   2.093   8.410   6.393 -0.2413  0.1473  0.6060
  950MOL0     C28133   2.062   8.282   6.432 -0.1010  0.0982  1.0090
  950MOL0     C28134   2.044   8.287   6.567 -0.8602  0.0889  0.7268
  950MOL0     C28135   2.022   8.157   6.636  0.4987  0.4339 -0.5513
  950MOL0     C28136   1.941   8.171   6.773  0.0645 -1.4281  1.4038
  950MOL0     C28137   1.898   8.047   6.849 -0.1005 -0.9515  1.0437
  950MOL0     C28138   1.804   7.959   6.765 -0.0538  0.7122 -1.1690
  950MOL0     O28139   1.874   7.845   6.716 -0.3109  0.7366  0.4674
  950MOL0     C28140   1.798   7.748   6.653 -0.2579  0.0397  0.1412
  950MOL0     C28141   1.870   7.625   6.640 -0.0892 -1.2706  0.9520
  950MOL0     C28142   1.821   7.521   6.562  0.3942 -0.9876  0.3290
  950MOL0     C28143   1.915   7.416   6.533 -0.0965 -0.3848  0.2140
  950MOL0     C28144   1.686   7.524   6.526  0.0855  0.5821  0.4588
  950MOL0     C28145   1.611   7.417   6.446 -0.6529 -0.2922 -0.7043
  950MOL0     O28146   1.475   7.389   6.476 -0.0516  0.7827  0.2245
  950MOL0     C28147   1.402   7.293   6.403  1.1480 -0.7732  0.0543
  950MOL0     C28148   1.453   7.193   6.333  0.4323 -0.5672  1.2995
  950MOL0     C28149   1.368   7.098   6.273  0.2692  0.0310 -0.1822
  950MOL0     C28150   1.223   7.117   6.275 -0.3996 -0.4978  0.5674
  950MOL0     O28151   1.138   7.021   6.213  0.0530  0.5105 -0.4239
  950MOL0     C28152   1.190   6.931   6.115  0.0232 -0.2740  0.0439
  950MOL0     C28153   1.074   6.886   6.026 -0.6322  0.2181 -0.0229
  950MOL0     C28154   1.088   6.727   5.989 -0.6597 -0.3390 -0.2610
  950MOL0     C28155   0.993   6.705   5.875 -0.0742 -0.3039 -0.6616
  950MOL0     C28156   0.846   6.671   5.909 -0.0514  0.2544  0.4020
  950MOL0     C28157   0.836   6.530   5.971  0.5809  0.9396 -0.0414
  950MOL0     C28158   0.692   6.507   6.027  0.6279  0.0273 -0.2909
  950MOL0     C28159   0.586   6.478   5.916 -0.2673 -0.2271  0.9264
  950MOL0    Cl28160   0.523   6.637   5.856  0.1532 -0.0092  0.0491
  950MOL0     C28161   1.164   7.218   6.346  0.4814  0.5107 -0.4683
  950MOL0     C28162   1.258   7.311   6.410  0.5013 -0.0506  0.9772
  950MOL0     O28163   1.675   7.374   6.352 -0.1256 -0.3688 -0.1353
  950MOL0     C28164   1.604   7.636   6.568  0.3896  0.5442  1.1269
  950MOL0     C28165   1.661   7.753   6.622 -0.6657 -0.0059  0.4430
  950MOL0     N28166   2.058   8.416   6.608 -0.7783 -0.1745 -0.3203
  950MOL0     N28167   2.089   8.486   6.501  0.3096 -0.1227 -0.5876
  950MOL0     C28168   3.017   8.789   5.787  0.5901 -0.3142 -0.3616
  950MOL0     C28169   3.148   8.807   5.756  0.0578 -0.4914  0.4156
  950MOL0     C28170   3.562   8.979   5.853  0.3165  0.7209 -0.1282
  950MOL0     C28171   3.623   9.108   5.849 -1.0784 -0.2821  0.2473
  950MOL0     C28172   3.752   9.126   5.896 -0.2693  0.1004 -0.0021
  950MOL0     C28173   3.828   9.011   5.939 -0.1086 -0.4841 -0.0875
  950MOL0     O28174   3.955   9.021   5.987 -0.1680 -0.4542  0.3980
  950MOL0     C28175   4.022   9.149   5.960 -0.3907 -0.0220 -0.3785
  950MOL0     C28176   4.171   9.140   6.002 -0.0093 -0.1448 -0.5927
  950MOL0     C28177   4.202   9.220   6.132 -0.3915  0.0202  0.6449
  950MOL0     C28178   4.346   9.228   6.176  0.4089  0.6670  0.4084
  950MOL0     C28179   4.400   9.113   6.242  0.1432  0.3959 -0.0408
  950MOL0     C28180   4.457   9.024   6.302  0.3370  0.5272  0.7416
  950MOL0     C28181   3.772   8.888   5.922 -0.5508  0.3360 -0.1558
  950MOL0     C28182   3.637   8.863   5.889  0.4650  0.3681 -0.0190
  950MOL0     H28183   3.276   8.799   6.068 -0.1164 -0.5426  0.1096
  950MOL0     H28184   3.042   8.802   6.126 -0.6741  4.0840 -0.0779
  950MOL0     H28185   2.827   8.607   6.117  1.2906  0.8696  1.4227
  950MOL0     H28186   2.804   8.784   6.144  1.9061 -0.2550 -0.1516
  950MOL0     H28187   2.605   8.776   6.018  0.7182  0.3638  1.3518
  950MOL0     H28188   2.628   8.613   5.960 -1.7911 -0.1023  0.2144
  950MOL0     H28189   2.619   8.633   6.257 -1.1979 -1.9130  1.1809
  950MOL0     H28190   2.471   8.661   6.166  0.5358 -0.3698 -1.4668
  950MOL0     H28191   2.482   8.464   6.039 -0.8443 -0.4911 -0.2710
  950MOL0     H28192   2.639   8.417   6.105 -1.5983 -3.6481  1.9688
  950MOL0     H28193   2.498   8.282   6.221  1.3897 -0.6001  1.9294
  950MOL0     H28194   2.571   8.403   6.329  1.3910  0.6074 -1.5405
  950MOL0     H28195   2.358   8.405   6.396 -0.0876  0.9004 -0.3081
  950MOL0     H28196   2.364   8.555   6.309 -1.9913  0.3657  0.1358
  950MOL0     H28197   2.262   8.439   6.107 -1.5440  1.5701  0.4014
  950MOL0     H28198   2.261   8.293   6.204  1.1890  0.2251 -1.7484
  950MOL0     H28199   2.043   8.426   6.185 -1.5769  0.0438  0.9020
  950MOL0     H28200   2.122   8.569   6.267 -2.5017  0.1029 -0.2423
  950MOL0     H28201   2.055   8.196   6.366 -1.6080 -0.8561  2.3361
  950MOL0     H28202   1.970   8.088   6.568 -0.6954  0.0401  0.7285
  950MOL0     H28203   2.122   8.121   6.660  0.3667  0.3626 -0.1051
  950MOL0     H28204   1.853   8.228   6.741 -0.9547 -3.2144  0.9172
  950MOL0     H28205   2.001   8.232   6.841  0.5631 -2.4988  1.9399
  950MOL0     H28206   1.841   8.090   6.932 -2.3385 -1.3276 -0.2271
  950MOL0     H28207   1.984   7.996   6.893  1.2891  0.2188 -0.2408
  950MOL0     H28208   1.777   8.009   6.672 -0.0862  2.7789 -0.1124
  950MOL0     H28209   1.709   7.934   6.813 -0.1625 -5.8857 -3.7210
  950MOL0     H28210   1.966   7.639   6.689 -0.0986  1.4134  0.3769
  950MOL0     H28211   1.969   7.430   6.439  1.1007  2.9271  1.2739
  950MOL0     H28212   1.988   7.412   6.614 -1.9914  0.8250  2.0913
  950MOL0     H28213   1.866   7.319   6.546 -2.8341  1.0586  1.6144
  950MOL0     H28214   1.560   7.178   6.327  0.4357 -0.6190  1.4755
  950MOL0     H28215   1.402   7.010   6.220 -1.5595 -0.9256  0.1482
  950MOL0     H28216   1.267   6.973   6.049 -1.5262  3.8108  0.5193
  950MOL0     H28217   1.233   6.847   6.169 -2.1893 -0.9950  0.7868
  950MOL0     H28218   0.979   6.907   6.074 -0.2704  1.6487  0.1050
  950MOL0     H28219   1.084   6.945   5.934  2.8327 -0.9499 -0.5810
  950MOL0     H28220   1.069   6.667   6.079  2.1386 -0.9334  0.0292
  950MOL0     H28221   1.189   6.702   5.954 -0.7466  0.8742 -1.4625
  950MOL0     H28222   0.992   6.795   5.814 -3.0355  2.9352  3.5780
  950MOL0     H28223   1.020   6.619   5.813  2.0447 -0.1728 -0.0031
  950MOL0     H28224   0.800   6.660   5.810  5.1854  0.2023 -2.3859
  950MOL0     H28225   0.804   6.756   5.964  2.4417  0.2218  2.5452
  950MOL0     H28226   0.860   6.451   5.900 -0.7358  2.4525 -2.3123
  950MOL0     H28227   0.906   6.517   6.053 -1.3994 -0.1542  1.5936
  950MOL0     H28228   0.653   6.579   6.100  0.9050 -0.9155  0.8265
  950MOL0     H28229   0.695   6.410   6.078  2.4226 -0.0085 -0.4161
  950MOL0     H28230   0.507   6.416   5.959 -1.8971  1.6856  0.8618
  950MOL0     H28231   0.637   6.432   5.832  0.8202  0.7188  1.0381
  950MOL0     H28232   1.056   7.218   6.342  0.4590  2.1886 -0.6071
  950MOL0     H28233   1.227   7.395   6.472  1.7820 -0.5941  2.4216
  950MOL0     H28234   1.496   7.643   6.553  0.3463 -1.2604  0.3643
  950MOL0     H28235   1.599   7.839   6.642  0.0197  0.4461  0.6393
  950MOL0     H28236   2.946   8.784   5.705 -1.3408 -0.4149  1.2426
  950MOL0     H28237   3.175   8.832   5.653  0.8638  0.5629  0.8564
  950MOL0     H28238   3.569   9.199   5.826  1.9602  1.7152  0.5462
  950MOL0     H28239   3.790   9.227   5.906 -0.2511  0.2617 -1.5048
  950MOL0     H28240   4.010   9.190   5.859  0.8884 -0.7208 -0.8350
  950MOL0     H28241   3.975   9.225   6.022  1.4489  0.2159  0.7996
  950MOL0     H28242   4.234   9.186   5.924  1.2350 -0.8534 -0.0397
  950MOL0     H28243   4.199   9.034   6.008 -0.9180 -0.2843  2.7132
  950MOL0     H28244   4.136   9.189   6.213  0.1495  0.6717  1.3409
  950MOL0     H28245   4.168   9.321   6.108  0.5959  0.1729 -0.1801
  950MOL0     H28246   4.346   9.307   6.252  1.4404 -2.2200  3.6569
  950MOL0     H28247   4.403   9.249   6.085 -0.0623 -0.5242 -0.1835
  950MOL0     H28248   4.505   8.942   6.350 -1.0411 -1.3926 -0.9547
  950MOL0     H28249   3.822   8.794   5.944 -2.0657 -0.3090  0.7598
  950MOL0     H28250   3.594   8.763   5.885  1.4635 -0.0223 -2.4407
  951MOL0     O28251   7.198   6.548   7.574  0.0110  0.7043  0.8296
  951MOL0     C28252   7.188   6.536   7.453  0.1183  0.0084 -0.1094
  951MOL0     O28253   7.077   6.496   7.389  0.2950  0.5797 -0.5811
  951MOL0     C28254   6.986   6.431   7.480  0.2611  0.1986  0.4139
  951MOL0     C28255   6.872   6.497   7.517  0.2977  0.4537 -0.2113
  951MOL0     C28256   6.774   6.432   7.594  0.2877  0.1591  0.0685
  951MOL0     C28257   6.792   6.303   7.640 -0.0687  0.5391 -1.1066
  951MOL0     O28258   6.702   6.255   7.727 -0.4794  0.3356 -0.3458
  951MOL0     C28259   6.690   6.107   7.732 -1.1161 -0.4215  0.3799
  951MOL0     C28260   6.594   6.062   7.839  1.3475  0.7997  0.6206
  951MOL0     C28261   6.445   6.106   7.810  0.4773  0.6776  0.4936
  951MOL0     C28262   6.335   6.011   7.850  0.7126  0.1899  0.6946
  951MOL0     C28263   6.211   6.061   7.781 -0.3009  0.3532 -0.3205
  951MOL0     C28264   6.089   5.963   7.813  0.0287  0.6175  0.3379
  951MOL0     C28265   5.965   6.032   7.738 -0.9002  0.4937 -0.3482
  951MOL0     C28266   5.844   5.947   7.735 -0.1936 -0.1756 -0.3238
  951MOL0     N28267   5.717   6.017   7.720  0.1316  0.5291 -0.1182
  951MOL0     C28268   5.629   5.996   7.617 -0.1878 -0.5429  0.2525
  951MOL0     C28269   5.523   6.080   7.656  0.2251  0.1576 -0.1593
  951MOL0     C28270   5.380   6.083   7.591  0.2522 -0.3284  0.1880
  951MOL0     C28271   5.286   5.980   7.649  0.0072 -0.5438  0.3617
  951MOL0     C28272   5.230   6.030   7.780 -0.0020  0.9369  0.1619
  951MOL0     C28273   5.114   5.950   7.837  0.5737  0.9893 -0.9205
  951MOL0     O28274   5.150   5.811   7.828  0.1005 -0.0923 -0.2236
  951MOL0     C28275   5.037   5.738   7.823  0.4827  0.4683  0.4451
  951MOL0     C28276   4.975   5.707   7.707 -0.7356 -0.2461 -0.3114
  951MOL0     C28277   4.863   5.625   7.704  0.4362  0.7391 -0.6197
  951MOL0     C28278   4.812   5.594   7.562 -1.6016 -0.4746 -0.1229
  951MOL0     C28279   4.794   5.598   7.819 -0.5551  0.3325 -0.3869
  951MOL0     C28280   4.668   5.525   7.829  0.3339  0.4909 -0.6478
  951MOL0     O28281   4.577   5.567   7.923 -0.0643 -0.1992 -0.0759
  951MOL0     C28282   4.451   5.517   7.927  0.2815 -0.7729 -0.3427
  951MOL0     C28283   4.419   5.388   7.900 -0.9643 -0.1358  0.0104
  951MOL0     C28284   4.287   5.339   7.890  0.7755  0.6962 -0.1744
  951MOL0     C28285   4.182   5.428   7.926  0.7671 -0.2189  1.2207
  951MOL0     O28286   4.042   5.405   7.908  0.2852  0.4600  0.3804
  951MOL0     C28287   4.011   5.271   7.865  0.7086  0.0799  0.6283
  951MOL0     C28288   3.859   5.274   7.821 -0.0873  0.0268 -0.6974
  951MOL0     C28289   3.765   5.181   7.892 -0.6477  0.1841 -0.7360
  951MOL0     C28290   3.633   5.183   7.813  0.5052 -0.6231  0.3646
  951MOL0     C28291   3.531   5.078   7.861 -0.2804  0.7099  0.1759
  951MOL0     C28292   3.398   5.111   7.783 -0.9502 -0.6272 -0.0267
  951MOL0     C28293   3.283   5.009   7.824 -0.1600 -0.5878  0.3369
  951MOL0     C28294   3.184   5.018   7.705 -0.0227 -0.5718 -0.1587
  951MOL0    Cl28295   3.257   4.947   7.553 -0.1235 -0.1067  0.2635
  951MOL0     C28296   4.209   5.560   7.963 -0.5836  0.7298 -0.0512
  951MOL0     C28297   4.341   5.594   7.972  0.1525  0.7740 -0.0568
  951MOL0     O28298   4.649   5.436   7.748 -0.5460  0.7496 -0.3939
  951MOL0     C28299   4.852   5.640   7.944 -0.1573  0.0091  0.4590
  951MOL0     C28300   4.973   5.706   7.946 -0.8387  0.1474 -0.0734
  951MOL0     N28301   5.552   6.140   7.777 -0.0082  0.3849  0.1112
  951MOL0     N28302   5.661   6.095   7.821 -0.2736  0.0715 -0.0816
  951MOL0     C28303   6.909   6.232   7.593 -1.4749 -0.4321 -0.6206
  951MOL0     C28304   7.004   6.303   7.516  0.3172  0.0658 -0.2875
  951MOL0     C28305   7.307   6.524   7.372 -0.4604 -0.4661 -0.4064
  951MOL0     C28306   7.420   6.486   7.450 -0.4444  0.0511  0.5872
  951MOL0     C28307   7.533   6.439   7.377 -0.0580 -0.9182  0.8638
  951MOL0     C28308   7.523   6.433   7.238 -0.1889  0.2692  0.2119
  951MOL0     O28309   7.617   6.378   7.160  0.5860  0.4721  0.3906
  951MOL0     C28310   7.751   6.365   7.205 -0.6513  0.0068 -0.2361
  951MOL0     C28311   7.811   6.504   7.257  1.1661  0.8163  0.4952
  951MOL0     C28312   7.900   6.570   7.142  0.5063  0.1800  0.1511
  951MOL0     C28313   7.977   6.678   7.205  0.2058 -0.8609  0.0200
  951MOL0     C28314   8.043   6.772   7.111 -0.4041 -0.7876 -0.8506
  951MOL0     C28315   8.081   6.855   7.030 -0.4850 -0.3077 -0.5357
  951MOL0     C28316   7.415   6.472   7.168 -0.3502 -0.4496 -0.3739
  951MOL0     C28317   7.305   6.522   7.233  0.6924 -0.2774 -0.2586
  951MOL0     H28318   6.857   6.598   7.480 -0.9430  0.2604 -0.2701
  951MOL0     H28319   6.679   6.482   7.611 -0.4876 -1.6365  1.3751
  951MOL0     H28320   6.662   6.066   7.635 -0.1940  0.0264 -0.0876
  951MOL0     H28321   6.784   6.055   7.754 -1.0207 -0.5799 -0.3744
  951MOL0     H28322   6.593   5.953   7.848  1.6417  0.6444 -1.0622
  951MOL0     H28323   6.617   6.109   7.935  1.9197  0.1128  0.8323
  951MOL0     H28324   6.433   6.197   7.869 -0.0670  1.9356 -1.4642
  951MOL0     H28325   6.441   6.126   7.702 -3.0217 -3.5321 -0.4784
  951MOL0     H28326   6.365   5.913   7.813 -4.2534 -1.3577  0.0885
  951MOL0     H28327   6.318   5.991   7.956 -0.0759  2.3130  1.0181
  951MOL0     H28328   6.203   6.165   7.814  1.2926  1.3958 -2.9694
  951MOL0     H28329   6.231   6.063   7.674 -0.4169  1.6050 -0.3400
  951MOL0     H28330   6.124   5.867   7.775  2.9520  1.5522  0.4762
  951MOL0     H28331   6.061   5.950   7.918  0.8431 -0.5086  0.4347
  951MOL0     H28332   5.952   6.124   7.796 -1.2152  0.0024  0.3738
  951MOL0     H28333   5.978   6.069   7.635 -2.2156  1.8012 -0.0733
  951MOL0     H28334   5.843   5.902   7.835 -0.5333  0.4892 -0.0272
  951MOL0     H28335   5.861   5.868   7.661 -0.4817  0.1980 -0.7949
  951MOL0     H28336   5.652   5.933   7.531  0.8033 -0.7467  0.6475
  951MOL0     H28337   5.335   6.182   7.582 -0.5139 -0.6679  0.2869
  951MOL0     H28338   5.399   6.049   7.489  1.3228 -1.1674  0.6388
  951MOL0     H28339   5.335   5.883   7.664  0.9597 -0.6717 -2.7217
  951MOL0     H28340   5.200   5.972   7.581 -0.8652 -0.9919  1.4896
  951MOL0     H28341   5.194   6.133   7.778 -2.4558  0.1367 -1.1269
  951MOL0     H28342   5.314   6.023   7.850  0.4907 -2.0000 -0.5756
  951MOL0     H28343   5.025   5.973   7.779  0.8810  1.6300 -1.1516
  951MOL0     H28344   5.091   5.979   7.940 -1.0006  0.5422 -1.1247
  951MOL0     H28345   5.015   5.742   7.612  0.1905 -0.3252  0.0363
  951MOL0     H28346   4.861   5.644   7.478 -1.0447 -2.6586 -1.1542
  951MOL0     H28347   4.812   5.488   7.539 -1.8723 -1.1939  2.7407
  951MOL0     H28348   4.707   5.626   7.559 -1.0429  1.6053  0.6394
  951MOL0     H28349   4.487   5.306   7.877 -3.1315 -2.0092  0.0118
  951MOL0     H28350   4.265   5.239   7.853 -0.1468  0.9646 -0.3805
  951MOL0     H28351   4.074   5.240   7.782  1.3047 -1.1281  1.5062
  951MOL0     H28352   4.041   5.210   7.951  2.0142 -0.1241  0.0424
  951MOL0     H28353   3.814   5.374   7.816  1.4189  0.8443  0.9945
  951MOL0     H28354   3.858   5.244   7.716  1.3406 -0.9560 -0.4561
  951MOL0     H28355   3.748   5.222   7.992 -1.1072  1.1534 -1.1939
  951MOL0     H28356   3.808   5.081   7.905  0.6011  0.5968 -1.4551
  951MOL0     H28357   3.593   5.282   7.837  2.1314  0.1696 -0.0285
  951MOL0     H28358   3.648   5.165   7.707  1.3732 -2.9790  0.8262
  951MOL0     H28359   3.499   5.084   7.965 -1.2652 -0.7710 -0.0091
  951MOL0     H28360   3.578   4.981   7.847  1.6546  1.6564 -0.3071
  951MOL0     H28361   3.377   5.216   7.805  0.0412  0.1419 -2.3578
  951MOL0     H28362   3.417   5.102   7.675 -1.7794 -1.7974 -0.0831
  951MOL0     H28363   3.226   5.045   7.911  1.4329  1.1451  0.7212
  951MOL0     H28364   3.331   4.912   7.837 -0.4532 -0.4389  3.3204
  951MOL0     H28365   3.137   5.116   7.691 -0.0589  0.7846  6.3696
  951MOL0     H28366   3.113   4.941   7.736 -0.8062 -0.6558 -2.0226
  951MOL0     H28367   4.131   5.628   7.994 -2.8668 -0.6905 -2.3175
  951MOL0     H28368   4.353   5.701   7.986 -1.6835  1.1230 -0.9439
  951MOL0     H28369   4.804   5.615   8.038 -1.5721 -0.0689 -0.2619
  951MOL0     H28370   5.003   5.745   8.043 -0.3309  2.3244 -1.0315
  951MOL0     H28371   6.945   6.135   7.623 -0.3300 -0.1765 -1.1070
  951MOL0     H28372   7.100   6.261   7.489 -1.1680 -3.7752 -0.1545
  951MOL0     H28373   7.429   6.482   7.558  0.3446 -0.6385  0.5062
  951MOL0     H28374   7.623   6.406   7.427  0.3220 -1.5624 -0.2057
  951MOL0     H28375   7.759   6.297   7.290 -0.2118  2.5329  1.8560
  951MOL0     H28376   7.803   6.322   7.119 -3.7854 -4.8887 -0.0727
  951MOL0     H28377   7.875   6.480   7.343  1.9240 -0.0215 -0.2761
  951MOL0     H28378   7.730   6.573   7.282 -0.5119 -0.7614 -0.3556
  951MOL0     H28379   7.827   6.609   7.071  1.0638 -0.3399 -0.7231
  951MOL0     H28380   7.970   6.499   7.096  0.7890  1.5003 -1.5560
  951MOL0     H28381   8.050   6.638   7.276 -0.0802  1.2481  1.6225
  951MOL0     H28382   7.905   6.750   7.246  0.8625 -0.3622  0.3293
  951MOL0     H28383   8.119   6.923   6.956  0.8613 -1.8696 -1.3326
  951MOL0     H28384   7.417   6.460   7.060  2.0399  0.6050 -0.5168
  951MOL0     H28385   7.214   6.547   7.180  0.6052 -0.3170 -0.1269
  952MOL0     O28386   8.589  10.080   0.869 -0.4199 -0.7873  0.0058
  952MOL0     C28387   8.645   9.981   0.918 -0.0918 -0.2137 -0.3018
  952MOL0     O28388   8.741   9.983   1.009  0.1959  0.5271 -0.3982
  952MOL0     C28389   8.801  10.104   1.048  1.1079 -0.4864  0.6981
  952MOL0     C28390   8.835  10.138   1.180 -0.7379 -0.4873  0.4864
  952MOL0     C28391   8.906  10.262   1.212  0.3143  0.3789 -0.0808
  952MOL0     C28392   8.931  10.354   1.104 -0.3432  0.4079 -0.1586
  952MOL0     O28393   9.005  10.472   1.133 -0.4059  0.3753 -0.6043
  952MOL0     C28394   8.932  10.588   1.099  0.0102 -0.2832  0.6727
  952MOL0     C28395   8.944  10.702   1.207  0.3273  0.9277 -0.4105
  952MOL0     C28396   8.879  10.658   1.337 -0.3828  0.4250 -0.5506
  952MOL0     C28397   8.865  10.769   1.444  0.5349 -0.0498  0.1213
  952MOL0     C28398   8.986  10.837   1.517  0.6011  0.4476 -0.1808
  952MOL0     C28399   8.937  10.909   1.640 -0.1587  0.1686 -0.6272
  952MOL0     C28400   9.038  11.001   1.713  0.3572 -0.3455  0.2748
  952MOL0     C28401   9.184  10.932   1.734  0.4199 -0.9563 -0.3956
  952MOL0     N28402   9.265  10.989   1.844  0.4914  0.8700 -0.3247
  952MOL0     C28403   9.237  10.950   1.975  0.7005  0.1281  0.4429
  952MOL0     C28404   9.348  10.986   2.049 -0.5972  0.1919 -0.7654
  952MOL0     C28405   9.339  10.966   2.196  0.1271  1.0311  0.4390
  952MOL0     C28406   9.380  11.074   2.282 -0.7854  0.0777  0.3879
  952MOL0     C28407   9.533  11.080   2.320 -0.5888  0.9414 -0.7591
  952MOL0     C28408   9.574  10.959   2.418 -0.4872 -0.4620  0.1316
  952MOL0     O28409   9.700  10.974   2.489  0.7271 -0.2001  0.9799
  952MOL0     C28410   9.817  10.974   2.410  0.9454  0.3329  0.0203
  952MOL0     C28411   9.923  11.039   2.465  0.0365  0.3010  0.9311
  952MOL0     C28412  10.053  11.023   2.403 -0.1447 -0.1112  0.2211
  952MOL0     C28413  10.172  11.098   2.477  1.2140  0.0222  1.0719
  952MOL0     C28414  10.069  10.964   2.269 -0.2565  1.1359  0.6206
  952MOL0     C28415  10.206  10.952   2.202  0.0040 -0.2456 -0.3050
  952MOL0     O28416  10.202  11.003   2.072 -0.0302 -0.6569 -0.5630
  952MOL0     C28417  10.316  10.995   1.999 -0.5338  0.4168 -0.3371
  952MOL0     C28418  10.364  11.118   1.952 -0.2858  0.4430  0.6125
  952MOL0     C28419  10.480  11.126   1.876 -0.1557  0.4430  0.2101
  952MOL0     C28420  10.559  11.006   1.854 -0.2659 -0.1998  0.0419
  952MOL0     O28421  10.686  11.010   1.796 -0.4885  0.3137  0.5276
  952MOL0     C28422  10.743  11.127   1.744 -0.0643  0.2819 -0.6238
  952MOL0     C28423  10.689  11.162   1.613  0.6173  0.9566 -0.1966
  952MOL0     C28424  10.669  11.047   1.513 -0.0408  0.3828 -0.2443
  952MOL0     C28425  10.801  10.979   1.480  0.7751  0.1411  0.3549
  952MOL0     C28426  10.774  10.900   1.354 -0.2364  0.4639  0.3263
  952MOL0     C28427  10.904  10.856   1.275  0.2059 -0.4379 -0.0194
  952MOL0     C28428  10.898  10.743   1.172  0.5353 -0.0756  0.4872
  952MOL0     C28429  10.797  10.765   1.063  0.2155  0.2015  0.5275
  952MOL0    Cl28430  10.830  10.663   0.916  0.0944 -0.1065  0.2176
  952MOL0     C28431  10.521  10.881   1.924 -0.2691  0.4124  0.5792
  952MOL0     C28432  10.397  10.880   1.991 -0.7898  0.4997  0.3578
  952MOL0     O28433  10.301  10.929   2.263 -0.5118  0.7913  0.5543
  952MOL0     C28434   9.950  10.923   2.210 -0.3468  0.6737  0.5168
  952MOL0     C28435   9.832  10.916   2.281  0.2889  0.6013 -0.5177
  952MOL0     N28436   9.452  11.030   1.963  0.1536  0.1207  0.1473
  952MOL0     N28437   9.403  11.025   1.839  0.9205 -0.4336 -0.7038
  952MOL0     C28438   8.895  10.319   0.974  0.1420 -1.7210 -0.2762
  952MOL0     C28439   8.838  10.201   0.948  0.6440 -0.7366 -0.1114
  952MOL0     C28440   8.606   9.852   0.875 -0.0941 -0.0266 -0.8431
  952MOL0     C28441   8.600   9.744   0.966  0.4183 -0.9540 -0.1731
  952MOL0     C28442   8.547   9.620   0.920 -1.3654  0.4132 -0.5553
  952MOL0     C28443   8.489   9.603   0.797  1.5527  0.2563 -0.0312
  952MOL0     O28444   8.450   9.477   0.768  0.3937  0.5638 -0.1009
  952MOL0     C28445   8.345   9.468   0.660 -0.2939 -0.8180 -0.1622
  952MOL0     C28446   8.230   9.563   0.690 -0.4732  0.3197  0.3099
  952MOL0     C28447   8.107   9.540   0.593  0.4911 -0.9505 -1.0779
  952MOL0     C28448   8.000   9.649   0.628  0.7024  0.6155 -0.2207
  952MOL0     C28449   7.866   9.623   0.567 -0.7399  0.6672 -0.4922
  952MOL0     C28450   7.765   9.611   0.497  0.1584 -0.6647 -0.5473
  952MOL0     C28451   8.492   9.711   0.707  0.2334  0.0844  0.0299
  952MOL0     C28452   8.550   9.836   0.755  0.4156  0.0360  0.1501
  952MOL0     H28453   8.815  10.070   1.262  2.4102 -0.5277  1.3536
  952MOL0     H28454   8.951  10.261   1.311 -1.2695  0.1874  0.6655
  952MOL0     H28455   8.983  10.616   1.007  1.8743 -1.8550  1.1538
  952MOL0     H28456   8.825  10.580   1.083 -0.2768  0.7757  1.8782
  952MOL0     H28457   9.051  10.717   1.223  0.8560 -1.1508 -1.6779
  952MOL0     H28458   8.889  10.790   1.172 -4.5888 -0.7711  2.0765
  952MOL0     H28459   8.777  10.625   1.318  0.1292 -1.2043 -0.5946
  952MOL0     H28460   8.927  10.568   1.377 -0.6803  0.5972  0.2029
  952MOL0     H28461   8.813  10.857   1.405 -0.1201  0.8883  2.9369
  952MOL0     H28462   8.799  10.731   1.522 -0.0607  1.6208  0.4624
  952MOL0     H28463   9.069  10.775   1.552  1.9044  3.4490  2.5980
  952MOL0     H28464   9.027  10.918   1.456  2.2116  0.0361  0.3182
  952MOL0     H28465   8.850  10.970   1.616 -0.3057 -0.2370 -1.1405
  952MOL0     H28466   8.904  10.837   1.715 -2.0162  1.0458 -0.5373
  952MOL0     H28467   9.041  11.084   1.643  0.1954 -0.7135 -0.1749
  952MOL0     H28468   8.992  11.039   1.805 -0.2799 -0.0996 -0.1464
  952MOL0     H28469   9.237  10.934   1.638  0.8604  2.3785 -0.2079
  952MOL0     H28470   9.180  10.826   1.762 -0.2954 -0.4814  1.4515
  952MOL0     H28471   9.151  10.903   2.022 -0.4704  0.4104 -1.3267
  952MOL0     H28472   9.240  10.925   2.217  0.0019  0.3601 -1.3136
  952MOL0     H28473   9.395  10.875   2.220 -2.2940  0.3170  4.4027
  952MOL0     H28474   9.321  11.056   2.372 -3.2793 -0.2349 -1.2320
  952MOL0     H28475   9.365  11.172   2.235  2.9280  0.4546 -0.3184
  952MOL0     H28476   9.563  11.175   2.364  0.3670  1.1995 -1.8930
  952MOL0     H28477   9.588  11.071   2.226 -2.1405 -0.0870 -1.6264
  952MOL0     H28478   9.586  10.866   2.361  0.9980  0.1256 -0.5626
  952MOL0     H28479   9.495  10.941   2.491 -0.4238  2.9367  1.1745
  952MOL0     H28480   9.900  11.101   2.551 -1.7724  1.7119 -0.4954
  952MOL0     H28481  10.132  11.169   2.551 -0.5894 -0.2892  0.4510
  952MOL0     H28482  10.230  11.021   2.530 -0.5649 -2.2880 -0.1827
  952MOL0     H28483  10.227  11.164   2.410 -2.6392  2.7663  0.2926
  952MOL0     H28484  10.309  11.212   1.956 -1.3734  0.1114 -3.2246
  952MOL0     H28485  10.513  11.218   1.828 -2.1031 -0.7123 -3.7829
  952MOL0     H28486  10.728  11.204   1.820 -0.3331 -1.3184  1.0178
  952MOL0     H28487  10.849  11.099   1.734 -0.1148  0.5438 -2.2653
  952MOL0     H28488  10.587  11.202   1.621  1.2849  2.6832 -0.0224
  952MOL0     H28489  10.747  11.242   1.567  1.3741  0.1202 -0.7287
  952MOL0     H28490  10.619  11.086   1.423  1.0382  0.0701 -1.0056
  952MOL0     H28491  10.604  10.972   1.560 -0.2391  1.7581  1.7808
  952MOL0     H28492  10.872  11.053   1.444  1.1346 -0.8393 -1.0864
  952MOL0     H28493  10.848  10.920   1.559  0.2875 -2.1881 -0.9838
  952MOL0     H28494  10.717  10.955   1.279  0.1629 -1.3321 -1.4021
  952MOL0     H28495  10.730  10.802   1.375  0.4535  0.1810  0.4694
  952MOL0     H28496  10.948  10.940   1.222  0.3291 -1.1467 -1.0684
  952MOL0     H28497  10.967  10.807   1.350  1.2378  0.3043 -0.3938
  952MOL0     H28498  10.884  10.644   1.218  0.8255 -0.3802 -0.0698
  952MOL0     H28499  10.997  10.747   1.126 -0.2126  1.4452 -1.0571
  952MOL0     H28500  10.775  10.869   1.036 -3.1708 -0.4232  0.3646
  952MOL0     H28501  10.699  10.745   1.106 -0.2379  1.4558  0.1380
  952MOL0     H28502  10.588  10.796   1.910  0.5360  0.6994  2.4484
  952MOL0     H28503  10.358  10.788   2.034  2.7871 -0.3295  2.2651
  952MOL0     H28504   9.955  10.865   2.118 -0.2590 -0.0797  0.9821
  952MOL0     H28505   9.747  10.856   2.249 -0.3303  0.8068  0.6956
  952MOL0     H28506   8.916  10.393   0.897  1.3090 -1.3250  0.3886
  952MOL0     H28507   8.832  10.163   0.847 -1.3020 -0.2133 -0.2166
  952MOL0     H28508   8.634   9.748   1.069  1.4720 -0.0902 -0.5376
  952MOL0     H28509   8.550   9.539   0.992  0.3777  2.4429  1.8156
  952MOL0     H28510   8.392   9.486   0.564  0.9485  1.5222  0.8021
  952MOL0     H28511   8.311   9.364   0.657 -1.3016 -0.5524  1.0570
  952MOL0     H28512   8.241   9.672   0.690 -2.8700  0.7004  3.0975
  952MOL0     H28513   8.206   9.542   0.795  1.0760 -0.0956  0.6021
  952MOL0     H28514   8.074   9.436   0.588  3.3037 -1.9378 -1.3375
  952MOL0     H28515   8.130   9.561   0.488 -2.4642 -0.8243 -1.7724
  952MOL0     H28516   8.036   9.748   0.597  0.8749  0.2436 -1.2114
  952MOL0     H28517   7.978   9.669   0.734 -0.0217  1.9507 -0.5956
  952MOL0     H28518   7.675   9.585   0.445 -1.2164 -0.6096  1.7034
  952MOL0     H28519   8.464   9.704   0.602 -5.0019  2.9645  0.8695
  952MOL0     H28520   8.531   9.914   0.683  2.1691  2.1849  1.8648
  953MOL0     O28521   7.941   5.711   9.697 -0.6395 -0.2330  0.9090
  953MOL0     C28522   7.916   5.740   9.816 -0.1087  0.8388  0.0541
  953MOL0     O28523   7.994   5.823   9.901  0.0221  0.5167 -0.2751
  953MOL0     C28524   8.103   5.883   9.847 -0.4675 -0.3036 -0.7285
  953MOL0     C28525   8.201   5.836   9.755 -0.6400 -0.4990  0.0153
  953MOL0     C28526   8.301   5.923   9.704  0.3661  1.3920 -0.4371
  953MOL0     C28527   8.331   6.044   9.771  1.2023  0.2351  0.1603
  953MOL0     O28528   8.449   6.108   9.730  0.4902 -0.3548  0.8777
  953MOL0     C28529   8.514   6.204   9.817  0.0919  0.4497 -0.5677
  953MOL0     C28530   8.655   6.241   9.762  0.2116  0.5726 -0.2008
  953MOL0     C28531   8.657   6.339   9.634  1.2264 -0.2153 -0.9588
  953MOL0     C28532   8.803   6.344   9.584 -0.1998  0.4497  0.5260
  953MOL0     C28533   8.871   6.473   9.626 -0.0714  0.3977 -0.6954
  953MOL0     C28534   8.887   6.488   9.774 -0.0622 -0.7963 -0.9659
  953MOL0     C28535   8.981   6.603   9.807 -0.3961  1.0924  0.4501
  953MOL0     C28536   8.928   6.742   9.759 -1.0714 -0.0907 -0.5929
  953MOL0     N28537   8.807   6.801   9.809  0.5172  0.3379 -0.2438
  953MOL0     C28538   8.715   6.851   9.727  0.9099  0.1640 -0.3608
  953MOL0     C28539   8.603   6.869   9.803  1.1899 -0.1582  0.8333
  953MOL0     C28540   8.459   6.882   9.742 -0.2854  0.3090 -0.3571
  953MOL0     C28541   8.371   6.766   9.774 -0.0561  0.3610 -0.5384
  953MOL0     C28542   8.221   6.800   9.762 -0.2206  0.2679  0.2018
  953MOL0     C28543   8.130   6.693   9.814  0.0529  0.2288  0.6156
  953MOL0     O28544   7.997   6.714   9.759 -0.2760  0.6313 -0.5823
  953MOL0     C28545   7.910   6.786   9.834  0.2359 -0.9544 -0.6289
  953MOL0     C28546   7.926   6.920   9.859  0.1085 -0.1355  0.2019
  953MOL0     C28547   7.824   6.994   9.920  0.0077  0.0752  0.0114
  953MOL0     C28548   7.838   7.149   9.938  0.5461 -0.5217  0.4105
  953MOL0     C28549   7.703   6.941   9.960  0.5268 -0.3518  0.4997
  953MOL0     C28550   7.580   7.013  10.016  0.6376  1.4789 -0.8210
  953MOL0     O28551   7.475   6.928  10.057 -0.1427  0.0720  0.2948
  953MOL0     C28552   7.353   6.987  10.095 -0.5317 -0.0147 -0.1071
  953MOL0     C28553   7.340   7.071  10.204  0.6400 -0.0683 -0.0921
  953MOL0     C28554   7.222   7.148  10.226 -0.2886  0.2534 -0.0908
  953MOL0     C28555   7.118   7.139  10.133  0.9168 -0.8758  0.1876
  953MOL0     O28556   6.998   7.214  10.133  0.3806  0.2938  0.5087
  953MOL0     C28557   6.917   7.198  10.254 -0.0667 -0.1958  1.0486
  953MOL0     C28558   6.851   7.065  10.268 -0.3714  0.4537  0.7959
  953MOL0     C28559   6.732   7.057  10.362 -1.2242  0.3276  0.6470
  953MOL0     C28560   6.695   6.908  10.392  0.4180 -0.1535  0.8829
  953MOL0     C28561   6.593   6.893  10.502 -0.5208  0.0679  0.3148
  953MOL0     C28562   6.454   6.941  10.468 -0.4068 -0.2816 -0.2709
  953MOL0     C28563   6.358   6.917  10.581  0.1216  0.5946  0.0009
  953MOL0     C28564   6.223   6.980  10.571  0.1510 -0.1890 -0.7297
  953MOL0    Cl28565   6.244   7.166  10.579 -0.2179 -0.0091 -0.4143
  953MOL0     C28566   7.125   7.055  10.027  0.2023  0.3440  0.0723
  953MOL0     C28567   7.244   6.982  10.003 -0.2848 -0.8379  0.1754
  953MOL0     O28568   7.578   7.132  10.030 -0.7115 -0.7871 -0.1202
  953MOL0     C28569   7.692   6.795   9.941  0.0235 -0.2201  0.3419
  953MOL0     C28570   7.794   6.720   9.875 -0.2683  0.3962  0.7195
  953MOL0     N28571   8.641   6.850   9.933 -0.1325  0.2562 -0.9225
  953MOL0     N28572   8.763   6.806   9.939 -0.4402 -0.2353 -0.1896
  953MOL0     C28573   8.242   6.096   9.863 -0.9485  0.7699  0.0196
  953MOL0     C28574   8.131   6.017   9.892  0.1086 -0.3968  0.7724
  953MOL0     C28575   7.808   5.671   9.883  0.4534 -0.1689  0.4147
  953MOL0     C28576   7.779   5.540   9.839  0.5085  0.1366  0.2601
  953MOL0     C28577   7.681   5.467   9.909  0.0385 -0.3564  0.9903
  953MOL0     C28578   7.630   5.512  10.034  0.0216  0.7395 -0.2362
  953MOL0     O28579   7.552   5.424  10.107  0.1632 -0.0912 -0.2208
  953MOL0     C28580   7.540   5.455  10.249 -0.4304 -0.7459  0.2360
  953MOL0     C28581   7.425   5.533  10.303  0.7715  0.4933 -0.5734
  953MOL0     C28582   7.288   5.477  10.270  0.0735 -0.3476  0.8701
  953MOL0     C28583   7.179   5.517  10.371  0.0961  0.5315 -0.0713
  953MOL0     C28584   7.198   5.481  10.514 -0.7774 -0.9308 -0.2923
  953MOL0     C28585   7.225   5.439  10.625 -0.4280  0.5479 -0.5910
  953MOL0     C28586   7.652   5.642  10.066 -0.3441 -1.4313  0.1449
  953MOL0     C28587   7.727   5.734   9.985 -0.1781  0.9345 -0.1764
  953MOL0     H28588   8.179   5.743   9.704 -1.8960 -1.0453  1.4734
  953MOL0     H28589   8.368   5.888   9.626  1.4282  2.0493  0.1532
  953MOL0     H28590   8.457   6.296   9.834 -0.2326  0.4084 -1.3913
  953MOL0     H28591   8.518   6.155   9.915 -2.7315 -0.0787 -0.6350
  953MOL0     H28592   8.714   6.286   9.842  0.4139 -1.2937  0.7527
  953MOL0     H28593   8.701   6.144   9.738 -2.5236 -0.2689 -2.5243
  953MOL0     H28594   8.599   6.285   9.558  1.6870 -1.0783 -0.7070
  953MOL0     H28595   8.619   6.440   9.649  2.8047  0.2846 -0.0888
  953MOL0     H28596   8.863   6.267   9.632  1.6830  0.6525 -1.3553
  953MOL0     H28597   8.814   6.342   9.475  2.3788  0.9935  0.7181
  953MOL0     H28598   8.972   6.472   9.583  0.8717  2.9872  1.1541
  953MOL0     H28599   8.811   6.556   9.588  0.4280  1.5542  0.9010
  953MOL0     H28600   8.793   6.519   9.821 -0.4147 -0.0897 -2.0896
  953MOL0     H28601   8.919   6.392   9.817  2.0463  0.6267  0.9259
  953MOL0     H28602   8.997   6.600   9.915  1.8528 -2.2565  0.1463
  953MOL0     H28603   9.077   6.583   9.759 -0.0185  0.3357  1.4919
  953MOL0     H28604   8.931   6.732   9.650  5.9401 -1.2391 -0.7918
  953MOL0     H28605   9.003   6.817   9.786  1.7466 -3.0704  0.5785
  953MOL0     H28606   8.714   6.867   9.620 -0.1296 -0.6247 -0.4774
  953MOL0     H28607   8.406   6.971   9.779 -0.2753  0.5768 -0.9816
  953MOL0     H28608   8.469   6.899   9.635  0.7919  0.4788 -0.2447
  953MOL0     H28609   8.395   6.720   9.871  1.0555 -1.7529 -1.7384
  953MOL0     H28610   8.387   6.687   9.700  1.0565 -1.7101  1.7703
  953MOL0     H28611   8.202   6.820   9.656 -0.2092  0.9483  0.3244
  953MOL0     H28612   8.198   6.893   9.815  0.1382  1.2207 -1.2491
  953MOL0     H28613   8.129   6.697   9.923 -0.3549  0.4491  0.6064
  953MOL0     H28614   8.169   6.594   9.789  0.0965  0.6660 -1.2215
  953MOL0     H28615   8.018   6.973   9.837  1.4073 -1.4481  2.1053
  953MOL0     H28616   7.943   7.166   9.917  0.2980 -1.2069 -1.5353
  953MOL0     H28617   7.777   7.200   9.862 -2.1407 -2.5937  1.0029
  953MOL0     H28618   7.821   7.181  10.042  0.9749  1.8960 -0.1952
  953MOL0     H28619   7.427   7.096  10.263  1.5767 -1.3643 -0.8738
  953MOL0     H28620   7.211   7.199  10.321  1.8429 -2.2566  1.6462
  953MOL0     H28621   6.964   7.220  10.350  0.1589  0.0270  0.8890
  953MOL0     H28622   6.843   7.278  10.244  1.1256  0.7737 -0.5513
  953MOL0     H28623   6.816   7.042  10.167  0.6052  0.8766  0.3457
  953MOL0     H28624   6.933   6.997  10.295  1.7631  1.4560 -2.4882
  953MOL0     H28625   6.652   7.111  10.311 -0.9828  0.3847  0.3209
  953MOL0     H28626   6.754   7.110  10.454 -2.1836 -1.0769  1.7296
  953MOL0     H28627   6.658   6.861  10.301  1.5006  0.9638 -0.1851
  953MOL0     H28628   6.789   6.859  10.421  1.1619 -0.0178 -1.1198
  953MOL0     H28629   6.624   6.943  10.594  3.0756 -0.0275 -0.6784
  953MOL0     H28630   6.596   6.784  10.513  0.6865 -0.1214 -1.3782
  953MOL0     H28631   6.448   7.048  10.450 -1.3909 -0.6630 -2.5151
  953MOL0     H28632   6.424   6.894  10.374  0.8425  1.7276 -1.7620
  953MOL0     H28633   6.404   6.944  10.676  0.3776  2.9298 -0.7299
  953MOL0     H28634   6.338   6.809  10.578 -0.7271  0.7533 -0.3473
  953MOL0     H28635   6.164   6.945  10.656 -0.4530 -1.7476 -1.7529
  953MOL0     H28636   6.165   6.958  10.481 -2.5028 -4.6664  1.7180
  953MOL0     H28637   7.054   7.033   9.947  2.7064 -0.5484 -2.0419
  953MOL0     H28638   7.241   6.913   9.919  1.6576  1.7298 -2.1950
  953MOL0     H28639   7.602   6.741   9.965 -0.1286  0.2209  0.7925
  953MOL0     H28640   7.778   6.615   9.853  1.1343 -0.0676  1.7756
  953MOL0     H28641   8.261   6.197   9.899 -0.2678  1.7970 -2.9048
  953MOL0     H28642   8.063   6.059   9.965  0.9409 -0.3101  1.5236
  953MOL0     H28643   7.832   5.483   9.763 -0.9468  0.9114 -1.4066
  953MOL0     H28644   7.679   5.362   9.882  0.1222 -0.5099  1.5735
  953MOL0     H28645   7.529   5.358  10.298  3.1532 -1.7279 -0.6313
  953MOL0     H28646   7.632   5.498  10.289 -0.9566 -0.5928  1.3261
  953MOL0     H28647   7.435   5.633  10.258  1.7457 -0.1397 -1.8360
  953MOL0     H28648   7.446   5.547  10.409  3.2243  0.2230 -0.9645
  953MOL0     H28649   7.277   5.369  10.282 -0.0162 -0.5481 -0.8151
  953MOL0     H28650   7.258   5.501  10.168 -1.1407  0.4552  1.3925
  953MOL0     H28651   7.082   5.474  10.343  0.8235 -0.2177 -1.5827
  953MOL0     H28652   7.172   5.625  10.355  0.7319  0.2681 -2.4976
  953MOL0     H28653   7.244   5.414  10.727 -1.0930 -0.3082 -0.6664
  953MOL0     H28654   7.617   5.690  10.157  0.1937 -3.6165  1.5694
  953MOL0     H28655   7.748   5.837  10.013  0.5040  0.2985  1.8293
  954MOL0     O28656   7.932   6.636   7.579 -0.2881  0.1360  0.4401
  954MOL0     C28657   7.999   6.530   7.604  0.2316 -1.2786  0.4036
  954MOL0     O28658   7.950   6.406   7.588  0.1434 -0.5008 -0.2669
  954MOL0     C28659   7.822   6.382   7.631  0.1439  0.3849 -0.7914
  954MOL0     C28660   7.735   6.467   7.700 -0.2069 -0.2434 -0.2329
  954MOL0     C28661   7.607   6.423   7.737 -0.2222  0.3058 -0.0921
  954MOL0     C28662   7.560   6.292   7.709 -0.1400  0.3894  0.8404
  954MOL0     O28663   7.441   6.235   7.757  0.3409  0.6917 -0.4142
  954MOL0     C28664   7.323   6.315   7.759  0.0827  0.0940  0.3080
  954MOL0     C28665   7.205   6.256   7.814  1.0441  0.7561 -0.6756
  954MOL0     C28666   7.128   6.349   7.912  1.2285  0.1749 -0.5172
  954MOL0     C28667   7.004   6.295   7.971 -0.7441 -0.1732  0.3956
  954MOL0     C28668   7.018   6.168   8.053 -0.6274  0.9051 -0.1344
  954MOL0     C28669   6.873   6.121   8.077  0.3108 -0.0335 -1.0525
  954MOL0     C28670   6.873   6.029   8.200  0.1646  0.0944 -0.3239
  954MOL0     C28671   6.737   5.985   8.240 -0.2113 -0.4369 -0.4727
  954MOL0     N28672   6.749   5.894   8.351  0.9661 -0.3152 -0.0252
  954MOL0     C28673   6.765   5.760   8.345 -0.3643 -0.6128  0.2030
  954MOL0     C28674   6.742   5.710   8.472 -0.4178 -0.0736  0.7404
  954MOL0     C28675   6.754   5.570   8.505 -0.5308  0.2639  0.0709
  954MOL0     C28676   6.618   5.509   8.473 -0.1295 -0.4536  0.0524
  954MOL0     C28677   6.519   5.522   8.592 -0.1111  0.3042 -0.0263
  954MOL0     C28678   6.371   5.495   8.562  0.0005 -0.5052  0.8155
  954MOL0     O28679   6.312   5.577   8.463  0.3845  0.4347  0.0468
  954MOL0     C28680   6.276   5.703   8.505  0.1807  0.2692  0.0772
  954MOL0     C28681   6.141   5.721   8.543 -0.1921 -0.2396  0.8110
  954MOL0     C28682   6.095   5.856   8.551 -0.9178  0.5764 -0.0893
  954MOL0     C28683   5.948   5.869   8.571  0.8776 -0.1608 -0.8484
  954MOL0     C28684   6.186   5.965   8.532 -0.2758  0.5993 -0.5914
  954MOL0     C28685   6.156   6.103   8.567  0.2762 -0.0975 -0.5262
  954MOL0     O28686   6.207   6.208   8.499  0.0044  0.4854 -0.2349
  954MOL0     C28687   6.177   6.336   8.533 -0.6889 -0.3298  0.8581
  954MOL0     C28688   6.071   6.402   8.458 -0.4069 -0.6050  1.0969
  954MOL0     C28689   6.029   6.529   8.492 -0.2025  0.1691  0.3627
  954MOL0     C28690   6.096   6.599   8.600 -0.6862 -0.8531  0.2698
  954MOL0     O28691   6.054   6.728   8.629  0.0511 -0.4748  0.3598
  954MOL0     C28692   6.069   6.768   8.770  0.2813  0.3735  0.7045
  954MOL0     C28693   5.997   6.896   8.791  1.0761 -0.3313  0.1089
  954MOL0     C28694   5.841   6.908   8.807  0.3757 -0.3867  0.3359
  954MOL0     C28695   5.775   6.796   8.906 -0.9762 -0.4095  0.0364
  954MOL0     C28696   5.633   6.770   8.867 -0.1054 -0.0921  0.9040
  954MOL0     C28697   5.538   6.888   8.877  0.8576  0.1678  0.6085
  954MOL0     C28698   5.409   6.854   8.799  0.7557 -0.2967 -0.5462
  954MOL0     C28699   5.371   6.958   8.690 -0.0869 -0.0838  0.8866
  954MOL0    Cl28700   5.339   7.117   8.760 -0.2323 -0.5789 -0.0625
  954MOL0     C28701   6.192   6.533   8.675 -0.6508  1.3549 -0.5119
  954MOL0     C28702   6.223   6.399   8.645 -0.3809  0.4718 -0.4755
  954MOL0     O28703   6.086   6.115   8.666  0.7633 -1.2451  0.5104
  954MOL0     C28704   6.327   5.942   8.498  0.3540  0.5952 -0.3524
  954MOL0     C28705   6.368   5.809   8.485 -0.1914 -0.1741 -0.1924
  954MOL0     N28706   6.704   5.822   8.551  0.7220  0.2348 -0.0499
  954MOL0     N28707   6.707   5.926   8.478 -0.2139  0.1200  0.1133
  954MOL0     C28708   7.652   6.209   7.637 -0.0630 -1.0845 -0.7133
  954MOL0     C28709   7.780   6.254   7.592  0.9025  0.8213  0.0500
  954MOL0     C28710   8.140   6.546   7.627 -0.1749  0.5916  0.2297
  954MOL0     C28711   8.211   6.665   7.636 -0.8132 -1.0921  0.4134
  954MOL0     C28712   8.345   6.663   7.644  0.1054  0.3973  1.0719
  954MOL0     C28713   8.431   6.553   7.646 -0.1297 -0.0307  0.2904
  954MOL0     O28714   8.565   6.589   7.668  0.1752  0.3164  0.1307
  954MOL0     C28715   8.651   6.470   7.699 -0.4685 -0.0334 -0.5839
  954MOL0     C28716   8.711   6.416   7.572 -0.5273  0.1821 -0.2987
  954MOL0     C28717   8.799   6.517   7.489 -0.3322  0.2052  0.4988
  954MOL0     C28718   8.819   6.448   7.353 -0.6829  0.2774 -0.1622
  954MOL0     C28719   8.910   6.533   7.270  1.2497 -0.5294 -1.2001
  954MOL0     C28720   8.972   6.615   7.206 -0.1508  0.5734 -0.1632
  954MOL0     C28721   8.359   6.430   7.632  0.6826  0.0199  0.7910
  954MOL0     C28722   8.219   6.430   7.610  0.7608 -0.5404 -0.1393
  954MOL0     H28723   7.770   6.563   7.736  0.4742 -0.2380 -0.8886
  954MOL0     H28724   7.539   6.490   7.790 -0.5210 -0.5296  0.6136
  954MOL0     H28725   7.341   6.409   7.812  0.5959 -1.0756  2.2856
  954MOL0     H28726   7.309   6.333   7.651  0.3382 -0.1710  0.2307
  954MOL0     H28727   7.143   6.226   7.729 -0.6874 -0.9803  1.0977
  954MOL0     H28728   7.233   6.166   7.870 -0.6161  0.9155  0.4690
  954MOL0     H28729   7.188   6.379   7.999  0.5193 -0.3007  0.1450
  954MOL0     H28730   7.117   6.444   7.859  1.0593  0.5554  0.1806
  954MOL0     H28731   6.977   6.382   8.030  0.2088  0.4320 -0.0291
  954MOL0     H28732   6.928   6.283   7.892 -0.8274  0.9620  0.2876
  954MOL0     H28733   7.068   6.086   8.001 -5.2256 -1.5078 -1.2840
  954MOL0     H28734   7.079   6.202   8.138  1.2442 -0.5796 -0.8097
  954MOL0     H28735   6.806   6.203   8.103 -0.6907 -2.0825  3.9540
  954MOL0     H28736   6.839   6.074   7.984  1.4135 -0.8663 -1.0556
  954MOL0     H28737   6.929   5.937   8.178 -2.1059 -1.3220 -0.4817
  954MOL0     H28738   6.916   6.083   8.285 -0.6261 -0.1535  0.2434
  954MOL0     H28739   6.693   5.934   8.153  1.1064  0.9372 -2.0194
  954MOL0     H28740   6.685   6.072   8.281  1.5465 -0.6953  2.5350
  954MOL0     H28741   6.812   5.698   8.269  0.1188  1.4622 -1.2762
  954MOL0     H28742   6.827   5.521   8.440  0.7542 -0.0942  1.7160
  954MOL0     H28743   6.792   5.549   8.606  0.2242  1.5815  0.0855
  954MOL0     H28744   6.625   5.402   8.455  0.0653 -0.4349  0.0092
  954MOL0     H28745   6.578   5.555   8.382 -0.7784 -0.0291  0.5414
  954MOL0     H28746   6.540   5.624   8.627  2.5252  0.6111 -2.1246
  954MOL0     H28747   6.542   5.462   8.680  0.9926  1.9649  0.8802
  954MOL0     H28748   6.308   5.514   8.649 -1.6786  0.0531 -0.4627
  954MOL0     H28749   6.363   5.389   8.534  3.7889 -0.5452 -0.6730
  954MOL0     H28750   6.081   5.630   8.544 -3.5725  1.7813 -0.6601
  954MOL0     H28751   5.917   5.968   8.537  3.4605  0.3177 -2.0581
  954MOL0     H28752   5.890   5.796   8.514 -0.2658  1.0769 -1.3207
  954MOL0     H28753   5.919   5.859   8.676  1.9071 -1.4975 -0.6666
  954MOL0     H28754   6.022   6.348   8.377 -0.6596 -2.5320  2.4768
  954MOL0     H28755   5.954   6.575   8.428  0.8049  1.1484 -0.1446
  954MOL0     H28756   6.026   6.694   8.837 -0.2312 -0.6738 -0.7162
  954MOL0     H28757   6.172   6.791   8.800  1.4398 -0.0975 -2.4881
  954MOL0     H28758   6.028   6.943   8.885 -1.8842  3.0699 -0.3963
  954MOL0     H28759   6.029   6.955   8.706 -1.0020  1.3078  0.3760
  954MOL0     H28760   5.799   6.889   8.707 -0.9508 -3.9811  1.4303
  954MOL0     H28761   5.827   7.010   8.842 -0.7570 -0.4246  0.0132
  954MOL0     H28762   5.836   6.706   8.915 -0.5936  0.0075  2.0716
  954MOL0     H28763   5.778   6.832   9.009 -3.1115 -0.3786  0.1403
  954MOL0     H28764   5.584   6.686   8.917 -0.6617  0.2645  0.9610
  954MOL0     H28765   5.642   6.751   8.760  3.2996 -0.0661  1.0674
  954MOL0     H28766   5.512   6.900   8.982 -0.3691 -0.9163  0.4524
  954MOL0     H28767   5.591   6.976   8.839 -1.1580  0.5177 -1.6165
  954MOL0     H28768   5.321   6.850   8.864  1.0159 -1.4348 -0.2424
  954MOL0     H28769   5.409   6.757   8.748 -0.0278  0.5169 -2.1872
  954MOL0     H28770   5.283   6.918   8.639  1.7401 -2.7349 -0.4298
  954MOL0     H28771   5.454   6.962   8.619 -0.6914 -2.3055 -0.0261
  954MOL0     H28772   6.253   6.571   8.757  0.2172 -1.2894  0.1718
  954MOL0     H28773   6.306   6.353   8.697 -0.0967  0.4876 -0.9118
  954MOL0     H28774   6.408   6.014   8.487  0.0856  1.8645  4.0904
  954MOL0     H28775   6.470   5.783   8.460 -0.0408 -0.0431  0.2856
  954MOL0     H28776   7.628   6.108   7.604 -1.9321 -1.1081  0.5466
  954MOL0     H28777   7.842   6.203   7.520 -1.5714  0.0562 -1.6743
  954MOL0     H28778   8.158   6.758   7.615 -0.1453 -1.1041 -1.5892
  954MOL0     H28779   8.385   6.763   7.658  0.9269  0.1465  0.6001
  954MOL0     H28780   8.733   6.503   7.763 -2.3751  0.9799  1.5244
  954MOL0     H28781   8.591   6.400   7.758  2.0927 -0.3211  1.9037
  954MOL0     H28782   8.629   6.378   7.511  2.0114  0.2371 -4.1032
  954MOL0     H28783   8.771   6.327   7.595  0.1359  0.1883 -1.8601
  954MOL0     H28784   8.891   6.542   7.541 -0.6658 -0.2769  1.3513
  954MOL0     H28785   8.744   6.611   7.478 -0.0745  0.2881 -0.1239
  954MOL0     H28786   8.724   6.419   7.307 -0.9570 -4.1403  2.5627
  954MOL0     H28787   8.868   6.354   7.378 -0.9630  0.4026  0.9195
  954MOL0     H28788   9.043   6.673   7.150  2.3082 -1.0531  1.0643
  954MOL0     H28789   8.420   6.342   7.613  0.0446 -0.6045  1.5901
  954MOL0     H28790   8.172   6.335   7.588 -2.9492  1.0802  0.0361
  955MOL0     O28791   3.609   4.452  10.690 -0.2921 -0.2098 -0.0921
  955MOL0     C28792   3.671   4.562  10.694 -0.1366  0.9683 -1.0998
  955MOL0     O28793   3.670   4.657  10.598  0.2517 -0.4055 -0.5467
  955MOL0     C28794   3.598   4.648  10.478  0.4660 -0.3741  0.5439
  955MOL0     C28795   3.456   4.614  10.469 -1.1851  0.9749 -0.4050
  955MOL0     C28796   3.395   4.592  10.343  0.2345  0.4919 -0.2779
  955MOL0     C28797   3.472   4.598  10.225  0.1651  0.0584  0.2560
  955MOL0     O28798   3.404   4.567  10.106 -0.0674  0.1870  0.5585
  955MOL0     C28799   3.495   4.557   9.988  0.0325 -0.3094 -0.5299
  955MOL0     C28800   3.418   4.537   9.858 -0.5993  0.6282 -0.1158
  955MOL0     C28801   3.302   4.641   9.829 -0.9797 -0.5424 -0.3148
  955MOL0     C28802   3.333   4.797   9.835 -0.5509 -0.8354  0.1492
  955MOL0     C28803   3.212   4.876   9.779  1.4790  0.3439  0.5657
  955MOL0     C28804   3.160   4.867   9.633  0.8460 -0.1350 -0.5629
  955MOL0     C28805   3.042   4.960   9.602  0.5526  0.3010 -0.1094
  955MOL0     C28806   2.968   4.932   9.472 -0.2545  0.4763 -0.0562
  955MOL0     N28807   2.841   5.014   9.462  0.2042  0.4839 -0.3815
  955MOL0     C28808   2.716   4.974   9.485 -0.1483  0.4223 -0.9383
  955MOL0     C28809   2.634   5.069   9.450  0.9833 -0.5708 -0.2429
  955MOL0     C28810   2.485   5.073   9.464 -0.3405 -0.3842 -0.2890
  955MOL0     C28811   2.417   4.958   9.388  0.7598  0.9771 -0.0398
  955MOL0     C28812   2.428   4.973   9.233  0.4996  1.0156 -0.2917
  955MOL0     C28813   2.368   4.859   9.155  0.8128  0.6608 -0.2722
  955MOL0     O28814   2.226   4.870   9.155 -0.5690  0.1449 -0.3542
  955MOL0     C28815   2.144   4.754   9.150  0.0711 -0.3898  0.5422
  955MOL0     C28816   2.185   4.619   9.166 -0.8021 -0.0603  0.5965
  955MOL0     C28817   2.083   4.516   9.154 -0.4476 -0.7454  0.7486
  955MOL0     C28818   2.134   4.378   9.167 -0.7151  0.3724  0.2258
  955MOL0     C28819   1.945   4.545   9.141 -0.5988 -0.0582 -0.9603
  955MOL0     C28820   1.836   4.451   9.163  0.0280 -0.1690 -0.5085
  955MOL0     O28821   1.712   4.500   9.126  0.1616  0.5542  0.3480
  955MOL0     C28822   1.602   4.423   9.123 -0.1107  1.1861 -0.9753
  955MOL0     C28823   1.508   4.434   9.024  0.2037 -0.5763 -0.3312
  955MOL0     C28824   1.389   4.361   9.027  0.3616  0.1507  0.5732
  955MOL0     C28825   1.352   4.285   9.140  0.4283  0.2162  0.8893
  955MOL0     O28826   1.235   4.208   9.156 -0.4445 -0.6145  0.3743
  955MOL0     C28827   1.126   4.238   9.061  0.2496  0.1795  0.0778
  955MOL0     C28828   1.000   4.169   9.144 -0.5183 -0.2157  0.3568
  955MOL0     C28829   1.018   4.018   9.130 -0.9538  0.0038  0.4826
  955MOL0     C28830   0.937   3.925   9.223  0.0558  0.2242 -0.5060
  955MOL0     C28831   0.861   3.815   9.135 -0.2598 -0.1562  0.2020
  955MOL0     C28832   0.760   3.734   9.219  0.4877 -0.5530  0.6577
  955MOL0     C28833   0.830   3.610   9.283 -1.2284 -0.0605  0.5310
  955MOL0     C28834   0.746   3.518   9.365 -0.2358  0.0818  0.9112
  955MOL0    Cl28835   0.631   3.429   9.259 -0.0247  0.2223 -0.6000
  955MOL0     C28836   1.434   4.308   9.250 -0.1669 -0.3732 -0.0975
  955MOL0     C28837   1.558   4.362   9.243 -0.2954  0.4285 -0.2198
  955MOL0     O28838   1.855   4.335   9.199 -0.0653  0.4907 -0.0193
  955MOL0     C28839   1.915   4.686   9.126  0.3792  0.0691  0.1902
  955MOL0     C28840   2.007   4.790   9.137 -0.9174 -0.7055  0.1982
  955MOL0     N28841   2.722   5.180   9.418 -0.2096 -0.7208  1.4929
  955MOL0     N28842   2.841   5.150   9.418 -0.4679  0.8278 -0.3914
  955MOL0     C28843   3.614   4.623  10.233  0.2488 -0.7727 -0.1490
  955MOL0     C28844   3.668   4.646  10.360 -0.1503  0.2247 -1.1138
  955MOL0     C28845   3.764   4.577  10.808 -0.4303  0.1113 -0.4147
  955MOL0     C28846   3.777   4.478  10.906 -0.2201  0.2338 -0.3078
  955MOL0     C28847   3.878   4.488  10.998  0.6968 -0.0986  0.3044
  955MOL0     C28848   3.960   4.604  11.011 -0.3934 -0.2041 -0.3844
  955MOL0     O28849   4.048   4.610  11.117 -0.5624  0.1930 -0.2247
  955MOL0     C28850   4.150   4.721  11.130 -0.2980  1.0267 -0.6637
  955MOL0     C28851   4.270   4.709  11.044 -0.3392  0.2952  0.5780
  955MOL0     C28852   4.344   4.595  11.111 -0.2669 -0.0275 -1.1314
  955MOL0     C28853   4.477   4.567  11.045 -0.5828 -0.1819 -0.0517
  955MOL0     C28854   4.583   4.661  11.088  0.1204  0.9079  1.0143
  955MOL0     C28855   4.670   4.748  11.117  0.3682 -0.3381  0.5335
  955MOL0     C28856   3.946   4.703  10.912 -0.2042  0.2712 -0.0593
  955MOL0     C28857   3.858   4.681  10.802 -0.0461  0.4917  0.4036
  955MOL0     H28858   3.392   4.627  10.556 -0.9268 -0.4651  0.0395
  955MOL0     H28859   3.289   4.571  10.330  0.7868 -1.4031 -2.4002
  955MOL0     H28860   3.541   4.656   9.976  1.6749 -0.5476  2.7476
  955MOL0     H28861   3.570   4.478   9.997  1.0602  0.8739  2.3210
  955MOL0     H28862   3.491   4.544   9.777 -1.9204 -3.5176 -1.9534
  955MOL0     H28863   3.381   4.435   9.844 -0.7379  0.3743  1.8117
  955MOL0     H28864   3.254   4.615   9.734 -2.9434 -1.1114  0.7946
  955MOL0     H28865   3.235   4.615   9.911  1.7207 -2.6150  1.4074
  955MOL0     H28866   3.366   4.825   9.935  0.8535 -2.1269  0.0779
  955MOL0     H28867   3.420   4.815   9.772  0.4345  2.4405  2.1874
  955MOL0     H28868   3.127   4.841   9.839  0.6938 -2.6572 -2.0022
  955MOL0     H28869   3.228   4.982   9.802 -3.0688  1.3854 -0.0446
  955MOL0     H28870   3.244   4.893   9.567 -1.2424  1.8986 -2.5884
  955MOL0     H28871   3.135   4.762   9.617  0.5918 -0.6245  2.4316
  955MOL0     H28872   2.968   4.949   9.682  2.1913 -0.8784  1.3159
  955MOL0     H28873   3.083   5.061   9.617  4.1802 -1.0625 -0.0365
  955MOL0     H28874   2.950   4.825   9.456  0.3177  0.4675 -0.7157
  955MOL0     H28875   3.039   4.953   9.391  1.6535 -1.7417  0.9196
  955MOL0     H28876   2.688   4.872   9.511 -0.1476  0.8627  0.8824
  955MOL0     H28877   2.451   5.056   9.566 -0.0184 -3.0899 -0.5540
  955MOL0     H28878   2.448   5.167   9.422 -0.9935 -0.8851 -0.8608
  955MOL0     H28879   2.312   4.949   9.415  0.1998 -2.7540 -2.7110
  955MOL0     H28880   2.466   4.866   9.422  0.8074  0.9171 -0.2678
  955MOL0     H28881   2.533   4.982   9.203  0.2564  2.4230 -0.8289
  955MOL0     H28882   2.381   5.070   9.214  1.4257  2.0712  2.3495
  955MOL0     H28883   2.403   4.766   9.201 -1.6413  0.5213  1.5180
  955MOL0     H28884   2.401   4.871   9.051  1.4845  1.6171  0.0547
  955MOL0     H28885   2.286   4.588   9.193 -0.7745 -0.9470 -0.4494
  955MOL0     H28886   2.087   4.290   9.123 -0.3084 -0.4216  1.3293
  955MOL0     H28887   2.242   4.376   9.148 -0.7727  1.6423 -0.3513
  955MOL0     H28888   2.125   4.354   9.273 -1.6886  0.0804  0.0811
  955MOL0     H28889   1.521   4.499   8.939  4.6386  1.3180  1.4766
  955MOL0     H28890   1.331   4.366   8.936  1.1414  0.6959  0.0943
  955MOL0     H28891   1.119   4.347   9.048  1.5709  0.1773 -0.7944
  955MOL0     H28892   1.146   4.190   8.965  2.2278 -1.5813  1.3057
  955MOL0     H28893   1.001   4.206   9.247  0.1587  0.6732  0.0480
  955MOL0     H28894   0.909   4.194   9.089 -0.4888 -2.2307 -0.7093
  955MOL0     H28895   1.124   3.993   9.134 -0.8796 -0.2651 -1.9457
  955MOL0     H28896   1.001   3.998   9.024  0.2176 -1.0457  0.4691
  955MOL0     H28897   1.000   3.879   9.299 -0.4025 -0.4306 -0.5223
  955MOL0     H28898   0.862   3.991   9.267 -0.0297 -0.1862 -0.0275
  955MOL0     H28899   0.935   3.752   9.086  0.7619 -1.4827  3.1995
  955MOL0     H28900   0.801   3.864   9.058 -1.0404 -3.0887 -1.2038
  955MOL0     H28901   0.706   3.797   9.291 -2.7939 -2.6369  0.2259
  955MOL0     H28902   0.683   3.688   9.156  0.8576  2.1930 -2.0388
  955MOL0     H28903   0.904   3.642   9.357 -0.9917 -0.0224  0.2794
  955MOL0     H28904   0.886   3.552   9.209  0.4994  1.7066  0.3700
  955MOL0     H28905   0.684   3.577   9.433 -4.1678 -3.5037  0.8784
  955MOL0     H28906   0.807   3.444   9.418  2.5029  2.6621  1.6084
  955MOL0     H28907   1.408   4.255   9.341 -0.0715 -0.0852  0.0987
  955MOL0     H28908   1.620   4.327   9.325 -1.2542 -1.7134 -0.3501
  955MOL0     H28909   1.810   4.706   9.108 -0.0396 -1.0634  1.2691
  955MOL0     H28910   1.969   4.890   9.118  2.4470  0.9278  1.3270
  955MOL0     H28911   3.675   4.631  10.144  1.9442 -4.8998  0.4048
  955MOL0     H28912   3.775   4.656  10.377  0.1134  0.8728 -2.9570
  955MOL0     H28913   3.718   4.388  10.896  1.8011 -1.0055 -2.0139
  955MOL0     H28914   3.877   4.412  11.076 -2.4900  0.6595  1.1371
  955MOL0     H28915   4.101   4.818  11.114 -0.7052  0.7718 -1.0055
  955MOL0     H28916   4.179   4.738  11.234 -1.1135 -0.4444 -0.1682
  955MOL0     H28917   4.318   4.807  11.055 -2.1851  1.1480  1.5045
  955MOL0     H28918   4.243   4.695  10.939  2.5621  2.6561 -0.6422
  955MOL0     H28919   4.279   4.509  11.128 -1.8855  1.4539  0.5921
  955MOL0     H28920   4.371   4.623  11.213 -0.0642 -3.1820 -0.2442
  955MOL0     H28921   4.461   4.570  10.937  1.4266 -0.2765 -0.3954
  955MOL0     H28922   4.508   4.464  11.069  0.7082  0.0829 -0.5231
  955MOL0     H28923   4.729   4.835  11.139 -0.2432  0.2893 -0.2368
  955MOL0     H28924   4.001   4.796  10.915  0.1942  0.0476 -0.4617
  955MOL0     H28925   3.854   4.757  10.725 -3.1370  1.8192  1.7014
  956MOL0     O28926   4.815   9.518   8.670 -0.6235 -0.2794  0.4928
  956MOL0     C28927   4.893   9.502   8.766  0.1497 -0.1472 -0.3723
  956MOL0     O28928   4.848   9.464   8.892  0.2504  0.0317 -0.2718
  956MOL0     C28929   4.731   9.517   8.941  0.5715  1.1570 -0.1809
  956MOL0     C28930   4.652   9.431   9.016  0.3849  0.1434 -1.3423
  956MOL0     C28931   4.526   9.463   9.074 -0.2449 -0.1611  0.0808
  956MOL0     C28932   4.480   9.585   9.038  0.3011 -0.5531  0.0349
  956MOL0     O28933   4.359   9.631   9.090 -0.1894 -0.5944 -0.3445
  956MOL0     C28934   4.250   9.549   9.127  0.2088 -0.1517 -0.4655
  956MOL0     C28935   4.172   9.515   9.006  0.4734 -0.3285 -0.8916
  956MOL0     C28936   4.025   9.476   9.041  0.0531 -0.0605 -0.0010
  956MOL0     C28937   3.941   9.428   8.923  0.7560 -0.8978  1.1150
  956MOL0     C28938   3.805   9.370   8.950 -0.2611  0.3984 -1.6632
  956MOL0     C28939   3.697   9.481   8.969 -0.0676  0.1245 -0.4177
  956MOL0     C28940   3.570   9.431   9.042  0.5063  0.0732  0.1018
  956MOL0     C28941   3.484   9.343   8.943 -0.1365 -0.0312 -0.0232
  956MOL0     N28942   3.360   9.282   8.990  0.4694 -0.9457  0.2696
  956MOL0     C28943   3.245   9.294   8.910  0.4422 -0.6563  0.0080
  956MOL0     C28944   3.148   9.288   9.003 -0.1139  0.4394  0.1137
  956MOL0     C28945   3.004   9.254   8.959 -0.9660  0.7009 -0.2981
  956MOL0     C28946   2.933   9.169   9.072  0.2512 -1.0762 -0.9087
  956MOL0     C28947   2.790   9.128   9.031 -1.0405  0.6469 -0.9085
  956MOL0     C28948   2.680   9.215   9.093  0.5536  0.6021  0.5929
  956MOL0     O28949   2.553   9.154   9.049  0.2968  0.2267  0.1923
  956MOL0     C28950   2.440   9.185   9.112  0.4319  0.3827 -0.5419
  956MOL0     C28951   2.331   9.145   9.047 -0.0100  0.2869 -0.4154
  956MOL0     C28952   2.198   9.175   9.080 -0.0540  0.2314  0.4275
  956MOL0     C28953   2.093   9.116   8.992  0.8120  0.0832 -0.0331
  956MOL0     C28954   2.178   9.244   9.205  0.6271 -0.0441  0.1107
  956MOL0     C28955   2.047   9.265   9.275  0.4413 -0.5770  0.0015
  956MOL0     O28956   2.033   9.350   9.384  0.8455 -0.2218  0.2358
  956MOL0     C28957   1.907   9.368   9.440 -0.1973 -0.2551 -0.5706
  956MOL0     C28958   1.877   9.291   9.551  1.6468 -0.8209 -0.6076
  956MOL0     C28959   1.756   9.326   9.625 -1.1973 -0.3806 -0.1340
  956MOL0     C28960   1.668   9.420   9.578 -0.0046 -0.2109 -0.1600
  956MOL0     O28961   1.552   9.449   9.647 -0.0716 -0.0130  0.3652
  956MOL0     C28962   1.484   9.346   9.725 -0.2813 -0.8551  0.1485
  956MOL0     C28963   1.363   9.426   9.791 -0.3311  0.2578  0.1181
  956MOL0     C28964   1.250   9.324   9.841  0.3113 -0.0313  0.0696
  956MOL0     C28965   1.148   9.422   9.921 -0.3957 -0.0364  0.5456
  956MOL0     C28966   1.053   9.330   9.995  1.4472 -0.1921 -0.0518
  956MOL0     C28967   0.983   9.406  10.108 -1.7139  0.3350 -0.2540
  956MOL0     C28968   0.862   9.323  10.153 -0.1297 -0.6088 -0.5510
  956MOL0     C28969   0.780   9.405  10.252 -1.3189  0.4819 -0.4645
  956MOL0    Cl28970   0.715   9.551  10.180  0.2122 -0.0460  0.5984
  956MOL0     C28971   1.691   9.487   9.456  0.2561 -0.4572 -0.2099
  956MOL0     C28972   1.821   9.466   9.399 -0.7773  0.1396 -0.2448
  956MOL0     O28973   1.954   9.203   9.228 -0.2221 -0.0516  0.4609
  956MOL0     C28974   2.290   9.274   9.276 -0.7847  0.1150  0.2181
  956MOL0     C28975   2.421   9.242   9.236 -0.0405 -0.2412  0.4285
  956MOL0     N28976   3.202   9.259   9.125  0.0248 -0.7290  0.1126
  956MOL0     N28977   3.332   9.262   9.122  0.7666  0.0041  0.3578
  956MOL0     C28978   4.547   9.673   8.959  0.0351  0.3086 -0.1441
  956MOL0     C28979   4.680   9.641   8.910 -0.0433 -0.8518  0.7637
  956MOL0     C28980   5.037   9.483   8.750 -0.8173 -0.1474  0.4977
  956MOL0     C28981   5.100   9.531   8.633 -1.1524  0.0707 -0.5744
  956MOL0     C28982   5.235   9.522   8.623 -0.1194 -1.2114  0.2272
  956MOL0     C28983   5.312   9.461   8.721 -0.7251  0.2016  0.1514
  956MOL0     O28984   5.454   9.449   8.698  0.2784  0.3809  0.3983
  956MOL0     C28985   5.530   9.495   8.810  0.1812 -0.5804 -0.5706
  956MOL0     C28986   5.658   9.575   8.767 -0.3603 -0.2971 -0.7298
  956MOL0     C28987   5.791   9.488   8.760  0.9095 -0.3403 -0.8926
  956MOL0     C28988   5.783   9.401   8.634 -0.2326 -0.7914 -0.6000
  956MOL0     C28989   5.905   9.325   8.622  0.4779 -0.0133  0.5922
  956MOL0     C28990   6.012   9.272   8.599 -0.3760 -0.3580 -0.4981
  956MOL0     C28991   5.252   9.407   8.838  0.0731 -0.3804  0.3824
  956MOL0     C28992   5.115   9.429   8.855 -0.7448  0.1175 -0.4725
  956MOL0     H28993   4.682   9.334   9.055 -2.0285  0.1632  0.8051
  956MOL0     H28994   4.483   9.392   9.144  0.0840  1.7349  2.3374
  956MOL0     H28995   4.278   9.470   9.197 -3.5868 -1.6121 -0.3372
  956MOL0     H28996   4.189   9.613   9.192  2.1917  1.6093 -0.2388
  956MOL0     H28997   4.171   9.606   8.946  0.2859 -0.7530 -1.5478
  956MOL0     H28998   4.221   9.438   8.945  3.8153  1.4057 -0.6570
  956MOL0     H28999   4.039   9.395   9.112  1.9826 -0.8930 -1.2223
  956MOL0     H29000   3.983   9.570   9.077 -2.8709 -0.5161 -1.8572
  956MOL0     H29001   3.936   9.513   8.854 -1.4034 -1.4809  0.4840
  956MOL0     H29002   3.989   9.341   8.877 -0.3411 -0.0393 -1.9020
  956MOL0     H29003   3.769   9.292   8.883 -3.4934 -0.0353  0.3709
  956MOL0     H29004   3.807   9.320   9.047  0.5956  1.5142 -1.0769
  956MOL0     H29005   3.726   9.558   9.041  0.8858  1.6229 -2.3092
  956MOL0     H29006   3.664   9.530   8.877  1.1732 -0.7079 -1.3323
  956MOL0     H29007   3.597   9.377   9.133  0.7272 -0.7151 -0.4243
  956MOL0     H29008   3.508   9.512   9.080  0.4635 -0.3220  0.8758
  956MOL0     H29009   3.549   9.261   8.910 -0.5771  0.0980 -1.2856
  956MOL0     H29010   3.464   9.402   8.853  1.7028  1.3957  0.4469
  956MOL0     H29011   3.240   9.310   8.803  0.9916 -0.7476 -0.0347
  956MOL0     H29012   2.958   9.348   8.929 -2.1898  0.4634  0.7373
  956MOL0     H29013   3.011   9.192   8.870 -1.9550 -1.8973  1.3137
  956MOL0     H29014   2.918   9.216   9.169  1.8467 -2.9022  0.2932
  956MOL0     H29015   2.990   9.078   9.091  1.0008 -0.2886  0.8122
  956MOL0     H29016   2.780   9.026   9.069 -0.3072 -0.0132 -2.4020
  956MOL0     H29017   2.785   9.131   8.921  1.4912  4.1250 -1.0703
  956MOL0     H29018   2.678   9.314   9.046  1.0562 -0.6244 -2.2277
  956MOL0     H29019   2.690   9.228   9.201  0.2970  2.6942  0.4128
  956MOL0     H29020   2.354   9.089   8.956 -1.2519  0.4537 -0.8539
  956MOL0     H29021   2.051   9.019   9.020 -3.0559  1.3157 -0.9356
  956MOL0     H29022   2.014   9.188   8.973 -0.7742 -1.7810 -0.8746
  956MOL0     H29023   2.126   9.095   8.889 -2.1144  1.3489 -1.3215
  956MOL0     H29024   1.934   9.209   9.593  1.8437  0.7849  2.5923
  956MOL0     H29025   1.752   9.271   9.718  0.3361  1.2339  0.9520
  956MOL0     H29026   1.451   9.259   9.667 -0.9973  0.4892 -1.5544
  956MOL0     H29027   1.547   9.320   9.810 -0.5657  2.4174  1.4924
  956MOL0     H29028   1.407   9.482   9.875 -1.9188  0.5977  0.7502
  956MOL0     H29029   1.314   9.506   9.735 -0.1290  1.7333  1.9280
  956MOL0     H29030   1.290   9.245   9.906 -1.0729 -0.6597  0.1764
  956MOL0     H29031   1.199   9.278   9.756 -1.4983  0.6116  0.7675
  956MOL0     H29032   1.205   9.479   9.995 -0.5073  0.9197 -0.0851
  956MOL0     H29033   1.094   9.498   9.865 -0.7912 -0.9604 -0.3652
  956MOL0     H29034   1.108   9.247  10.038 -0.5553 -1.5260  0.0557
  956MOL0     H29035   0.975   9.300   9.923 -0.6207  0.8872  1.6097
  956MOL0     H29036   1.055   9.420  10.189 -0.8355  0.4154 -1.0304
  956MOL0     H29037   0.947   9.500  10.064 -5.2601 -0.4948  0.5832
  956MOL0     H29038   0.893   9.226  10.194  0.8205  0.2591  0.9209
  956MOL0     H29039   0.800   9.305  10.066 -1.5319 -0.3477  0.3627
  956MOL0     H29040   0.842   9.423  10.340 -0.0454 -0.7471 -1.0747
  956MOL0     H29041   0.703   9.334  10.283  1.1490 -2.2632 -0.1431
  956MOL0     H29042   1.632   9.560   9.402  0.5595  0.8068  1.1101
  956MOL0     H29043   1.861   9.528   9.320 -1.0768  2.7798  1.5474
  956MOL0     H29044   2.290   9.334   9.367 -0.0090  0.5564 -0.0527
  956MOL0     H29045   2.503   9.274   9.299  3.2366 -2.5473 -2.2615
  956MOL0     H29046   4.502   9.769   8.935 -0.8806  0.4536  1.9300
  956MOL0     H29047   4.732   9.708   8.841 -0.6646  0.6136  1.6587
  956MOL0     H29048   5.024   9.574   8.569 -0.0845 -2.8562 -4.1700
  956MOL0     H29049   5.280   9.568   8.536 -1.9909 -0.0397 -0.1713
  956MOL0     H29050   5.462   9.572   8.849  0.4010  0.6101 -2.4046
  956MOL0     H29051   5.548   9.416   8.883  3.0087  0.4181 -0.0996
  956MOL0     H29052   5.671   9.658   8.837  1.0827 -0.0774 -1.2276
  956MOL0     H29053   5.638   9.614   8.667 -0.0609 -0.6473 -0.9290
  956MOL0     H29054   5.791   9.431   8.854 -1.6805  2.8355  1.2717
  956MOL0     H29055   5.872   9.560   8.748 -0.8683  1.7799 -0.7982
  956MOL0     H29056   5.777   9.466   8.546  0.2949  0.6182  0.3447
  956MOL0     H29057   5.695   9.337   8.630  0.4072 -1.6817 -4.7925
  956MOL0     H29058   6.094   9.203   8.592 -3.2858 -4.3128  1.1210
  956MOL0     H29059   5.311   9.356   8.913  0.9485  1.7580  1.2374
  956MOL0     H29060   5.067   9.408   8.950 -1.1467 -0.8488 -0.8747
  957MOL0     O29061   2.514   2.116   3.005  0.4250 -0.3660  0.4832
  957MOL0     C29062   2.579   2.074   3.101 -0.0886  0.2801  0.2630
  957MOL0     O29063   2.538   1.970   3.171 -0.0910 -0.0743  0.5620
  957MOL0     C29064   2.413   1.921   3.167  1.2277  0.2076 -0.5041
  957MOL0     C29065   2.321   1.944   3.270  0.3797  0.0865  0.0357
  957MOL0     C29066   2.187   1.927   3.249 -0.1736  0.4846 -0.6039
  957MOL0     C29067   2.137   1.861   3.138 -0.0172 -1.4976 -0.6703
  957MOL0     O29068   2.006   1.836   3.129 -0.1582  0.0106 -0.2153
  957MOL0     C29069   1.948   1.709   3.153  0.1372  0.5433  0.0476
  957MOL0     C29070   1.796   1.705   3.171  0.2455  0.0917  0.6021
  957MOL0     C29071   1.718   1.724   3.043 -0.1133 -1.0151  0.2089
  957MOL0     C29072   1.729   1.852   2.963  0.4266 -0.3940  0.3099
  957MOL0     C29073   1.675   1.984   3.023  1.1178  0.0384  0.8309
  957MOL0     C29074   1.552   1.972   3.119 -0.3623 -0.9271 -0.1772
  957MOL0     C29075   1.507   2.097   3.192  0.0417 -0.7995 -0.8302
  957MOL0     C29076   1.427   2.186   3.086  0.4413 -0.2170 -0.4650
  957MOL0     N29077   1.323   2.275   3.140 -0.6202 -0.1686  0.6783
  957MOL0     C29078   1.239   2.227   3.240 -0.1890  0.0408  0.3436
  957MOL0     C29079   1.119   2.285   3.212 -0.2381  0.9990 -0.5832
  957MOL0     C29080   1.000   2.281   3.310  0.8633  0.1827  0.1489
  957MOL0     C29081   0.869   2.313   3.242  0.0105 -0.7048 -0.0783
  957MOL0     C29082   0.756   2.346   3.343 -0.4322 -0.4775  0.4244
  957MOL0     C29083   0.646   2.256   3.355 -0.6082  0.8084  0.2131
  957MOL0     O29084   0.584   2.226   3.229 -0.9013  0.0376 -0.0285
  957MOL0     C29085   0.464   2.160   3.237  0.0339 -1.3789  0.1132
  957MOL0     C29086   0.419   2.087   3.346 -0.4391 -0.8259 -0.3463
  957MOL0     C29087   0.299   2.020   3.356 -0.9823 -0.5218  0.0859
  957MOL0     C29088   0.271   1.936   3.475 -0.1058 -1.3029 -0.0135
  957MOL0     C29089   0.204   2.017   3.249 -0.0001 -0.2692  0.3095
  957MOL0     C29090   0.071   1.940   3.251 -0.9530  0.8268 -0.7781
  957MOL0     O29091   0.031   1.887   3.131 -0.5377 -0.4451 -0.2984
  957MOL0     C29092  -0.107   1.852   3.113  0.7224 -0.1239 -0.8611
  957MOL0     C29093  -0.199   1.950   3.107 -0.4898  0.0116  0.5705
  957MOL0     C29094  -0.334   1.920   3.073  0.3302  0.8982 -0.1721
  957MOL0     C29095  -0.378   1.783   3.084  0.5937 -0.8707 -0.4543
  957MOL0     O29096  -0.502   1.732   3.073 -0.0446  0.1354  0.2211
  957MOL0     C29097  -0.618   1.812   3.044 -0.3892  0.5027 -0.0068
  957MOL0     C29098  -0.662   1.891   3.171 -0.2282  0.0529  0.7201
  957MOL0     C29099  -0.752   2.002   3.119  0.0992 -0.2453 -0.8568
  957MOL0     C29100  -0.832   2.083   3.222 -0.1020 -0.3265 -0.0148
  957MOL0     C29101  -0.953   2.169   3.166 -0.1213  0.3594  0.3844
  957MOL0     C29102  -1.022   2.255   3.262 -0.3678 -0.8550 -0.0535
  957MOL0     C29103  -0.942   2.382   3.277  0.2574 -0.4973 -0.0493
  957MOL0     C29104  -0.989   2.493   3.185  0.3579 -0.0388  0.1942
  957MOL0    Cl29105  -0.998   2.457   3.012  0.0746 -0.4383 -0.3371
  957MOL0     C29106  -0.283   1.688   3.102 -0.7976  0.5610  0.3390
  957MOL0     C29107  -0.149   1.717   3.110 -0.3996  0.1843  0.8722
  957MOL0     O29108   0.011   1.933   3.361 -0.8715 -0.2842  0.3029
  957MOL0     C29109   0.251   2.086   3.129 -0.1629 -0.1652 -0.3437
  957MOL0     C29110   0.373   2.157   3.132 -0.3629  0.0036 -0.7925
  957MOL0     N29111   1.124   2.371   3.102 -0.2377  0.5911 -0.1792
  957MOL0     N29112   1.247   2.361   3.063 -0.4322  0.2987 -0.7815
  957MOL0     C29113   2.231   1.817   3.047  0.0128 -0.5656  0.5270
  957MOL0     C29114   2.367   1.850   3.057  0.6478 -0.4440 -0.3509
  957MOL0     C29115   2.721   2.118   3.123  0.7453  0.0770 -0.4441
  957MOL0     C29116   2.792   2.074   3.237  0.7793 -0.0909  1.0917
  957MOL0     C29117   2.929   2.095   3.240 -0.5930 -1.1009  0.0730
  957MOL0     C29118   2.989   2.176   3.136  0.2070 -0.5118 -1.0446
  957MOL0     O29119   3.122   2.209   3.140 -0.4569 -0.3632 -0.3500
  957MOL0     C29120   3.194   2.110   3.196 -0.8630  1.0481  0.3759
  957MOL0     C29121   3.350   2.123   3.171 -0.4311  0.5669  0.4963
  957MOL0     C29122   3.392   2.069   3.034  0.1599  0.6596 -0.2139
  957MOL0     C29123   3.536   2.019   3.034 -0.1234 -0.4614 -0.4770
  957MOL0     C29124   3.558   1.900   3.117  1.1220 -0.2431 -0.6567
  957MOL0     C29125   3.572   1.799   3.180  0.1079 -0.2234  0.2415
  957MOL0     C29126   2.911   2.226   3.028 -0.1076 -1.3082  0.2684
  957MOL0     C29127   2.778   2.196   3.022 -0.2587 -0.1181 -0.1540
  957MOL0     H29128   2.352   1.983   3.366  1.1535  0.8208 -0.4971
  957MOL0     H29129   2.123   1.965   3.328  0.6928  1.3095 -0.2810
  957MOL0     H29130   1.980   1.651   3.066 -0.5525 -0.5875  0.5289
  957MOL0     H29131   1.989   1.664   3.245  0.2897 -0.4585 -0.4948
  957MOL0     H29132   1.765   1.614   3.222  1.3580 -0.2990  0.6173
  957MOL0     H29133   1.764   1.787   3.236 -1.2492 -0.2786  0.3535
  957MOL0     H29134   1.758   1.643   2.981  2.6075  1.7862 -2.0374
  957MOL0     H29135   1.611   1.715   3.066 -0.1769  0.1036  0.4094
  957MOL0     H29136   1.832   1.873   2.936 -0.2450  1.2596 -1.1528
  957MOL0     H29137   1.672   1.851   2.869 -1.6263 -0.9519  1.4905
  957MOL0     H29138   1.759   2.036   3.070  2.7938 -1.3059 -0.5264
  957MOL0     H29139   1.636   2.044   2.939  0.4823  0.2978  1.3045
  957MOL0     H29140   1.470   1.931   3.058 -0.1433  0.9988 -1.8610
  957MOL0     H29141   1.566   1.901   3.201 -3.4551 -3.2033 -1.4033
  957MOL0     H29142   1.455   2.059   3.281  3.4065  1.1695  2.2656
  957MOL0     H29143   1.590   2.156   3.231 -2.1266  0.5615  2.1902
  957MOL0     H29144   1.386   2.122   3.007  1.1719 -1.7542  0.3511
  957MOL0     H29145   1.499   2.254   3.039  0.5190  2.0991  2.6706
  957MOL0     H29146   1.270   2.158   3.318  3.3945  0.1662 -0.8091
  957MOL0     H29147   1.004   2.188   3.369 -0.2054 -0.6136 -0.9773
  957MOL0     H29148   1.029   2.362   3.377  1.6990  1.2734 -1.4976
  957MOL0     H29149   0.844   2.226   3.181  0.7083 -0.8298 -0.2035
  957MOL0     H29150   0.879   2.392   3.167 -1.5979 -2.4669 -2.2484
  957MOL0     H29151   0.706   2.436   3.306 -1.4923 -1.7510 -1.3817
  957MOL0     H29152   0.810   2.360   3.437 -1.9226  1.7636  1.0486
  957MOL0     H29153   0.585   2.294   3.436 -0.2333  0.5076  0.6437
  957MOL0     H29154   0.688   2.161   3.389 -0.0268 -0.5891 -3.8075
  957MOL0     H29155   0.494   2.086   3.425 -1.3874 -0.1301  0.5851
  957MOL0     H29156   0.363   1.935   3.534 -1.1423  0.6570  1.8056
  957MOL0     H29157   0.210   2.000   3.540  2.4765 -0.8795  2.1777
  957MOL0     H29158   0.231   1.836   3.456  0.4387 -1.0264 -3.0837
  957MOL0     H29159  -0.160   2.050   3.125 -2.1220  0.6332  0.8861
  957MOL0     H29160  -0.399   2.006   3.064  0.0196  0.7873  0.8694
  957MOL0     H29161  -0.582   1.870   2.958  2.9878  2.1347  2.2796
  957MOL0     H29162  -0.704   1.747   3.025 -1.4875  1.8906  0.0844
  957MOL0     H29163  -0.706   1.831   3.251  3.1644  1.1772  3.7429
  957MOL0     H29164  -0.575   1.933   3.223  1.1174 -1.1747 -0.4523
  957MOL0     H29165  -0.831   1.962   3.054  0.3842  1.0733 -2.0564
  957MOL0     H29166  -0.690   2.072   3.062 -0.5478  0.7667 -0.3539
  957MOL0     H29167  -0.868   2.012   3.297  2.2511  0.0519  1.6048
  957MOL0     H29168  -0.758   2.143   3.277  0.7641 -0.5993 -0.8505
  957MOL0     H29169  -1.022   2.094   3.124  0.6410  0.4778 -1.1497
  957MOL0     H29170  -0.915   2.222   3.079 -1.0900 -0.1698 -0.3813
  957MOL0     H29171  -1.124   2.285   3.236 -0.4726  0.3717  1.5964
  957MOL0     H29172  -1.015   2.210   3.361 -1.2617 -0.0196  0.4133
  957MOL0     H29173  -0.834   2.362   3.280  0.5358  0.4046  5.1723
  957MOL0     H29174  -0.957   2.423   3.377  0.9459  0.6619 -0.4047
  957MOL0     H29175  -0.916   2.572   3.202 -0.2160  0.7016 -0.6893
  957MOL0     H29176  -1.088   2.531   3.214  1.2990  0.8370  2.5064
  957MOL0     H29177  -0.312   1.585   3.117 -0.2463  0.5387  1.4577
  957MOL0     H29178  -0.083   1.633   3.129 -2.6471 -2.5246 -2.3479
  957MOL0     H29179   0.198   2.100   3.035 -1.1978  0.0085  0.2482
  957MOL0     H29180   0.412   2.215   3.049 -0.6061  0.3219 -0.6886
  957MOL0     H29181   2.185   1.753   2.972  0.4340 -1.5666  1.1006
  957MOL0     H29182   2.432   1.826   2.974  0.0708  1.1312 -1.3050
  957MOL0     H29183   2.738   2.022   3.315  1.3389  0.7679  2.0705
  957MOL0     H29184   2.978   2.056   3.329  0.9276 -0.6899 -0.5480
  957MOL0     H29185   3.183   2.102   3.305 -1.3001  0.7134  0.3129
  957MOL0     H29186   3.164   2.018   3.144  1.7775  0.9396 -1.1093
  957MOL0     H29187   3.407   2.080   3.254  0.6406 -1.8003 -1.3507
  957MOL0     H29188   3.378   2.228   3.170  2.1234  0.0646  3.6134
  957MOL0     H29189   3.383   2.151   2.962 -0.2509 -0.5220 -1.5639
  957MOL0     H29190   3.315   1.995   3.009  2.6973 -2.8190  1.3711
  957MOL0     H29191   3.610   2.097   3.054  5.7179 -4.9844 -1.6634
  957MOL0     H29192   3.554   1.995   2.929  1.3941  2.8994 -1.1272
  957MOL0     H29193   3.601   1.708   3.229  2.0251  1.0931  1.7298
  957MOL0     H29194   2.968   2.282   2.954 -0.5612  0.5996  1.3123
  957MOL0     H29195   2.719   2.223   2.936  0.9953  0.1273 -0.9721
  958MOL0     O29196   6.859   8.005   1.259 -0.0316  0.2149  0.6581
  958MOL0     C29197   6.987   7.974   1.241  0.3452 -0.2998  0.9791
  958MOL0     O29198   7.072   8.048   1.172  0.1196  0.1067 -0.0076
  958MOL0     C29199   7.019   8.155   1.095 -0.7270  0.3039  0.4932
  958MOL0     C29200   6.930   8.133   0.987  0.1101 -0.5837  0.3869
  958MOL0     C29201   6.895   8.238   0.901  1.2970  0.4079 -0.0219
  958MOL0     C29202   6.933   8.372   0.932  0.5233 -0.3144 -0.4969
  958MOL0     O29203   6.902   8.487   0.857 -0.3036  0.2893  0.0747
  958MOL0     C29204   6.771   8.487   0.805  0.5650  0.5143  0.4771
  958MOL0     C29205   6.662   8.492   0.915 -0.0815 -0.2534  0.5768
  958MOL0     C29206   6.553   8.582   0.866  1.0260  0.3644 -0.2356
  958MOL0     C29207   6.481   8.537   0.743  1.3417  0.1362  0.2268
  958MOL0     C29208   6.353   8.625   0.717 -0.4271 -1.1034  0.5160
  958MOL0     C29209   6.309   8.605   0.568 -0.3092 -0.3180  0.9622
  958MOL0     C29210   6.188   8.695   0.531  0.1431 -0.1536  0.4263
  958MOL0     C29211   6.130   8.661   0.399  0.6209  0.2680  0.2434
  958MOL0     N29212   6.214   8.696   0.283  0.7229 -0.1596  0.3721
  958MOL0     C29213   6.201   8.817   0.222 -0.1216 -0.0984 -0.3253
  958MOL0     C29214   6.279   8.811   0.115  0.8115 -0.4457  0.1051
  958MOL0     C29215   6.308   8.913   0.002 -0.3301 -0.6288 -0.0276
  958MOL0     C29216   6.250   9.052   0.015  0.5331 -1.4440  0.2164
  958MOL0     C29217   6.310   9.148   0.121  0.0448  0.2073 -0.3893
  958MOL0     C29218   6.453   9.188   0.076  0.2455  0.3434 -0.3298
  958MOL0     O29219   6.448   9.252  -0.053 -0.3199  0.0092 -0.1040
  958MOL0     C29220   6.548   9.343  -0.072 -0.1945 -0.0151 -0.3112
  958MOL0     C29221   6.683   9.299  -0.066 -0.0555 -0.8701  0.6536
  958MOL0     C29222   6.786   9.393  -0.091 -0.3775  1.4201  0.2113
  958MOL0     C29223   6.926   9.354  -0.058  0.1999  0.3778 -0.8219
  958MOL0     C29224   6.751   9.530  -0.127  0.5040  0.4607 -0.1823
  958MOL0     C29225   6.848   9.642  -0.137 -0.6915 -0.5163 -0.7280
  958MOL0     O29226   6.949   9.634  -0.036  0.3789 -0.1054 -0.1018
  958MOL0     C29227   7.052   9.729  -0.044  0.1222 -0.6424  0.1595
  958MOL0     C29228   7.097   9.786  -0.156 -0.2686  1.0735 -0.4269
  958MOL0     C29229   7.219   9.853  -0.155 -0.2134  0.5987  0.2710
  958MOL0     C29230   7.287   9.893  -0.040 -0.0544 -0.6113 -0.9334
  958MOL0     O29231   7.392   9.978  -0.034 -0.1767  0.6222 -0.3217
  958MOL0     C29232   7.468  10.038  -0.137 -0.3911 -0.0426 -0.8748
  958MOL0     C29233   7.510  10.186  -0.107  0.0259 -0.1278 -0.6726
  958MOL0     C29234   7.569  10.194   0.036 -0.2495  0.0705  0.0969
  958MOL0     C29235   7.638  10.333   0.046  0.4341 -0.0745 -0.4432
  958MOL0     C29236   7.681  10.355   0.196  0.3072  0.1303  0.4960
  958MOL0     C29237   7.736  10.497   0.225 -0.8619 -0.1353 -0.2563
  958MOL0     C29238   7.714  10.515   0.372 -0.0660  0.6082 -1.5033
  958MOL0     C29239   7.782  10.648   0.415  0.2736 -0.4032  0.6804
  958MOL0    Cl29240   7.833  10.656   0.594 -0.0825  0.6313 -0.3631
  958MOL0     C29241   7.217   9.853   0.076  0.6091 -0.0914 -0.3477
  958MOL0     C29242   7.108   9.770   0.075  0.2627  0.2057  0.4093
  958MOL0     O29243   6.818   9.747  -0.194  0.2577 -0.4576  0.3405
  958MOL0     C29244   6.617   9.568  -0.136 -0.0397  0.6655 -0.5777
  958MOL0     C29245   6.518   9.475  -0.119  0.7089 -0.2781 -0.2907
  958MOL0     N29246   6.339   8.689   0.123 -0.3323 -0.3696 -0.0142
  958MOL0     N29247   6.309   8.620   0.230 -0.0136 -0.3638  0.0182
  958MOL0     C29248   7.016   8.396   1.041 -0.5702  0.0210 -0.1137
  958MOL0     C29249   7.053   8.288   1.130 -0.3804 -0.0514  0.1925
  958MOL0     C29250   7.038   7.864   1.309  0.7767 -0.8888 -0.7369
  958MOL0     C29251   6.952   7.783   1.391 -0.0123  0.0228 -1.5228
  958MOL0     C29252   6.991   7.672   1.466 -0.6285  0.2501  0.0310
  958MOL0     C29253   7.122   7.642   1.479 -0.4033  0.8907  0.0964
  958MOL0     O29254   7.147   7.529   1.552  0.4286 -0.3531 -0.0464
  958MOL0     C29255   7.288   7.502   1.577 -0.4149 -0.1324  0.7767
  958MOL0     C29256   7.303   7.413   1.687 -0.3951  0.2661  0.8855
  958MOL0     C29257   7.379   7.287   1.637 -0.1162  0.0062  0.1425
  958MOL0     C29258   7.459   7.226   1.756 -0.7336 -0.3583 -0.6015
  958MOL0     C29259   7.521   7.101   1.705 -0.4487 -0.5180  0.2373
  958MOL0     C29260   7.571   6.998   1.665 -0.5540 -1.3560  0.8833
  958MOL0     C29261   7.210   7.718   1.404  0.2752 -0.2733 -0.7229
  958MOL0     C29262   7.169   7.825   1.316 -0.1229  0.7183 -0.5263
  958MOL0     H29263   6.902   8.036   0.946 -0.7121  0.2233 -1.0444
  958MOL0     H29264   6.851   8.198   0.810  1.4264  0.4057 -0.0832
  958MOL0     H29265   6.761   8.579   0.746  0.9691  1.2191  1.4629
  958MOL0     H29266   6.743   8.409   0.735  3.1423  0.2426 -0.3783
  958MOL0     H29267   6.630   8.388   0.930  0.6680 -0.6857 -0.6076
  958MOL0     H29268   6.697   8.531   1.011  0.2557  0.1476  0.2938
  958MOL0     H29269   6.483   8.594   0.949 -0.1237  2.2024 -1.3811
  958MOL0     H29270   6.585   8.686   0.848 -0.1641  0.8348  0.2436
  958MOL0     H29271   6.545   8.548   0.655  1.6051 -1.0808  0.2450
  958MOL0     H29272   6.453   8.433   0.764  3.3328 -0.3772  0.5956
  958MOL0     H29273   6.272   8.583   0.777 -0.6261 -3.0437 -0.9926
  958MOL0     H29274   6.377   8.731   0.731 -2.2068 -0.3314 -1.7090
  958MOL0     H29275   6.393   8.619   0.499 -1.6976  3.1554 -0.2497
  958MOL0     H29276   6.275   8.502   0.558  3.6326 -1.7170  0.0559
  958MOL0     H29277   6.112   8.672   0.607  1.0495 -0.7669  1.1789
  958MOL0     H29278   6.205   8.803   0.535 -1.2254  0.1569 -0.9197
  958MOL0     H29279   6.035   8.716   0.399 -0.1271 -0.9724 -0.4147
  958MOL0     H29280   6.101   8.556   0.411 -2.0740  1.0712  1.5903
  958MOL0     H29281   6.146   8.905   0.254 -0.4353  0.6395 -2.6884
  958MOL0     H29282   6.416   8.916  -0.013 -0.4224  2.9585 -0.8193
  958MOL0     H29283   6.256   8.870  -0.084 -1.4211  0.8671 -0.1607
  958MOL0     H29284   6.143   9.048   0.041  1.2293 -1.1868  3.4965
  958MOL0     H29285   6.266   9.108  -0.078  2.3230  3.7671  3.2568
  958MOL0     H29286   6.327   9.080   0.205 -1.5475  0.2728  0.0290
  958MOL0     H29287   6.249   9.234   0.153 -0.6010 -0.0247 -0.9602
  958MOL0     H29288   6.517   9.100   0.068 -0.3831 -0.1564  0.0071
  958MOL0     H29289   6.498   9.256   0.149  0.8403  1.1882 -1.4456
  958MOL0     H29290   6.706   9.203  -0.021  0.1746 -1.4719 -0.7247
  958MOL0     H29291   6.943   9.416   0.031 -2.7014  2.2050 -1.4207
  958MOL0     H29292   6.945   9.247  -0.043 -0.1318  0.1165 -2.1819
  958MOL0     H29293   6.987   9.386  -0.143 -1.9130  0.2448 -2.4657
  958MOL0     H29294   7.062   9.760  -0.256 -0.0879 -2.0298  0.2404
  958MOL0     H29295   7.256   9.883  -0.253 -0.2267 -0.8653 -0.2063
  958MOL0     H29296   7.559   9.979  -0.146 -0.8922 -1.1719  0.8513
  958MOL0     H29297   7.420  10.044  -0.235 -0.9511  1.5668 -0.5412
  958MOL0     H29298   7.581  10.213  -0.186 -0.2097  2.9696  0.0821
  958MOL0     H29299   7.421  10.246  -0.126 -1.9691 -3.0865 -1.3364
  958MOL0     H29300   7.644  10.117   0.055  0.4616  0.1554 -2.0897
  958MOL0     H29301   7.479  10.187   0.097 -0.9576  0.1885 -0.9118
  958MOL0     H29302   7.728  10.337  -0.017 -0.2741  1.9671 -1.4245
  958MOL0     H29303   7.561  10.406   0.020  0.2179  0.0831  0.6110
  958MOL0     H29304   7.752  10.280   0.231 -0.3926 -1.4160 -1.1987
  958MOL0     H29305   7.591  10.338   0.256 -0.0164 -0.3820 -0.1147
  958MOL0     H29306   7.841  10.498   0.192 -1.4818  0.9340 -2.4215
  958MOL0     H29307   7.680  10.573   0.170 -0.0968  0.4443 -0.2545
  958MOL0     H29308   7.749  10.441   0.444 -1.9724  2.5986  1.6884
  958MOL0     H29309   7.609  10.527   0.399  0.8435  1.6227  2.2057
  958MOL0     H29310   7.720  10.734   0.391  2.4205  1.1855  0.5230
  958MOL0     H29311   7.879  10.651   0.366  0.6859 -1.8249  1.3561
  958MOL0     H29312   7.249   9.898   0.170  0.5885  0.3833 -0.5652
  958MOL0     H29313   7.066   9.732   0.168 -1.1787  0.9841  0.1043
  958MOL0     H29314   6.592   9.671  -0.161 -0.5550  0.6552 -0.1259
  958MOL0     H29315   6.417   9.512  -0.135  2.0560  3.6269 -0.6380
  958MOL0     H29316   7.056   8.494   1.063 -2.0733  0.8171 -0.7889
  958MOL0     H29317   7.120   8.300   1.215  0.9956 -3.3399 -0.2778
  958MOL0     H29318   6.848   7.812   1.400  0.6306  2.1397 -0.1951
  958MOL0     H29319   6.917   7.616   1.521 -0.0708 -2.5851 -1.9363
  958MOL0     H29320   7.313   7.457   1.480  0.4047  3.9260 -1.1233
  958MOL0     H29321   7.358   7.585   1.588 -0.6304  0.9607 -3.9675
  958MOL0     H29322   7.211   7.384   1.737  0.4492 -0.9936  1.7914
  958MOL0     H29323   7.369   7.465   1.757 -0.7170 -0.1690  1.5211
  958MOL0     H29324   7.449   7.325   1.562  1.7068  2.8068  3.0296
  958MOL0     H29325   7.302   7.222   1.593 -0.7363  1.5408 -1.1144
  958MOL0     H29326   7.386   7.210   1.837 -1.8193 -0.9261 -1.6570
  958MOL0     H29327   7.520   7.304   1.802 -3.8349  2.4571 -0.9464
  958MOL0     H29328   7.598   6.902   1.626  0.4227  0.2016 -2.7220
  958MOL0     H29329   7.317   7.703   1.411  0.0613 -1.3268  3.9913
  958MOL0     H29330   7.254   7.877   1.273  2.9250 -1.7261  2.0118
  959MOL0     O29331   9.921   7.570   7.086 -0.4161 -0.5513  0.3923
  959MOL0     C29332   9.944   7.693   7.081  0.6635  0.2876 -0.6547
  959MOL0     O29333   9.863   7.803   7.116  0.5998 -0.2977  0.3609
  959MOL0     C29334   9.724   7.797   7.128 -0.3711 -0.4541 -1.1758
  959MOL0     C29335   9.654   7.703   7.208 -0.0040 -0.1641  0.6960
  959MOL0     C29336   9.523   7.709   7.225 -0.3024  0.5567 -0.8858
  959MOL0     C29337   9.458   7.824   7.180  0.2714 -0.3342 -0.0558
  959MOL0     O29338   9.321   7.830   7.217 -0.2518  0.0743 -0.4778
  959MOL0     C29339   9.275   7.966   7.241  0.7066 -0.3473 -0.7782
  959MOL0     C29340   9.358   8.054   7.340 -0.0478 -0.0132 -0.0874
  959MOL0     C29341   9.368   7.985   7.480 -0.0320  0.0223 -0.7822
  959MOL0     C29342   9.444   8.066   7.585 -0.5895  0.7460  0.2053
  959MOL0     C29343   9.469   7.994   7.720 -0.5072 -1.5953  0.4924
  959MOL0     C29344   9.567   8.060   7.817 -0.7517 -0.4556  0.2505
  959MOL0     C29345   9.631   7.959   7.910  0.1251  0.3017 -0.1350
  959MOL0     C29346   9.539   7.862   7.990 -0.5040  0.1419  0.4057
  959MOL0     N29347   9.455   7.928   8.086  0.5337 -0.0408 -0.5735
  959MOL0     C29348   9.329   7.969   8.060  0.0607 -0.0915 -0.2625
  959MOL0     C29349   9.301   8.045   8.172  0.7543 -0.4548 -0.4061
  959MOL0     C29350   9.180   8.124   8.185  0.8066  0.6459 -0.4249
  959MOL0     C29351   9.135   8.159   8.326 -0.1225 -0.0271  0.0858
  959MOL0     C29352   9.024   8.260   8.326  0.4418  0.5336 -0.0435
  959MOL0     C29353   8.989   8.279   8.483  0.3020 -1.2062  0.3008
  959MOL0     O29354   8.860   8.339   8.497  0.3983 -0.8624 -0.2816
  959MOL0     C29355   8.744   8.264   8.453  0.3874 -0.7988  0.3920
  959MOL0     C29356   8.636   8.339   8.419 -0.2602 -0.3935 -0.0898
  959MOL0     C29357   8.520   8.282   8.352 -0.2473 -0.9532  0.5483
  959MOL0     C29358   8.421   8.386   8.300 -0.4804 -0.0974 -0.1544
  959MOL0     C29359   8.511   8.145   8.333 -0.6016 -0.1049 -0.4017
  959MOL0     C29360   8.391   8.084   8.267 -0.5060  0.6600 -0.3427
  959MOL0     O29361   8.349   8.144   8.155  0.5497 -0.6592  0.0335
  959MOL0     C29362   8.272   8.088   8.052 -0.3960 -0.3113 -0.4900
  959MOL0     C29363   8.343   8.030   7.947  0.2385 -0.4634  0.1040
  959MOL0     C29364   8.264   7.972   7.850 -0.5037 -0.8578  0.4310
  959MOL0     C29365   8.126   7.955   7.858 -0.7241 -0.8498 -0.5359
  959MOL0     O29366   8.041   7.905   7.755 -0.6495 -0.5704 -0.2274
  959MOL0     C29367   8.099   7.851   7.632  0.6357  0.6240  0.5811
  959MOL0     C29368   7.981   7.811   7.532  0.0632  0.3848  0.7448
  959MOL0     C29369   8.043   7.781   7.386  1.1059 -0.1497 -0.6969
  959MOL0     C29370   8.151   7.675   7.383 -0.4947  0.6343  0.2906
  959MOL0     C29371   8.187   7.651   7.234 -0.0493  0.7545 -0.2663
  959MOL0     C29372   8.316   7.565   7.211 -0.7318  0.2578 -0.1535
  959MOL0     C29373   8.343   7.539   7.069  0.1340 -1.5666 -0.5498
  959MOL0     C29374   8.403   7.408   7.029 -0.2259 -0.3485  0.8720
  959MOL0    Cl29375   8.566   7.375   7.104  0.3267  0.0034  0.0724
  959MOL0     C29376   8.060   8.008   7.968 -0.2020  0.4386 -0.2794
  959MOL0     C29377   8.131   8.066   8.071  0.2868 -0.4323 -0.0064
  959MOL0     O29378   8.359   7.976   8.311 -0.3035 -0.0891  0.8279
  959MOL0     C29379   8.619   8.074   8.382 -1.1673 -0.7969  0.0250
  959MOL0     C29380   8.734   8.127   8.434  0.5469  0.6680  0.4698
  959MOL0     N29381   9.407   8.041   8.259 -0.2940  0.2844 -0.6936
  959MOL0     N29382   9.494   7.957   8.211  0.1639  0.6503 -0.2190
  959MOL0     C29383   9.522   7.919   7.097 -0.4903  0.6008 -0.0796
  959MOL0     C29384   9.659   7.909   7.074  0.7903  0.4270  0.0010
  959MOL0     C29385  10.084   7.718   7.041 -0.2388 -0.8964  0.9638
  959MOL0     C29386  10.179   7.610   7.029 -1.0781  0.1570  0.1822
  959MOL0     C29387  10.306   7.634   6.973 -0.6714 -0.0447 -0.0862
  959MOL0     C29388  10.346   7.757   6.932 -0.1245 -0.0432 -0.9482
  959MOL0     O29389  10.469   7.780   6.867  1.3378 -0.0591 -0.6648
  959MOL0     C29390  10.545   7.677   6.819  0.6288 -0.4436 -0.5057
  959MOL0     C29391  10.671   7.740   6.774 -0.8668 -0.5761  0.2630
  959MOL0     C29392  10.763   7.765   6.895  0.0433  0.2444 -0.1954
  959MOL0     C29393  10.910   7.776   6.855 -0.1547  0.6963 -0.3570
  959MOL0     C29394  10.934   7.867   6.743  0.6288  0.3737 -0.2012
  959MOL0     C29395  10.949   7.934   6.641  0.3964  0.5725 -1.4145
  959MOL0     C29396  10.267   7.867   6.953 -1.0756 -0.3865  0.0272
  959MOL0     C29397  10.141   7.852   7.012  0.3873 -0.2263  1.3587
  959MOL0     H29398   9.716   7.631   7.260 -0.5613 -0.9518  0.2869
  959MOL0     H29399   9.484   7.628   7.286 -0.4038  1.2430 -0.0142
  959MOL0     H29400   9.246   8.009   7.145 -1.2727 -2.1812 -1.0917
  959MOL0     H29401   9.178   7.956   7.290 -0.1796 -1.5141 -2.6225
  959MOL0     H29402   9.460   8.069   7.304 -0.3584 -0.2556 -1.0748
  959MOL0     H29403   9.300   8.146   7.354  1.0457  1.0061 -1.9394
  959MOL0     H29404   9.267   7.973   7.519  0.9101 -1.7949  1.3279
  959MOL0     H29405   9.409   7.885   7.464 -0.5753 -0.5652  1.2511
  959MOL0     H29406   9.542   8.084   7.541 -0.3886  0.7411  0.6436
  959MOL0     H29407   9.397   8.163   7.607 -1.3543  0.2419  0.8610
  959MOL0     H29408   9.373   7.992   7.772  1.0692  2.2332  4.0789
  959MOL0     H29409   9.499   7.890   7.703 -1.7811 -1.6369 -1.8884
  959MOL0     H29410   9.647   8.120   7.772  1.0139 -0.7815  2.7263
  959MOL0     H29411   9.515   8.136   7.876  0.4063 -0.7568  1.7227
  959MOL0     H29412   9.702   7.904   7.847  0.8006  1.1319 -0.1059
  959MOL0     H29413   9.695   8.009   7.983 -0.8080  1.3883 -0.0428
  959MOL0     H29414   9.614   7.802   8.042 -0.1359  0.4190  0.1941
  959MOL0     H29415   9.472   7.813   7.918  0.4727  2.2488 -2.1109
  959MOL0     H29416   9.264   7.960   7.973 -1.7579  0.5897  0.9620
  959MOL0     H29417   9.176   8.210   8.118 -1.4448 -0.9377 -2.4965
  959MOL0     H29418   9.103   8.056   8.147  2.0380 -0.8911 -0.3107
  959MOL0     H29419   9.219   8.209   8.375 -1.1776  1.5835  0.2937
  959MOL0     H29420   9.108   8.064   8.373 -1.5587 -0.9068 -2.3754
  959MOL0     H29421   8.938   8.222   8.270  1.2636  1.6242 -2.1893
  959MOL0     H29422   9.052   8.357   8.285 -3.4763  2.3354  1.1622
  959MOL0     H29423   9.067   8.336   8.534  1.7602 -4.9191  2.6251
  959MOL0     H29424   8.986   8.180   8.529 -0.3252 -1.2237  0.2236
  959MOL0     H29425   8.632   8.445   8.439  0.5224 -0.2735 -0.5003
  959MOL0     H29426   8.440   8.401   8.193 -0.1347  1.0277  0.0488
  959MOL0     H29427   8.317   8.351   8.308  0.2926 -2.6643 -0.4030
  959MOL0     H29428   8.433   8.484   8.347 -0.2913 -0.3079  0.2367
  959MOL0     H29429   8.451   8.033   7.934 -0.0006 -0.5417 -2.2980
  959MOL0     H29430   8.323   7.952   7.761  0.4766 -0.8784  1.0787
  959MOL0     H29431   8.159   7.933   7.590  0.5074  0.1560 -0.5737
  959MOL0     H29432   8.173   7.777   7.663 -1.8434 -1.5944  1.5201
  959MOL0     H29433   7.931   7.720   7.567 -0.3497 -0.7357 -2.4712
  959MOL0     H29434   7.908   7.892   7.522  0.2957  0.4215 -0.7986
  959MOL0     H29435   8.087   7.874   7.349  1.6494 -0.3070 -0.4606
  959MOL0     H29436   7.952   7.752   7.332  1.3291  1.5070 -2.0535
  959MOL0     H29437   8.243   7.697   7.438  0.3646  0.9104 -1.2030
  959MOL0     H29438   8.112   7.589   7.438  1.8245 -0.5492  0.2190
  959MOL0     H29439   8.190   7.753   7.192  1.5354  0.5748 -0.6606
  959MOL0     H29440   8.103   7.599   7.188  1.2353 -0.7402 -1.0111
  959MOL0     H29441   8.409   7.607   7.251  2.1156 -1.6590 -4.0863
  959MOL0     H29442   8.290   7.468   7.254 -1.2543  1.1049  1.5443
  959MOL0     H29443   8.395   7.627   7.030 -2.3054 -0.4271 -1.4835
  959MOL0     H29444   8.243   7.543   7.025  0.6613 -0.6661 -1.7277
  959MOL0     H29445   8.425   7.408   6.922 -1.7956 -0.7484  0.5226
  959MOL0     H29446   8.328   7.331   7.053 -2.6938  2.2767  2.1675
  959MOL0     H29447   7.952   8.003   7.975 -0.1379 -2.6539 -0.2164
  959MOL0     H29448   8.081   8.086   8.165  0.0833 -0.2810 -0.1467
  959MOL0     H29449   8.628   7.966   8.394  2.0517 -0.4953  1.1039
  959MOL0     H29450   8.812   8.056   8.459 -1.1006 -0.4789  2.7113
  959MOL0     H29451   9.469   8.007   7.063  1.0917  1.4781 -0.3413
  959MOL0     H29452   9.706   7.989   7.018  0.4042  0.3931 -0.3728
  959MOL0     H29453  10.168   7.511   7.072  0.0184  1.4381  3.7906
  959MOL0     H29454  10.374   7.550   6.966  0.3740  0.7727  0.0439
  959MOL0     H29455  10.563   7.589   6.882 -0.8576  0.5025  1.3592
  959MOL0     H29456  10.490   7.648   6.729  0.2803 -1.0046 -0.1204
  959MOL0     H29457  10.650   7.832   6.719 -1.8800 -2.3520 -2.5415
  959MOL0     H29458  10.726   7.679   6.701  1.8550  3.4942 -1.4074
  959MOL0     H29459  10.751   7.683   6.967 -0.3948  1.1783  0.8331
  959MOL0     H29460  10.728   7.854   6.948 -2.8102  0.9664 -2.9745
  959MOL0     H29461  10.952   7.678   6.831 -0.1913 -0.1531  2.6782
  959MOL0     H29462  10.965   7.810   6.943  0.2412  1.7975 -1.0097
  959MOL0     H29463  10.945   7.999   6.556  2.1501 -0.2227 -2.1613
  959MOL0     H29464  10.306   7.962   6.917  1.3362 -0.7970  1.3090
  959MOL0     H29465  10.069   7.932   7.017  0.2220  0.1652 -2.9964
  960MOL0     O29466   5.648   2.695   2.805 -0.0731 -0.0177  0.1942
  960MOL0     C29467   5.716   2.753   2.721  0.1161  0.3464  0.4017
  960MOL0     O29468   5.720   2.722   2.584 -0.2562 -0.0354  0.4388
  960MOL0     C29469   5.654   2.614   2.529 -0.2769 -0.0734 -0.4102
  960MOL0     C29470   5.533   2.635   2.453 -0.6255  0.0692  0.1740
  960MOL0     C29471   5.454   2.521   2.423 -0.2216  0.9093 -0.4434
  960MOL0     C29472   5.503   2.389   2.453 -0.9590 -0.2446 -0.2524
  960MOL0     O29473   5.451   2.268   2.421 -0.2647 -0.6190  0.5971
  960MOL0     C29474   5.336   2.268   2.335 -1.6477  0.4779 -0.3143
  960MOL0     C29475   5.332   2.132   2.262 -0.3623 -0.1790 -0.4303
  960MOL0     C29476   5.242   2.142   2.137 -0.6824  0.4735  0.5203
  960MOL0     C29477   5.266   2.039   2.033 -0.2735  1.0970  0.2265
  960MOL0     C29478   5.180   2.060   1.912  0.5930  0.6989 -0.0736
  960MOL0     C29479   5.197   1.937   1.812  0.4335  0.7111  0.6120
  960MOL0     C29480   5.323   1.964   1.719  0.4833  0.0297 -0.1826
  960MOL0     C29481   5.293   2.054   1.598  0.2182  0.2412 -1.1697
  960MOL0     N29482   5.236   1.979   1.482 -1.0886 -0.2950  0.5685
  960MOL0     C29483   5.283   1.856   1.432 -0.3509  0.5897 -0.1338
  960MOL0     C29484   5.202   1.833   1.326  0.6899  1.2471 -0.5588
  960MOL0     C29485   5.194   1.703   1.244 -0.5327  0.0398 -0.7998
  960MOL0     C29486   5.071   1.629   1.285 -0.3937  0.2188 -0.5131
  960MOL0     C29487   5.083   1.478   1.264  0.5926  0.1085 -0.1565
  960MOL0     C29488   4.960   1.407   1.326  0.1951  1.1790  0.0033
  960MOL0     O29489   4.979   1.266   1.307 -0.1900  0.2630  1.2330
  960MOL0     C29490   4.859   1.195   1.296  0.1613 -0.7475  0.4761
  960MOL0     C29491   4.770   1.186   1.400  0.1983 -0.3542 -0.3871
  960MOL0     C29492   4.643   1.126   1.387 -0.1765  1.2313  0.8545
  960MOL0     C29493   4.556   1.140   1.507 -1.0187  0.7302  0.4004
  960MOL0     C29494   4.609   1.062   1.258  0.6009 -0.5329  0.0292
  960MOL0     C29495   4.480   0.999   1.231 -1.0923 -0.2976  0.2883
  960MOL0     O29496   4.373   1.035   1.309  0.0425  0.2160 -0.1140
  960MOL0     C29497   4.239   0.996   1.300  0.0126  1.3475 -0.9981
  960MOL0     C29498   4.186   0.906   1.212  0.0945 -0.0305 -0.1787
  960MOL0     C29499   4.049   0.876   1.213 -0.2962 -0.6002  0.0196
  960MOL0     C29500   3.965   0.950   1.285  0.4191 -0.8332  0.0359
  960MOL0     O29501   3.834   0.909   1.286 -0.6961 -0.1806  0.4513
  960MOL0     C29502   3.738   1.008   1.330  0.3614 -0.7884  0.3088
  960MOL0     C29503   3.596   0.982   1.280 -1.0157  0.2593 -0.6668
  960MOL0     C29504   3.489   1.079   1.331 -0.2209  0.1112 -0.3487
  960MOL0     C29505   3.351   1.024   1.284 -0.0249  0.3102  0.4071
  960MOL0     C29506   3.237   1.118   1.323 -0.0515 -0.1275  0.0714
  960MOL0     C29507   3.262   1.264   1.290  0.0239 -0.0628  0.0273
  960MOL0     C29508   3.296   1.283   1.144 -0.2467  0.7005  0.6576
  960MOL0     C29509   3.316   1.425   1.110  0.1758 -0.1445  0.9720
  960MOL0    Cl29510   3.449   1.505   1.203 -0.2782  0.2222  0.2695
  960MOL0     C29511   4.019   1.042   1.381  0.0694 -0.4662  0.1108
  960MOL0     C29512   4.153   1.066   1.388 -0.0154 -0.1432 -0.3851
  960MOL0     O29513   4.475   0.911   1.143 -0.1174 -0.0528  0.4366
  960MOL0     C29514   4.705   1.070   1.155 -0.4611 -0.6996  0.3765
  960MOL0     C29515   4.823   1.142   1.174 -0.4714 -0.1352  0.0156
  960MOL0     N29516   5.117   1.941   1.298 -0.1471 -0.3786  0.2483
  960MOL0     N29517   5.132   2.025   1.400  0.3206  0.5065 -0.1744
  960MOL0     C29518   5.632   2.379   2.517 -0.0032  0.7031 -0.3074
  960MOL0     C29519   5.708   2.486   2.551 -0.5701 -0.0764  0.0889
  960MOL0     C29520   5.801   2.867   2.762  0.2109  0.3740 -0.3852
  960MOL0     C29521   5.899   2.923   2.689 -0.6203 -0.2379  0.8060
  960MOL0     C29522   5.990   3.014   2.754 -0.3134 -0.5689 -0.1609
  960MOL0     C29523   5.977   3.063   2.882 -0.5961  0.0331 -0.0191
  960MOL0     O29524   6.074   3.158   2.916  0.0758 -1.0567  0.3640
  960MOL0     C29525   6.072   3.214   3.046  0.0225 -0.1693  0.6294
  960MOL0     C29526   6.148   3.348   3.059  0.3937 -0.5554  0.2568
  960MOL0     C29527   6.078   3.459   2.973  0.0265 -0.4843 -0.2905
  960MOL0     C29528   6.148   3.592   3.006  1.1919  0.1842 -0.2934
  960MOL0     C29529   6.290   3.585   2.959  0.1931  0.1884 -0.4112
  960MOL0     C29530   6.410   3.563   2.926  0.1734 -0.3219 -0.3090
  960MOL0     C29531   5.871   3.003   2.956  0.1033 -0.3717 -0.3170
  960MOL0     C29532   5.789   2.912   2.898  0.9076  0.7079 -0.4455
  960MOL0     H29533   5.501   2.737   2.431  0.5264  0.1441 -1.2831
  960MOL0     H29534   5.365   2.532   2.362 -0.2939  1.1184 -0.3023
  960MOL0     H29535   5.246   2.286   2.394 -1.7370  0.7210 -0.5192
  960MOL0     H29536   5.347   2.342   2.255 -0.9686  0.5516 -0.1545
  960MOL0     H29537   5.430   2.091   2.240 -1.1072 -2.3292 -0.0173
  960MOL0     H29538   5.296   2.060   2.337  3.4943  0.1459  1.9946
  960MOL0     H29539   5.136   2.145   2.161 -1.3952 -0.3734 -2.1660
  960MOL0     H29540   5.269   2.238   2.093  1.1955  0.1389  0.8592
  960MOL0     H29541   5.371   2.050   2.005 -0.4720  0.6276 -0.7589
  960MOL0     H29542   5.251   1.934   2.056  0.4005 -0.0797 -3.9081
  960MOL0     H29543   5.076   2.067   1.945  0.9364  1.7986  0.8082
  960MOL0     H29544   5.189   2.158   1.864  0.9433  0.5057 -0.4088
  960MOL0     H29545   5.209   1.837   1.855  0.0401 -0.5180 -1.9071
  960MOL0     H29546   5.111   1.918   1.746  1.1106  0.0347 -0.0955
  960MOL0     H29547   5.405   2.000   1.781  2.0677 -0.7816 -1.7284
  960MOL0     H29548   5.373   1.879   1.671  1.7376  1.4522 -1.4823
  960MOL0     H29549   5.384   2.098   1.556  0.6246 -0.2022 -0.7578
  960MOL0     H29550   5.223   2.129   1.635 -0.8407 -1.3479  0.1898
  960MOL0     H29551   5.357   1.789   1.474 -0.7311 -0.7548 -1.5345
  960MOL0     H29552   5.196   1.725   1.137  0.3732 -0.5922 -0.9230
  960MOL0     H29553   5.285   1.645   1.262 -0.4282  0.5889  0.5489
  960MOL0     H29554   4.990   1.654   1.215 -0.4977  0.0610 -0.4481
  960MOL0     H29555   5.040   1.651   1.387 -2.0323 -3.4464 -0.0621
  960MOL0     H29556   5.171   1.434   1.313 -1.8482 -4.3131  0.8648
  960MOL0     H29557   5.089   1.454   1.158 -0.9246  1.9219 -0.7034
  960MOL0     H29558   4.862   1.431   1.283 -0.7498 -2.1384 -0.0047
  960MOL0     H29559   4.945   1.437   1.431 -1.7477  0.8193 -0.1266
  960MOL0     H29560   4.804   1.224   1.496 -1.8615 -2.0601  1.1176
  960MOL0     H29561   4.481   1.212   1.475 -0.6568  0.1899 -1.8507
  960MOL0     H29562   4.516   1.042   1.534  2.2204 -0.6344  0.7363
  960MOL0     H29563   4.616   1.180   1.588  1.1109 -0.7489 -0.3334
  960MOL0     H29564   4.240   0.848   1.138  0.1668 -0.9731  0.5813
  960MOL0     H29565   4.028   0.794   1.144  0.8827 -0.7818 -0.1475
  960MOL0     H29566   3.740   1.007   1.439 -0.0671 -2.1266  0.3274
  960MOL0     H29567   3.767   1.111   1.306 -2.0758 -0.1356 -0.1335
  960MOL0     H29568   3.596   0.991   1.171 -1.6005  0.4205 -0.6591
  960MOL0     H29569   3.572   0.881   1.314  1.2175 -0.6164 -1.4890
  960MOL0     H29570   3.516   1.175   1.285 -0.4539  0.1980 -0.3040
  960MOL0     H29571   3.480   1.089   1.439 -1.8957  0.6993 -0.5123
  960MOL0     H29572   3.348   1.010   1.176  0.8881 -0.4468  0.4579
  960MOL0     H29573   3.328   0.923   1.320  0.3500 -0.3999 -1.2343
  960MOL0     H29574   3.230   1.102   1.431 -0.6813 -3.4756 -0.3323
  960MOL0     H29575   3.138   1.088   1.286 -1.8172  3.6819  1.2189
  960MOL0     H29576   3.182   1.332   1.319 -0.8446 -0.9768 -0.2025
  960MOL0     H29577   3.346   1.306   1.346 -1.5896  1.3948  1.4688
  960MOL0     H29578   3.219   1.239   1.080  0.7769 -1.6449  0.9159
  960MOL0     H29579   3.392   1.232   1.128  0.0698  0.4903  2.8946
  960MOL0     H29580   3.225   1.484   1.129  0.8349  1.3684 -0.3275
  960MOL0     H29581   3.330   1.433   1.002 -3.4002 -2.0622  0.1908
  960MOL0     H29582   3.953   1.107   1.438 -0.9799 -1.1540 -0.2947
  960MOL0     H29583   4.193   1.130   1.467  0.2606 -0.7659 -0.0093
  960MOL0     H29584   4.686   1.024   1.059 -0.7460 -0.7767  0.4700
  960MOL0     H29585   4.900   1.151   1.098 -0.5225  2.3054  0.1838
  960MOL0     H29586   5.667   2.277   2.532  0.5702  0.8765 -0.4366
  960MOL0     H29587   5.798   2.479   2.612  1.2042  0.7677 -2.2778
  960MOL0     H29588   5.908   2.885   2.588  0.8390 -0.7765  1.1096
  960MOL0     H29589   6.070   3.070   2.706  1.0072 -1.9146  0.3677
  960MOL0     H29590   5.966   3.236   3.063 -0.8263 -0.3428 -3.3406
  960MOL0     H29591   6.129   3.145   3.108  1.1674 -0.3291 -0.5695
  960MOL0     H29592   6.254   3.340   3.034  0.1001  1.1730 -1.8903
  960MOL0     H29593   6.151   3.373   3.165 -0.7082 -0.4514  0.2765
  960MOL0     H29594   5.974   3.473   3.005 -0.2914  1.2190 -1.9018
  960MOL0     H29595   6.086   3.432   2.868 -1.0472 -1.4292 -0.1485
  960MOL0     H29596   6.144   3.633   3.108 -0.6127  1.6237 -0.8792
  960MOL0     H29597   6.101   3.668   2.943 -1.3476 -0.7117  0.4242
  960MOL0     H29598   6.508   3.528   2.904 -0.5548 -3.0119  0.3511
  960MOL0     H29599   5.859   3.038   3.058 -1.3331 -0.1592 -0.5390
  960MOL0     H29600   5.705   2.863   2.947  0.0165 -1.4247 -3.7355
  961MOL0     O29601  11.025   1.876   3.989 -0.2950 -0.2833 -0.0197
  961MOL0     C29602  11.064   1.877   4.106  0.3798  0.3565  0.3592
  961MOL0     O29603  10.992   1.933   4.215 -0.1555 -0.4068  0.0930
  961MOL0     C29604  10.868   1.973   4.207  0.5299 -0.1024  0.7950
  961MOL0     C29605  10.846   2.109   4.214 -0.9704  0.0661  0.1501
  961MOL0     C29606  10.715   2.154   4.219  0.4695  0.4288  0.0032
  961MOL0     C29607  10.609   2.062   4.199  0.7047  0.5023 -0.0277
  961MOL0     O29608  10.477   2.107   4.201  0.1780  0.1311  0.1984
  961MOL0     C29609  10.414   2.154   4.326 -0.4965 -0.0305 -0.5381
  961MOL0     C29610  10.262   2.168   4.311 -0.8806 -0.4168  0.0826
  961MOL0     C29611  10.191   2.031   4.320 -0.0779 -0.6129  0.0804
  961MOL0     C29612  10.223   1.927   4.208 -0.3082  0.6381 -0.9104
  961MOL0     C29613  10.188   1.786   4.258  0.1827  0.6425  0.9221
  961MOL0     C29614  10.036   1.763   4.279 -0.7342 -0.1082  0.5275
  961MOL0     C29615  10.003   1.623   4.322  0.6287 -0.4463 -0.5366
  961MOL0     C29616  10.019   1.503   4.220 -0.3818 -0.3992 -0.1075
  961MOL0     N29617   9.955   1.540   4.095 -0.6374  0.3771 -0.1523
  961MOL0     C29618   9.821   1.516   4.072  0.6850 -0.2632 -0.2464
  961MOL0     C29619   9.796   1.579   3.955 -0.2083  0.0749  0.2829
  961MOL0     C29620   9.666   1.595   3.877  0.7240 -0.0269 -0.2331
  961MOL0     C29621   9.645   1.468   3.789 -0.4769  0.2875 -0.1165
  961MOL0     C29622   9.515   1.480   3.700 -0.4878 -0.8120 -0.3768
  961MOL0     C29623   9.465   1.349   3.655  0.6006  0.4217 -0.8527
  961MOL0     O29624   9.325   1.373   3.611  0.1133 -0.4624  0.3038
  961MOL0     C29625   9.269   1.280   3.530  0.5336  0.1486 -0.0512
  961MOL0     C29626   9.333   1.155   3.491 -0.5931  0.5853 -0.1238
  961MOL0     C29627   9.256   1.043   3.439  0.7933  1.1853  0.7214
  961MOL0     C29628   9.330   0.918   3.400 -1.1775  0.1187 -0.6744
  961MOL0     C29629   9.111   1.056   3.420 -0.6363 -0.5006 -0.8027
  961MOL0     C29630   9.026   0.950   3.363 -0.6154 -0.4633  0.3189
  961MOL0     O29631   9.040   0.815   3.398  0.4116 -0.2795 -0.4228
  961MOL0     C29632   8.938   0.728   3.367 -0.2560  0.8578 -0.4486
  961MOL0     C29633   8.905   0.675   3.245 -0.0672 -0.4642  0.1485
  961MOL0     C29634   8.802   0.587   3.221 -0.1117 -0.2285 -0.6659
  961MOL0     C29635   8.733   0.547   3.337 -0.7162 -0.8962  0.3342
  961MOL0     O29636   8.654   0.441   3.323 -0.1387 -0.5288 -0.0899
  961MOL0     C29637   8.546   0.434   3.415  1.1368  0.8476  1.1216
  961MOL0     C29638   8.440   0.545   3.383  0.6547 -0.5943 -0.6338
  961MOL0     C29639   8.309   0.515   3.463  0.6298 -0.0656 -0.3675
  961MOL0     C29640   8.207   0.635   3.457  0.1413 -0.3259  0.6400
  961MOL0     C29641   8.076   0.592   3.533  0.4416 -0.0177  0.6627
  961MOL0     C29642   8.008   0.725   3.564 -0.6396 -0.0928 -0.2009
  961MOL0     C29643   7.938   0.782   3.447  0.2404  0.0293 -0.5977
  961MOL0     C29644   7.848   0.904   3.487 -0.3861  0.1774  0.5216
  961MOL0    Cl29645   7.715   0.864   3.604 -0.3019  0.1489  0.1317
  961MOL0     C29646   8.749   0.622   3.458 -0.0619  0.0120 -0.2918
  961MOL0     C29647   8.854   0.710   3.469  0.3561 -0.0925  0.4859
  961MOL0     O29648   8.944   0.985   3.281 -0.4571 -0.1976 -0.0396
  961MOL0     C29649   9.058   1.180   3.457 -0.0196 -0.1246  0.3153
  961MOL0     C29650   9.132   1.294   3.505  0.8737  0.3399  0.2501
  961MOL0     N29651   9.914   1.633   3.912 -1.0310 -0.2236 -0.2490
  961MOL0     N29652  10.012   1.602   3.983  0.1426  0.4933 -1.2904
  961MOL0     C29653  10.636   1.931   4.173 -0.2652  0.2290  0.0612
  961MOL0     C29654  10.763   1.880   4.180 -0.0261 -0.1382  0.4716
  961MOL0     C29655  11.192   1.817   4.143 -0.1264 -0.7261 -0.0283
  961MOL0     C29656  11.295   1.822   4.049  0.6185 -0.2263  0.5523
  961MOL0     C29657  11.420   1.780   4.085  0.2391  0.0994  0.2541
  961MOL0     C29658  11.450   1.736   4.211  0.4524 -0.1428 -0.0968
  961MOL0     O29659  11.573   1.703   4.255  0.2121 -0.0027  0.2168
  961MOL0     C29660  11.667   1.644   4.168  0.8314  0.1916 -0.6239
  961MOL0     C29661  11.759   1.560   4.249 -0.8651 -0.7137  0.6953
  961MOL0     C29662  11.706   1.427   4.293 -0.4315 -0.3057 -0.2810
  961MOL0     C29663  11.665   1.324   4.184  0.2363 -0.2691  0.4657
  961MOL0     C29664  11.608   1.205   4.258  0.2329 -0.3347 -0.4324
  961MOL0     C29665  11.545   1.120   4.320 -0.0570 -0.2539 -0.0110
  961MOL0     C29666  11.350   1.721   4.307  0.3677 -0.0979 -0.5948
  961MOL0     C29667  11.221   1.772   4.271 -0.5193 -0.2149 -0.3193
  961MOL0     H29668  10.939   2.162   4.232  1.3554 -4.2147  2.5849
  961MOL0     H29669  10.697   2.260   4.235  0.6360  0.5220 -0.4171
  961MOL0     H29670  10.429   2.084   4.410 -1.3499 -1.6807 -1.6960
  961MOL0     H29671  10.461   2.252   4.337  1.8936 -1.1058 -0.5575
  961MOL0     H29672  10.220   2.240   4.382  0.4896  2.8213 -2.1648
  961MOL0     H29673  10.245   2.207   4.210  0.3288 -0.7098 -0.2540
  961MOL0     H29674  10.220   1.989   4.416 -1.2500 -3.3021 -0.6453
  961MOL0     H29675  10.083   2.042   4.338  0.2410 -0.7357  2.3285
  961MOL0     H29676  10.180   1.952   4.110 -0.3620  0.5935 -0.8988
  961MOL0     H29677  10.332   1.927   4.206 -0.2316  2.9330  0.3316
  961MOL0     H29678  10.215   1.713   4.181 -0.2657  1.0294  0.3911
  961MOL0     H29679  10.243   1.760   4.349  1.5288 -2.3449 -0.5951
  961MOL0     H29680  10.004   1.827   4.362  0.5129 -1.6219  2.2624
  961MOL0     H29681   9.988   1.789   4.185 -1.4112  0.1915  0.9516
  961MOL0     H29682  10.073   1.605   4.404 -1.3990  0.1992  1.4281
  961MOL0     H29683   9.902   1.623   4.363  1.3014  1.4031  1.2193
  961MOL0     H29684   9.987   1.405   4.254  0.7676 -0.9042 -0.4348
  961MOL0     H29685  10.124   1.500   4.188 -0.1356 -0.1747  0.6712
  961MOL0     H29686   9.771   1.451   4.142  1.3676 -0.2729  0.2469
  961MOL0     H29687   9.578   1.603   3.941  2.7194 -1.1283  2.8859
  961MOL0     H29688   9.667   1.680   3.808 -2.1546 -0.2822 -0.7073
  961MOL0     H29689   9.637   1.380   3.853  1.1714 -1.6203 -2.3447
  961MOL0     H29690   9.727   1.449   3.719 -2.8482 -0.3266 -2.9702
  961MOL0     H29691   9.540   1.537   3.610  0.3211 -0.9064 -0.2180
  961MOL0     H29692   9.439   1.529   3.762 -0.5155  0.5618 -1.4408
  961MOL0     H29693   9.464   1.278   3.738 -0.8100  2.6851  1.1888
  961MOL0     H29694   9.546   1.314   3.591  0.3636 -1.4481 -0.2041
  961MOL0     H29695   9.439   1.148   3.513 -0.3918  1.9703 -0.5411
  961MOL0     H29696   9.435   0.946   3.389 -0.4796 -0.4253  3.3447
  961MOL0     H29697   9.322   0.833   3.467 -1.1692 -0.4703 -1.4050
  961MOL0     H29698   9.290   0.883   3.304 -0.7432  1.5989 -1.4364
  961MOL0     H29699   8.966   0.717   3.166  4.0054 -1.0801  2.6564
  961MOL0     H29700   8.779   0.531   3.131  0.5836 -1.7556  0.0612
  961MOL0     H29701   8.491   0.342   3.397 -1.6173  2.4580  0.7738
  961MOL0     H29702   8.576   0.433   3.520  0.4678 -4.5979  1.5192
  961MOL0     H29703   8.475   0.648   3.391 -1.7494  0.4088 -2.2998
  961MOL0     H29704   8.415   0.521   3.280  3.1535 -0.6057 -1.2968
  961MOL0     H29705   8.331   0.499   3.569 -2.3490 -1.4370  0.1469
  961MOL0     H29706   8.267   0.421   3.428  1.5734 -1.4952  2.0960
  961MOL0     H29707   8.249   0.728   3.495 -0.4898  0.2509 -0.0432
  961MOL0     H29708   8.177   0.650   3.353  1.2284  1.1492  0.5087
  961MOL0     H29709   8.096   0.544   3.629  2.2844  0.8495  0.7529
  961MOL0     H29710   8.009   0.536   3.467 -0.8220  1.9140  0.2265
  961MOL0     H29711   7.938   0.718   3.648 -0.6259  0.9796 -0.0949
  961MOL0     H29712   8.084   0.796   3.598  0.3519 -2.2237  2.4796
  961MOL0     H29713   7.858   0.712   3.423 -1.8437  1.8990  0.4818
  961MOL0     H29714   7.993   0.799   3.354 -0.2833  0.4750 -0.8307
  961MOL0     H29715   7.808   0.935   3.390  1.3772 -1.2332 -0.7243
  961MOL0     H29716   7.913   0.985   3.522  1.6486 -1.5685  0.9886
  961MOL0     H29717   8.680   0.613   3.541 -1.7413  2.1629 -1.3634
  961MOL0     H29718   8.870   0.771   3.558  1.2611 -1.3094  1.1736
  961MOL0     H29719   8.950   1.192   3.451 -0.3436 -1.8104  1.8135
  961MOL0     H29720   9.076   1.382   3.534 -0.1160 -0.3335  0.4488
  961MOL0     H29721  10.550   1.864   4.170  0.7315 -1.0995  0.1751
  961MOL0     H29722  10.785   1.774   4.168 -2.8736 -0.6661 -1.0053
  961MOL0     H29723  11.276   1.854   3.947 -0.9732  0.3534  0.9967
  961MOL0     H29724  11.500   1.797   4.014 -1.7547  2.7942 -1.5662
  961MOL0     H29725  11.616   1.578   4.098 -2.7600  0.3765  1.5373
  961MOL0     H29726  11.708   1.726   4.108 -0.2740  0.1144 -1.5142
  961MOL0     H29727  11.802   1.627   4.324  4.6034 -1.7297 -1.0515
  961MOL0     H29728  11.849   1.543   4.189 -2.2336 -0.9123 -1.3962
  961MOL0     H29729  11.618   1.443   4.356  0.9954 -0.2019  1.7677
  961MOL0     H29730  11.781   1.371   4.348 -1.0242 -0.4643  0.3803
  961MOL0     H29731  11.752   1.293   4.126  0.0261 -0.6255  0.3346
  961MOL0     H29732  11.587   1.362   4.118  0.7822  1.2269  0.6455
  961MOL0     H29733  11.489   1.036   4.354 -0.5221  0.7430  1.7990
  961MOL0     H29734  11.359   1.686   4.410 -0.2125 -0.2469 -0.5911
  961MOL0     H29735  11.142   1.788   4.343 -0.5984  1.3667 -0.7233
  962MOL0     O29736   4.182   2.914   7.280 -0.0176  1.0144  0.1952
  962MOL0     C29737   4.303   2.923   7.243  0.4685 -0.7554  0.3344
  962MOL0     O29738   4.389   3.028   7.279 -0.8162 -0.2409  0.1761
  962MOL0     C29739   4.346   3.138   7.340 -0.0956 -0.4334 -0.4318
  962MOL0     C29740   4.415   3.178   7.451 -0.0573  0.5152  0.6307
  962MOL0     C29741   4.375   3.290   7.531  0.1141 -0.4429  0.4109
  962MOL0     C29742   4.256   3.361   7.505 -0.6107 -0.8284  1.5499
  962MOL0     O29743   4.193   3.466   7.570  0.2479 -0.5400  0.1149
  962MOL0     C29744   4.220   3.515   7.699  0.4668  0.2783 -0.7385
  962MOL0     C29745   4.130   3.639   7.721  0.6526  0.5440 -0.1988
  962MOL0     C29746   3.990   3.595   7.775  0.5842 -0.5492  0.3960
  962MOL0     C29747   3.891   3.709   7.780  0.2670 -0.5480  0.4387
  962MOL0     C29748   3.737   3.668   7.780 -1.0839 -0.9033  0.1954
  962MOL0     C29749   3.639   3.783   7.754  0.1581 -0.4335 -0.3770
  962MOL0     C29750   3.492   3.742   7.735  0.2048  0.6773  0.0983
  962MOL0     C29751   3.401   3.849   7.674  0.0608  0.9051 -0.3006
  962MOL0     N29752   3.273   3.795   7.627  0.2090 -0.6510  0.3904
  962MOL0     C29753   3.172   3.765   7.713 -0.7450 -0.4606  0.1179
  962MOL0     C29754   3.063   3.750   7.637 -0.5931  0.3535  0.0252
  962MOL0     C29755   2.924   3.718   7.689  0.2123  1.0076  0.5828
  962MOL0     C29756   2.817   3.816   7.637  0.3387 -0.0553 -0.2103
  962MOL0     C29757   2.849   3.952   7.700  0.3048 -0.1793  0.0977
  962MOL0     C29758   2.774   4.072   7.635  0.0234  0.2347 -0.6721
  962MOL0     O29759   2.641   4.047   7.679  0.4325 -0.0671  0.2119
  962MOL0     C29760   2.536   4.124   7.634 -0.0240  0.0917 -0.3748
  962MOL0     C29761   2.409   4.063   7.618 -0.6869 -1.2419 -0.0021
  962MOL0     C29762   2.295   4.125   7.567  0.7209 -0.2716 -0.3211
  962MOL0     C29763   2.164   4.044   7.564 -0.1249 -0.4565 -0.5726
  962MOL0     C29764   2.305   4.262   7.535 -1.0885  0.2679  0.0016
  962MOL0     C29765   2.196   4.334   7.480  1.0461 -0.6683  0.3334
  962MOL0     O29766   2.130   4.275   7.381 -0.5968  0.7976  0.1542
  962MOL0     C29767   2.014   4.325   7.335 -0.2972  0.6537  0.1825
  962MOL0     C29768   1.899   4.249   7.355  0.2398 -0.3161 -0.0142
  962MOL0     C29769   1.780   4.283   7.279  0.9650  1.0985 -0.4443
  962MOL0     C29770   1.768   4.398   7.196 -0.4444 -0.0324 -0.4082
  962MOL0     O29771   1.659   4.445   7.131 -0.3433  0.5067  0.2402
  962MOL0     C29772   1.543   4.361   7.133 -0.3819 -0.0778  0.9199
  962MOL0     C29773   1.557   4.265   7.018  0.4338 -0.5279 -0.1475
  962MOL0     C29774   1.492   4.316   6.887 -1.1111 -0.1658 -0.0791
  962MOL0     C29775   1.567   4.430   6.814  0.1164  0.2149 -0.1632
  962MOL0     C29776   1.497   4.459   6.682  0.0984 -0.4820 -0.7661
  962MOL0     C29777   1.588   4.567   6.616  0.6645  1.2230 -0.1827
  962MOL0     C29778   1.522   4.619   6.484  0.3335  0.1779  0.5870
  962MOL0     C29779   1.620   4.688   6.391  0.5169 -0.5406 -0.5961
  962MOL0    Cl29780   1.694   4.570   6.277 -0.1157 -0.4689  0.4439
  962MOL0     C29781   1.887   4.474   7.194 -0.1734 -0.2791 -0.4377
  962MOL0     C29782   2.007   4.442   7.253 -0.2662 -0.2602  0.0938
  962MOL0     O29783   2.163   4.443   7.528 -0.0156 -0.2564 -0.2485
  962MOL0     C29784   2.433   4.324   7.551 -0.2431 -0.6086  1.0926
  962MOL0     C29785   2.548   4.259   7.605  0.2725  0.4430  0.6951
  962MOL0     N29786   3.097   3.765   7.506  0.2744  0.1752  0.4363
  962MOL0     N29787   3.219   3.809   7.504  0.6760 -0.1375  0.4682
  962MOL0     C29788   4.189   3.316   7.388 -0.2130 -0.0121 -0.0794
  962MOL0     C29789   4.234   3.215   7.309  0.0734  0.2944  0.1151
  962MOL0     C29790   4.371   2.803   7.179 -0.3105 -0.4149 -1.1311
  962MOL0     C29791   4.516   2.798   7.159  0.4981  0.1056 -0.1682
  962MOL0     C29792   4.580   2.679   7.118 -0.0419 -0.2687 -0.2013
  962MOL0     C29793   4.498   2.567   7.082 -0.6907 -0.2017  0.5710
  962MOL0     O29794   4.559   2.456   7.041  0.3041  0.0148  0.4362
  962MOL0     C29795   4.590   2.442   6.894  0.3014  0.2366 -0.6046
  962MOL0     C29796   4.681   2.323   6.865 -0.2849  0.5581 -0.2603
  962MOL0     C29797   4.669   2.262   6.728  0.4336  0.0305  0.1192
  962MOL0     C29798   4.775   2.153   6.686  0.3716 -0.4038 -0.3408
  962MOL0     C29799   4.910   2.204   6.678  0.8223 -0.3689  0.5856
  962MOL0     C29800   5.021   2.250   6.669 -0.1265 -0.7402 -0.0378
  962MOL0     C29801   4.360   2.570   7.099 -0.2932 -0.6024  0.4510
  962MOL0     C29802   4.295   2.687   7.158  0.2637  0.5372 -0.7035
  962MOL0     H29803   4.506   3.120   7.462 -1.4156 -2.0513 -0.6992
  962MOL0     H29804   4.428   3.311   7.624  0.7359 -0.1848  0.0063
  962MOL0     H29805   4.196   3.443   7.778  1.9212 -0.9327 -1.3366
  962MOL0     H29806   4.323   3.547   7.719  0.0139  2.3430 -1.4304
  962MOL0     H29807   4.181   3.704   7.793 -1.3560  3.0768 -0.9332
  962MOL0     H29808   4.114   3.693   7.627 -2.0318  0.0929 -0.0647
  962MOL0     H29809   3.952   3.518   7.707 -3.1158  2.4727 -1.3134
  962MOL0     H29810   3.988   3.531   7.864 -1.0695 -2.7620 -1.1270
  962MOL0     H29811   3.907   3.771   7.868  2.8364 -0.0465 -0.2824
  962MOL0     H29812   3.909   3.769   7.690  2.0917 -2.2974 -0.4399
  962MOL0     H29813   3.729   3.589   7.705 -0.7940  1.1285 -2.0979
  962MOL0     H29814   3.706   3.636   7.880 -1.6539 -0.0055  0.3175
  962MOL0     H29815   3.641   3.859   7.833  2.2115 -1.5770  0.7566
  962MOL0     H29816   3.662   3.830   7.658  1.9019  1.9875  1.1115
  962MOL0     H29817   3.493   3.659   7.663  7.5562 -0.1547  0.3368
  962MOL0     H29818   3.449   3.709   7.830  1.5756 -3.7228 -0.5597
  962MOL0     H29819   3.443   3.888   7.581 -2.0332 -1.7756 -2.5368
  962MOL0     H29820   3.379   3.922   7.753  1.7587  1.4008 -0.2397
  962MOL0     H29821   3.183   3.769   7.821 -1.0734  0.2069  0.1272
  962MOL0     H29822   2.904   3.615   7.658  0.8858  1.4777 -1.5729
  962MOL0     H29823   2.928   3.720   7.798  3.3388 -4.5024  0.8958
  962MOL0     H29824   2.712   3.797   7.662 -0.6487  1.6367 -2.5692
  962MOL0     H29825   2.827   3.812   7.528  0.8197 -0.8263 -0.1419
  962MOL0     H29826   2.956   3.977   7.697  0.1878  0.2846 -2.9639
  962MOL0     H29827   2.825   3.943   7.807 -0.9420  2.2709  0.0895
  962MOL0     H29828   2.784   4.073   7.526  2.4386 -1.0689 -0.5407
  962MOL0     H29829   2.803   4.172   7.669  0.2684  0.8409 -2.5002
  962MOL0     H29830   2.400   3.956   7.637 -0.7550 -1.3718 -0.7458
  962MOL0     H29831   2.166   3.971   7.646 -0.4224  2.0144  1.8133
  962MOL0     H29832   2.081   4.107   7.598 -0.6159 -0.3373 -1.9373
  962MOL0     H29833   2.133   4.000   7.469 -2.5931  0.6103 -0.3288
  962MOL0     H29834   1.896   4.158   7.413  0.8273 -1.2782 -1.4291
  962MOL0     H29835   1.707   4.202   7.275 -0.4765  2.2781  0.6605
  962MOL0     H29836   1.537   4.299   7.224 -2.8390 -1.3669 -0.0130
  962MOL0     H29837   1.450   4.419   7.127  0.2222  0.7521 -0.7284
  962MOL0     H29838   1.659   4.231   7.004 -0.6619 -3.1577 -2.9237
  962MOL0     H29839   1.495   4.176   7.029 -0.2018 -0.0599  0.1839
  962MOL0     H29840   1.390   4.345   6.913 -0.4983  2.1281 -0.0264
  962MOL0     H29841   1.492   4.239   6.809 -0.6934  1.1234 -1.4182
  962MOL0     H29842   1.571   4.524   6.870  0.9554 -0.1030  0.3376
  962MOL0     H29843   1.671   4.404   6.790  0.1996  0.8892 -0.5479
  962MOL0     H29844   1.402   4.510   6.704 -0.0280 -1.4270  1.0260
  962MOL0     H29845   1.498   4.368   6.622  3.0646 -0.9449 -0.1550
  962MOL0     H29846   1.596   4.641   6.696 -5.0204 -1.9509  4.0802
  962MOL0     H29847   1.683   4.516   6.597 -0.6103 -3.7414  4.2964
  962MOL0     H29848   1.455   4.695   6.526 -2.5939 -1.1561 -1.2871
  962MOL0     H29849   1.464   4.542   6.431  2.4100  0.1985 -1.9183
  962MOL0     H29850   1.705   4.740   6.436  1.1945 -0.7878 -1.5832
  962MOL0     H29851   1.566   4.758   6.326 -0.9960  2.9085  3.8564
  962MOL0     H29852   1.888   4.576   7.159 -0.7970 -0.1264 -0.0227
  962MOL0     H29853   2.097   4.500   7.235  0.3742 -0.6823  1.6993
  962MOL0     H29854   2.438   4.426   7.516  2.3841 -0.9511  0.2787
  962MOL0     H29855   2.642   4.313   7.617 -0.6917  1.4398  5.7677
  962MOL0     H29856   4.095   3.360   7.356 -0.6232 -2.4411 -2.5969
  962MOL0     H29857   4.167   3.172   7.236  0.5031  1.5770 -1.0659
  962MOL0     H29858   4.581   2.877   7.194 -2.0152  1.3088  2.1356
  962MOL0     H29859   4.687   2.692   7.116 -0.1455  1.3997  1.7102
  962MOL0     H29860   4.490   2.419   6.855  0.0091 -1.8910  1.2030
  962MOL0     H29861   4.624   2.536   6.850 -0.9888  0.8418 -0.3676
  962MOL0     H29862   4.664   2.235   6.928  1.0920 -1.8222 -2.9477
  962MOL0     H29863   4.778   2.367   6.887 -0.2976  0.7417 -0.5691
  962MOL0     H29864   4.661   2.342   6.654 -0.8626 -2.3590 -2.5059
  962MOL0     H29865   4.569   2.219   6.719 -0.1105  1.6230 -3.9503
  962MOL0     H29866   4.743   2.096   6.598 -2.2351 -3.7420  2.4857
  962MOL0     H29867   4.770   2.064   6.749  0.6080 -0.8006 -0.8651
  962MOL0     H29868   5.120   2.289   6.653  0.3114 -2.2115 -1.1174
  962MOL0     H29869   4.291   2.490   7.073 -2.3715  1.2038  0.1063
  962MOL0     H29870   4.192   2.678   7.190  0.3753 -0.6250 -0.6308
  963MOL0     O29871   7.976   0.882   9.442 -0.5453 -0.3065  0.3372
  963MOL0     C29872   7.963   0.888   9.562 -0.3521 -0.3554  0.2617
  963MOL0     O29873   7.843   0.880   9.618  0.1446  0.6760 -0.2319
  963MOL0     C29874   7.738   0.846   9.534 -0.3851  0.2699 -0.7368
  963MOL0     C29875   7.616   0.904   9.568  0.5141  0.6534  0.5055
  963MOL0     C29876   7.494   0.865   9.502  0.0314  0.0065  1.0779
  963MOL0     C29877   7.496   0.756   9.410  0.8132  0.1394 -0.3667
  963MOL0     O29878   7.383   0.712   9.348 -0.0625  0.4561 -0.3655
  963MOL0     C29879   7.245   0.719   9.402 -0.4112 -0.1105  0.1038
  963MOL0     C29880   7.150   0.690   9.291 -0.2305  0.5142  0.0257
  963MOL0     C29881   7.176   0.758   9.155 -0.9305 -0.1235  1.1214
  963MOL0     C29882   7.200   0.911   9.161  0.1930 -0.6199 -0.3173
  963MOL0     C29883   7.135   0.981   9.043 -0.0069  0.2386  0.7598
  963MOL0     C29884   7.142   1.131   9.049  0.6877 -0.6646 -0.2333
  963MOL0     C29885   7.011   1.192   8.988 -0.2765  0.3035 -0.2919
  963MOL0     C29886   6.889   1.185   9.081  0.5654  0.9113 -0.1174
  963MOL0     N29887   6.782   1.270   9.019 -0.0151 -0.0069 -1.0271
  963MOL0     C29888   6.720   1.237   8.900  0.2012  0.5645  0.7110
  963MOL0     C29889   6.625   1.333   8.889  0.0049 -0.6547 -0.6059
  963MOL0     C29890   6.512   1.346   8.783 -0.0336  0.1792  0.2572
  963MOL0     C29891   6.541   1.463   8.687  0.1897 -0.7243 -0.4355
  963MOL0     C29892   6.430   1.500   8.587  1.2568 -0.5253 -0.5540
  963MOL0     C29893   6.282   1.454   8.601 -0.2522 -0.1967 -1.0464
  963MOL0     O29894   6.245   1.506   8.726  0.8982  0.1154 -0.4516
  963MOL0     C29895   6.112   1.517   8.760  0.4811  0.4776 -0.4694
  963MOL0     C29896   6.081   1.547   8.895 -0.0507  0.1229  0.3692
  963MOL0     C29897   5.954   1.569   8.946 -0.1399 -0.3612  0.1224
  963MOL0     C29898   5.939   1.609   9.087 -0.8026  0.0207  1.3494
  963MOL0     C29899   5.846   1.535   8.860  0.1208 -0.1435  0.7934
  963MOL0     C29900   5.705   1.534   8.902  0.4089 -0.0731 -0.1779
  963MOL0     O29901   5.646   1.420   8.862  0.3531 -0.9949  0.1767
  963MOL0     C29902   5.515   1.416   8.894  0.5941 -0.5502  0.3841
  963MOL0     C29903   5.467   1.317   8.980 -0.3872 -0.0206  0.4415
  963MOL0     C29904   5.327   1.291   8.989  0.5198  0.2863  0.0432
  963MOL0     C29905   5.230   1.369   8.922 -0.7778  0.8888  0.3941
  963MOL0     O29906   5.107   1.338   8.955 -0.7629 -0.1307  0.5554
  963MOL0     C29907   5.028   1.454   8.981  0.3298  0.7090  0.5877
  963MOL0     C29908   4.933   1.488   8.863  0.5313 -1.3240  1.5514
  963MOL0     C29909   4.841   1.380   8.831 -0.4829 -0.1186 -0.4976
  963MOL0     C29910   4.723   1.424   8.749  0.1712  0.6626  0.3875
  963MOL0     C29911   4.640   1.298   8.734  0.8638  0.3167  0.1956
  963MOL0     C29912   4.486   1.321   8.720 -0.1892 -0.2079 -0.1023
  963MOL0     C29913   4.415   1.378   8.848  0.0766 -0.3079  0.0062
  963MOL0     C29914   4.259   1.341   8.842 -0.2087 -0.0289  0.0825
  963MOL0    Cl29915   4.172   1.397   8.983  0.0519  0.1963 -0.1246
  963MOL0     C29916   5.281   1.470   8.835  1.2723 -0.4807  0.2252
  963MOL0     C29917   5.418   1.486   8.820 -0.1208  0.4867 -0.2055
  963MOL0     O29918   5.657   1.640   8.942 -0.3294 -0.3344  0.0864
  963MOL0     C29919   5.870   1.490   8.725  0.1474 -0.1576  0.5338
  963MOL0     C29920   6.003   1.492   8.678  0.1419  0.0436  0.1989
  963MOL0     N29921   6.643   1.426   8.986  0.3645  0.9558  0.6213
  963MOL0     N29922   6.738   1.388   9.057  0.2212 -0.6264 -0.6409
  963MOL0     C29923   7.616   0.698   9.379  0.3030 -0.0009  0.0152
  963MOL0     C29924   7.737   0.742   9.442 -0.1450 -0.8293  0.3184
  963MOL0     C29925   8.084   0.905   9.643 -0.1814  0.8992 -0.0038
  963MOL0     C29926   8.207   0.895   9.577  0.1684  0.2645 -0.3119
  963MOL0     C29927   8.327   0.895   9.643 -0.0980 -0.3302  0.8928
  963MOL0     C29928   8.325   0.922   9.777 -0.5864 -0.4909 -0.1438
  963MOL0     O29929   8.450   0.908   9.841 -0.0793 -0.2585  0.5298
  963MOL0     C29930   8.452   0.863   9.975 -1.0738  0.3589  0.6166
  963MOL0     C29931   8.593   0.817  10.007  0.4205 -0.1293  0.5277
  963MOL0     C29932   8.607   0.726  10.135 -0.7845  1.1392 -0.6699
  963MOL0     C29933   8.550   0.587  10.107 -0.1212 -0.1698  0.3404
  963MOL0     C29934   8.604   0.498  10.208  0.5169 -0.0261 -0.2456
  963MOL0     C29935   8.650   0.404  10.276 -0.2437  0.1402 -0.4039
  963MOL0     C29936   8.205   0.936   9.852  0.5456  0.3852 -0.4719
  963MOL0     C29937   8.087   0.935   9.780 -0.1781 -0.7249 -0.3515
  963MOL0     H29938   7.598   0.985   9.638  0.4230  1.4893 -0.4646
  963MOL0     H29939   7.401   0.905   9.541 -0.6020 -1.4677  1.1416
  963MOL0     H29940   7.231   0.643   9.480  0.1476  0.6902  1.0100
  963MOL0     H29941   7.225   0.810   9.458  0.3418  0.1220 -0.0014
  963MOL0     H29942   7.151   0.580   9.283  0.3418  0.5742 -0.9231
  963MOL0     H29943   7.050   0.722   9.322 -0.7284  1.6210 -2.4395
  963MOL0     H29944   7.266   0.707   9.120 -2.7539 -2.8811  0.1383
  963MOL0     H29945   7.096   0.741   9.083 -0.7612 -0.1575  0.9423
  963MOL0     H29946   7.164   0.955   9.254 -0.3284  1.2573 -1.3562
  963MOL0     H29947   7.308   0.926   9.157  0.0046  1.5691  1.1080
  963MOL0     H29948   7.179   0.934   8.954 -3.4202 -2.7404  0.3989
  963MOL0     H29949   7.029   0.957   9.055 -0.8731  3.5818  0.8646
  963MOL0     H29950   7.160   1.166   9.151 -1.6461  1.4887 -0.4589
  963MOL0     H29951   7.223   1.171   8.988  0.4297 -0.6125 -0.5469
  963MOL0     H29952   7.033   1.299   8.977  0.2115  0.1516 -0.8121
  963MOL0     H29953   6.984   1.146   8.893  0.5843 -2.6016  0.7754
  963MOL0     H29954   6.909   1.226   9.180 -1.4968  1.0132  0.3073
  963MOL0     H29955   6.843   1.086   9.080  1.3977  0.4889 -2.3986
  963MOL0     H29956   6.739   1.157   8.829 -0.9444 -1.7844  2.9186
  963MOL0     H29957   6.507   1.250   8.730 -0.1851 -1.6973  3.4430
  963MOL0     H29958   6.417   1.362   8.833 -1.2823 -2.4006 -1.0853
  963MOL0     H29959   6.630   1.446   8.625  0.6216  2.4316 -0.8094
  963MOL0     H29960   6.553   1.550   8.752 -1.3087  0.1976 -1.3371
  963MOL0     H29961   6.450   1.462   8.486  1.2670 -0.0832 -0.7192
  963MOL0     H29962   6.434   1.609   8.584 -0.0532 -0.4708 -2.4102
  963MOL0     H29963   6.260   1.348   8.587 -1.0536 -0.5548  2.2023
  963MOL0     H29964   6.233   1.506   8.518  0.3800  0.4054 -1.0442
  963MOL0     H29965   6.169   1.552   8.960  0.6324  4.6635 -0.5460
  963MOL0     H29966   5.873   1.695   9.088 -2.1202 -0.7806 -2.2081
  963MOL0     H29967   5.887   1.526   9.137 -3.4967 -1.3031 -3.1223
  963MOL0     H29968   6.038   1.622   9.133 -1.0127  0.0236  1.8144
  963MOL0     H29969   5.530   1.253   9.040 -1.0408 -1.0215  0.0800
  963MOL0     H29970   5.298   1.214   9.060  0.1754  1.7149  1.5120
  963MOL0     H29971   4.975   1.417   9.069 -1.9672  0.6246 -0.7562
  963MOL0     H29972   5.074   1.547   9.016 -0.0842  0.1940  2.6625
  963MOL0     H29973   4.887   1.583   8.891  1.6854 -0.5445  0.8977
  963MOL0     H29974   4.987   1.510   8.770 -1.3583 -0.1384  0.6728
  963MOL0     H29975   4.802   1.343   8.926 -1.6288  4.3835  0.9788
  963MOL0     H29976   4.897   1.295   8.789  0.7340 -0.0852  0.9641
  963MOL0     H29977   4.670   1.492   8.817 -0.7239 -1.3654  1.8393
  963MOL0     H29978   4.745   1.465   8.651  3.5107  0.5087  0.9439
  963MOL0     H29979   4.655   1.222   8.811  2.3829  1.4564  1.0872
  963MOL0     H29980   4.681   1.248   8.645  1.4268  1.1413 -0.0186
  963MOL0     H29981   4.480   1.402   8.648  3.6302  0.4443  0.0981
  963MOL0     H29982   4.442   1.225   8.689 -3.4448  2.1010 -3.6212
  963MOL0     H29983   4.420   1.487   8.845  1.1391 -0.3631 -1.7173
  963MOL0     H29984   4.451   1.332   8.940 -2.2452 -0.9057  0.7039
  963MOL0     H29985   4.243   1.233   8.841  1.6697 -0.3309  0.2170
  963MOL0     H29986   4.222   1.381   8.747  2.9279 -1.5060 -1.9361
  963MOL0     H29987   5.219   1.535   8.773  1.7023 -0.9334 -0.6891
  963MOL0     H29988   5.466   1.551   8.748  2.0545 -1.5089 -0.6623
  963MOL0     H29989   5.789   1.464   8.658 -1.3453  2.9460  0.9433
  963MOL0     H29990   6.016   1.481   8.571 -1.4979  0.8100 -0.1163
  963MOL0     H29991   7.611   0.617   9.307 -3.6474 -0.0787  0.1223
  963MOL0     H29992   7.831   0.692   9.423  0.8692  1.8720 -2.7555
  963MOL0     H29993   8.216   0.891   9.469  1.2202  2.5221 -0.3584
  963MOL0     H29994   8.416   0.901   9.581 -0.4401  1.2588  0.4950
  963MOL0     H29995   8.425   0.950  10.035 -0.3064  0.8609  0.2536
  963MOL0     H29996   8.378   0.785   9.995  0.2017 -0.4244  2.4953
  963MOL0     H29997   8.657   0.904  10.022  2.4128 -1.0797 -1.7480
  963MOL0     H29998   8.634   0.774   9.915  0.8368 -0.8823  1.0476
  963MOL0     H29999   8.565   0.781  10.220  2.5228  0.9829  1.2762
  963MOL0     H30000   8.713   0.729  10.162 -1.2396  1.6601  1.2099
  963MOL0     H30001   8.602   0.552  10.018 -2.0772 -0.2814 -0.8227
  963MOL0     H30002   8.441   0.577  10.105 -0.0060 -1.3629 -0.4249
  963MOL0     H30003   8.701   0.326  10.329  1.0965  2.0709  1.2911
  963MOL0     H30004   8.205   0.943   9.960 -1.2638  3.8770 -0.5330
  963MOL0     H30005   7.996   0.937   9.838  0.3844 -0.9179  0.5582
  964MOL0     O30006   7.571   5.196   2.751 -0.3040  0.1372 -0.4174
  964MOL0     C30007   7.625   5.233   2.650 -0.4134  0.1588 -0.1089
  964MOL0     O30008   7.552   5.283   2.545 -0.2589  1.2553 -0.0456
  964MOL0     C30009   7.420   5.242   2.538 -1.0929 -0.7310 -0.3123
  964MOL0     C30010   7.331   5.353   2.535 -0.3941  0.1182 -0.6675
  964MOL0     C30011   7.187   5.343   2.532 -0.8208  0.4266 -0.2374
  964MOL0     C30012   7.140   5.207   2.529 -0.4001 -0.3757  0.4430
  964MOL0     O30013   7.009   5.175   2.521 -0.3598 -0.2326 -0.6009
  964MOL0     C30014   6.911   5.265   2.561 -0.4106 -0.3020 -0.0374
  964MOL0     C30015   6.762   5.226   2.567  0.1405 -0.3430  0.2973
  964MOL0     C30016   6.719   5.171   2.428 -0.1113  0.2155  0.4118
  964MOL0     C30017   6.570   5.186   2.402 -0.9551  0.3643 -0.4925
  964MOL0     C30018   6.523   5.081   2.311 -0.1414 -0.3558 -0.8056
  964MOL0     C30019   6.365   5.082   2.295  0.2189 -0.9233  0.8150
  964MOL0     C30020   6.284   5.008   2.405 -1.4387 -0.0941  0.5473
  964MOL0     C30021   6.154   4.947   2.355  0.1255 -0.0602 -0.8849
  964MOL0     N30022   6.056   5.046   2.300 -1.0081  0.1605  0.5769
  964MOL0     C30023   6.025   5.165   2.350 -0.2252 -0.1102  0.4250
  964MOL0     C30024   5.961   5.239   2.258  1.2808  0.2444  0.4700
  964MOL0     C30025   5.879   5.363   2.275  0.3573  0.2899 -0.2652
  964MOL0     C30026   5.734   5.328   2.285 -0.9121 -0.1570  0.2501
  964MOL0     C30027   5.649   5.287   2.164 -0.3271  0.4404  0.3938
  964MOL0     C30028   5.665   5.373   2.042  0.4786  0.1645  0.1255
  964MOL0     O30029   5.605   5.317   1.924 -0.5497  0.7720  0.8713
  964MOL0     C30030   5.462   5.329   1.901 -0.4173 -0.4444 -0.6434
  964MOL0     C30031   5.378   5.416   1.976 -0.1165 -0.0666 -0.1901
  964MOL0     C30032   5.238   5.406   1.975 -1.0312 -0.4826 -0.1252
  964MOL0     C30033   5.165   5.505   2.065 -0.5643 -0.3997  0.6200
  964MOL0     C30034   5.175   5.305   1.903 -0.3311 -0.2006  0.6090
  964MOL0     C30035   5.033   5.272   1.912 -0.4169  0.7035 -0.4501
  964MOL0     O30036   4.991   5.166   1.828 -0.7642 -0.0591  0.4593
  964MOL0     C30037   4.872   5.107   1.856 -0.1667  0.2235  0.1147
  964MOL0     C30038   4.855   5.000   1.941  0.2249 -0.2111 -0.6814
  964MOL0     C30039   4.732   4.938   1.959  0.2437 -0.2110 -0.8558
  964MOL0     C30040   4.623   4.972   1.883  0.6005  0.2650 -0.0650
  964MOL0     O30041   4.517   4.899   1.906  0.0287  0.2111  0.2460
  964MOL0     C30042   4.399   4.933   1.833 -0.2511 -0.4200 -0.1934
  964MOL0     C30043   4.272   4.842   1.859 -0.6590  0.1493 -0.1938
  964MOL0     C30044   4.156   4.892   1.783  0.3838 -0.0059 -0.6564
  964MOL0     C30045   4.060   4.979   1.860 -0.2889 -0.2279 -0.0511
  964MOL0     C30046   3.915   4.994   1.811 -0.3315 -0.1586  0.3426
  964MOL0     C30047   3.857   5.102   1.902 -0.9508  0.4211 -0.6755
  964MOL0     C30048   3.706   5.128   1.876  0.2904  0.3820 -0.3594
  964MOL0     C30049   3.631   5.198   1.983  0.6400 -1.1498 -0.6926
  964MOL0    Cl30050   3.680   5.370   1.976  0.5468 -0.2175  0.2634
  964MOL0     C30051   4.633   5.088   1.807 -0.0501  0.0309 -0.0866
  964MOL0     C30052   4.756   5.146   1.789  0.6735 -0.5115 -0.3647
  964MOL0     O30053   4.957   5.326   1.986  0.3014  0.5464  0.0538
  964MOL0     C30054   5.257   5.230   1.814 -1.0724 -0.3831 -0.6928
  964MOL0     C30055   5.397   5.239   1.816  0.4822  0.9048  0.0640
  964MOL0     N30056   5.952   5.160   2.141 -0.1340  0.8408  0.5032
  964MOL0     N30057   6.012   5.047   2.170  0.4243  0.2862 -0.5982
  964MOL0     C30058   7.227   5.098   2.529 -0.5704  0.1662  0.6097
  964MOL0     C30059   7.370   5.115   2.532  0.5848 -1.1931 -0.5684
  964MOL0     C30060   7.770   5.270   2.661 -0.6557 -1.0375  0.0685
  964MOL0     C30061   7.831   5.360   2.568 -0.0367  0.1607  0.0507
  964MOL0     C30062   7.961   5.400   2.587  0.5326 -0.1337 -0.2166
  964MOL0     C30063   8.047   5.344   2.683 -0.6157 -0.1965 -0.3546
  964MOL0     O30064   8.180   5.381   2.672 -0.2406 -0.7322 -0.4309
  964MOL0     C30065   8.260   5.380   2.796 -0.6933  0.0335  0.0361
  964MOL0     C30066   8.383   5.473   2.788  0.4612  0.0822  0.4093
  964MOL0     C30067   8.341   5.612   2.741  0.3806 -0.1618 -0.2158
  964MOL0     C30068   8.433   5.721   2.743 -0.2988 -0.7351 -0.5101
  964MOL0     C30069   8.561   5.698   2.677  0.2579  0.0724  0.0232
  964MOL0     C30070   8.652   5.664   2.605  0.2241  0.5591 -0.8248
  964MOL0     C30071   7.981   5.261   2.783 -0.2712 -0.3460 -0.5553
  964MOL0     C30072   7.848   5.223   2.770 -0.3467 -0.1281  0.1429
  964MOL0     H30073   7.366   5.450   2.570  0.2757  0.1309 -1.3537
  964MOL0     H30074   7.121   5.429   2.538  1.2616  2.0189  1.2961
  964MOL0     H30075   6.935   5.298   2.663 -3.3925 -1.1167  1.0334
  964MOL0     H30076   6.921   5.350   2.492  1.3501 -1.6994 -1.6209
  964MOL0     H30077   6.743   5.155   2.648 -0.1020 -1.0444 -0.3609
  964MOL0     H30078   6.711   5.321   2.584  0.1391 -0.5280  1.3766
  964MOL0     H30079   6.774   5.214   2.344 -1.8187 -0.2193 -0.9908
  964MOL0     H30080   6.740   5.063   2.433 -0.8397  0.0452 -0.0275
  964MOL0     H30081   6.530   5.170   2.503 -0.9060 -0.6145 -0.6280
  964MOL0     H30082   6.546   5.288   2.368  2.9229  1.3867 -0.5869
  964MOL0     H30083   6.568   5.096   2.212 -0.8077  1.3094 -0.8970
  964MOL0     H30084   6.554   4.982   2.343  1.1895 -0.4283 -2.1623
  964MOL0     H30085   6.335   5.187   2.305 -0.9305 -1.1928  0.2963
  964MOL0     H30086   6.330   5.051   2.196 -1.4986 -4.5203  2.3746
  964MOL0     H30087   6.350   4.935   2.452  0.0043  2.9385  3.6284
  964MOL0     H30088   6.254   5.082   2.479 -0.0482  0.6640  0.3745
  964MOL0     H30089   6.103   4.898   2.438  2.7236 -2.5086 -0.5829
  964MOL0     H30090   6.192   4.871   2.286  2.4410 -0.7429  1.0086
  964MOL0     H30091   6.025   5.200   2.452 -1.4489 -0.2862  0.5037
  964MOL0     H30092   5.922   5.407   2.366 -1.3685 -3.4089  2.5813
  964MOL0     H30093   5.897   5.439   2.198 -1.2312 -1.0046 -1.9918
  964MOL0     H30094   5.686   5.415   2.330 -0.6916  0.4798 -0.7047
  964MOL0     H30095   5.729   5.249   2.361  1.6109 -1.0630 -0.4260
  964MOL0     H30096   5.542   5.283   2.189 -0.4633  1.2146 -0.0071
  964MOL0     H30097   5.671   5.183   2.137  1.0515  0.9052 -0.3822
  964MOL0     H30098   5.772   5.374   2.021  0.0906 -1.1173 -2.3265
  964MOL0     H30099   5.626   5.474   2.057 -0.1307 -0.0448 -0.0027
  964MOL0     H30100   5.418   5.489   2.045  0.5143 -0.0079 -0.6061
  964MOL0     H30101   5.076   5.543   2.015  0.8055  1.6883 -0.3825
  964MOL0     H30102   5.149   5.456   2.162 -2.2271 -0.3530  0.4013
  964MOL0     H30103   5.226   5.595   2.081 -2.7326  1.9640 -3.1534
  964MOL0     H30104   4.948   4.960   1.980 -0.5457  0.2874  1.7941
  964MOL0     H30105   4.736   4.849   2.021  0.4805  0.7673  0.5832
  964MOL0     H30106   4.381   5.037   1.860  1.8666  0.0713 -0.4959
  964MOL0     H30107   4.414   4.924   1.725  0.1835 -0.0813 -0.1633
  964MOL0     H30108   4.300   4.738   1.841 -1.1804  0.1775 -1.2071
  964MOL0     H30109   4.259   4.840   1.968  2.7999 -1.7875  0.3258
  964MOL0     H30110   4.104   4.800   1.754 -3.6624  0.5288  3.6759
  964MOL0     H30111   4.177   4.952   1.693 -4.6296  1.1392 -1.3745
  964MOL0     H30112   4.064   4.960   1.967 -1.1969  2.0126  0.4430
  964MOL0     H30113   4.107   5.077   1.854  2.8363 -1.6417 -0.2429
  964MOL0     H30114   3.852   4.906   1.828 -0.0773 -0.4804 -0.3317
  964MOL0     H30115   3.924   5.015   1.704  2.6693  0.0321  0.5554
  964MOL0     H30116   3.878   5.076   2.006  0.5403 -0.6253 -1.2153
  964MOL0     H30117   3.912   5.197   1.896  0.7149 -0.0587  3.5204
  964MOL0     H30118   3.658   5.035   1.847 -0.8940  0.8297  0.1051
  964MOL0     H30119   3.702   5.183   1.782 -1.6345  0.3477 -0.3272
  964MOL0     H30120   3.649   5.174   2.088 -0.2019 -0.6836 -0.4285
  964MOL0     H30121   3.523   5.188   1.975  0.6055 -0.3547 -1.4073
  964MOL0     H30122   4.550   5.127   1.748  0.2953 -1.2308 -1.4803
  964MOL0     H30123   4.767   5.229   1.719 -1.4666  0.1796  0.0299
  964MOL0     H30124   5.211   5.166   1.738  0.7874  0.9785 -3.1179
  964MOL0     H30125   5.471   5.179   1.764  0.3934  2.6262 -2.2292
  964MOL0     H30126   7.183   5.000   2.515  0.6367  0.0768 -4.6842
  964MOL0     H30127   7.444   5.037   2.546  0.6962 -0.7399  1.8397
  964MOL0     H30128   7.773   5.409   2.490 -1.1522  2.8381  2.3987
  964MOL0     H30129   8.000   5.470   2.513 -1.0850  1.3155  0.2146
  964MOL0     H30130   8.205   5.415   2.883 -0.0585 -0.4199  0.6265
  964MOL0     H30131   8.288   5.277   2.823 -0.4808  0.4540  1.4974
  964MOL0     H30132   8.458   5.420   2.729 -0.8482 -1.9854  0.4837
  964MOL0     H30133   8.421   5.484   2.890  0.2478 -1.2766  0.6548
  964MOL0     H30134   8.252   5.646   2.794  1.0633  0.4699  0.5515
  964MOL0     H30135   8.311   5.598   2.637 -0.4687  3.8994 -0.6569
  964MOL0     H30136   8.455   5.724   2.850 -0.1185 -3.7211 -0.3748
  964MOL0     H30137   8.399   5.820   2.710 -0.7940 -1.1380 -1.2266
  964MOL0     H30138   8.736   5.634   2.545  1.0440 -0.7465  0.9009
  964MOL0     H30139   8.049   5.216   2.854 -1.5314 -0.1412  0.8216
  964MOL0     H30140   7.814   5.152   2.845  1.9915 -0.0409  1.3739
  965MOL0     O30141   8.034   7.082   4.925 -0.0215  0.6375  0.7628
  965MOL0     C30142   8.010   7.125   4.808 -0.3022 -0.0810 -0.6949
  965MOL0     O30143   8.099   7.130   4.701 -0.4668 -0.1336 -0.5202
  965MOL0     C30144   8.233   7.085   4.711 -0.5164  0.1773  0.3842
  965MOL0     C30145   8.282   7.049   4.591  0.4900 -0.2911  0.2338
  965MOL0     C30146   8.408   7.002   4.567 -0.7849 -0.3908  0.8055
  965MOL0     C30147   8.497   7.005   4.673 -0.4313  0.0560  0.7678
  965MOL0     O30148   8.631   6.964   4.672 -0.0961  0.0990  0.0675
  965MOL0     C30149   8.685   6.955   4.535  0.0834  0.3543 -1.0111
  965MOL0     C30150   8.822   6.913   4.552 -0.0193 -0.2704 -0.5691
  965MOL0     C30151   8.898   6.912   4.418  0.0581  0.1609  0.2983
  965MOL0     C30152   9.020   6.817   4.409  0.1128 -0.6434 -0.2129
  965MOL0     C30153   8.971   6.682   4.362  0.3007  0.0057  0.1594
  965MOL0     C30154   9.087   6.577   4.349 -0.3376 -0.7784 -0.0883
  965MOL0     C30155   9.046   6.458   4.260  0.4028  0.0532 -0.3067
  965MOL0     C30156   9.135   6.347   4.283  0.6861 -0.0313 -0.8553
  965MOL0     N30157   9.105   6.234   4.188  0.2264  0.4542  0.1104
  965MOL0     C30158   9.010   6.138   4.200 -1.1388  0.3945 -0.4633
  965MOL0     C30159   9.038   6.048   4.099  0.6193 -0.2557 -1.0246
  965MOL0     C30160   8.971   5.913   4.086 -0.7035  0.1085 -0.0207
  965MOL0     C30161   9.081   5.813   4.059  0.4805  0.1996 -0.0102
  965MOL0     C30162   9.034   5.662   4.081  0.5895 -1.0514  0.5464
  965MOL0     C30163   8.902   5.632   4.007 -0.8898 -0.4447  0.9767
  965MOL0     O30164   8.901   5.666   3.867 -0.2059  0.3562  0.1835
  965MOL0     C30165   8.782   5.648   3.804  0.3280 -0.7033 -0.0783
  965MOL0     C30166   8.783   5.680   3.662  0.1241  0.7232  0.0827
  965MOL0     C30167   8.667   5.665   3.586  0.1517  0.5134  0.0288
  965MOL0     C30168   8.674   5.709   3.444 -0.3502  0.5371 -0.2015
  965MOL0     C30169   8.544   5.615   3.644  0.3751 -0.7657 -0.5279
  965MOL0     C30170   8.421   5.583   3.563  0.8447  0.3650 -1.0151
  965MOL0     O30171   8.308   5.555   3.643  0.0312  0.8741 -0.8190
  965MOL0     C30172   8.179   5.528   3.596  0.7590 -0.6477 -0.3537
  965MOL0     C30173   8.137   5.525   3.463 -0.4904 -0.4903  0.4735
  965MOL0     C30174   8.005   5.494   3.442 -0.7245  0.2911 -0.8455
  965MOL0     C30175   7.908   5.491   3.549  1.2195  0.1721  0.0582
  965MOL0     O30176   7.776   5.479   3.522 -0.7305  0.2626  0.0300
  965MOL0     C30177   7.701   5.399   3.613 -0.1549  0.1674  0.0752
  965MOL0     C30178   7.567   5.356   3.558 -0.7156  0.5792 -1.0936
  965MOL0     C30179   7.578   5.250   3.439 -0.3479 -0.5351 -0.2256
  965MOL0     C30180   7.435   5.223   3.385  0.1066  0.0101 -0.4928
  965MOL0     C30181   7.442   5.101   3.287 -0.5798 -0.4407 -0.2437
  965MOL0     C30182   7.299   5.027   3.275  0.4116 -0.7132 -0.1635
  965MOL0     C30183   7.292   4.904   3.181  0.2428 -1.0238 -0.4700
  965MOL0     C30184   7.213   4.784   3.246 -0.2065 -0.1544 -0.3808
  965MOL0    Cl30185   7.050   4.835   3.285 -0.3905 -0.1678 -0.1401
  965MOL0     C30186   7.958   5.505   3.682 -0.2557  0.5529  0.3666
  965MOL0     C30187   8.089   5.520   3.700 -0.3571 -0.1671  0.4063
  965MOL0     O30188   8.428   5.562   3.444 -0.2898 -0.3689  0.0535
  965MOL0     C30189   8.549   5.582   3.787 -0.0054  1.1852  0.5429
  965MOL0     C30190   8.664   5.593   3.861 -0.0309  0.1691  0.2490
  965MOL0     N30191   9.143   6.097   4.016 -1.4574 -0.0026 -0.9505
  965MOL0     N30192   9.178   6.204   4.082 -0.3529  0.1953  0.1839
  965MOL0     C30193   8.446   7.043   4.802  1.0153  0.0783 -0.5629
  965MOL0     C30194   8.317   7.078   4.826  0.8875  0.2794  0.3962
  965MOL0     C30195   7.873   7.170   4.792  0.4905  0.3521  0.6028
  965MOL0     C30196   7.786   7.195   4.895  0.6474  0.4264 -0.1439
  965MOL0     C30197   7.651   7.236   4.871 -0.6085  0.8358 -0.2566
  965MOL0     C30198   7.606   7.261   4.740 -0.5882  0.1912 -0.4317
  965MOL0     O30199   7.484   7.301   4.708 -0.0604 -0.3954 -0.5474
  965MOL0     C30200   7.384   7.333   4.809 -0.4374 -0.9127 -0.3607
  965MOL0     C30201   7.248   7.376   4.758 -0.0804  0.7400  0.5162
  965MOL0     C30202   7.250   7.476   4.644 -0.1012  0.4232  0.4880
  965MOL0     C30203   7.119   7.504   4.586  0.1736 -0.2070 -0.7830
  965MOL0     C30204   7.065   7.395   4.503  0.0784 -0.1550 -0.3734
  965MOL0     C30205   7.039   7.299   4.436 -0.0031  0.2381 -0.8650
  965MOL0     C30206   7.697   7.243   4.634 -0.1407  0.8620  0.6636
  965MOL0     C30207   7.822   7.186   4.661 -0.3220 -0.4582 -0.6175
  965MOL0     H30208   8.208   7.039   4.512  0.3732 -1.8500  0.4972
  965MOL0     H30209   8.432   6.972   4.465  0.9644 -0.1722  1.1142
  965MOL0     H30210   8.634   6.880   4.473 -0.7109  1.1909 -1.3892
  965MOL0     H30211   8.690   7.053   4.487 -1.6690  0.1506 -1.6812
  965MOL0     H30212   8.875   6.977   4.624 -0.2843  0.0257 -0.6321
  965MOL0     H30213   8.817   6.812   4.593 -2.3801  0.0275  0.0214
  965MOL0     H30214   8.827   6.892   4.338  0.1708 -1.2382  0.5181
  965MOL0     H30215   8.937   7.013   4.408 -0.7851  0.6367  1.5208
  965MOL0     H30216   9.091   6.863   4.339  0.0362 -1.0750 -0.5795
  965MOL0     H30217   9.073   6.810   4.504  2.4925  3.2737 -1.0030
  965MOL0     H30218   8.893   6.646   4.429  0.1703 -2.1162 -1.0485
  965MOL0     H30219   8.916   6.694   4.268 -0.0431 -3.6070 -0.2647
  965MOL0     H30220   9.178   6.629   4.317  0.5735 -1.7246  0.8627
  965MOL0     H30221   9.097   6.529   4.447 -0.0651  2.1203  1.4118
  965MOL0     H30222   8.947   6.423   4.290 -0.6241  2.8513 -0.1057
  965MOL0     H30223   9.038   6.492   4.156 -1.0029 -1.0221 -0.5820
  965MOL0     H30224   9.139   6.306   4.384  1.1433 -3.0458 -1.9986
  965MOL0     H30225   9.238   6.377   4.265  1.2053  1.0387  3.0394
  965MOL0     H30226   8.931   6.135   4.274  0.4184  0.3602  1.2629
  965MOL0     H30227   8.914   5.888   4.176 -0.7563 -0.7027 -0.2763
  965MOL0     H30228   8.894   5.907   4.009  0.0348  1.9582 -0.9599
  965MOL0     H30229   9.167   5.843   4.120 -0.3342 -0.8252  1.7119
  965MOL0     H30230   9.113   5.815   3.954 -0.3398  0.0465 -0.2694
  965MOL0     H30231   9.016   5.651   4.188  0.4006  4.7930  1.4706
  965MOL0     H30232   9.115   5.597   4.048 -0.4501 -0.9505 -2.5310
  965MOL0     H30233   8.841   5.706   4.060 -1.5254  0.4069 -0.8406
  965MOL0     H30234   8.867   5.530   4.024 -0.4661 -0.7785 -0.0788
  965MOL0     H30235   8.869   5.721   3.610 -0.5894  0.0434 -1.7044
  965MOL0     H30236   8.766   5.765   3.424  0.1842 -0.8264 -1.7899
  965MOL0     H30237   8.685   5.618   3.384  2.1526  0.2012  0.6303
  965MOL0     H30238   8.588   5.774   3.426 -0.0277  0.9053 -0.4254
  965MOL0     H30239   8.205   5.527   3.378 -1.0437 -2.0495 -0.0355
  965MOL0     H30240   7.964   5.478   3.343 -2.4920  0.5492 -0.1977
  965MOL0     H30241   7.756   5.306   3.632 -0.4774 -0.1215 -0.3746
  965MOL0     H30242   7.696   5.441   3.714 -2.5699 -1.6306  0.7743
  965MOL0     H30243   7.505   5.312   3.636  0.2009  1.6800  0.3187
  965MOL0     H30244   7.521   5.454   3.542 -1.2501  0.4287 -0.5124
  965MOL0     H30245   7.633   5.163   3.476 -1.5300 -0.5892  1.5458
  965MOL0     H30246   7.635   5.285   3.353  1.9732 -0.0753  1.3802
  965MOL0     H30247   7.361   5.208   3.463 -0.8013  0.4382 -1.2448
  965MOL0     H30248   7.406   5.315   3.333 -1.1161  2.1992  3.6353
  965MOL0     H30249   7.517   5.027   3.315  0.2992  1.2395  2.1863
  965MOL0     H30250   7.476   5.147   3.193 -1.7911  0.9252 -0.0461
  965MOL0     H30251   7.266   5.001   3.376 -2.0560  2.5375  0.0135
  965MOL0     H30252   7.226   5.100   3.241  0.8137 -0.5608 -0.7065
  965MOL0     H30253   7.395   4.869   3.165  0.1221 -0.3041 -3.4003
  965MOL0     H30254   7.254   4.924   3.081 -0.0001 -0.3317 -0.2382
  965MOL0     H30255   7.253   4.756   3.344  0.4604 -1.6049 -1.0263
  965MOL0     H30256   7.213   4.691   3.189 -0.5011  0.0112 -0.6540
  965MOL0     H30257   7.905   5.508   3.777 -0.2967  0.5767  0.3431
  965MOL0     H30258   8.113   5.510   3.806 -3.8605 -2.6189  1.1598
  965MOL0     H30259   8.467   5.532   3.837  1.2164 -0.9364  0.5480
  965MOL0     H30260   8.636   5.559   3.960  2.1219 -1.2759  0.4313
  965MOL0     H30261   8.506   7.056   4.892 -1.4340  1.7366  0.9411
  965MOL0     H30262   8.279   7.124   4.916  0.7838  0.6305  0.1743
  965MOL0     H30263   7.823   7.180   4.996 -1.9235  3.3892  1.4166
  965MOL0     H30264   7.587   7.260   4.956  0.5524  2.3628  0.2333
  965MOL0     H30265   7.375   7.244   4.872  0.6765 -0.1861  0.8863
  965MOL0     H30266   7.412   7.415   4.875  1.9003 -1.4197 -0.6492
  965MOL0     H30267   7.179   7.409   4.837 -0.2349  0.9319  0.3002
  965MOL0     H30268   7.210   7.283   4.714  0.8199 -0.5705  2.3344
  965MOL0     H30269   7.316   7.444   4.564 -0.4450  1.7640 -0.3714
  965MOL0     H30270   7.297   7.563   4.692 -1.5207  1.5387 -0.0723
  965MOL0     H30271   7.129   7.589   4.517  2.3165  0.8889  0.7540
  965MOL0     H30272   7.055   7.530   4.671 -0.0723 -2.4682 -0.2176
  965MOL0     H30273   7.021   7.224   4.362  1.4575 -0.1900 -0.8315
  965MOL0     H30274   7.677   7.268   4.531 -0.0776  1.3218  0.7617
  965MOL0     H30275   7.879   7.167   4.571  0.3495 -1.4300 -0.0101
  966MOL0     O30276   4.122   0.097  11.282 -0.5937  1.0092 -0.3944
  966MOL0     C30277   4.192   0.117  11.180  0.2372  0.2513 -0.6766
  966MOL0     O30278   4.145   0.160  11.055  0.2210  0.3085  0.0303
  966MOL0     C30279   4.012   0.186  11.048  0.4774 -0.5205  0.0496
  966MOL0     C30280   3.984   0.295  10.967 -0.0974  0.1019  0.5726
  966MOL0     C30281   3.852   0.335  10.947  0.0001 -0.4436  0.2608
  966MOL0     C30282   3.743   0.265  10.998 -0.8879  0.0922 -0.4702
  966MOL0     O30283   3.620   0.320  10.983  0.0386  0.0588  0.3781
  966MOL0     C30284   3.549   0.346  11.109 -0.5697  0.2391  0.2691
  966MOL0     C30285   3.423   0.442  11.076 -0.2040  0.1104 -0.0239
  966MOL0     C30286   3.318   0.369  10.984 -0.4557 -0.1354 -0.1074
  966MOL0     C30287   3.202   0.467  10.957  0.2406  0.3676 -0.2471
  966MOL0     C30288   3.126   0.479  11.092  0.0859 -0.2469 -0.2566
  966MOL0     C30289   2.992   0.548  11.063 -0.7161 -0.7826 -0.6654
  966MOL0     C30290   2.908   0.577  11.188 -0.3129  0.5304 -0.0030
  966MOL0     C30291   2.978   0.574  11.326  0.3965  0.6904  0.1891
  966MOL0     N30292   2.887   0.622  11.431  0.5285  0.1480  0.8980
  966MOL0     C30293   2.880   0.743  11.491 -0.6515 -0.7029 -0.3160
  966MOL0     C30294   2.761   0.755  11.547 -0.1582  0.5025 -0.1287
  966MOL0     C30295   2.725   0.849  11.661 -0.2546 -0.9500 -0.1629
  966MOL0     C30296   2.678   0.986  11.609 -0.2890 -0.1014 -0.2604
  966MOL0     C30297   2.672   1.095  11.723  0.2143  0.3991 -0.0904
  966MOL0     C30298   2.583   1.052  11.834 -0.1387 -0.1507 -0.8067
  966MOL0     O30299   2.595   1.140  11.947 -0.0197  0.0816  0.0293
  966MOL0     C30300   2.507   1.132  12.043 -0.0735 -0.5288  0.0244
  966MOL0     C30301   2.501   1.243  12.124 -0.0159  0.7621  0.7096
  966MOL0     C30302   2.401   1.265  12.213 -0.0991  0.0884 -0.5831
  966MOL0     C30303   2.422   1.391  12.298  0.3765  0.5796  0.6703
  966MOL0     C30304   2.300   1.169  12.232 -0.4452  0.7805  0.9630
  966MOL0     C30305   2.184   1.189  12.328  0.0299 -0.3568 -0.1665
  966MOL0     O30306   2.066   1.125  12.298  0.0643  0.4555 -0.4418
  966MOL0     C30307   1.950   1.155  12.376  0.3482  0.5521 -0.4244
  966MOL0     C30308   1.946   1.167  12.515  1.0175 -1.1866 -0.3371
  966MOL0     C30309   1.821   1.202  12.589  0.8265  0.1257  0.8516
  966MOL0     C30310   1.708   1.220  12.524 -0.1946 -0.3968  0.2208
  966MOL0     O30311   1.595   1.241  12.591  0.5278 -0.5149  0.9159
  966MOL0     C30312   1.482   1.311  12.541  0.1817 -0.4869  0.1056
  966MOL0     C30313   1.410   1.365  12.654 -0.1683  0.3584 -0.5322
  966MOL0     C30314   1.296   1.453  12.602  0.1077 -0.1552 -0.3842
  966MOL0     C30315   1.192   1.373  12.513 -0.1794  0.4439 -0.3620
  966MOL0     C30316   1.070   1.460  12.477  0.5638 -0.8841 -0.2485
  966MOL0     C30317   1.113   1.555  12.359  0.5950 -0.5548 -0.3943
  966MOL0     C30318   0.987   1.622  12.302 -0.1288  0.0892  0.1941
  966MOL0     C30319   1.028   1.681  12.169  0.4340 -0.1238 -0.5304
  966MOL0    Cl30320   0.982   1.570  12.044  0.0593  0.0159 -0.2599
  966MOL0     C30321   1.716   1.218  12.385 -0.6841 -0.7495  0.7644
  966MOL0     C30322   1.829   1.187  12.309 -0.2976 -0.0257  1.0573
  966MOL0     O30323   2.204   1.255  12.428  0.1252  1.2196 -0.1332
  966MOL0     C30324   2.305   1.060  12.149 -0.9652  0.5501  0.5462
  966MOL0     C30325   2.406   1.034  12.056  0.1017 -0.0031  0.2848
  966MOL0     N30326   2.690   0.638  11.523  0.3960  0.1462 -0.0465
  966MOL0     N30327   2.769   0.558  11.453 -0.3292 -0.0865  0.3336
  966MOL0     C30328   3.767   0.149  11.073 -0.0959 -0.1446  0.6347
  966MOL0     C30329   3.903   0.120  11.104  0.4663 -0.0195  0.5082
  966MOL0     C30330   4.340   0.089  11.193  0.5612 -1.1274 -1.2294
  966MOL0     C30331   4.388   0.025  11.304  0.3343  0.7301 -0.3683
  966MOL0     C30332   4.525   0.014  11.340 -0.5150 -0.2867  0.6046
  966MOL0     C30333   4.622   0.065  11.256 -0.7553  0.7389  0.1905
  966MOL0     O30334   4.763   0.077  11.269  0.0172 -0.5221 -0.4426
  966MOL0     C30335   4.819  -0.005  11.376 -0.8486  0.2365  0.9953
  966MOL0     C30336   4.971   0.014  11.371 -0.6034 -0.3644 -0.0298
  966MOL0     C30337   5.017   0.159  11.420  0.8862 -0.8481 -0.3792
  966MOL0     C30338   5.166   0.179  11.400 -0.0834 -0.6846 -0.3179
  966MOL0     C30339   5.204   0.318  11.434  0.3454  0.2759 -0.9464
  966MOL0     C30340   5.230   0.432  11.480 -0.4866  0.4016  0.3485
  966MOL0     C30341   4.576   0.125  11.141 -0.0656  0.3614  0.0197
  966MOL0     C30342   4.437   0.142  11.111 -1.4506 -0.0690  0.1347
  966MOL0     H30343   4.067   0.347  10.921  0.4993 -3.1250 -2.3829
  966MOL0     H30344   3.831   0.425  10.890 -0.8201 -0.1037  1.0829
  966MOL0     H30345   3.518   0.254  11.159 -0.5198  2.4119  4.7982
  966MOL0     H30346   3.611   0.386  11.190  1.0471  0.4272 -0.9965
  966MOL0     H30347   3.369   0.467  11.167 -0.0290  0.9475 -0.1415
  966MOL0     H30348   3.453   0.536  11.028  0.4353  0.1346  0.4155
  966MOL0     H30349   3.365   0.355  10.886  0.4131 -1.5552  0.4849
  966MOL0     H30350   3.273   0.276  11.019 -4.1477 -0.0868 -3.8117
  966MOL0     H30351   3.234   0.567  10.927  1.8723  0.4667  1.6135
  966MOL0     H30352   3.134   0.432  10.879 -2.3453  1.5380  1.3087
  966MOL0     H30353   3.117   0.379  11.135  2.0443 -0.8792 -1.2103
  966MOL0     H30354   3.185   0.545  11.156 -0.3825  2.2017 -2.1524
  966MOL0     H30355   3.015   0.642  11.011  0.2208 -0.0026  1.0660
  966MOL0     H30356   2.933   0.475  11.007  0.5131 -2.8515  0.6180
  966MOL0     H30357   2.855   0.669  11.162 -1.0556  0.6988  1.9733
  966MOL0     H30358   2.833   0.498  11.191  1.0271 -0.8765 -1.4122
  966MOL0     H30359   3.069   0.635  11.336  0.3544  0.4098  3.2225
  966MOL0     H30360   3.008   0.478  11.369 -0.2758 -0.0385 -0.9331
  966MOL0     H30361   2.960   0.816  11.499 -0.6352 -0.8203  0.7333
  966MOL0     H30362   2.645   0.815  11.727  1.4695 -4.1082  0.4772
  966MOL0     H30363   2.817   0.865  11.718 -0.7417 -0.2028  0.4297
  966MOL0     H30364   2.581   0.983  11.559  0.2907  1.7526 -1.6309
  966MOL0     H30365   2.754   1.019  11.537 -0.7939  0.7712 -0.4070
  966MOL0     H30366   2.632   1.192  11.691  1.0430  0.8566  0.2512
  966MOL0     H30367   2.775   1.118  11.751  1.9934 -0.9170 -4.6619
  966MOL0     H30368   2.600   0.953  11.879 -0.1227  0.4424  0.5060
  966MOL0     H30369   2.479   1.060  11.803 -0.6631  0.8330  1.0819
  966MOL0     H30370   2.573   1.323  12.114  0.5409  0.1506 -0.2657
  966MOL0     H30371   2.444   1.360  12.401  2.3937 -3.9524 -0.8687
  966MOL0     H30372   2.515   1.436  12.262 -0.4065  0.4260 -1.6884
  966MOL0     H30373   2.342   1.464  12.290  1.1316  1.6499  2.2337
  966MOL0     H30374   2.039   1.149  12.569  1.6316 -2.6112 -1.8124
  966MOL0     H30375   1.816   1.206  12.697  0.3434  2.2530  0.8020
  966MOL0     H30376   1.505   1.395  12.474  0.9611 -0.3851  0.4873
  966MOL0     H30377   1.417   1.237  12.492 -1.9402  1.2826  0.0872
  966MOL0     H30378   1.370   1.291  12.724  2.7781  0.5068  1.5000
  966MOL0     H30379   1.460   1.442  12.713 -3.1188  2.4149 -0.4859
  966MOL0     H30380   1.329   1.535  12.537 -3.8883  1.0539 -1.1708
  966MOL0     H30381   1.242   1.499  12.685  0.2012 -2.3721  0.9853
  966MOL0     H30382   1.235   1.339  12.419  0.2160 -1.9187  0.6137
  966MOL0     H30383   1.167   1.276  12.558  2.4299  0.4175  1.2199
  966MOL0     H30384   1.042   1.524  12.562 -2.3523  1.7289 -2.9120
  966MOL0     H30385   0.980   1.402  12.455  2.0639 -2.7930 -1.6512
  966MOL0     H30386   1.180   1.635  12.394  0.2908  0.0375 -1.1479
  966MOL0     H30387   1.152   1.490  12.280  2.8753  1.7157 -1.2856
  966MOL0     H30388   0.948   1.690  12.378  0.2769  2.0866 -1.2936
  966MOL0     H30389   0.913   1.545  12.277 -0.6685  1.1195 -1.5702
  966MOL0     H30390   1.133   1.709  12.163  0.0266  1.4347 -0.8288
  966MOL0     H30391   0.969   1.773  12.169 -0.4096 -0.6218  1.3521
  966MOL0     H30392   1.624   1.232  12.328 -1.8003  1.4714  2.9556
  966MOL0     H30393   1.818   1.186  12.201 -0.5526 -2.3270  1.0478
  966MOL0     H30394   2.221   0.992  12.161 -1.4925  0.9200 -0.8743
  966MOL0     H30395   2.394   0.953  11.984 -1.2150  0.2915  0.1418
  966MOL0     H30396   3.681   0.099  11.117  1.1821 -2.9871  0.1271
  966MOL0     H30397   3.916   0.032  11.165  1.0498  0.0324  0.4608
  966MOL0     H30398   4.313  -0.016  11.370  0.2112 -0.7618 -1.3650
  966MOL0     H30399   4.566  -0.034  11.429  1.3968  2.1868  1.1732
  966MOL0     H30400   4.770   0.026  11.469 -0.4221  2.4154  0.5680
  966MOL0     H30401   4.803  -0.111  11.356 -0.2214  0.2793  0.1968
  966MOL0     H30402   5.018  -0.012  11.275  4.9561  0.7695  1.9611
  966MOL0     H30403   5.013  -0.060  11.440 -0.2278 -2.1038 -2.0028
  966MOL0     H30404   4.980   0.191  11.518  0.7591  0.9935 -1.0036
  966MOL0     H30405   4.974   0.223  11.342 -3.1376 -3.5962 -0.7330
  966MOL0     H30406   5.207   0.159  11.301  1.7317  2.6337 -0.4009
  966MOL0     H30407   5.218   0.116  11.473 -0.3802  1.4646  1.8815
  966MOL0     H30408   5.262   0.525  11.523  0.3970 -1.1454  3.3132
  966MOL0     H30409   4.636   0.182  11.071 -0.1747 -0.4939 -0.7913
  966MOL0     H30410   4.401   0.197  11.025 -0.8763  0.8589  0.4694
  967MOL0     O30411  11.090   6.346   8.190  0.4754  0.1126 -0.2431
  967MOL0     C30412  11.173   6.273   8.242 -0.0596  0.1684 -1.0488
  967MOL0     O30413  11.176   6.138   8.227  0.9091  0.2929 -0.3894
  967MOL0     C30414  11.076   6.068   8.166  0.0723  0.1948  0.4488
  967MOL0     C30415  11.090   6.045   8.035  1.0219  0.4694 -0.5319
  967MOL0     C30416  10.997   5.958   7.964 -0.7822 -0.6274 -0.2711
  967MOL0     C30417  10.890   5.906   8.032 -0.0869 -0.4463  0.1625
  967MOL0     O30418  10.801   5.827   7.957 -0.3209 -0.5524  0.0008
  967MOL0     C30419  10.683   5.760   8.009  0.1402 -0.0878  0.0129
  967MOL0     C30420  10.652   5.644   7.920 -0.0615 -0.3498  0.2840
  967MOL0     C30421  10.506   5.600   7.908 -0.5297 -0.0410 -0.0026
  967MOL0     C30422  10.474   5.538   7.765  1.1691  0.0001 -0.4237
  967MOL0     C30423  10.542   5.404   7.743  0.3838  0.3601  0.0736
  967MOL0     C30424  10.492   5.303   7.858  0.0984  0.3006 -0.8642
  967MOL0     C30425  10.503   5.155   7.808  0.6350 -0.5654  0.2126
  967MOL0     C30426  10.511   5.061   7.925 -0.3192 -0.9833  1.0797
  967MOL0     N30427  10.385   5.063   8.002 -0.2186 -1.1190 -0.0178
  967MOL0     C30428  10.375   5.096   8.135 -0.1087 -0.3310 -0.1742
  967MOL0     C30429  10.243   5.069   8.171 -0.2176 -0.2564  0.0491
  967MOL0     C30430  10.172   5.088   8.299 -0.0567  1.2151 -0.3196
  967MOL0     C30431  10.089   4.964   8.331  0.9542  0.5048 -1.6137
  967MOL0     C30432  10.019   4.994   8.469  0.7758  0.7202 -0.9477
  967MOL0     C30433   9.884   5.067   8.442  0.4342 -0.4537  0.3041
  967MOL0     O30434   9.792   4.998   8.355  0.6402 -0.2616 -0.1705
  967MOL0     C30435   9.711   4.897   8.411 -0.2175  0.6197  0.7526
  967MOL0     C30436   9.719   4.849   8.544 -1.1984  0.2903  0.3247
  967MOL0     C30437   9.639   4.751   8.608  0.8997  1.0976  1.1446
  967MOL0     C30438   9.656   4.730   8.757  0.3839 -0.1278 -0.6568
  967MOL0     C30439   9.537   4.697   8.524 -0.1978  0.8749  0.4200
  967MOL0     C30440   9.424   4.620   8.584 -0.3154  0.9858 -0.2080
  967MOL0     O30441   9.314   4.616   8.514 -0.0396 -0.3082  0.7313
  967MOL0     C30442   9.198   4.553   8.546  0.6187 -0.5123  0.8863
  967MOL0     C30443   9.074   4.611   8.535  0.0141  0.0778 -0.8011
  967MOL0     C30444   8.948   4.534   8.553 -0.6123  0.0699  0.1647
  967MOL0     C30445   8.966   4.397   8.589 -0.5071 -0.5114 -0.3820
  967MOL0     O30446   8.849   4.318   8.597 -0.6613  0.1669  0.4012
  967MOL0     C30447   8.721   4.373   8.628  0.3869  0.0480  0.3086
  967MOL0     C30448   8.727   4.435   8.775 -0.0561 -0.1353 -0.2548
  967MOL0     C30449   8.600   4.434   8.848  1.0154 -0.1401 -0.8672
  967MOL0     C30450   8.610   4.524   8.978  0.4917 -0.7600  0.6883
  967MOL0     C30451   8.497   4.474   9.081  0.1055 -0.7828  0.0552
  967MOL0     C30452   8.543   4.350   9.165 -0.0544 -0.5921  0.5349
  967MOL0     C30453   8.436   4.251   9.213 -0.1791  0.5604  0.0880
  967MOL0     C30454   8.307   4.306   9.289 -0.1402 -0.5993  0.8876
  967MOL0    Cl30455   8.362   4.389   9.437  0.6494 -0.4124 -0.0489
  967MOL0     C30456   9.092   4.339   8.598 -0.4272  0.9697  0.5440
  967MOL0     C30457   9.203   4.412   8.573 -1.2256 -0.3069  0.5837
  967MOL0     O30458   9.434   4.562   8.692 -0.1772 -0.4589 -0.2194
  967MOL0     C30459   9.527   4.740   8.386 -0.4236 -0.9395  1.1058
  967MOL0     C30460   9.624   4.828   8.330  0.5579 -1.2646 -1.0291
  967MOL0     N30461  10.188   5.017   8.058  0.1951  0.0799  0.6764
  967MOL0     N30462  10.271   5.014   7.951 -0.6130 -0.5283 -0.3451
  967MOL0     C30463  10.878   5.924   8.167 -0.3704  0.0177 -0.4118
  967MOL0     C30464  10.967   6.017   8.238  0.6945  0.3835 -0.4197
  967MOL0     C30465  11.257   6.318   8.359  0.0933  0.0355  0.9187
  967MOL0     C30466  11.261   6.449   8.413  0.3215 -0.6598  0.0308
  967MOL0     C30467  11.349   6.487   8.509  0.9331  1.0583 -0.3588
  967MOL0     C30468  11.433   6.393   8.563  0.0873 -0.0153 -0.7353
  967MOL0     O30469  11.525   6.418   8.667  0.1582 -0.4250 -0.7810
  967MOL0     C30470  11.524   6.552   8.726 -0.6112 -0.2199  0.1854
  967MOL0     C30471  11.655   6.561   8.814  0.3983 -1.0833 -0.3095
  967MOL0     C30472  11.660   6.698   8.891 -0.9599  0.4073  0.7625
  967MOL0     C30473  11.721   6.813   8.804  1.0601  0.1695  0.6018
  967MOL0     C30474  11.860   6.800   8.767 -0.0505  0.1408 -0.5088
  967MOL0     C30475  11.980   6.790   8.745  0.2123  0.1863  0.6837
  967MOL0     C30476  11.434   6.266   8.514 -0.4484 -0.3946  0.1799
  967MOL0     C30477  11.349   6.223   8.411 -0.1669  0.6137  0.1636
  967MOL0     H30478  11.160   6.108   7.981  3.3197 -2.4506 -1.2668
  967MOL0     H30479  10.988   5.941   7.857 -1.1663  2.7454 -0.8654
  967MOL0     H30480  10.699   5.719   8.109  2.6291 -2.6888 -1.3021
  967MOL0     H30481  10.600   5.831   8.015  3.0210  3.4642  4.0321
  967MOL0     H30482  10.685   5.679   7.821 -2.7545  3.9641  0.6647
  967MOL0     H30483  10.713   5.566   7.965 -0.3705 -0.1883  0.9987
  967MOL0     H30484  10.489   5.541   7.998  0.7257  1.7513  1.4815
  967MOL0     H30485  10.441   5.688   7.919  3.5004  3.2823 -0.1795
  967MOL0     H30486  10.365   5.526   7.759  1.0445 -2.0769  3.0905
  967MOL0     H30487  10.507   5.611   7.690 -0.9824  1.8340  0.2971
  967MOL0     H30488  10.508   5.361   7.649 -0.1639 -2.4818  1.4728
  967MOL0     H30489  10.649   5.427   7.740  0.9784 -2.1714 -2.6107
  967MOL0     H30490  10.532   5.327   7.957  1.1331  1.0353 -1.4369
  967MOL0     H30491  10.385   5.321   7.873  0.1761 -0.2268  0.4355
  967MOL0     H30492  10.410   5.121   7.761  1.8581 -2.4931 -0.9206
  967MOL0     H30493  10.590   5.153   7.742  1.5621 -0.3332  1.3985
  967MOL0     H30494  10.593   5.081   7.995  1.4106 -1.9074 -0.5959
  967MOL0     H30495  10.539   4.967   7.877  1.1998 -0.6660  1.2823
  967MOL0     H30496  10.454   5.137   8.197 -0.0279  0.7619 -0.9637
  967MOL0     H30497  10.246   5.093   8.379 -1.6909 -2.8961  1.7817
  967MOL0     H30498  10.126   5.187   8.302  0.1029  1.2650  1.6425
  967MOL0     H30499  10.150   4.875   8.346 -1.2284 -0.8652 -0.3058
  967MOL0     H30500  10.021   4.938   8.250  1.4998 -0.5450 -1.7529
  967MOL0     H30501  10.081   5.061   8.530  2.9700  0.6088 -2.9064
  967MOL0     H30502   9.999   4.900   8.520  0.6138  1.1430 -0.2237
  967MOL0     H30503   9.915   5.162   8.396  1.1061  0.4352  2.4568
  967MOL0     H30504   9.842   5.078   8.542 -2.5809 -2.6489 -0.5901
  967MOL0     H30505   9.794   4.890   8.611 -1.7451 -0.9851  1.7848
  967MOL0     H30506   9.746   4.779   8.796  1.5401 -3.3868  1.1205
  967MOL0     H30507   9.566   4.776   8.799  0.0449 -1.2041 -0.1618
  967MOL0     H30508   9.668   4.625   8.785  0.2541  0.0477  0.0769
  967MOL0     H30509   9.077   4.719   8.524  3.4962 -0.1422 -3.8574
  967MOL0     H30510   8.849   4.575   8.539  0.3709  2.0078 -1.8380
  967MOL0     H30511   8.691   4.447   8.554 -1.0651 -0.3301  0.4854
  967MOL0     H30512   8.650   4.290   8.635  2.1532 -1.5716  0.2116
  967MOL0     H30513   8.814   4.398   8.831 -2.4998 -3.1345  1.8557
  967MOL0     H30514   8.749   4.542   8.768  0.8085 -0.2018  1.1010
  967MOL0     H30515   8.571   4.337   8.888 -0.3722  0.2171 -0.9363
  967MOL0     H30516   8.525   4.483   8.785  0.2785  2.2373  1.6392
  967MOL0     H30517   8.706   4.514   9.030  0.4690 -1.6379  0.5716
  967MOL0     H30518   8.606   4.632   8.961  0.4412 -0.7496  0.7629
  967MOL0     H30519   8.418   4.431   9.018  0.3899 -0.4474 -0.5423
  967MOL0     H30520   8.458   4.554   9.145  2.0640  1.1586 -1.0254
  967MOL0     H30521   8.613   4.292   9.105  1.4547  2.3403 -0.7535
  967MOL0     H30522   8.608   4.374   9.250 -0.0281  0.1301  0.3153
  967MOL0     H30523   8.481   4.173   9.277 -2.6961  0.5842  2.0394
  967MOL0     H30524   8.403   4.186   9.131 -2.4746  2.2469 -0.4201
  967MOL0     H30525   8.248   4.219   9.318 -0.6490 -1.0161 -1.2067
  967MOL0     H30526   8.249   4.372   9.224  0.2531 -0.0008  1.1365
  967MOL0     H30527   9.099   4.235   8.627  1.3535  0.5353 -1.2089
  967MOL0     H30528   9.305   4.374   8.572 -0.2107  2.2433 -0.8577
  967MOL0     H30529   9.450   4.699   8.322 -0.1048 -0.9001  0.6887
  967MOL0     H30530   9.631   4.838   8.222 -0.8773 -2.0600 -1.2200
  967MOL0     H30531  10.791   5.891   8.224 -0.4417  2.2923  0.9445
  967MOL0     H30532  10.952   6.046   8.342 -1.9349 -1.3392 -0.2246
  967MOL0     H30533  11.204   6.528   8.365  2.5402 -0.1080 -1.8936
  967MOL0     H30534  11.350   6.593   8.534 -4.2908  1.9987 -2.9554
  967MOL0     H30535  11.536   6.634   8.656 -3.9306  2.4139  2.3788
  967MOL0     H30536  11.429   6.563   8.778 -3.0494 -6.5529 -1.9999
  967MOL0     H30537  11.735   6.543   8.741  2.9334  0.5696  1.8982
  967MOL0     H30538  11.635   6.479   8.884 -1.9582  0.3398  0.8066
  967MOL0     H30539  11.717   6.676   8.982  0.9806 -2.9338 -1.0339
  967MOL0     H30540  11.558   6.727   8.918 -0.8799 -1.4820  3.5294
  967MOL0     H30541  11.710   6.913   8.846 -0.8288  0.7175 -1.0125
  967MOL0     H30542  11.659   6.805   8.714 -0.0341  1.8474  1.1676
  967MOL0     H30543  12.086   6.792   8.737  0.3337  3.0565  1.7960
  967MOL0     H30544  11.498   6.198   8.569 -0.8182 -1.7148 -0.9584
  967MOL0     H30545  11.357   6.122   8.373  1.7803  1.3301 -1.5368
  968MOL0     O30546   0.516   5.025   8.822  0.5726  0.5946  0.0071
  968MOL0     C30547   0.605   4.938   8.845 -0.4024 -0.9041  0.0050
  968MOL0     O30548   0.579   4.802   8.851  0.7721 -0.2184 -0.4974
  968MOL0     C30549   0.447   4.763   8.830  0.4477 -0.3764 -0.6947
  968MOL0     C30550   0.392   4.776   8.703 -0.1038 -0.2415 -0.0266
  968MOL0     C30551   0.272   4.716   8.658 -0.0472 -0.1253  0.8450
  968MOL0     C30552   0.195   4.654   8.763 -0.1279  0.1824  0.1503
  968MOL0     O30553   0.069   4.591   8.751 -0.3818 -0.4635 -0.3238
  968MOL0     C30554   0.017   4.581   8.619  0.1163  0.2608  0.2470
  968MOL0     C30555  -0.077   4.458   8.611 -0.3159  0.3898 -1.3650
  968MOL0     C30556  -0.189   4.474   8.711 -0.7631  0.0641 -1.0928
  968MOL0     C30557  -0.308   4.379   8.673 -0.1097 -0.4106 -0.2877
  968MOL0     C30558  -0.398   4.356   8.800  0.0347  0.7491  0.6842
  968MOL0     C30559  -0.476   4.486   8.836  0.1829 -0.1312 -0.2176
  968MOL0     C30560  -0.569   4.448   8.954  0.0954 -0.1703  0.1189
  968MOL0     C30561  -0.513   4.473   9.094  0.2683  0.4468 -0.4572
  968MOL0     N30562  -0.395   4.395   9.128 -0.9996 -0.2559 -0.3136
  968MOL0     C30563  -0.258   4.433   9.111  0.4650  1.0096 -0.1348
  968MOL0     C30564  -0.196   4.326   9.149 -0.7966  0.5692 -0.1161
  968MOL0     C30565  -0.040   4.308   9.158 -0.3788  0.1074  0.2056
  968MOL0     C30566   0.014   4.313   9.301  0.2249 -0.1158 -0.4540
  968MOL0     C30567   0.023   4.181   9.371  0.1049  0.2946 -0.5969
  968MOL0     C30568   0.072   4.061   9.293 -0.1710  0.0996  0.9914
  968MOL0     O30569   0.120   3.964   9.382  0.1296 -0.2990  0.0982
  968MOL0     C30570   0.025   3.900   9.461  0.2389 -0.8067 -0.4726
  968MOL0     C30571   0.063   3.817   9.566  0.0761 -0.4251 -0.5101
  968MOL0     C30572  -0.029   3.754   9.650  0.5041 -0.0864  1.0012
  968MOL0     C30573   0.029   3.659   9.755  0.3724 -0.1385  0.4103
  968MOL0     C30574  -0.169   3.772   9.628 -0.6725 -0.4275 -0.5442
  968MOL0     C30575  -0.275   3.711   9.714 -0.2282  0.8012  0.1605
  968MOL0     O30576  -0.394   3.777   9.704 -0.5023 -0.1049 -0.1615
  968MOL0     C30577  -0.504   3.724   9.765  0.1898  0.4051 -0.2682
  968MOL0     C30578  -0.539   3.590   9.749 -0.7573  0.4569  0.0441
  968MOL0     C30579  -0.650   3.539   9.824 -0.2592 -0.3857  0.3748
  968MOL0     C30580  -0.728   3.629   9.902 -0.1370  0.1380  0.1775
  968MOL0     O30581  -0.845   3.598   9.965  0.1043  0.0525 -1.0590
  968MOL0     C30582  -0.894   3.459   9.972 -0.9017 -0.4531  0.4181
  968MOL0     C30583  -1.008   3.454  10.069 -0.1822  0.3928 -0.5337
  968MOL0     C30584  -1.106   3.562  10.046  0.3303 -0.4494 -0.5419
  968MOL0     C30585  -1.224   3.556  10.149 -0.6232 -0.4423 -0.3875
  968MOL0     C30586  -1.346   3.652  10.118 -0.9801  1.2857 -0.2200
  968MOL0     C30587  -1.419   3.618   9.992 -0.9727 -1.2609 -0.2617
  968MOL0     C30588  -1.566   3.655  10.004 -0.4559  0.0108 -0.0465
  968MOL0     C30589  -1.637   3.596   9.886 -0.5133 -0.3172 -0.2410
  968MOL0    Cl30590  -1.807   3.653   9.876  0.0239  0.0083  0.3705
  968MOL0     C30591  -0.686   3.759   9.917  0.4110 -0.6501 -0.1933
  968MOL0     C30592  -0.569   3.801   9.852  0.2737 -0.0714  0.0798
  968MOL0     O30593  -0.256   3.613   9.774  0.4907  0.1168  0.1289
  968MOL0     C30594  -0.202   3.859   9.525 -0.6114  0.7266 -1.2467
  968MOL0     C30595  -0.113   3.910   9.438 -0.9326  0.9175  0.0720
  968MOL0     N30596  -0.284   4.226   9.211  0.1488 -0.4310  0.1158
  968MOL0     N30597  -0.401   4.274   9.192  0.0062  0.5122 -0.7995
  968MOL0     C30598   0.248   4.648   8.892 -0.4530 -0.6417 -0.3236
  968MOL0     C30599   0.378   4.694   8.927  0.4116  0.3088 -0.0521
  968MOL0     C30600   0.737   4.978   8.874  0.5390  0.6489 -0.6217
  968MOL0     C30601   0.823   4.891   8.943 -0.0898  0.8530 -0.1155
  968MOL0     C30602   0.956   4.923   8.964  0.2835  0.2418 -0.3030
  968MOL0     C30603   1.004   5.048   8.931 -0.2825 -0.5630  1.3050
  968MOL0     O30604   1.138   5.075   8.966 -0.3163  0.6746  0.6030
  968MOL0     C30605   1.210   5.199   8.926  0.4628 -0.1298  0.1288
  968MOL0     C30606   1.157   5.317   9.007 -0.9455 -0.2007 -1.0912
  968MOL0     C30607   1.243   5.435   9.017 -0.3164 -0.2793  0.5532
  968MOL0     C30608   1.174   5.554   9.083  0.5081  0.4434 -0.1622
  968MOL0     C30609   1.078   5.628   8.995  0.6172  0.5423 -0.0981
  968MOL0     C30610   1.000   5.686   8.916 -0.1293  0.4993  0.2335
  968MOL0     C30611   0.914   5.138   8.855  0.4577  0.1790 -0.1334
  968MOL0     C30612   0.781   5.103   8.823 -0.6772  0.6465  1.0621
  968MOL0     H30613   0.451   4.833   8.632 -3.5968  2.6432 -0.8923
  968MOL0     H30614   0.239   4.726   8.555 -0.6807 -4.3062  0.4832
  968MOL0     H30615  -0.028   4.673   8.582  1.9712  1.0899 -0.0544
  968MOL0     H30616   0.104   4.553   8.559 -0.0587  1.2138 -0.4708
  968MOL0     H30617  -0.129   4.460   8.515 -0.3371 -0.0170 -1.3655
  968MOL0     H30618  -0.018   4.367   8.625  1.0205  0.7813 -3.8019
  968MOL0     H30619  -0.143   4.462   8.809  0.1539 -0.6049 -1.5844
  968MOL0     H30620  -0.228   4.576   8.714 -0.9027 -0.0245  0.9224
  968MOL0     H30621  -0.355   4.424   8.584  3.4903  1.5776 -1.3615
  968MOL0     H30622  -0.272   4.280   8.643 -0.3367  0.1689 -2.7468
  968MOL0     H30623  -0.471   4.278   8.781  0.8851  0.3234 -1.0157
  968MOL0     H30624  -0.345   4.313   8.885  0.2429  1.3740  0.8787
  968MOL0     H30625  -0.408   4.557   8.883 -0.2847 -0.1641  0.5441
  968MOL0     H30626  -0.532   4.529   8.753  0.7243 -1.4558 -1.3007
  968MOL0     H30627  -0.653   4.519   8.951 -0.9895 -1.4576 -1.0347
  968MOL0     H30628  -0.601   4.344   8.943 -1.4331 -0.0055  2.1507
  968MOL0     H30629  -0.594   4.462   9.166  1.7506 -2.1219  0.9636
  968MOL0     H30630  -0.475   4.575   9.103  1.6291 -0.1922  2.2566
  968MOL0     H30631  -0.209   4.516   9.061  0.8055  0.3780 -0.8865
  968MOL0     H30632  -0.016   4.218   9.101  0.2777 -0.6826  1.6728
  968MOL0     H30633   0.006   4.387   9.097 -1.0527  0.9676  0.7856
  968MOL0     H30634  -0.064   4.366   9.356 -0.7089 -1.8029 -0.0909
  968MOL0     H30635   0.107   4.369   9.285 -0.4403  0.3041 -3.5143
  968MOL0     H30636  -0.079   4.165   9.405 -0.4651  1.8393 -1.4452
  968MOL0     H30637   0.086   4.199   9.458  1.9232 -0.0998 -1.7711
  968MOL0     H30638   0.162   4.088   9.236 -1.8807  2.2118 -0.9238
  968MOL0     H30639  -0.001   4.020   9.223  1.1122  1.3127 -1.2041
  968MOL0     H30640   0.166   3.801   9.596  0.0600 -2.5347 -1.4434
  968MOL0     H30641  -0.025   3.567   9.732 -1.0346  0.8878 -0.6400
  968MOL0     H30642   0.137   3.646   9.744  0.0241 -1.5875 -2.2134
  968MOL0     H30643   0.003   3.689   9.857 -1.1869  1.6741 -0.4533
  968MOL0     H30644  -0.491   3.514   9.688  0.1185  0.3760  0.7977
  968MOL0     H30645  -0.663   3.431   9.815  0.8055 -0.3943 -1.3692
  968MOL0     H30646  -0.924   3.427   9.872 -0.9513  0.2696  0.1962
  968MOL0     H30647  -0.811   3.398  10.008  0.9862  1.9653  0.4246
  968MOL0     H30648  -1.054   3.356  10.055  1.4024 -0.6660  1.1235
  968MOL0     H30649  -0.974   3.458  10.173 -1.3694  1.7688 -0.1589
  968MOL0     H30650  -1.152   3.553   9.947 -1.0917 -1.5908  0.1790
  968MOL0     H30651  -1.060   3.661  10.057  0.1546 -0.3736 -0.4793
  968MOL0     H30652  -1.276   3.460  10.138 -0.2559 -0.3739 -3.4945
  968MOL0     H30653  -1.176   3.579  10.245  4.2311  0.5929 -2.7827
  968MOL0     H30654  -1.299   3.750  10.130  2.5691 -0.4816  2.0191
  968MOL0     H30655  -1.407   3.633  10.206  1.9228 -2.7498  1.2262
  968MOL0     H30656  -1.378   3.688   9.919  0.3285 -0.1844  1.4187
  968MOL0     H30657  -1.410   3.515   9.959 -2.4977 -0.8068 -2.3153
  968MOL0     H30658  -1.592   3.761   9.995  0.5320  0.3215  0.6598
  968MOL0     H30659  -1.608   3.612  10.096  3.2592  0.9415  2.2769
  968MOL0     H30660  -1.630   3.489   9.905  1.6130  0.1286  1.9137
  968MOL0     H30661  -1.579   3.632   9.800  2.1549 -2.6607  0.4642
  968MOL0     H30662  -0.745   3.829   9.977  1.3760  0.2382 -0.2554
  968MOL0     H30663  -0.531   3.899   9.877  3.3320 -1.1672  0.0973
  968MOL0     H30664  -0.308   3.879   9.513 -1.1042 -1.8650 -1.8792
  968MOL0     H30665  -0.162   3.976   9.368  0.3096  1.8018  0.0027
  968MOL0     H30666   0.184   4.597   8.963 -0.3594 -0.8083 -0.3571
  968MOL0     H30667   0.429   4.684   9.022  0.1739  1.1017  0.1685
  968MOL0     H30668   0.803   4.790   8.975  2.3613  0.9136  1.9151
  968MOL0     H30669   1.029   4.854   9.004  1.7735  1.1032 -1.4259
  968MOL0     H30670   1.317   5.185   8.940  0.1241 -2.3528  0.8041
  968MOL0     H30671   1.193   5.224   8.821  2.5091  0.3993 -0.1135
  968MOL0     H30672   1.148   5.283   9.111  0.1220 -1.0995 -1.2640
  968MOL0     H30673   1.059   5.349   8.971 -1.1024 -0.6574 -1.0773
  968MOL0     H30674   1.284   5.465   8.920  0.8159 -0.8296  0.8402
  968MOL0     H30675   1.328   5.399   9.075 -0.6884 -1.6002  0.3186
  968MOL0     H30676   1.243   5.632   9.118 -3.2005  2.8159  2.7042
  968MOL0     H30677   1.121   5.503   9.164  0.8948 -3.1762 -2.0146
  968MOL0     H30678   0.923   5.728   8.854  0.7481  1.4927 -0.2082
  968MOL0     H30679   0.945   5.237   8.823  0.3639  0.4355  0.5488
  968MOL0     H30680   0.724   5.170   8.760 -0.4562 -2.2079 -2.5796
  969MOL0     O30681  10.200   4.245   9.974 -0.8929  0.1765 -0.1646
  969MOL0     C30682  10.197   4.172  10.070 -1.1352 -0.4414  0.8235
  969MOL0     O30683  10.310   4.117  10.135  0.0668  0.4032  0.3784
  969MOL0     C30684  10.419   4.117  10.056 -0.1163  0.4478 -0.7131
  969MOL0     C30685  10.527   4.197  10.089 -0.8242 -0.4317 -0.6834
  969MOL0     C30686  10.644   4.210  10.012  0.0635  0.1330  0.6942
  969MOL0     C30687  10.643   4.149   9.884  0.0019 -0.0631 -0.1237
  969MOL0     O30688  10.758   4.173   9.812 -1.0382 -0.0956  0.3536
  969MOL0     C30689  10.772   4.117   9.672  0.1583 -0.8862 -0.1411
  969MOL0     C30690  10.915   4.145   9.630  0.1147 -0.0495  0.2595
  969MOL0     C30691  10.947   4.290   9.606  0.9333  0.3363 -0.4716
  969MOL0     C30692  11.098   4.302   9.583  0.3781 -0.3075 -0.1183
  969MOL0     C30693  11.149   4.452   9.595 -0.3543 -0.3420 -0.7633
  969MOL0     C30694  11.102   4.521   9.463  0.3384  0.2342 -0.6280
  969MOL0     C30695  11.051   4.663   9.496 -0.2503 -0.2515  0.4014
  969MOL0     C30696  11.168   4.763   9.469  0.0885 -0.0288 -0.0984
  969MOL0     N30697  11.235   4.773   9.337  0.1073 -0.1698  0.2868
  969MOL0     C30698  11.190   4.838   9.222 -0.0434 -0.6489 -0.7919
  969MOL0     C30699  11.289   4.818   9.134 -0.4046  0.1403 -0.3166
  969MOL0     C30700  11.288   4.887   8.997  0.9943 -0.6059  0.5428
  969MOL0     C30701  11.436   4.942   8.973  0.6156 -0.2529  1.2898
  969MOL0     C30702  11.447   4.973   8.826 -0.3680 -0.0857  0.1789
  969MOL0     C30703  11.380   5.106   8.782 -0.7453 -0.0871  0.3902
  969MOL0     O30704  11.459   5.219   8.849 -0.0393  0.6638 -0.0078
  969MOL0     C30705  11.388   5.336   8.832  0.2789  0.4219 -0.2394
  969MOL0     C30706  11.257   5.360   8.867  0.9880 -0.6828 -0.5543
  969MOL0     C30707  11.194   5.490   8.839 -0.8253 -0.1826  0.0825
  969MOL0     C30708  11.051   5.502   8.885 -0.2939 -0.3988 -0.2381
  969MOL0     C30709  11.274   5.597   8.795 -0.3767 -0.5417 -0.6879
  969MOL0     C30710  11.230   5.749   8.785 -0.2327  1.2664  0.0657
  969MOL0     O30711  11.308   5.819   8.702  0.3372 -0.6350 -0.9346
  969MOL0     C30712  11.280   5.950   8.696  0.0491  0.3937 -0.6140
  969MOL0     C30713  11.172   5.994   8.613  0.0149  0.5377 -0.2338
  969MOL0     C30714  11.117   6.122   8.624 -0.1098 -0.1935 -1.0428
  969MOL0     C30715  11.171   6.218   8.704 -0.4166  0.4805  0.7370
  969MOL0     O30716  11.093   6.333   8.702  0.0939  0.5618 -0.1758
  969MOL0     C30717  11.057   6.380   8.836  0.6975  0.5996  1.2403
  969MOL0     C30718  11.090   6.528   8.843  0.7875 -0.1739  0.9257
  969MOL0     C30719  11.030   6.617   8.730  0.7780  0.2568  0.1523
  969MOL0     C30720  11.032   6.775   8.752 -0.3853 -0.6012  0.0442
  969MOL0     C30721  11.160   6.827   8.686  0.8722  0.0189  0.8650
  969MOL0     C30722  11.135   6.981   8.667  0.5335  0.1555  0.4734
  969MOL0     C30723  11.259   7.053   8.622 -0.1602 -0.0074  0.1368
  969MOL0     C30724  11.292   7.021   8.479  0.0409 -0.2693  0.3952
  969MOL0    Cl30725  11.157   7.082   8.375  0.1451  0.0693 -0.2155
  969MOL0     C30726  11.283   6.178   8.787 -0.5874  0.3675  0.0038
  969MOL0     C30727  11.336   6.048   8.788 -0.0388  0.6480  0.6498
  969MOL0     O30728  11.132   5.783   8.840  0.8863  0.8190 -0.7184
  969MOL0     C30729  11.406   5.557   8.741  0.1141  0.0764  0.1292
  969MOL0     C30730  11.461   5.437   8.768 -0.5230 -0.1283  0.1167
  969MOL0     N30731  11.391   4.741   9.190 -0.2798 -0.2192 -0.6387
  969MOL0     N30732  11.355   4.710   9.309 -0.4570  0.1455 -0.4103
  969MOL0     C30733  10.541   4.060   9.841  1.5770 -0.1248  0.1133
  969MOL0     C30734  10.429   4.047   9.932  0.3503  0.4231  1.4585
  969MOL0     C30735  10.070   4.130  10.119 -0.3761 -0.5879 -0.0768
  969MOL0     C30736   9.949   4.182  10.066 -0.2102  0.3985 -1.4727
  969MOL0     C30737   9.826   4.134  10.128 -0.7270  0.3004  0.2360
  969MOL0     C30738   9.820   4.043  10.230 -0.1404  0.6511 -0.6658
  969MOL0     O30739   9.700   4.019  10.298 -0.3480  0.7228  0.5560
  969MOL0     C30740   9.675   3.904  10.379 -0.5933  0.2571  0.3853
  969MOL0     C30741   9.664   3.776  10.304  0.1166  0.5590  0.6987
  969MOL0     C30742   9.572   3.679  10.397 -0.2211  0.4344  0.2344
  969MOL0     C30743   9.578   3.535  10.355  0.0899 -0.2043 -0.5682
  969MOL0     C30744   9.525   3.511  10.218 -0.5134  1.0022 -1.4346
  969MOL0     C30745   9.506   3.471  10.108  0.4219  0.0310 -0.3891
  969MOL0     C30746   9.941   3.987  10.269  0.2288  0.1533  2.2126
  969MOL0     C30747  10.064   4.030  10.218  0.5845 -0.4140  0.2801
  969MOL0     H30748  10.527   4.258  10.178  0.9116  1.1525 -1.6813
  969MOL0     H30749  10.723   4.268  10.059  0.6979 -0.2889  0.1540
  969MOL0     H30750  10.751   4.010   9.667 -0.3696 -0.8688  1.3129
  969MOL0     H30751  10.704   4.169   9.604  1.0324  0.7399  0.1820
  969MOL0     H30752  10.981   4.102   9.705  0.3510 -6.6766 -3.0116
  969MOL0     H30753  10.936   4.084   9.541  1.1999 -1.3925  1.3924
  969MOL0     H30754  10.886   4.326   9.522 -1.4244 -1.4901  0.3645
  969MOL0     H30755  10.925   4.344   9.699 -4.3548 -2.8249  0.5080
  969MOL0     H30756  11.155   4.241   9.654  0.2693 -1.8309 -1.2797
  969MOL0     H30757  11.128   4.257   9.487  0.0107 -3.5237  1.1354
  969MOL0     H30758  11.124   4.499   9.690  2.1148  2.6363 -1.4445
  969MOL0     H30759  11.258   4.441   9.585  0.0425  2.4744 -0.2870
  969MOL0     H30760  11.176   4.531   9.383  1.3623  1.1732  0.4014
  969MOL0     H30761  11.022   4.474   9.406  1.4207 -1.9852 -0.4222
  969MOL0     H30762  10.958   4.675   9.440  0.3369 -1.5634 -0.8953
  969MOL0     H30763  11.017   4.664   9.600  0.2946  2.0805  0.6266
  969MOL0     H30764  11.251   4.739   9.535 -0.7424  0.4977  1.1744
  969MOL0     H30765  11.132   4.861   9.503  2.0579  0.3308  1.0555
  969MOL0     H30766  11.101   4.898   9.206 -1.3445 -1.8458  1.5039
  969MOL0     H30767  11.256   4.829   8.910  1.5131 -0.0017 -0.0564
  969MOL0     H30768  11.212   4.965   9.006 -0.9641 -2.0739 -1.9803
  969MOL0     H30769  11.509   4.863   8.993  1.9421  0.5887 -0.0033
  969MOL0     H30770  11.456   5.035   9.028  1.7609  1.3770 -1.6461
  969MOL0     H30771  11.411   4.891   8.764  1.6175 -2.5210  2.0700
  969MOL0     H30772  11.549   4.993   8.794 -1.0905  0.7216 -1.7820
  969MOL0     H30773  11.277   5.090   8.814 -0.9572 -1.9404 -1.0993
  969MOL0     H30774  11.386   5.114   8.673 -0.7168  0.8887  0.4560
  969MOL0     H30775  11.210   5.287   8.933  0.0124  1.1971  0.9497
  969MOL0     H30776  11.038   5.556   8.979 -0.1173 -2.6221  1.1373
  969MOL0     H30777  10.988   5.565   8.821 -0.2926  0.8672  0.9599
  969MOL0     H30778  11.009   5.402   8.898 -3.2847  0.3553 -2.8160
  969MOL0     H30779  11.124   5.934   8.536  1.4452  0.0234 -0.7659
  969MOL0     H30780  11.027   6.149   8.570 -0.6142 -2.3330 -1.3765
  969MOL0     H30781  10.953   6.359   8.863  0.8810  0.1705  1.6290
  969MOL0     H30782  11.111   6.321   8.911  1.8505  1.5478  1.1854
  969MOL0     H30783  11.055   6.563   8.940 -1.3341  1.7530 -0.4417
  969MOL0     H30784  11.199   6.533   8.836  0.7327 -0.2256 -0.2312
  969MOL0     H30785  10.926   6.586   8.735  1.4473 -2.1815 -0.0575
  969MOL0     H30786  11.069   6.584   8.634  2.7734 -1.0889  1.3435
  969MOL0     H30787  10.951   6.819   8.694  0.7691 -1.6078 -2.5364
  969MOL0     H30788  11.024   6.800   8.858 -1.4459  2.6490 -0.6845
  969MOL0     H30789  11.162   6.783   8.586  0.5938 -0.2593  0.9818
  969MOL0     H30790  11.252   6.807   8.742  0.0236 -1.4506  1.7959
  969MOL0     H30791  11.049   6.989   8.600  0.6292 -1.1997  0.1651
  969MOL0     H30792  11.115   7.022   8.766  0.8122 -1.0137  1.0304
  969MOL0     H30793  11.338   7.016   8.688 -2.7480 -1.6888  2.5410
  969MOL0     H30794  11.252   7.160   8.644 -0.8436 -0.3424  1.6341
  969MOL0     H30795  11.299   6.912   8.481 -0.8016 -0.3211  2.2900
  969MOL0     H30796  11.387   7.065   8.446 -0.0393 -0.3022  0.1145
  969MOL0     H30797  11.324   6.263   8.841 -0.7682  0.5328 -0.1143
  969MOL0     H30798  11.424   6.021   8.845  1.7511 -1.0786 -2.6400
  969MOL0     H30799  11.467   5.634   8.696 -1.7015  0.9020 -1.0188
  969MOL0     H30800  11.562   5.431   8.729 -0.8531  1.5270 -1.0775
  969MOL0     H30801  10.537   4.009   9.745  0.2588  3.2719 -1.8294
  969MOL0     H30802  10.345   3.979   9.919  0.3173  0.5680  0.9169
  969MOL0     H30803   9.952   4.245   9.978  1.0209  0.8155 -1.1598
  969MOL0     H30804   9.728   4.163  10.092 -1.5533 -1.5614  0.8906
  969MOL0     H30805   9.749   3.898  10.460  2.6803  2.5044 -2.1846
  969MOL0     H30806   9.575   3.925  10.419  0.2175  2.4973  1.3504
  969MOL0     H30807   9.759   3.730  10.274  0.1093  0.1872  1.2354
  969MOL0     H30808   9.610   3.788  10.209 -1.8459  1.5558  1.8931
  969MOL0     H30809   9.470   3.720  10.390  0.1228  1.2924  0.1747
  969MOL0     H30810   9.594   3.687  10.504 -0.0502  0.9756  0.1638
  969MOL0     H30811   9.558   3.459  10.432  0.9967 -0.7917 -0.8953
  969MOL0     H30812   9.686   3.519  10.345  0.8414  4.2516 -1.2661
  969MOL0     H30813   9.487   3.438  10.007 -1.7105 -0.9753  0.2903
  969MOL0     H30814   9.948   3.903  10.337 -0.8387 -3.0889 -1.3682
  969MOL0     H30815  10.163   4.001  10.252 -0.1450 -0.8541  2.1170
  970MOL0     O30816   2.979   8.149   6.623  0.4245 -0.0183 -0.5738
  970MOL0     C30817   3.075   8.096   6.674  0.1655  0.3841 -0.9963
  970MOL0     O30818   3.088   7.971   6.719  0.6279  0.1166  0.1288
  970MOL0     C30819   2.973   7.887   6.728 -0.9307  0.6337 -0.8344
  970MOL0     C30820   2.841   7.926   6.738  0.1500  0.4100 -0.9958
  970MOL0     C30821   2.733   7.837   6.742 -0.1993  0.9524  1.1364
  970MOL0     C30822   2.752   7.697   6.723 -0.0472 -1.5823 -0.3814
  970MOL0     O30823   2.645   7.614   6.714  0.0441 -1.3561  0.0040
  970MOL0     C30824   2.660   7.494   6.657 -0.0189  0.4493  0.0184
  970MOL0     C30825   2.703   7.381   6.743 -0.2969  0.1099 -0.1786
  970MOL0     C30826   2.720   7.242   6.672  1.2100  0.4717 -0.8524
  970MOL0     C30827   2.730   7.123   6.776 -0.0753  0.1222 -1.0042
  970MOL0     C30828   2.593   7.098   6.848  0.6595  0.0431  0.5456
  970MOL0     C30829   2.601   6.955   6.904 -0.4380 -0.5437  0.2829
  970MOL0     C30830   2.476   6.900   6.983 -0.0151  1.0329  0.0899
  970MOL0     C30831   2.502   6.755   7.031  0.5885 -0.1229 -0.1191
  970MOL0     N30832   2.625   6.742   7.105  0.5739  1.0925 -1.3414
  970MOL0     C30833   2.732   6.682   7.041  0.7238 -0.2583 -0.6209
  970MOL0     C30834   2.827   6.681   7.141 -0.4060  0.0316 -0.3827
  970MOL0     C30835   2.964   6.620   7.146 -0.0225  0.6978 -0.2667
  970MOL0     C30836   3.041   6.606   7.008  0.3976 -0.8824  0.1398
  970MOL0     C30837   3.089   6.739   6.956  0.0137 -0.9234 -0.6814
  970MOL0     C30838   2.990   6.804   6.854 -0.2494  0.8828 -0.4791
  970MOL0     O30839   3.005   6.936   6.820  0.3019 -0.3402  0.5571
  970MOL0     C30840   3.107   6.980   6.729  0.9969  0.2875 -0.3810
  970MOL0     C30841   3.210   6.904   6.675  0.5383  0.5502 -0.8549
  970MOL0     C30842   3.313   6.966   6.598 -0.5445  0.1316 -0.0798
  970MOL0     C30843   3.399   6.876   6.517  0.0018 -0.5941  0.5454
  970MOL0     C30844   3.307   7.103   6.572 -0.4034 -0.9290 -0.7948
  970MOL0     C30845   3.418   7.175   6.505 -1.3328  0.1675 -0.3350
  970MOL0     O30846   3.540   7.138   6.567 -0.5704 -0.5802  0.2953
  970MOL0     C30847   3.650   7.197   6.517  1.5256 -0.8184 -0.4175
  970MOL0     C30848   3.751   7.115   6.482 -0.5668  0.6755  0.1735
  970MOL0     C30849   3.881   7.172   6.455  0.3109 -0.0695  0.0587
  970MOL0     C30850   3.889   7.314   6.435  0.3285 -0.7722 -0.1880
  970MOL0     O30851   4.018   7.358   6.414  0.2932  0.2509  0.3891
  970MOL0     C30852   4.051   7.482   6.472 -0.2494  0.7982  0.4316
  970MOL0     C30853   4.203   7.493   6.459 -0.1925 -0.3471 -0.4540
  970MOL0     C30854   4.250   7.611   6.540  0.5281 -0.1146  0.1687
  970MOL0     C30855   4.400   7.646   6.537  0.2475 -0.4474 -0.5540
  970MOL0     C30856   4.451   7.749   6.644  0.2167  0.0017  0.8254
  970MOL0     C30857   4.601   7.739   6.682  0.1318 -0.0492  0.7265
  970MOL0     C30858   4.695   7.805   6.588  0.1007  1.2363 -0.7188
  970MOL0     C30859   4.827   7.729   6.580 -0.6015  0.5990 -0.3729
  970MOL0    Cl30860   4.953   7.776   6.695  0.3682  0.1806 -0.2711
  970MOL0     C30861   3.778   7.391   6.455  0.4451  0.4026  0.3705
  970MOL0     C30862   3.660   7.335   6.509  0.2656  0.7087 -0.3238
  970MOL0     O30863   3.400   7.255   6.413  0.2177 -0.2539 -0.1816
  970MOL0     C30864   3.195   7.175   6.612  0.3042  0.0213  0.4196
  970MOL0     C30865   3.099   7.114   6.698 -0.3914  0.0586  0.6708
  970MOL0     N30866   2.778   6.742   7.261  0.6310 -1.2837 -0.0386
  970MOL0     N30867   2.652   6.784   7.235  0.1904  0.7966  0.0107
  970MOL0     C30868   2.893   7.658   6.722 -0.7520 -0.7122  0.6692
  970MOL0     C30869   2.999   7.753   6.721 -0.2024  0.6196 -0.4272
  970MOL0     C30870   3.197   8.181   6.690 -0.6691 -0.0939  0.3399
  970MOL0     C30871   3.188   8.321   6.698 -0.1466 -0.1966  0.2261
  970MOL0     C30872   3.296   8.401   6.719 -0.6519 -0.1532 -0.5523
  970MOL0     C30873   3.423   8.344   6.738 -0.2123  0.3964  0.0502
  970MOL0     O30874   3.525   8.423   6.752  0.1797 -0.2295  0.4123
  970MOL0     C30875   3.552   8.477   6.880  0.2842 -0.9839  0.3729
  970MOL0     C30876   3.625   8.376   6.974 -0.2928 -0.0127  0.6432
  970MOL0     C30877   3.749   8.317   6.918 -0.7052  0.5279 -0.5676
  970MOL0     C30878   3.858   8.410   6.882  0.2307  0.0703 -0.4945
  970MOL0     C30879   3.921   8.457   7.004  0.0815  0.1610 -0.6328
  970MOL0     C30880   3.974   8.502   7.112 -0.7273 -0.3581  1.0193
  970MOL0     C30881   3.439   8.206   6.741 -0.3793  1.1849  0.3028
  970MOL0     C30882   3.325   8.131   6.711  0.0248 -0.3384 -0.2541
  970MOL0     H30883   2.809   8.029   6.753  1.1830  0.4907  0.9580
  970MOL0     H30884   2.627   7.861   6.745 -0.8336 -0.9928 -1.4126
  970MOL0     H30885   2.556   7.473   6.632 -1.1415  2.8806  2.2243
  970MOL0     H30886   2.724   7.499   6.568  1.1438 -0.9323  0.7474
  970MOL0     H30887   2.792   7.391   6.807 -1.1990 -3.3334  1.8674
  970MOL0     H30888   2.622   7.380   6.817 -0.6107  1.6050 -0.4659
  970MOL0     H30889   2.636   7.223   6.604  1.3046 -0.0844 -0.8132
  970MOL0     H30890   2.805   7.240   6.604  0.5551  1.0271 -1.7228
  970MOL0     H30891   2.742   7.029   6.720 -0.3027 -1.4024  1.3625
  970MOL0     H30892   2.803   7.122   6.857 -3.3242  0.9100  2.2221
  970MOL0     H30893   2.585   7.172   6.928 -0.5043  0.7188 -0.1536
  970MOL0     H30894   2.504   7.095   6.783  0.9464 -2.8608  0.1551
  970MOL0     H30895   2.614   6.893   6.815  0.3497 -0.1630  0.1188
  970MOL0     H30896   2.691   6.964   6.966 -1.1658  1.6052  1.1118
  970MOL0     H30897   2.457   6.958   7.074  0.9166  0.5424  0.6110
  970MOL0     H30898   2.397   6.908   6.908 -0.0568 -1.1433 -0.1598
  970MOL0     H30899   2.498   6.682   6.950  0.4700  1.9548 -2.0683
  970MOL0     H30900   2.425   6.713   7.097 -1.3449 -0.7005 -2.6154
  970MOL0     H30901   2.720   6.639   6.942 -0.6638  2.1405 -1.5819
  970MOL0     H30902   3.028   6.673   7.217  2.7288 -2.0411 -0.4685
  970MOL0     H30903   2.959   6.517   7.184 -1.4209 -0.2936 -2.8815
  970MOL0     H30904   2.981   6.551   6.935 -1.6922 -1.1014  1.9227
  970MOL0     H30905   3.130   6.550   7.038  0.3941 -0.1629  1.5517
  970MOL0     H30906   3.185   6.713   6.911  0.4442 -0.9383  0.2152
  970MOL0     H30907   3.119   6.811   7.033  1.0142 -1.2303 -0.7749
  970MOL0     H30908   2.888   6.783   6.889 -0.3532 -0.8835 -1.7112
  970MOL0     H30909   2.999   6.740   6.766 -1.8250 -3.9896  2.4793
  970MOL0     H30910   3.206   6.800   6.707 -1.0846  0.9581  0.4178
  970MOL0     H30911   3.500   6.875   6.560  0.1400 -0.8977  0.2189
  970MOL0     H30912   3.379   6.769   6.522 -0.9737 -0.5797 -1.6162
  970MOL0     H30913   3.399   6.906   6.411 -1.3413  0.9052  0.9422
  970MOL0     H30914   3.740   7.007   6.477 -2.4313  0.8581 -0.4132
  970MOL0     H30915   3.970   7.114   6.432  1.8789  1.5077  1.9103
  970MOL0     H30916   4.002   7.564   6.419  1.1915 -0.1907 -2.7499
  970MOL0     H30917   4.025   7.476   6.578  1.7348 -2.7307  0.8800
  970MOL0     H30918   4.256   7.408   6.503 -1.6860 -1.6189 -1.0627
  970MOL0     H30919   4.225   7.501   6.352  0.3679 -0.3489 -0.3423
  970MOL0     H30920   4.221   7.593   6.644 -0.0771  0.5150  0.1192
  970MOL0     H30921   4.177   7.690   6.520  1.1013  1.2966  3.0959
  970MOL0     H30922   4.463   7.556   6.536  2.2619  0.8864 -0.4288
  970MOL0     H30923   4.426   7.692   6.440  0.5549 -1.3368 -0.9029
  970MOL0     H30924   4.382   7.733   6.727 -2.9161  0.2480 -1.5469
  970MOL0     H30925   4.433   7.852   6.609  0.8192 -0.2654 -0.3282
  970MOL0     H30926   4.615   7.781   6.782  3.6418 -0.7506  0.6526
  970MOL0     H30927   4.614   7.631   6.697 -0.6428 -0.4742 -1.2671
  970MOL0     H30928   4.708   7.909   6.619 -0.5520  0.8952  0.7575
  970MOL0     H30929   4.666   7.799   6.482  4.7071  0.7459 -2.2085
  970MOL0     H30930   4.863   7.735   6.477 -1.1323 -3.1147 -0.9202
  970MOL0     H30931   4.819   7.621   6.596 -0.6225  0.1942 -2.7561
  970MOL0     H30932   3.784   7.498   6.474  3.0829  0.5653 -0.9492
  970MOL0     H30933   3.585   7.403   6.548 -0.1579 -1.9572  4.1595
  970MOL0     H30934   3.179   7.279   6.587 -0.5466 -0.4337 -1.0659
  970MOL0     H30935   3.012   7.170   6.730 -0.1836  0.4258  0.5996
  970MOL0     H30936   2.912   7.552   6.728  1.3736 -0.7162 -3.1741
  970MOL0     H30937   3.100   7.714   6.715 -0.5997 -0.5285  0.1402
  970MOL0     H30938   3.095   8.375   6.686 -1.2074 -2.0731 -0.3011
  970MOL0     H30939   3.308   8.508   6.725  0.7135 -0.3159  0.2682
  970MOL0     H30940   3.602   8.574   6.872  0.0592 -0.7537  1.5914
  970MOL0     H30941   3.459   8.513   6.927  0.6406 -1.7725  1.7395
  970MOL0     H30942   3.563   8.294   7.012 -0.0720  0.1588  1.3972
  970MOL0     H30943   3.646   8.426   7.069 -3.0572  2.1318  0.2696
  970MOL0     H30944   3.725   8.259   6.829 -0.7894 -1.8627  0.9263
  970MOL0     H30945   3.780   8.244   6.993  0.2655  0.4699 -1.0206
  970MOL0     H30946   3.835   8.481   6.802  0.9730  1.5361  0.5350
  970MOL0     H30947   3.940   8.351   6.839 -0.9188 -1.0641 -1.2054
  970MOL0     H30948   4.039   8.540   7.187  3.0473 -2.0447 -1.0789
  970MOL0     H30949   3.537   8.161   6.756 -1.1259  0.3049  3.3548
  970MOL0     H30950   3.327   8.023   6.715 -2.3470 -0.4304  1.5282
  971MOL0     O30951   5.144   2.211  11.018 -0.2245 -0.3372  0.2171
  971MOL0     C30952   5.220   2.175  11.111  0.2847  1.0023  0.1154
  971MOL0     O30953   5.209   2.050  11.171  0.0224 -0.1796  0.1236
  971MOL0     C30954   5.112   1.968  11.133  0.3219  0.9303 -1.0276
  971MOL0     C30955   5.052   1.908  11.246 -0.2207  0.4900  0.0934
  971MOL0     C30956   4.951   1.816  11.222  0.5249 -0.6450  0.2208
  971MOL0     C30957   4.923   1.773  11.089 -0.1118 -0.6084  0.1002
  971MOL0     O30958   4.824   1.684  11.092  0.1025  0.1588  0.6627
  971MOL0     C30959   4.782   1.621  10.970 -0.1644  0.3201 -0.5143
  971MOL0     C30960   4.642   1.654  10.917  0.5790  0.3986 -0.2633
  971MOL0     C30961   4.532   1.618  11.011 -0.9180 -0.1515  0.3867
  971MOL0     C30962   4.399   1.672  10.961  0.1900 -0.3326  0.2295
  971MOL0     C30963   4.279   1.671  11.058  0.3561 -1.1402  0.4201
  971MOL0     C30964   4.156   1.753  11.013 -0.2840  0.6552 -0.3420
  971MOL0     C30965   4.048   1.736  11.122 -0.2880  0.1740  0.9699
  971MOL0     C30966   3.921   1.828  11.113  0.1769  0.2914  0.3335
  971MOL0     N30967   3.951   1.965  11.176  0.4578  0.6901 -1.0616
  971MOL0     C30968   3.898   2.077  11.116  0.3521  0.3124  0.2933
  971MOL0     C30969   3.919   2.174  11.205  0.5060  0.5935  0.8642
  971MOL0     C30970   3.868   2.310  11.192 -0.0542  0.2706 -0.1014
  971MOL0     C30971   3.881   2.354  11.045  0.4811 -0.5832 -0.2317
  971MOL0     C30972   3.798   2.492  11.027 -0.9288  0.5244 -0.4274
  971MOL0     C30973   3.756   2.499  10.882 -0.5611 -0.3581 -0.2093
  971MOL0     O30974   3.692   2.626  10.872 -0.2577  1.0560 -0.2485
  971MOL0     C30975   3.563   2.647  10.916 -1.0873 -0.4015 -0.0089
  971MOL0     C30976   3.519   2.776  10.896 -0.5848  0.4824  0.1343
  971MOL0     C30977   3.402   2.833  10.940  0.0670 -0.8621 -0.2805
  971MOL0     C30978   3.367   2.981  10.919 -0.8764  0.3036  0.2091
  971MOL0     C30979   3.313   2.743  11.004 -0.4521  0.1313 -0.0317
  971MOL0     C30980   3.168   2.768  11.047 -0.2090  0.2958  0.6681
  971MOL0     O30981   3.092   2.858  10.973 -0.3800  0.0521  0.5507
  971MOL0     C30982   2.966   2.884  11.025 -0.5856 -0.9878  0.5329
  971MOL0     C30983   2.923   3.010  11.085  0.1698  0.6671 -0.2020
  971MOL0     C30984   2.791   3.027  11.124 -0.3771  0.1194  0.0641
  971MOL0     C30985   2.696   2.924  11.101  0.2025  0.1544 -0.4167
  971MOL0     O30986   2.563   2.929  11.142 -0.0395 -0.1459 -0.5471
  971MOL0     C30987   2.514   3.042  11.222 -0.6896 -0.5171  0.1159
  971MOL0     C30988   2.377   3.023  11.277  1.4445  0.0825  0.5393
  971MOL0     C30989   2.353   2.903  11.361 -1.5280 -0.1738 -0.4840
  971MOL0     C30990   2.214   2.855  11.348 -0.3098  0.6698 -0.8318
  971MOL0     C30991   2.194   2.709  11.395  0.6892  0.2993 -0.1964
  971MOL0     C30992   2.217   2.683  11.547  0.1540 -0.8715 -0.2933
  971MOL0     C30993   2.243   2.525  11.580  0.0980 -0.0042 -0.9061
  971MOL0     C30994   2.254   2.493  11.727 -0.6069 -0.3597 -0.6640
  971MOL0    Cl30995   2.084   2.495  11.794  0.1161  0.2925  0.1686
  971MOL0     C30996   2.746   2.806  11.048 -0.1845  0.4664 -0.0093
  971MOL0     C30997   2.870   2.792  11.004 -1.1084  0.0635  0.4602
  971MOL0     O30998   3.122   2.696  11.138 -0.3654  0.2389  0.1109
  971MOL0     C30999   3.353   2.608  11.018  0.4405 -0.4500  0.4301
  971MOL0     C31000   3.477   2.563  10.974  0.5862  0.6410  0.7359
  971MOL0     N31001   3.985   2.123  11.309  0.5263  0.3007  0.3479
  971MOL0     N31002   3.992   1.991  11.305  0.2212 -0.4858 -0.8142
  971MOL0     C31003   4.998   1.820  10.983 -0.2158 -0.4780 -0.4041
  971MOL0     C31004   5.090   1.924  11.004 -0.1339 -0.3997  0.8077
  971MOL0     C31005   5.327   2.257  11.172  0.4809  0.1514  0.2445
  971MOL0     C31006   5.356   2.377  11.108 -0.3898  1.3096  0.5648
  971MOL0     C31007   5.439   2.463  11.167 -0.2726  0.0833  0.2860
  971MOL0     C31008   5.524   2.420  11.260  0.1590  0.1042  0.3822
  971MOL0     O31009   5.623   2.504  11.307  1.1362  0.3687  0.1335
  971MOL0     C31010   5.748   2.490  11.240  0.3843  0.3109  0.0932
  971MOL0     C31011   5.741   2.567  11.099  0.2670 -0.2567 -0.7728
  971MOL0     C31012   5.759   2.717  11.116  0.4111  0.1979 -0.1575
  971MOL0     C31013   5.717   2.791  10.989 -0.2821 -0.2999 -0.2736
  971MOL0     C31014   5.765   2.925  11.000 -0.0850 -0.8872  0.0352
  971MOL0     C31015   5.824   3.036  10.992  0.2480 -0.4028 -0.0127
  971MOL0     C31016   5.525   2.288  11.311  0.1136 -0.7781 -0.1907
  971MOL0     C31017   5.415   2.208  11.272  0.4081 -0.1206  0.5946
  971MOL0     H31018   5.092   1.941  11.341  0.4159  0.0398 -0.0123
  971MOL0     H31019   4.890   1.765  11.295  0.0289 -2.0651 -1.1016
  971MOL0     H31020   4.848   1.657  10.890 -1.7936  4.5683 -0.1625
  971MOL0     H31021   4.794   1.512  10.978  1.2937  0.6122  3.3355
  971MOL0     H31022   4.648   1.760  10.891  0.0408  0.4729 -0.0861
  971MOL0     H31023   4.631   1.598  10.824 -0.8068  1.5960 -0.8630
  971MOL0     H31024   4.526   1.510  11.028  1.3559 -0.0248  2.5070
  971MOL0     H31025   4.564   1.653  11.110 -3.9007 -0.4238  1.5371
  971MOL0     H31026   4.414   1.770  10.915  0.2329 -1.6945 -2.9301
  971MOL0     H31027   4.363   1.612  10.877  2.2935 -0.3148 -0.7542
  971MOL0     H31028   4.249   1.567  11.075 -0.7039 -0.5663  2.3862
  971MOL0     H31029   4.315   1.715  11.151 -1.3891 -0.6551  0.9019
  971MOL0     H31030   4.185   1.857  10.997 -0.5240  0.7531 -0.1468
  971MOL0     H31031   4.118   1.720  10.916  0.0091  2.6640 -1.1815
  971MOL0     H31032   4.033   1.628  11.122  3.4662 -0.4788  1.1220
  971MOL0     H31033   4.099   1.754  11.217  5.1413  2.9967 -2.0505
  971MOL0     H31034   3.844   1.790  11.180 -1.6334  1.1997 -1.1627
  971MOL0     H31035   3.888   1.833  11.009 -1.3594  1.9402  0.8720
  971MOL0     H31036   3.847   2.079  11.021  0.9955 -0.3062 -0.0736
  971MOL0     H31037   3.761   2.307  11.215 -0.5891  0.3771 -2.3761
  971MOL0     H31038   3.925   2.380  11.254  3.1660 -1.5950 -0.7659
  971MOL0     H31039   3.849   2.276  10.975  0.0402  0.3696 -1.1339
  971MOL0     H31040   3.985   2.365  11.015  0.8281 -4.4204 -0.9839
  971MOL0     H31041   3.868   2.573  11.051  0.8525 -1.3915  1.1544
  971MOL0     H31042   3.709   2.503  11.089 -0.1354  0.8441  0.6774
  971MOL0     H31043   3.699   2.412  10.848 -3.7731  1.2433  0.6848
  971MOL0     H31044   3.845   2.507  10.820  0.3956 -0.8374  1.0524
  971MOL0     H31045   3.600   2.846  10.875 -0.8294  0.7604  0.1144
  971MOL0     H31046   3.323   3.016  11.012 -0.5511  2.1044 -0.2790
  971MOL0     H31047   3.453   3.046  10.898 -0.5519  0.6452  2.4077
  971MOL0     H31048   3.290   2.990  10.842 -2.1642 -0.1269  1.4012
  971MOL0     H31049   2.993   3.092  11.073  0.7597 -0.1354 -2.9858
  971MOL0     H31050   2.757   3.125  11.158  0.9152  0.4737  0.4076
  971MOL0     H31051   2.566   3.044  11.318 -0.3783  1.2046 -0.0600
  971MOL0     H31052   2.525   3.135  11.166  1.4811 -0.2470  0.8804
  971MOL0     H31053   2.353   3.117  11.327  0.6114  3.1252 -4.8055
  971MOL0     H31054   2.316   3.017  11.186  1.5886 -0.3413  0.4704
  971MOL0     H31055   2.372   2.919  11.467 -0.9911 -2.5552 -0.1663
  971MOL0     H31056   2.425   2.832  11.320  1.8712  2.7950 -0.1480
  971MOL0     H31057   2.149   2.919  11.408  1.0008  2.5011 -1.3143
  971MOL0     H31058   2.187   2.860  11.242 -0.3033  2.1926 -0.7765
  971MOL0     H31059   2.257   2.648  11.330  0.5043  0.6963 -0.7568
  971MOL0     H31060   2.094   2.675  11.365  0.3352  0.1378  1.1095
  971MOL0     H31061   2.309   2.730  11.584  0.1994 -1.4186  0.3073
  971MOL0     H31062   2.134   2.715  11.611  2.6907  2.2431  1.7609
  971MOL0     H31063   2.330   2.473  11.537 -1.7936 -2.2950 -2.1773
  971MOL0     H31064   2.163   2.474  11.526 -1.3794  0.5576  0.6580
  971MOL0     H31065   2.325   2.558  11.778  1.3479 -1.1436 -2.2477
  971MOL0     H31066   2.290   2.389  11.733  1.8896  0.4954  0.5932
  971MOL0     H31067   2.681   2.719  11.046 -1.7012  1.4551  2.5730
  971MOL0     H31068   2.913   2.703  10.959 -0.0076 -0.2173  1.9913
  971MOL0     H31069   3.285   2.533  11.056  1.2479 -1.9951 -1.0513
  971MOL0     H31070   3.501   2.460  10.998 -1.0568  0.2309  0.7504
  971MOL0     H31071   4.982   1.772  10.887 -1.6335  0.0338 -0.4550
  971MOL0     H31072   5.154   1.962  10.925  0.4279  2.2747  2.4465
  971MOL0     H31073   5.308   2.416  11.019 -0.2155  3.1456  1.2186
  971MOL0     H31074   5.448   2.565  11.131  0.3198  0.2749  0.9560
  971MOL0     H31075   5.830   2.528  11.301  1.0545  0.7686 -1.0470
  971MOL0     H31076   5.773   2.386  11.220  2.7978  0.9908 -0.7361
  971MOL0     H31077   5.652   2.543  11.040 -0.8434 -0.3298  0.8559
  971MOL0     H31078   5.824   2.539  11.033  0.4399  0.0112 -0.6685
  971MOL0     H31079   5.865   2.737  11.133  0.1481  1.4530  0.0798
  971MOL0     H31080   5.693   2.744  11.199 -2.3314 -3.8076 -0.7250
  971MOL0     H31081   5.608   2.792  10.982 -0.3848  3.3751 -0.2757
  971MOL0     H31082   5.755   2.740  10.900 -1.7652 -0.6972 -0.7063
  971MOL0     H31083   5.854   3.136  10.966 -0.5116  0.2044  1.3423
  971MOL0     H31084   5.596   2.242  11.380 -0.1970 -1.7740 -0.5208
  971MOL0     H31085   5.411   2.106  11.310 -0.7480  0.6453  2.6908
  972MOL0     O31086   1.145  11.286  10.976  0.6068  0.4164 -0.0650
  972MOL0     C31087   1.127  11.237  10.867 -1.4060  0.4860  0.4979
  972MOL0     O31088   1.010  11.208  10.808 -0.1406  0.1854  0.1516
  972MOL0     C31089   0.896  11.231  10.890 -0.7446  0.1871  0.9959
  972MOL0     C31090   0.840  11.354  10.887 -0.1995  0.1099 -0.2045
  972MOL0     C31091   0.715  11.373  10.948  0.4339  0.1455 -0.7407
  972MOL0     C31092   0.643  11.268  11.003  0.0830 -0.2240 -0.1327
  972MOL0     O31093   0.517  11.280  11.046  0.2948  1.1393  0.2167
  972MOL0     C31094   0.492  11.242  11.181  0.2689 -0.5655 -0.0885
  972MOL0     C31095   0.353  11.304  11.213  0.2770  0.2097  0.1268
  972MOL0     C31096   0.232  11.217  11.145 -0.4486  0.3199  0.6657
  972MOL0     C31097   0.132  11.138  11.231  1.0159 -0.7106  0.1209
  972MOL0     C31098   0.029  11.061  11.138 -1.2435  0.7674 -1.1419
  972MOL0     C31099  -0.066  10.983  11.234 -0.1199  0.1986 -0.2946
  972MOL0     C31100  -0.173  10.902  11.151 -0.7110  0.0220  0.4658
  972MOL0     C31101  -0.250  10.806  11.244 -0.7066  0.1129  0.1930
  972MOL0     N31102  -0.387  10.757  11.200 -0.9276  0.2394  0.6659
  972MOL0     C31103  -0.410  10.667  11.095  1.0323  0.1970 -0.1485
  972MOL0     C31104  -0.549  10.665  11.079  0.2798 -0.7482  0.0519
  972MOL0     C31105  -0.630  10.569  10.990 -0.5095  0.0827  0.3452
  972MOL0     C31106  -0.670  10.448  11.077  0.1574  0.1900 -0.0128
  972MOL0     C31107  -0.816  10.395  11.040  0.1660 -0.1602  0.2676
  972MOL0     C31108  -0.853  10.276  11.113 -0.0673 -0.5676  0.6620
  972MOL0     O31109  -0.800  10.157  11.052  0.1615  0.6709 -0.3778
  972MOL0     C31110  -0.845  10.050  11.119 -0.0934  0.7959 -1.5323
  972MOL0     C31111  -0.749   9.952  11.155 -0.3368 -0.5442 -0.0609
  972MOL0     C31112  -0.774   9.842  11.226  0.0886 -0.4285 -0.3428
  972MOL0     C31113  -0.658   9.757  11.270 -0.0885 -0.2040  0.2922
  972MOL0     C31114  -0.904   9.799  11.259  1.0605  0.7088 -0.3041
  972MOL0     C31115  -0.947   9.672  11.325  0.3040 -0.9544 -0.5412
  972MOL0     O31116  -1.084   9.625  11.309 -0.9071 -1.2257 -0.1700
  972MOL0     C31117  -1.130   9.503  11.359  0.0801  0.1523  0.1203
  972MOL0     C31118  -1.065   9.383  11.401  0.3464 -0.6403  0.8713
  972MOL0     C31119  -1.132   9.261  11.430 -1.0037 -0.6535 -0.5797
  972MOL0     C31120  -1.276   9.266  11.435 -0.2724 -0.8949  0.7013
  972MOL0     O31121  -1.358   9.158  11.467 -0.2180 -0.3881  0.2123
  972MOL0     C31122  -1.293   9.040  11.505 -0.1870  0.5205  0.3796
  972MOL0     C31123  -1.258   9.037  11.659 -0.2789  0.4702  0.1448
  972MOL0     C31124  -1.278   8.894  11.730  0.7973 -0.1489  0.4416
  972MOL0     C31125  -1.167   8.898  11.838  0.2883  0.4682 -0.0705
  972MOL0     C31126  -1.156   8.778  11.936 -0.1621  0.0274  0.7588
  972MOL0     C31127  -1.030   8.750  12.008 -1.8613  0.0961 -0.5014
  972MOL0     C31128  -0.974   8.876  12.076 -0.0815  0.5051  0.6937
  972MOL0     C31129  -0.925   8.856  12.223  0.4037  0.2821 -0.3902
  972MOL0    Cl31130  -1.061   8.827  12.343  0.0928 -0.2471 -0.0277
  972MOL0     C31131  -1.342   9.389  11.406  0.1386 -0.2005 -0.6014
  972MOL0     C31132  -1.274   9.500  11.369 -0.4069 -0.5522 -0.1805
  972MOL0     O31133  -0.873   9.611  11.396 -0.0280  0.3863 -0.5398
  972MOL0     C31134  -1.000   9.889  11.211  0.6234  0.5652 -1.5201
  972MOL0     C31135  -0.974  10.013  11.141  0.5689 -0.6130 -0.8341
  972MOL0     N31136  -0.601  10.768  11.166 -0.1465 -0.1405 -0.4295
  972MOL0     N31137  -0.504  10.820  11.239 -0.1773 -0.1664  0.4141
  972MOL0     C31138   0.701  11.142  11.003 -0.4513 -0.8293 -0.5852
  972MOL0     C31139   0.839  11.128  10.959 -0.4591  0.8052 -0.2212
  972MOL0     C31140   1.247  11.207  10.792 -0.5392  0.2990  0.8963
  972MOL0     C31141   1.365  11.255  10.829 -0.2680  0.2898 -0.2158
  972MOL0     C31142   1.483  11.239  10.751 -0.1090  1.3641  0.7188
  972MOL0     C31143   1.480  11.155  10.638  0.1229 -0.7292 -0.1151
  972MOL0     O31144   1.591  11.123  10.564 -0.1975 -0.4313 -0.5166
  972MOL0     C31145   1.714  11.168  10.606  0.3678  0.4797 -0.0538
  972MOL0     C31146   1.804  11.085  10.524 -0.5420  0.2818 -0.8515
  972MOL0     C31147   1.943  11.138  10.537 -0.2786 -0.0716  0.1417
  972MOL0     C31148   2.046  11.060  10.458  0.4375 -0.6517  0.1500
  972MOL0     C31149   2.183  11.114  10.473  0.3969 -0.3869 -0.7031
  972MOL0     C31150   2.292  11.165  10.472 -0.9244 -0.0805  0.8871
  972MOL0     C31151   1.352  11.112  10.593 -0.9089  0.0902  0.2637
  972MOL0     C31152   1.236  11.138  10.667 -0.0954  0.1886 -0.2876
  972MOL0     H31153   0.889  11.428  10.825  1.2788  0.1391  0.9617
  972MOL0     H31154   0.662  11.466  10.967 -2.1390 -1.2729 -0.3927
  972MOL0     H31155   0.485  11.134  11.201  3.8081 -1.1095 -1.1885
  972MOL0     H31156   0.557  11.293  11.252  0.4532  1.7292 -1.8173
  972MOL0     H31157   0.336  11.295  11.321  0.5733  0.4966  0.1997
  972MOL0     H31158   0.350  11.409  11.183  1.1632  0.6889  1.6090
  972MOL0     H31159   0.185  11.286  11.074  1.4492  0.3082 -0.7056
  972MOL0     H31160   0.284  11.152  11.074 -0.9616  1.3860 -0.7483
  972MOL0     H31161   0.186  11.078  11.305  2.2655 -2.6239 -2.1806
  972MOL0     H31162   0.079  11.221  11.278 -0.4142  0.3341 -3.0399
  972MOL0     H31163  -0.031  11.125  11.074 -2.4694  1.8326  0.9570
  972MOL0     H31164   0.076  10.978  11.084 -1.9106 -1.3246  1.2691
  972MOL0     H31165  -0.010  10.914  11.297 -0.8064  0.3046  0.4473
  972MOL0     H31166  -0.123  11.054  11.295 -1.3743 -1.2719  0.3002
  972MOL0     H31167  -0.253  10.961  11.105 -0.9530 -0.0235  0.8227
  972MOL0     H31168  -0.124  10.843  11.073 -3.4901 -2.2067  0.2053
  972MOL0     H31169  -0.272  10.866  11.332 -0.3008  0.7687 -0.1455
  972MOL0     H31170  -0.199  10.710  11.255  0.0688  0.7863  3.3440
  972MOL0     H31171  -0.339  10.607  11.039  0.1426 -1.6056  0.5813
  972MOL0     H31172  -0.718  10.627  10.960  0.7398  2.0787  0.3421
  972MOL0     H31173  -0.574  10.538  10.901 -1.2886 -3.4238  0.9396
  972MOL0     H31174  -0.668  10.482  11.181 -1.3672 -0.3047  0.2001
  972MOL0     H31175  -0.597  10.368  11.060 -1.1553 -1.2161  0.6030
  972MOL0     H31176  -0.819  10.385  10.931  3.7097  1.7621 -0.1512
  972MOL0     H31177  -0.881  10.480  11.064  1.6576  1.2505 -0.5171
  972MOL0     H31178  -0.963  10.276  11.115 -0.3178  2.2448 -3.0292
  972MOL0     H31179  -0.826  10.297  11.217  0.9345 -2.0019  0.7121
  972MOL0     H31180  -0.650   9.986  11.127 -0.1259  1.5128  2.7548
  972MOL0     H31181  -0.565   9.792  11.224 -1.1779  1.1369 -1.0129
  972MOL0     H31182  -0.649   9.761  11.379 -1.0197 -0.8681  0.4003
  972MOL0     H31183  -0.683   9.657  11.234 -4.6924  1.1279 -0.8402
  972MOL0     H31184  -0.956   9.384  11.400  0.4419 -2.0372 -2.3471
  972MOL0     H31185  -1.061   9.184  11.456 -1.3629 -1.4452 -1.8618
  972MOL0     H31186  -1.361   8.955  11.495 -1.1390  1.0986  1.6541
  972MOL0     H31187  -1.204   9.021  11.445  1.7963  3.8197  1.9622
  972MOL0     H31188  -1.161   9.083  11.679  0.1316  1.0457 -2.6970
  972MOL0     H31189  -1.338   9.098  11.703  1.6700  1.5281  2.4354
  972MOL0     H31190  -1.261   8.809  11.663 -0.5118  1.2739 -1.8138
  972MOL0     H31191  -1.374   8.877  11.780  0.1664 -3.2001 -1.5357
  972MOL0     H31192  -1.067   8.918  11.800  0.4328 -2.2894 -1.3882
  972MOL0     H31193  -1.181   8.986  11.900 -0.2386 -1.0354  2.0501
  972MOL0     H31194  -1.172   8.690  11.873 -0.6281  0.1971  0.6375
  972MOL0     H31195  -1.240   8.781  12.006 -1.7997 -6.2569 -0.3153
  972MOL0     H31196  -1.056   8.670  12.078 -1.6858  0.2757 -0.2277
  972MOL0     H31197  -0.964   8.700  11.936 -3.5652  1.4133 -3.1453
  972MOL0     H31198  -1.038   8.964  12.070 -1.0775 -0.1985  0.8581
  972MOL0     H31199  -0.881   8.902  12.024  1.1395 -2.0257  1.4365
  972MOL0     H31200  -0.870   8.944  12.258  0.8877 -0.3531  0.4918
  972MOL0     H31201  -0.856   8.772  12.235  0.9307  0.1797 -3.3488
  972MOL0     H31202  -1.450   9.391  11.421  0.1850  1.4904 -0.3284
  972MOL0     H31203  -1.331   9.587  11.338 -1.2690 -0.9776  0.1591
  972MOL0     H31204  -1.102   9.869  11.241  1.7097  0.4795  2.7301
  972MOL0     H31205  -1.056  10.081  11.120 -1.3866 -1.2690  3.6171
  972MOL0     H31206   0.653  11.051  11.035  0.3480 -1.7845 -1.9965
  972MOL0     H31207   0.889  11.032  10.961  1.2705  1.6603 -1.0606
  972MOL0     H31208   1.378  11.323  10.912 -0.6750  1.3066 -0.9544
  972MOL0     H31209   1.576  11.279  10.791  1.7735 -2.9294  1.1644
  972MOL0     H31210   1.726  11.275  10.587 -1.2708  0.4664 -1.3651
  972MOL0     H31211   1.738  11.145  10.710  2.1422  6.0490  1.1019
  972MOL0     H31212   1.775  11.095  10.419  1.1569 -1.2260 -1.5211
  972MOL0     H31213   1.795  10.982  10.561 -6.4324  0.4833 -0.7975
  972MOL0     H31214   1.971  11.144  10.643 -0.4497  2.2186  0.1150
  972MOL0     H31215   1.946  11.242  10.504  0.4080 -0.1429 -0.0346
  972MOL0     H31216   2.022  11.063  10.352 -0.6543 -2.1422  0.3157
  972MOL0     H31217   2.058  10.953  10.481  0.8508 -0.8266 -0.8540
  972MOL0     H31218   2.382  11.220  10.452 -0.9213 -0.2628  0.4019
  972MOL0     H31219   1.342  11.048  10.506 -3.1979  1.2334 -0.3845
  972MOL0     H31220   1.149  11.080  10.638 -0.0467  0.3623 -0.7758
  973MOL0     O31221   1.610   3.618   8.224  0.8485  0.7069 -0.0887
  973MOL0     C31222   1.556   3.627   8.334  0.5301 -0.1824  0.2004
  973MOL0     O31223   1.444   3.699   8.364  0.3986  0.4908  0.4138
  973MOL0     C31224   1.364   3.749   8.265  0.1976 -1.0826 -0.0252
  973MOL0     C31225   1.241   3.699   8.244  0.1425 -0.4832 -0.1163
  973MOL0     C31226   1.150   3.750   8.154  0.9619  0.9232 -0.2692
  973MOL0     C31227   1.180   3.863   8.081  0.1035  0.6058 -1.0793
  973MOL0     O31228   1.080   3.910   8.008 -0.2818  0.2921  0.2392
  973MOL0     C31229   1.111   4.005   7.900 -0.3267 -0.6130  0.2013
  973MOL0     C31230   1.002   4.000   7.793  0.5928 -1.1121  0.0538
  973MOL0     C31231   0.863   4.041   7.848  0.0027  0.6014 -0.1655
  973MOL0     C31232   0.762   4.076   7.737  0.9345  0.3443 -0.5014
  973MOL0     C31233   0.614   4.064   7.781  0.6825 -0.4158  0.0008
  973MOL0     C31234   0.580   4.167   7.889  0.2762  0.2072 -1.0686
  973MOL0     C31235   0.445   4.138   7.964 -0.5508  0.1857  0.5652
  973MOL0     C31236   0.465   4.039   8.079 -0.9646  0.1998 -0.1380
  973MOL0     N31237   0.370   3.932   8.098 -0.2680  0.2138  0.7484
  973MOL0     C31238   0.357   3.849   8.202  0.3288 -0.0113 -0.2867
  973MOL0     C31239   0.273   3.748   8.170  0.4090  0.2875 -0.6155
  973MOL0     C31240   0.240   3.628   8.255  0.1028 -0.5778  0.1018
  973MOL0     C31241   0.093   3.627   8.275  0.5026 -0.3979  1.0512
  973MOL0     C31242   0.050   3.526   8.382 -0.1604 -0.8220  0.0017
  973MOL0     C31243   0.046   3.590   8.522 -0.0341 -0.2705 -1.1010
  973MOL0     O31244   0.021   3.496   8.626 -0.7394 -0.3287 -0.9314
  973MOL0     C31245  -0.104   3.484   8.680  0.6129  0.2387  0.5346
  973MOL0     C31246  -0.229   3.500   8.621  0.0688 -0.6259 -0.5224
  973MOL0     C31247  -0.349   3.451   8.679  0.0041  0.0803  0.3903
  973MOL0     C31248  -0.471   3.455   8.595  0.1924 -0.7361  0.2812
  973MOL0     C31249  -0.345   3.396   8.806  0.1732 -0.4488  0.3337
  973MOL0     C31250  -0.464   3.353   8.883  0.2180 -0.3990 -0.5712
  973MOL0     O31251  -0.593   3.334   8.819 -0.1776 -0.2211 -0.2095
  973MOL0     C31252  -0.716   3.344   8.888 -0.3052  0.3916  0.3019
  973MOL0     C31253  -0.807   3.236   8.904 -0.1279  0.5036  0.8142
  973MOL0     C31254  -0.924   3.255   8.971  0.7088  0.2242 -0.3686
  973MOL0     C31255  -0.960   3.378   9.031  0.8038 -0.1505 -0.1927
  973MOL0     O31256  -1.072   3.389   9.113 -0.0340  0.3216  0.2311
  973MOL0     C31257  -1.199   3.343   9.064  0.9546  0.0269 -0.1017
  973MOL0     C31258  -1.295   3.459   9.101  0.0448 -0.7122 -0.3593
  973MOL0     C31259  -1.336   3.446   9.244  0.0476 -0.5724 -0.1427
  973MOL0     C31260  -1.378   3.582   9.302 -0.6957 -0.3621  0.0044
  973MOL0     C31261  -1.375   3.579   9.452  0.1561  0.8335  0.8414
  973MOL0     C31262  -1.454   3.697   9.506 -0.5081  0.3002 -0.0077
  973MOL0     C31263  -1.361   3.787   9.597 -1.0273 -0.5200 -1.3325
  973MOL0     C31264  -1.278   3.887   9.518  0.3087 -0.2013 -0.1233
  973MOL0    Cl31265  -1.158   3.971   9.624 -0.1375 -0.7354 -0.0009
  973MOL0     C31266  -0.862   3.483   9.021  1.3255  0.3114 -0.8413
  973MOL0     C31267  -0.748   3.463   8.940  0.0929 -0.8569  0.3258
  973MOL0     O31268  -0.445   3.335   9.008  0.0133  0.8208  0.0440
  973MOL0     C31269  -0.213   3.386   8.867  0.0415  1.0207  0.3920
  973MOL0     C31270  -0.100   3.428   8.809 -0.2771 -0.3706  0.4106
  973MOL0     N31271   0.220   3.780   8.043  0.7269  0.4236  0.0290
  973MOL0     N31272   0.274   3.893   8.010  0.0861  0.5234 -0.0489
  973MOL0     C31273   1.311   3.918   8.090 -0.1877 -0.3113 -0.1398
  973MOL0     C31274   1.402   3.866   8.186 -0.3517 -0.2112  0.0524
  973MOL0     C31275   1.614   3.547   8.441 -0.2431  0.3638 -0.3555
  973MOL0     C31276   1.744   3.482   8.423  0.9837 -1.0803  0.3891
  973MOL0     C31277   1.812   3.419   8.515  0.1012 -0.4349 -0.6409
  973MOL0     C31278   1.758   3.418   8.645 -0.5985  0.1364  0.4274
  973MOL0     O31279   1.819   3.360   8.756 -0.0237  0.5159 -0.1367
  973MOL0     C31280   1.880   3.233   8.731 -0.5184 -0.2857 -0.3374
  973MOL0     C31281   2.027   3.277   8.724  0.2943  0.5919  0.7397
  973MOL0     C31282   2.115   3.156   8.717 -0.3980  0.9415 -0.1328
  973MOL0     C31283   2.259   3.191   8.685 -0.2272  0.8385  0.5461
  973MOL0     C31284   2.356   3.124   8.770  0.8082  0.4461 -0.1195
  973MOL0     C31285   2.437   3.062   8.832  1.1845  0.3219 -0.2612
  973MOL0     C31286   1.634   3.478   8.668  0.5724 -0.2220  0.1517
  973MOL0     C31287   1.560   3.543   8.569 -0.3498  0.0362  0.2691
  973MOL0     H31288   1.207   3.618   8.308  2.9745 -2.1560 -0.5424
  973MOL0     H31289   1.046   3.719   8.153  0.5552  2.2119 -0.3312
  973MOL0     H31290   1.119   4.104   7.946 -0.5176 -0.8166  0.6769
  973MOL0     H31291   1.208   3.980   7.854  0.9535  2.6229  0.9040
  973MOL0     H31292   1.028   4.073   7.717 -1.5249 -0.1291  0.2202
  973MOL0     H31293   1.004   3.904   7.741  1.9041 -1.5234  0.8122
  973MOL0     H31294   0.825   3.962   7.914  0.6125  2.9286  3.2153
  973MOL0     H31295   0.885   4.130   7.907  3.2005  0.5573 -1.1396
  973MOL0     H31296   0.768   4.177   7.694 -3.4085  1.3026  0.6200
  973MOL0     H31297   0.787   4.014   7.651 -1.9106  2.6571 -3.2485
  973MOL0     H31298   0.555   4.072   7.690  3.0414  0.9276 -1.5291
  973MOL0     H31299   0.605   3.964   7.825 -0.5658 -0.5963 -0.6314
  973MOL0     H31300   0.660   4.175   7.964 -1.2347  0.1384  0.6259
  973MOL0     H31301   0.561   4.258   7.832 -1.1333 -0.7286 -2.1618
  973MOL0     H31302   0.415   4.234   8.006  1.1657  0.5297  1.0736
  973MOL0     H31303   0.369   4.104   7.892  1.7505 -2.5432 -0.7670
  973MOL0     H31304   0.475   4.095   8.173  0.8528  0.9248 -0.7121
  973MOL0     H31305   0.553   3.981   8.050 -0.8275 -2.0193  3.9093
  973MOL0     H31306   0.420   3.861   8.290  0.7442 -0.7069 -0.4820
  973MOL0     H31307   0.273   3.532   8.213 -2.1451 -2.4139  2.1937
  973MOL0     H31308   0.282   3.640   8.355 -2.3179  0.1532  1.0933
  973MOL0     H31309   0.042   3.613   8.179  2.2241 -1.1755  0.2092
  973MOL0     H31310   0.058   3.726   8.304 -0.1214 -0.1429 -0.4826
  973MOL0     H31311   0.110   3.434   8.384  0.9484 -0.1230  1.8558
  973MOL0     H31312  -0.052   3.494   8.362 -0.1218 -0.4525 -0.7859
  973MOL0     H31313  -0.030   3.669   8.524 -1.1560 -1.2846  2.0704
  973MOL0     H31314   0.140   3.642   8.541 -1.5041  2.0316  0.2925
  973MOL0     H31315  -0.220   3.547   8.524 -1.2647  2.0648  0.5447
  973MOL0     H31316  -0.455   3.476   8.489 -3.2307 -2.8362 -0.7869
  973MOL0     H31317  -0.519   3.357   8.596  0.2455 -0.7590  0.6078
  973MOL0     H31318  -0.529   3.538   8.638  1.5893  1.2604 -1.5051
  973MOL0     H31319  -0.775   3.137   8.873 -0.0506  0.3509  1.3624
  973MOL0     H31320  -0.987   3.171   9.000 -0.5165  1.6877  1.4382
  973MOL0     H31321  -1.194   3.320   8.957 -0.5022  0.9652 -0.3938
  973MOL0     H31322  -1.238   3.257   9.118 -0.5749  1.2640  0.8121
  973MOL0     H31323  -1.256   3.557   9.073  0.6306 -0.2109  1.9765
  973MOL0     H31324  -1.376   3.443   9.030 -0.1999  0.3695 -0.3322
  973MOL0     H31325  -1.248   3.418   9.304  0.3303  2.1083  0.8349
  973MOL0     H31326  -1.409   3.365   9.253 -0.5515  0.1170  1.4768
  973MOL0     H31327  -1.305   3.653   9.261  1.2886 -1.0285  2.2114
  973MOL0     H31328  -1.476   3.611   9.263 -0.6999  1.5307  1.3279
  973MOL0     H31329  -1.271   3.590   9.484  0.2016  0.9893  0.6423
  973MOL0     H31330  -1.416   3.486   9.491  0.3086  0.8587  1.0626
  973MOL0     H31331  -1.482   3.769   9.429 -1.2576  1.4480  1.2748
  973MOL0     H31332  -1.541   3.667   9.566 -0.4140  0.0100 -0.0122
  973MOL0     H31333  -1.297   3.718   9.652 -1.6818 -0.6848 -0.7588
  973MOL0     H31334  -1.422   3.848   9.664 -0.0268 -0.9715  0.0262
  973MOL0     H31335  -1.342   3.949   9.454 -1.9061 -2.0898  0.1141
  973MOL0     H31336  -1.221   3.825   9.448 -2.5317 -2.4864 -0.6086
  973MOL0     H31337  -0.870   3.571   9.083  1.4656  0.3839 -0.9265
  973MOL0     H31338  -0.672   3.541   8.942 -0.1588 -0.6227  1.1864
  973MOL0     H31339  -0.201   3.361   8.972  1.7855  1.8846  0.4210
  973MOL0     H31340  -0.005   3.436   8.860  0.3194  0.3053 -0.7479
  973MOL0     H31341   1.331   4.014   8.045  0.1062  0.5166  1.6592
  973MOL0     H31342   1.499   3.911   8.201  0.4115 -2.1656  1.4643
  973MOL0     H31343   1.786   3.502   8.325  0.0725  0.4148  0.2676
  973MOL0     H31344   1.913   3.384   8.495  0.3551 -1.5756  2.0593
  973MOL0     H31345   1.872   3.178   8.825 -1.7328  3.7581  2.1971
  973MOL0     H31346   1.835   3.185   8.643  1.1077 -3.1227  0.2656
  973MOL0     H31347   2.044   3.331   8.818 -0.8094 -0.4503  1.5848
  973MOL0     H31348   2.034   3.353   8.646 -3.3562  1.0261  0.6388
  973MOL0     H31349   2.079   3.086   8.641  2.4427 -1.6034  0.7128
  973MOL0     H31350   2.111   3.113   8.817 -3.1047  2.3054  0.4515
  973MOL0     H31351   2.275   3.299   8.697 -0.6337  0.7034  2.6535
  973MOL0     H31352   2.276   3.169   8.579 -0.6069 -0.7472  0.7875
  973MOL0     H31353   2.514   3.017   8.892  0.7888 -0.2865 -0.2017
  973MOL0     H31354   1.592   3.487   8.767 -0.0718  1.5804 -0.2397
  973MOL0     H31355   1.460   3.577   8.595 -0.8992 -0.8181 -0.6689
  974MOL0     O31356   3.992   4.416  10.601  0.5656  0.5639 -0.1619
  974MOL0     C31357   4.047   4.415  10.493  0.3564 -0.1597 -0.0091
  974MOL0     O31358   3.997   4.368  10.376 -0.0085 -0.6929  0.0671
  974MOL0     C31359   3.868   4.324  10.352  0.7103  0.4006 -0.0124
  974MOL0     C31360   3.841   4.303  10.211 -0.4014 -0.6533 -1.0172
  974MOL0     C31361   3.708   4.279  10.168  1.2520 -0.1977  0.0863
  974MOL0     C31362   3.595   4.257  10.254  0.3940 -1.0514 -0.2339
  974MOL0     O31363   3.476   4.215  10.200 -0.6731 -0.4959  0.0837
  974MOL0     C31364   3.362   4.226  10.285 -0.6780 -0.5763 -0.6491
  974MOL0     C31365   3.237   4.157  10.228 -0.0639 -0.1345 -0.1534
  974MOL0     C31366   3.137   4.250  10.148 -0.4098 -0.0337  1.0205
  974MOL0     C31367   3.026   4.176  10.081 -0.2273 -0.4567  0.2924
  974MOL0     C31368   2.898   4.257  10.111  0.1772  0.7336 -0.2983
  974MOL0     C31369   2.827   4.227  10.247 -0.0874 -0.4358 -0.3311
  974MOL0     C31370   2.679   4.243  10.245  0.1527 -0.7609  0.5025
  974MOL0     C31371   2.597   4.143  10.178  0.2238 -0.4862 -0.3098
  974MOL0     N31372   2.600   4.009  10.241 -0.6576 -0.3779  0.5549
  974MOL0     C31373   2.556   3.985  10.367  0.5511  0.4785  0.7840
  974MOL0     C31374   2.519   3.851  10.370  0.2084 -0.1541 -0.2824
  974MOL0     C31375   2.457   3.763  10.480  0.0179  0.1933  0.4842
  974MOL0     C31376   2.324   3.816  10.536 -0.2701  0.2951 -0.3872
  974MOL0     C31377   2.255   3.711  10.629 -0.2003  0.5686  0.8102
  974MOL0     C31378   2.166   3.787  10.726  0.1859  0.0365 -0.3730
  974MOL0     O31379   2.054   3.852  10.664  0.0935 -0.6193 -0.7800
  974MOL0     C31380   1.943   3.781  10.679 -0.2197 -0.1801  0.0971
  974MOL0     C31381   1.917   3.671  10.604 -0.0202  0.0832  0.3707
  974MOL0     C31382   1.806   3.593  10.609  0.7553 -0.5717  0.3135
  974MOL0     C31383   1.805   3.473  10.534  0.0462  0.4194  0.5164
  974MOL0     C31384   1.704   3.636  10.697 -0.0982  0.3719 -0.1497
  974MOL0     C31385   1.564   3.583  10.699  0.8420 -0.0267  0.0289
  974MOL0     O31386   1.524   3.501  10.601  0.5689 -0.6788  0.5978
  974MOL0     C31387   1.407   3.426  10.616 -0.1171  0.7496  0.4311
  974MOL0     C31388   1.276   3.474  10.624 -0.4065 -0.3354  0.7117
  974MOL0     C31389   1.165   3.386  10.634  1.1837 -0.9495 -0.8071
  974MOL0     C31390   1.193   3.248  10.644  0.3729 -0.5280  0.8775
  974MOL0     O31391   1.089   3.162  10.656  0.5094  0.6260 -0.1826
  974MOL0     C31392   1.093   3.035  10.581  0.3180 -0.9459  0.2468
  974MOL0     C31393   0.959   2.966  10.577 -0.4256 -0.7285  0.4057
  974MOL0     C31394   0.871   3.033  10.479  0.1394 -0.8161 -0.7251
  974MOL0     C31395   0.749   2.939  10.470 -0.2463 -0.0616 -0.1279
  974MOL0     C31396   0.625   3.023  10.443 -0.0666  0.4084  0.7732
  974MOL0     C31397   0.504   2.944  10.396 -0.1162 -0.1815  0.8041
  974MOL0     C31398   0.373   3.037  10.385 -0.1287  0.1036  0.4865
  974MOL0     C31399   0.250   2.963  10.429 -0.0005  0.2785 -0.6688
  974MOL0    Cl31400   0.257   2.893  10.600 -0.1840  0.1187 -0.1018
  974MOL0     C31401   1.324   3.195  10.622  1.5282 -0.7526 -0.5578
  974MOL0     C31402   1.428   3.285  10.609 -0.7161  0.7521  0.8115
  974MOL0     O31403   1.497   3.621  10.797 -0.2237  0.8732  0.3944
  974MOL0     C31404   1.722   3.749  10.776 -0.3296 -0.8810  0.4716
  974MOL0     C31405   1.839   3.828  10.756 -0.7648  0.5703 -0.6931
  974MOL0     N31406   2.562   3.797  10.244  0.6769 -0.3318  0.2207
  974MOL0     N31407   2.613   3.891  10.169  0.5409  0.6383 -0.5257
  974MOL0     C31408   3.625   4.278  10.393 -0.1582 -0.0695 -0.5054
  974MOL0     C31409   3.755   4.313  10.440 -0.4130 -0.1032  0.1735
  974MOL0     C31410   4.195   4.442  10.494 -0.0228 -0.2269  0.0574
  974MOL0     C31411   4.274   4.416  10.379  0.0692  0.0844  0.5989
  974MOL0     C31412   4.404   4.464  10.377  0.0348  0.1824 -0.2408
  974MOL0     C31413   4.456   4.528  10.490  0.8305  0.2330  0.2552
  974MOL0     O31414   4.583   4.572  10.501  0.1711 -0.1542  0.3244
  974MOL0     C31415   4.690   4.542  10.414  0.7489  0.3940  0.3557
  974MOL0     C31416   4.780   4.659  10.422  0.4754  1.2993  0.6271
  974MOL0     C31417   4.917   4.623  10.356 -0.4688  0.9380  0.3464
  974MOL0     C31418   5.012   4.730  10.385 -0.0346  0.1495  0.3992
  974MOL0     C31419   5.146   4.703  10.350 -0.2629  0.1841 -0.3030
  974MOL0     C31420   5.260   4.685  10.315  0.9499  0.1133 -1.1252
  974MOL0     C31421   4.382   4.544  10.607  0.3348 -0.2417  0.7141
  974MOL0     C31422   4.252   4.497  10.607 -0.4295  1.2316  1.1465
  974MOL0     H31423   3.914   4.315  10.132 -0.7714  0.3287 -1.2222
  974MOL0     H31424   3.685   4.262  10.063  0.5522 -2.4236  0.5286
  974MOL0     H31425   3.386   4.169  10.374  1.4458 -1.2882 -1.6148
  974MOL0     H31426   3.347   4.331  10.312 -1.9144 -0.9850  0.3343
  974MOL0     H31427   3.261   4.072  10.164 -1.5531 -0.6162 -0.1147
  974MOL0     H31428   3.191   4.114  10.318  3.8580 -0.0492  2.0808
  974MOL0     H31429   3.088   4.317  10.220  1.1257  1.3541  0.8339
  974MOL0     H31430   3.185   4.311  10.072 -0.1957 -0.6555  0.6570
  974MOL0     H31431   3.046   4.180   9.974  0.9655  1.1589  0.5357
  974MOL0     H31432   3.008   4.074  10.117 -0.5280 -0.2429  0.7654
  974MOL0     H31433   2.908   4.365  10.102  0.0985  0.7298 -0.4352
  974MOL0     H31434   2.830   4.227  10.030 -1.0866 -0.1723  1.0432
  974MOL0     H31435   2.854   4.125  10.276  0.3279 -0.8528 -2.0597
  974MOL0     H31436   2.875   4.289  10.323  1.1170  0.2729 -1.6171
  974MOL0     H31437   2.646   4.255  10.348 -0.5174 -2.5169  0.5247
  974MOL0     H31438   2.656   4.336  10.193  2.9997  0.3904  1.1148
  974MOL0     H31439   2.628   4.126  10.074 -0.1683 -0.7068 -0.3935
  974MOL0     H31440   2.493   4.176  10.173  0.3045 -0.1652  0.1230
  974MOL0     H31441   2.523   4.054  10.444  1.1018  0.2345  1.2430
  974MOL0     H31442   2.435   3.664  10.438 -1.3491  1.7613 -2.8625
  974MOL0     H31443   2.529   3.754  10.562  0.8355 -1.1692 -0.3424
  974MOL0     H31444   2.266   3.844  10.447 -0.0633  0.1519 -0.5704
  974MOL0     H31445   2.340   3.912  10.585 -0.3495  0.8132 -1.3543
  974MOL0     H31446   2.337   3.668  10.686  2.1918  4.6813  0.8404
  974MOL0     H31447   2.197   3.634  10.576  0.4424 -0.8039  2.0237
  974MOL0     H31448   2.228   3.862  10.775 -1.0062 -0.2539  1.6845
  974MOL0     H31449   2.129   3.711  10.795 -2.6467  0.9847 -0.7168
  974MOL0     H31450   1.996   3.625  10.546 -0.9900 -2.0395  0.6322
  974MOL0     H31451   1.744   3.397  10.584 -1.7556  2.0881  0.9860
  974MOL0     H31452   1.777   3.500  10.432 -1.4175 -0.3167  0.7059
  974MOL0     H31453   1.899   3.417  10.526 -1.1299 -1.6267  0.2900
  974MOL0     H31454   1.268   3.581  10.640  3.4498  0.1157  0.5528
  974MOL0     H31455   1.062   3.414  10.654  1.8603  1.7144 -0.6863
  974MOL0     H31456   1.126   3.066  10.481 -2.2994  4.7932  0.7490
  974MOL0     H31457   1.170   2.970  10.622  1.8856 -0.0440 -1.1267
  974MOL0     H31458   0.967   2.859  10.559 -2.9776 -1.6000  3.5141
  974MOL0     H31459   0.912   2.979  10.675  0.1689 -1.4704  0.7975
  974MOL0     H31460   0.921   3.039  10.382 -2.3252  1.0246 -2.0110
  974MOL0     H31461   0.850   3.135  10.512  0.2226  0.2167 -3.5886
  974MOL0     H31462   0.766   2.863  10.393 -0.5514  1.9227 -2.2654
  974MOL0     H31463   0.726   2.886  10.563 -0.0892 -1.8621 -1.0659
  974MOL0     H31464   0.641   3.094  10.361 -0.9083 -0.5787 -0.2818
  974MOL0     H31465   0.602   3.092  10.525  1.6894  1.2854  0.5616
  974MOL0     H31466   0.514   2.900  10.296  0.4629 -0.0275  0.7931
  974MOL0     H31467   0.493   2.862  10.468 -1.5988 -1.2647 -0.5528
  974MOL0     H31468   0.366   3.065  10.280  1.1154 -0.7988  0.1449
  974MOL0     H31469   0.385   3.131  10.440  1.1807 -0.9583  2.1166
  974MOL0     H31470   0.231   2.881  10.358  3.5209 -2.1020  0.8712
  974MOL0     H31471   0.165   3.033  10.428 -0.6954 -0.4048  2.0386
  974MOL0     H31472   1.337   3.088  10.608 -1.5128 -1.2216 -0.5705
  974MOL0     H31473   1.534   3.263  10.613 -0.3084  2.7126  1.5574
  974MOL0     H31474   1.653   3.784  10.853  0.3030  0.4588  0.4522
  974MOL0     H31475   1.862   3.920  10.809  3.3940 -0.0191 -1.1312
  974MOL0     H31476   3.546   4.251  10.462  0.1508 -0.2390 -0.2183
  974MOL0     H31477   3.779   4.321  10.545 -0.6739 -1.8107  0.3986
  974MOL0     H31478   4.230   4.383  10.285 -0.8279  1.0068  0.6773
  974MOL0     H31479   4.461   4.449  10.286  1.3717 -0.2793  0.6575
  974MOL0     H31480   4.740   4.446  10.431  2.1145  0.5767 -2.2169
  974MOL0     H31481   4.652   4.543  10.312 -0.6645 -2.1745  0.7670
  974MOL0     H31482   4.802   4.678  10.528 -0.2813  1.7146  0.7168
  974MOL0     H31483   4.733   4.749  10.381  0.6538  1.8874  1.6744
  974MOL0     H31484   4.910   4.603  10.249  1.0164  1.2104  0.1692
  974MOL0     H31485   4.970   4.542  10.407 -0.0240  1.2516  0.3881
  974MOL0     H31486   5.003   4.759  10.490 -0.9602  1.6360 -0.0635
  974MOL0     H31487   4.980   4.817  10.328 -1.7140 -0.7072 -0.0292
  974MOL0     H31488   5.361   4.660  10.288  1.3638 -2.0396  1.8464
  974MOL0     H31489   4.424   4.582  10.700  2.6168 -2.7122  0.8058
  974MOL0     H31490   4.187   4.524  10.690 -1.6656  1.6385  0.0895
  975MOL0     O31491   9.583   6.565   6.362 -0.6711  0.1650 -0.4267
  975MOL0     C31492   9.548   6.450   6.333 -1.0777  0.5685  0.6659
  975MOL0     O31493   9.431   6.384   6.362  0.1685 -0.4449 -0.3065
  975MOL0     C31494   9.330   6.446   6.436 -0.8331 -0.1872  0.7308
  975MOL0     C31495   9.316   6.585   6.464  0.4673 -0.6902 -0.2384
  975MOL0     C31496   9.215   6.631   6.555 -0.5424  0.3317  0.1098
  975MOL0     C31497   9.099   6.550   6.586  0.4646  0.3642 -0.6964
  975MOL0     O31498   8.999   6.599   6.659 -0.0138 -0.3916 -0.4905
  975MOL0     C31499   8.892   6.519   6.708  0.1499 -0.0083  0.5407
  975MOL0     C31500   8.802   6.585   6.810  0.7835  0.3389  0.4959
  975MOL0     C31501   8.689   6.498   6.859  0.5828  0.3726  0.2142
  975MOL0     C31502   8.616   6.569   6.975 -0.5428  0.0256  0.4592
  975MOL0     C31503   8.516   6.477   7.026  0.7540  0.1906 -0.2370
  975MOL0     C31504   8.415   6.554   7.133 -0.2308 -0.5030  0.3489
  975MOL0     C31505   8.328   6.460   7.214 -0.0730  0.6173 -0.0842
  975MOL0     C31506   8.247   6.381   7.111 -0.4226 -0.3763 -0.4493
  975MOL0     N31507   8.153   6.288   7.172 -0.2971 -0.1275 -0.2304
  975MOL0     C31508   8.176   6.199   7.270 -0.4663 -0.5511 -0.8869
  975MOL0     C31509   8.081   6.107   7.264  0.8924  0.5785  0.5930
  975MOL0     C31510   8.078   5.987   7.344 -0.6942 -0.7149 -0.1779
  975MOL0     C31511   8.126   5.863   7.269 -0.8316  0.2102  0.3490
  975MOL0     C31512   8.034   5.823   7.142 -0.4044 -0.1472  0.3704
  975MOL0     C31513   7.887   5.795   7.179  0.7044 -0.5293 -0.1940
  975MOL0     O31514   7.821   5.731   7.064 -0.2035 -0.8294  0.2249
  975MOL0     C31515   7.713   5.794   7.011  0.3518 -0.0871  0.5636
  975MOL0     C31516   7.721   5.933   6.971 -0.4950 -0.4869 -0.1654
  975MOL0     C31517   7.608   6.003   6.928 -0.6390  0.3539 -0.0839
  975MOL0     C31518   7.636   6.150   6.895 -0.6883  0.1356  0.9433
  975MOL0     C31519   7.492   5.932   6.912 -0.1724 -0.2698  0.4857
  975MOL0     C31520   7.365   6.000   6.877 -0.5433  0.5111 -0.3610
  975MOL0     O31521   7.359   6.135   6.901  1.0658 -0.1434 -0.6426
  975MOL0     C31522   7.240   6.199   6.888 -0.2918  0.1523 -0.2264
  975MOL0     C31523   7.172   6.228   6.773  1.1350  0.2362 -0.2175
  975MOL0     C31524   7.060   6.310   6.773  0.4048  0.5686 -0.6587
  975MOL0     C31525   6.997   6.347   6.887 -0.9091 -0.6780 -0.9598
  975MOL0     O31526   6.880   6.431   6.888  0.0993  0.7587  0.6882
  975MOL0     C31527   6.862   6.521   6.995  0.3793 -0.1576  0.9981
  975MOL0     C31528   6.774   6.632   6.953 -0.2415 -0.2897  0.3468
  975MOL0     C31529   6.743   6.730   7.072 -0.3444 -0.3897 -0.1085
  975MOL0     C31530   6.644   6.839   7.028 -0.5893 -0.9389  0.0700
  975MOL0     C31531   6.621   6.923   7.152  0.3856 -0.0210  0.0535
  975MOL0     C31532   6.498   7.022   7.140  0.0498  0.2571 -0.1313
  975MOL0     C31533   6.534   7.158   7.079 -0.4133  0.4874 -0.4280
  975MOL0     C31534   6.424   7.255   7.101  0.1945  0.1345 -0.0785
  975MOL0    Cl31535   6.288   7.230   6.973 -0.2235  0.4817 -0.3408
  975MOL0     C31536   7.064   6.328   7.010  0.5431 -0.2073  0.4440
  975MOL0     C31537   7.189   6.257   7.009 -1.1271  0.1247  0.2114
  975MOL0     O31538   7.274   5.931   6.840 -0.5429 -0.6721  0.3565
  975MOL0     C31539   7.495   5.795   6.930  0.6792  0.0332 -1.3043
  975MOL0     C31540   7.596   5.723   6.977 -0.0866  0.0338  0.4046
  975MOL0     N31541   7.985   6.145   7.178 -0.2523  0.0864  0.3119
  975MOL0     N31542   8.036   6.252   7.115  0.6148 -0.4364  0.5534
  975MOL0     C31543   9.095   6.416   6.528 -0.9471 -0.1832  1.0246
  975MOL0     C31544   9.211   6.367   6.462 -1.1520  0.0343  0.1679
  975MOL0     C31545   9.650   6.356   6.275  0.3479 -1.1254 -0.4468
  975MOL0     C31546   9.606   6.220   6.247 -0.1461  0.1532  0.1898
  975MOL0     C31547   9.687   6.135   6.176 -0.2497  0.9003  0.0594
  975MOL0     C31548   9.802   6.182   6.123 -0.1843  0.1697  0.2048
  975MOL0     O31549   9.882   6.097   6.050  0.0401  0.0726 -0.6764
  975MOL0     C31550   9.901   5.960   6.096 -0.5131 -0.2482  0.9924
  975MOL0     C31551  10.028   5.900   6.042 -0.5219 -1.1119  0.5852
  975MOL0     C31552  10.159   5.964   6.101  0.2896  0.5516  0.1170
  975MOL0     C31553  10.246   6.043   6.006 -1.2453 -0.6169  0.0956
  975MOL0     C31554  10.178   6.151   5.932  0.3131  1.0624  0.2409
  975MOL0     C31555  10.118   6.234   5.876 -0.4900 -0.0467 -0.0189
  975MOL0     C31556   9.852   6.307   6.152 -0.0452 -0.7062 -0.1958
  975MOL0     C31557   9.776   6.400   6.235 -0.0987 -0.0716 -0.8457
  975MOL0     H31558   9.386   6.662   6.433 -1.9658  3.0983  2.7402
  975MOL0     H31559   9.215   6.731   6.595  3.4150 -0.4674  2.6730
  975MOL0     H31560   8.841   6.485   6.617 -0.2390 -1.2192  1.1872
  975MOL0     H31561   8.936   6.421   6.730  3.5731 -0.1122 -4.7748
  975MOL0     H31562   8.863   6.621   6.893 -1.3486  3.4652  0.8610
  975MOL0     H31563   8.759   6.676   6.766 -0.1636 -0.1851  0.3059
  975MOL0     H31564   8.625   6.472   6.774 -0.7759 -0.3578  1.3959
  975MOL0     H31565   8.736   6.406   6.895  4.0916  1.1796 -1.9187
  975MOL0     H31566   8.685   6.611   7.049  0.2744 -0.7966  0.1887
  975MOL0     H31567   8.552   6.649   6.937 -1.8535 -1.8565 -1.5224
  975MOL0     H31568   8.448   6.435   6.952  0.0734  1.8146 -0.5694
  975MOL0     H31569   8.559   6.397   7.087  3.0548 -0.2520 -2.2656
  975MOL0     H31570   8.477   6.619   7.194  1.1552 -1.1486 -0.3255
  975MOL0     H31571   8.346   6.609   7.068 -2.8572 -4.1836 -0.3751
  975MOL0     H31572   8.399   6.402   7.273  0.8070  1.7744  0.0227
  975MOL0     H31573   8.277   6.511   7.296 -2.2274 -1.3276 -0.1091
  975MOL0     H31574   8.321   6.316   7.063  1.8009  3.2602 -2.3770
  975MOL0     H31575   8.196   6.438   7.034  2.3040  1.2552 -1.2032
  975MOL0     H31576   8.252   6.186   7.346 -0.3703 -2.2218 -1.2384
  975MOL0     H31577   8.130   6.004   7.438 -2.2547  3.7317  0.0904
  975MOL0     H31578   7.974   5.977   7.377 -0.3840 -4.0147  0.1748
  975MOL0     H31579   8.122   5.773   7.330 -0.9744 -0.7245 -1.0075
  975MOL0     H31580   8.229   5.896   7.249  1.0089 -3.6010  2.3783
  975MOL0     H31581   8.079   5.732   7.100 -0.2903 -0.5591  1.3555
  975MOL0     H31582   8.040   5.890   7.056 -0.6173 -0.9293 -0.2620
  975MOL0     H31583   7.836   5.887   7.208  2.2021 -0.4898  2.7927
  975MOL0     H31584   7.889   5.726   7.264 -1.0759 -0.1945  0.1466
  975MOL0     H31585   7.810   5.988   7.001 -0.2130 -0.7007 -0.5960
  975MOL0     H31586   7.587   6.207   6.975 -1.5813 -0.0153  0.5094
  975MOL0     H31587   7.743   6.172   6.890 -0.2638 -2.0080 -2.5805
  975MOL0     H31588   7.603   6.178   6.795 -0.9335 -2.1228  0.3458
  975MOL0     H31589   7.205   6.180   6.681 -1.9346  0.6894 -1.6671
  975MOL0     H31590   7.021   6.344   6.678 -1.9385 -0.8218 -0.2705
  975MOL0     H31591   6.817   6.471   7.082 -0.1248 -1.4665  0.0266
  975MOL0     H31592   6.961   6.561   7.017  3.1833 -3.5083 -3.6801
  975MOL0     H31593   6.810   6.692   6.870 -2.5679  1.5345  0.5548
  975MOL0     H31594   6.677   6.589   6.927 -0.3978  0.3635 -0.1520
  975MOL0     H31595   6.841   6.763   7.110  1.1093 -0.8516 -3.1184
  975MOL0     H31596   6.701   6.667   7.149  1.0532 -3.7408 -1.8689
  975MOL0     H31597   6.677   6.903   6.946 -3.1608 -0.4653 -0.6568
  975MOL0     H31598   6.555   6.787   6.993 -0.4682 -0.3872 -1.0960
  975MOL0     H31599   6.698   6.996   7.180 -0.8953  1.3387  0.1520
  975MOL0     H31600   6.589   6.847   7.224 -2.0780 -0.4400 -1.3813
  975MOL0     H31601   6.410   6.974   7.096 -1.0590  2.0109  0.0941
  975MOL0     H31602   6.468   7.032   7.245 -1.8487 -1.2325 -0.4620
  975MOL0     H31603   6.568   7.156   6.975  1.4447  2.3424  0.0749
  975MOL0     H31604   6.614   7.206   7.136 -1.3479  0.4385  0.9956
  975MOL0     H31605   6.465   7.356   7.114 -1.8529  1.3411 -2.1952
  975MOL0     H31606   6.373   7.229   7.193  1.9118  1.5605  1.3621
  975MOL0     H31607   7.032   6.380   7.100 -2.2290  0.3219 -0.7463
  975MOL0     H31608   7.249   6.244   7.098 -0.1656  2.4434 -0.0546
  975MOL0     H31609   7.405   5.736   6.913 -1.7667  3.4985 -1.4433
  975MOL0     H31610   7.600   5.616   6.996  0.0792  0.4424  3.1375
  975MOL0     H31611   9.004   6.357   6.540 -0.8444 -0.1235  2.1985
  975MOL0     H31612   9.221   6.265   6.426 -3.6913 -0.9198  1.8674
  975MOL0     H31613   9.518   6.181   6.297 -0.6483  2.6827  1.4525
  975MOL0     H31614   9.652   6.041   6.133 -0.4830  1.7831 -1.7746
  975MOL0     H31615   9.898   5.947   6.204 -0.0855 -0.6940  0.9528
  975MOL0     H31616   9.820   5.893   6.064  1.1157 -1.8661  0.0826
  975MOL0     H31617  10.035   5.906   5.933 -2.3461 -3.1795  0.2911
  975MOL0     H31618  10.032   5.794   6.070  3.9071 -1.5613 -0.8549
  975MOL0     H31619  10.220   5.880   6.134 -1.9282 -1.2638 -0.1075
  975MOL0     H31620  10.136   6.041   6.174  1.1308  0.1742  0.7876
  975MOL0     H31621  10.285   5.984   5.923  1.4344  1.1274 -0.0155
  975MOL0     H31622  10.332   6.081   6.062 -1.2071 -2.2194  1.1689
  975MOL0     H31623  10.065   6.308   5.819  1.3549  2.4174  1.2783
  975MOL0     H31624   9.953   6.336   6.126  0.3275 -1.3655  0.4468
  975MOL0     H31625   9.808   6.496   6.276 -1.5889  0.4665 -0.8773
  976MOL0     O31626   1.407   5.819  11.068  0.0056  0.2501  0.0478
  976MOL0     C31627   1.522   5.846  11.090  0.0837 -0.1175  0.1157
  976MOL0     O31628   1.620   5.755  11.106 -0.0742  0.2256  0.5331
  976MOL0     C31629   1.601   5.622  11.067 -1.1850  0.4407 -0.4669
  976MOL0     C31630   1.631   5.511  11.149  0.1584  0.3419 -0.3189
  976MOL0     C31631   1.615   5.375  11.108  0.8691  0.2155  0.1387
  976MOL0     C31632   1.559   5.360  10.982  0.1282 -0.1964 -0.0094
  976MOL0     O31633   1.553   5.231  10.937 -0.0412 -0.1082  0.4572
  976MOL0     C31634   1.447   5.191  10.857 -0.7889 -0.5980  0.1700
  976MOL0     C31635   1.447   5.033  10.842 -0.4754  0.0210  0.8225
  976MOL0     C31636   1.315   4.985  10.775 -0.9569 -0.1535 -0.6664
  976MOL0     C31637   1.322   4.835  10.777  0.1250  0.9319  0.2842
  976MOL0     C31638   1.183   4.791  10.724 -0.0174 -0.0344  0.2027
  976MOL0     C31639   1.161   4.643  10.750 -0.3051 -0.2775  0.0713
  976MOL0     C31640   1.022   4.592  10.694  0.0981  0.3542  0.1265
  976MOL0     C31641   0.911   4.617  10.797 -0.0086 -0.3386 -0.8406
  976MOL0     N31642   0.769   4.592  10.767  0.2012 -0.7300 -0.1367
  976MOL0     C31643   0.719   4.463  10.747 -0.8263 -1.1900  0.8953
  976MOL0     C31644   0.587   4.487  10.717  0.3246  0.4324 -0.1888
  976MOL0     C31645   0.490   4.384  10.657  0.0192  0.6005 -0.1523
  976MOL0     C31646   0.346   4.436  10.680  0.3880 -0.1988  0.4471
  976MOL0     C31647   0.241   4.340  10.623 -0.4542 -0.4440 -0.3289
  976MOL0     C31648   0.100   4.397  10.611  0.2895  0.1378  0.2758
  976MOL0     O31649   0.014   4.285  10.580  0.9343 -0.0134 -0.4894
  976MOL0     C31650  -0.113   4.294  10.643  0.3191 -0.0814  0.5279
  976MOL0     C31651  -0.185   4.403  10.689  0.6873 -0.3394 -0.6051
  976MOL0     C31652  -0.319   4.380  10.741  0.1919 -0.0722  0.2725
  976MOL0     C31653  -0.386   4.508  10.761 -0.3768 -1.0243 -0.2981
  976MOL0     C31654  -0.379   4.249  10.755  0.0346  0.6074  0.2403
  976MOL0     C31655  -0.511   4.215  10.811 -0.3993  0.7367 -0.5275
  976MOL0     O31656  -0.574   4.110  10.751  0.8601 -0.6436 -0.5128
  976MOL0     C31657  -0.700   4.078  10.808 -0.7852 -0.3274 -0.1657
  976MOL0     C31658  -0.710   3.952  10.863 -0.2165 -0.0208  0.4207
  976MOL0     C31659  -0.831   3.922  10.932  0.3532 -0.1804 -0.2762
  976MOL0     C31660  -0.948   4.000  10.933 -0.1992 -0.1264  0.5048
  976MOL0     O31661  -1.063   3.965  11.002 -0.4354  0.2450  0.2240
  976MOL0     C31662  -1.180   3.980  10.918 -0.4374  0.8375  0.5123
  976MOL0     C31663  -1.297   3.947  11.006  0.2704  0.3648 -0.0920
  976MOL0     C31664  -1.306   3.802  11.051  0.9291 -0.2606  0.1991
  976MOL0     C31665  -1.454   3.772  11.096  0.0024  0.2538  0.5332
  976MOL0     C31666  -1.481   3.628  11.122  0.4587 -0.2036 -0.4088
  976MOL0     C31667  -1.437   3.538  11.001 -0.0736  0.0304 -0.2226
  976MOL0     C31668  -1.464   3.392  11.041 -0.5249 -0.5095 -0.9290
  976MOL0     C31669  -1.459   3.298  10.927  0.2890 -0.5346  0.2198
  976MOL0    Cl31670  -1.467   3.131  10.985 -0.0849  0.1019 -0.3378
  976MOL0     C31671  -0.936   4.117  10.861 -0.7286 -0.4586 -0.1439
  976MOL0     C31672  -0.818   4.153  10.793 -0.9788  0.5397 -0.4279
  976MOL0     O31673  -0.552   4.278  10.908  0.1688  0.1150  0.6400
  976MOL0     C31674  -0.294   4.142  10.707 -0.4711 -1.0817  0.6754
  976MOL0     C31675  -0.166   4.166  10.659 -0.0336  0.4967  0.3065
  976MOL0     N31676   0.557   4.608  10.740  0.8320 -0.4674  1.0395
  976MOL0     N31677   0.662   4.674  10.772  0.5210  0.4066  0.4336
  976MOL0     C31678   1.540   5.465  10.894  0.2846  0.2381  0.2554
  976MOL0     C31679   1.559   5.596  10.938  0.2683 -1.1867 -1.2275
  976MOL0     C31680   1.571   5.981  11.104 -0.5091 -0.0465 -0.9102
  976MOL0     C31681   1.487   6.091  11.109  0.2848  0.6423 -0.8575
  976MOL0     C31682   1.527   6.213  11.154 -0.5228 -0.3110  0.1059
  976MOL0     C31683   1.666   6.237  11.189  0.4345  0.7418  0.9794
  976MOL0     O31684   1.699   6.364  11.213 -0.0883  0.5961 -0.9747
  976MOL0     C31685   1.835   6.401  11.236 -0.3426 -0.6500  0.5661
  976MOL0     C31686   1.869   6.551  11.229 -0.0973 -0.5323  0.6424
  976MOL0     C31687   1.795   6.624  11.344  0.8164 -0.8079  0.1672
  976MOL0     C31688   1.819   6.782  11.352 -0.0785  0.1853  0.2195
  976MOL0     C31689   1.954   6.818  11.386 -0.0778 -0.4520 -0.7116
  976MOL0     C31690   2.065   6.856  11.401  0.7974 -0.1631 -0.4254
  976MOL0     C31691   1.752   6.122  11.180 -0.0112 -0.1457  0.4014
  976MOL0     C31692   1.703   5.999  11.144  0.2367  0.4069 -0.4045
  976MOL0     H31693   1.666   5.536  11.248 -0.8535  0.5741 -0.0060
  976MOL0     H31694   1.621   5.296  11.182 -2.4270  0.4554  0.8071
  976MOL0     H31695   1.351   5.216  10.903  0.7838 -0.6933  3.9089
  976MOL0     H31696   1.458   5.241  10.761 -0.0777 -0.7955  0.1398
  976MOL0     H31697   1.530   5.006  10.776  1.6196  1.7041  2.5958
  976MOL0     H31698   1.460   4.977  10.935  3.5088 -0.6331  0.0624
  976MOL0     H31699   1.227   5.027  10.825 -0.5812 -0.4406  0.2623
  976MOL0     H31700   1.296   5.027  10.676 -0.3601  1.3947 -0.1640
  976MOL0     H31701   1.408   4.800  10.719 -0.6455 -1.8275  0.6965
  976MOL0     H31702   1.332   4.811  10.883 -3.8962 -2.9481  0.0514
  976MOL0     H31703   1.107   4.837  10.788 -0.7394 -3.3643  1.9646
  976MOL0     H31704   1.164   4.830  10.623 -2.9815 -0.0941  0.6407
  976MOL0     H31705   1.236   4.589  10.692  2.3265  0.7524  2.3301
  976MOL0     H31706   1.164   4.614  10.855 -1.0654 -1.2514 -0.1672
  976MOL0     H31707   1.002   4.654  10.606  3.1830  2.9803  1.1069
  976MOL0     H31708   1.011   4.488  10.662 -1.6497  1.4329 -3.2666
  976MOL0     H31709   0.922   4.720  10.832 -1.4575  0.2259 -1.9535
  976MOL0     H31710   0.943   4.551  10.879  1.2151  1.5919  0.2991
  976MOL0     H31711   0.777   4.371  10.751  0.6495 -0.3475 -0.1630
  976MOL0     H31712   0.509   4.367  10.551 -1.2357 -3.0133  0.0625
  976MOL0     H31713   0.505   4.284  10.699 -2.2078  0.1000 -0.3959
  976MOL0     H31714   0.334   4.522  10.614 -2.8250 -3.7055 -4.2540
  976MOL0     H31715   0.308   4.466  10.777 -1.6517 -2.4863  0.4545
  976MOL0     H31716   0.238   4.254  10.690  0.5090  0.0164  0.3344
  976MOL0     H31717   0.281   4.304  10.528  0.8107 -1.0656  0.4192
  976MOL0     H31718   0.091   4.480  10.540  1.9478 -0.0998 -0.2667
  976MOL0     H31719   0.064   4.448  10.701 -1.8302  0.6102 -0.7822
  976MOL0     H31720  -0.145   4.503  10.696 -2.2235  0.8003  2.6518
  976MOL0     H31721  -0.393   4.576  10.676 -2.6555 -1.1021 -0.2205
  976MOL0     H31722  -0.490   4.495  10.791 -0.9096  3.8266  0.7139
  976MOL0     H31723  -0.338   4.561  10.844 -2.0435  0.1862 -0.0725
  976MOL0     H31724  -0.625   3.886  10.876 -1.4570 -1.5201  1.2363
  976MOL0     H31725  -0.829   3.824  10.977  0.6282 -0.3833 -0.7194
  976MOL0     H31726  -1.196   4.080  10.875  1.1114  0.3753 -1.2238
  976MOL0     H31727  -1.183   3.895  10.850  0.3775 -1.0494  2.6805
  976MOL0     H31728  -1.304   4.010  11.096 -2.6183 -2.1560  1.6421
  976MOL0     H31729  -1.383   3.967  10.941  0.3618  1.7596  0.1675
  976MOL0     H31730  -1.235   3.788  11.133  0.4435  0.2925  0.7203
  976MOL0     H31731  -1.276   3.733  10.971  0.5179 -1.3909  1.0004
  976MOL0     H31732  -1.484   3.832  11.182 -2.5186 -0.8308  0.4984
  976MOL0     H31733  -1.520   3.789  11.011  0.3598 -1.1872 -0.0553
  976MOL0     H31734  -1.581   3.604  11.158  1.2064 -0.8520  1.3630
  976MOL0     H31735  -1.418   3.602  11.208  3.3793 -0.7413 -2.5582
  976MOL0     H31736  -1.487   3.562  10.906  0.3280 -1.4340 -0.8369
  976MOL0     H31737  -1.332   3.539  10.969  0.7841 -1.1702  2.3031
  976MOL0     H31738  -1.549   3.386  11.110 -0.3849 -3.2529 -0.8702
  976MOL0     H31739  -1.381   3.349  11.097 -0.4820 -0.4034 -0.9128
  976MOL0     H31740  -1.367   3.316  10.872 -1.0347 -0.1348 -2.0030
  976MOL0     H31741  -1.539   3.311  10.853  0.6014  2.2316  0.2630
  976MOL0     H31742  -1.011   4.196  10.859  2.0559  2.5880  2.5466
  976MOL0     H31743  -0.807   4.247  10.740 -0.0243 -0.0406 -1.3109
  976MOL0     H31744  -0.324   4.037  10.706 -2.4989 -0.5433 -0.5179
  976MOL0     H31745  -0.103   4.082  10.633  2.3233  2.6896 -1.5965
  976MOL0     H31746   1.507   5.450  10.792 -0.2790  1.5828  0.2108
  976MOL0     H31747   1.535   5.678  10.871 -0.9156 -2.2785 -2.2133
  976MOL0     H31748   1.380   6.073  11.105  0.5723 -1.1689 -1.2931
  976MOL0     H31749   1.464   6.301  11.153 -1.7436 -1.1587 -0.8936
  976MOL0     H31750   1.868   6.360  11.332  2.0355 -0.5409 -0.1599
  976MOL0     H31751   1.894   6.343  11.165 -2.6602 -0.8327 -1.3680
  976MOL0     H31752   1.821   6.593  11.140  1.5056  1.5891  0.6960
  976MOL0     H31753   1.977   6.568  11.223 -0.3267  2.2739  2.5166
  976MOL0     H31754   1.832   6.579  11.437  0.8297 -1.6014 -0.2139
  976MOL0     H31755   1.688   6.611  11.324  0.6923 -2.1821  1.5151
  976MOL0     H31756   1.748   6.834  11.416 -1.5661  0.6995 -1.7559
  976MOL0     H31757   1.796   6.814  11.250 -0.1386 -4.2893 -1.3704
  976MOL0     H31758   2.171   6.875  11.411  1.3431 -3.1073  0.2953
  976MOL0     H31759   1.853   6.136  11.217 -0.7020  1.3170  1.8657
  976MOL0     H31760   1.775   5.919  11.130  0.3932  0.4786 -0.0218
  977MOL0     O31761   8.160   2.358   7.627 -0.4198 -0.6609 -0.3264
  977MOL0     C31762   8.262   2.288   7.635 -0.0941 -1.1242  0.6323
  977MOL0     O31763   8.267   2.147   7.603  0.0292  0.6667 -0.0356
  977MOL0     C31764   8.148   2.073   7.588  0.2517 -0.3725 -0.0855
  977MOL0     C31765   8.137   1.989   7.479  0.4606 -0.0279  0.4153
  977MOL0     C31766   8.030   1.894   7.474  0.5009  1.0975  0.1454
  977MOL0     C31767   7.932   1.886   7.577  0.5059  0.3412 -0.4215
  977MOL0     O31768   7.835   1.790   7.563 -0.2535  0.6665 -0.0580
  977MOL0     C31769   7.708   1.816   7.621  0.0387  0.4400 -0.2450
  977MOL0     C31770   7.609   1.721   7.560  0.4921  0.2681  0.3088
  977MOL0     C31771   7.460   1.752   7.593 -0.3288  0.6696 -0.1635
  977MOL0     C31772   7.371   1.638   7.536 -0.0940  0.2051  0.1613
  977MOL0     C31773   7.218   1.675   7.531  0.2490 -0.2595  0.7252
  977MOL0     C31774   7.159   1.717   7.669 -0.0271 -0.0025 -0.0918
  977MOL0     C31775   7.005   1.732   7.636  0.0780  0.0108 -0.9727
  977MOL0     C31776   6.942   1.793   7.768 -0.0617  0.3472  0.2504
  977MOL0     N31777   6.798   1.802   7.755 -0.5427 -0.8194  0.5474
  977MOL0     C31778   6.712   1.705   7.779  0.8595  0.8469 -0.5028
  977MOL0     C31779   6.585   1.752   7.759 -0.2099 -0.6311  0.8178
  977MOL0     C31780   6.463   1.669   7.760 -0.6750 -0.4222  0.4761
  977MOL0     C31781   6.359   1.734   7.852 -0.3220 -0.0315  0.2716
  977MOL0     C31782   6.230   1.650   7.838  0.1112 -0.1524 -0.4824
  977MOL0     C31783   6.116   1.704   7.917 -0.3861  0.1636  0.4574
  977MOL0     O31784   6.156   1.695   8.059  0.3650  0.7071  0.3965
  977MOL0     C31785   6.063   1.722   8.159  0.7236  0.3584 -0.6054
  977MOL0     C31786   6.108   1.750   8.284  0.3609 -0.1307  0.6804
  977MOL0     C31787   6.027   1.772   8.397  0.0313 -0.3428 -0.8451
  977MOL0     C31788   6.097   1.800   8.528  0.4786  0.0657  0.2834
  977MOL0     C31789   5.890   1.772   8.378 -0.3515  0.0139 -0.5663
  977MOL0     C31790   5.799   1.788   8.489  0.3143 -0.3762  0.8222
  977MOL0     O31791   5.812   1.899   8.561  0.0745  0.0306 -0.1977
  977MOL0     C31792   5.699   1.953   8.613  0.2787  0.3203  0.1986
  977MOL0     C31793   5.624   2.041   8.538 -0.2575 -0.1015  1.2382
  977MOL0     C31794   5.519   2.110   8.587  0.2300 -0.9690  0.5468
  977MOL0     C31795   5.473   2.088   8.715 -0.0570 -0.7088 -0.5815
  977MOL0     O31796   5.377   2.174   8.764  0.4528  0.2453 -0.2928
  977MOL0     C31797   5.401   2.232   8.889  0.4477 -1.1032 -0.5692
  977MOL0     C31798   5.303   2.356   8.885 -0.1188  0.0739 -0.4042
  977MOL0     C31799   5.156   2.325   8.915  0.7681 -0.5243  0.2981
  977MOL0     C31800   5.081   2.452   8.878 -0.9310 -0.2140 -0.7297
  977MOL0     C31801   4.934   2.451   8.912  0.2246  0.0236 -0.5227
  977MOL0     C31802   4.852   2.380   8.809  0.4508  0.5439  0.0669
  977MOL0     C31803   4.694   2.387   8.812  0.8657 -0.3646 -0.2307
  977MOL0     C31804   4.640   2.526   8.794  0.4162 -0.3722 -0.9360
  977MOL0    Cl31805   4.459   2.509   8.777 -0.2775  0.1886 -0.1014
  977MOL0     C31806   5.538   1.993   8.802 -0.3257  0.1722  0.4115
  977MOL0     C31807   5.652   1.933   8.753 -0.2472  0.1523  0.4885
  977MOL0     O31808   5.706   1.712   8.502  1.0176 -0.4051  0.4710
  977MOL0     C31809   5.839   1.747   8.246  0.1910 -0.1702  0.4081
  977MOL0     C31810   5.924   1.730   8.131 -0.1692 -0.5014 -0.7017
  977MOL0     N31811   6.601   1.884   7.729 -0.0956  0.4913 -0.1375
  977MOL0     N31812   6.719   1.917   7.736  0.6380 -1.2820  0.1267
  977MOL0     C31813   7.938   1.984   7.685  0.6256 -0.1773  0.6045
  977MOL0     C31814   8.046   2.070   7.690 -0.2573  0.4207  0.0482
  977MOL0     C31815   8.382   2.362   7.660 -0.4521  0.6216  0.7173
  977MOL0     C31816   8.496   2.293   7.698  0.2499  0.8750  0.6306
  977MOL0     C31817   8.625   2.352   7.726 -0.9122 -0.7287 -1.1506
  977MOL0     C31818   8.630   2.497   7.730  0.3931  0.2788 -0.3926
  977MOL0     O31819   8.745   2.552   7.766  0.5840 -0.4834 -0.2935
  977MOL0     C31820   8.774   2.688   7.734  0.1418 -0.4058 -0.3150
  977MOL0     C31821   8.924   2.682   7.706 -0.2272  0.1922 -0.5228
  977MOL0     C31822   9.017   2.677   7.828  0.1704  0.0491  1.1017
  977MOL0     C31823   9.046   2.536   7.889  0.8941 -0.1880 -0.2860
  977MOL0     C31824   9.127   2.465   7.796 -0.7598  0.4720 -0.3344
  977MOL0     C31825   9.208   2.406   7.724 -0.1745 -0.3760  0.3632
  977MOL0     C31826   8.521   2.573   7.686 -0.2469  0.6437 -0.1702
  977MOL0     C31827   8.401   2.503   7.653  0.0569  0.1985 -0.2638
  977MOL0     H31828   8.213   2.013   7.405 -0.7109 -0.1386 -0.8526
  977MOL0     H31829   8.022   1.828   7.388 -0.1335  1.5880 -0.1753
  977MOL0     H31830   7.704   1.786   7.726 -1.4754  1.4264  0.0193
  977MOL0     H31831   7.677   1.921   7.617 -0.1092  0.7143  3.6549
  977MOL0     H31832   7.625   1.748   7.455  0.2523 -1.0349 -0.0746
  977MOL0     H31833   7.627   1.615   7.575 -1.9396  0.0531  2.5077
  977MOL0     H31834   7.447   1.760   7.701 -4.9690 -1.3478 -0.3125
  977MOL0     H31835   7.434   1.845   7.542 -1.3164  1.0397  0.9654
  977MOL0     H31836   7.404   1.634   7.432 -1.2056 -0.5729 -0.1748
  977MOL0     H31837   7.388   1.544   7.589 -0.3029  1.3537  2.3877
  977MOL0     H31838   7.198   1.761   7.468  1.4227  1.7380  2.9208
  977MOL0     H31839   7.169   1.582   7.502 -1.8138  0.5549  1.4569
  977MOL0     H31840   7.192   1.638   7.736  0.8837 -1.9018 -2.6295
  977MOL0     H31841   7.186   1.820   7.696 -0.2910 -0.0602  0.3967
  977MOL0     H31842   6.986   1.804   7.556 -1.8626 -1.8063 -2.2839
  977MOL0     H31843   6.958   1.634   7.618 -0.8327  0.2582 -0.0362
  977MOL0     H31844   6.986   1.893   7.767 -0.8330  0.6917 -0.7599
  977MOL0     H31845   6.965   1.750   7.866  0.1172  3.4610  1.7042
  977MOL0     H31846   6.747   1.605   7.805  1.9334  1.6012  1.1740
  977MOL0     H31847   6.405   1.651   7.669 -1.8578 -2.5885  1.5716
  977MOL0     H31848   6.494   1.575   7.806 -0.1518 -1.5118 -1.9032
  977MOL0     H31849   6.341   1.837   7.819  1.3834  0.1022 -0.3085
  977MOL0     H31850   6.400   1.743   7.953  0.4589  2.2834 -0.2059
  977MOL0     H31851   6.250   1.548   7.873 -0.8476  0.0063  0.6144
  977MOL0     H31852   6.195   1.634   7.735 -2.5364  0.2817  0.2791
  977MOL0     H31853   6.035   1.637   7.885  0.4196 -0.3393 -0.5790
  977MOL0     H31854   6.091   1.809   7.901  1.2800  1.0258  2.8716
  977MOL0     H31855   6.216   1.744   8.293  0.8633  4.3515  0.0021
  977MOL0     H31856   6.200   1.762   8.534  0.2380 -0.7613 -0.6278
  977MOL0     H31857   6.085   1.906   8.548  0.1482 -0.3602  2.6531
  977MOL0     H31858   6.037   1.741   8.598  1.8908 -2.8311 -0.7411
  977MOL0     H31859   5.658   2.062   8.438  2.1851 -0.3005  1.9664
  977MOL0     H31860   5.480   2.191   8.526  1.1240  1.3021  2.7888
  977MOL0     H31861   5.380   2.166   8.974  0.2128 -0.6471 -0.2634
  977MOL0     H31862   5.507   2.258   8.891 -0.5749  4.2356  0.3728
  977MOL0     H31863   5.346   2.429   8.955 -0.1727 -0.0738 -0.2174
  977MOL0     H31864   5.300   2.402   8.786  0.7614  0.7294 -0.1423
  977MOL0     H31865   5.139   2.303   9.021 -0.2186 -0.0313  0.2514
  977MOL0     H31866   5.123   2.245   8.849  0.3957 -0.3061  0.2190
  977MOL0     H31867   5.122   2.530   8.942 -4.5904  0.1724  1.4401
  977MOL0     H31868   5.101   2.486   8.776  2.3525  0.2207 -0.0470
  977MOL0     H31869   4.883   2.548   8.919 -1.3541 -0.7824 -0.3086
  977MOL0     H31870   4.911   2.407   9.009 -1.7086  1.2416 -0.3746
  977MOL0     H31871   4.879   2.427   8.714 -0.2870 -1.5779 -1.2584
  977MOL0     H31872   4.869   2.272   8.809 -0.7015  0.3423  0.5135
  977MOL0     H31873   4.663   2.361   8.914 -0.6784  1.7965 -0.0772
  977MOL0     H31874   4.664   2.315   8.735  0.5893 -3.7200  2.7501
  977MOL0     H31875   4.699   2.579   8.719 -0.6827 -2.2158 -3.2684
  977MOL0     H31876   4.648   2.583   8.887  1.4277 -1.8561 -0.0744
  977MOL0     H31877   5.507   1.987   8.906  2.6739  5.4051  2.0048
  977MOL0     H31878   5.708   1.862   8.812 -0.9866 -1.8188 -1.0672
  977MOL0     H31879   5.733   1.729   8.232  0.3418 -1.1363  0.4280
  977MOL0     H31880   5.890   1.698   8.033  1.6327 -1.6814 -0.9913
  977MOL0     H31881   7.858   1.993   7.757  1.5086  2.1244  1.3943
  977MOL0     H31882   8.046   2.139   7.774 -1.1152  1.4264 -0.7528
  977MOL0     H31883   8.490   2.184   7.700 -1.9518  0.8945 -1.1972
  977MOL0     H31884   8.716   2.293   7.738 -0.5925 -0.1590 -0.7279
  977MOL0     H31885   8.720   2.719   7.644 -1.6264  1.1711  1.1914
  977MOL0     H31886   8.738   2.756   7.811 -2.8354 -0.9411 -1.0996
  977MOL0     H31887   8.932   2.778   7.654  0.6947 -0.0058 -0.7703
  977MOL0     H31888   8.957   2.604   7.637 -1.4519  0.0584 -0.9681
  977MOL0     H31889   8.962   2.727   7.908 -1.2942 -1.0361  0.8150
  977MOL0     H31890   9.112   2.726   7.802  0.4796 -1.3282 -0.5379
  977MOL0     H31891   8.945   2.494   7.902  1.1293 -1.4205 -2.0967
  977MOL0     H31892   9.073   2.546   7.994 -0.9356 -0.3734  0.2451
  977MOL0     H31893   9.297   2.359   7.689 -0.5840  0.5958 -2.1871
  977MOL0     H31894   8.516   2.681   7.679  0.3888  0.9124  2.4283
  977MOL0     H31895   8.313   2.558   7.618 -0.0029  0.9044  0.9420
  978MOL0     O31896   8.825   1.618   9.713  0.5256 -1.0623  0.6852
  978MOL0     C31897   8.717   1.615   9.654  0.4905  0.0183 -0.0420
  978MOL0     O31898   8.705   1.596   9.525  0.9370  0.2133 -0.9467
  978MOL0     C31899   8.822   1.564   9.452  1.0974  0.1828 -0.3961
  978MOL0     C31900   8.852   1.625   9.334  0.4634  0.0843 -0.1908
  978MOL0     C31901   8.960   1.584   9.262 -0.3757 -0.3476 -0.9019
  978MOL0     C31902   9.037   1.472   9.309  0.0571 -0.7469  0.1635
  978MOL0     O31903   9.139   1.411   9.241 -0.5604 -0.0645 -0.3811
  978MOL0     C31904   9.178   1.441   9.111 -0.1229  0.6272 -0.1236
  978MOL0     C31905   9.308   1.528   9.115  0.1692  0.0619  0.4022
  978MOL0     C31906   9.422   1.465   9.184 -0.3747 -0.2421 -0.2152
  978MOL0     C31907   9.567   1.514   9.148  0.1004  0.1727 -0.0836
  978MOL0     C31908   9.613   1.474   9.009  0.5808 -0.2848 -0.9509
  978MOL0     C31909   9.765   1.499   8.992 -0.3540 -0.9287 -0.1247
  978MOL0     C31910   9.807   1.651   8.972 -0.3496 -0.7150 -0.4453
  978MOL0     C31911   9.957   1.674   8.968 -0.3094  0.0628  0.0632
  978MOL0     N31912  10.034   1.629   8.855  1.3091 -0.2247  1.3408
  978MOL0     C31913   9.991   1.641   8.720 -0.0221 -0.0408 -0.6742
  978MOL0     C31914  10.088   1.571   8.658  0.1308  0.3404  0.9701
  978MOL0     C31915  10.097   1.539   8.513 -0.6533 -0.2011  0.0854
  978MOL0     C31916  10.017   1.415   8.469  0.3268  0.4096 -0.4111
  978MOL0     C31917  10.075   1.285   8.510  0.9666 -0.0937 -0.2224
  978MOL0     C31918   9.981   1.171   8.515  0.9335 -0.0541 -0.8200
  978MOL0     O31919   9.885   1.204   8.622  0.1403  0.7611  0.6322
  978MOL0     C31920   9.794   1.106   8.650 -0.4047 -1.1141 -0.1454
  978MOL0     C31921   9.677   1.167   8.700 -0.6274 -0.3636 -0.1479
  978MOL0     C31922   9.566   1.089   8.738  0.7373  0.0024  0.2768
  978MOL0     C31923   9.452   1.174   8.791 -0.2953 -0.2445  1.1520
  978MOL0     C31924   9.571   0.948   8.718  1.0696  0.6375 -0.5062
  978MOL0     C31925   9.450   0.856   8.735 -0.0958 -0.6390  0.1493
  978MOL0     O31926   9.472   0.722   8.733  0.0983 -0.1718  0.0816
  978MOL0     C31927   9.361   0.646   8.725 -0.0140  0.2730  0.6987
  978MOL0     C31928   9.315   0.568   8.830  0.4935 -0.0307  0.4107
  978MOL0     C31929   9.212   0.477   8.808  0.4801 -0.2335 -0.7676
  978MOL0     C31930   9.130   0.477   8.697 -0.2618 -0.0747 -1.1214
  978MOL0     O31931   9.025   0.392   8.672  0.2828 -0.1625 -0.4655
  978MOL0     C31932   8.955   0.323   8.786 -0.0071  0.0331 -0.5267
  978MOL0     C31933   9.016   0.188   8.800 -1.0570  1.4268  0.1090
  978MOL0     C31934   8.949   0.096   8.905 -0.0481 -0.0068 -0.0817
  978MOL0     C31935   9.028  -0.034   8.925  0.1487 -0.0336  0.1038
  978MOL0     C31936   8.973  -0.134   9.029 -1.0833 -0.4503  0.3756
  978MOL0     C31937   8.821  -0.123   9.033  0.3047 -0.3664  0.3080
  978MOL0     C31938   8.755  -0.220   9.127 -0.3641 -0.7497 -0.4913
  978MOL0     C31939   8.717  -0.150   9.265 -0.4850 -0.6213  0.7924
  978MOL0    Cl31940   8.866  -0.107   9.353 -1.0582 -0.0771  0.2985
  978MOL0     C31941   9.183   0.545   8.590  0.5109  0.5907  0.4895
  978MOL0     C31942   9.291   0.636   8.608 -0.6713  1.3350  0.4933
  978MOL0     O31943   9.338   0.908   8.728  0.4318  0.3017 -0.7288
  978MOL0     C31944   9.692   0.888   8.673 -0.3795  0.9085 -0.1947
  978MOL0     C31945   9.810   0.966   8.643  0.7074 -0.4610  0.4760
  978MOL0     N31946  10.186   1.530   8.745  0.1288  0.3039 -0.2744
  978MOL0     N31947  10.143   1.554   8.864  0.2797 -0.3276 -0.1241
  978MOL0     C31948   9.004   1.406   9.414  0.6827  0.4678  0.0510
  978MOL0     C31949   8.897   1.453   9.491 -0.0834  0.4999 -0.0813
  978MOL0     C31950   8.597   1.604   9.731  0.7433 -0.6053  0.3742
  978MOL0     C31951   8.475   1.575   9.679  0.0037  0.6179 -0.4337
  978MOL0     C31952   8.356   1.593   9.746  0.4236 -0.4856 -0.6447
  978MOL0     C31953   8.357   1.640   9.877 -0.1735  0.5749 -0.0548
  978MOL0     O31954   8.233   1.675   9.924 -0.9882  0.9636 -0.0849
  978MOL0     C31955   8.223   1.689  10.063  0.3778  0.5165  0.2106
  978MOL0     C31956   8.251   1.556  10.145 -0.5164  0.3654 -0.4687
  978MOL0     C31957   8.162   1.442  10.089 -0.3341  0.4378 -0.6279
  978MOL0     C31958   8.217   1.301  10.128  0.2391 -0.4741  0.0761
  978MOL0     C31959   8.339   1.274  10.051 -0.0364 -0.3226  0.5066
  978MOL0     C31960   8.438   1.250   9.979 -0.2645  0.5735 -0.1306
  978MOL0     C31961   8.488   1.668   9.930 -0.3628  1.0319  0.6277
  978MOL0     C31962   8.607   1.648   9.855  0.2331 -0.0352 -0.6661
  978MOL0     H31963   8.795   1.707   9.291 -0.6914 -0.6374 -0.0846
  978MOL0     H31964   9.010   1.636   9.181  1.1047  0.4760  0.4784
  978MOL0     H31965   9.198   1.353   9.050 -2.0270  0.8289 -1.1333
  978MOL0     H31966   9.102   1.483   9.044  2.1126  2.3955 -1.7019
  978MOL0     H31967   9.338   1.545   9.011 -3.1156 -1.2805 -0.9096
  978MOL0     H31968   9.282   1.628   9.149 -1.5841  0.1045 -0.9392
  978MOL0     H31969   9.407   1.481   9.291  1.7391  1.7062 -0.1508
  978MOL0     H31970   9.408   1.358   9.162 -2.8081 -0.3524  1.4793
  978MOL0     H31971   9.571   1.622   9.164  0.6700 -0.1960  2.9453
  978MOL0     H31972   9.644   1.474   9.215  0.5742  2.7295  1.0441
  978MOL0     H31973   9.592   1.367   9.000  0.2183 -0.7857  3.5362
  978MOL0     H31974   9.551   1.527   8.937 -1.4063  2.4401  2.4223
  978MOL0     H31975   9.820   1.455   9.076  1.8430  0.0805 -0.9360
  978MOL0     H31976   9.788   1.438   8.904 -1.3847 -3.9783  1.6107
  978MOL0     H31977   9.752   1.697   8.889  0.2762 -0.6465 -0.8377
  978MOL0     H31978   9.770   1.718   9.050 -0.8553  1.3105 -2.3191
  978MOL0     H31979   9.997   1.619   9.054  2.4884  2.5435  0.5440
  978MOL0     H31980   9.973   1.778   9.002  0.0168  0.7424 -2.0494
  978MOL0     H31981   9.911   1.697   8.673  1.5870  1.8853 -1.2072
  978MOL0     H31982  10.064   1.630   8.462  0.9629 -0.4203 -1.4418
  978MOL0     H31983  10.204   1.521   8.496 -0.3471  0.0348  1.5908
  978MOL0     H31984  10.001   1.409   8.361 -1.2904 -0.1236 -0.1726
  978MOL0     H31985   9.925   1.419   8.528  1.3607  0.0094  1.2967
  978MOL0     H31986  10.140   1.296   8.597  0.5916 -1.1361  0.1992
  978MOL0     H31987  10.145   1.246   8.436 -1.5537 -1.6982 -1.8954
  978MOL0     H31988  10.031   1.077   8.536  3.2801  1.1451 -0.7353
  978MOL0     H31989   9.921   1.169   8.424  0.1349  2.7842 -0.4811
  978MOL0     H31990   9.672   1.276   8.705  3.9979  0.0228  0.7247
  978MOL0     H31991   9.403   1.217   8.703  1.9221 -0.6795 -0.3691
  978MOL0     H31992   9.380   1.118   8.851 -2.4824 -0.3110 -1.3378
  978MOL0     H31993   9.491   1.257   8.850 -0.4110  0.7462 -0.1287
  978MOL0     H31994   9.366   0.571   8.926 -0.7200 -1.2387  1.1285
  978MOL0     H31995   9.186   0.420   8.897 -0.6047  1.3710  0.0027
  978MOL0     H31996   8.947   0.387   8.874 -0.3276  0.6230 -0.9769
  978MOL0     H31997   8.852   0.307   8.752  0.0515 -0.4843 -0.4650
  978MOL0     H31998   9.027   0.128   8.709  2.8800 -0.0443  1.3642
  978MOL0     H31999   9.119   0.192   8.835 -1.6450 -0.0313  2.2063
  978MOL0     H32000   8.852   0.065   8.865 -0.1934  0.8045 -0.3699
  978MOL0     H32001   8.931   0.158   8.994 -0.4285  0.0849 -0.2189
  978MOL0     H32002   9.028  -0.092   8.833 -0.5614 -0.4867  0.3831
  978MOL0     H32003   9.130  -0.006   8.956 -0.0418 -0.9520  1.6703
  978MOL0     H32004   9.022  -0.112   9.124  2.1382 -0.5386 -1.1328
  978MOL0     H32005   9.004  -0.235   9.000 -1.1988 -0.0719 -1.1246
  978MOL0     H32006   8.788  -0.027   9.075 -1.7714 -1.3074  0.9985
  978MOL0     H32007   8.766  -0.138   8.940 -1.8742 -1.1030  1.6178
  978MOL0     H32008   8.819  -0.308   9.135 -1.4394 -1.7259 -2.0593
  978MOL0     H32009   8.661  -0.258   9.086  0.3734 -1.8604 -1.1974
  978MOL0     H32010   8.651  -0.216   9.321 -1.0800 -1.0323 -0.3579
  978MOL0     H32011   8.651  -0.067   9.240 -1.9471 -1.8723  0.3405
  978MOL0     H32012   9.130   0.539   8.496 -3.2202  1.6815  2.3321
  978MOL0     H32013   9.306   0.694   8.518 -0.6117 -0.1415 -0.4917
  978MOL0     H32014   9.699   0.781   8.659 -1.9480  0.5694  1.2948
  978MOL0     H32015   9.903   0.919   8.613  1.5587 -0.0017  2.2747
  978MOL0     H32016   9.066   1.323   9.447  0.1015 -1.2945 -2.8744
  978MOL0     H32017   8.863   1.398   9.578  1.6183 -0.0491  0.2736
  978MOL0     H32018   8.475   1.538   9.577  1.8967  1.2883 -0.7178
  978MOL0     H32019   8.264   1.557   9.701 -0.3182 -0.7866  1.0092
  978MOL0     H32020   8.275   1.781  10.091 -1.6077  1.5085  0.8779
  978MOL0     H32021   8.118   1.715  10.082  1.1142  3.8384  0.2996
  978MOL0     H32022   8.219   1.571  10.248  2.0438 -2.0472  0.8145
  978MOL0     H32023   8.358   1.535  10.151 -0.5958  0.4186  2.5526
  978MOL0     H32024   8.157   1.442   9.979  0.2483  1.4431 -0.6704
  978MOL0     H32025   8.068   1.453  10.142  1.5031  0.1794  2.9692
  978MOL0     H32026   8.126   1.240  10.123 -0.7794  0.6487  3.0008
  978MOL0     H32027   8.228   1.294  10.236 -0.9445 -1.3095  0.1668
  978MOL0     H32028   8.516   1.253   9.906  0.1381 -0.2594  0.2565
  978MOL0     H32029   8.486   1.714  10.029  0.2397 -0.8935  1.5941
  978MOL0     H32030   8.702   1.686   9.891  0.2412  0.2232 -0.9591
  979MOL0     O32031   8.497   7.435   9.888  0.7766  0.3331  0.4130
  979MOL0     C32032   8.526   7.546   9.829  0.8883  0.3252 -0.4282
  979MOL0     O32033   8.440   7.631   9.764  0.8017 -0.2120 -0.4016
  979MOL0     C32034   8.303   7.614   9.782  0.3436  0.0909 -0.8559
  979MOL0     C32035   8.224   7.636   9.673 -0.5719 -0.1668  0.3669
  979MOL0     C32036   8.083   7.618   9.685 -1.7054 -0.2119 -0.0039
  979MOL0     C32037   8.024   7.583   9.800  0.0955  0.0267  0.6066
  979MOL0     O32038   7.886   7.569   9.794 -0.4836 -0.3865 -0.5214
  979MOL0     C32039   7.805   7.544   9.909  0.0125 -0.0437 -0.0288
  979MOL0     C32040   7.656   7.561   9.873 -0.4215 -0.2004  0.0913
  979MOL0     C32041   7.568   7.550   9.994 -0.3222  0.0222 -0.1964
  979MOL0     C32042   7.416   7.566   9.969 -0.7362 -0.0538 -0.0841
  979MOL0     C32043   7.353   7.595  10.104 -0.3691  0.4659 -0.5499
  979MOL0     C32044   7.194   7.607  10.089 -0.9501  0.6030 -0.2799
  979MOL0     C32045   7.120   7.616  10.223  0.6128 -0.4603 -0.5565
  979MOL0     C32046   7.145   7.502  10.326 -0.4779 -0.7658  0.5822
  979MOL0     N32047   7.042   7.511  10.439  0.2014 -0.0915  0.4437
  979MOL0     C32048   6.909   7.543  10.436  0.6198 -0.5675  0.5487
  979MOL0     C32049   6.867   7.519  10.567 -0.6332 -0.3568  0.0559
  979MOL0     C32050   6.720   7.555  10.610  0.1890  0.3417  0.9818
  979MOL0     C32051   6.633   7.441  10.566 -0.9077 -0.0757  0.5257
  979MOL0     C32052   6.472   7.469  10.582  0.1592  0.9895  0.7828
  979MOL0     C32053   6.413   7.514  10.445  0.3314  0.0784 -0.3713
  979MOL0     O32054   6.384   7.390  10.364 -0.3607 -0.3776  0.1074
  979MOL0     C32055   6.275   7.384  10.278  0.5702 -0.1587  0.5204
  979MOL0     C32056   6.239   7.500  10.213 -0.4301 -0.6016 -0.2584
  979MOL0     C32057   6.129   7.498  10.124 -0.5787 -0.8684 -0.4111
  979MOL0     C32058   6.097   7.632  10.065 -0.3385  0.2596  0.4575
  979MOL0     C32059   6.064   7.373  10.097  0.5552 -1.3893  0.8188
  979MOL0     C32060   5.932   7.369  10.023  0.6968 -0.3581  0.3231
  979MOL0     O32061   5.844   7.277  10.073 -0.0277  0.3561 -0.0394
  979MOL0     C32062   5.722   7.256  10.026 -0.4253 -0.3310  0.9546
  979MOL0     C32063   5.611   7.348  10.028 -0.8412 -0.7993  0.3512
  979MOL0     C32064   5.490   7.297   9.970  0.1505  0.7374 -0.5879
  979MOL0     C32065   5.473   7.165   9.917 -0.9160 -0.5459  0.1982
  979MOL0     O32066   5.342   7.124   9.883  0.1702  0.1171  0.2456
  979MOL0     C32067   5.344   7.012   9.797 -0.4886  0.0376  0.3352
  979MOL0     C32068   5.197   6.984   9.771 -0.1613  0.6268  0.0484
  979MOL0     C32069   5.124   7.095   9.695  0.6265  0.5478  0.0881
  979MOL0     C32070   4.984   7.036   9.644  0.9924  0.3895 -0.3271
  979MOL0     C32071   4.937   7.087   9.499  0.6718 -0.1135  0.6184
  979MOL0     C32072   4.908   7.243   9.494 -0.5284  0.3135  0.1167
  979MOL0     C32073   4.873   7.276   9.352  0.5334  0.2291 -0.8705
  979MOL0     C32074   4.730   7.233   9.310 -0.5220 -0.1421 -0.6715
  979MOL0    Cl32075   4.617   7.371   9.348 -0.3918 -0.3506 -0.1847
  979MOL0     C32076   5.586   7.089   9.908 -0.8542 -0.7152 -0.4569
  979MOL0     C32077   5.705   7.135   9.956 -0.1815 -0.4681 -1.1272
  979MOL0     O32078   5.913   7.439   9.921 -0.4683  0.3316  0.2544
  979MOL0     C32079   6.112   7.257  10.155 -0.0035 -0.2996  0.6778
  979MOL0     C32080   6.222   7.263  10.239  0.0193  0.4000 -0.5355
  979MOL0     N32081   6.980   7.488  10.643  0.2306  0.0216 -0.6300
  979MOL0     N32082   7.087   7.492  10.565  0.2220  0.4189  0.0752
  979MOL0     C32083   8.091   7.552   9.913 -1.1559  0.1908  0.1812
  979MOL0     C32084   8.236   7.575   9.911 -0.1828 -0.1628 -0.2544
  979MOL0     C32085   8.672   7.570   9.809 -0.6452  0.2286  0.2696
  979MOL0     C32086   8.720   7.691   9.738 -0.1725  0.1326  0.2961
  979MOL0     C32087   8.862   7.695   9.708  0.4411 -0.9224  0.4232
  979MOL0     C32088   8.947   7.595   9.738 -0.6832  0.4087 -0.1803
  979MOL0     O32089   9.083   7.618   9.708  0.1131 -0.1811 -0.1918
  979MOL0     C32090   9.186   7.514   9.696  0.0859  0.0655  0.1142
  979MOL0     C32091   9.156   7.435   9.570 -1.1964 -0.2040  0.5254
  979MOL0     C32092   9.269   7.333   9.537  0.3807 -0.8751 -0.0966
  979MOL0     C32093   9.246   7.206   9.619 -0.0830  1.3164 -0.8642
  979MOL0     C32094   9.122   7.138   9.602 -0.0359  0.0275  0.0852
  979MOL0     C32095   9.020   7.074   9.585  0.0683  0.2003  0.2596
  979MOL0     C32096   8.900   7.484   9.816  0.2264 -0.5189 -0.0241
  979MOL0     C32097   8.765   7.470   9.846 -0.2522  0.0021 -0.6060
  979MOL0     H32098   8.262   7.659   9.574  2.4767 -0.4346  1.3671
  979MOL0     H32099   8.018   7.632   9.600 -1.1930 -0.2024 -0.3935
  979MOL0     H32100   7.838   7.448   9.951 -0.2199  1.0584  2.8948
  979MOL0     H32101   7.822   7.618   9.988 -2.6880 -0.3462  0.9424
  979MOL0     H32102   7.640   7.656   9.820  0.6498  0.7327  1.3543
  979MOL0     H32103   7.627   7.489   9.797  2.2916 -0.5566 -0.7293
  979MOL0     H32104   7.587   7.452  10.039 -0.1367  0.3688  0.4860
  979MOL0     H32105   7.603   7.630  10.060 -2.2189 -0.2743  1.2375
  979MOL0     H32106   7.390   7.652   9.906 -0.5620  1.3791  1.7334
  979MOL0     H32107   7.374   7.474   9.926 -1.4762  0.9875 -1.7107
  979MOL0     H32108   7.363   7.504  10.164  1.2659 -0.5992 -2.3106
  979MOL0     H32109   7.397   7.681  10.155  0.6048 -0.3997  0.1182
  979MOL0     H32110   7.172   7.690  10.020  1.0648  2.8501  1.5860
  979MOL0     H32111   7.158   7.515  10.043  2.6344 -0.2791 -1.6891
  979MOL0     H32112   7.137   7.711  10.273 -1.2904 -0.7797  0.7911
  979MOL0     H32113   7.014   7.613  10.197 -0.7757  2.6079  3.6927
  979MOL0     H32114   7.246   7.512  10.367 -0.6608  0.8874  0.7295
  979MOL0     H32115   7.142   7.411  10.266 -1.7519  0.1640 -0.8398
  979MOL0     H32116   6.846   7.575  10.353 -1.1183 -0.3724  1.8967
  979MOL0     H32117   6.705   7.579  10.715 -4.5973  0.7830  0.3922
  979MOL0     H32118   6.693   7.643  10.550  1.1882 -0.5614 -0.8942
  979MOL0     H32119   6.660   7.361  10.635  0.6925 -0.3189 -0.3455
  979MOL0     H32120   6.651   7.412  10.462 -0.0003  1.6247  0.1613
  979MOL0     H32121   6.465   7.551  10.655  0.4499  0.6255  1.2266
  979MOL0     H32122   6.419   7.381  10.618 -1.3546  1.2431 -0.7227
  979MOL0     H32123   6.480   7.581  10.392  0.7588 -2.9389 -4.1206
  979MOL0     H32124   6.319   7.570  10.454  0.3120  0.2405 -1.4516
  979MOL0     H32125   6.305   7.586  10.222  0.6494 -1.1456 -2.3420
  979MOL0     H32126   6.077   7.627   9.957 -0.0094 -0.7534  0.4329
  979MOL0     H32127   6.015   7.678  10.120 -1.4745 -0.6768 -0.4019
  979MOL0     H32128   6.184   7.699  10.054  0.6039 -0.9769  0.1562
  979MOL0     H32129   5.628   7.442  10.079  0.8569 -0.3541 -0.9382
  979MOL0     H32130   5.403   7.362   9.974 -0.5154 -0.1728 -0.0494
  979MOL0     H32131   5.401   7.048   9.710  3.0179 -1.7342  1.7143
  979MOL0     H32132   5.392   6.924   9.841  1.7250  1.5112  1.0645
  979MOL0     H32133   5.190   6.888   9.719  1.0906 -0.5318  1.9244
  979MOL0     H32134   5.142   6.977   9.865 -0.0843  0.3590  0.0746
  979MOL0     H32135   5.195   7.123   9.616  0.5947  0.6208  0.0857
  979MOL0     H32136   5.100   7.181   9.757  0.2354  0.2799  0.3116
  979MOL0     H32137   4.973   6.928   9.657  0.2634  0.5804  0.7187
  979MOL0     H32138   4.916   7.086   9.713  0.5197  1.5489 -1.5749
  979MOL0     H32139   4.845   7.033   9.475  1.4613 -1.7462  1.0601
  979MOL0     H32140   5.010   7.064   9.422 -0.0314  0.3681 -0.2110
  979MOL0     H32141   4.830   7.273   9.565  1.0263  0.3536  1.8949
  979MOL0     H32142   4.994   7.302   9.527  0.1668  0.4730 -1.8861
  979MOL0     H32143   4.945   7.226   9.286 -0.0154  0.2249 -1.4817
  979MOL0     H32144   4.876   7.383   9.333  1.5495  0.6602  1.4571
  979MOL0     H32145   4.695   7.144   9.362 -2.0131  0.3157 -0.8495
  979MOL0     H32146   4.731   7.215   9.202  2.1298 -1.9330 -0.4451
  979MOL0     H32147   5.603   6.994   9.858  2.1641 -0.0629 -0.8476
  979MOL0     H32148   5.789   7.068   9.937 -0.2736 -1.2865  1.0897
  979MOL0     H32149   6.063   7.168  10.117  0.2559 -0.8438  1.5779
  979MOL0     H32150   6.274   7.172  10.267  0.6616  0.5569 -1.1935
  979MOL0     H32151   8.049   7.518  10.007 -0.1589 -1.5026  0.0663
  979MOL0     H32152   8.289   7.563  10.005  0.0415 -1.6616 -0.5487
  979MOL0     H32153   8.643   7.757   9.702 -0.3279 -0.8985 -1.3536
  979MOL0     H32154   8.911   7.778   9.659  0.6462 -0.0464  2.0265
  979MOL0     H32155   9.287   7.555   9.705 -0.4041  1.5415 -0.8327
  979MOL0     H32156   9.181   7.439   9.776 -2.6810 -2.8301 -2.4790
  979MOL0     H32157   9.152   7.500   9.483 -2.5330 -0.1939  0.5780
  979MOL0     H32158   9.055   7.393   9.575 -0.7122 -1.3174  1.6795
  979MOL0     H32159   9.365   7.381   9.557  1.4523  0.2263 -5.9162
  979MOL0     H32160   9.273   7.300   9.433 -1.5431 -0.1476 -0.4321
  979MOL0     H32161   9.266   7.229   9.724  0.1835  3.2840 -1.3154
  979MOL0     H32162   9.320   7.130   9.593 -0.9567  0.1479 -0.0592
  979MOL0     H32163   8.932   7.014   9.570  0.7090 -1.0098  1.1088
  979MOL0     H32164   8.972   7.408   9.844 -0.1254 -1.1426 -0.7454
  979MOL0     H32165   8.735   7.382   9.903  3.8957  0.4009  2.7803
  980MOL0     O32166   5.752   5.818   1.200  0.0723 -0.5049 -0.4595
  980MOL0     C32167   5.812   5.866   1.099  0.3763 -0.8026 -0.4883
  980MOL0     O32168   5.753   5.956   1.006  0.5508  0.2223 -0.1080
  980MOL0     C32169   5.635   6.020   1.045  0.0108 -0.2944  0.7374
  980MOL0     C32170   5.645   6.145   1.117 -0.6779  0.5511  0.6192
  980MOL0     C32171   5.521   6.208   1.150 -0.0929  0.1848 -0.3307
  980MOL0     C32172   5.396   6.157   1.113 -0.4662 -0.2851  0.2787
  980MOL0     O32173   5.288   6.242   1.143  0.3720 -0.0507  0.1020
  980MOL0     C32174   5.158   6.186   1.124 -0.1627 -0.8245  0.0601
  980MOL0     C32175   5.052   6.291   1.146  0.1927 -0.4571  0.0406
  980MOL0     C32176   5.006   6.304   1.290 -0.1846  0.6018 -0.9746
  980MOL0     C32177   4.887   6.401   1.310  0.1611 -0.1219 -0.7165
  980MOL0     C32178   4.833   6.402   1.460  0.9869 -1.1873 -0.3813
  980MOL0     C32179   4.692   6.463   1.478 -0.3215  0.1749 -0.3268
  980MOL0     C32180   4.618   6.434   1.606 -0.2246 -0.6898  0.0163
  980MOL0     C32181   4.638   6.537   1.717 -0.1444  0.7528 -0.0612
  980MOL0     N32182   4.780   6.537   1.762 -0.4018  0.2699 -0.0559
  980MOL0     C32183   4.858   6.449   1.838  0.6486 -0.6987 -0.7125
  980MOL0     C32184   4.967   6.520   1.867  0.3064  0.2713 -0.8677
  980MOL0     C32185   5.064   6.468   1.973 -0.0199 -0.1702 -0.0505
  980MOL0     C32186   5.149   6.345   1.939 -0.1876  1.3060  0.0422
  980MOL0     C32187   5.254   6.372   1.825  0.2812 -0.6386 -0.6265
  980MOL0     C32188   5.241   6.251   1.721  0.3146 -0.4523  0.2158
  980MOL0     O32189   5.323   6.276   1.604 -0.3115 -0.2104 -0.6615
  980MOL0     C32190   5.441   6.202   1.600 -0.0935  0.7216 -0.5855
  980MOL0     C32191   5.524   6.164   1.711  1.1013  0.1848  0.2332
  980MOL0     C32192   5.643   6.089   1.686 -0.7281  0.3931 -0.5261
  980MOL0     C32193   5.722   6.062   1.807  0.1769 -0.4826  0.2879
  980MOL0     C32194   5.693   6.050   1.561  0.2293 -0.2563  0.2426
  980MOL0     C32195   5.829   6.001   1.526 -0.3169 -0.9500  0.4711
  980MOL0     O32196   5.915   5.949   1.624  0.0074 -0.2363  0.3281
  980MOL0     C32197   6.034   5.895   1.592  0.0401  0.3771 -0.6343
  980MOL0     C32198   6.154   5.965   1.577 -0.1278 -0.4432 -0.0089
  980MOL0     C32199   6.268   5.907   1.525 -0.6993  0.2682 -0.3387
  980MOL0     C32200   6.266   5.769   1.486  0.2618  0.1697 -0.5843
  980MOL0     O32201   6.367   5.698   1.423 -0.1345 -0.0565 -0.1916
  980MOL0     C32202   6.502   5.748   1.442  0.4510 -0.1373 -0.1352
  980MOL0     C32203   6.555   5.688   1.568  0.3498  0.2859 -0.2494
  980MOL0     C32204   6.706   5.679   1.589 -0.4312 -0.9686  0.4472
  980MOL0     C32205   6.777   5.559   1.527  0.3522 -0.1617  0.3385
  980MOL0     C32206   6.931   5.578   1.504  0.6807  0.8713 -0.0523
  980MOL0     C32207   7.009   5.572   1.640 -0.6037 -0.3492 -0.0083
  980MOL0     C32208   7.159   5.529   1.611  0.1557  0.9485 -0.4600
  980MOL0     C32209   7.230   5.495   1.749 -0.3455  1.4673  0.2445
  980MOL0    Cl32210   7.374   5.404   1.724 -0.2873 -0.3348 -0.2554
  980MOL0     C32211   6.150   5.701   1.501  0.8470  0.2496 -0.3649
  980MOL0     C32212   6.033   5.760   1.562 -0.3776  0.0337  0.1389
  980MOL0     O32213   5.872   6.038   1.417 -0.1608  0.6761  0.0436
  980MOL0     C32214   5.598   6.074   1.462 -0.0536  0.0970  0.5793
  980MOL0     C32215   5.481   6.147   1.474  0.1575 -0.7636 -0.0759
  980MOL0     N32216   4.963   6.647   1.802  0.3162  0.3486 -0.5449
  980MOL0     N32217   4.854   6.645   1.733 -0.5446  0.2069  0.7557
  980MOL0     C32218   5.396   6.043   1.031  0.0376 -0.6847 -0.0592
  980MOL0     C32219   5.513   5.976   1.002  0.6060  0.6848 -0.6323
  980MOL0     C32220   5.949   5.823   1.069  0.1406 -0.5907 -0.2229
  980MOL0     C32221   6.041   5.776   1.165  1.0312 -0.6460 -0.8347
  980MOL0     C32222   6.172   5.739   1.144  0.9207  0.3865  0.3611
  980MOL0     C32223   6.215   5.753   1.013  0.3100  0.7927 -0.1990
  980MOL0     O32224   6.343   5.734   0.984 -0.1780 -0.5147  0.5913
  980MOL0     C32225   6.434   5.812   1.068 -0.2057  0.1653  0.4348
  980MOL0     C32226   6.520   5.911   0.986  0.1877 -0.1648  0.1169
  980MOL0     C32227   6.650   5.967   1.056  0.0135 -0.1073  0.2685
  980MOL0     C32228   6.705   6.091   0.984 -0.0557 -0.1665  0.8345
  980MOL0     C32229   6.790   6.049   0.866  0.4186 -0.4269 -0.4475
  980MOL0     C32230   6.846   6.007   0.767 -0.0686  0.4476 -0.4770
  980MOL0     C32231   6.131   5.782   0.908 -0.9066  1.1546 -1.0607
  980MOL0     C32232   5.998   5.824   0.936 -0.3795  0.0393 -0.0267
  980MOL0     H32233   5.746   6.162   1.155 -0.5981 -0.0119  0.6658
  980MOL0     H32234   5.523   6.299   1.210 -0.8640 -0.4778  0.7499
  980MOL0     H32235   5.159   6.150   1.021  0.4644  1.5841 -0.8628
  980MOL0     H32236   5.140   6.095   1.181 -0.9083 -1.4290 -1.1062
  980MOL0     H32237   5.089   6.388   1.110  1.8569 -0.6872  1.0398
  980MOL0     H32238   4.972   6.264   1.077  1.8311  1.2541 -2.7309
  980MOL0     H32239   4.980   6.206   1.333 -0.2766 -0.0851 -2.5391
  980MOL0     H32240   5.092   6.341   1.348  1.5047 -2.3096 -1.4088
  980MOL0     H32241   4.913   6.501   1.274  0.6423  0.2332  0.5552
  980MOL0     H32242   4.812   6.375   1.235  1.9948 -1.0820 -2.3081
  980MOL0     H32243   4.838   6.307   1.513 -0.7520 -0.5145  1.0904
  980MOL0     H32244   4.904   6.469   1.509  2.5575 -3.5238  0.7184
  980MOL0     H32245   4.692   6.569   1.449 -0.0414 -0.2263 -1.8726
  980MOL0     H32246   4.636   6.407   1.402 -1.7188 -3.0654  2.8164
  980MOL0     H32247   4.509   6.433   1.593 -0.1361 -1.0948 -0.7839
  980MOL0     H32248   4.643   6.335   1.644 -2.2759 -1.0001  0.6529
  980MOL0     H32249   4.569   6.515   1.799 -0.4899  1.5261 -0.1450
  980MOL0     H32250   4.607   6.638   1.691 -1.8664  0.8515  2.0931
  980MOL0     H32251   4.829   6.351   1.875  0.8168 -0.4701  0.0540
  980MOL0     H32252   5.133   6.551   1.988  1.6386 -1.5773  0.5045
  980MOL0     H32253   5.019   6.457   2.072  1.2465  0.3339  0.5952
  980MOL0     H32254   5.081   6.263   1.917 -1.8030  1.5402  3.5943
  980MOL0     H32255   5.193   6.318   2.036  0.1758 -1.3741 -0.7719
  980MOL0     H32256   5.357   6.381   1.861  0.3819  2.5692 -1.3854
  980MOL0     H32257   5.220   6.465   1.779 -2.0839 -0.3670  1.4682
  980MOL0     H32258   5.139   6.259   1.684  0.6555 -3.1231 -1.5820
  980MOL0     H32259   5.255   6.150   1.760  3.4617 -0.7903 -1.4724
  980MOL0     H32260   5.499   6.204   1.809 -0.6033 -1.0680  0.3657
  980MOL0     H32261   5.737   5.954   1.800 -0.7202 -0.6659  0.9514
  980MOL0     H32262   5.818   6.115   1.812  0.6259 -1.3328  0.7714
  980MOL0     H32263   5.671   6.089   1.901  2.5600  0.1040  1.4837
  980MOL0     H32264   6.159   6.067   1.613 -0.7638 -0.2910 -0.3451
  980MOL0     H32265   6.360   5.957   1.494 -0.8535 -1.1596 -3.5494
  980MOL0     H32266   6.575   5.703   1.375  0.3448  2.0114 -1.8228
  980MOL0     H32267   6.517   5.855   1.422  3.3308 -0.4760 -0.1644
  980MOL0     H32268   6.511   5.748   1.649  1.2177  3.1263 -1.7554
  980MOL0     H32269   6.519   5.585   1.580 -1.6512  0.8672 -0.8562
  980MOL0     H32270   6.723   5.677   1.697  1.0879 -0.2812  0.2510
  980MOL0     H32271   6.759   5.771   1.563  0.8109 -1.9080 -0.4631
  980MOL0     H32272   6.757   5.465   1.581  0.4738 -0.1188  0.4569
  980MOL0     H32273   6.739   5.539   1.426  0.3808  2.0275 -0.1482
  980MOL0     H32274   6.959   5.655   1.431  1.3829  2.0391  1.3928
  980MOL0     H32275   6.967   5.496   1.441  0.4103  1.1987 -0.6360
  980MOL0     H32276   7.014   5.674   1.681 -1.4523 -0.3153  0.0351
  980MOL0     H32277   6.963   5.502   1.710 -0.0096  0.1510  0.8995
  980MOL0     H32278   7.217   5.600   1.550  0.3553 -0.4533 -1.9447
  980MOL0     H32279   7.147   5.434   1.559 -3.2756  1.0805 -0.1020
  980MOL0     H32280   7.162   5.442   1.816  2.9672 -0.8260  2.1085
  980MOL0     H32281   7.254   5.589   1.799  0.6617  0.7469  1.1589
  980MOL0     H32282   6.150   5.598   1.466  0.7887 -0.1900  0.8813
  980MOL0     H32283   5.941   5.703   1.573  0.2248 -1.0880 -0.3898
  980MOL0     H32284   5.635   6.037   1.367  1.3831 -0.6262  1.3807
  980MOL0     H32285   5.414   6.181   1.396 -0.3548 -0.2899  0.5584
  980MOL0     H32286   5.306   6.015   0.978  0.5180  0.5924 -1.6177
  980MOL0     H32287   5.489   5.885   0.948 -0.7503 -0.6767  2.0721
  980MOL0     H32288   6.012   5.789   1.269 -0.4550  1.8952 -1.4633
  980MOL0     H32289   6.235   5.697   1.222 -2.4685 -1.4457  2.3326
  980MOL0     H32290   6.388   5.858   1.156 -0.4081 -1.4503  1.2277
  980MOL0     H32291   6.511   5.748   1.112 -1.7076 -0.2909  2.5749
  980MOL0     H32292   6.447   5.982   0.946 -2.5133 -2.1726  1.1514
  980MOL0     H32293   6.554   5.866   0.892 -1.2256  1.2766 -1.1552
  980MOL0     H32294   6.728   5.892   1.072 -1.1554 -1.4127  0.0438
  980MOL0     H32295   6.629   6.013   1.153  0.6794  1.1504 -0.1538
  980MOL0     H32296   6.772   6.154   1.043  0.9837 -2.5737  2.4006
  980MOL0     H32297   6.623   6.157   0.953  1.2774 -0.1897 -3.4223
  980MOL0     H32298   6.878   5.957   0.678 -0.6194  0.0966 -0.4868
  980MOL0     H32299   6.165   5.761   0.807 -0.8152  2.8454 -1.4004
  980MOL0     H32300   5.937   5.848   0.849  0.2794 -1.3987 -0.9337
  981MOL0     O32301   5.402   6.504   5.624  0.3068 -0.5018  0.5373
  981MOL0     C32302   5.350   6.620   5.621  0.5013  0.6627  0.3167
  981MOL0     O32303   5.403   6.735   5.565  0.0807 -0.6446 -0.1750
  981MOL0     C32304   5.512   6.723   5.484  0.3414 -0.4155  0.5800
  981MOL0     C32305   5.511   6.671   5.355 -0.0016 -0.6637  0.3373
  981MOL0     C32306   5.631   6.643   5.293 -0.9641  0.7957  0.0808
  981MOL0     C32307   5.753   6.667   5.351  0.0518 -0.1531  0.0380
  981MOL0     O32308   5.870   6.639   5.282 -0.7423 -0.6350 -0.9677
  981MOL0     C32309   5.993   6.607   5.353 -0.3105 -0.2728 -0.7616
  981MOL0     C32310   6.076   6.530   5.258  0.5494  0.4193 -0.1396
  981MOL0     C32311   6.167   6.614   5.167  0.4909  0.4478 -0.6628
  981MOL0     C32312   6.315   6.625   5.206 -0.1540  0.2274 -0.6690
  981MOL0     C32313   6.399   6.721   5.116  0.3357 -0.0067 -0.5940
  981MOL0     C32314   6.542   6.734   5.157  0.8025  0.8397 -0.1480
  981MOL0     C32315   6.641   6.810   5.066  0.0911 -0.6794  0.1681
  981MOL0     C32316   6.658   6.735   4.928 -0.7042  0.3294  0.1786
  981MOL0     N32317   6.800   6.730   4.887  0.1773  0.6437  0.6771
  981MOL0     C32318   6.888   6.835   4.885 -0.4082 -0.1465 -0.5705
  981MOL0     C32319   7.007   6.773   4.879 -0.0741  0.0038  1.0710
  981MOL0     C32320   7.147   6.840   4.878  0.3784  1.1387 -0.0318
  981MOL0     C32321   7.177   6.909   4.751 -0.2416  0.3076 -1.2463
  981MOL0     C32322   7.323   6.882   4.698  0.2229  0.2740 -0.6669
  981MOL0     C32323   7.425   6.910   4.797 -0.5357  0.2314 -0.5597
  981MOL0     O32324   7.482   6.789   4.862 -0.9256  0.1509  0.6670
  981MOL0     C32325   7.571   6.796   4.964  0.2740 -0.2387  0.5768
  981MOL0     C32326   7.557   6.706   5.074 -0.4049  0.0208 -0.7934
  981MOL0     C32327   7.647   6.697   5.184 -0.3179 -0.5453 -0.1898
  981MOL0     C32328   7.606   6.595   5.291  0.1451  0.2804 -0.1304
  981MOL0     C32329   7.754   6.790   5.181  0.7795  0.0011 -0.8540
  981MOL0     C32330   7.854   6.790   5.295 -0.1434  0.2086 -0.0170
  981MOL0     O32331   7.979   6.844   5.273  0.1546  0.2524  1.3611
  981MOL0     C32332   8.057   6.863   5.382 -0.1438 -0.0331 -0.0518
  981MOL0     C32333   8.104   6.994   5.411  0.6277  0.0323 -0.5933
  981MOL0     C32334   8.182   7.012   5.531  0.1794 -0.1525  0.0323
  981MOL0     C32335   8.220   6.907   5.616  0.0494 -1.2700  1.1270
  981MOL0     O32336   8.285   6.947   5.729  0.0414  0.7067 -0.0377
  981MOL0     C32337   8.397   6.874   5.770 -0.9889  1.0937  0.2580
  981MOL0     C32338   8.437   6.937   5.902 -0.4736  0.5599  0.1657
  981MOL0     C32339   8.476   7.089   5.882  0.3384  0.8493 -0.7399
  981MOL0     C32340   8.526   7.172   6.009  0.1256 -1.3139  0.4377
  981MOL0     C32341   8.560   7.316   5.951  0.1534  0.4125 -0.0212
  981MOL0     C32342   8.588   7.412   6.069 -1.0292  0.2009 -0.9039
  981MOL0     C32343   8.698   7.362   6.155 -0.2024  0.8621 -0.5413
  981MOL0     C32344   8.741   7.469   6.252 -0.1336  0.1616  0.7491
  981MOL0    Cl32345   8.829   7.378   6.376  0.3671 -0.3409  0.1458
  981MOL0     C32346   8.182   6.773   5.577  0.1742  0.6138 -0.2065
  981MOL0     C32347   8.106   6.753   5.465  0.2815 -0.3593 -0.0056
  981MOL0     O32348   7.809   6.779   5.404 -0.0521  0.5705 -0.1767
  981MOL0     C32349   7.773   6.879   5.068 -0.6237 -0.3584  0.1559
  981MOL0     C32350   7.676   6.884   4.968  0.0707 -0.1898  0.6962
  981MOL0     N32351   6.991   6.636   4.874  0.3731  0.0439  0.1826
  981MOL0     N32352   6.868   6.610   4.891  0.5286 -0.1163  0.4648
  981MOL0     C32353   5.759   6.731   5.474 -0.2543 -0.3127  0.3921
  981MOL0     C32354   5.638   6.761   5.533  0.5580 -0.5741 -0.5744
  981MOL0     C32355   5.215   6.630   5.669 -0.9044 -0.3512  0.5132
  981MOL0     C32356   5.169   6.539   5.772 -0.0335  0.1684  0.9343
  981MOL0     C32357   5.035   6.563   5.814 -1.0224  0.3664 -0.2212
  981MOL0     C32358   4.956   6.667   5.767 -0.0989  1.0715 -0.5720
  981MOL0     O32359   4.830   6.663   5.815 -0.3141  0.3333 -0.4889
  981MOL0     C32360   4.734   6.754   5.760 -0.4633 -0.4228 -0.1851
  981MOL0     C32361   4.585   6.735   5.789 -0.1374  0.4772  0.5390
  981MOL0     C32362   4.500   6.855   5.745 -0.4723  0.1710 -0.1999
  981MOL0     C32363   4.372   6.877   5.813  1.0559 -0.6103 -1.2464
  981MOL0     C32364   4.281   6.776   5.802 -0.2246  0.5122 -0.0392
  981MOL0     C32365   4.208   6.688   5.783  0.8027 -0.2390  0.5384
  981MOL0     C32366   5.007   6.754   5.675 -0.7553 -0.7863 -0.2800
  981MOL0     C32367   5.131   6.735   5.621  0.2591 -0.0847 -0.0509
  981MOL0     H32368   5.419   6.637   5.309 -1.6321 -1.1268  3.6414
  981MOL0     H32369   5.650   6.595   5.198 -0.1076  0.5264  0.3829
  981MOL0     H32370   6.049   6.698   5.379  1.2440 -0.9987 -1.4407
  981MOL0     H32371   5.972   6.539   5.435 -1.0201 -0.1010 -0.7984
  981MOL0     H32372   6.151   6.468   5.308 -0.9675 -2.7996 -1.5541
  981MOL0     H32373   6.006   6.470   5.198  1.9542  0.1895 -1.6052
  981MOL0     H32374   6.146   6.577   5.066 -4.1838 -4.0698  1.4604
  981MOL0     H32375   6.116   6.711   5.166  1.6356  1.0901  0.7939
  981MOL0     H32376   6.321   6.667   5.307  1.0889 -0.9040 -0.2430
  981MOL0     H32377   6.369   6.530   5.208  1.5575  1.1654 -0.7989
  981MOL0     H32378   6.398   6.694   5.010 -0.2878 -1.8819 -0.1459
  981MOL0     H32379   6.353   6.821   5.119  2.6233  1.0843  1.4788
  981MOL0     H32380   6.534   6.785   5.253  0.8765 -0.6369  0.6676
  981MOL0     H32381   6.587   6.636   5.176 -1.8200 -1.3106 -3.7748
  981MOL0     H32382   6.603   6.911   5.045  3.8667  0.7747 -0.4040
  981MOL0     H32383   6.736   6.828   5.116  0.2759  0.1377 -0.4589
  981MOL0     H32384   6.598   6.801   4.864  0.5132 -0.0679 -1.4655
  981MOL0     H32385   6.621   6.633   4.933 -1.1063  0.4642 -0.0266
  981MOL0     H32386   6.867   6.941   4.891 -0.7823 -0.2217 -0.5081
  981MOL0     H32387   7.163   6.911   4.959 -0.8467  1.3997  0.0043
  981MOL0     H32388   7.228   6.769   4.892  0.4881  0.9536 -1.4208
  981MOL0     H32389   7.172   7.018   4.763 -1.8941  0.0291  1.5732
  981MOL0     H32390   7.100   6.885   4.677 -1.0643  3.0088 -1.3835
  981MOL0     H32391   7.341   6.941   4.607 -1.2025 -2.0539 -2.5476
  981MOL0     H32392   7.338   6.776   4.675  3.5122 -0.3629  3.2153
  981MOL0     H32393   7.386   6.966   4.883  0.2314  0.6685 -0.4834
  981MOL0     H32394   7.503   6.968   4.747 -1.4426 -0.9824 -3.5746
  981MOL0     H32395   7.474   6.636   5.069  1.2785 -2.3612  1.8778
  981MOL0     H32396   7.689   6.524   5.291  0.7425  0.9011  2.2087
  981MOL0     H32397   7.589   6.643   5.388  1.3825 -0.4484  0.4695
  981MOL0     H32398   7.510   6.548   5.270  0.4184 -0.1352 -0.4696
  981MOL0     H32399   8.084   7.079   5.347  0.7569  0.7785  0.3384
  981MOL0     H32400   8.201   7.116   5.559 -3.8438  0.9263 -0.5472
  981MOL0     H32401   8.375   6.767   5.776  0.8963  0.4756 -2.0788
  981MOL0     H32402   8.470   6.883   5.689 -1.8771 -0.8358 -0.8324
  981MOL0     H32403   8.363   6.922   5.982 -0.4450 -1.9301 -0.2047
  981MOL0     H32404   8.528   6.883   5.929 -0.8078 -1.4518 -2.3908
  981MOL0     H32405   8.383   7.133   5.847 -2.1997 -2.8315  0.7329
  981MOL0     H32406   8.563   7.087   5.816  3.2859 -1.8922  2.7921
  981MOL0     H32407   8.449   7.158   6.085  0.4225  1.4172  1.3493
  981MOL0     H32408   8.617   7.134   6.056  0.4576  0.5727  1.4280
  981MOL0     H32409   8.473   7.344   5.891  0.8964  0.2510 -1.2067
  981MOL0     H32410   8.644   7.314   5.881 -0.3148  0.5862 -0.6032
  981MOL0     H32411   8.624   7.508   6.031 -0.1659  0.0182 -0.5620
  981MOL0     H32412   8.495   7.433   6.122  0.7449  2.0841  1.6894
  981MOL0     H32413   8.783   7.336   6.091 -1.0177  1.6261 -1.9771
  981MOL0     H32414   8.677   7.272   6.214  0.7470  0.4771 -0.7784
  981MOL0     H32415   8.660   7.527   6.297  0.9501  2.7501 -0.4657
  981MOL0     H32416   8.823   7.529   6.210 -0.3503 -0.6074 -0.8092
  981MOL0     H32417   8.221   6.690   5.634 -1.4436  0.1029  0.2276
  981MOL0     H32418   8.081   6.648   5.456 -1.2236  0.1427 -3.1676
  981MOL0     H32419   7.858   6.946   5.068 -0.8042  0.1183  4.1775
  981MOL0     H32420   7.687   6.956   4.888 -2.8367  1.0781  1.2995
  981MOL0     H32421   5.858   6.754   5.513  0.3237 -3.9037  1.4083
  981MOL0     H32422   5.633   6.831   5.616 -2.5996 -0.4600 -0.7368
  981MOL0     H32423   5.217   6.450   5.811 -0.3587 -0.1815  0.5480
  981MOL0     H32424   4.981   6.489   5.873  1.6664 -1.6143 -0.0845
  981MOL0     H32425   4.767   6.857   5.782  1.6319 -0.4990 -2.5179
  981MOL0     H32426   4.726   6.757   5.651 -1.2659 -0.1379 -0.1244
  981MOL0     H32427   4.573   6.717   5.896 -1.1773 -1.1002  0.1911
  981MOL0     H32428   4.548   6.651   5.730 -1.6575  1.8868 -0.6258
  981MOL0     H32429   4.487   6.833   5.639 -2.3933  2.1391 -0.4353
  981MOL0     H32430   4.561   6.946   5.750  0.8120 -0.7247  1.3970
  981MOL0     H32431   4.325   6.966   5.769 -0.2093 -1.6987 -2.1976
  981MOL0     H32432   4.392   6.881   5.920 -0.7578 -3.1922 -0.7107
  981MOL0     H32433   4.139   6.607   5.770 -1.8566  2.1604 -1.5042
  981MOL0     H32434   4.956   6.846   5.646  0.5799 -0.2981 -1.1507
  981MOL0     H32435   5.167   6.805   5.546 -0.5132 -0.6844 -1.0036
  982MOL0     O32436   0.569   6.019   6.442  0.3219  0.3092 -0.7881
  982MOL0     C32437   0.601   6.125   6.387 -0.6790  0.1383 -0.4742
  982MOL0     O32438   0.732   6.176   6.379  0.1102 -0.6190 -0.1814
  982MOL0     C32439   0.832   6.133   6.461  0.8832  0.4737 -0.1237
  982MOL0     C32440   0.962   6.139   6.413 -0.4903  0.3227 -0.2293
  982MOL0     C32441   1.070   6.072   6.475 -0.2603  0.0749  0.1797
  982MOL0     C32442   1.047   5.999   6.591  0.3029  0.6138 -1.1596
  982MOL0     O32443   1.139   5.931   6.667  0.1632 -0.5802 -0.3112
  982MOL0     C32444   1.210   6.018   6.759 -0.0748 -0.4655  0.0393
  982MOL0     C32445   1.291   5.931   6.854  0.3944  0.3014  0.1341
  982MOL0     C32446   1.436   5.898   6.795 -0.3623  0.0690  0.2883
  982MOL0     C32447   1.519   5.838   6.906 -0.9541  0.1350 -0.3907
  982MOL0     C32448   1.672   5.805   6.860  0.1468 -0.3727  0.0114
  982MOL0     C32449   1.777   5.813   6.978 -0.5152  0.8830  0.2550
  982MOL0     C32450   1.906   5.736   6.950 -0.0846  0.9060  0.2896
  982MOL0     C32451   2.015   5.762   7.061 -1.4484 -0.0683 -0.0047
  982MOL0     N32452   2.148   5.697   7.040  0.6584  0.0206 -0.3277
  982MOL0     C32453   2.265   5.715   7.116 -0.4660  0.3383  0.1239
  982MOL0     C32454   2.351   5.619   7.086 -0.0699  0.5617  0.4386
  982MOL0     C32455   2.471   5.574   7.164  0.0226  0.0513 -0.1697
  982MOL0     C32456   2.443   5.583   7.314 -0.0872  0.2646  0.3175
  982MOL0     C32457   2.365   5.459   7.367  0.7077 -0.3731 -0.0808
  982MOL0     C32458   2.368   5.436   7.524 -0.1208  0.4135  0.4495
  982MOL0     O32459   2.269   5.343   7.566 -0.5111 -0.2023 -0.3980
  982MOL0     C32460   2.151   5.394   7.621  0.7040  1.1482  0.0528
  982MOL0     C32461   2.101   5.335   7.734  0.0316  0.6527 -0.0049
  982MOL0     C32462   1.975   5.372   7.796 -0.3101  0.0046 -0.6916
  982MOL0     C32463   1.947   5.308   7.928  0.1056  0.2034 -0.7630
  982MOL0     C32464   1.888   5.461   7.718 -0.2554 -1.1726  0.0514
  982MOL0     C32465   1.753   5.507   7.751 -0.4817  0.3225 -0.4272
  982MOL0     O32466   1.710   5.464   7.876 -0.3380  0.1074  0.7647
  982MOL0     C32467   1.591   5.515   7.917 -0.8401 -0.6007  0.5212
  982MOL0     C32468   1.596   5.628   7.990  0.3004 -0.3877 -0.3278
  982MOL0     C32469   1.485   5.687   8.049  0.3978 -0.2584  0.2616
  982MOL0     C32470   1.369   5.618   8.058 -0.2273  0.4629  0.7743
  982MOL0     O32471   1.264   5.666   8.130  0.4117  0.3975  0.1105
  982MOL0     C32472   1.200   5.568   8.218  0.4016 -0.0272 -0.0018
  982MOL0     C32473   1.126   5.629   8.334  0.1250  0.2419 -1.3607
  982MOL0     C32474   1.196   5.731   8.415 -0.5413 -0.0241  0.5202
  982MOL0     C32475   1.111   5.794   8.529  0.4329 -0.2912 -0.6300
  982MOL0     C32476   1.183   5.915   8.588  0.4065  0.3790  0.1716
  982MOL0     C32477   1.325   5.878   8.647 -0.1811 -0.4262  0.3404
  982MOL0     C32478   1.380   5.988   8.739  1.0916 -0.5798  0.1558
  982MOL0     C32479   1.491   5.945   8.824 -0.3647 -0.6069  0.2285
  982MOL0    Cl32480   1.573   6.092   8.892  0.3816  0.5623 -0.1354
  982MOL0     C32481   1.360   5.494   7.988  0.3480 -0.2354  0.0518
  982MOL0     C32482   1.470   5.441   7.919  0.3538  0.4021  0.3425
  982MOL0     O32483   1.691   5.585   7.687 -0.3618  0.0306 -0.1944
  982MOL0     C32484   1.941   5.516   7.597 -0.0419  1.0070 -0.3845
  982MOL0     C32485   2.069   5.481   7.552  0.3020  0.6440 -0.1307
  982MOL0     N32486   2.283   5.547   6.981  0.0038  0.3165  0.6443
  982MOL0     N32487   2.171   5.596   6.953 -0.1271 -0.0599 -0.2255
  982MOL0     C32488   0.919   5.994   6.642 -0.1288 -0.2146 -0.0588
  982MOL0     C32489   0.817   6.056   6.581 -0.1904  0.1155  0.5763
  982MOL0     C32490   0.495   6.202   6.336 -0.1829 -0.4700  0.1037
  982MOL0     C32491   0.509   6.324   6.277 -0.5615  0.1483  0.1945
  982MOL0     C32492   0.399   6.397   6.237  0.1498  0.6805  0.4818
  982MOL0     C32493   0.265   6.347   6.253 -1.1821  0.4381 -0.0865
  982MOL0     O32494   0.175   6.431   6.206  1.0834  0.0272 -0.9321
  982MOL0     C32495   0.038   6.384   6.162 -0.2230 -1.0326  0.9871
  982MOL0     C32496   0.049   6.365   6.006  1.0378  1.3184 -0.0211
  982MOL0     C32497   0.104   6.222   5.961 -0.2845 -0.2427  0.0081
  982MOL0     C32498   0.080   6.197   5.815  0.0073 -0.7426 -0.2458
  982MOL0     C32499   0.125   6.296   5.723  0.7374 -0.5505  0.6272
  982MOL0     C32500   0.162   6.367   5.632 -0.6964  0.5340  0.8522
  982MOL0     C32501   0.248   6.215   6.296  0.4193 -0.0643  0.1734
  982MOL0     C32502   0.362   6.148   6.347  0.4023 -0.2143  0.6984
  982MOL0     H32503   0.981   6.202   6.326  1.1211  2.2467  1.4158
  982MOL0     H32504   1.167   6.089   6.431  0.5413 -1.7676  1.1299
  982MOL0     H32505   1.272   6.090   6.704  2.5938 -2.8005 -0.2144
  982MOL0     H32506   1.143   6.078   6.821  0.4915  0.2063  0.0239
  982MOL0     H32507   1.300   5.990   6.946 -0.3516  0.5544  0.0515
  982MOL0     H32508   1.237   5.838   6.873  0.5547 -0.0722 -1.2009
  982MOL0     H32509   1.423   5.834   6.707 -0.8147  1.0538 -0.3768
  982MOL0     H32510   1.482   5.993   6.766 -1.2378  0.8949  1.4927
  982MOL0     H32511   1.527   5.913   6.984 -0.5597 -2.8042  2.6222
  982MOL0     H32512   1.478   5.745   6.946 -0.6954 -0.9689 -2.5081
  982MOL0     H32513   1.677   5.701   6.827  1.2272 -0.3917  0.1940
  982MOL0     H32514   1.696   5.877   6.781 -1.1966  0.6922  0.5202
  982MOL0     H32515   1.798   5.916   7.008  0.2460  0.3793  1.5375
  982MOL0     H32516   1.730   5.760   7.062 -0.4329 -0.5773 -0.5995
  982MOL0     H32517   1.884   5.629   6.944 -1.9257  1.3374 -1.7381
  982MOL0     H32518   1.933   5.770   6.850  3.2311 -0.2914  0.6498
  982MOL0     H32519   1.987   5.742   7.165  0.7234 -1.8880  0.3048
  982MOL0     H32520   2.040   5.868   7.063  1.8544 -0.7375  2.5237
  982MOL0     H32521   2.284   5.789   7.194  1.6379 -0.5394  0.5058
  982MOL0     H32522   2.490   5.470   7.137 -0.2726 -0.0348 -0.0535
  982MOL0     H32523   2.563   5.630   7.144 -1.8962  2.8681 -1.6782
  982MOL0     H32524   2.394   5.674   7.350 -1.7904  0.5822 -2.5004
  982MOL0     H32525   2.546   5.586   7.352 -0.2282 -0.0413  0.7365
  982MOL0     H32526   2.399   5.366   7.319 -3.3939 -2.4360  0.5904
  982MOL0     H32527   2.260   5.480   7.344  1.0652  1.2267 -0.3390
  982MOL0     H32528   2.348   5.534   7.567  0.0660  1.9244 -2.6237
  982MOL0     H32529   2.469   5.406   7.552  0.0302  1.1477  0.7086
  982MOL0     H32530   2.156   5.255   7.783 -1.7140 -2.0143 -2.0833
  982MOL0     H32531   1.918   5.388   7.996  1.1087  0.8983 -1.1252
  982MOL0     H32532   1.861   5.241   7.917 -2.5477  2.9524  1.6545
  982MOL0     H32533   2.036   5.262   7.973  0.4646  1.8321  0.2621
  982MOL0     H32534   1.694   5.671   8.010 -0.6863  0.6160  3.0325
  982MOL0     H32535   1.491   5.778   8.108  0.8719 -0.6299  0.8103
  982MOL0     H32536   1.141   5.504   8.152  1.7709 -2.9153  1.3671
  982MOL0     H32537   1.277   5.499   8.255 -0.6175 -2.0448 -1.4615
  982MOL0     H32538   1.034   5.672   8.293  0.2612  1.3102 -0.5928
  982MOL0     H32539   1.093   5.549   8.400 -0.2490  0.4640 -1.2707
  982MOL0     H32540   1.225   5.808   8.343  0.3018 -1.4065 -0.6725
  982MOL0     H32541   1.290   5.689   8.452  0.7654 -0.6226 -3.0079
  982MOL0     H32542   1.013   5.830   8.496  1.1246  2.3963  0.0193
  982MOL0     H32543   1.101   5.725   8.614 -2.3868 -1.9260 -2.1349
  982MOL0     H32544   1.120   5.968   8.660  1.7879 -1.7366  3.1302
  982MOL0     H32545   1.207   5.985   8.507  2.8732 -1.5871 -0.9352
  982MOL0     H32546   1.311   5.792   8.715 -0.8881 -0.4762  0.1304
  982MOL0     H32547   1.395   5.860   8.565 -0.7881  0.2683 -0.3418
  982MOL0     H32548   1.301   6.023   8.806 -0.2957  1.2354 -2.2928
  982MOL0     H32549   1.420   6.074   8.685 -0.7626  1.0410  1.2445
  982MOL0     H32550   1.567   5.892   8.764 -0.5014 -1.1526  0.5316
  982MOL0     H32551   1.449   5.882   8.903 -0.9380  2.6614  2.7283
  982MOL0     H32552   1.261   5.450   7.979  0.5297 -1.2156  2.2509
  982MOL0     H32553   1.464   5.342   7.876 -3.5271  0.2419  0.9575
  982MOL0     H32554   1.873   5.573   7.534  0.9554  0.2548 -2.2441
  982MOL0     H32555   2.099   5.518   7.454  1.3436 -1.8344 -0.8394
  982MOL0     H32556   0.893   5.935   6.730 -5.3046 -1.4308 -2.0406
  982MOL0     H32557   0.716   6.042   6.620 -1.6648  0.9922 -2.5875
  982MOL0     H32558   0.608   6.368   6.268  0.0995 -0.9032  1.8408
  982MOL0     H32559   0.411   6.498   6.197  1.3146  0.5844  0.5558
  982MOL0     H32560  -0.007   6.304   6.220 -1.7014 -1.4568 -0.6554
  982MOL0     H32561  -0.027   6.471   6.172  2.1450  1.0689 -0.4673
  982MOL0     H32562   0.108   6.453   5.978  1.3374  1.5798  1.3461
  982MOL0     H32563  -0.047   6.388   5.959 -0.1318 -0.7406  1.2442
  982MOL0     H32564   0.060   6.143   6.023 -1.6976 -0.0454 -0.6926
  982MOL0     H32565   0.211   6.224   5.979 -0.7329  1.7509  3.1635
  982MOL0     H32566  -0.026   6.172   5.807 -0.2551  0.6634 -1.5791
  982MOL0     H32567   0.133   6.104   5.791  1.6876 -0.2216  1.1844
  982MOL0     H32568   0.189   6.431   5.550  0.0491 -2.0446 -1.0253
  982MOL0     H32569   0.156   6.158   6.287 -1.5726  3.0626 -1.0496
  982MOL0     H32570   0.340   6.047   6.382  0.8854 -0.9296 -0.9279
  983MOL0     O32571  11.307   7.287   1.330  0.6241  0.4645  0.6963
  983MOL0     C32572  11.277   7.238   1.222 -1.0862 -0.0920  0.2872
  983MOL0     O32573  11.165   7.248   1.154  0.5098  0.3042 -0.2224
  983MOL0     C32574  11.044   7.271   1.220 -0.3389 -0.9525 -0.6463
  983MOL0     C32575  11.019   7.247   1.361 -0.2670 -0.0411 -0.3967
  983MOL0     C32576  10.887   7.273   1.407 -1.0945 -0.3442 -0.0688
  983MOL0     C32577  10.785   7.325   1.323 -0.2108  0.3812 -0.3867
  983MOL0     O32578  10.657   7.353   1.363  0.2175 -0.2005  0.2054
  983MOL0     C32579  10.635   7.361   1.503 -0.2054 -0.4020 -0.9696
  983MOL0     C32580  10.649   7.508   1.535 -0.2777  0.3362 -0.6100
  983MOL0     C32581  10.640   7.555   1.682  0.0299 -0.4951 -0.2436
  983MOL0     C32582  10.627   7.713   1.698 -0.5659  0.5286 -0.2840
  983MOL0     C32583  10.665   7.746   1.849 -0.0863 -0.5706  0.0717
  983MOL0     C32584  10.713   7.892   1.868  0.4948 -0.3193 -0.4962
  983MOL0     C32585  10.781   7.930   2.002 -0.0165 -0.8965 -0.2624
  983MOL0     C32586  10.709   8.057   2.060 -0.8962 -1.1292 -0.0799
  983MOL0     N32587  10.570   8.041   2.085  0.2429  0.5015  0.3749
  983MOL0     C32588  10.524   8.073   2.206  0.0223  0.4151 -0.3637
  983MOL0     C32589  10.399   8.118   2.194 -0.1066 -0.4700 -0.6373
  983MOL0     C32590  10.309   8.184   2.281  0.8667 -1.3286 -0.8860
  983MOL0     C32591  10.156   8.194   2.261 -0.0773 -0.2953 -0.3296
  983MOL0     C32592  10.100   8.044   2.250  0.0085 -0.4572  0.0173
  983MOL0     C32593   9.946   8.035   2.270  0.3640 -0.1984  0.3415
  983MOL0     O32594   9.909   8.082   2.405  0.5910 -0.0339  0.3783
  983MOL0     C32595   9.788   8.148   2.397 -0.4938 -0.0629 -0.0247
  983MOL0     C32596   9.775   8.280   2.418 -0.4917  0.8618 -0.3177
  983MOL0     C32597   9.647   8.344   2.441  0.4692  0.2209 -0.1502
  983MOL0     C32598   9.653   8.496   2.459  0.4357 -0.6465  0.0265
  983MOL0     C32599   9.526   8.265   2.443 -0.4812  0.4989  0.9730
  983MOL0     C32600   9.387   8.313   2.480  0.7224 -0.7946  0.2988
  983MOL0     O32601   9.373   8.451   2.514 -0.5405  0.1212  0.4519
  983MOL0     C32602   9.253   8.493   2.565  0.0079  0.1821  0.4046
  983MOL0     C32603   9.244   8.519   2.699 -0.3989 -0.3272 -0.1015
  983MOL0     C32604   9.127   8.570   2.761  0.0890  0.1648  0.3847
  983MOL0     C32605   9.018   8.600   2.679  0.4635 -0.2417  0.2599
  983MOL0     O32606   8.901   8.647   2.738 -0.7993  0.3497 -0.4504
  983MOL0     C32607   8.796   8.709   2.660  0.4768  1.0075 -0.1224
  983MOL0     C32608   8.718   8.812   2.745 -0.6947  0.1011 -0.6750
  983MOL0     C32609   8.803   8.934   2.794 -1.0430  0.3514  0.2273
  983MOL0     C32610   8.735   9.021   2.909  1.3573  0.5435  0.6169
  983MOL0     C32611   8.812   9.153   2.922  0.9325 -0.4838  0.6276
  983MOL0     C32612   8.946   9.142   3.000  0.3504 -0.1772 -0.6817
  983MOL0     C32613   9.006   9.285   3.019  0.4820  0.1015 -0.6554
  983MOL0     C32614   9.019   9.373   2.884  0.6380 -0.0259  0.2596
  983MOL0    Cl32615   9.074   9.537   2.932 -0.0194 -0.1800  0.4697
  983MOL0     C32616   9.033   8.566   2.536 -0.1279 -0.5175 -0.7213
  983MOL0     C32617   9.151   8.523   2.482 -0.0012 -0.1000 -0.2050
  983MOL0     O32618   9.289   8.233   2.474 -0.4577  0.3761  0.8895
  983MOL0     C32619   9.544   8.125   2.416 -0.5275  0.0458 -0.0654
  983MOL0     C32620   9.672   8.070   2.390 -0.1704 -0.3093 -0.2432
  983MOL0     N32621  10.378   8.128   2.056 -0.0476 -0.5839 -0.1814
  983MOL0     N32622  10.486   8.096   1.991  0.0539 -1.2325 -0.2560
  983MOL0     C32623  10.809   7.341   1.195 -0.9728 -0.1528  0.1533
  983MOL0     C32624  10.935   7.295   1.138  0.4630  0.1248 -0.3041
  983MOL0     C32625  11.381   7.165   1.152 -0.4523 -0.1575 -0.3182
  983MOL0     C32626  11.352   7.098   1.032 -0.7748  0.0450  0.3338
  983MOL0     C32627  11.445   7.009   0.987 -0.4444  0.5859 -0.1603
  983MOL0     C32628  11.564   6.972   1.057  0.2628 -0.8492  0.9016
  983MOL0     O32629  11.626   6.865   0.993  0.0996 -0.2578  0.1867
  983MOL0     C32630  11.749   6.819   1.045 -0.4245  0.7467  0.1540
  983MOL0     C32631  11.835   6.738   0.955  0.3385 -1.0041  0.3753
  983MOL0     C32632  11.968   6.795   0.926 -0.6539  0.4956  0.2560
  983MOL0     C32633  12.047   6.729   0.808  0.1036  0.1883 -1.1586
  983MOL0     C32634  12.064   6.584   0.848  1.0939 -0.3347 -0.4092
  983MOL0     C32635  12.067   6.470   0.877 -0.9157 -0.3335 -0.7266
  983MOL0     C32636  11.605   7.048   1.170  0.2405 -0.1106  0.1488
  983MOL0     C32637  11.506   7.140   1.221 -0.6756  0.3337  0.2207
  983MOL0     H32638  11.099   7.228   1.431  0.6003  1.6107 -0.8658
  983MOL0     H32639  10.885   7.271   1.515  0.3065 -1.7967 -0.0388
  983MOL0     H32640  10.533   7.335   1.533  0.6317 -0.6658  1.9913
  983MOL0     H32641  10.696   7.288   1.557 -1.6696 -1.5432 -0.7829
  983MOL0     H32642  10.740   7.541   1.485 -0.3634 -0.6078 -1.4300
  983MOL0     H32643  10.566   7.556   1.482 -0.6341  1.5547  0.9559
  983MOL0     H32644  10.562   7.509   1.744  0.5425 -1.8105 -0.5633
  983MOL0     H32645  10.732   7.532   1.736 -0.7851 -0.3281  1.2772
  983MOL0     H32646  10.711   7.747   1.636  2.3149 -0.2917  2.8156
  983MOL0     H32647  10.531   7.759   1.675 -2.5269 -3.4029 -0.8037
  983MOL0     H32648  10.575   7.725   1.907  0.5221 -2.6282  0.3266
  983MOL0     H32649  10.740   7.675   1.885 -2.9763 -3.3066  1.1435
  983MOL0     H32650  10.776   7.926   1.785 -0.5485 -0.9106 -1.5668
  983MOL0     H32651  10.622   7.951   1.852  1.2841  1.1041  0.0182
  983MOL0     H32652  10.773   7.852   2.078  1.6138 -0.5452  0.3231
  983MOL0     H32653  10.890   7.938   2.008  0.1029 -2.7146  0.4901
  983MOL0     H32654  10.709   8.141   1.990 -0.9249 -0.4183  0.7490
  983MOL0     H32655  10.764   8.093   2.147  2.2647  1.0649 -2.7519
  983MOL0     H32656  10.573   8.052   2.301 -1.6981 -1.2039  0.2183
  983MOL0     H32657  10.335   8.145   2.380 -0.5751 -1.4985 -0.5596
  983MOL0     H32658  10.331   8.291   2.295  0.9187 -1.5607  1.1305
  983MOL0     H32659  10.119   8.237   2.167 -1.8798 -0.9930  0.0136
  983MOL0     H32660  10.120   8.251   2.347  1.6541  0.6804 -0.1956
  983MOL0     H32661  10.136   7.987   2.336 -0.6267 -1.5632 -0.4350
  983MOL0     H32662  10.144   7.991   2.165 -0.4585 -0.9454  0.0733
  983MOL0     H32663   9.917   7.933   2.247  0.7685  0.1125 -1.7656
  983MOL0     H32664   9.895   8.096   2.195  1.0277  0.6646  0.5670
  983MOL0     H32665   9.872   8.323   2.439 -1.2284  1.7280  1.5410
  983MOL0     H32666   9.561   8.549   2.431  1.0520  1.8463  2.2769
  983MOL0     H32667   9.683   8.513   2.562  3.4313 -0.4840 -0.7821
  983MOL0     H32668   9.729   8.547   2.399 -0.3693  1.0090  0.3417
  983MOL0     H32669   9.328   8.502   2.766  0.7922  1.5175 -1.0431
  983MOL0     H32670   9.124   8.585   2.868 -0.8505  4.1131 -0.0238
  983MOL0     H32671   8.849   8.760   2.579 -2.1631  0.0277 -2.6300
  983MOL0     H32672   8.734   8.644   2.598  1.2679  0.8848 -0.8146
  983MOL0     H32673   8.634   8.849   2.686 -0.8813 -0.6415 -0.8801
  983MOL0     H32674   8.690   8.750   2.831  1.1817 -2.6985 -1.9473
  983MOL0     H32675   8.815   8.996   2.705 -0.0193 -1.9313 -1.3104
  983MOL0     H32676   8.900   8.897   2.828 -0.3256  0.5216 -1.5130
  983MOL0     H32677   8.632   9.041   2.877  1.4675 -0.5312 -0.4344
  983MOL0     H32678   8.728   8.958   2.998 -1.2254 -0.9739 -0.5468
  983MOL0     H32679   8.747   9.218   2.981  0.1007  1.3315 -2.1522
  983MOL0     H32680   8.818   9.204   2.826  0.0052  0.7263  1.1842
  983MOL0     H32681   8.933   9.089   3.095  0.5459  2.0130  0.6250
  983MOL0     H32682   9.014   9.074   2.947  2.7118  0.9203  0.7914
  983MOL0     H32683   9.106   9.267   3.060  0.1565 -0.5140 -0.1005
  983MOL0     H32684   8.941   9.327   3.097 -1.0624 -3.0838 -0.0453
  983MOL0     H32685   8.923   9.383   2.831 -0.0986  1.4089  1.7949
  983MOL0     H32686   9.097   9.326   2.823  0.3314  1.1945 -1.1097
  983MOL0     H32687   8.944   8.573   2.473 -1.1621 -1.8244  0.5290
  983MOL0     H32688   9.156   8.505   2.375  0.3530  2.2122 -0.6368
  983MOL0     H32689   9.463   8.054   2.407  0.1140 -0.5506 -1.4269
  983MOL0     H32690   9.686   7.965   2.366  0.5577  0.0197 -1.3607
  983MOL0     H32691  10.726   7.379   1.136 -1.8596  0.3441  1.6787
  983MOL0     H32692  10.954   7.311   1.032 -0.9472  0.5671 -0.5053
  983MOL0     H32693  11.253   7.107   0.988 -1.0384 -2.6416  0.1734
  983MOL0     H32694  11.422   6.956   0.895 -0.8364 -1.1574  0.8943
  983MOL0     H32695  11.812   6.895   1.093 -1.5979  0.4891  2.1934
  983MOL0     H32696  11.730   6.746   1.125 -0.3084  0.8355  0.2631
  983MOL0     H32697  11.787   6.731   0.857  0.9934  0.0528 -0.0352
  983MOL0     H32698  11.841   6.635   0.992 -1.3497 -3.5139 -5.3067
  983MOL0     H32699  12.026   6.791   1.018 -0.8908 -4.5475  0.4296
  983MOL0     H32700  11.958   6.900   0.898 -1.5377  0.3766  0.0842
  983MOL0     H32701  12.144   6.780   0.805 -2.0786  5.0853  0.7584
  983MOL0     H32702  11.987   6.745   0.718  0.7455 -2.6947 -2.1936
  983MOL0     H32703  12.063   6.366   0.902  0.9059 -0.4133 -0.6126
  983MOL0     H32704  11.696   7.037   1.229 -0.3643 -0.1741  1.0885
  983MOL0     H32705  11.528   7.187   1.316  1.1030  1.6082 -0.7660
  984MOL0     O32706   9.968   3.530   1.693  0.1203 -0.2717 -0.5584
  984MOL0     C32707  10.057   3.605   1.754  0.7330  0.0098  0.3384
  984MOL0     O32708  10.051   3.742   1.747 -0.4265 -0.3862 -0.0007
  984MOL0     C32709   9.956   3.801   1.673  0.9499 -0.5171 -0.1915
  984MOL0     C32710   9.825   3.781   1.705  0.5436  0.0520  0.7241
  984MOL0     C32711   9.731   3.841   1.627 -0.3964 -0.5871 -0.4290
  984MOL0     C32712   9.768   3.937   1.524  0.1552 -0.6790  0.3773
  984MOL0     O32713   9.671   3.990   1.441  0.3890  0.5621 -0.6623
  984MOL0     C32714   9.570   4.071   1.499  0.1698 -0.4727  0.2787
  984MOL0     C32715   9.470   4.117   1.391  0.9027  0.4661 -0.4473
  984MOL0     C32716   9.343   4.188   1.447 -0.4347  0.2823  0.1153
  984MOL0     C32717   9.262   4.252   1.336 -0.2487 -0.4700 -0.3143
  984MOL0     C32718   9.144   4.157   1.303 -0.6469  0.6525  0.2443
  984MOL0     C32719   9.087   4.177   1.165 -0.0539  0.1491 -0.2443
  984MOL0     C32720   8.954   4.096   1.142 -0.2548 -0.5340 -0.1345
  984MOL0     C32721   8.960   3.946   1.200  0.9333  0.0191  0.5347
  984MOL0     N32722   8.841   3.876   1.197 -0.0698  0.6341  0.6170
  984MOL0     C32723   8.785   3.805   1.088  0.2138 -0.0478  0.3723
  984MOL0     C32724   8.674   3.745   1.137  0.2343  0.1524 -0.0042
  984MOL0     C32725   8.587   3.659   1.053  0.2916  0.0211 -0.2947
  984MOL0     C32726   8.439   3.728   1.050  0.5072 -0.0103 -0.5748
  984MOL0     C32727   8.427   3.802   0.915  0.0292  0.2251 -0.4663
  984MOL0     C32728   8.305   3.897   0.938  0.2789  0.1876  0.1964
  984MOL0     O32729   8.194   3.808   0.901  0.0892 -0.7768 -1.0199
  984MOL0     C32730   8.089   3.791   0.986 -0.3640 -0.1777 -0.2488
  984MOL0     C32731   8.038   3.889   1.073  0.1401 -0.7599  0.4019
  984MOL0     C32732   7.921   3.877   1.147 -0.3353 -1.0406  0.6769
  984MOL0     C32733   7.874   4.003   1.226  0.3457  0.1125  0.4493
  984MOL0     C32734   7.864   3.753   1.140  0.3603 -0.3707  0.2214
  984MOL0     C32735   7.735   3.726   1.215  0.0969 -0.7815  0.4658
  984MOL0     O32736   7.656   3.826   1.258  0.0157  0.4514 -0.1007
  984MOL0     C32737   7.560   3.796   1.351  0.0161 -0.5814 -0.5952
  984MOL0     C32738   7.588   3.814   1.481  0.4347  1.0800 -0.6786
  984MOL0     C32739   7.492   3.777   1.581  0.3543 -0.3135 -0.1705
  984MOL0     C32740   7.377   3.707   1.538 -0.1491  0.8647 -0.2259
  984MOL0     O32741   7.290   3.675   1.636 -0.0482 -0.1003  0.2910
  984MOL0     C32742   7.194   3.779   1.664 -0.9114  0.2873  0.0675
  984MOL0     C32743   7.065   3.731   1.608  0.0892 -0.0299 -0.1333
  984MOL0     C32744   6.972   3.648   1.700  0.9615 -0.2884  0.3367
  984MOL0     C32745   6.839   3.617   1.628  0.0221  0.0808  0.5235
  984MOL0     C32746   6.726   3.715   1.639  0.0421 -0.2842 -0.4005
  984MOL0     C32747   6.675   3.729   1.781 -0.6191  1.3823 -0.8223
  984MOL0     C32748   6.534   3.765   1.782 -0.1843  0.1726 -0.4948
  984MOL0     C32749   6.477   3.796   1.915 -0.5703  0.3624  0.2584
  984MOL0    Cl32750   6.511   3.673   2.029  0.4250 -0.5711  0.6722
  984MOL0     C32751   7.344   3.686   1.407  0.3323  0.2085  0.8263
  984MOL0     C32752   7.436   3.731   1.314 -1.0945 -0.2131 -0.1387
  984MOL0     O32753   7.727   3.608   1.250  0.1020 -0.1281 -0.0908
  984MOL0     C32754   7.920   3.648   1.057  0.2567  1.0843 -0.1685
  984MOL0     C32755   8.034   3.668   0.982 -0.1501 -0.9381  0.4405
  984MOL0     N32756   8.660   3.777   1.273 -0.7475  0.3476 -0.0506
  984MOL0     N32757   8.769   3.850   1.310  0.3412  0.5405  0.4054
  984MOL0     C32758   9.900   3.954   1.490  0.2436 -0.4951 -0.1891
  984MOL0     C32759   9.993   3.884   1.567  0.4167  0.7510 -0.3059
  984MOL0     C32760  10.153   3.545   1.853 -0.1076 -0.9230  1.3055
  984MOL0     C32761  10.141   3.418   1.901  0.3125  0.1791  0.0250
  984MOL0     C32762  10.229   3.367   1.994 -0.0606 -0.5957  0.7463
  984MOL0     C32763  10.344   3.432   2.031 -0.4265  0.8989  0.3871
  984MOL0     O32764  10.431   3.365   2.117 -0.3511 -0.1170  0.0667
  984MOL0     C32765  10.553   3.423   2.156 -0.3473 -0.2800 -0.0551
  984MOL0     C32766  10.658   3.310   2.199  0.1139  0.5516  0.0317
  984MOL0     C32767  10.597   3.203   2.299 -0.7072 -0.2909  0.4637
  984MOL0     C32768  10.697   3.118   2.369  0.2057 -0.7448 -0.8315
  984MOL0     C32769  10.779   3.040   2.280  0.0666  1.0889  0.0962
  984MOL0     C32770  10.860   2.963   2.237 -0.1586 -0.3413 -0.0456
  984MOL0     C32771  10.358   3.558   1.977 -0.7009  0.0788  0.2326
  984MOL0     C32772  10.264   3.628   1.898 -0.0221  1.2001 -0.4603
  984MOL0     H32773   9.802   3.712   1.785  0.9913  0.0062  0.8141
  984MOL0     H32774   9.630   3.814   1.654 -0.7056  0.5510 -0.3863
  984MOL0     H32775   9.515   4.014   1.574 -3.7110  0.5352 -1.5330
  984MOL0     H32776   9.616   4.158   1.546  1.8661 -1.7320  1.0187
  984MOL0     H32777   9.519   4.178   1.314 -1.8604  1.9379 -1.1501
  984MOL0     H32778   9.447   4.022   1.341  1.6172 -0.4227  0.8451
  984MOL0     H32779   9.281   4.125   1.512  0.0213 -0.0467  0.2395
  984MOL0     H32780   9.385   4.268   1.509 -0.2882  0.9483 -0.8263
  984MOL0     H32781   9.211   4.343   1.366 -1.3841 -1.7644  1.9426
  984MOL0     H32782   9.327   4.270   1.250  2.5861 -3.4869  0.9541
  984MOL0     H32783   9.183   4.054   1.304  0.7545  1.1545  0.3657
  984MOL0     H32784   9.061   4.162   1.374 -1.3796 -0.4486 -0.5147
  984MOL0     H32785   9.082   4.286   1.158  1.9951  0.3655  0.8671
  984MOL0     H32786   9.168   4.130   1.108  0.9355 -2.0669  2.7509
  984MOL0     H32787   8.874   4.148   1.196  0.8391 -0.2621  1.2819
  984MOL0     H32788   8.916   4.093   1.039 -0.0345 -1.6594 -0.1954
  984MOL0     H32789   8.985   3.957   1.306 -0.1119  2.6977  0.5827
  984MOL0     H32790   9.036   3.889   1.145  3.2472  2.2098  1.2317
  984MOL0     H32791   8.815   3.804   0.984 -1.2297  0.8790 -0.0975
  984MOL0     H32792   8.626   3.628   0.956  0.5324  2.4325 -1.0516
  984MOL0     H32793   8.561   3.570   1.111 -0.1385 -0.9447 -1.9208
  984MOL0     H32794   8.433   3.792   1.138  1.3058  0.4123 -0.8157
  984MOL0     H32795   8.363   3.651   1.064 -0.9302  1.1296 -1.7739
  984MOL0     H32796   8.403   3.733   0.833 -2.5328 -0.3191  0.6387
  984MOL0     H32797   8.516   3.864   0.903 -1.1834  3.0826  3.3653
  984MOL0     H32798   8.310   3.992   0.883 -1.6096 -0.3587 -1.0028
  984MOL0     H32799   8.299   3.922   1.044 -2.4229  0.6867 -0.0154
  984MOL0     H32800   8.097   3.981   1.074  0.6191 -1.0385  2.6381
  984MOL0     H32801   7.937   4.092   1.235  1.9894 -1.1751  4.4799
  984MOL0     H32802   7.772   4.031   1.200 -0.8041 -2.5055  1.7221
  984MOL0     H32803   7.864   3.966   1.329 -0.0326 -3.1991 -0.6774
  984MOL0     H32804   7.682   3.861   1.512  0.5472  1.0958 -1.0450
  984MOL0     H32805   7.500   3.817   1.681  0.9505 -1.1260  0.1134
  984MOL0     H32806   7.172   3.786   1.771  1.0031 -0.6653  0.5817
  984MOL0     H32807   7.229   3.876   1.628  4.3652 -1.0084  0.8062
  984MOL0     H32808   7.011   3.822   1.578 -0.5112 -0.9383 -1.9685
  984MOL0     H32809   7.079   3.680   1.512  1.2270  0.5510 -0.2973
  984MOL0     H32810   6.949   3.702   1.792 -0.2130 -0.2328  0.0154
  984MOL0     H32811   7.023   3.555   1.728 -0.2505 -1.8196 -2.1057
  984MOL0     H32812   6.858   3.615   1.520 -0.3040  1.2280  0.4353
  984MOL0     H32813   6.798   3.519   1.654  0.6611 -0.6982 -1.1823
  984MOL0     H32814   6.642   3.678   1.581 -0.8143 -1.6835  1.6002
  984MOL0     H32815   6.761   3.810   1.598  0.6619 -0.8954 -1.3213
  984MOL0     H32816   6.683   3.628   1.824  1.3980  1.9824  0.3642
  984MOL0     H32817   6.746   3.779   1.848  1.8677 -2.8193  0.0959
  984MOL0     H32818   6.478   3.677   1.749  0.5919 -1.0952  1.3900
  984MOL0     H32819   6.529   3.855   1.720  1.7083  1.8024  1.5296
  984MOL0     H32820   6.369   3.809   1.903 -0.6120 -1.5361 -2.4279
  984MOL0     H32821   6.521   3.888   1.954  1.6290  0.2119 -1.7032
  984MOL0     H32822   7.255   3.628   1.384 -0.1864  0.5664  1.8629
  984MOL0     H32823   7.417   3.720   1.208 -3.4532 -1.8261  0.3732
  984MOL0     H32824   7.859   3.559   1.050  1.2309  0.4429 -0.6519
  984MOL0     H32825   8.070   3.602   0.904  0.0040 -2.8327  2.0363
  984MOL0     H32826   9.925   4.024   1.410 -1.0031 -0.5753 -0.6706
  984MOL0     H32827  10.101   3.887   1.560  0.5788 -1.1040  0.6589
  984MOL0     H32828  10.061   3.350   1.874 -2.8214  3.1483  1.2218
  984MOL0     H32829  10.225   3.262   2.021  2.7463 -0.9446  0.1427
  984MOL0     H32830  10.593   3.485   2.075 -1.2266  0.8522  0.3444
  984MOL0     H32831  10.528   3.488   2.240 -0.3685 -1.1341  0.6112
  984MOL0     H32832  10.728   3.373   2.255  0.2260  0.7474 -0.3237
  984MOL0     H32833  10.716   3.265   2.117 -1.3788  0.5416 -1.0582
  984MOL0     H32834  10.524   3.138   2.251 -0.7741  2.1938 -3.1980
  984MOL0     H32835  10.553   3.263   2.379  2.5157  1.9559  0.7170
  984MOL0     H32836  10.650   3.045   2.435  0.7371 -0.6450 -0.3371
  984MOL0     H32837  10.765   3.189   2.417  0.2879 -0.7549 -0.9345
  984MOL0     H32838  10.923   2.887   2.196  2.0155  1.5068 -0.3694
  984MOL0     H32839  10.434   3.626   2.015 -0.3221 -0.8452  1.1667
  984MOL0     H32840  10.272   3.734   1.878  0.2365  0.8351 -2.5462
  985MOL0     O32841   1.481   0.295   7.099 -0.3190 -0.8816 -0.2013
  985MOL0     C32842   1.504   0.176   7.119 -0.2393  0.3127 -0.6343
  985MOL0     O32843   1.550   0.081   7.028 -0.0858  0.2983  0.1566
  985MOL0     C32844   1.545   0.098   6.888  0.0150  1.0205  0.1690
  985MOL0     C32845   1.489  -0.003   6.809 -0.5338  0.1190  0.4665
  985MOL0     C32846   1.472   0.023   6.674  0.4891  0.3015  0.2881
  985MOL0     C32847   1.524   0.131   6.604 -0.7189  0.5445  0.1255
  985MOL0     O32848   1.476   0.148   6.478 -0.0352  0.3938  0.2145
  985MOL0     C32849   1.572   0.216   6.402  0.7971 -0.5540  0.9807
  985MOL0     C32850   1.547   0.371   6.389 -0.0976 -0.4404  0.7741
  985MOL0     C32851   1.427   0.390   6.296  0.1065  0.7648 -0.2068
  985MOL0     C32852   1.407   0.538   6.266 -0.1129 -0.2619  0.3135
  985MOL0     C32853   1.285   0.552   6.162 -0.9169  0.6017  0.5477
  985MOL0     C32854   1.159   0.602   6.232 -0.2181  0.6177 -0.1541
  985MOL0     C32855   1.175   0.751   6.269 -0.6705  0.3822  0.2783
  985MOL0     C32856   1.061   0.790   6.370 -0.1486  0.5220 -0.0864
  985MOL0     N32857   0.931   0.782   6.303  0.2925 -0.2890  0.4531
  985MOL0     C32858   0.852   0.895   6.274 -0.3403 -0.9126 -0.0878
  985MOL0     C32859   0.723   0.856   6.271  0.0675  0.2155  0.0451
  985MOL0     C32860   0.602   0.927   6.245  0.1371  0.5765 -0.0171
  985MOL0     C32861   0.496   0.862   6.152  1.2724  0.2465  0.6955
  985MOL0     C32862   0.378   0.963   6.112  0.1247  0.9998  0.1569
  985MOL0     C32863   0.275   0.885   6.034  1.4009  0.0729  0.1066
  985MOL0     O32864   0.165   0.972   6.031  0.3511 -0.1535  0.7917
  985MOL0     C32865   0.033   0.923   6.004  0.0441  0.4321  0.0428
  985MOL0     C32866   0.002   0.787   5.992  0.2378  0.3494  0.2864
  985MOL0     C32867  -0.127   0.742   5.952 -0.1987 -0.3828  0.2964
  985MOL0     C32868  -0.142   0.597   5.950  0.5024  0.5614  0.6964
  985MOL0     C32869  -0.233   0.840   5.929  0.1295 -0.8102  0.7203
  985MOL0     C32870  -0.380   0.811   5.918 -0.5737 -0.2198 -0.2422
  985MOL0     O32871  -0.452   0.904   5.855  0.1236 -0.3814  0.4846
  985MOL0     C32872  -0.584   0.904   5.832 -0.7678  0.6746 -0.4022
  985MOL0     C32873  -0.674   0.982   5.906  0.6469  0.1958  0.1213
  985MOL0     C32874  -0.808   0.989   5.869 -0.2122  0.7436 -0.4255
  985MOL0     C32875  -0.865   0.898   5.770  0.4074  0.4631 -0.2923
  985MOL0     O32876  -0.995   0.883   5.736  0.7400  0.6312 -0.1329
  985MOL0     C32877  -1.098   0.972   5.775  0.4984  0.7301 -0.2557
  985MOL0     C32878  -1.094   1.090   5.690 -0.2236 -0.3346  0.1260
  985MOL0     C32879  -1.190   1.201   5.721  1.2481 -0.5158 -0.5621
  985MOL0     C32880  -1.150   1.288   5.840  0.0444  0.8214 -0.3437
  985MOL0     C32881  -1.246   1.405   5.852  0.6421 -0.2118  0.0396
  985MOL0     C32882  -1.219   1.486   5.977  0.9326  0.3051 -0.3447
  985MOL0     C32883  -1.332   1.583   6.013 -0.4063 -0.2286  0.1915
  985MOL0     C32884  -1.294   1.723   6.067 -0.1246 -0.5085  0.1632
  985MOL0    Cl32885  -1.208   1.822   5.939  0.0834 -0.2325  0.3640
  985MOL0     C32886  -0.775   0.823   5.696 -0.0793  0.1771  0.2344
  985MOL0     C32887  -0.635   0.831   5.721 -0.2636  0.0726 -0.9369
  985MOL0     O32888  -0.426   0.712   5.982  0.0363 -1.2578  0.2236
  985MOL0     C32889  -0.199   0.979   5.964  0.7201  0.0764  0.0165
  985MOL0     C32890  -0.066   1.020   5.993  0.6064  0.4197 -0.2454
  985MOL0     N32891   0.726   0.714   6.288 -0.8716  0.3792  0.7051
  985MOL0     N32892   0.850   0.674   6.297 -0.1856 -0.3609  0.3465
  985MOL0     C32893   1.604   0.229   6.686  0.0304  0.5488 -0.2479
  985MOL0     C32894   1.605   0.209   6.829  1.2794  0.6407 -0.4742
  985MOL0     C32895   1.521   0.122   7.256  0.5792  0.2180  0.6138
  985MOL0     C32896   1.481   0.196   7.371  0.4871  0.2594 -0.4635
  985MOL0     C32897   1.471   0.142   7.493 -0.1617 -0.1645 -0.4574
  985MOL0     C32898   1.525   0.013   7.513  1.2362 -0.1978  0.3559
  985MOL0     O32899   1.519  -0.017   7.644  0.5435 -0.8434  0.0950
  985MOL0     C32900   1.618  -0.101   7.693  0.4167 -0.4282 -0.1351
  985MOL0     C32901   1.594  -0.147   7.833  0.4166 -0.1078 -0.1064
  985MOL0     C32902   1.458  -0.222   7.857  0.4436  0.3262  0.3125
  985MOL0     C32903   1.452  -0.273   7.994 -0.4547  0.4481  0.6385
  985MOL0     C32904   1.419  -0.162   8.086 -0.3389  0.8353 -0.9906
  985MOL0     C32905   1.404  -0.070   8.164 -0.1753 -0.1042  1.3570
  985MOL0     C32906   1.571  -0.067   7.406  0.6006 -0.6088  0.6208
  985MOL0     C32907   1.566  -0.011   7.274 -0.6245  0.4710 -0.5375
  985MOL0     H32908   1.441  -0.091   6.853  0.5206  0.1275  1.6987
  985MOL0     H32909   1.395  -0.039   6.629 -0.0846  0.4572  1.0419
  985MOL0     H32910   1.671   0.195   6.442  0.4320 -1.0516  1.6510
  985MOL0     H32911   1.581   0.173   6.302 -1.0929  0.5502  0.2675
  985MOL0     H32912   1.521   0.402   6.491 -0.6384  0.6641  0.3188
  985MOL0     H32913   1.637   0.425   6.358  0.4536 -1.8070 -0.1043
  985MOL0     H32914   1.450   0.338   6.203  0.9448 -0.6695  0.7811
  985MOL0     H32915   1.339   0.351   6.349 -0.2443 -2.8850 -3.1384
  985MOL0     H32916   1.391   0.599   6.356  0.1987 -2.2958  1.8324
  985MOL0     H32917   1.496   0.587   6.227  0.3422 -1.8981 -0.8016
  985MOL0     H32918   1.323   0.619   6.084  1.3699  0.3644  1.3837
  985MOL0     H32919   1.265   0.458   6.110 -2.1387  0.9122  0.4241
  985MOL0     H32920   1.072   0.581   6.168  0.7239 -2.3981 -0.5876
  985MOL0     H32921   1.152   0.551   6.328  0.6082  2.3981  0.9015
  985MOL0     H32922   1.271   0.774   6.316 -0.0544  1.4772 -1.4261
  985MOL0     H32923   1.165   0.815   6.181  1.1624  0.3394 -0.0088
  985MOL0     H32924   1.089   0.885   6.416 -1.8366  1.2923 -0.5783
  985MOL0     H32925   1.063   0.718   6.453 -0.7275 -0.3358 -0.7985
  985MOL0     H32926   0.894   0.992   6.249 -0.3642 -0.0826  2.7397
  985MOL0     H32927   0.566   0.958   6.343  2.9166  1.3322  0.8399
  985MOL0     H32928   0.634   1.019   6.196  1.9019 -0.0632 -0.1269
  985MOL0     H32929   0.462   0.773   6.206 -0.4006  1.3874  1.5996
  985MOL0     H32930   0.548   0.828   6.062 -1.8903 -0.7518 -0.8950
  985MOL0     H32931   0.421   1.046   6.055 -3.0815  1.1017 -2.4325
  985MOL0     H32932   0.331   0.996   6.206  0.1335  1.0569  0.1418
  985MOL0     H32933   0.236   0.792   6.077 -1.9654  0.9646 -0.7947
  985MOL0     H32934   0.308   0.844   5.938  3.0907  1.4942  0.0301
  985MOL0     H32935   0.082   0.714   5.993 -1.8282 -2.0284  0.8816
  985MOL0     H32936  -0.226   0.560   6.010 -1.5155  1.9807 -1.1279
  985MOL0     H32937  -0.163   0.576   5.845 -1.4247  2.6082  0.6152
  985MOL0     H32938  -0.045   0.547   5.962 -0.5654 -1.8323 -0.0517
  985MOL0     H32939  -0.656   1.029   6.002  1.9610 -2.9762  1.5772
  985MOL0     H32940  -0.871   1.063   5.919 -0.8772  1.2812 -1.9701
  985MOL0     H32941  -1.190   0.915   5.764  1.6599 -1.4248  0.7030
  985MOL0     H32942  -1.078   0.995   5.880 -1.1870 -1.0014  0.4949
  985MOL0     H32943  -1.000   1.143   5.707 -1.4346  1.6265  1.1422
  985MOL0     H32944  -1.111   1.047   5.591  1.4186 -0.5426 -0.0800
  985MOL0     H32945  -1.289   1.159   5.742  1.1168  0.6961  1.4345
  985MOL0     H32946  -1.205   1.267   5.635 -0.8354  3.0078  2.2032
  985MOL0     H32947  -1.152   1.227   5.931 -1.1467  1.9324  0.4046
  985MOL0     H32948  -1.045   1.315   5.823  1.0776 -2.4635  0.1880
  985MOL0     H32949  -1.343   1.355   5.858  0.8495 -0.8216 -1.3146
  985MOL0     H32950  -1.255   1.458   5.757  2.7367 -1.2026 -0.7950
  985MOL0     H32951  -1.203   1.415   6.058  1.5656 -0.6058 -1.2390
  985MOL0     H32952  -1.130   1.547   5.963 -0.1104  1.8934 -0.3719
  985MOL0     H32953  -1.382   1.524   6.091 -0.2307 -0.3035  0.2472
  985MOL0     H32954  -1.399   1.588   5.927  0.6172  0.0802 -0.5981
  985MOL0     H32955  -1.230   1.699   6.153  1.6584 -1.2572 -1.3159
  985MOL0     H32956  -1.383   1.775   6.103  0.6048  0.3058  0.8529
  985MOL0     H32957  -0.807   0.764   5.611  0.8287  1.3383 -0.9594
  985MOL0     H32958  -0.569   0.769   5.662 -1.1318 -0.2704 -1.5698
  985MOL0     H32959  -0.285   1.045   5.971  0.9394  0.2188  1.6287
  985MOL0     H32960  -0.043   1.119   6.031 -0.1330  0.6915 -0.4866
  985MOL0     H32961   1.645   0.321   6.644  1.3428  0.6857  1.2344
  985MOL0     H32962   1.649   0.283   6.895  2.4662 -0.1162 -0.3633
  985MOL0     H32963   1.442   0.296   7.356 -0.1575  0.1616  0.5048
  985MOL0     H32964   1.424   0.194   7.576 -0.3088 -1.2403  0.1567
  985MOL0     H32965   1.626  -0.195   7.637  1.1531  0.2084 -1.1285
  985MOL0     H32966   1.708  -0.040   7.685 -1.5872  3.0297  1.3635
  985MOL0     H32967   1.596  -0.059   7.898 -0.1987 -0.6103  0.6085
  985MOL0     H32968   1.676  -0.215   7.857  0.8189 -1.1211 -3.6885
  985MOL0     H32969   1.457  -0.302   7.782  4.0841  0.4960 -0.1094
  985MOL0     H32970   1.376  -0.154   7.832  1.4873  0.4471 -3.4965
  985MOL0     H32971   1.545  -0.322   8.023  0.7855  2.7288  0.7026
  985MOL0     H32972   1.371  -0.346   8.005  0.6695 -0.8073  0.7342
  985MOL0     H32973   1.389   0.011   8.234  1.5759  1.1797  0.3441
  985MOL0     H32974   1.603  -0.169   7.427  1.2911 -0.4314  0.4443
  985MOL0     H32975   1.586  -0.085   7.197 -1.8799 -0.2129 -0.2372
  986MOL0     O32976   3.693   7.228   5.827 -0.0544  0.3008 -0.4631
  986MOL0     C32977   3.654   7.225   5.942  0.1649  0.6347 -0.8607
  986MOL0     O32978   3.735   7.258   6.043 -0.0110 -0.1709  0.0400
  986MOL0     C32979   3.832   7.358   6.028 -0.5504 -0.4383  0.9927
  986MOL0     C32980   3.822   7.472   5.947 -0.5550  0.0278  0.2280
  986MOL0     C32981   3.922   7.575   5.942  0.5056  0.6645  0.4124
  986MOL0     C32982   4.046   7.548   6.013 -0.0623  0.3044 -0.1264
  986MOL0     O32983   4.155   7.627   6.030  1.1994  0.0976 -0.0502
  986MOL0     C32984   4.133   7.757   5.972  0.1479 -0.4265  0.1503
  986MOL0     C32985   4.263   7.841   6.008  0.0581  0.0181 -0.4486
  986MOL0     C32986   4.387   7.810   5.920  0.0540 -0.3398  0.4198
  986MOL0     C32987   4.501   7.922   5.929  0.7383  0.6033 -0.1578
  986MOL0     C32988   4.636   7.895   5.868 -0.5157  1.4903 -1.1025
  986MOL0     C32989   4.747   8.002   5.878 -0.0989  0.4996  0.4471
  986MOL0     C32990   4.811   7.997   6.021 -0.0702 -0.3168  0.4891
  986MOL0     C32991   4.860   8.139   6.043  0.9542 -0.7241 -0.9906
  986MOL0     N32992   4.742   8.231   6.054  0.0350  0.0903 -0.3267
  986MOL0     C32993   4.624   8.224   6.130 -0.6660 -0.3901 -0.2877
  986MOL0     C32994   4.566   8.343   6.117 -0.3668  0.2051  0.3728
  986MOL0     C32995   4.441   8.379   6.182 -0.8520  0.4062 -0.5325
  986MOL0     C32996   4.334   8.274   6.148 -0.0227  0.4712  0.1022
  986MOL0     C32997   4.201   8.303   6.214 -0.3758 -0.3878 -0.0720
  986MOL0     C32998   4.081   8.239   6.138 -0.5521  0.8018  0.5168
  986MOL0     O32999   3.959   8.256   6.208 -0.3793  0.1502 -0.2828
  986MOL0     C33000   3.850   8.185   6.161  0.4405 -0.3359 -0.3829
  986MOL0     C33001   3.738   8.180   6.242  0.0652  0.4750 -0.9422
  986MOL0     C33002   3.628   8.100   6.215  0.2080 -0.8993 -0.0922
  986MOL0     C33003   3.505   8.095   6.305 -0.5445 -0.1511 -0.3031
  986MOL0     C33004   3.626   8.016   6.101  0.1212  1.2795  0.5725
  986MOL0     C33005   3.507   7.937   6.056 -0.0758 -0.9277  0.5853
  986MOL0     O33006   3.529   7.832   5.969 -0.0160  0.3836  0.2509
  986MOL0     C33007   3.421   7.747   5.934 -0.0568 -0.8770  0.1416
  986MOL0     C33008   3.338   7.789   5.825  0.1534 -0.1229 -1.2404
  986MOL0     C33009   3.228   7.712   5.786  0.4211  0.2041  0.3350
  986MOL0     C33010   3.204   7.595   5.863 -0.5019 -0.0870  0.5921
  986MOL0     O33011   3.089   7.522   5.815  0.0102 -0.2612 -0.4995
  986MOL0     C33012   3.100   7.378   5.840 -0.4491 -0.0752  0.5817
  986MOL0     C33013   3.004   7.291   5.757 -0.5140  0.8320 -0.6603
  986MOL0     C33014   2.868   7.326   5.807 -0.0769 -0.4072 -0.0627
  986MOL0     C33015   2.765   7.246   5.730 -0.2780  0.4746 -0.9611
  986MOL0     C33016   2.623   7.270   5.799  1.5944  0.4243  0.6526
  986MOL0     C33017   2.521   7.175   5.734 -0.2830 -0.4300 -1.1150
  986MOL0     C33018   2.497   7.199   5.586  0.6784 -0.8782 -0.5854
  986MOL0     C33019   2.426   7.087   5.516  0.1663  1.1486  0.4868
  986MOL0    Cl33020   2.250   7.100   5.543  0.0038  0.0969 -0.1541
  986MOL0     C33021   3.295   7.554   5.964  0.1615  0.8025 -0.3933
  986MOL0     C33022   3.413   7.625   5.996  0.0494 -0.1490  0.3958
  986MOL0     O33023   3.397   7.985   6.079 -0.0024 -1.0577 -0.0404
  986MOL0     C33024   3.738   8.029   6.014 -0.3903  0.1573  0.0933
  986MOL0     C33025   3.848   8.104   6.048 -0.8512 -0.2735 -0.3645
  986MOL0     N33026   4.633   8.418   6.016  0.0423 -0.3354 -0.3156
  986MOL0     N33027   4.735   8.345   5.983 -0.3352 -0.0253 -0.1253
  986MOL0     C33028   4.050   7.441   6.095 -0.1940 -0.0008 -0.9966
  986MOL0     C33029   3.946   7.343   6.101 -0.5108 -0.5833  0.2433
  986MOL0     C33030   3.509   7.191   5.960  0.5067 -0.1018  0.2835
  986MOL0     C33031   3.434   7.142   5.848 -0.3133 -0.2324 -0.9291
  986MOL0     C33032   3.302   7.106   5.870  0.5274  0.2746 -0.3139
  986MOL0     C33033   3.237   7.118   5.996 -0.5321  0.9096  0.4508
  986MOL0     O33034   3.104   7.085   6.009 -0.5187  0.5156  0.1211
  986MOL0     C33035   3.077   7.021   6.137  0.5414  0.1655 -0.2412
  986MOL0     C33036   2.961   6.917   6.101 -0.3198  0.7546  0.4608
  986MOL0     C33037   2.841   6.993   6.052  0.5001 -0.0424 -0.5083
  986MOL0     C33038   2.716   6.952   6.126 -0.2488 -0.4437 -0.2832
  986MOL0     C33039   2.597   7.026   6.098  0.0486  0.8568 -0.0362
  986MOL0     C33040   2.487   7.082   6.075  0.0119 -0.0823 -1.0292
  986MOL0     C33041   3.319   7.173   6.097 -0.0954 -0.0111 -0.0971
  986MOL0     C33042   3.448   7.214   6.083  1.1175  1.1261 -0.4865
  986MOL0     H33043   3.728   7.482   5.894  0.4575  4.2281 -1.1870
  986MOL0     H33044   3.899   7.669   5.893  2.1256  1.2597  0.7244
  986MOL0     H33045   4.108   7.763   5.866  2.4957 -0.5794 -0.4668
  986MOL0     H33046   4.051   7.806   6.026  0.0353  1.5388 -1.6705
  986MOL0     H33047   4.234   7.944   5.988  0.7879  0.3072 -0.0656
  986MOL0     H33048   4.281   7.830   6.116  1.2652 -0.3123 -0.6696
  986MOL0     H33049   4.429   7.712   5.947  1.8172 -0.7428 -3.1925
  986MOL0     H33050   4.355   7.797   5.816  0.4257  4.5830 -0.5670
  986MOL0     H33051   4.464   8.016   5.887 -1.7629  0.1712  0.9196
  986MOL0     H33052   4.518   7.923   6.037  0.3630 -0.9966 -0.0597
  986MOL0     H33053   4.667   7.796   5.901 -0.9697  0.9393 -2.2701
  986MOL0     H33054   4.612   7.878   5.763 -0.0932  0.1363 -0.9985
  986MOL0     H33055   4.828   7.985   5.806  0.2248 -0.9639  1.1183
  986MOL0     H33056   4.703   8.098   5.849  3.6895  1.2594 -4.2176
  986MOL0     H33057   4.736   7.970   6.096  0.3463  2.2049  1.9192
  986MOL0     H33058   4.899   7.932   6.033 -1.2025 -1.5988  2.5446
  986MOL0     H33059   4.930   8.156   5.961  2.1796 -2.3301 -0.3298
  986MOL0     H33060   4.910   8.128   6.139 -1.2683  0.1081  0.3288
  986MOL0     H33061   4.591   8.141   6.191 -0.7755 -0.1041  0.0432
  986MOL0     H33062   4.458   8.379   6.290  0.6172  1.7524 -0.7276
  986MOL0     H33063   4.403   8.479   6.160  1.1974  1.3731  0.0577
  986MOL0     H33064   4.375   8.178   6.181 -0.3433  0.3435  0.1266
  986MOL0     H33065   4.318   8.266   6.040 -1.3561 -0.8119  0.3663
  986MOL0     H33066   4.185   8.411   6.219  1.2674 -0.1268 -0.0211
  986MOL0     H33067   4.209   8.261   6.315  2.1722 -2.1367 -0.9004
  986MOL0     H33068   4.107   8.133   6.132  0.1715  1.0356 -1.3880
  986MOL0     H33069   4.073   8.281   6.037 -0.9238 -0.5999 -0.0620
  986MOL0     H33070   3.745   8.233   6.336  0.4044 -1.1690 -0.0083
  986MOL0     H33071   3.524   8.142   6.402 -3.4267 -0.1966  0.4015
  986MOL0     H33072   3.430   8.171   6.277 -1.2576  0.9385  3.7792
  986MOL0     H33073   3.480   7.989   6.312 -0.1138 -0.4210 -2.4645
  986MOL0     H33074   3.354   7.889   5.786  1.2394  0.3499  0.3588
  986MOL0     H33075   3.156   7.734   5.708  1.0729  0.9580 -0.0710
  986MOL0     H33076   3.203   7.351   5.812 -0.7968  0.0759 -0.8823
  986MOL0     H33077   3.069   7.361   5.944 -1.5030 -0.3872  0.2189
  986MOL0     H33078   3.021   7.319   5.653  0.7586  4.0950  0.2804
  986MOL0     H33079   3.021   7.184   5.771  0.4537  1.3365  3.1535
  986MOL0     H33080   2.841   7.431   5.800  1.2101 -0.1488 -1.8585
  986MOL0     H33081   2.862   7.285   5.908 -2.0340 -5.3151 -1.8565
  986MOL0     H33082   2.759   7.279   5.626 -0.6784  0.6242 -0.8915
  986MOL0     H33083   2.788   7.139   5.728 -3.7278 -0.3948 -0.1038
  986MOL0     H33084   2.580   7.367   5.770  0.0704 -0.0933  1.0742
  986MOL0     H33085   2.630   7.253   5.907  0.2289  1.7235  0.9820
  986MOL0     H33086   2.555   7.072   5.750  2.0685  0.5350  0.5018
  986MOL0     H33087   2.422   7.179   5.782 -0.0948  1.8236 -0.8028
  986MOL0     H33088   2.590   7.225   5.534  0.0633  2.4533 -0.2383
  986MOL0     H33089   2.428   7.283   5.580 -1.6210 -2.3976  2.2014
  986MOL0     H33090   2.459   6.986   5.540  1.1177  1.1330 -0.8034
  986MOL0     H33091   2.445   7.105   5.410 -1.4202  1.0893  0.1633
  986MOL0     H33092   3.286   7.457   6.012  1.3901 -0.1841 -1.9860
  986MOL0     H33093   3.497   7.599   6.061  0.7548 -0.4348 -0.6184
  986MOL0     H33094   3.749   7.965   5.927  1.0805  0.3814  0.0876
  986MOL0     H33095   3.937   8.104   5.985 -1.6985  1.0561 -1.6560
  986MOL0     H33096   4.144   7.412   6.141  1.3844  2.6723 -2.3140
  986MOL0     H33097   3.963   7.248   6.149 -0.2630 -1.0908 -0.8077
  986MOL0     H33098   3.478   7.144   5.749  1.6410  1.8461 -0.1110
  986MOL0     H33099   3.248   7.083   5.779  1.5961  1.9402 -1.4125
  986MOL0     H33100   3.164   6.981   6.191 -0.4000 -1.3382  0.2247
  986MOL0     H33101   3.024   7.093   6.198  0.3560 -0.7567  0.7071
  986MOL0     H33102   2.933   6.862   6.191  3.3286 -0.0330  1.3085
  986MOL0     H33103   2.988   6.840   6.027 -2.8422  0.5668 -0.3636
  986MOL0     H33104   2.826   6.977   5.944  0.4470 -0.8707 -0.3869
  986MOL0     H33105   2.842   7.100   6.073 -0.4679 -0.2050  0.4550
  986MOL0     H33106   2.740   6.974   6.231 -0.0041  1.5086 -0.6949
  986MOL0     H33107   2.690   6.847   6.114 -0.1609 -0.1880 -3.3670
  986MOL0     H33108   2.393   7.124   6.047  0.1821  0.4859 -0.7703
  986MOL0     H33109   3.294   7.178   6.203 -0.7319  0.8985 -0.2717
  986MOL0     H33110   3.504   7.242   6.172  1.4388 -0.6282 -0.0879
  987MOL0     O33111   1.384   1.419   0.765 -0.3934  0.3946  0.1458
  987MOL0     C33112   1.374   1.497   0.666  0.3395  0.3907  0.4606
  987MOL0     O33113   1.426   1.625   0.657  0.1568  0.2276  0.2089
  987MOL0     C33114   1.500   1.659   0.772 -0.7547  1.0457 -0.0096
  987MOL0     C33115   1.615   1.590   0.814 -0.5197 -0.4645  0.3611
  987MOL0     C33116   1.690   1.633   0.927 -0.2559 -0.2640 -0.5452
  987MOL0     C33117   1.631   1.725   1.013 -0.2969  0.0837 -0.2509
  987MOL0     O33118   1.703   1.762   1.121  0.4790 -0.3704 -0.2299
  987MOL0     C33119   1.659   1.702   1.246  0.5770 -0.2692 -0.2861
  987MOL0     C33120   1.728   1.579   1.280  0.0648  0.0322  0.2567
  987MOL0     C33121   1.887   1.598   1.293 -0.7184  0.9418  0.2505
  987MOL0     C33122   1.964   1.622   1.152 -0.8494  0.7919 -0.2460
  987MOL0     C33123   2.121   1.612   1.159  0.0999 -0.6692 -0.4717
  987MOL0     C33124   2.178   1.702   1.271  0.4365 -0.0051  0.2269
  987MOL0     C33125   2.330   1.712   1.252 -0.4383 -0.5095  0.6499
  987MOL0     C33126   2.401   1.597   1.316 -0.9754 -0.7021  0.1696
  987MOL0     N33127   2.541   1.620   1.340 -0.7806  0.0768  0.3469
  987MOL0     C33128   2.602   1.581   1.459 -0.4940  0.1522  0.8572
  987MOL0     C33129   2.731   1.602   1.441 -0.0593  0.3215 -0.8521
  987MOL0     C33130   2.828   1.594   1.548 -0.3915 -0.0008  0.7310
  987MOL0     C33131   2.899   1.735   1.553  0.8127 -0.1184 -0.1822
  987MOL0     C33132   3.029   1.744   1.473  1.1201  0.2362  0.3386
  987MOL0     C33133   3.097   1.876   1.516 -0.3285 -0.5029 -0.3195
  987MOL0     O33134   3.211   1.901   1.424 -0.2053  0.0617 -0.9168
  987MOL0     C33135   3.333   1.867   1.474  0.0877 -0.1110 -0.2920
  987MOL0     C33136   3.371   1.940   1.585  0.1688  0.3393 -1.4669
  987MOL0     C33137   3.497   1.922   1.648  0.2253 -0.7808 -0.3004
  987MOL0     C33138   3.529   2.019   1.759  0.3252 -0.2794 -1.4071
  987MOL0     C33139   3.590   1.826   1.591  0.0101  0.5767  0.0811
  987MOL0     C33140   3.724   1.800   1.645  0.3415 -0.1773 -0.0036
  987MOL0     O33141   3.773   1.895   1.720  0.2366  0.9340  0.1455
  987MOL0     C33142   3.899   1.893   1.769 -0.6008  0.4804 -0.2824
  987MOL0     C33143   3.941   2.004   1.841  0.3677  0.2631  1.1726
  987MOL0     C33144   4.064   2.024   1.897 -0.5432  0.0857  0.3223
  987MOL0     C33145   4.169   1.933   1.878  0.3671  0.0290  1.0038
  987MOL0     O33146   4.297   1.948   1.938 -0.1204 -0.2231 -0.2880
  987MOL0     C33147   4.409   1.871   1.891  0.5571 -0.0533  0.2537
  987MOL0     C33148   4.530   1.920   1.964 -0.5608  0.2638 -0.1593
  987MOL0     C33149   4.659   1.854   1.902  0.1555 -0.2046  0.8039
  987MOL0     C33150   4.782   1.884   1.978  0.5145  0.5572  0.1478
  987MOL0     C33151   4.787   1.797   2.108 -0.0518  0.8826 -0.6096
  987MOL0     C33152   4.932   1.790   2.156  0.3327  0.3013  0.0705
  987MOL0     C33153   4.931   1.735   2.296 -0.2914  0.0983 -0.6145
  987MOL0     C33154   5.063   1.721   2.373 -0.4931  0.2305  0.5426
  987MOL0    Cl33155   5.045   1.663   2.538 -0.0612 -0.0558  0.0114
  987MOL0     C33156   4.128   1.819   1.805 -0.3341  0.6377 -1.2747
  987MOL0     C33157   4.003   1.797   1.748  0.5282 -0.6631 -0.0488
  987MOL0     O33158   3.780   1.695   1.612 -0.0513 -0.9210  0.1504
  987MOL0     C33159   3.545   1.747   1.491 -0.4433  0.0338  0.1190
  987MOL0     C33160   3.422   1.775   1.420 -0.0430 -0.8356  0.2836
  987MOL0     N33161   2.754   1.660   1.322 -0.6232 -0.1575 -0.4624
  987MOL0     N33162   2.643   1.669   1.255  0.5934 -0.1224 -0.2187
  987MOL0     C33163   1.514   1.787   0.977  0.1519 -0.2177 -1.0549
  987MOL0     C33164   1.446   1.755   0.858  0.2493 -0.4148  0.5239
  987MOL0     C33165   1.292   1.453   0.547 -0.4487  0.4298 -0.0149
  987MOL0     C33166   1.244   1.327   0.549 -0.1660 -0.3026  0.3821
  987MOL0     C33167   1.168   1.289   0.443  0.1275  0.6094 -0.4178
  987MOL0     C33168   1.148   1.370   0.339 -1.0040  0.5713  0.7271
  987MOL0     O33169   1.076   1.317   0.226 -0.1286 -0.3715 -0.0634
  987MOL0     C33170   0.940   1.365   0.223  0.6603 -0.0297  1.0847
  987MOL0     C33171   0.925   1.479   0.120 -0.2669  0.3988  0.5108
  987MOL0     C33172   0.951   1.420  -0.022 -0.1201  0.3495 -0.4214
  987MOL0     C33173   0.966   1.526  -0.135  0.2320  0.2817 -0.2221
  987MOL0     C33174   0.859   1.634  -0.143 -0.2608  0.0222 -0.4130
  987MOL0     C33175   0.773   1.724  -0.149  0.8291 -0.0401  0.1577
  987MOL0     C33176   1.196   1.498   0.331  0.6459  0.7312  0.0850
  987MOL0     C33177   1.273   1.542   0.439  0.2605  0.5776 -0.0050
  987MOL0     H33178   1.653   1.505   0.759  0.0535  0.2274 -0.3318
  987MOL0     H33179   1.795   1.611   0.944 -0.0569  1.5838  0.9002
  987MOL0     H33180   1.678   1.778   1.322  0.2895  0.9239 -1.3588
  987MOL0     H33181   1.552   1.683   1.245  0.6722 -0.8621 -1.3203
  987MOL0     H33182   1.683   1.536   1.370  1.2001  2.8813  2.3135
  987MOL0     H33183   1.709   1.505   1.202 -4.0118  2.4072 -1.2985
  987MOL0     H33184   1.916   1.681   1.358  2.3213 -0.7638  1.3046
  987MOL0     H33185   1.935   1.513   1.342  0.2146 -0.0316 -2.2053
  987MOL0     H33186   1.931   1.545   1.081  1.9717  1.1259 -2.0536
  987MOL0     H33187   1.932   1.717   1.106  2.2509  0.9086 -2.4629
  987MOL0     H33188   2.152   1.508   1.172 -0.9341 -1.0262 -0.8106
  987MOL0     H33189   2.168   1.647   1.067  3.8602 -1.2587  1.0439
  987MOL0     H33190   2.145   1.806   1.257  4.3494  1.3588 -0.1702
  987MOL0     H33191   2.157   1.673   1.374 -0.2718 -1.6620 -0.3499
  987MOL0     H33192   2.353   1.713   1.145  2.3506  1.4941  1.1430
  987MOL0     H33193   2.358   1.805   1.303 -5.0563 -0.0580  2.9492
  987MOL0     H33194   2.383   1.503   1.264 -0.5595 -2.2616  2.6474
  987MOL0     H33195   2.352   1.589   1.414  2.4439  0.2777  2.1319
  987MOL0     H33196   2.573   1.531   1.552  1.2157  1.8717  2.4123
  987MOL0     H33197   2.788   1.563   1.645 -1.1826  1.4661  0.9033
  987MOL0     H33198   2.899   1.515   1.522 -0.7937 -0.2793  0.4737
  987MOL0     H33199   2.917   1.752   1.659 -0.9658 -1.6980  0.4323
  987MOL0     H33200   2.829   1.816   1.528  2.4944  1.7804  0.9750
  987MOL0     H33201   3.017   1.743   1.365  0.7378 -0.6737  0.3833
  987MOL0     H33202   3.086   1.663   1.519 -1.1976 -0.5462  2.0271
  987MOL0     H33203   3.124   1.875   1.622 -3.3184 -0.9204  0.5426
  987MOL0     H33204   3.030   1.959   1.491  0.6218 -0.8671 -4.9105
  987MOL0     H33205   3.300   2.009   1.630  0.2393 -0.7790  0.4651
  987MOL0     H33206   3.576   2.113   1.727  0.3947  0.4781  0.7355
  987MOL0     H33207   3.438   2.042   1.814  2.3921  0.3378  2.1111
  987MOL0     H33208   3.585   1.971   1.840 -1.2002  1.0942  0.5388
  987MOL0     H33209   3.860   2.074   1.860 -0.5687 -0.2041 -0.8932
  987MOL0     H33210   4.083   2.112   1.958  0.1294  0.3679 -0.2651
  987MOL0     H33211   4.390   1.766   1.916  1.7010 -0.8041 -1.7742
  987MOL0     H33212   4.431   1.886   1.785 -1.7174  1.3680 -0.0947
  987MOL0     H33213   4.542   2.028   1.956 -1.3234  0.5381  1.8608
  987MOL0     H33214   4.524   1.894   2.070  2.0721 -0.3368 -0.0854
  987MOL0     H33215   4.683   1.898   1.805  1.4026 -2.3218  0.0771
  987MOL0     H33216   4.646   1.745   1.897 -1.2811 -0.0149  0.0646
  987MOL0     H33217   4.870   1.865   1.916  0.3279  1.3957 -0.3857
  987MOL0     H33218   4.786   1.989   2.012 -2.1458  0.1190  2.1446
  987MOL0     H33219   4.758   1.693   2.090  0.0166  0.5528  0.9975
  987MOL0     H33220   4.721   1.834   2.187 -0.3901 -2.0209  0.6175
  987MOL0     H33221   4.987   1.718   2.094 -0.2166 -0.6646  0.6924
  987MOL0     H33222   4.981   1.887   2.144 -1.0480  1.2087  1.4520
  987MOL0     H33223   4.889   1.634   2.296 -0.2133  0.0663 -0.5245
  987MOL0     H33224   4.864   1.808   2.341 -1.8169 -1.1106 -0.8374
  987MOL0     H33225   5.116   1.817   2.371 -1.4082  0.7724  1.2339
  987MOL0     H33226   5.123   1.645   2.322  1.3228  1.5816  0.5791
  987MOL0     H33227   4.210   1.749   1.788 -1.6219 -0.6013 -2.7082
  987MOL0     H33228   3.990   1.702   1.697  2.2234 -2.9040  3.3629
  987MOL0     H33229   3.606   1.670   1.444 -2.4627 -0.6466 -1.5490
  987MOL0     H33230   3.392   1.732   1.325 -2.3784  0.4755  0.3672
  987MOL0     H33231   1.470   1.862   1.042  0.2653  1.0585 -2.3991
  987MOL0     H33232   1.358   1.810   0.830  3.3099  3.2267 -3.2220
  987MOL0     H33233   1.255   1.259   0.633 -1.6183 -0.6878  0.2978
  987MOL0     H33234   1.132   1.187   0.437 -3.1648  1.7416 -5.1336
  987MOL0     H33235   0.863   1.289   0.209 -1.2131  1.5603  2.2436
  987MOL0     H33236   0.914   1.414   0.317  1.8677  1.3148  0.7653
  987MOL0     H33237   0.991   1.560   0.156 -0.1457  0.1526  0.8531
  987MOL0     H33238   0.826   1.524   0.121 -0.0485  1.1826  4.2349
  987MOL0     H33239   0.866   1.355  -0.043 -2.4416  3.3166 -0.7946
  987MOL0     H33240   1.048   1.368  -0.024 -0.2568  0.0602  0.1213
  987MOL0     H33241   0.978   1.478  -0.233 -0.0529 -0.8845  0.2961
  987MOL0     H33242   1.063   1.573  -0.114  1.3945 -1.7507 -0.7875
  987MOL0     H33243   0.702   1.802  -0.173  1.3067 -0.1041 -1.5819
  987MOL0     H33244   1.164   1.568   0.254 -0.7539 -0.6551 -0.6580
  987MOL0     H33245   1.322   1.638   0.432  0.8714  0.2267 -0.6095
  988MOL0     O33246  10.980   4.564   4.375  0.5695  0.3338  0.3631
  988MOL0     C33247  10.948   4.639   4.284 -0.2495  0.1907 -0.6014
  988MOL0     O33248  10.872   4.748   4.298  0.1794  0.1738  0.2777
  988MOL0     C33249  10.814   4.777   4.419  0.5022 -0.4205  0.9084
  988MOL0     C33250  10.890   4.787   4.543  0.3741 -0.1290  0.1543
  988MOL0     C33251  10.831   4.818   4.670  0.7430  1.2590 -0.0966
  988MOL0     C33252  10.699   4.861   4.679  0.9416 -0.8905 -0.5818
  988MOL0     O33253  10.639   4.888   4.800 -0.3682  0.5577 -0.3130
  988MOL0     C33254  10.540   4.994   4.812  0.4042 -0.0504 -0.3650
  988MOL0     C33255  10.528   5.025   4.962 -0.6165  0.9027  0.5738
  988MOL0     C33256  10.437   5.134   4.996  1.1972 -0.0337  0.6227
  988MOL0     C33257  10.303   5.072   4.994 -0.2803 -0.6266 -1.0754
  988MOL0     C33258  10.193   5.172   5.009  1.0060  0.5761  0.4738
  988MOL0     C33259  10.209   5.275   5.117 -0.3060 -0.5275  0.0925
  988MOL0     C33260  10.080   5.358   5.151  0.5325  0.2922 -0.1507
  988MOL0     C33261  10.091   5.433   5.281 -0.4760 -0.2729 -0.0956
  988MOL0     N33262   9.964   5.512   5.300 -0.4397  0.6218  0.5260
  988MOL0     C33263   9.865   5.476   5.386 -0.8134  0.3328 -0.0960
  988MOL0     C33264   9.761   5.552   5.361 -0.5414  0.2338  0.1199
  988MOL0     C33265   9.627   5.557   5.437  0.0058  0.3199  0.1247
  988MOL0     C33266   9.534   5.677   5.422 -0.9870  0.0553 -0.1044
  988MOL0     C33267   9.502   5.717   5.275 -0.2527  0.8237 -0.5960
  988MOL0     C33268   9.378   5.808   5.274  0.7370 -0.2506  0.2205
  988MOL0     O33269   9.408   5.922   5.351  0.3781 -0.6237 -0.6851
  988MOL0     C33270   9.321   5.970   5.441  0.2000 -0.3516 -0.3415
  988MOL0     C33271   9.373   6.090   5.489  0.4104 -0.0689 -0.2915
  988MOL0     C33272   9.301   6.167   5.584 -0.8544  0.1080 -0.5128
  988MOL0     C33273   9.373   6.289   5.641  0.5576 -0.9583  0.2772
  988MOL0     C33274   9.170   6.128   5.622 -0.0082  0.0499 -0.4551
  988MOL0     C33275   9.078   6.198   5.719 -0.2496  0.2056 -0.0736
  988MOL0     O33276   9.117   6.265   5.826 -0.0777 -0.7302  0.0481
  988MOL0     C33277   9.035   6.319   5.920 -0.9597  0.0181 -0.3705
  988MOL0     C33278   9.110   6.407   6.005 -0.1451  0.2745 -0.1453
  988MOL0     C33279   9.042   6.477   6.112 -1.0311  0.2888  0.2312
  988MOL0     C33280   8.909   6.443   6.140  0.7898  0.0400 -0.0809
  988MOL0     O33281   8.860   6.505   6.251  0.1348  0.4754 -0.1324
  988MOL0     C33282   8.727   6.481   6.292 -0.1454  0.4345 -0.6463
  988MOL0     C33283   8.627   6.579   6.229 -0.0659  0.1452  0.2767
  988MOL0     C33284   8.656   6.734   6.253  0.1459  0.1980  0.1850
  988MOL0     C33285   8.604   6.774   6.387 -0.3606 -0.2188  0.9239
  988MOL0     C33286   8.592   6.932   6.406 -0.2084  0.3153  0.0396
  988MOL0     C33287   8.721   7.012   6.418 -0.2192  0.2637  0.1478
  988MOL0     C33288   8.812   6.985   6.536  0.4503  0.1333  0.2595
  988MOL0     C33289   8.962   7.028   6.499 -0.2026  0.8179  0.0940
  988MOL0    Cl33290   9.036   6.918   6.373 -0.2197  0.0966  0.4361
  988MOL0     C33291   8.839   6.361   6.054 -0.2630  0.6275 -0.0299
  988MOL0     C33292   8.900   6.298   5.944  0.5924 -0.6600  0.1324
  988MOL0     O33293   8.967   6.195   5.686  0.4086 -0.1377 -0.3285
  988MOL0     C33294   9.117   6.012   5.563 -0.4542  0.6084  0.5957
  988MOL0     C33295   9.195   5.930   5.477 -0.6758 -1.2370  0.1166
  988MOL0     N33296   9.799   5.641   5.258  0.0489 -0.2081 -0.0003
  988MOL0     N33297   9.924   5.616   5.226  0.2671 -0.0277 -0.6053
  988MOL0     C33298  10.624   4.858   4.556 -0.5536  0.5718 -0.2496
  988MOL0     C33299  10.675   4.815   4.433 -0.3129  0.1369 -0.7092
  988MOL0     C33300  11.021   4.617   4.155 -0.2544 -0.0897  1.2489
  988MOL0     C33301  11.054   4.731   4.076  0.4202  0.1667  0.0082
  988MOL0     C33302  11.142   4.717   3.966  0.3988 -0.4429 -0.0470
  988MOL0     C33303  11.168   4.591   3.914  0.9112  0.8011 -0.8049
  988MOL0     O33304  11.236   4.565   3.794  0.0492 -0.2894 -0.2325
  988MOL0     C33305  11.272   4.666   3.696  0.5369 -0.0211  0.3361
  988MOL0     C33306  11.150   4.713   3.623 -0.2910 -0.7794  0.2384
  988MOL0     C33307  11.184   4.836   3.524 -0.2527  0.0546  0.7366
  988MOL0     C33308  11.200   4.971   3.590 -0.4478 -0.2332  0.8084
  988MOL0     C33309  11.177   5.077   3.487  0.3848  0.1738  0.7424
  988MOL0     C33310  11.155   5.157   3.405  0.7426  0.1190  0.4352
  988MOL0     C33311  11.121   4.481   3.989 -1.9434  0.8931 -0.0479
  988MOL0     C33312  11.070   4.503   4.110 -0.7292  0.3213 -0.2283
  988MOL0     H33313  10.995   4.763   4.536  0.5430  0.6491 -0.1086
  988MOL0     H33314  10.893   4.819   4.759 -0.9544  3.1773  1.1695
  988MOL0     H33315  10.563   5.084   4.754  1.2289 -0.3630 -0.5370
  988MOL0     H33316  10.440   4.964   4.780  0.5260  0.3994 -1.1964
  988MOL0     H33317  10.505   4.933   5.018  0.6682  1.0422  1.3760
  988MOL0     H33318  10.627   5.050   5.001 -1.2872  1.4395  2.0106
  988MOL0     H33319  10.461   5.171   5.096 -4.5191  0.0675  2.3262
  988MOL0     H33320  10.443   5.225   4.935 -2.4178 -1.2995 -1.9871
  988MOL0     H33321  10.290   5.010   4.905 -0.1935 -1.5361 -0.4744
  988MOL0     H33322  10.299   4.997   5.075  1.8852 -3.6234 -3.5257
  988MOL0     H33323  10.190   5.230   4.916 -0.4569 -1.3165 -0.7421
  988MOL0     H33324  10.095   5.123   5.021  0.6850  1.0848 -0.0193
  988MOL0     H33325  10.253   5.219   5.200  3.5693 -2.2547 -2.7777
  988MOL0     H33326  10.291   5.338   5.082  1.1632 -1.8799  0.9390
  988MOL0     H33327  10.063   5.427   5.068 -1.3723 -1.1564 -1.0440
  988MOL0     H33328  10.001   5.283   5.160 -0.3876  1.4459  2.2177
  988MOL0     H33329  10.177   5.501   5.284 -0.7169  0.0038  0.5789
  988MOL0     H33330  10.098   5.369   5.369 -0.8564  0.1877  0.2721
  988MOL0     H33331   9.872   5.397   5.461  0.8832  0.4071 -0.1502
  988MOL0     H33332   9.570   5.470   5.405 -2.1977  1.7410  0.0358
  988MOL0     H33333   9.649   5.561   5.545 -1.0064  0.9559  0.3145
  988MOL0     H33334   9.582   5.766   5.465  2.3981 -1.1268 -1.1236
  988MOL0     H33335   9.440   5.666   5.478 -0.3578  1.6338  1.3730
  988MOL0     H33336   9.484   5.626   5.217  0.4785  1.1262 -1.3150
  988MOL0     H33337   9.586   5.771   5.230  0.7282 -1.3602 -1.5205
  988MOL0     H33338   9.289   5.767   5.322 -0.0402  1.7352  0.5911
  988MOL0     H33339   9.353   5.839   5.172  0.4039  1.0464  0.6792
  988MOL0     H33340   9.469   6.123   5.452 -1.0614  2.8489 -1.8828
  988MOL0     H33341   9.452   6.251   5.707  1.8626 -1.2587 -1.3895
  988MOL0     H33342   9.414   6.353   5.563 -1.5035 -0.5496 -0.5428
  988MOL0     H33343   9.299   6.345   5.700 -1.3849 -1.0838 -1.9010
  988MOL0     H33344   9.215   6.425   5.984 -0.3013  0.8361 -0.4550
  988MOL0     H33345   9.089   6.556   6.170 -0.2567 -0.6490  0.9098
  988MOL0     H33346   8.698   6.375   6.294 -1.4572  0.7879  1.6125
  988MOL0     H33347   8.724   6.505   6.398 -1.2099  1.5446 -0.9097
  988MOL0     H33348   8.628   6.572   6.119 -0.7593  2.4802  0.0805
  988MOL0     H33349   8.530   6.538   6.259  0.1508 -0.2311  0.4656
  988MOL0     H33350   8.602   6.788   6.174  1.0765 -1.6031 -1.7709
  988MOL0     H33351   8.763   6.757   6.241  0.0447 -0.4058 -2.3676
  988MOL0     H33352   8.502   6.735   6.398 -0.9703 -0.1650 -3.0085
  988MOL0     H33353   8.661   6.726   6.467  0.2009  0.3136  0.8523
  988MOL0     H33354   8.543   6.950   6.502 -0.8571  3.7761 -0.7840
  988MOL0     H33355   8.533   6.977   6.325 -3.1459  0.1544  1.9561
  988MOL0     H33356   8.780   6.981   6.331  1.2622  1.3785  0.7143
  988MOL0     H33357   8.704   7.119   6.408  2.3753  0.6302 -1.4571
  988MOL0     H33358   8.818   6.879   6.561  3.0042  0.3712  0.9590
  988MOL0     H33359   8.771   7.040   6.621  3.4219  1.2834  1.1061
  988MOL0     H33360   9.019   7.035   6.592 -0.7938 -0.3064  0.5579
  988MOL0     H33361   8.967   7.125   6.449  2.4318  0.9638  0.5428
  988MOL0     H33362   8.741   6.328   6.086 -0.5789  0.2477 -1.3258
  988MOL0     H33363   8.845   6.225   5.886 -0.1450  0.3895 -0.5008
  988MOL0     H33364   9.017   5.975   5.585 -2.4315  4.9884  0.0532
  988MOL0     H33365   9.158   5.833   5.446  1.8604 -1.6961 -1.7395
  988MOL0     H33366  10.517   4.879   4.560 -0.2536  2.8246 -2.0020
  988MOL0     H33367  10.606   4.817   4.350  0.4448  2.6306 -1.3469
  988MOL0     H33368  11.028   4.830   4.113  0.2879  0.8515 -1.7879
  988MOL0     H33369  11.180   4.808   3.921 -3.5024  0.8860 -1.0659
  988MOL0     H33370  11.326   4.751   3.737  3.0158 -2.1785  1.8222
  988MOL0     H33371  11.343   4.621   3.626  0.1382  0.6497 -0.5271
  988MOL0     H33372  11.083   4.748   3.702 -1.8451 -0.7582 -1.0133
  988MOL0     H33373  11.102   4.631   3.569 -0.6731 -0.1878 -0.3393
  988MOL0     H33374  11.108   4.841   3.446 -0.0656  1.2026  0.6003
  988MOL0     H33375  11.286   4.809   3.497  0.1212  0.1554  1.9742
  988MOL0     H33376  11.295   4.993   3.640  0.6287 -1.8448 -0.4405
  988MOL0     H33377  11.123   4.974   3.668 -2.7520  1.1447 -1.3584
  988MOL0     H33378  11.126   5.238   3.342 -2.6968 -0.2736  1.3086
  988MOL0     H33379  11.158   4.380   3.974 -3.0317  0.1253  2.0017
  988MOL0     H33380  11.082   4.428   4.187 -0.0070  1.6228  0.9610
  989MOL0     O33381   0.251   5.650   9.823 -0.3768 -0.1031 -0.1586
  989MOL0     C33382   0.249   5.769   9.801 -0.8926 -0.0084  0.1224
  989MOL0     O33383   0.147   5.834   9.754 -0.2395 -0.5008  0.2077
  989MOL0     C33384   0.030   5.761   9.725 -0.2319 -0.0047  0.1361
  989MOL0     C33385   0.035   5.643   9.641  0.0898 -0.4126 -0.5733
  989MOL0     C33386  -0.082   5.575   9.607 -0.1729 -0.1121  0.7998
  989MOL0     C33387  -0.207   5.613   9.657 -0.6284  0.5635  0.9114
  989MOL0     O33388  -0.318   5.543   9.623 -0.3887 -0.4206 -0.4857
  989MOL0     C33389  -0.436   5.571   9.698 -0.5719 -0.2957  0.4037
  989MOL0     C33390  -0.546   5.487   9.653  0.1073  1.0803  0.4642
  989MOL0     C33391  -0.681   5.542   9.713 -0.7588  0.3884 -0.1883
  989MOL0     C33392  -0.800   5.483   9.645  0.7402 -0.9144  0.8004
  989MOL0     C33393  -0.931   5.570   9.640 -0.5017 -0.3764 -0.0281
  989MOL0     C33394  -1.048   5.499   9.583  0.3012  0.0983 -0.7339
  989MOL0     C33395  -1.174   5.583   9.596 -0.5093  0.1524 -0.2054
  989MOL0     C33396  -1.298   5.522   9.528 -0.0069  0.3589 -0.3685
  989MOL0     N33397  -1.418   5.606   9.537  0.5157  0.0847  0.6494
  989MOL0     C33398  -1.545   5.556   9.523  0.0861 -0.0008  0.5312
  989MOL0     C33399  -1.620   5.661   9.496  0.6414 -0.7175  0.5202
  989MOL0     C33400  -1.768   5.666   9.457  0.7202  0.5621  0.4673
  989MOL0     C33401  -1.866   5.646   9.570  1.2383 -0.3497 -0.6703
  989MOL0     C33402  -1.863   5.493   9.597 -0.3531 -0.2522 -0.2572
  989MOL0     C33403  -1.985   5.435   9.665  0.2746 -0.2382 -0.4217
  989MOL0     O33404  -2.102   5.503   9.623 -0.4881  0.1003 -0.1465
  989MOL0     C33405  -2.222   5.454   9.611  0.2543  0.5500 -0.5728
  989MOL0     C33406  -2.320   5.523   9.531 -0.2769 -1.4027 -0.9563
  989MOL0     C33407  -2.451   5.476   9.528  0.5858  0.3952  0.2745
  989MOL0     C33408  -2.557   5.556   9.443  0.5713  0.2393  0.5924
  989MOL0     C33409  -2.483   5.358   9.596  0.4348 -0.2920 -0.2650
  989MOL0     C33410  -2.626   5.301   9.584 -0.2391 -0.6053 -1.7079
  989MOL0     O33411  -2.708   5.285   9.698  0.6194 -0.1158 -1.2572
  989MOL0     C33412  -2.837   5.253   9.672  0.9212 -0.2618 -0.1485
  989MOL0     C33413  -2.882   5.151   9.581 -0.2359  0.9565 -0.7556
  989MOL0     C33414  -3.018   5.121   9.578  0.6766  0.7609  0.1122
  989MOL0     C33415  -3.114   5.186   9.659 -1.0273 -0.1837 -0.4735
  989MOL0     O33416  -3.252   5.159   9.658  0.0653  0.4389 -0.1801
  989MOL0     C33417  -3.292   5.041   9.591 -0.6137  0.0471  1.6805
  989MOL0     C33418  -3.421   5.001   9.648  0.4220 -0.3297  0.9386
  989MOL0     C33419  -3.422   4.996   9.800  0.2985  0.2946 -0.2334
  989MOL0     C33420  -3.550   4.924   9.850  0.3032 -0.6527 -0.4356
  989MOL0     C33421  -3.673   5.009   9.806  0.1831 -0.1883 -0.0669
  989MOL0     C33422  -3.801   4.958   9.881  0.4160  0.4051  0.7554
  989MOL0     C33423  -3.917   5.049   9.864  0.0574 -0.7686  0.1832
  989MOL0     C33424  -4.042   4.985   9.915  0.7232 -0.4807 -0.6848
  989MOL0    Cl33425  -4.028   5.005  10.096  0.5005 -0.2039 -0.0490
  989MOL0     C33426  -3.071   5.292   9.743 -1.0937 -0.2261 -0.1863
  989MOL0     C33427  -2.932   5.321   9.749 -0.6311 -0.3774 -0.4440
  989MOL0     O33428  -2.639   5.243   9.479  0.1412 -0.0284  0.0260
  989MOL0     C33429  -2.384   5.291   9.668  0.1822 -0.3586  0.0685
  989MOL0     C33430  -2.258   5.337   9.682 -0.0745 -0.8639  0.2684
  989MOL0     N33431  -1.538   5.774   9.492  0.9694  0.5510  0.0814
  989MOL0     N33432  -1.424   5.741   9.518  0.1952 -0.5000 -0.1884
  989MOL0     C33433  -0.207   5.739   9.730  0.2295 -0.2450  0.5477
  989MOL0     C33434  -0.096   5.806   9.771  0.2052 -0.6322  0.4692
  989MOL0     C33435   0.374   5.855   9.827 -0.5447 -0.4288  0.1280
  989MOL0     C33436   0.494   5.806   9.882  0.0485  0.7007  0.2656
  989MOL0     C33437   0.605   5.880   9.913 -0.8875  0.5809 -1.0086
  989MOL0     C33438   0.600   6.016   9.887 -0.5067 -0.5038  0.3602
  989MOL0     O33439   0.704   6.109   9.897 -0.2977  0.5276  0.4570
  989MOL0     C33440   0.838   6.068   9.928  0.1218  0.6204 -0.3737
  989MOL0     C33441   0.927   6.182   9.931 -0.8335 -0.3859 -0.2631
  989MOL0     C33442   0.884   6.256  10.067  0.3966  0.0738 -0.1648
  989MOL0     C33443   0.969   6.383  10.102 -0.6057  0.0023 -0.8000
  989MOL0     C33444   0.907   6.450  10.217  0.4049 -1.1003  0.4886
  989MOL0     C33445   0.842   6.520  10.286 -0.5935 -0.0694 -0.0573
  989MOL0     C33446   0.480   6.070   9.830  0.6062  0.0851 -0.6067
  989MOL0     C33447   0.367   5.988   9.799 -0.7231 -0.5171  0.5686
  989MOL0     H33448   0.131   5.619   9.596  1.0730  0.0471  1.1801
  989MOL0     H33449  -0.073   5.509   9.521 -1.7946  1.4007 -0.6060
  989MOL0     H33450  -0.400   5.551   9.799  3.0611 -0.4710 -0.7822
  989MOL0     H33451  -0.466   5.676   9.704 -0.1100 -0.1408  0.1290
  989MOL0     H33452  -0.551   5.476   9.545 -1.4999  1.5892  0.4641
  989MOL0     H33453  -0.535   5.386   9.695 -0.5180  0.6141 -0.4580
  989MOL0     H33454  -0.672   5.524   9.821 -0.0356 -0.9557 -0.4513
  989MOL0     H33455  -0.678   5.649   9.693 -3.0147  0.3385 -1.0271
  989MOL0     H33456  -0.779   5.458   9.541 -0.9697 -1.3766  0.5404
  989MOL0     H33457  -0.817   5.391   9.701  1.3203 -1.0599  0.7484
  989MOL0     H33458  -0.947   5.610   9.741 -2.3019  1.0300 -0.8192
  989MOL0     H33459  -0.919   5.658   9.578  1.0074 -3.1457 -4.1080
  989MOL0     H33460  -1.044   5.478   9.476 -0.1794  1.7005 -1.0910
  989MOL0     H33461  -1.075   5.408   9.637 -1.1242 -0.1408 -1.7811
  989MOL0     H33462  -1.196   5.627   9.693 -1.4302  1.2029 -0.8602
  989MOL0     H33463  -1.147   5.672   9.537  2.6170  0.4516  1.4592
  989MOL0     H33464  -1.334   5.441   9.592 -0.8725 -0.5395 -1.9166
  989MOL0     H33465  -1.275   5.505   9.422  0.6851  1.8514 -0.4823
  989MOL0     H33466  -1.565   5.449   9.522 -3.2310  0.5412 -0.2206
  989MOL0     H33467  -1.791   5.767   9.420  0.6944  1.2184  2.1748
  989MOL0     H33468  -1.786   5.595   9.376 -0.4026 -1.4210  2.3677
  989MOL0     H33469  -1.965   5.682   9.541  0.0084 -1.6103  1.6265
  989MOL0     H33470  -1.830   5.703   9.656  3.7839  0.6130 -2.2860
  989MOL0     H33471  -1.773   5.471   9.656 -0.2819  0.2796 -0.1612
  989MOL0     H33472  -1.856   5.441   9.501  0.7646 -4.5005  1.9010
  989MOL0     H33473  -1.978   5.457   9.772 -0.2105  3.5908 -1.0522
  989MOL0     H33474  -1.991   5.327   9.651 -3.1371  0.0291 -2.0988
  989MOL0     H33475  -2.298   5.614   9.477 -0.6269  1.5479  3.3871
  989MOL0     H33476  -2.510   5.632   9.380 -0.4389 -0.9774 -1.7496
  989MOL0     H33477  -2.606   5.486   9.376  1.2513  0.6182 -0.3256
  989MOL0     H33478  -2.626   5.598   9.517  1.3966 -0.1266  1.6010
  989MOL0     H33479  -2.817   5.079   9.532 -1.6280 -1.1528  0.3545
  989MOL0     H33480  -3.052   5.045   9.508 -2.5589  0.9911  1.2678
  989MOL0     H33481  -3.301   5.059   9.484  0.9684  0.0699  1.5299
  989MOL0     H33482  -3.229   4.953   9.610  1.2582  0.9237 -0.1586
  989MOL0     H33483  -3.494   5.073   9.611  0.1859 -0.9939  0.0785
  989MOL0     H33484  -3.455   4.908   9.601 -0.8965  0.7284 -0.3077
  989MOL0     H33485  -3.429   5.094   9.848  0.0366  1.1340 -1.9125
  989MOL0     H33486  -3.331   4.948   9.836  0.0429 -1.1443 -1.4262
  989MOL0     H33487  -3.555   4.826   9.800  0.6309 -1.4854  1.1008
  989MOL0     H33488  -3.554   4.923   9.959 -2.0929 -2.4616 -0.4642
  989MOL0     H33489  -3.681   4.998   9.698 -0.3606  0.3693 -0.0883
  989MOL0     H33490  -3.658   5.115   9.828 -2.1723 -0.0682  1.2942
  989MOL0     H33491  -3.822   4.855   9.854 -1.3918  0.7710  0.6401
  989MOL0     H33492  -3.779   4.962   9.988 -0.3919  0.0205  0.9378
  989MOL0     H33493  -3.939   5.066   9.758 -2.9252 -2.9143  0.3328
  989MOL0     H33494  -3.895   5.147   9.909  1.3021 -0.8038 -0.3213
  989MOL0     H33495  -4.059   4.881   9.884 -3.2928  0.0868 -0.8435
  989MOL0     H33496  -4.129   5.041   9.879  1.4312  1.4585  0.4937
  989MOL0     H33497  -3.134   5.355   9.805  2.2468  3.1702  0.1038
  989MOL0     H33498  -2.902   5.395   9.822 -0.1069 -2.1258  1.1686
  989MOL0     H33499  -2.413   5.196   9.711 -1.2065  0.6013  1.3798
  989MOL0     H33500  -2.192   5.301   9.760  2.0710  2.4955  0.2261
  989MOL0     H33501  -0.294   5.793   9.767  0.5015  1.6630 -1.3932
  989MOL0     H33502  -0.105   5.888   9.842 -1.7337 -1.7412  1.6008
  989MOL0     H33503   0.497   5.699   9.896 -1.8915  0.7532  1.5315
  989MOL0     H33504   0.696   5.836   9.953  0.2655  3.5476 -0.0869
  989MOL0     H33505   0.841   6.009  10.020  1.7556 -3.5109 -2.7779
  989MOL0     H33506   0.881   5.990   9.863  0.9051 -1.4527  2.4549
  989MOL0     H33507   0.919   6.248   9.844 -2.9030 -2.4369 -1.7508
  989MOL0     H33508   1.026   6.137   9.932 -0.4571  0.1550 -3.2008
  989MOL0     H33509   0.887   6.188  10.152  1.3585 -0.6262 -0.7281
  989MOL0     H33510   0.783   6.293  10.046 -0.4944 -3.4208 -3.1184
  989MOL0     H33511   0.970   6.449  10.016 -5.1747  0.7309 -0.5176
  989MOL0     H33512   1.074   6.356  10.119  0.2781  2.0458 -2.6046
  989MOL0     H33513   0.803   6.590  10.357 -0.6279 -1.2432  1.1181
  989MOL0     H33514   0.481   6.170   9.788  3.7801 -0.2920 -1.7593
  989MOL0     H33515   0.279   6.028   9.749 -3.3187 -2.7986  2.9690
  990MOL0     O33516   9.135   3.884   0.881  0.0248  0.2118 -0.1892
  990MOL0     C33517   9.203   3.926   0.786 -0.0427 -0.3833 -0.6883
  990MOL0     O33518   9.152   4.021   0.691  0.0892  0.2831 -0.5359
  990MOL0     C33519   9.039   4.091   0.718 -0.4954 -0.0369  0.4024
  990MOL0     C33520   8.915   4.028   0.751 -0.0094 -0.2032  0.0292
  990MOL0     C33521   8.800   4.104   0.770 -0.5280  0.2879  0.6599
  990MOL0     C33522   8.808   4.239   0.767  0.1152 -0.3683  0.3484
  990MOL0     O33523   8.702   4.316   0.802 -0.1457  0.1511 -0.0055
  990MOL0     C33524   8.723   4.445   0.863  0.0090 -0.4643 -0.0551
  990MOL0     C33525   8.760   4.428   1.009  0.2788 -0.3867 -0.2648
  990MOL0     C33526   8.771   4.553   1.097  0.1249 -0.5467  0.6524
  990MOL0     C33527   8.826   4.675   1.030  0.4455 -0.4724  0.6230
  990MOL0     C33528   8.792   4.804   1.102 -0.8121 -0.5379  0.1660
  990MOL0     C33529   8.922   4.888   1.103  0.1896 -0.3686 -0.0256
  990MOL0     C33530   8.889   5.025   1.162  0.6528  0.5367 -0.5286
  990MOL0     C33531   8.908   5.130   1.050  0.2146 -0.5619 -0.1051
  990MOL0     N33532   8.891   5.265   1.100 -0.7296  0.2818 -0.2829
  990MOL0     C33533   8.986   5.339   1.165  0.2290 -0.7495  0.7944
  990MOL0     C33534   8.926   5.451   1.209 -0.5192 -0.7953  0.2827
  990MOL0     C33535   8.977   5.571   1.284 -0.1545  0.5661 -0.8171
  990MOL0     C33536   9.041   5.669   1.186 -0.9037  0.7560  0.5504
  990MOL0     C33537   9.122   5.776   1.255  0.5890  0.0450 -0.1568
  990MOL0     C33538   9.236   5.737   1.350  0.2002 -0.1552 -0.1020
  990MOL0     O33539   9.321   5.644   1.285 -0.7035 -0.9441 -0.4883
  990MOL0     C33540   9.419   5.680   1.192 -0.2652 -0.1065  0.7004
  990MOL0     C33541   9.504   5.573   1.170 -0.4212  0.2892  0.1641
  990MOL0     C33542   9.616   5.573   1.088 -0.1244  0.2325  0.3562
  990MOL0     C33543   9.696   5.446   1.069 -0.1659  0.7819 -0.2734
  990MOL0     C33544   9.643   5.689   1.012  0.2326 -0.6479 -0.2980
  990MOL0     C33545   9.742   5.701   0.902  0.6135 -1.2734 -0.5355
  990MOL0     O33546   9.823   5.807   0.903 -0.4721 -0.3368  0.0930
  990MOL0     C33547   9.936   5.781   0.833  0.2107  0.7782 -0.2724
  990MOL0     C33548  10.040   5.711   0.891 -0.1961 -0.3442  0.8319
  990MOL0     C33549  10.153   5.677   0.808 -0.4204 -0.5077 -0.7490
  990MOL0     C33550  10.157   5.722   0.673  0.6858 -0.1534  0.0060
  990MOL0     O33551  10.276   5.711   0.603 -0.1936  0.2690 -0.3443
  990MOL0     C33552  10.387   5.750   0.683 -0.5005 -0.0703  0.5634
  990MOL0     C33553  10.490   5.823   0.592  0.1612  0.1386 -0.1986
  990MOL0     C33554  10.572   5.736   0.491  0.2333  0.4268  0.2140
  990MOL0     C33555  10.674   5.813   0.417 -0.5098  0.4014  0.2688
  990MOL0     C33556  10.723   5.737   0.294 -0.4534 -0.0003  0.1571
  990MOL0     C33557  10.836   5.795   0.207  0.5196  0.3996  0.1601
  990MOL0     C33558  10.968   5.824   0.287  0.3198 -0.4815 -0.3034
  990MOL0     C33559  11.093   5.796   0.203  0.4672 -0.1820  0.4897
  990MOL0    Cl33560  11.229   5.905   0.240  0.5492  0.3046 -0.0602
  990MOL0     C33561  10.053   5.791   0.616  0.4270 -0.2881  1.0408
  990MOL0     C33562   9.939   5.817   0.696  0.6455  0.7076 -0.1372
  990MOL0     O33563   9.744   5.619   0.820  0.3724 -0.0508  0.8351
  990MOL0     C33564   9.568   5.808   1.039 -0.1916  0.7343 -0.2471
  990MOL0     C33565   9.451   5.806   1.132  0.1959 -0.8523  0.1535
  990MOL0     N33566   8.794   5.436   1.179 -0.6532 -0.3605 -0.1751
  990MOL0     N33567   8.772   5.319   1.124  0.2128  0.1576  0.8822
  990MOL0     C33568   8.924   4.297   0.714 -1.1166 -0.4506 -0.0728
  990MOL0     C33569   9.042   4.227   0.689 -0.2539  0.1284 -0.5447
  990MOL0     C33570   9.338   3.880   0.763  0.1734  0.5557 -1.0641
  990MOL0     C33571   9.424   3.912   0.655  0.0304 -0.2667 -0.0158
  990MOL0     C33572   9.560   3.859   0.652  0.8701 -0.3000  0.1587
  990MOL0     C33573   9.602   3.760   0.743 -0.3167 -0.2458 -0.9928
  990MOL0     O33574   9.719   3.698   0.736 -0.2800 -0.4380 -0.5042
  990MOL0     C33575   9.786   3.705   0.608  0.2228 -0.1340 -0.1760
  990MOL0     C33576   9.897   3.593   0.630  0.2795 -0.6288 -0.1226
  990MOL0     C33577   9.996   3.596   0.519 -0.4225  0.5326  0.0590
  990MOL0     C33578  10.085   3.468   0.530  0.4985 -0.2441  0.2654
  990MOL0     C33579  10.016   3.357   0.461  1.1341 -0.3604 -0.8786
  990MOL0     C33580   9.956   3.285   0.396 -0.2463  0.1671  0.3128
  990MOL0     C33581   9.514   3.721   0.846  0.0037  0.4373  0.4716
  990MOL0     C33582   9.388   3.780   0.854  0.4020  0.0922 -0.4205
  990MOL0     H33583   8.895   3.922   0.767 -0.9547 -0.2915 -1.5831
  990MOL0     H33584   8.718   4.037   0.792 -0.1540 -0.2272  0.5248
  990MOL0     H33585   8.803   4.503   0.816  0.0877 -3.6287 -4.4893
  990MOL0     H33586   8.628   4.498   0.849  0.4595  0.3382 -0.1553
  990MOL0     H33587   8.688   4.363   1.060 -0.8977 -0.6401 -2.1223
  990MOL0     H33588   8.856   4.378   1.025  1.1932  1.3098 -0.2351
  990MOL0     H33589   8.668   4.573   1.128  0.4255 -1.3227  2.2539
  990MOL0     H33590   8.829   4.523   1.185  0.9743 -2.3998 -0.4641
  990MOL0     H33591   8.933   4.650   1.028  0.6249  0.2762  0.1285
  990MOL0     H33592   8.792   4.693   0.928 -2.7133  1.6843  1.8970
  990MOL0     H33593   8.718   4.859   1.044 -0.6279  0.8101  1.1697
  990MOL0     H33594   8.753   4.789   1.203  1.7534  1.0882  1.5114
  990MOL0     H33595   9.003   4.844   1.161 -1.5387  0.0547  2.8851
  990MOL0     H33596   8.971   4.899   1.005  1.9058  0.5424  0.8815
  990MOL0     H33597   8.785   5.030   1.193  0.3186 -0.8787 -1.3441
  990MOL0     H33598   8.956   5.056   1.243 -0.7649 -0.4843  1.0978
  990MOL0     H33599   8.837   5.122   0.966 -1.2777  1.0294  0.9314
  990MOL0     H33600   9.011   5.117   1.017  1.2637  1.3607  2.1436
  990MOL0     H33601   9.091   5.311   1.168  0.2046 -0.8184  1.0063
  990MOL0     H33602   8.889   5.616   1.330 -0.8912 -3.1451  1.8858
  990MOL0     H33603   9.051   5.528   1.352  0.9781  0.0784 -2.2851
  990MOL0     H33604   8.969   5.722   1.122  3.2154  2.1489 -3.5517
  990MOL0     H33605   9.105   5.620   1.112 -2.9758 -1.5181  0.1481
  990MOL0     H33606   9.050   5.835   1.313  1.1198 -1.3592  2.0197
  990MOL0     H33607   9.161   5.841   1.175 -3.5063  0.6079 -1.9233
  990MOL0     H33608   9.193   5.679   1.432  1.4843  1.0185  1.4596
  990MOL0     H33609   9.289   5.818   1.401 -0.8924 -0.1592  1.0888
  990MOL0     H33610   9.490   5.475   1.215  3.8466 -2.3424 -3.4353
  990MOL0     H33611   9.637   5.355   1.080  1.9616 -0.3693  3.2057
  990MOL0     H33612   9.733   5.437   0.967  0.6875  1.1598 -0.0092
  990MOL0     H33613   9.794   5.429   1.115 -0.3895 -0.9568 -0.3883
  990MOL0     H33614  10.047   5.676   0.993  0.6832 -0.3760  0.7655
  990MOL0     H33615  10.236   5.621   0.849 -1.2030 -0.3438  1.1782
  990MOL0     H33616  10.363   5.821   0.763 -1.3488 -1.4088  1.5343
  990MOL0     H33617  10.429   5.658   0.723 -0.9035 -0.9849 -1.0120
  990MOL0     H33618  10.446   5.911   0.542 -1.6056 -1.8398 -2.3627
  990MOL0     H33619  10.559   5.874   0.660  1.1124  1.0844 -1.8010
  990MOL0     H33620  10.505   5.699   0.413  0.3070  4.4119 -2.0387
  990MOL0     H33621  10.623   5.651   0.538 -2.5438 -0.5577  1.6964
  990MOL0     H33622  10.641   5.915   0.394  2.5780  1.1890 -1.2510
  990MOL0     H33623  10.755   5.814   0.490  1.0400 -0.0631 -1.3680
  990MOL0     H33624  10.631   5.720   0.236 -0.2137  1.4957 -0.7241
  990MOL0     H33625  10.743   5.635   0.327  0.5335  0.3619  0.7115
  990MOL0     H33626  10.854   5.728   0.123  0.9944  0.7266 -0.0060
  990MOL0     H33627  10.791   5.885   0.165  0.6313  0.7837  0.8471
  990MOL0     H33628  10.972   5.775   0.385 -2.0248 -2.3143 -1.0176
  990MOL0     H33629  10.975   5.927   0.323 -0.1635 -0.8440  0.8849
  990MOL0     H33630  11.079   5.798   0.095  1.0860 -1.3030  0.3844
  990MOL0     H33631  11.113   5.692   0.229  1.0404 -0.7674 -2.0482
  990MOL0     H33632  10.056   5.823   0.513  1.1838 -1.5867  0.6354
  990MOL0     H33633   9.850   5.867   0.659 -0.6401 -2.1555 -1.2051
  990MOL0     H33634   9.596   5.899   0.987 -0.9391  0.1999 -1.6461
  990MOL0     H33635   9.379   5.885   1.152  0.7622 -0.3773  0.3349
  990MOL0     H33636   8.926   4.403   0.692 -1.5384 -0.6804 -1.2930
  990MOL0     H33637   9.126   4.280   0.646 -0.2826 -2.1361 -3.7421
  990MOL0     H33638   9.389   3.988   0.587 -1.6012 -2.3900 -1.7199
  990MOL0     H33639   9.622   3.902   0.574 -0.8041  3.3531  0.6081
  990MOL0     H33640   9.721   3.680   0.523  3.1016 -3.8511 -1.5674
  990MOL0     H33641   9.826   3.804   0.588 -2.5090  0.6525 -2.2923
  990MOL0     H33642   9.846   3.496   0.630  0.5928 -0.8092 -1.1856
  990MOL0     H33643   9.939   3.601   0.730 -0.9808  1.9354  0.2674
  990MOL0     H33644  10.060   3.684   0.532  2.1214 -1.2858  0.6678
  990MOL0     H33645   9.954   3.597   0.418  0.4426  1.4332 -0.3158
  990MOL0     H33646  10.103   3.446   0.636 -2.7544 -0.0749  0.9467
  990MOL0     H33647  10.179   3.480   0.475  0.6795  0.3699  0.6990
  990MOL0     H33648   9.909   3.215   0.330 -0.8269  0.3705  0.5014
  990MOL0     H33649   9.543   3.645   0.917 -2.2429 -0.8503  0.0984
  990MOL0     H33650   9.326   3.744   0.936  1.3753  0.7367  0.6237
  991MOL0     O33651   8.916   5.644   4.890  0.0636 -0.0063 -0.4007
  991MOL0     C33652   8.923   5.523   4.878 -0.2977  0.1001  0.4938
  991MOL0     O33653   8.831   5.443   4.814  0.1042 -0.3888  0.1576
  991MOL0     C33654   8.708   5.510   4.798 -0.4891  1.3445 -0.8197
  991MOL0     C33655   8.656   5.509   4.671  0.1696 -0.3637  0.6595
  991MOL0     C33656   8.534   5.575   4.641 -0.4370  0.0796 -0.0749
  991MOL0     C33657   8.454   5.615   4.743 -0.7767  0.0264 -0.0948
  991MOL0     O33658   8.344   5.685   4.714 -0.0039  0.4732 -0.2450
  991MOL0     C33659   8.319   5.813   4.784  0.3772  1.2115  1.3106
  991MOL0     C33660   8.194   5.801   4.877 -0.3877  1.3508 -0.6446
  991MOL0     C33661   8.060   5.803   4.803  0.3727 -0.2863  0.2446
  991MOL0     C33662   7.945   5.815   4.900 -0.1104  0.4151 -0.2967
  991MOL0     C33663   7.814   5.868   4.833  0.5895  0.5034  0.1961
  991MOL0     C33664   7.752   5.795   4.719  0.3160  0.0789 -0.0463
  991MOL0     C33665   7.662   5.676   4.772  0.2580  0.3268 -0.2569
  991MOL0     C33666   7.587   5.630   4.647 -0.0724 -0.3477  0.8799
  991MOL0     N33667   7.503   5.507   4.667 -1.1163 -0.1221  0.6914
  991MOL0     C33668   7.540   5.375   4.687  0.4255 -1.1075 -0.4409
  991MOL0     C33669   7.422   5.312   4.719  0.4579 -0.1199 -0.7446
  991MOL0     C33670   7.404   5.176   4.777  0.7447  0.1589 -0.0886
  991MOL0     C33671   7.262   5.115   4.765 -0.7565 -0.0548 -1.1446
  991MOL0     C33672   7.236   4.996   4.872  0.4166  0.3520 -0.4090
  991MOL0     C33673   7.288   4.859   4.825 -0.4831  0.4543  0.8458
  991MOL0     O33674   7.253   4.751   4.907  0.3646 -1.0262 -0.5064
  991MOL0     C33675   7.136   4.683   4.884 -0.7577  0.2479  0.4141
  991MOL0     C33676   7.041   4.717   4.784  0.8843  0.4160  0.2275
  991MOL0     C33677   6.919   4.649   4.777 -0.0147  0.1025 -0.7298
  991MOL0     C33678   6.829   4.681   4.661 -0.6323  0.2381 -0.2236
  991MOL0     C33679   6.895   4.542   4.866  0.7358  0.3044 -0.2653
  991MOL0     C33680   6.771   4.461   4.848 -0.5240 -0.0524  0.2786
  991MOL0     O33681   6.653   4.526   4.809 -0.9185 -0.3780 -0.1626
  991MOL0     C33682   6.543   4.451   4.810  0.1179  0.3727  0.0041
  991MOL0     C33683   6.479   4.438   4.926  0.3263  0.2882 -0.2452
  991MOL0     C33684   6.358   4.372   4.940  0.1796  0.4513  0.4266
  991MOL0     C33685   6.300   4.313   4.829  0.3292  0.9039 -0.3713
  991MOL0     O33686   6.175   4.250   4.841  0.5528  0.0982 -0.6747
  991MOL0     C33687   6.079   4.230   4.732  0.5070 -0.9108  0.0583
  991MOL0     C33688   5.944   4.204   4.797  1.0279  0.3323  0.0345
  991MOL0     C33689   5.845   4.322   4.780 -0.2080 -0.6501 -0.1936
  991MOL0     C33690   5.878   4.431   4.888 -0.4930  0.1390 -0.0824
  991MOL0     C33691   5.794   4.558   4.865  0.4074 -0.3072  0.1594
  991MOL0     C33692   5.840   4.683   4.962 -0.2951  1.1516 -0.5885
  991MOL0     C33693   5.809   4.816   4.901 -0.4127 -0.4440  0.2535
  991MOL0     C33694   5.799   4.928   5.009 -0.0777  0.4300  0.6393
  991MOL0    Cl33695   5.677   4.904   5.134  0.2295  0.1436  0.2966
  991MOL0     C33696   6.367   4.322   4.702 -0.2013  0.1348 -0.4614
  991MOL0     C33697   6.491   4.388   4.698 -0.5771 -0.8783 -0.1474
  991MOL0     O33698   6.786   4.338   4.845  0.1669 -0.0887  0.1116
  991MOL0     C33699   7.002   4.499   4.951 -0.4954  0.4895  0.2885
  991MOL0     C33700   7.114   4.578   4.964  0.2721  0.1869  0.4757
  991MOL0     N33701   7.321   5.407   4.714  0.1378 -0.9070 -0.5977
  991MOL0     N33702   7.371   5.521   4.677  0.2626  0.2751  0.0370
  991MOL0     C33703   8.500   5.611   4.879  0.2175  0.2949  0.8904
  991MOL0     C33704   8.622   5.555   4.903  0.0650 -0.5388 -0.1178
  991MOL0     C33705   9.047   5.459   4.906  0.6687  0.7544 -0.0449
  991MOL0     C33706   9.071   5.323   4.903  0.2311  0.8070  0.0091
  991MOL0     C33707   9.196   5.261   4.933 -0.0897  0.0187 -0.1130
  991MOL0     C33708   9.293   5.336   4.990  0.0266 -0.2725 -0.4930
  991MOL0     O33709   9.411   5.274   5.023  0.2501  0.0958 -0.4078
  991MOL0     C33710   9.522   5.357   5.071 -0.7222  0.5080 -0.8225
  991MOL0     C33711   9.648   5.288   5.038  0.6206 -0.3958 -0.4909
  991MOL0     C33712   9.721   5.323   4.906 -0.2011  0.8707  0.4208
  991MOL0     C33713   9.825   5.215   4.887 -0.0390 -0.9252  0.0045
  991MOL0     C33714   9.928   5.245   4.784  0.3904  0.2929 -0.3831
  991MOL0     C33715   9.993   5.267   4.690 -0.1945 -0.4221  0.5512
  991MOL0     C33716   9.268   5.475   5.010  0.4117  0.2351 -0.0258
  991MOL0     C33717   9.144   5.531   4.970 -0.0667 -0.5280  0.0710
  991MOL0     H33718   8.712   5.459   4.592 -0.0470  1.2531 -0.5660
  991MOL0     H33719   8.497   5.587   4.540 -0.2370 -0.0938 -0.1698
  991MOL0     H33720   8.392   5.844   4.860  1.8195  0.3839  0.3066
  991MOL0     H33721   8.295   5.890   4.710 -2.8386 -1.1074 -0.2825
  991MOL0     H33722   8.203   5.710   4.936  1.7565  1.6811 -0.3911
  991MOL0     H33723   8.198   5.883   4.949  2.4128  0.5931  0.1851
  991MOL0     H33724   8.067   5.898   4.750 -1.0111  0.7162  1.7428
  991MOL0     H33725   8.050   5.713   4.743 -1.0198  1.1480 -1.7966
  991MOL0     H33726   7.939   5.715   4.943  0.8928  1.2147  1.8604
  991MOL0     H33727   7.977   5.884   4.979  1.7695 -1.8860  1.0643
  991MOL0     H33728   7.738   5.882   4.910  0.7836 -1.3263  0.7568
  991MOL0     H33729   7.818   5.967   4.785  0.0735 -0.0169 -0.9758
  991MOL0     H33730   7.697   5.863   4.654 -1.2536 -0.8776  0.2439
  991MOL0     H33731   7.827   5.743   4.657  1.9015  0.4929  1.4245
  991MOL0     H33732   7.718   5.585   4.798  1.0664 -0.3222 -3.7779
  991MOL0     H33733   7.596   5.694   4.858 -0.4544 -2.8627 -0.0005
  991MOL0     H33734   7.653   5.624   4.559 -1.7651  2.2588 -0.7127
  991MOL0     H33735   7.523   5.710   4.609 -1.3946 -1.3998  0.8242
  991MOL0     H33736   7.638   5.327   4.682  0.5460 -0.7553 -2.0515
  991MOL0     H33737   7.471   5.108   4.723 -1.6511 -2.4139 -0.0303
  991MOL0     H33738   7.434   5.177   4.882 -0.4707 -0.2605  0.2714
  991MOL0     H33739   7.224   5.084   4.667 -0.9940  2.6688 -1.9743
  991MOL0     H33740   7.179   5.185   4.779 -1.4866 -0.8888 -1.2034
  991MOL0     H33741   7.133   4.985   4.907  1.2141  0.9192  2.4100
  991MOL0     H33742   7.283   5.034   4.963 -0.6494  1.9606 -0.5101
  991MOL0     H33743   7.397   4.858   4.814 -0.6575 -0.2240 -1.4535
  991MOL0     H33744   7.244   4.842   4.726  2.3175  0.3094 -0.4860
  991MOL0     H33745   7.057   4.794   4.709  1.2531  0.8661  0.7686
  991MOL0     H33746   6.733   4.719   4.697 -1.5581 -1.7410 -0.4541
  991MOL0     H33747   6.865   4.759   4.593 -0.8613 -1.4952 -2.4722
  991MOL0     H33748   6.826   4.592   4.596  0.5055  1.9710 -2.8204
  991MOL0     H33749   6.524   4.477   5.017 -0.9112 -2.1496  1.5350
  991MOL0     H33750   6.299   4.361   5.030 -0.7654  2.3942  0.1031
  991MOL0     H33751   6.084   4.320   4.670  0.2486 -1.0992 -0.2370
  991MOL0     H33752   6.105   4.140   4.677 -0.5686 -1.7188  0.8271
  991MOL0     H33753   5.910   4.125   4.730 -1.1130  0.4945  0.8505
  991MOL0     H33754   5.952   4.171   4.901 -3.0394 -0.7457  0.1688
  991MOL0     H33755   5.741   4.291   4.797 -1.3377  2.6151 -0.5917
  991MOL0     H33756   5.862   4.368   4.683 -3.4888 -0.2579 -0.6953
  991MOL0     H33757   5.866   4.380   4.984  1.9558 -0.2342  0.0937
  991MOL0     H33758   5.986   4.446   4.880 -0.1942 -1.5173  0.4098
  991MOL0     H33759   5.692   4.521   4.879  0.1858  0.8789  2.1264
  991MOL0     H33760   5.808   4.592   4.762 -0.5476 -1.8582 -0.5184
  991MOL0     H33761   5.793   4.663   5.059  1.4358 -1.0674 -0.1181
  991MOL0     H33762   5.949   4.675   4.972 -0.2224  1.3532 -1.2182
  991MOL0     H33763   5.725   4.814   4.831 -2.1415 -2.5509  2.2391
  991MOL0     H33764   5.888   4.845   4.831 -2.6261 -1.9869 -3.1395
  991MOL0     H33765   5.789   5.022   4.954  0.8610 -0.3409 -0.9145
  991MOL0     H33766   5.895   4.928   5.062 -1.3456 -0.5752  3.0875
  991MOL0     H33767   6.317   4.284   4.613 -0.4286  0.7834 -0.6139
  991MOL0     H33768   6.541   4.397   4.602  2.0960 -1.3040  1.1372
  991MOL0     H33769   6.995   4.407   5.008 -1.2641  0.0970 -0.4082
  991MOL0     H33770   7.182   4.544   5.041  0.5131 -0.4372 -0.0025
  991MOL0     H33771   8.429   5.637   4.958 -2.3605 -0.1916 -1.1115
  991MOL0     H33772   8.650   5.562   5.008 -0.4008 -2.3733  0.1552
  991MOL0     H33773   8.990   5.254   4.882  0.3723  0.9471 -1.0058
  991MOL0     H33774   9.215   5.155   4.925  2.1726  0.4087 -0.7213
  991MOL0     H33775   9.527   5.450   5.014 -0.3422  0.6279 -0.6037
  991MOL0     H33776   9.504   5.374   5.178 -2.5982 -0.3619 -0.9598
  991MOL0     H33777   9.633   5.180   5.048 -0.2087 -0.1965  0.6373
  991MOL0     H33778   9.717   5.299   5.122 -2.3429 -1.4221  2.2470
  991MOL0     H33779   9.771   5.419   4.919 -1.0105  1.3739 -0.0964
  991MOL0     H33780   9.663   5.342   4.815  3.8302  2.6047 -2.0453
  991MOL0     H33781   9.776   5.122   4.853  1.4367 -3.1472  3.4739
  991MOL0     H33782   9.875   5.182   4.978  0.5751 -0.9449 -0.3306
  991MOL0     H33783  10.043   5.284   4.597  1.5811  0.7253  1.6391
  991MOL0     H33784   9.346   5.540   5.047  1.1426  0.1402 -1.3277
  991MOL0     H33785   9.130   5.638   4.978  0.0819 -0.4322 -0.7978
  992MOL0     O33786   3.331   2.747   3.687  0.9420 -0.2859 -0.5255
  992MOL0     C33787   3.296   2.625   3.698  0.3939 -0.6406 -0.0149
  992MOL0     O33788   3.199   2.588   3.782  0.2983 -0.3539  0.1810
  992MOL0     C33789   3.120   2.683   3.846 -0.6904  0.1661  0.0292
  992MOL0     C33790   2.981   2.673   3.822  0.2338  0.3157  0.2434
  992MOL0     C33791   2.891   2.756   3.884 -1.2551  0.0092  0.1633
  992MOL0     C33792   2.936   2.853   3.973 -0.4952  0.2472 -0.3816
  992MOL0     O33793   2.854   2.941   4.041 -1.0423 -0.0282 -0.1389
  992MOL0     C33794   2.716   2.942   4.011 -0.5118  0.0880  0.1865
  992MOL0     C33795   2.654   3.051   4.096 -0.4046 -0.4135 -0.4720
  992MOL0     C33796   2.513   3.101   4.057  0.4556 -0.9276 -0.2779
  992MOL0     C33797   2.451   3.202   4.154  0.0202  0.7037  0.4752
  992MOL0     C33798   2.335   3.280   4.105  0.2905 -0.1533  0.0430
  992MOL0     C33799   2.277   3.355   4.218  0.5313 -0.4414 -0.0020
  992MOL0     C33800   2.164   3.443   4.167  0.4202  0.2581 -0.0056
  992MOL0     C33801   2.029   3.372   4.151  0.1343  0.2640  0.6860
  992MOL0     N33802   1.922   3.456   4.088  0.0095 -0.0874 -1.3928
  992MOL0     C33803   1.807   3.501   4.159 -0.6796  0.2271  0.1115
  992MOL0     C33804   1.713   3.505   4.064 -0.3946 -0.3223 -0.6487
  992MOL0     C33805   1.573   3.550   4.090 -0.0494 -0.2850  0.4442
  992MOL0     C33806   1.472   3.463   4.162  0.6316  1.0481  0.3669
  992MOL0     C33807   1.423   3.527   4.290  0.9593 -0.1794 -0.0095
  992MOL0     C33808   1.362   3.661   4.265  0.6786  0.4796 -0.8545
  992MOL0     O33809   1.300   3.703   4.390  0.4453 -0.1760  0.1362
  992MOL0     C33810   1.253   3.827   4.425 -0.1009 -0.3689 -0.3221
  992MOL0     C33811   1.282   3.936   4.344  0.4553 -0.5236  0.2580
  992MOL0     C33812   1.249   4.063   4.378  0.1647 -0.6693  0.0063
  992MOL0     C33813   1.275   4.172   4.284  0.2062  0.3037 -0.1163
  992MOL0     C33814   1.166   4.090   4.493 -0.0787 -0.6125 -0.1816
  992MOL0     C33815   1.137   4.232   4.552 -0.3916 -0.8065  1.0754
  992MOL0     O33816   1.145   4.236   4.689  0.9839  0.3589  0.1406
  992MOL0     C33817   1.129   4.358   4.759  0.0642  0.0850 -1.5919
  992MOL0     C33818   1.190   4.361   4.886 -0.2573  0.1716  0.1961
  992MOL0     C33819   1.193   4.478   4.965  0.2063  0.5324  0.1674
  992MOL0     C33820   1.141   4.598   4.914 -0.4177 -0.5887 -0.5284
  992MOL0     O33821   1.140   4.720   4.985  0.1987 -0.1482  0.1373
  992MOL0     C33822   1.184   4.725   5.126  0.1313 -0.0679  0.9096
  992MOL0     C33823   1.172   4.867   5.185  0.1141  0.1281  0.0979
  992MOL0     C33824   1.033   4.933   5.195  0.1888 -0.2957 -0.3213
  992MOL0     C33825   0.942   4.861   5.296 -0.2070 -0.4359  0.5356
  992MOL0     C33826   0.792   4.905   5.298 -0.0891 -0.2984 -0.0718
  992MOL0     C33827   0.708   4.806   5.379  0.0183  0.3187  0.8210
  992MOL0     C33828   0.564   4.855   5.414 -0.2290 -0.0048  0.0105
  992MOL0     C33829   0.474   4.901   5.297  0.6948 -0.8770 -0.8646
  992MOL0    Cl33830   0.347   5.009   5.353  0.2106 -0.6218 -0.1224
  992MOL0     C33831   1.059   4.594   4.800 -0.0880  0.9541  0.8585
  992MOL0     C33832   1.058   4.479   4.726  0.5244 -0.2076  0.8924
  992MOL0     O33833   1.103   4.321   4.478  0.5132 -0.9520  1.2957
  992MOL0     C33834   1.122   3.979   4.567 -0.1798 -0.0858  0.0858
  992MOL0     C33835   1.167   3.849   4.536 -0.0011 -0.2449 -0.4627
  992MOL0     N33836   1.768   3.466   3.945  0.1454  0.3885 -0.0253
  992MOL0     N33837   1.892   3.460   3.951 -0.0351 -0.9797  0.5109
  992MOL0     C33838   3.071   2.861   3.997 -0.2834 -0.2078  0.6207
  992MOL0     C33839   3.162   2.785   3.926 -0.1394  1.5424  0.0260
  992MOL0     C33840   3.363   2.519   3.612 -0.3249  0.4777 -0.0782
  992MOL0     C33841   3.349   2.374   3.641 -0.2772  0.1129 -0.8315
  992MOL0     C33842   3.431   2.289   3.568 -0.4191  0.0330  1.0639
  992MOL0     C33843   3.522   2.326   3.471  1.0526  0.1991 -0.5901
  992MOL0     O33844   3.593   2.225   3.403  0.3320 -0.1828  0.7325
  992MOL0     C33845   3.679   2.257   3.289 -0.2328 -0.4482  0.3276
  992MOL0     C33846   3.807   2.171   3.273 -0.0391 -0.2826  0.0811
  992MOL0     C33847   3.866   2.143   3.413 -0.2183 -0.3765 -0.3145
  992MOL0     C33848   3.993   2.055   3.403 -0.5621  0.7814  0.9507
  992MOL0     C33849   4.057   2.039   3.538  0.1307 -0.3112 -0.0656
  992MOL0     C33850   4.096   1.996   3.652  0.0744 -0.5253  0.4076
  992MOL0     C33851   3.524   2.463   3.436 -0.5261 -0.1912  0.2763
  992MOL0     C33852   3.456   2.553   3.513 -0.5504 -1.1540 -0.3281
  992MOL0     H33853   2.952   2.598   3.749  0.0323  0.7789 -0.1612
  992MOL0     H33854   2.784   2.748   3.869 -1.9640  4.4731  1.4141
  992MOL0     H33855   2.707   2.968   3.905 -0.6298 -3.2501 -0.7346
  992MOL0     H33856   2.670   2.844   4.027  1.3182 -0.6672  1.2164
  992MOL0     H33857   2.644   3.011   4.198 -2.8827 -0.6080 -0.7472
  992MOL0     H33858   2.715   3.142   4.095 -0.2310 -0.5351 -0.9604
  992MOL0     H33859   2.524   3.152   3.960 -4.5005 -1.0523 -1.1708
  992MOL0     H33860   2.443   3.018   4.040 -2.0122  1.0303 -0.2949
  992MOL0     H33861   2.427   3.163   4.254  0.9213 -1.0735  0.0262
  992MOL0     H33862   2.529   3.274   4.179  0.6690  0.1741  0.0110
  992MOL0     H33863   2.367   3.348   4.025  0.3364 -0.0483  0.1498
  992MOL0     H33864   2.255   3.216   4.067  0.2540 -1.9067  2.8576
  992MOL0     H33865   2.243   3.290   4.298 -2.9303  1.4391  0.2430
  992MOL0     H33866   2.349   3.426   4.259 -2.0645  1.4573  1.5379
  992MOL0     H33867   2.145   3.525   4.236 -3.0934 -1.6916  1.6307
  992MOL0     H33868   2.200   3.466   4.066  2.0567 -5.3509 -1.0833
  992MOL0     H33869   2.006   3.345   4.255  0.3453  0.7882  0.8698
  992MOL0     H33870   2.037   3.277   4.097 -2.8937 -2.2295  4.0928
  992MOL0     H33871   1.790   3.527   4.262 -0.9386  2.0238 -0.3575
  992MOL0     H33872   1.577   3.651   4.132  1.5109 -0.6072  1.1337
  992MOL0     H33873   1.533   3.556   3.988 -1.8245 -2.5790  0.9268
  992MOL0     H33874   1.509   3.362   4.181  1.4653  1.6764  2.4438
  992MOL0     H33875   1.393   3.452   4.087  1.7705 -1.3199 -0.5670
  992MOL0     H33876   1.508   3.544   4.357  0.7006  0.3720  0.1811
  992MOL0     H33877   1.346   3.463   4.334  1.4094 -1.4531 -0.9988
  992MOL0     H33878   1.286   3.648   4.188  1.8987  1.4128 -2.2798
  992MOL0     H33879   1.429   3.742   4.234  0.6142  0.1665 -1.8499
  992MOL0     H33880   1.323   3.916   4.245 -3.9027 -1.3612 -1.5847
  992MOL0     H33881   1.315   4.136   4.188 -0.3133  2.1428 -1.0647
  992MOL0     H33882   1.180   4.221   4.260  0.0658  0.7070  1.2185
  992MOL0     H33883   1.332   4.254   4.329 -2.5101  3.9809 -2.7426
  992MOL0     H33884   1.239   4.277   4.933  0.5163  0.8350  0.6016
  992MOL0     H33885   1.260   4.474   5.051 -2.0798 -1.2007  2.0105
  992MOL0     H33886   1.124   4.659   5.189 -2.2138  0.6947 -0.4138
  992MOL0     H33887   1.287   4.688   5.132  0.1761 -0.2070 -0.4225
  992MOL0     H33888   1.226   4.877   5.280 -0.7286  1.5109  0.4630
  992MOL0     H33889   1.235   4.930   5.122  0.9574  0.8867  1.6440
  992MOL0     H33890   0.995   4.944   5.093  1.6583 -2.6796 -1.2137
  992MOL0     H33891   1.059   5.032   5.233 -1.0852  0.0120 -0.2161
  992MOL0     H33892   0.944   4.760   5.254  0.4979  0.7261 -2.5637
  992MOL0     H33893   0.992   4.878   5.391  2.3858  0.3237 -0.8637
  992MOL0     H33894   0.755   4.910   5.195 -1.2458  0.1552  0.3557
  992MOL0     H33895   0.785   5.005   5.342  1.5087  0.1928 -0.8550
  992MOL0     H33896   0.704   4.710   5.327 -0.8918  0.5236  0.4848
  992MOL0     H33897   0.756   4.776   5.473  3.0234 -4.2862 -1.8016
  992MOL0     H33898   0.589   4.936   5.484 -0.7524  0.0977  0.0869
  992MOL0     H33899   0.518   4.778   5.476  1.0841  1.9268  3.6926
  992MOL0     H33900   0.430   4.822   5.235  1.0509 -0.2411 -1.9677
  992MOL0     H33901   0.526   4.969   5.229 -1.4480  2.7542  0.8315
  992MOL0     H33902   1.011   4.685   4.765  0.7782  1.6325  1.3892
  992MOL0     H33903   0.998   4.491   4.636  2.3186 -0.9611 -0.4641
  992MOL0     H33904   1.053   3.999   4.648 -1.8545 -0.2495 -1.2268
  992MOL0     H33905   1.150   3.759   4.595 -1.6905 -0.1396 -0.7192
  992MOL0     H33906   3.111   2.931   4.070  0.2562 -1.9624  2.0788
  992MOL0     H33907   3.270   2.793   3.936 -0.2635  1.6214  1.4870
  992MOL0     H33908   3.275   2.342   3.714 -0.3298 -0.2305 -1.0349
  992MOL0     H33909   3.435   2.183   3.593  2.4344  0.1417  1.3909
  992MOL0     H33910   3.614   2.260   3.201  0.3814 -0.7186 -0.1420
  992MOL0     H33911   3.723   2.356   3.304 -0.8883  0.0243 -0.7627
  992MOL0     H33912   3.883   2.225   3.216  0.7435 -0.9198  0.4851
  992MOL0     H33913   3.777   2.079   3.223  2.2438 -0.1136 -1.7468
  992MOL0     H33914   3.793   2.091   3.476 -3.2738 -1.1703 -4.0919
  992MOL0     H33915   3.895   2.241   3.452 -1.3704 -0.3119  0.3958
  992MOL0     H33916   4.054   2.102   3.326 -4.0646  0.8077 -2.0850
  992MOL0     H33917   3.960   1.959   3.363  1.4859  1.0404 -1.5766
  992MOL0     H33918   4.122   1.959   3.749 -0.1650  2.7509  1.8608
  992MOL0     H33919   3.594   2.500   3.362  3.9386 -4.3163  1.8648
  992MOL0     H33920   3.468   2.657   3.483 -0.2309 -0.3529  2.3437
  993MOL0     O33921   7.237   6.334   0.639  0.7527  1.0458 -0.2000
  993MOL0     C33922   7.277   6.442   0.616 -0.4402  0.1565 -0.8610
  993MOL0     O33923   7.213   6.556   0.639 -0.4393 -0.5814  0.4942
  993MOL0     C33924   7.102   6.564   0.722  0.6294  0.3429 -0.3753
  993MOL0     C33925   7.095   6.500   0.843  0.9807  1.0773 -0.4838
  993MOL0     C33926   6.982   6.497   0.923 -0.8988  0.2097 -0.2293
  993MOL0     C33927   6.872   6.571   0.892  0.8357 -0.6497 -0.1941
  993MOL0     O33928   6.766   6.540   0.978 -0.7646  0.2788 -0.0101
  993MOL0     C33929   6.633   6.582   0.953 -0.8073 -0.0869 -0.0605
  993MOL0     C33930   6.623   6.720   1.013 -0.4116  0.1331 -0.7338
  993MOL0     C33931   6.480   6.780   1.037 -0.4884  0.5500 -0.5166
  993MOL0     C33932   6.393   6.770   0.914  0.1174 -0.0783  0.4544
  993MOL0     C33933   6.255   6.828   0.946  0.0476 -0.7577  0.0744
  993MOL0     C33934   6.259   6.975   0.923 -0.8077 -0.7283 -0.4637
  993MOL0     C33935   6.113   7.034   0.914 -0.1312  1.0103 -0.3207
  993MOL0     C33936   6.030   7.018   1.042 -0.3190 -0.0205  0.0638
  993MOL0     N33937   5.905   7.085   1.019 -0.2118  0.3600  0.0625
  993MOL0     C33938   5.786   7.026   1.016 -0.2082  0.1431 -0.3986
  993MOL0     C33939   5.703   7.129   1.011 -0.3461  0.3751  0.1231
  993MOL0     C33940   5.557   7.114   0.996  0.3948  0.3076  0.9024
  993MOL0     C33941   5.473   7.036   1.090 -0.8268  0.3869 -0.3238
  993MOL0     C33942   5.385   7.138   1.166  1.0021  0.4373 -0.7155
  993MOL0     C33943   5.291   7.207   1.067 -0.3081  1.1422  0.6495
  993MOL0     O33944   5.166   7.249   1.137 -0.1344  0.5642  0.6321
  993MOL0     C33945   5.076   7.342   1.085 -0.5234 -0.3628 -0.3629
  993MOL0     C33946   5.096   7.416   0.967 -0.1332  0.3053 -0.1403
  993MOL0     C33947   4.992   7.502   0.928  0.0058  0.2707  0.1385
  993MOL0     C33948   5.018   7.576   0.802 -0.4345 -0.2360 -0.3972
  993MOL0     C33949   4.869   7.513   0.997  0.5177 -0.2200  0.0837
  993MOL0     C33950   4.753   7.609   0.975  0.2530 -0.0280  0.0946
  993MOL0     O33951   4.633   7.563   1.016  0.0748 -0.5594  0.0082
  993MOL0     C33952   4.517   7.623   0.981 -0.6818  0.2686  0.6853
  993MOL0     C33953   4.483   7.622   0.842  0.2614 -0.2449  0.6198
  993MOL0     C33954   4.358   7.670   0.807  0.1767 -0.2710  0.0605
  993MOL0     C33955   4.273   7.719   0.898  0.1391 -0.2065 -0.1521
  993MOL0     O33956   4.164   7.768   0.835 -0.1572  0.4051 -0.4245
  993MOL0     C33957   4.086   7.861   0.904  0.7735 -1.0050  0.5321
  993MOL0     C33958   3.955   7.890   0.826  0.5672  0.5401  0.4904
  993MOL0     C33959   3.971   7.981   0.708  0.0158 -0.6681  0.2134
  993MOL0     C33960   3.840   8.046   0.673 -0.4775 -0.5413  0.1911
  993MOL0     C33961   3.844   8.195   0.675  0.0604 -0.7551 -0.7716
  993MOL0     C33962   3.723   8.273   0.622 -0.2659  0.0927 -0.0823
  993MOL0     C33963   3.677   8.407   0.697  0.5321  0.0299 -0.5643
  993MOL0     C33964   3.586   8.491   0.610  0.8353  0.0218 -0.8904
  993MOL0    Cl33965   3.407   8.464   0.625  0.2477 -0.3039 -0.1300
  993MOL0     C33966   4.301   7.720   1.032 -0.2321 -0.2542 -0.4891
  993MOL0     C33967   4.424   7.674   1.073 -0.6050 -0.1363 -0.0372
  993MOL0     O33968   4.768   7.704   0.898 -0.3481 -0.4336  0.0230
  993MOL0     C33969   4.865   7.448   1.123  0.4357  0.1436  0.7907
  993MOL0     C33970   4.967   7.365   1.168  0.4272  0.7796  0.4594
  993MOL0     N33971   5.767   7.246   1.047 -0.0109 -0.2543 -0.0573
  993MOL0     N33972   5.893   7.217   1.031  0.4998 -0.2852 -0.7587
  993MOL0     C33973   6.878   6.654   0.777  0.7486 -0.5833 -0.3629
  993MOL0     C33974   6.991   6.639   0.692 -0.6834 -0.0610 -0.0427
  993MOL0     C33975   7.421   6.446   0.568  0.5163  0.9428 -0.1389
  993MOL0     C33976   7.476   6.556   0.509 -0.2094  0.1254 -0.1750
  993MOL0     C33977   7.596   6.551   0.457  0.0705  0.7115  0.8942
  993MOL0     C33978   7.670   6.433   0.468  0.4086 -0.3044  0.8016
  993MOL0     O33979   7.797   6.428   0.423 -0.0283  0.4531 -0.4308
  993MOL0     C33980   7.883   6.549   0.419  1.1113 -0.4536  0.1858
  993MOL0     C33981   7.890   6.634   0.552  0.7674  0.5507  0.2277
  993MOL0     C33982   7.932   6.556   0.679  0.5112  1.2636 -0.3197
  993MOL0     C33983   7.881   6.610   0.805 -0.4654 -0.4000 -0.1111
  993MOL0     C33984   7.958   6.729   0.846 -0.1179  0.2186  0.1552
  993MOL0     C33985   8.028   6.832   0.839  0.6513  0.6354  0.7998
  993MOL0     C33986   7.618   6.320   0.524 -0.9734  0.6109 -0.4263
  993MOL0     C33987   7.495   6.327   0.577 -0.8437  0.4569  0.2130
  993MOL0     H33988   7.187   6.454   0.876  2.7355  2.8869 -2.5612
  993MOL0     H33989   6.970   6.433   1.010  2.1475  1.5076  1.2825
  993MOL0     H33990   6.607   6.580   0.847  0.5993  2.8707 -0.5721
  993MOL0     H33991   6.567   6.517   1.011  0.9091 -0.1071  1.9919
  993MOL0     H33992   6.663   6.717   1.115 -0.6886  1.2075 -0.5763
  993MOL0     H33993   6.694   6.787   0.963  0.5373 -0.3946 -0.1316
  993MOL0     H33994   6.436   6.717   1.114  1.1909 -0.4953 -0.3609
  993MOL0     H33995   6.491   6.883   1.074 -1.0706  1.0705 -1.7133
  993MOL0     H33996   6.444   6.821   0.832 -2.8304  0.1517 -1.4175
  993MOL0     H33997   6.383   6.662   0.895 -0.4019  0.1064 -0.3680
  993MOL0     H33998   6.171   6.792   0.885 -1.8756  2.5481  0.5067
  993MOL0     H33999   6.222   6.812   1.049 -1.1733 -1.4950 -0.4102
  993MOL0     H34000   6.319   7.008   1.009 -2.3201 -1.9659  1.1475
  993MOL0     H34001   6.311   7.007   0.833 -1.3497  1.2997 -0.1193
  993MOL0     H34002   6.134   7.139   0.889 -0.6996  1.3469  0.5740
  993MOL0     H34003   6.058   6.991   0.830 -0.6737  1.3887 -0.1672
  993MOL0     H34004   6.077   7.067   1.128 -0.4267  1.1629 -0.5233
  993MOL0     H34005   6.019   6.913   1.072  0.3542 -0.1625 -0.1730
  993MOL0     H34006   5.772   6.919   1.021  1.0736 -0.1234 -1.8301
  993MOL0     H34007   5.525   7.215   0.969  1.0065  0.5624  1.1226
  993MOL0     H34008   5.542   7.063   0.900 -0.5952  0.5845  0.8969
  993MOL0     H34009   5.535   6.983   1.163 -2.7917 -1.4305  0.1143
  993MOL0     H34010   5.414   6.958   1.040 -1.4094 -0.7994  2.0679
  993MOL0     H34011   5.448   7.210   1.220 -0.7758  1.0326  0.6434
  993MOL0     H34012   5.327   7.076   1.234  0.3751  1.3421 -0.4210
  993MOL0     H34013   5.263   7.137   0.988  1.4933  1.0541  0.0422
  993MOL0     H34014   5.331   7.294   1.013 -1.2500  1.8555  1.0467
  993MOL0     H34015   5.191   7.403   0.916  0.2919  1.3690  0.3471
  993MOL0     H34016   5.112   7.542   0.759  0.6727  2.5222 -0.3456
  993MOL0     H34017   4.931   7.576   0.736 -3.7865 -0.2571  3.5452
  993MOL0     H34018   5.029   7.681   0.831 -1.3082 -0.7677  2.1707
  993MOL0     H34019   4.535   7.575   0.759 -2.4879  0.4606 -1.6952
  993MOL0     H34020   4.326   7.663   0.704 -2.3054 -0.9635  0.8232
  993MOL0     H34021   4.059   7.822   1.002 -0.8585  0.6607  0.8000
  993MOL0     H34022   4.144   7.953   0.914  1.5604 -1.5131  0.7608
  993MOL0     H34023   3.923   7.793   0.785 -1.0372  1.2248  0.0683
  993MOL0     H34024   3.887   7.937   0.897 -0.7947 -1.2541  0.4487
  993MOL0     H34025   3.996   7.924   0.619  2.0555  2.5049 -1.4515
  993MOL0     H34026   4.054   8.053   0.716 -1.1230  0.6076  1.1257
  993MOL0     H34027   3.818   8.024   0.568  0.0822 -0.5509  0.0709
  993MOL0     H34028   3.749   8.000   0.714 -0.7838 -2.1564 -2.1237
  993MOL0     H34029   3.920   8.226   0.603  0.3123  1.2082  0.2720
  993MOL0     H34030   3.872   8.228   0.776  0.6450  0.3943 -1.2899
  993MOL0     H34031   3.747   8.292   0.517  0.0780  0.1543  0.0087
  993MOL0     H34032   3.634   8.209   0.621 -0.6386  0.5619  1.1351
  993MOL0     H34033   3.761   8.472   0.721  1.3354 -1.0970 -0.2158
  993MOL0     H34034   3.628   8.387   0.792  1.0564 -0.3676 -0.3738
  993MOL0     H34035   3.615   8.478   0.505 -0.5502  0.5124 -1.3512
  993MOL0     H34036   3.617   8.591   0.642  2.2793 -0.7252  0.2083
  993MOL0     H34037   4.225   7.754   1.102  0.7870 -0.1609  0.6187
  993MOL0     H34038   4.446   7.666   1.179 -0.9056  2.2302  0.2587
  993MOL0     H34039   4.775   7.461   1.182 -0.3824 -3.5929  0.6037
  993MOL0     H34040   4.962   7.320   1.266  0.3268  3.3439  1.7215
  993MOL0     H34041   6.792   6.714   0.749  1.2192 -0.0678 -0.7188
  993MOL0     H34042   6.994   6.702   0.604 -3.0042 -1.1108 -0.9435
  993MOL0     H34043   7.417   6.645   0.487  2.5821  1.9532 -0.8667
  993MOL0     H34044   7.625   6.642   0.406 -2.5692  0.4175 -1.3525
  993MOL0     H34045   7.988   6.526   0.396  0.8849 -0.4914 -0.8515
  993MOL0     H34046   7.848   6.616   0.340 -2.6557 -1.0816  1.1492
  993MOL0     H34047   7.800   6.689   0.581  0.0907 -1.2305  1.6740
  993MOL0     H34048   7.956   6.715   0.520 -2.0052  1.8590 -2.7300
  993MOL0     H34049   8.041   6.551   0.682  0.5542  0.3692 -1.8734
  993MOL0     H34050   7.908   6.449   0.672 -0.3843  1.5389 -1.8399
  993MOL0     H34051   7.880   6.540   0.890  2.0172 -0.0961  0.2657
  993MOL0     H34052   7.778   6.644   0.797 -0.8611 -0.6475  2.7644
  993MOL0     H34053   8.101   6.911   0.834 -1.0367  2.1512 -1.6012
  993MOL0     H34054   7.677   6.229   0.529 -0.7479  0.8138  3.5173
  993MOL0     H34055   7.446   6.234   0.605 -1.3641  0.5522 -0.3478
  994MOL0     O34056   8.289   6.565   2.470 -0.0130  0.1629 -0.2851
  994MOL0     C34057   8.329   6.616   2.579 -0.5828 -0.3306  1.3367
  994MOL0     O34058   8.334   6.551   2.695 -0.3479 -0.3208  0.3548
  994MOL0     C34059   8.301   6.424   2.703  1.1457  0.5033  0.5958
  994MOL0     C34060   8.352   6.322   2.618  0.2515 -0.5403  0.1267
  994MOL0     C34061   8.315   6.181   2.641 -0.4822  0.2133  0.7181
  994MOL0     C34062   8.223   6.145   2.741  0.2208  0.1419  0.1853
  994MOL0     O34063   8.157   6.020   2.734  0.0595 -0.2493 -0.7640
  994MOL0     C34064   8.127   5.953   2.609 -0.5082 -0.5168  0.6105
  994MOL0     C34065   8.032   5.838   2.638 -0.0971  0.3472 -0.1205
  994MOL0     C34066   7.891   5.881   2.679  0.6988  0.5819  0.3278
  994MOL0     C34067   7.789   5.768   2.714  0.2415  0.1274 -0.2168
  994MOL0     C34068   7.651   5.825   2.743  0.0148 -1.1196  0.1858
  994MOL0     C34069   7.561   5.701   2.783  0.0284  0.9162  0.0786
  994MOL0     C34070   7.412   5.743   2.785 -0.4958 -0.3466  0.2812
  994MOL0     C34071   7.388   5.795   2.928  0.4955 -0.5443  0.0608
  994MOL0     N34072   7.255   5.843   2.945  0.2934 -0.0161  0.8112
  994MOL0     C34073   7.206   5.963   2.904  0.4108 -0.1348 -0.2547
  994MOL0     C34074   7.064   5.952   2.916 -0.1271  0.2377 -0.0116
  994MOL0     C34075   6.952   6.046   2.887 -0.1888 -0.0611 -0.0065
  994MOL0     C34076   6.804   6.012   2.939 -0.2494 -0.7563 -0.7993
  994MOL0     C34077   6.742   5.886   2.880  0.4469 -1.3794  1.2832
  994MOL0     C34078   6.597   5.879   2.929  0.1873 -1.0643 -1.3526
  994MOL0     O34079   6.530   6.005   2.938  0.8986 -0.4603  0.1799
  994MOL0     C34080   6.405   6.017   2.994  0.5543 -0.1726 -0.9054
  994MOL0     C34081   6.326   5.902   3.021 -0.5565 -0.8796  0.5520
  994MOL0     C34082   6.202   5.913   3.087  0.1134  0.0477 -0.7145
  994MOL0     C34083   6.131   5.776   3.109 -0.4421  0.3502  0.3520
  994MOL0     C34084   6.158   6.040   3.135  0.1153  0.3335 -0.6080
  994MOL0     C34085   6.040   6.056   3.224 -0.0271  0.3365 -0.0166
  994MOL0     O34086   6.011   6.181   3.252  1.1532 -0.2408 -0.7186
  994MOL0     C34087   5.919   6.202   3.358 -0.1023  0.5313  0.0025
  994MOL0     C34088   5.960   6.237   3.489 -0.2931 -0.1658 -0.3841
  994MOL0     C34089   5.866   6.265   3.590 -0.1818 -0.4627  0.1925
  994MOL0     C34090   5.728   6.242   3.569 -0.1809 -0.4130  0.8861
  994MOL0     O34091   5.652   6.276   3.680  0.7815 -0.5599  0.5324
  994MOL0     C34092   5.519   6.263   3.657  0.1705  0.0995 -0.0419
  994MOL0     C34093   5.432   6.350   3.756 -0.0580 -0.7014 -0.1746
  994MOL0     C34094   5.469   6.499   3.738 -0.2634  0.2867 -1.2679
  994MOL0     C34095   5.458   6.546   3.588 -0.2776  0.2035 -0.1778
  994MOL0     C34096   5.539   6.678   3.563 -0.0497  0.6905 -0.2349
  994MOL0     C34097   5.684   6.640   3.544  0.3008 -0.0704 -0.5972
  994MOL0     C34098   5.769   6.770   3.511 -0.5261 -0.6685  0.2317
  994MOL0     C34099   5.884   6.729   3.418  0.7371  1.3007  0.4914
  994MOL0    Cl34100   5.975   6.584   3.486  0.1409  0.3336  0.0745
  994MOL0     C34101   5.692   6.181   3.445  0.3494 -0.7920 -0.6403
  994MOL0     C34102   5.778   6.187   3.335 -0.5204 -0.2046  0.3828
  994MOL0     O34103   5.978   5.957   3.268  0.9288 -0.2626 -0.6016
  994MOL0     C34104   6.232   6.150   3.097  0.1551  0.4685 -0.5189
  994MOL0     C34105   6.360   6.142   3.042  0.2550  0.7403  0.0505
  994MOL0     N34106   7.040   5.827   2.972 -0.1122 -0.6528  0.7387
  994MOL0     N34107   7.154   5.764   2.979 -0.4680  0.9028  0.0261
  994MOL0     C34108   8.183   6.246   2.828 -0.4543  0.7084 -0.3445
  994MOL0     C34109   8.219   6.379   2.806  0.5389 -0.4411  0.0190
  994MOL0     C34110   8.374   6.757   2.565  0.1135  0.9340  0.1394
  994MOL0     C34111   8.348   6.828   2.449  0.0004  0.3218  1.3442
  994MOL0     C34112   8.390   6.961   2.451  0.0893  0.6492 -0.4844
  994MOL0     C34113   8.471   7.017   2.553  1.2568 -0.0063  0.1391
  994MOL0     O34114   8.504   7.151   2.530 -1.1857 -0.3299 -0.9062
  994MOL0     C34115   8.600   7.203   2.630  0.7422 -0.5354  0.1739
  994MOL0     C34116   8.656   7.339   2.585  0.3597 -0.6314 -1.0236
  994MOL0     C34117   8.774   7.394   2.674  0.4716  0.7126 -0.3089
  994MOL0     C34118   8.802   7.541   2.640 -0.3820 -0.0151  0.4703
  994MOL0     C34119   8.694   7.633   2.673 -0.7836 -0.6985  1.0390
  994MOL0     C34120   8.616   7.722   2.692  0.2505 -0.5236  1.5832
  994MOL0     C34121   8.496   6.944   2.664  0.1866  1.0341  0.4415
  994MOL0     C34122   8.446   6.811   2.668 -0.2640  0.0464 -1.3085
  994MOL0     H34123   8.421   6.349   2.539  1.9950 -0.3756  1.6479
  994MOL0     H34124   8.352   6.102   2.576 -0.7338 -0.6837  1.6320
  994MOL0     H34125   8.088   6.027   2.538 -5.7245 -2.0791  1.4272
  994MOL0     H34126   8.222   5.908   2.580 -1.6288 -2.4284 -0.2565
  994MOL0     H34127   8.034   5.766   2.555 -3.7953 -1.7792  1.4015
  994MOL0     H34128   8.067   5.776   2.721 -0.8218 -0.0150 -0.0807
  994MOL0     H34129   7.891   5.937   2.773 -1.7071  0.4116  0.4728
  994MOL0     H34130   7.852   5.953   2.606 -0.0467 -2.1908 -2.1845
  994MOL0     H34131   7.784   5.697   2.631  0.5564 -0.5798  0.3543
  994MOL0     H34132   7.811   5.721   2.811  1.5677  3.4019  1.2140
  994MOL0     H34133   7.650   5.899   2.824 -5.4456 -1.5772  0.8966
  994MOL0     H34134   7.606   5.876   2.657 -1.5618  1.0984  2.1672
  994MOL0     H34135   7.562   5.616   2.714  1.0471  1.4438 -0.5917
  994MOL0     H34136   7.592   5.669   2.883  2.2239  1.9996 -0.1910
  994MOL0     H34137   7.388   5.817   2.709  0.1739 -0.5900 -0.1811
  994MOL0     H34138   7.343   5.664   2.754 -1.6350  0.8751 -0.4003
  994MOL0     H34139   7.464   5.867   2.960  1.9047 -1.1826 -1.6455
  994MOL0     H34140   7.394   5.721   3.008 -1.1960 -1.4035 -0.5485
  994MOL0     H34141   7.260   6.046   2.861  1.4135  0.2430  1.6107
  994MOL0     H34142   6.993   6.145   2.909 -1.2689  1.3999 -3.8282
  994MOL0     H34143   6.940   6.052   2.778  2.8986 -2.6018 -0.6609
  994MOL0     H34144   6.757   6.107   2.911  1.0441 -0.5011 -2.2407
  994MOL0     H34145   6.805   6.004   3.048 -3.2059 -0.0839 -0.6433
  994MOL0     H34146   6.786   5.791   2.910  0.1986 -1.6305  0.8678
  994MOL0     H34147   6.750   5.902   2.772  3.4290  0.3677  1.6441
  994MOL0     H34148   6.598   5.844   3.033  1.2506  0.8265 -0.6855
  994MOL0     H34149   6.551   5.806   2.862 -0.5824 -1.5626 -0.3164
  994MOL0     H34150   6.348   5.802   2.985  2.2685 -0.0494 -0.2860
  994MOL0     H34151   6.184   5.693   3.061  0.3550  0.9841  0.1049
  994MOL0     H34152   6.125   5.743   3.213  2.2914  1.3027  0.9038
  994MOL0     H34153   6.034   5.783   3.059  0.4688 -1.2431 -1.8176
  994MOL0     H34154   6.065   6.234   3.518 -0.4137 -4.2899  0.2751
  994MOL0     H34155   5.901   6.290   3.689  2.9422 -2.5659 -0.2460
  994MOL0     H34156   5.488   6.280   3.553 -1.7968 -1.9246  0.1258
  994MOL0     H34157   5.511   6.159   3.690 -0.7847  0.5594  1.2895
  994MOL0     H34158   5.326   6.342   3.730  0.1631 -2.6056 -0.6164
  994MOL0     H34159   5.443   6.317   3.859  1.8915 -3.7174 -1.2247
  994MOL0     H34160   5.570   6.508   3.779 -1.4685  0.9247  1.8300
  994MOL0     H34161   5.410   6.567   3.800  0.9497  0.8996 -0.7390
  994MOL0     H34162   5.500   6.471   3.520  1.6970 -0.2543  1.4670
  994MOL0     H34163   5.351   6.563   3.569  0.1679  0.9825 -2.2304
  994MOL0     H34164   5.524   6.750   3.645  1.1032  0.9279 -0.2072
  994MOL0     H34165   5.495   6.714   3.470  1.6366  2.1527 -0.5184
  994MOL0     H34166   5.723   6.592   3.634  0.0305  1.4309  0.3666
  994MOL0     H34167   5.693   6.579   3.454  2.4608  0.1626 -0.5843
  994MOL0     H34168   5.807   6.814   3.604  1.7326 -3.1455  0.6225
  994MOL0     H34169   5.716   6.851   3.460  0.4626  0.0888  0.3806
  994MOL0     H34170   5.950   6.811   3.387 -1.2387  1.6266 -3.6231
  994MOL0     H34171   5.851   6.711   3.315  4.4974  0.5658 -0.7521
  994MOL0     H34172   5.590   6.149   3.424 -0.1982  1.5192 -1.7382
  994MOL0     H34173   5.746   6.154   3.237 -2.8543  2.4696  0.1022
  994MOL0     H34174   6.190   6.248   3.118 -2.6096 -0.5423 -0.8740
  994MOL0     H34175   6.421   6.231   3.029 -1.1147  1.6011 -0.8184
  994MOL0     H34176   8.113   6.217   2.906 -0.6821  3.1813  0.4577
  994MOL0     H34177   8.175   6.453   2.872 -1.4279 -1.6261  0.0885
  994MOL0     H34178   8.288   6.786   2.369  0.0088  0.4368  1.2764
  994MOL0     H34179   8.370   7.025   2.365  1.8482 -0.0361 -1.4506
  994MOL0     H34180   8.538   7.224   2.717  1.3653  2.6252 -0.0219
  994MOL0     H34181   8.689   7.143   2.654  1.7243  1.0527  0.6465
  994MOL0     H34182   8.565   7.398   2.601 -0.3405 -2.4111  2.3350
  994MOL0     H34183   8.680   7.327   2.479 -1.4683 -0.5409 -1.4975
  994MOL0     H34184   8.856   7.323   2.661  1.6940  1.5206  2.3207
  994MOL0     H34185   8.749   7.391   2.781  0.2607 -1.2532 -0.3824
  994MOL0     H34186   8.829   7.550   2.534  2.9922  0.7011  1.2596
  994MOL0     H34187   8.892   7.577   2.691 -1.0920  3.5723 -0.5497
  994MOL0     H34188   8.537   7.791   2.716 -1.7091 -2.1370  0.0801
  994MOL0     H34189   8.554   6.982   2.747  0.2627  3.4166 -0.6271
  994MOL0     H34190   8.453   6.753   2.760 -0.1219  0.2871 -1.1675
  995MOL0     O34191  10.819   3.704   3.578 -0.2107 -0.0096  0.4213
  995MOL0     C34192  10.904   3.715   3.661  0.3185  0.0752  0.0874
  995MOL0     O34193  10.886   3.782   3.781 -1.0829  0.2892  0.6562
  995MOL0     C34194  10.757   3.818   3.816 -0.6116  0.3838 -0.1541
  995MOL0     C34195  10.672   3.735   3.886  0.6343  0.2678  0.4921
  995MOL0     C34196  10.538   3.793   3.917 -0.4211  0.6276  0.3683
  995MOL0     C34197  10.499   3.930   3.892  0.4008 -0.2680  0.3083
  995MOL0     O34198  10.374   3.987   3.928 -0.7139  0.6569  0.5636
  995MOL0     C34199  10.305   3.896   4.018  0.5350  0.4035 -0.4544
  995MOL0     C34200  10.182   3.965   4.061 -0.8816 -0.3267 -0.2124
  995MOL0     C34201  10.203   4.115   4.103  0.3998  0.0930  0.2324
  995MOL0     C34202  10.103   4.153   4.220  0.1506 -0.4809 -0.6152
  995MOL0     C34203  10.113   4.289   4.283  0.1584 -0.3780  0.4024
  995MOL0     C34204   9.995   4.319   4.374  0.4986  0.1433  0.0111
  995MOL0     C34205  10.004   4.451   4.443 -0.2673 -0.3252  0.6091
  995MOL0     C34206   9.894   4.479   4.539 -0.2248 -0.6373  0.3978
  995MOL0     N34207   9.759   4.477   4.473 -0.4204 -0.3710 -0.9585
  995MOL0     C34208   9.724   4.575   4.384  0.5766  0.0903 -0.1168
  995MOL0     C34209   9.591   4.560   4.365 -0.3954 -0.0259  0.0214
  995MOL0     C34210   9.499   4.637   4.267  0.1085 -0.1392 -0.6845
  995MOL0     C34211   9.496   4.558   4.135 -0.0910 -0.0248  0.2457
  995MOL0     C34212   9.439   4.646   4.025  0.3116  0.1154 -0.0353
  995MOL0     C34213   9.442   4.568   3.897 -0.0201  0.3668  0.4706
  995MOL0     O34214   9.375   4.439   3.900  1.0743  0.3151 -0.5157
  995MOL0     C34215   9.424   4.349   3.811  0.6153 -0.1568 -0.0451
  995MOL0     C34216   9.414   4.376   3.679 -0.5857 -0.7097  0.3200
  995MOL0     C34217   9.443   4.277   3.583  0.2455  0.5956  0.1148
  995MOL0     C34218   9.438   4.314   3.442 -0.0892 -0.3589 -0.6040
  995MOL0     C34219   9.467   4.140   3.629  0.6094 -0.7311 -0.0405
  995MOL0     C34220   9.473   4.014   3.546  0.6092 -0.3146  1.3334
  995MOL0     O34221   9.539   3.900   3.578  0.1491  0.0379 -0.7709
  995MOL0     C34222   9.539   3.800   3.482 -0.6358 -0.3544 -0.7607
  995MOL0     C34223   9.599   3.809   3.356 -0.0586  0.4499  0.6187
  995MOL0     C34224   9.595   3.700   3.267 -0.1898  0.3717 -0.3184
  995MOL0     C34225   9.521   3.582   3.302  0.8849  0.2235  0.0433
  995MOL0     O34226   9.531   3.478   3.217 -0.2683 -0.3313 -0.0688
  995MOL0     C34227   9.492   3.513   3.085  0.5112  1.5765  0.3363
  995MOL0     C34228   9.488   3.387   3.002  0.1260  0.2057 -0.5246
  995MOL0     C34229   9.351   3.374   2.925 -0.7353  1.0465 -0.0944
  995MOL0     C34230   9.379   3.259   2.826 -0.1651  0.4670  0.0484
  995MOL0     C34231   9.272   3.265   2.714 -0.4913 -0.1288 -0.2449
  995MOL0     C34232   9.272   3.151   2.615  0.4485  0.2601  0.7545
  995MOL0     C34233   9.403   3.135   2.529  0.9630 -0.3384 -0.3866
  995MOL0     C34234   9.382   3.119   2.379 -0.8111 -0.2891  0.7131
  995MOL0    Cl34235   9.290   2.975   2.355  0.1283  0.3225  0.1312
  995MOL0     C34236   9.462   3.576   3.425  0.5082 -0.7006  0.4403
  995MOL0     C34237   9.472   3.680   3.510  0.5429 -0.3271 -0.6082
  995MOL0     O34238   9.399   4.017   3.445 -0.0235 -0.6976  0.1198
  995MOL0     C34239   9.484   4.118   3.768 -0.1474  0.1674  0.2964
  995MOL0     C34240   9.462   4.221   3.858 -0.4663  1.0585  0.4289
  995MOL0     N34241   9.546   4.450   4.441 -0.9085  0.4139  0.4117
  995MOL0     N34242   9.655   4.406   4.508  0.9582  0.2200 -0.4487
  995MOL0     C34243  10.600   4.004   3.827  0.7293  0.0359 -0.1691
  995MOL0     C34244  10.724   3.952   3.796 -0.8465  0.2968 -0.0165
  995MOL0     C34245  11.043   3.672   3.614  0.6047 -0.0289 -1.0496
  995MOL0     C34246  11.143   3.666   3.706 -0.0523 -0.5059 -0.4833
  995MOL0     C34247  11.274   3.623   3.678  0.4538  0.0828  0.6274
  995MOL0     C34248  11.295   3.565   3.557 -0.7209  0.3572  0.6682
  995MOL0     O34249  11.420   3.520   3.525 -0.0088 -0.1288 -0.6876
  995MOL0     C34250  11.423   3.378   3.503  0.1495  0.0804 -0.7135
  995MOL0     C34251  11.420   3.292   3.616  0.3064  0.7203 -0.1286
  995MOL0     C34252  11.429   3.143   3.552 -0.4455 -0.3966 -0.4206
  995MOL0     C34253  11.452   3.041   3.673  0.1994 -0.0091 -0.2260
  995MOL0     C34254  11.442   2.901   3.642  0.3463 -0.5570  1.3482
  995MOL0     C34255  11.423   2.780   3.619 -0.8389 -0.9289 -0.0277
  995MOL0     C34256  11.196   3.561   3.461 -0.2226  0.8205  0.8465
  995MOL0     C34257  11.071   3.605   3.496  0.2904 -0.3214 -0.1286
  995MOL0     H34258  10.699   3.631   3.905  2.5706  0.7769  0.6811
  995MOL0     H34259  10.477   3.719   3.968  1.5687 -1.7793 -0.5380
  995MOL0     H34260  10.282   3.802   3.968 -0.3459 -0.9905  2.4122
  995MOL0     H34261  10.365   3.863   4.103 -1.6826 -2.3315  0.1631
  995MOL0     H34262  10.115   3.953   3.975 -0.9561 -0.4460 -0.1384
  995MOL0     H34263  10.136   3.913   4.145 -1.3031  1.4142  0.6701
  995MOL0     H34264  10.306   4.145   4.124  1.3064 -2.0260 -0.8554
  995MOL0     H34265  10.169   4.166   4.013  1.5755 -0.3165 -0.4666
  995MOL0     H34266   9.998   4.137   4.195  0.3403  1.3583 -2.8748
  995MOL0     H34267  10.124   4.087   4.305  1.3417 -0.0994 -0.5906
  995MOL0     H34268  10.214   4.299   4.325  1.9428 -0.6175 -3.4238
  995MOL0     H34269  10.106   4.359   4.200 -0.9651 -1.4947 -0.4870
  995MOL0     H34270   9.901   4.306   4.319  0.5717 -4.0806  0.5543
  995MOL0     H34271   9.996   4.247   4.456  1.2748  1.9702  1.7135
  995MOL0     H34272  10.096   4.442   4.501  1.1290  1.1669 -1.2364
  995MOL0     H34273  10.014   4.529   4.366  1.1524 -0.7111  0.3658
  995MOL0     H34274   9.912   4.573   4.591  2.5760  0.0203 -1.5560
  995MOL0     H34275   9.894   4.402   4.617  0.8882  0.5273  1.6020
  995MOL0     H34276   9.778   4.644   4.320  1.7296 -2.7051 -2.3545
  995MOL0     H34277   9.399   4.644   4.312  0.6632 -2.1089  1.0156
  995MOL0     H34278   9.533   4.739   4.251  1.4754 -0.4172  0.2360
  995MOL0     H34279   9.456   4.456   4.141 -0.8747  0.0224 -2.5907
  995MOL0     H34280   9.598   4.550   4.096 -0.1767 -0.1038  0.0336
  995MOL0     H34281   9.507   4.731   4.013 -0.8436  0.8707 -1.4550
  995MOL0     H34282   9.333   4.672   4.031  0.2777  0.5156 -1.8787
  995MOL0     H34283   9.545   4.547   3.867 -0.1624 -2.2901  1.4899
  995MOL0     H34284   9.395   4.636   3.825 -0.0866  2.2501  2.2142
  995MOL0     H34285   9.366   4.470   3.656 -1.9263 -1.5018 -0.2198
  995MOL0     H34286   9.353   4.264   3.393 -0.5077  0.3439 -0.5958
  995MOL0     H34287   9.427   4.422   3.441 -0.7572 -0.3817  1.2815
  995MOL0     H34288   9.527   4.269   3.397 -0.5653 -1.8592 -0.1159
  995MOL0     H34289   9.664   3.894   3.335 -2.7018  2.4316 -0.0919
  995MOL0     H34290   9.650   3.725   3.176 -0.9193  1.3979 -0.4931
  995MOL0     H34291   9.389   3.550   3.091 -1.0510 -2.4405  1.7032
  995MOL0     H34292   9.548   3.590   3.031  0.3679  1.4310 -0.0226
  995MOL0     H34293   9.575   3.395   2.936 -0.1069  0.4351 -0.8026
  995MOL0     H34294   9.500   3.301   3.070 -1.0392  0.4892  0.0647
  995MOL0     H34295   9.342   3.464   2.863  2.9724  1.4423 -0.2865
  995MOL0     H34296   9.262   3.361   2.988  0.4348  1.9990  1.8732
  995MOL0     H34297   9.477   3.257   2.778 -1.5911 -1.9565 -3.2233
  995MOL0     H34298   9.369   3.163   2.877  2.4085 -0.5806 -1.2370
  995MOL0     H34299   9.285   3.358   2.658 -1.4684  0.5357  0.5845
  995MOL0     H34300   9.173   3.279   2.758 -0.9612  1.6252 -1.7330
  995MOL0     H34301   9.252   3.059   2.672 -1.1982  2.0380  3.2487
  995MOL0     H34302   9.182   3.181   2.560  1.0035  3.2323  1.2947
  995MOL0     H34303   9.464   3.053   2.567  1.9145 -1.2275 -3.4865
  995MOL0     H34304   9.470   3.220   2.547  3.2635 -2.2645  0.7861
  995MOL0     H34305   9.483   3.096   2.343 -1.0705 -1.3896  0.6796
  995MOL0     H34306   9.338   3.197   2.315  0.9839  0.4725  0.3321
  995MOL0     H34307   9.412   3.484   3.453  1.3792 -0.4952  2.9272
  995MOL0     H34308   9.417   3.668   3.602 -0.0184 -0.4852 -0.9617
  995MOL0     H34309   9.483   4.014   3.799 -0.1380 -0.2961 -1.1729
  995MOL0     H34310   9.473   4.192   3.962  1.5347 -3.4265 -0.8069
  995MOL0     H34311  10.579   4.108   3.802  0.2594  0.1254  0.5659
  995MOL0     H34312  10.788   4.015   3.735 -0.6957  0.2043  0.0473
  995MOL0     H34313  11.132   3.711   3.804  0.5950 -0.9481 -0.1997
  995MOL0     H34314  11.353   3.632   3.752 -0.4685 -1.2505  1.8543
  995MOL0     H34315  11.335   3.344   3.448 -1.0281  2.0171 -0.1276
  995MOL0     H34316  11.515   3.362   3.446  0.7509 -1.6587  0.6805
  995MOL0     H34317  11.327   3.308   3.672 -0.4528 -1.0087 -0.8298
  995MOL0     H34318  11.502   3.309   3.686 -0.2911 -0.7246  0.9850
  995MOL0     H34319  11.499   3.122   3.471  1.0986  0.4323  0.6364
  995MOL0     H34320  11.329   3.123   3.514 -1.4322  1.4649  0.9818
  995MOL0     H34321  11.373   3.062   3.745  0.0591 -0.0308 -0.3715
  995MOL0     H34322  11.550   3.057   3.717 -0.0702 -0.4705  0.5562
  995MOL0     H34323  11.419   2.674   3.603 -1.9281 -0.5837 -2.5875
  995MOL0     H34324  11.227   3.503   3.375  1.5108  1.2499  1.1332
  995MOL0     H34325  10.999   3.574   3.421  2.3294 -0.9318 -1.9617
  996MOL0     O34326  10.578  11.012   6.058  0.8740  0.3243 -1.0357
  996MOL0     C34327  10.540  11.090   6.149 -0.3416 -0.0087  0.1381
  996MOL0     O34328  10.412  11.136   6.177 -0.4602  0.8867  0.4884
  996MOL0     C34329  10.302  11.085   6.110 -0.1979  0.0931 -0.0115
  996MOL0     C34330  10.296  11.017   5.983 -1.1100 -0.7995 -0.0085
  996MOL0     C34331  10.175  10.999   5.917  0.5797  0.2975  0.3405
  996MOL0     C34332  10.059  11.031   5.984  0.5275  0.2666 -0.1380
  996MOL0     O34333   9.933  11.006   5.927 -0.4538 -0.2505 -0.2545
  996MOL0     C34334   9.928  10.895   5.837 -0.1507 -0.1222  0.0181
  996MOL0     C34335   9.780  10.867   5.810 -0.2303 -0.9670  0.4930
  996MOL0     C34336   9.761  10.860   5.653 -0.6397  0.2064 -0.3267
  996MOL0     C34337   9.621  10.835   5.633  0.5525 -0.3037  0.8573
  996MOL0     C34338   9.609  10.773   5.499  0.4692 -0.0595  0.0187
  996MOL0     C34339   9.463  10.750   5.465 -0.5050 -0.2265 -0.1006
  996MOL0     C34340   9.400  10.626   5.520  0.7192  0.7325 -0.6336
  996MOL0     C34341   9.251  10.620   5.484  0.2087 -0.1048  0.4923
  996MOL0     N34342   9.198  10.497   5.541  0.3270 -0.4390  0.9789
  996MOL0     C34343   9.223  10.378   5.468 -0.0050  0.0773 -0.2573
  996MOL0     C34344   9.185  10.280   5.553  0.1288 -0.5741 -0.2745
  996MOL0     C34345   9.162  10.137   5.519  0.6473  0.8433  0.9504
  996MOL0     C34346   9.063  10.120   5.399 -0.2901 -0.0908  1.0686
  996MOL0     C34347   9.070   9.965   5.355 -0.5684  0.0664 -0.7420
  996MOL0     C34348   8.965   9.933   5.246 -0.0711 -0.8395 -0.5067
  996MOL0     O34349   8.829   9.974   5.269 -0.0677 -0.1468 -0.6386
  996MOL0     C34350   8.745   9.902   5.350 -0.1218  0.3908  0.2190
  996MOL0     C34351   8.766   9.773   5.396  0.1219  0.1410 -0.4325
  996MOL0     C34352   8.667   9.698   5.466  0.7154 -0.4041 -0.2056
  996MOL0     C34353   8.715   9.554   5.514 -0.5146 -0.1748  0.8984
  996MOL0     C34354   8.538   9.758   5.483 -0.2274 -0.7774  0.4493
  996MOL0     C34355   8.431   9.685   5.559 -0.3607  0.5058  0.4990
  996MOL0     O34356   8.314   9.752   5.586 -0.4086 -0.6483 -0.3711
  996MOL0     C34357   8.215   9.711   5.670  0.3525  0.2234  0.4764
  996MOL0     C34358   8.186   9.577   5.686 -0.0064 -0.0300 -0.6627
  996MOL0     C34359   8.074   9.529   5.761 -0.7280  0.0323  0.5974
  996MOL0     C34360   8.001   9.617   5.837 -0.7255 -0.2231 -0.0815
  996MOL0     O34361   7.905   9.580   5.924 -0.1243  0.0273 -0.5976
  996MOL0     C34362   7.803   9.494   5.865 -0.4081  0.0624  0.6555
  996MOL0     C34363   7.719   9.443   5.983 -0.2798  0.4824 -1.0675
  996MOL0     C34364   7.576   9.391   5.946  0.5236 -0.3052  0.1148
  996MOL0     C34365   7.482   9.370   6.074 -1.0617 -0.1426 -0.2735
  996MOL0     C34366   7.381   9.259   6.062  0.0417 -0.4221 -0.9059
  996MOL0     C34367   7.320   9.237   6.207  0.0068 -0.6434  0.2801
  996MOL0     C34368   7.253   9.360   6.260 -0.8007 -0.8743  0.2410
  996MOL0     C34369   7.162   9.325   6.380  0.3573 -0.2578  0.6837
  996MOL0    Cl34370   7.255   9.257   6.507  0.1141 -0.2302  0.1625
  996MOL0     C34371   8.039   9.753   5.833 -0.2849  0.5416 -0.4685
  996MOL0     C34372   8.145   9.796   5.756 -0.2053 -0.4428  0.6456
  996MOL0     O34373   8.456   9.569   5.591  0.0392  0.0523  0.5145
  996MOL0     C34374   8.515   9.881   5.419  0.6951  0.7207  0.0890
  996MOL0     C34375   8.614   9.956   5.355 -0.2093 -0.1524  0.7163
  996MOL0     N34376   9.132  10.337   5.674  0.5359 -0.3840 -0.5240
  996MOL0     N34377   9.162  10.463   5.667  0.2109  0.1406 -0.2566
  996MOL0     C34378  10.062  11.094   6.108 -0.5177 -0.0811 -0.2504
  996MOL0     C34379  10.181  11.127   6.168  0.1572 -0.0521 -0.2023
  996MOL0     C34380  10.638  11.128   6.260 -0.3850 -0.1451  0.2961
  996MOL0     C34381  10.612  11.092   6.397 -0.4868 -0.2200 -0.5198
  996MOL0     C34382  10.707  11.115   6.500 -0.0125  0.1198 -0.4250
  996MOL0     C34383  10.836  11.178   6.469  0.4088  0.5809 -0.5126
  996MOL0     O34384  10.917  11.220   6.574 -0.6529  0.1757 -0.0410
  996MOL0     C34385  10.887  11.191   6.710  0.5119 -0.4411 -0.3756
  996MOL0     C34386  10.946  11.308   6.795 -0.2884 -0.1540  0.4525
  996MOL0     C34387  10.890  11.289   6.941 -0.9537  0.6807  0.4257
  996MOL0     C34388  10.930  11.406   7.042  0.2340  0.3039  0.1161
  996MOL0     C34389  11.063  11.456   7.013 -0.8131 -0.7737  0.6685
  996MOL0     C34390  11.174  11.495   6.990  0.3018 -0.4446  0.1915
  996MOL0     C34391  10.853  11.224   6.340  0.2995  0.1320 -0.7531
  996MOL0     C34392  10.765  11.189   6.228 -0.2577 -0.4276 -0.5961
  996MOL0     H34393  10.386  11.016   5.922  0.2032  4.1971  1.3495
  996MOL0     H34394  10.185  10.961   5.816 -0.9497  0.5387  0.0768
  996MOL0     H34395   9.980  10.918   5.744 -0.9976 -0.6736 -0.6072
  996MOL0     H34396   9.985  10.810   5.875  3.1812  1.9627  0.0523
  996MOL0     H34397   9.735  10.780   5.859 -2.0982  0.9124  2.3455
  996MOL0     H34398   9.724  10.954   5.845  1.3157 -0.5190  2.0069
  996MOL0     H34399   9.794  10.954   5.610 -2.3174  1.0635  0.1817
  996MOL0     H34400   9.831  10.787   5.612  0.5086  2.7415 -3.2043
  996MOL0     H34401   9.579  10.763   5.704 -0.9468 -0.3911 -0.0561
  996MOL0     H34402   9.560  10.924   5.652 -0.5183 -0.7319 -0.3879
  996MOL0     H34403   9.657  10.848   5.436 -0.8468  1.4731  0.7546
  996MOL0     H34404   9.669  10.681   5.502  2.3442  1.1368  1.6790
  996MOL0     H34405   9.415  10.833   5.516  1.9082  0.5923  0.9764
  996MOL0     H34406   9.443  10.752   5.357 -0.7657  0.3161 -0.0452
  996MOL0     H34407   9.450  10.538   5.479  1.8603  0.4412  1.2233
  996MOL0     H34408   9.413  10.617   5.628 -4.4014  2.0116  0.3383
  996MOL0     H34409   9.233  10.627   5.377 -1.3714  0.7606  0.7783
  996MOL0     H34410   9.203  10.712   5.518  1.5588  0.7506  0.1475
  996MOL0     H34411   9.250  10.374   5.363 -0.6383  0.5120 -0.4458
  996MOL0     H34412   9.258  10.088   5.497  0.4348  0.5176  0.7340
  996MOL0     H34413   9.108  10.094   5.604 -2.2050 -1.3166 -1.7452
  996MOL0     H34414   9.097  10.182   5.315  2.5678  0.1985  2.3306
  996MOL0     H34415   8.957  10.147   5.409 -0.8199 -2.3497  2.2219
  996MOL0     H34416   9.044   9.906   5.444 -1.2343 -0.0599 -1.0110
  996MOL0     H34417   9.173   9.941   5.326 -0.3838  0.0618 -0.0979
  996MOL0     H34418   8.959   9.826   5.224 -2.8826 -1.0021  0.6327
  996MOL0     H34419   8.999   9.984   5.155  1.8353 -1.3943 -0.1554
  996MOL0     H34420   8.865   9.728   5.391 -0.3334 -0.9015 -0.1491
  996MOL0     H34421   8.666   9.480   5.449  1.2742 -1.0112  0.4390
  996MOL0     H34422   8.824   9.547   5.505 -0.2830  2.8166  0.3661
  996MOL0     H34423   8.701   9.525   5.618  0.9960 -1.0718  0.8891
  996MOL0     H34424   8.234   9.522   5.606 -0.8891  1.3992 -2.2410
  996MOL0     H34425   8.044   9.425   5.756 -4.0889  0.8351  1.6704
  996MOL0     H34426   7.742   9.552   5.795 -0.2336 -1.6712 -1.0188
  996MOL0     H34427   7.845   9.414   5.804  0.1246  2.0018 -1.7090
  996MOL0     H34428   7.767   9.363   6.039 -0.2099 -1.8357 -4.1657
  996MOL0     H34429   7.699   9.526   6.052  0.8090 -0.6147  0.6345
  996MOL0     H34430   7.594   9.298   5.891 -2.9948 -0.9443 -0.1751
  996MOL0     H34431   7.528   9.458   5.874  0.9800 -1.1345 -1.0012
  996MOL0     H34432   7.541   9.355   6.166 -0.2652 -1.6168 -0.9967
  996MOL0     H34433   7.433   9.468   6.078  3.5934  2.4954 -0.9463
  996MOL0     H34434   7.436   9.170   6.030  1.6833 -0.8749  2.7135
  996MOL0     H34435   7.308   9.279   5.983 -0.7528 -1.7001 -0.5358
  996MOL0     H34436   7.263   9.143   6.212 -0.5943 -0.2751  0.5619
  996MOL0     H34437   7.403   9.204   6.270 -0.5874  0.8935  1.9490
  996MOL0     H34438   7.182   9.405   6.190  0.4659  1.1561  0.2153
  996MOL0     H34439   7.330   9.434   6.279 -0.5911 -1.6327  2.6339
  996MOL0     H34440   7.086   9.257   6.341  0.8749  0.1424 -1.0940
  996MOL0     H34441   7.117   9.418   6.416  1.2056  0.4539 -0.0412
  996MOL0     H34442   7.992   9.832   5.890  0.1191  1.8145 -1.8443
  996MOL0     H34443   8.173   9.901   5.751 -0.8697 -0.3315 -1.5368
  996MOL0     H34444   8.421   9.931   5.438  0.6379  0.3893  0.6950
  996MOL0     H34445   8.590  10.056   5.318 -1.0914 -0.2626  0.9792
  996MOL0     H34446   9.964  11.125   6.142 -1.3649 -2.5069 -0.2777
  996MOL0     H34447  10.171  11.191   6.255 -1.0132 -0.6562  0.1298
  996MOL0     H34448  10.517  11.052   6.432  0.6608 -1.0919  1.8546
  996MOL0     H34449  10.673  11.081   6.598  0.2290 -1.0368 -0.7365
  996MOL0     H34450  10.778  11.192   6.726 -0.0113 -2.6894 -3.1023
  996MOL0     H34451  10.931  11.094   6.732 -1.7457 -2.0652 -2.4625
  996MOL0     H34452  10.911  11.405   6.759 -0.7659 -0.8208 -0.9550
  996MOL0     H34453  11.055  11.296   6.790 -0.5087 -3.0223  0.9017
  996MOL0     H34454  10.939  11.203   6.987  0.3554  1.6144  0.8783
  996MOL0     H34455  10.783  11.271   6.949 -0.8955  0.0131 -0.2436
  996MOL0     H34456  10.932  11.372   7.146 -0.5030 -2.1709 -0.6044
  996MOL0     H34457  10.854  11.482   7.022  0.8958  0.4448 -2.1928
  996MOL0     H34458  11.279  11.513   6.979  0.2541 -1.0821 -1.6043
  996MOL0     H34459  10.946  11.277   6.324  0.8095  0.0215  1.5096
  996MOL0     H34460  10.789  11.223   6.128 -1.6027  0.6296 -0.5756
  997MOL0     O34461  10.180   0.712   6.580 -0.1396  0.3701  0.0145
  997MOL0     C34462  10.235   0.615   6.526 -0.1628  0.0520  0.7201
  997MOL0     O34463  10.181   0.488   6.516  0.1547 -0.7992 -0.1947
  997MOL0     C34464  10.050   0.470   6.558 -0.3891 -0.6298 -0.4198
  997MOL0     C34465  10.008   0.506   6.686 -0.3312 -0.3713  0.1309
  997MOL0     C34466   9.875   0.503   6.721  0.2393 -0.5307  1.5363
  997MOL0     C34467   9.774   0.474   6.633  0.5369  0.1879 -0.0434
  997MOL0     O34468   9.645   0.477   6.682  0.5066  0.0572  0.9591
  997MOL0     C34469   9.541   0.482   6.590 -0.2482  0.5427 -0.4023
  997MOL0     C34470   9.416   0.511   6.672 -0.1698  0.3941 -0.8627
  997MOL0     C34471   9.408   0.635   6.752  0.0501 -0.0709  0.5617
  997MOL0     C34472   9.441   0.762   6.676 -0.1243 -0.3262 -0.1329
  997MOL0     C34473   9.349   0.772   6.543 -0.1482  0.8883  0.6123
  997MOL0     C34474   9.199   0.789   6.566 -0.3208  0.0620  0.2702
  997MOL0     C34475   9.116   0.775   6.437  0.7690 -0.1076  0.4289
  997MOL0     C34476   8.972   0.833   6.456  0.4726  0.0189  0.5455
  997MOL0     N34477   8.891   0.725   6.517 -0.2650  0.0274  0.2794
  997MOL0     C34478   8.828   0.632   6.439  0.6458  0.0825  0.5700
  997MOL0     C34479   8.744   0.570   6.525 -1.6413  0.0804 -0.1679
  997MOL0     C34480   8.625   0.496   6.493  0.1722  0.7416  0.1110
  997MOL0     C34481   8.498   0.571   6.485  0.0668  0.5849  0.1856
  997MOL0     C34482   8.387   0.479   6.437 -1.0626  0.1111 -0.4927
  997MOL0     C34483   8.250   0.561   6.447  0.2870 -0.9971 -0.1243
  997MOL0     O34484   8.170   0.563   6.321  0.7115 -1.0348  0.8455
  997MOL0     C34485   8.044   0.614   6.310  0.5504  0.7987 -0.0007
  997MOL0     C34486   7.996   0.589   6.186  0.5621  0.8261 -0.4330
  997MOL0     C34487   7.873   0.620   6.156  0.3748 -0.2590  0.8460
  997MOL0     C34488   7.822   0.608   6.011  0.5585 -0.5659 -0.0237
  997MOL0     C34489   7.784   0.672   6.251 -0.9275 -0.9087 -0.4650
  997MOL0     C34490   7.636   0.675   6.246  0.0403 -1.0903  0.1035
  997MOL0     O34491   7.570   0.619   6.139  0.9797 -0.5697  0.4089
  997MOL0     C34492   7.433   0.610   6.151  0.5025  0.5580 -0.1378
  997MOL0     C34493   7.349   0.718   6.162 -0.2108  0.0261  0.0573
  997MOL0     C34494   7.208   0.704   6.162 -0.8378  0.5748 -0.0627
  997MOL0     C34495   7.148   0.575   6.147  1.4691  0.3353  0.3490
  997MOL0     O34496   7.015   0.537   6.149  0.0837 -0.1047 -0.1857
  997MOL0     C34497   6.905   0.625   6.168 -0.1940 -0.0882 -0.1890
  997MOL0     C34498   6.790   0.528   6.215 -0.3082 -0.5901 -0.0233
  997MOL0     C34499   6.668   0.633   6.219 -0.2587  0.5897 -0.1463
  997MOL0     C34500   6.539   0.572   6.267 -0.5213  0.2433 -0.9850
  997MOL0     C34501   6.536   0.558   6.417  0.0411 -0.7279 -0.7696
  997MOL0     C34502   6.400   0.511   6.466  0.4226  0.4346  0.6040
  997MOL0     C34503   6.282   0.604   6.443 -0.5736  0.6302 -0.4143
  997MOL0     C34504   6.154   0.563   6.526  0.2755  0.2049 -0.4844
  997MOL0    Cl34505   6.044   0.702   6.557 -0.2075 -0.2388  0.0788
  997MOL0     C34506   7.234   0.472   6.125  0.3339  0.6596  0.4183
  997MOL0     C34507   7.372   0.484   6.114 -0.6961 -0.1304 -0.1455
  997MOL0     O34508   7.578   0.751   6.334 -0.0167  0.2256  0.2988
  997MOL0     C34509   7.838   0.709   6.378 -0.0816  0.2418 -0.1957
  997MOL0     C34510   7.969   0.676   6.406 -0.7091  0.7081 -0.1768
  997MOL0     N34511   8.765   0.617   6.653  0.2240 -0.7221 -1.1025
  997MOL0     N34512   8.842   0.719   6.641 -0.1288  0.1616 -0.5482
  997MOL0     C34513   9.811   0.449   6.497  0.6866  0.9561  0.4278
  997MOL0     C34514   9.951   0.450   6.466 -0.2241  0.1820  0.2780
  997MOL0     C34515  10.380   0.618   6.477  1.2064 -0.5341 -0.3082
  997MOL0     C34516  10.436   0.504   6.433  0.2532 -0.0853 -0.0161
  997MOL0     C34517  10.576   0.506   6.405  0.3885 -0.0738 -1.0022
  997MOL0     C34518  10.646   0.630   6.407 -0.1240  0.1972 -0.6980
  997MOL0     O34519  10.783   0.620   6.377  0.4782  0.0631  0.3019
  997MOL0     C34520  10.876   0.734   6.389  1.3612  0.0396 -0.4905
  997MOL0     C34521  11.014   0.693   6.346 -0.3559  0.5110  0.0613
  997MOL0     C34522  11.119   0.803   6.402 -0.4542  0.7112 -0.4653
  997MOL0     C34523  11.097   0.947   6.352  0.4777 -0.2259  0.6665
  997MOL0     C34524  10.989   1.019   6.431  0.0297 -0.1271 -0.0200
  997MOL0     C34525  10.906   1.081   6.496 -0.7902  0.1992  0.0836
  997MOL0     C34526  10.581   0.742   6.460 -0.4840 -0.8962 -0.5204
  997MOL0     C34527  10.451   0.734   6.497 -0.0642 -0.3669  0.2330
  997MOL0     H34528  10.079   0.516   6.767 -1.9692  1.6691  1.4241
  997MOL0     H34529   9.838   0.528   6.820 -3.3479 -3.0835  1.0455
  997MOL0     H34530   9.553   0.547   6.502  2.0196  1.2632  0.3688
  997MOL0     H34531   9.516   0.383   6.552  2.8963 -0.7743  0.6516
  997MOL0     H34532   9.333   0.501   6.602 -1.8990  0.4391  1.0785
  997MOL0     H34533   9.396   0.430   6.743 -0.3051 -0.1736 -1.5402
  997MOL0     H34534   9.306   0.638   6.791  0.0397  1.3153  0.4916
  997MOL0     H34535   9.478   0.632   6.836  1.0293  0.9372 -0.1844
  997MOL0     H34536   9.442   0.848   6.744  3.3369 -1.4560  1.4565
  997MOL0     H34537   9.547   0.762   6.650  0.5298  3.4440  1.7647
  997MOL0     H34538   9.381   0.858   6.484 -1.8495  2.8371  2.3273
  997MOL0     H34539   9.369   0.678   6.491  1.1654  1.1442  0.6333
  997MOL0     H34540   9.154   0.721   6.639 -0.6077 -0.7312 -0.6317
  997MOL0     H34541   9.186   0.886   6.615 -0.5069 -0.7556  1.9218
  997MOL0     H34542   9.164   0.811   6.345 -1.2337 -1.0004 -1.0351
  997MOL0     H34543   9.099   0.668   6.425 -0.2941  0.0957  0.0088
  997MOL0     H34544   8.937   0.880   6.364  0.6141 -2.8190 -1.0714
  997MOL0     H34545   8.964   0.915   6.527 -3.2598 -0.7733  1.2488
  997MOL0     H34546   8.836   0.617   6.331 -0.1504  0.3704  0.4653
  997MOL0     H34547   8.622   0.452   6.393 -2.8712 -1.1142  0.8901
  997MOL0     H34548   8.615   0.420   6.571 -1.6693  0.9643  0.1223
  997MOL0     H34549   8.493   0.646   6.406 -2.3610 -0.1199 -0.4454
  997MOL0     H34550   8.480   0.615   6.584  0.9079  0.4629  0.3976
  997MOL0     H34551   8.373   0.395   6.505  0.5736  2.0790  2.4530
  997MOL0     H34552   8.416   0.458   6.333 -0.1847 -0.7712 -0.0887
  997MOL0     H34553   8.259   0.663   6.485 -3.2290 -0.6076 -0.0206
  997MOL0     H34554   8.195   0.512   6.528  0.6492 -0.6985  0.3082
  997MOL0     H34555   8.063   0.539   6.116 -1.2379 -0.9962 -0.9680
  997MOL0     H34556   7.779   0.702   5.978  0.0839 -0.6644  0.3073
  997MOL0     H34557   7.898   0.584   5.936 -0.8205  0.9813 -2.0071
  997MOL0     H34558   7.747   0.532   5.987  2.1328 -1.7683 -1.4567
  997MOL0     H34559   7.400   0.813   6.172  0.9743 -0.3321 -2.1656
  997MOL0     H34560   7.142   0.787   6.185  0.4554  1.8042 -0.6273
  997MOL0     H34561   6.906   0.711   6.236 -1.9219 -1.1609  1.2886
  997MOL0     H34562   6.877   0.659   6.068 -2.0961 -1.2679 -0.0990
  997MOL0     H34563   6.774   0.450   6.140 -1.5072 -0.1423 -0.2541
  997MOL0     H34564   6.817   0.487   6.313 -0.4294 -1.8067 -0.4746
  997MOL0     H34565   6.640   0.653   6.116  0.2129 -0.0574 -0.4054
  997MOL0     H34566   6.691   0.723   6.277  3.3356 -0.0047 -0.4271
  997MOL0     H34567   6.463   0.642   6.234 -0.5179  2.7374  3.5826
  997MOL0     H34568   6.512   0.479   6.216 -2.1262  0.1914 -0.0949
  997MOL0     H34569   6.551   0.658   6.457  2.3349 -0.0829 -2.9884
  997MOL0     H34570   6.621   0.504   6.458 -2.2936 -1.7859  3.2064
  997MOL0     H34571   6.378   0.422   6.406  3.3312  1.3120 -2.0330
  997MOL0     H34572   6.407   0.487   6.572  0.6381 -1.9604  0.0999
  997MOL0     H34573   6.247   0.601   6.339  1.0371 -1.7611 -0.9770
  997MOL0     H34574   6.319   0.703   6.470 -1.2548  1.3654 -2.0321
  997MOL0     H34575   6.182   0.516   6.621 -0.3807  0.1876 -0.3012
  997MOL0     H34576   6.101   0.493   6.461 -0.3223  2.3933 -2.4521
  997MOL0     H34577   7.185   0.379   6.102 -2.6331  1.7494  1.8557
  997MOL0     H34578   7.428   0.393   6.094 -0.7122  0.2022 -1.8160
  997MOL0     H34579   7.786   0.761   6.458  1.3004  3.3360 -1.1521
  997MOL0     H34580   8.015   0.698   6.501 -1.7608 -0.2812  0.5812
  997MOL0     H34581   9.746   0.446   6.410  2.1164  1.5269 -0.6886
  997MOL0     H34582   9.979   0.456   6.361  1.5101 -0.1236  0.6975
  997MOL0     H34583  10.383   0.411   6.416 -0.5103 -0.1498  2.3901
  997MOL0     H34584  10.627   0.414   6.378  2.0615  0.2231  0.9418
  997MOL0     H34585  10.846   0.817   6.325 -1.1666 -1.6318 -1.6604
  997MOL0     H34586  10.879   0.748   6.498  0.2625 -3.7741  0.1704
  997MOL0     H34587  11.018   0.686   6.237  1.4371  2.0734 -0.0230
  997MOL0     H34588  11.046   0.600   6.393 -1.6274  0.3341  0.6087
  997MOL0     H34589  11.219   0.772   6.371 -0.5705 -1.0939  0.8054
  997MOL0     H34590  11.116   0.803   6.511  0.7610 -1.1380 -0.3873
  997MOL0     H34591  11.069   0.947   6.246  1.2360  1.4497  0.4305
  997MOL0     H34592  11.182   1.015   6.363  0.7995 -0.5497  0.2470
  997MOL0     H34593  10.843   1.137   6.561 -0.9057  2.4250 -1.8044
  997MOL0     H34594  10.641   0.832   6.459  0.3138 -1.4151 -0.3255
  997MOL0     H34595  10.404   0.825   6.532 -0.5365 -1.3789  2.4257
  998MOL0     O34596   9.864   4.895   1.632  0.0267 -0.0590 -0.4808
  998MOL0     C34597   9.759   4.870   1.573 -0.2041 -0.9509 -0.4920
  998MOL0     O34598   9.635   4.913   1.608  0.6231 -0.5908  0.0819
  998MOL0     C34599   9.617   4.949   1.744  0.9131  0.2146 -0.2608
  998MOL0     C34600   9.578   5.078   1.778  0.2390 -0.1205 -0.3773
  998MOL0     C34601   9.547   5.112   1.909  0.5547  0.0117  0.2658
  998MOL0     C34602   9.560   5.025   2.010  0.7167 -0.5888 -0.0671
  998MOL0     O34603   9.534   5.046   2.135  0.2724  0.9509 -0.0193
  998MOL0     C34604   9.393   5.062   2.154 -0.2080 -0.1782 -0.3724
  998MOL0     C34605   9.342   5.002   2.288 -0.2845 -0.6981 -0.0463
  998MOL0     C34606   9.410   5.075   2.406 -0.2331  0.0634  0.4186
  998MOL0     C34607   9.346   5.042   2.541  0.2169  0.4164 -0.6192
  998MOL0     C34608   9.212   5.108   2.578 -0.3468 -0.2307  0.2912
  998MOL0     C34609   9.171   5.061   2.714 -0.4391  0.5991 -0.3943
  998MOL0     C34610   9.033   5.097   2.758 -0.3567 -0.2612  0.2894
  998MOL0     C34611   8.960   4.962   2.746  0.3235 -0.0831 -0.6932
  998MOL0     N34612   8.823   4.974   2.798 -0.4530  0.7440 -0.4017
  998MOL0     C34613   8.719   5.037   2.742 -0.0385 -0.0499  0.2552
  998MOL0     C34614   8.616   5.022   2.832 -0.8212  0.2429 -0.2125
  998MOL0     C34615   8.476   5.065   2.809 -0.2674 -0.8248 -0.3602
  998MOL0     C34616   8.388   4.949   2.780 -0.4173 -1.2671 -0.1285
  998MOL0     C34617   8.232   4.988   2.758 -0.2316  0.5541 -0.0448
  998MOL0     C34618   8.131   4.879   2.787 -0.4896 -0.4441  0.0224
  998MOL0     O34619   8.002   4.907   2.729 -0.3469  0.5176  0.3456
  998MOL0     C34620   7.888   4.861   2.783 -0.8337  0.2982 -0.4174
  998MOL0     C34621   7.876   4.775   2.890 -0.1225 -0.6303 -0.0799
  998MOL0     C34622   7.752   4.728   2.936 -0.7593  0.2715 -0.0821
  998MOL0     C34623   7.759   4.654   3.073 -0.5195 -0.3129 -0.6170
  998MOL0     C34624   7.638   4.781   2.876 -0.8838  0.6211 -0.0065
  998MOL0     C34625   7.501   4.738   2.901  1.0022 -0.7336  0.7049
  998MOL0     O34626   7.404   4.773   2.807 -0.7915  0.2181  0.2296
  998MOL0     C34627   7.273   4.737   2.829  0.1179 -1.1453 -0.0699
  998MOL0     C34628   7.232   4.615   2.874  0.1936  0.1320 -0.3739
  998MOL0     C34629   7.095   4.587   2.896 -0.0295 -0.0719 -0.4732
  998MOL0     C34630   7.005   4.692   2.885 -0.3820  0.7180 -0.1500
  998MOL0     O34631   6.869   4.680   2.913 -0.2001  0.1024 -0.2272
  998MOL0     C34632   6.809   4.561   2.958  0.2170 -0.5249  0.2139
  998MOL0     C34633   6.652   4.574   2.956 -0.4614  0.1098  0.5726
  998MOL0     C34634   6.578   4.487   2.859  0.5475 -0.2843 -0.0001
  998MOL0     C34635   6.559   4.341   2.910 -0.5654  0.5256 -0.9487
  998MOL0     C34636   6.547   4.239   2.800 -0.6174  0.3709 -0.5351
  998MOL0     C34637   6.402   4.242   2.748 -0.1995  0.0161  0.0827
  998MOL0     C34638   6.395   4.175   2.611 -0.1293 -0.0569 -0.1344
  998MOL0     C34639   6.247   4.144   2.578  0.0369  0.2545  0.6053
  998MOL0    Cl34640   6.153   4.291   2.534  0.1197 -0.3577 -0.6741
  998MOL0     C34641   7.046   4.819   2.844  0.1944 -0.0231 -1.0480
  998MOL0     C34642   7.183   4.841   2.810  0.7999 -0.4459 -0.6552
  998MOL0     O34643   7.482   4.673   2.999  0.4210 -0.4827 -0.4908
  998MOL0     C34644   7.654   4.876   2.777 -0.0172 -0.1144 -0.4631
  998MOL0     C34645   7.777   4.923   2.731  0.0462  0.2297 -0.7499
  998MOL0     N34646   8.659   4.950   2.944  0.5538  1.2130  0.3975
  998MOL0     N34647   8.783   4.918   2.922 -0.8919 -0.6957  0.3677
  998MOL0     C34648   9.602   4.895   1.982 -0.1439 -0.4583  0.0384
  998MOL0     C34649   9.622   4.851   1.851 -1.0109 -0.2567  0.1642
  998MOL0     C34650   9.773   4.793   1.453  0.2224  0.4382  0.3503
  998MOL0     C34651   9.880   4.701   1.434  0.1837  0.1183 -0.2212
  998MOL0     C34652   9.888   4.625   1.323 -0.1756  1.0547 -0.6131
  998MOL0     C34653   9.792   4.624   1.226  0.0740 -0.1865 -0.2807
  998MOL0     O34654   9.821   4.554   1.107  0.1262  0.3280 -0.4056
  998MOL0     C34655   9.741   4.574   0.996  0.0126 -0.3137  0.1557
  998MOL0     C34656   9.771   4.714   0.941  0.4031 -0.7009  0.7635
  998MOL0     C34657   9.646   4.773   0.873 -0.1850 -0.0553 -0.3663
  998MOL0     C34658   9.672   4.921   0.830  0.0220 -0.3804  0.1196
  998MOL0     C34659   9.656   5.005   0.944  0.8115 -0.5297  0.3248
  998MOL0     C34660   9.613   5.073   1.034  0.1641 -0.2498 -0.1693
  998MOL0     C34661   9.685   4.712   1.245  0.1262 -0.2343  0.2013
  998MOL0     C34662   9.681   4.799   1.350 -0.3998 -0.3947 -0.2121
  998MOL0     H34663   9.573   5.146   1.694 -1.5261 -0.9172 -0.9715
  998MOL0     H34664   9.512   5.214   1.925  0.5897 -0.2297  2.0798
  998MOL0     H34665   9.358   5.164   2.136 -0.0696 -0.5854 -3.4291
  998MOL0     H34666   9.334   5.015   2.075 -2.6770  0.6358  0.8851
  998MOL0     H34667   9.233   5.006   2.297 -0.8591 -4.6683 -2.7251
  998MOL0     H34668   9.370   4.896   2.286 -0.3688 -0.7549  0.9368
  998MOL0     H34669   9.514   5.045   2.413  0.1286  1.4918  1.8166
  998MOL0     H34670   9.410   5.181   2.379  1.5867  0.2229  0.9341
  998MOL0     H34671   9.336   4.933   2.549 -1.0303  0.3948 -1.9306
  998MOL0     H34672   9.419   5.072   2.617  2.2079 -4.0047 -0.4604
  998MOL0     H34673   9.222   5.216   2.582  1.8120 -0.3916  0.7188
  998MOL0     H34674   9.135   5.072   2.509  2.3014  1.5402 -3.9921
  998MOL0     H34675   9.202   4.956   2.721  1.5969  1.2345  0.8312
  998MOL0     H34676   9.238   5.116   2.780  0.7505  1.0350 -1.9236
  998MOL0     H34677   9.036   5.124   2.864 -1.6330 -1.7165  0.7400
  998MOL0     H34678   8.995   5.182   2.699  0.5562 -1.2750 -1.8873
  998MOL0     H34679   9.013   4.876   2.788 -0.0132 -1.1536 -2.3483
  998MOL0     H34680   8.951   4.942   2.638  1.1494  1.2173 -1.0218
  998MOL0     H34681   8.712   5.098   2.653 -1.5821 -3.1436 -1.9475
  998MOL0     H34682   8.435   5.108   2.901  1.4132 -0.0979  0.0889
  998MOL0     H34683   8.475   5.136   2.726  0.5310  0.4555  0.6872
  998MOL0     H34684   8.395   4.875   2.860 -0.5725 -1.2511 -0.0998
  998MOL0     H34685   8.430   4.896   2.694  1.5475 -2.2679  1.3636
  998MOL0     H34686   8.229   5.012   2.652  1.1325 -0.8904 -0.4480
  998MOL0     H34687   8.204   5.076   2.818 -0.3867 -0.2244  1.0494
  998MOL0     H34688   8.133   4.876   2.897 -3.3290  4.4003  0.5300
  998MOL0     H34689   8.166   4.784   2.746  0.5262 -0.1463  0.1652
  998MOL0     H34690   7.964   4.748   2.948  1.2122 -0.1370 -1.8303
  998MOL0     H34691   7.863   4.629   3.097 -0.2770  2.2186  1.5032
  998MOL0     H34692   7.727   4.720   3.154 -1.7053 -1.5583 -0.0456
  998MOL0     H34693   7.704   4.561   3.087 -0.8495  0.2607  2.5410
  998MOL0     H34694   7.309   4.540   2.887  0.5201  0.7188  1.2539
  998MOL0     H34695   7.077   4.483   2.922 -0.0539  0.4279  1.6295
  998MOL0     H34696   6.839   4.485   2.886  0.1769 -1.1176  0.8129
  998MOL0     H34697   6.842   4.531   3.058  1.1028 -0.2624  0.0028
  998MOL0     H34698   6.611   4.552   3.055 -2.0166  1.4398  0.2614
  998MOL0     H34699   6.628   4.679   2.939  0.7237  0.7969  2.6522
  998MOL0     H34700   6.629   4.486   2.762  4.2523  3.0700  1.6555
  998MOL0     H34701   6.482   4.534   2.837  0.2654 -0.6416  0.4528
  998MOL0     H34702   6.648   4.317   2.969  0.2132  0.4503 -2.1180
  998MOL0     H34703   6.470   4.352   2.972  0.9473  2.0124  1.0895
  998MOL0     H34704   6.566   4.134   2.825 -0.0295  0.0576 -2.2107
  998MOL0     H34705   6.625   4.253   2.725  0.1397 -1.0050 -0.0518
  998MOL0     H34706   6.333   4.196   2.820 -1.5154  0.1488 -1.0544
  998MOL0     H34707   6.372   4.347   2.738  1.4038  0.5572  0.6038
  998MOL0     H34708   6.451   4.081   2.608 -1.6939 -1.0228 -0.7863
  998MOL0     H34709   6.444   4.238   2.536 -0.9351 -1.2837 -1.7813
  998MOL0     H34710   6.194   4.097   2.662  0.2910 -1.9991 -0.4072
  998MOL0     H34711   6.247   4.069   2.497  0.6806  1.6626 -0.7540
  998MOL0     H34712   6.972   4.896   2.831 -0.6709 -0.9143 -1.5149
  998MOL0     H34713   7.201   4.943   2.778 -4.1153  0.4200 -1.3975
  998MOL0     H34714   7.566   4.917   2.728  0.2224 -0.8086 -1.5149
  998MOL0     H34715   7.793   4.996   2.653 -0.4097 -1.3523 -2.4102
  998MOL0     H34716   9.618   4.844   2.077  3.0850  1.3698  0.6320
  998MOL0     H34717   9.655   4.749   1.837  0.0514 -0.4446  3.3528
  998MOL0     H34718   9.937   4.675   1.523 -2.6687  0.4617  1.8628
  998MOL0     H34719   9.972   4.556   1.320  0.0778  1.1437  2.0992
  998MOL0     H34720   9.764   4.493   0.927  0.4597  2.2834 -2.9932
  998MOL0     H34721   9.633   4.565   1.012 -0.9375 -0.1227 -4.6547
  998MOL0     H34722   9.839   4.705   0.856  0.1197 -2.4668  0.6885
  998MOL0     H34723   9.827   4.776   1.012  3.6143 -1.2664 -1.0832
  998MOL0     H34724   9.567   4.758   0.947  0.5351  0.4202  0.5120
  998MOL0     H34725   9.625   4.721   0.779  0.2516 -1.0138  0.0559
  998MOL0     H34726   9.597   4.950   0.755  0.2257  2.3594  0.8777
  998MOL0     H34727   9.775   4.928   0.795 -0.1595 -0.2470 -0.3965
  998MOL0     H34728   9.575   5.135   1.113  1.4435  0.0713  0.2282
  998MOL0     H34729   9.603   4.718   1.173  1.0090 -0.7842 -0.8948
  998MOL0     H34730   9.594   4.864   1.351  0.0269  0.2192  1.2295
  999MOL0     O34731   7.893   5.179   5.189 -0.5104 -0.0743  0.3708
  999MOL0     C34732   7.850   5.106   5.278  0.2422 -0.0484  0.4671
  999MOL0     O34733   7.714   5.083   5.303  0.5393 -0.6109 -0.2917
  999MOL0     C34734   7.607   5.155   5.253 -0.4311  0.6534  1.0492
  999MOL0     C34735   7.605   5.265   5.169  0.3975 -0.1986 -0.4233
  999MOL0     C34736   7.485   5.332   5.137  0.5566  0.7841  0.7988
  999MOL0     C34737   7.363   5.284   5.186 -0.0299 -0.1519  1.0270
  999MOL0     O34738   7.251   5.352   5.141 -0.1389 -0.3430 -0.3321
  999MOL0     C34739   7.118   5.297   5.158  0.6827 -0.4572  0.3562
  999MOL0     C34740   7.023   5.363   5.053 -0.2614  0.4400  0.5942
  999MOL0     C34741   6.887   5.296   5.045 -1.1021 -0.1739 -0.6266
  999MOL0     C34742   6.806   5.336   5.177 -0.2319  0.0632 -0.3819
  999MOL0     C34743   6.665   5.277   5.172  0.6110 -0.2266 -0.7365
  999MOL0     C34744   6.599   5.309   5.307  1.0082  0.7631 -0.2912
  999MOL0     C34745   6.456   5.244   5.319 -0.7754  0.0312 -0.1436
  999MOL0     C34746   6.387   5.269   5.453  0.5538  0.2924  0.4725
  999MOL0     N34747   6.247   5.219   5.446 -0.5333 -0.2240 -0.1186
  999MOL0     C34748   6.129   5.292   5.454 -0.3322 -0.2183  0.4173
  999MOL0     C34749   6.035   5.205   5.404 -0.4351 -0.7703  0.5628
  999MOL0     C34750   5.888   5.217   5.406 -0.4693 -0.3653  0.1108
  999MOL0     C34751   5.833   5.246   5.548  0.2409  0.0943  0.0419
  999MOL0     C34752   5.679   5.272   5.539  0.2599  0.2105 -0.1916
  999MOL0     C34753   5.598   5.152   5.497 -0.1503 -0.1934 -0.4843
  999MOL0     O34754   5.473   5.158   5.562  0.7666 -0.2344 -0.4438
  999MOL0     C34755   5.379   5.058   5.533 -0.2400 -0.2410  0.3909
  999MOL0     C34756   5.397   4.947   5.455  0.4235  0.9214  0.5827
  999MOL0     C34757   5.280   4.861   5.429  0.3141  0.5020  0.0094
  999MOL0     C34758   5.290   4.758   5.315 -0.3369  0.1836  0.3057
  999MOL0     C34759   5.154   4.897   5.488  0.1783  0.1321  0.5506
  999MOL0     C34760   5.030   4.815   5.460 -0.1648 -0.2553  1.3337
  999MOL0     O34761   5.008   4.775   5.336 -0.2845 -0.4588  0.6469
  999MOL0     C34762   4.907   4.678   5.331 -0.3186 -0.0352 -0.5778
  999MOL0     C34763   4.944   4.545   5.366  0.2040  0.5972 -1.2302
  999MOL0     C34764   4.841   4.453   5.382 -0.1987 -0.0624  0.6074
  999MOL0     C34765   4.703   4.489   5.373  0.5832  0.5462 -0.3890
  999MOL0     O34766   4.602   4.394   5.398 -0.2026  0.6713 -0.1989
  999MOL0     C34767   4.463   4.424   5.362  0.1922  0.1962  0.2606
  999MOL0     C34768   4.396   4.290   5.392 -0.1114  0.4465 -0.1610
  999MOL0     C34769   4.242   4.294   5.371  0.3430 -0.1692  0.2761
  999MOL0     C34770   4.177   4.159   5.383 -0.5762 -0.3920  0.1828
  999MOL0     C34771   4.165   4.090   5.513 -0.0371  0.4522 -0.5370
  999MOL0     C34772   4.270   3.975   5.528  0.0613 -0.3958  0.1872
  999MOL0     C34773   4.221   3.866   5.622  0.3645 -0.3999 -0.2266
  999MOL0     C34774   4.314   3.757   5.645 -0.7234 -0.3026  0.2173
  999MOL0    Cl34775   4.252   3.655   5.777  0.2935  0.1444 -0.5828
  999MOL0     C34776   4.673   4.621   5.339 -0.1564 -0.3166 -0.7027
  999MOL0     C34777   4.784   4.715   5.310  0.8911 -0.9313 -1.2074
  999MOL0     O34778   4.957   4.795   5.554  0.2730 -0.0809  0.1187
  999MOL0     C34779   5.144   5.001   5.582  0.0454 -0.4995  0.4908
  999MOL0     C34780   5.258   5.081   5.600 -0.6187  1.2423  0.5990
  999MOL0     N34781   6.100   5.087   5.389 -0.8430 -0.3102 -0.7249
  999MOL0     N34782   6.222   5.086   5.422  0.1508  0.2005  0.2927
  999MOL0     C34783   7.365   5.173   5.275  1.6783 -0.8022  0.7427
  999MOL0     C34784   7.486   5.113   5.302 -0.5806 -0.1923 -0.6727
  999MOL0     C34785   7.959   5.029   5.343 -0.3858  0.2316  0.0498
  999MOL0     C34786   7.927   4.915   5.421  0.2909  0.2036  0.1504
  999MOL0     C34787   8.023   4.836   5.485  0.2639 -0.3651 -0.7408
  999MOL0     C34788   8.155   4.857   5.457  0.2329  0.1991 -0.5506
  999MOL0     O34789   8.237   4.768   5.511 -0.2622  0.1359 -0.0009
  999MOL0     C34790   8.345   4.745   5.441  0.1057 -0.1752 -0.3311
  999MOL0     C34791   8.416   4.620   5.499  0.7692  0.1332 -0.6278
  999MOL0     C34792   8.503   4.648   5.625  0.9469 -0.4011 -0.5869
  999MOL0     C34793   8.435   4.713   5.739 -0.2333 -0.4876  0.5295
  999MOL0     C34794   8.515   4.695   5.865  0.1611 -0.4104  0.9334
  999MOL0     C34795   8.601   4.673   5.951  0.7229 -0.4399  0.5141
  999MOL0     C34796   8.190   4.972   5.392  0.2934 -0.1651 -0.3553
  999MOL0     C34797   8.093   5.061   5.342  0.2523 -0.0494  0.7166
  999MOL0     H34798   7.699   5.308   5.136  0.0748  0.4265 -0.5556
  999MOL0     H34799   7.481   5.427   5.086  0.0435  0.6279  0.5353
  999MOL0     H34800   7.107   5.189   5.147  1.4032 -0.5484  0.4846
  999MOL0     H34801   7.087   5.317   5.260 -0.2669  2.6754 -0.4468
  999MOL0     H34802   7.003   5.467   5.082 -0.7754  0.3941  0.4235
  999MOL0     H34803   7.067   5.378   4.954 -1.2243  0.8616  0.2158
  999MOL0     H34804   6.823   5.336   4.966 -2.9971  3.9768  2.6532
  999MOL0     H34805   6.892   5.187   5.035  0.5543 -0.4186  2.0727
  999MOL0     H34806   6.858   5.302   5.267 -0.4826  0.1176 -0.2147
  999MOL0     H34807   6.799   5.444   5.198 -1.0257 -0.0805  0.1373
  999MOL0     H34808   6.592   5.318   5.102  1.4533  2.3626 -0.1830
  999MOL0     H34809   6.682   5.169   5.162  2.7067  0.0511 -0.5446
  999MOL0     H34810   6.654   5.271   5.394  2.0994 -0.8697 -1.6253
  999MOL0     H34811   6.591   5.416   5.325 -0.9945  0.7106 -0.6155
  999MOL0     H34812   6.397   5.274   5.232 -2.1788 -2.6153 -0.1925
  999MOL0     H34813   6.471   5.136   5.326  0.5207  0.2858  3.0601
  999MOL0     H34814   6.380   5.378   5.459 -2.2279  0.2394 -0.2659
  999MOL0     H34815   6.434   5.226   5.542 -0.2991  1.8148  1.7059
  999MOL0     H34816   6.103   5.393   5.484  1.1168  0.5202 -0.6768
  999MOL0     H34817   5.869   5.308   5.349  0.3959 -1.6183 -2.3270
  999MOL0     H34818   5.839   5.137   5.350  0.9367  0.3084 -2.1901
  999MOL0     H34819   5.879   5.333   5.596  1.1149  0.8713 -2.0719
  999MOL0     H34820   5.859   5.162   5.612  1.1967  0.9550  0.8135
  999MOL0     H34821   5.647   5.354   5.473 -4.3690  0.8977  2.5171
  999MOL0     H34822   5.644   5.296   5.639 -2.5375  0.2363 -1.0929
  999MOL0     H34823   5.637   5.052   5.519 -0.6352 -0.7022 -1.8251
  999MOL0     H34824   5.596   5.166   5.389 -0.8417  2.3359 -0.2048
  999MOL0     H34825   5.498   4.935   5.415 -0.1475  2.6788 -1.6146
  999MOL0     H34826   5.236   4.802   5.231 -1.4178 -2.0470 -0.2553
  999MOL0     H34827   5.395   4.752   5.283 -0.5729 -0.9728 -0.2990
  999MOL0     H34828   5.252   4.655   5.317  2.7022 -1.2887 -3.2566
  999MOL0     H34829   5.046   4.511   5.381  0.2111  1.8320  3.0625
  999MOL0     H34830   4.845   4.350   5.417  0.3593  0.6438  2.7863
  999MOL0     H34831   4.413   4.495   5.428 -1.5425  1.3607 -2.1553
  999MOL0     H34832   4.445   4.463   5.261  1.2550 -1.4539 -0.6127
  999MOL0     H34833   4.423   4.196   5.343  0.0359  0.8155 -0.8025
  999MOL0     H34834   4.402   4.262   5.497 -2.6290  0.2782 -0.0078
  999MOL0     H34835   4.221   4.336   5.272 -0.2852  0.8559  0.8302
  999MOL0     H34836   4.210   4.367   5.446  1.2230  0.4840  0.0372
  999MOL0     H34837   4.072   4.172   5.357 -0.3862  3.9693  0.8396
  999MOL0     H34838   4.229   4.102   5.305 -0.3325 -2.0716  1.5218
  999MOL0     H34839   4.065   4.047   5.522  0.3174 -0.0599  1.3710
  999MOL0     H34840   4.174   4.160   5.597 -0.9502  1.7530 -1.4744
  999MOL0     H34841   4.289   3.932   5.430  2.3085  0.4979  0.1735
  999MOL0     H34842   4.368   4.011   5.562  1.0668 -2.9642  0.2233
  999MOL0     H34843   4.120   3.836   5.593 -0.3138  1.7459 -0.2597
  999MOL0     H34844   4.201   3.922   5.714 -1.3018  1.5596 -1.6829
  999MOL0     H34845   4.409   3.808   5.659 -0.1442 -1.0277 -0.8770
  999MOL0     H34846   4.327   3.695   5.556  0.4768 -0.3590  0.4147
  999MOL0     H34847   4.571   4.655   5.330  0.2252  1.1580  0.0267
  999MOL0     H34848   4.765   4.816   5.275 -0.6389 -0.8362 -0.1838
  999MOL0     H34849   5.043   5.032   5.605  0.4823  0.7176  0.8791
  999MOL0     H34850   5.252   5.180   5.643  0.5034  2.3092 -1.5723
  999MOL0     H34851   7.270   5.132   5.309  1.9498 -1.3163  0.8820
  999MOL0     H34852   7.478   5.019   5.356 -2.3903  0.5555  0.4773
  999MOL0     H34853   7.823   4.884   5.428  0.7505 -1.0865  1.8976
  999MOL0     H34854   7.995   4.749   5.544 -2.9371  1.5413  0.8096
  999MOL0     H34855   8.320   4.734   5.336 -0.0537 -0.7090 -0.2387
  999MOL0     H34856   8.408   4.835   5.452 -0.2040  0.0069 -0.0156
  999MOL0     H34857   8.488   4.576   5.429  2.0803 -2.4185  2.0742
  999MOL0     H34858   8.348   4.544   5.540  2.5056 -0.9738  0.3670
  999MOL0     H34859   8.583   4.719   5.602  0.0223  0.5314 -1.0011
  999MOL0     H34860   8.552   4.555   5.656  1.7626  0.2773  0.2083
  999MOL0     H34861   8.336   4.667   5.743 -0.5905 -0.3104 -3.2090
  999MOL0     H34862   8.433   4.820   5.718 -0.8399 -0.3386  1.2908
  999MOL0     H34863   8.670   4.665   6.033 -0.1846  0.5318  1.3925
  999MOL0     H34864   8.294   4.984   5.363  0.0473  1.5995 -0.6155
  999MOL0     H34865   8.122   5.155   5.295  0.6537  0.2339  1.5051
 1000MOL0     O34866   8.981   2.542   3.229  0.4785  0.3041  0.6346
 1000MOL0     C34867   9.043   2.635   3.185  0.7770  0.4290  0.1849
 1000MOL0     O34868   9.017   2.769   3.212  0.7303 -0.1704  0.0476
 1000MOL0     C34869   8.919   2.807   3.298 -1.2476 -0.2285 -0.2457
 1000MOL0     C34870   8.946   2.925   3.370  0.7992  0.4914  0.4564
 1000MOL0     C34871   8.844   2.976   3.456 -0.0998 -0.0225  0.0640
 1000MOL0     C34872   8.722   2.909   3.468  0.3627 -0.2329  0.4937
 1000MOL0     O34873   8.611   2.951   3.539 -0.2778 -0.1928  0.2311
 1000MOL0     C34874   8.622   3.083   3.590 -0.1051 -0.3400 -0.6124
 1000MOL0     C34875   8.492   3.142   3.644 -0.3456 -0.3533 -0.1147
 1000MOL0     C34876   8.422   3.213   3.530 -0.4413 -0.4336  0.1578
 1000MOL0     C34877   8.482   3.346   3.489 -0.2728  0.2231  0.6468
 1000MOL0     C34878   8.403   3.423   3.388 -0.0963  0.5387  0.0099
 1000MOL0     C34879   8.437   3.399   3.240 -0.5577 -0.4057 -0.2753
 1000MOL0     C34880   8.384   3.513   3.145  0.7995  0.6710 -0.3150
 1000MOL0     C34881   8.441   3.494   3.003  0.1181 -0.0947  0.3335
 1000MOL0     N34882   8.380   3.592   2.904 -1.0629 -0.3638 -0.1075
 1000MOL0     C34883   8.258   3.586   2.843 -0.0741  0.4587 -0.2751
 1000MOL0     C34884   8.247   3.702   2.776  0.3558  0.3849  0.2348
 1000MOL0     C34885   8.130   3.754   2.702 -0.3835 -0.4067 -0.2809
 1000MOL0     C34886   8.101   3.899   2.745 -0.6763 -0.7252 -0.2782
 1000MOL0     C34887   8.089   3.923   2.903 -0.1905  0.0179  0.8217
 1000MOL0     C34888   7.973   3.856   2.974  0.1075 -0.6439 -0.0812
 1000MOL0     O34889   7.996   3.852   3.117  0.1510  0.5603 -0.5031
 1000MOL0     C34890   7.924   3.771   3.201  0.3975  0.0424  1.0155
 1000MOL0     C34891   7.981   3.733   3.321  0.0116 -0.1781  0.0256
 1000MOL0     C34892   7.910   3.666   3.427 -0.2773 -0.8541  0.5941
 1000MOL0     C34893   7.987   3.660   3.559 -0.9010 -0.4802 -0.5418
 1000MOL0     C34894   7.780   3.614   3.393  0.0282 -0.3184 -0.4975
 1000MOL0     C34895   7.703   3.519   3.474  0.3420  0.6661  0.6790
 1000MOL0     O34896   7.572   3.500   3.453 -0.2736  0.2784  0.5489
 1000MOL0     C34897   7.511   3.379   3.457 -0.0276  0.3703  0.6160
 1000MOL0     C34898   7.371   3.377   3.477 -0.1464  0.7060 -0.4701
 1000MOL0     C34899   7.303   3.258   3.479  0.6113 -0.1339  0.8253
 1000MOL0     C34900   7.365   3.131   3.471 -1.0863 -0.4786 -0.1066
 1000MOL0     O34901   7.303   3.010   3.460  0.3242  0.4434 -0.2670
 1000MOL0     C34902   7.208   2.995   3.565 -0.9852  0.1927 -0.2672
 1000MOL0     C34903   7.163   2.853   3.553  0.3503  0.1273 -0.1381
 1000MOL0     C34904   7.274   2.759   3.595 -0.2000  0.0397  0.9344
 1000MOL0     C34905   7.238   2.612   3.581  0.1351  0.0177  0.5551
 1000MOL0     C34906   7.342   2.517   3.629  0.4297  0.5778  0.2196
 1000MOL0     C34907   7.438   2.486   3.516 -0.6902  0.7149 -0.0678
 1000MOL0     C34908   7.575   2.438   3.572  0.1223  0.4174 -0.1076
 1000MOL0     C34909   7.688   2.405   3.476 -0.3718  0.1007  0.0135
 1000MOL0    Cl34910   7.786   2.550   3.437 -0.0473 -0.1849  0.4828
 1000MOL0     C34911   7.500   3.133   3.447 -1.0606  0.2018  0.0667
 1000MOL0     C34912   7.572   3.256   3.452  0.6096 -0.1700 -0.2958
 1000MOL0     O34913   7.768   3.455   3.550  0.1277 -0.3138  0.0947
 1000MOL0     C34914   7.731   3.645   3.263  0.4290  0.0729 -0.1245
 1000MOL0     C34915   7.795   3.726   3.175  0.2715  0.4129  0.1341
 1000MOL0     N34916   8.368   3.773   2.785  1.2977  0.6981 -0.1777
 1000MOL0     N34917   8.447   3.702   2.860  0.4121  0.3575  0.9557
 1000MOL0     C34918   8.705   2.790   3.399 -0.8082 -0.2671  0.2676
 1000MOL0     C34919   8.796   2.745   3.304 -0.2426 -0.0844  0.1032
 1000MOL0     C34920   9.149   2.621   3.093  0.6811 -1.1623  0.0198
 1000MOL0     C34921   9.172   2.505   3.033 -0.5793  0.2920 -0.8731
 1000MOL0     C34922   9.270   2.500   2.934  0.6647  1.0269  0.3653
 1000MOL0     C34923   9.368   2.596   2.907  1.1601 -0.4231 -0.5620
 1000MOL0     O34924   9.461   2.573   2.812  0.0373  0.2359  0.3924
 1000MOL0     C34925   9.583   2.654   2.813  0.1252  0.5925 -0.9016
 1000MOL0     C34926   9.589   2.768   2.709 -0.1815  0.9098 -0.5451
 1000MOL0     C34927   9.550   2.721   2.567 -0.5643  0.5230  0.2799
 1000MOL0     C34928   9.616   2.590   2.541  0.1531  0.0856 -0.6254
 1000MOL0     C34929   9.593   2.553   2.407 -0.5746 -0.6753 -0.5657
 1000MOL0     C34930   9.569   2.505   2.296  0.2265 -0.4538 -0.5434
 1000MOL0     C34931   9.349   2.721   2.979  0.4766 -1.2207  0.1750
 1000MOL0     C34932   9.239   2.730   3.069  0.9110 -0.8706 -0.2125
 1000MOL0     H34933   9.036   2.980   3.345  0.1274  1.5342  0.2627
 1000MOL0     H34934   8.868   3.064   3.515 -2.7153  1.2723 -0.6584
 1000MOL0     H34935   8.691   3.088   3.675  1.4191 -2.9415 -1.5661
 1000MOL0     H34936   8.670   3.142   3.511 -0.2658 -2.4426 -2.3978
 1000MOL0     H34937   8.428   3.059   3.676 -2.4641  1.1588 -0.1536
 1000MOL0     H34938   8.514   3.221   3.716 -2.0841  1.5293 -1.5117
 1000MOL0     H34939   8.420   3.149   3.441  2.5183 -1.3164  0.6196
 1000MOL0     H34940   8.322   3.222   3.574 -0.4624  3.0536 -0.3596
 1000MOL0     H34941   8.498   3.409   3.577  2.1768  3.4723 -1.8421
 1000MOL0     H34942   8.586   3.344   3.455  0.4143  0.5151  2.5893
 1000MOL0     H34943   8.295   3.417   3.401 -0.0854  0.6472  0.1587
 1000MOL0     H34944   8.433   3.528   3.400 -1.8369  1.1954 -1.1298
 1000MOL0     H34945   8.546   3.407   3.229 -0.8493  1.3104 -2.4142
 1000MOL0     H34946   8.402   3.301   3.206  0.8954 -1.9040  2.1785
 1000MOL0     H34947   8.275   3.505   3.144  0.8828 -0.9328  0.3877
 1000MOL0     H34948   8.409   3.611   3.186 -0.8018  1.1874 -0.5289
 1000MOL0     H34949   8.420   3.396   2.959  0.5531  0.1725 -0.5011
 1000MOL0     H34950   8.548   3.518   2.998 -0.3839  2.3861  0.2438
 1000MOL0     H34951   8.186   3.507   2.859 -0.0699 -0.1027 -2.6387
 1000MOL0     H34952   8.152   3.760   2.595 -0.0351  2.0289 -0.1237
 1000MOL0     H34953   8.048   3.682   2.707  0.8428 -1.8165 -0.0055
 1000MOL0     H34954   8.010   3.923   2.690  1.2995  2.7453 -2.4241
 1000MOL0     H34955   8.174   3.969   2.703  0.7038 -0.6920  2.0160
 1000MOL0     H34956   8.086   4.031   2.924 -1.6273 -0.3182  2.5265
 1000MOL0     H34957   8.175   3.878   2.953  0.0182 -1.3323 -0.6751
 1000MOL0     H34958   7.951   3.757   2.933 -1.3228 -0.3450 -0.1074
 1000MOL0     H34959   7.878   3.903   2.946  0.5966 -1.0944 -2.8101
 1000MOL0     H34960   8.086   3.760   3.319  0.3218 -1.2706 -2.3036
 1000MOL0     H34961   7.917   3.636   3.640  1.0993 -1.2672  1.0263
 1000MOL0     H34962   8.066   3.585   3.560 -1.4640 -1.2336  3.2600
 1000MOL0     H34963   8.043   3.749   3.588  1.0008 -2.1544  1.2154
 1000MOL0     H34964   7.311   3.468   3.481 -2.0914 -0.5631  1.1955
 1000MOL0     H34965   7.194   3.253   3.486  0.7059 -1.2554  1.9918
 1000MOL0     H34966   7.249   3.003   3.666 -2.2375  1.0350  0.1966
 1000MOL0     H34967   7.123   3.064   3.556 -2.8106 -2.0482 -1.0022
 1000MOL0     H34968   7.082   2.856   3.626  3.6716  0.3535  3.8558
 1000MOL0     H34969   7.124   2.828   3.453  1.9762 -2.7204 -0.1849
 1000MOL0     H34970   7.294   2.776   3.701  1.3520  0.7600  0.5552
 1000MOL0     H34971   7.368   2.777   3.542 -0.9293 -1.2122 -0.8814
 1000MOL0     H34972   7.147   2.600   3.640 -1.5261  0.7655 -1.6962
 1000MOL0     H34973   7.209   2.591   3.478 -3.2994 -2.4086  1.8320
 1000MOL0     H34974   7.284   2.426   3.650  1.0059  0.7382  2.7695
 1000MOL0     H34975   7.398   2.548   3.718  0.7497  0.0885  0.1906
 1000MOL0     H34976   7.388   2.410   3.454 -1.0398 -0.6821  1.8245
 1000MOL0     H34977   7.455   2.573   3.452  0.9312  1.4723  1.3232
 1000MOL0     H34978   7.550   2.349   3.630 -2.4284  1.3597  0.3727
 1000MOL0     H34979   7.615   2.524   3.626  1.1774  2.8537 -4.2556
 1000MOL0     H34980   7.649   2.386   3.376  1.8085  1.2032 -1.1249
 1000MOL0     H34981   7.750   2.316   3.494 -0.0912  0.2713 -0.1064
 1000MOL0     H34982   7.550   3.036   3.455 -1.1578  0.2478  1.4202
 1000MOL0     H34983   7.679   3.244   3.443  0.6737 -0.1436  0.3595
 1000MOL0     H34984   7.634   3.605   3.235 -0.5933 -0.0658  3.1752
 1000MOL0     H34985   7.748   3.735   3.078  0.6671 -1.3044 -0.2512
 1000MOL0     H34986   8.614   2.739   3.430 -0.9759 -0.5730 -0.6927
 1000MOL0     H34987   8.780   2.656   3.244 -2.2238  0.0996  0.2790
 1000MOL0     H34988   9.112   2.418   3.056  0.4728  0.1946  1.9384
 1000MOL0     H34989   9.248   2.413   2.872 -2.9941 -0.0781  2.8889
 1000MOL0     H34990   9.584   2.696   2.914  0.6075 -0.1353 -0.5926
 1000MOL0     H34991   9.669   2.587   2.818 -0.3124  0.0905  0.3395
 1000MOL0     H34992   9.685   2.820   2.703 -0.5980  1.7634 -0.0534
 1000MOL0     H34993   9.522   2.847   2.745  0.0183 -0.0163  2.0379
 1000MOL0     H34994   9.581   2.800   2.497 -1.5357  0.1220 -0.6368
 1000MOL0     H34995   9.441   2.712   2.566 -0.5723  0.1145 -2.3301
 1000MOL0     H34996   9.584   2.505   2.602  3.4026  0.4233  1.8374
 1000MOL0     H34997   9.723   2.599   2.563  0.4100 -1.6857 -0.9897
 1000MOL0     H34998   9.558   2.470   2.196  0.0062  2.1292 -1.4823
 1000MOL0     H34999   9.407   2.810   2.956 -1.8130  0.4043  0.3842
 1000MOL0     H35000   9.223   2.823   3.123 -0.8394 -1.1312 -0.2088
 1001MOL0     O35001   9.065  10.993   0.014 -0.7223 -0.5674  0.4672
 1001MOL0     C35002   9.118  10.930   0.110  0.3043  0.6663 -0.2255
 1001MOL0     O35003   9.148  10.800   0.100  0.7007  0.0504 -0.3491
 1001MOL0     C35004   9.091  10.717   0.004 -0.3801 -0.8277 -0.9703
 1001MOL0     C35005   9.143  10.721  -0.128  0.4260  0.7648  0.8247
 1001MOL0     C35006   9.104  10.617  -0.209  0.3627 -0.5608 -0.4640
 1001MOL0     C35007   9.013  10.522  -0.175 -0.2035 -0.2309 -0.1786
 1001MOL0     O35008   8.987  10.424  -0.264  0.6535 -0.3105  0.3526
 1001MOL0     C35009   8.850  10.427  -0.314  0.3036  0.0633 -0.4890
 1001MOL0     C35010   8.777  10.297  -0.264 -0.6097  0.7205  0.5563
 1001MOL0     C35011   8.795  10.178  -0.365 -0.7671 -0.2034  0.0338
 1001MOL0     C35012   8.937  10.125  -0.368  0.6241  0.5625 -0.3627
 1001MOL0     C35013   8.948  10.021  -0.473  0.0432  0.6094 -0.9672
 1001MOL0     C35014   9.089   9.965  -0.479  0.2467  0.4452 -0.2698
 1001MOL0     C35015   9.105   9.859  -0.587  0.2542 -0.1598 -0.4896
 1001MOL0     C35016   9.167   9.916  -0.713  0.3101 -0.5280  1.3166
 1001MOL0     N35017   9.191   9.823  -0.830  0.0427  0.0734 -0.1021
 1001MOL0     C35018   9.106   9.729  -0.889 -0.5919 -0.2969  0.0096
 1001MOL0     C35019   9.174   9.657  -0.980 -0.5383 -0.1469  0.1386
 1001MOL0     C35020   9.122   9.548  -1.071  0.0385 -0.2230 -0.0078
 1001MOL0     C35021   9.075   9.441  -0.980  0.3942 -0.5468 -0.7178
 1001MOL0     C35022   9.002   9.329  -1.050 -0.8122  0.2822  0.5457
 1001MOL0     C35023   8.998   9.195  -0.968  0.7000 -0.3933 -0.2322
 1001MOL0     O35024   8.953   9.227  -0.833  0.9240 -0.5739  0.1030
 1001MOL0     C35025   8.817   9.235  -0.809 -0.3753  0.1930  0.0506
 1001MOL0     C35026   8.781   9.322  -0.707  0.5675 -0.1836 -0.8567
 1001MOL0     C35027   8.649   9.368  -0.691 -0.0448  0.5947  0.2469
 1001MOL0     C35028   8.629   9.454  -0.573  0.0573 -0.5908 -0.0372
 1001MOL0     C35029   8.543   9.304  -0.762  0.1004 -0.9203  0.3689
 1001MOL0     C35030   8.402   9.329  -0.740  0.6076 -0.1650  0.7363
 1001MOL0     O35031   8.314   9.258  -0.815 -0.3412  1.2977 -0.0944
 1001MOL0     C35032   8.180   9.280  -0.796 -0.2983 -0.0925 -0.9880
 1001MOL0     C35033   8.100   9.272  -0.914 -1.3178  0.5720  0.5791
 1001MOL0     C35034   7.961   9.298  -0.902  0.1611 -0.1423  0.2302
 1001MOL0     C35035   7.893   9.314  -0.777 -0.5394 -1.3086  0.4205
 1001MOL0     O35036   7.756   9.355  -0.780 -0.1580  0.5120 -0.0938
 1001MOL0     C35037   7.688   9.359  -0.650  1.1034  0.3113  0.0204
 1001MOL0     C35038   7.537   9.389  -0.662 -0.3702 -0.3501  0.3023
 1001MOL0     C35039   7.496   9.528  -0.702  0.6461 -0.3819 -0.0464
 1001MOL0     C35040   7.340   9.552  -0.689  0.3159  0.3230  0.7368
 1001MOL0     C35041   7.297   9.683  -0.740  0.4948 -0.2326  0.5290
 1001MOL0     C35042   7.337   9.804  -0.656  0.0854  0.3580 -0.4941
 1001MOL0     C35043   7.262   9.918  -0.708  0.2514  0.1527  0.2794
 1001MOL0     C35044   7.317  10.063  -0.678  0.1482  0.1202 -0.5031
 1001MOL0    Cl35045   7.316  10.071  -0.502 -0.8263 -0.0929 -0.2958
 1001MOL0     C35046   7.972   9.318  -0.660  0.1294 -1.3107  0.1729
 1001MOL0     C35047   8.114   9.303  -0.671  0.0521  0.0317  0.5036
 1001MOL0     O35048   8.377   9.428  -0.673  0.2680  0.0209  0.0147
 1001MOL0     C35049   8.583   9.214  -0.872  0.2958 -0.7814 -0.4931
 1001MOL0     C35050   8.717   9.181  -0.896  0.1099 -0.4315  0.5758
 1001MOL0     N35051   9.301   9.711  -0.982  0.8937 -0.2755 -0.4486
 1001MOL0     N35052   9.311   9.814  -0.896  0.1320 -0.1492 -0.1981
 1001MOL0     C35053   8.959  10.530  -0.049 -0.7634  0.1633  0.8484
 1001MOL0     C35054   9.004  10.618   0.046 -1.4157 -0.2837  0.8970
 1001MOL0     C35055   9.154  11.012   0.232 -0.9735  0.0725 -0.1507
 1001MOL0     C35056   9.138  11.151   0.232  0.1340  0.8191 -0.4090
 1001MOL0     C35057   9.172  11.229   0.341 -0.3223  0.1817 -0.0257
 1001MOL0     C35058   9.235  11.177   0.456 -0.6382  0.5314  0.4250
 1001MOL0     O35059   9.253  11.256   0.569  0.2349 -0.1224 -0.2389
 1001MOL0     C35060   9.279  11.194   0.698  0.3211  0.8518 -0.5243
 1001MOL0     C35061   9.161  11.117   0.763 -1.0176 -0.5451 -0.6324
 1001MOL0     C35062   9.032  11.198   0.751  0.2430 -0.8067  0.1510
 1001MOL0     C35063   8.922  11.122   0.821  0.8177  0.3824  0.2724
 1001MOL0     C35064   8.949  11.120   0.967  0.3430 -0.7911 -0.6628
 1001MOL0     C35065   8.966  11.138   1.089  0.4790  0.3130  0.3020
 1001MOL0     C35066   9.262  11.038   0.451 -0.0066  0.5106 -0.5683
 1001MOL0     C35067   9.223  10.954   0.341 -0.6977 -0.2431 -0.4127
 1001MOL0     H35068   9.211  10.797  -0.166  0.2430  1.5116  1.9457
 1001MOL0     H35069   9.137  10.624  -0.312  0.8469  0.3938 -0.2488
 1001MOL0     H35070   8.787  10.514  -0.292  0.1808 -0.3755  0.9807
 1001MOL0     H35071   8.853  10.413  -0.423 -0.4778 -1.4223 -0.3441
 1001MOL0     H35072   8.828  10.265  -0.172  0.4207  0.5298 -0.0667
 1001MOL0     H35073   8.670  10.317  -0.251 -0.8217  2.3189 -2.7159
 1001MOL0     H35074   8.728  10.095  -0.340  1.8612 -1.7935  2.3420
 1001MOL0     H35075   8.767  10.214  -0.464  0.4614  1.1219  0.1351
 1001MOL0     H35076   9.005  10.208  -0.391 -2.5975  3.9920  1.3933
 1001MOL0     H35077   8.964  10.077  -0.273  1.9834  1.4473 -0.2716
 1001MOL0     H35078   8.875   9.944  -0.448  2.0738 -1.0493  0.1473
 1001MOL0     H35079   8.916  10.067  -0.567  0.8467  0.7489 -1.1756
 1001MOL0     H35080   9.167  10.042  -0.484  0.9792  0.1178  3.3874
 1001MOL0     H35081   9.111   9.910  -0.388 -0.1102 -0.2107 -0.5692
 1001MOL0     H35082   9.175   9.782  -0.553 -0.8461 -0.6964  0.6456
 1001MOL0     H35083   9.007   9.813  -0.608  0.5141 -0.9825  0.0392
 1001MOL0     H35084   9.267   9.956  -0.693  0.9854 -0.9712 -0.8669
 1001MOL0     H35085   9.096   9.992  -0.750 -0.0129 -0.0176  2.9324
 1001MOL0     H35086   8.999   9.712  -0.876 -0.4662 -1.8160 -0.7156
 1001MOL0     H35087   9.042   9.594  -1.130 -0.5391 -0.8132  0.3046
 1001MOL0     H35088   9.202   9.517  -1.139  0.8728 -0.7549  1.1683
 1001MOL0     H35089   8.995   9.484  -0.918  0.2677  0.3138 -1.4631
 1001MOL0     H35090   9.155   9.404  -0.915 -1.6071 -0.5408  1.8966
 1001MOL0     H35091   9.046   9.298  -1.145  0.4613 -2.2107  1.8418
 1001MOL0     H35092   8.899   9.359  -1.072 -1.2527 -2.1074 -0.9994
 1001MOL0     H35093   9.098   9.154  -0.952  1.0666  0.2668 -0.7417
 1001MOL0     H35094   8.938   9.116  -1.013  0.1820 -0.8874  1.2784
 1001MOL0     H35095   8.863   9.360  -0.647 -0.2289 -2.5363  1.9533
 1001MOL0     H35096   8.587   9.553  -0.591 -1.7601 -1.7912 -3.3568
 1001MOL0     H35097   8.560   9.404  -0.504 -1.3157  0.3030 -0.7242
 1001MOL0     H35098   8.725   9.463  -0.521  0.0771 -1.8212  0.1676
 1001MOL0     H35099   8.143   9.269  -1.014 -2.6085  2.1022 -0.0657
 1001MOL0     H35100   7.907   9.314  -0.995 -0.8160  2.2824  1.1371
 1001MOL0     H35101   7.691   9.260  -0.604 -0.0307 -0.6399 -1.8687
 1001MOL0     H35102   7.735   9.433  -0.585 -1.1582  1.8340  0.0235
 1001MOL0     H35103   7.488   9.313  -0.724  0.0568  1.6907 -2.7428
 1001MOL0     H35104   7.496   9.386  -0.561 -0.3599 -0.9630  0.2941
 1001MOL0     H35105   7.523   9.545  -0.807 -1.4228  0.8653 -0.4238
 1001MOL0     H35106   7.547   9.607  -0.646  2.0821 -1.5797  0.4100
 1001MOL0     H35107   7.281   9.473  -0.737  0.2826  0.9640 -0.3281
 1001MOL0     H35108   7.317   9.545  -0.583  1.6701  2.0495  1.1997
 1001MOL0     H35109   7.189   9.678  -0.748  0.5190  0.1841 -0.0944
 1001MOL0     H35110   7.333   9.697  -0.842 -2.6517 -3.4836 -1.2420
 1001MOL0     H35111   7.306   9.774  -0.555  1.6811 -2.5230 -0.7692
 1001MOL0     H35112   7.446   9.817  -0.649  0.2904 -0.5005 -1.8296
 1001MOL0     H35113   7.158   9.896  -0.680 -0.1561  0.7154 -0.7290
 1001MOL0     H35114   7.259   9.903  -0.816 -1.4694 -2.7993  0.6306
 1001MOL0     H35115   7.250  10.138  -0.720 -1.1447  0.9070  2.6228
 1001MOL0     H35116   7.418  10.079  -0.717  0.6112  3.5633  1.6746
 1001MOL0     H35117   7.925   9.337  -0.565  0.6815  0.6062  0.1041
 1001MOL0     H35118   8.172   9.292  -0.580  1.2531 -1.0334 -0.3409
 1001MOL0     H35119   8.504   9.172  -0.933 -0.5628  1.0976 -0.7640
 1001MOL0     H35120   8.744   9.104  -0.967 -1.4535 -1.3035  0.8763
 1001MOL0     H35121   8.884  10.461  -0.013 -0.2210 -1.0157 -0.2115
 1001MOL0     H35122   8.958  10.616   0.144 -2.0148 -0.3586  0.6185
 1001MOL0     H35123   9.091  11.204   0.149  1.0555 -0.4978 -1.8149
 1001MOL0     H35124   9.163  11.337   0.351 -3.5376  0.0797 -0.7207
 1001MOL0     H35125   9.369  11.132   0.688 -0.6341 -0.8959  1.1970
 1001MOL0     H35126   9.302  11.274   0.768  1.2324  0.0772  0.0867
 1001MOL0     H35127   9.182  11.112   0.870  0.1652 -0.7898 -0.8649
 1001MOL0     H35128   9.161  11.016   0.720 -0.4424  0.6043 -3.5756
 1001MOL0     H35129   9.005  11.209   0.646  0.0519  0.3943  0.3127
 1001MOL0     H35130   9.031  11.298   0.796 -1.2894 -0.9539  0.5078
 1001MOL0     H35131   8.928  11.016   0.796  0.5061  0.2375  0.7876
 1001MOL0     H35132   8.829  11.173   0.793  1.5004  0.5713 -1.7668
 1001MOL0     H35133   8.980  11.157   1.193 -1.0949  0.3371  0.5278
 1001MOL0     H35134   9.321  10.999   0.533  1.9552  1.3136 -1.5272
 1001MOL0     H35135   9.255  10.850   0.340  0.0692 -0.0282  0.7919
 1002MOL0     O35136   1.990  10.613   2.954 -0.4525  0.2391 -0.0160
 1002MOL0     C35137   1.877  10.581   2.943 -0.2956  0.0608  0.1852
 1002MOL0     O35138   1.783  10.577   3.037 -0.2925 -0.0788 -0.0111
 1002MOL0     C35139   1.805  10.621   3.167 -0.1241 -0.2267  0.8695
 1002MOL0     C35140   1.792  10.761   3.186 -0.4315 -0.4011  0.2846
 1002MOL0     C35141   1.788  10.816   3.311 -0.2399 -0.7215  0.1077
 1002MOL0     C35142   1.822  10.738   3.424  0.0235 -0.7935  0.3536
 1002MOL0     O35143   1.837  10.803   3.548  0.2658  0.1665 -0.9979
 1002MOL0     C35144   1.960  10.771   3.606  0.1159  0.2566 -0.5703
 1002MOL0     C35145   1.997  10.873   3.710 -0.6523 -0.0168 -0.1660
 1002MOL0     C35146   2.014  11.014   3.646 -0.9192  0.2478  0.7866
 1002MOL0     C35147   2.022  11.130   3.745  0.1548 -0.0899  0.1195
 1002MOL0     C35148   1.895  11.187   3.817 -0.1311  0.3196 -0.8756
 1002MOL0     C35149   1.923  11.324   3.881 -0.1178  0.0008 -0.5735
 1002MOL0     C35150   1.798  11.409   3.882  1.1896 -0.7631 -1.3533
 1002MOL0     C35151   1.778  11.481   3.739 -0.0227 -0.6263 -0.5346
 1002MOL0     N35152   1.887  11.574   3.715  0.0875 -0.3912  0.7363
 1002MOL0     C35153   1.921  11.682   3.792 -0.5061 -0.3530  0.6404
 1002MOL0     C35154   2.013  11.744   3.713  0.0218  0.8290 -0.3635
 1002MOL0     C35155   2.079  11.872   3.752 -0.0754 -0.3234  0.2160
 1002MOL0     C35156   2.031  11.980   3.663  0.1378 -0.1901 -1.0409
 1002MOL0     C35157   2.099  12.115   3.696  0.0002 -0.6343 -0.7734
 1002MOL0     C35158   1.996  12.231   3.691  0.1153 -0.3718  0.2795
 1002MOL0     O35159   2.050  12.358   3.713 -0.8160 -0.5576  0.4660
 1002MOL0     C35160   1.971  12.468   3.734  0.9715  0.3138 -0.5316
 1002MOL0     C35161   2.023  12.586   3.790 -0.0407 -0.8061  0.6467
 1002MOL0     C35162   1.939  12.697   3.815 -0.1504  0.6317  0.5238
 1002MOL0     C35163   2.003  12.824   3.863  0.2307  0.4841 -0.5727
 1002MOL0     C35164   1.797  12.687   3.801 -0.7959  0.4586  0.3221
 1002MOL0     C35165   1.698  12.789   3.854 -0.3306 -0.6675  0.9540
 1002MOL0     O35166   1.595  12.802   3.769  0.5709  0.3869 -0.4094
 1002MOL0     C35167   1.482  12.858   3.826 -0.3313  0.3992 -0.7433
 1002MOL0     C35168   1.393  12.768   3.883 -0.2399 -0.0988  0.3894
 1002MOL0     C35169   1.275  12.811   3.940 -0.3179  0.2949  0.6568
 1002MOL0     C35170   1.237  12.941   3.939  0.1067 -0.6846 -0.3775
 1002MOL0     O35171   1.129  12.998   4.005  0.3034 -0.7167  0.1783
 1002MOL0     C35172   1.018  12.925   4.064 -0.7084 -0.4585 -0.3657
 1002MOL0     C35173   0.928  13.039   4.125  0.2090 -0.0511  1.0135
 1002MOL0     C35174   0.779  12.987   4.143  0.1831 -0.6307 -0.3317
 1002MOL0     C35175   0.690  13.099   4.210  0.0411  0.1236  0.3225
 1002MOL0     C35176   0.636  13.190   4.106 -0.1757  0.5569 -0.0731
 1002MOL0     C35177   0.557  13.288   4.175 -0.4496 -0.0517 -0.5420
 1002MOL0     C35178   0.470  13.367   4.084  0.4388  0.3154  0.1851
 1002MOL0     C35179   0.531  13.482   3.995 -0.8268  0.4618 -0.0923
 1002MOL0    Cl35180   0.398  13.599   3.955 -0.0231  0.2214 -0.1693
 1002MOL0     C35181   1.326  13.028   3.879  0.7423  0.0498 -1.0228
 1002MOL0     C35182   1.453  12.986   3.834  1.2249 -0.2782 -0.3929
 1002MOL0     O35183   1.717  12.843   3.963  0.4191 -0.1645  0.7201
 1002MOL0     C35184   1.751  12.562   3.758 -0.1584  0.0533  0.5318
 1002MOL0     C35185   1.835  12.461   3.718 -0.4873 -0.2491  1.1004
 1002MOL0     N35186   2.029  11.679   3.595 -0.6933  0.1214  0.4474
 1002MOL0     N35187   1.958  11.572   3.597 -0.3667 -0.7232  0.5046
 1002MOL0     C35188   1.839  10.598   3.403 -0.6046  0.1512  0.4184
 1002MOL0     C35189   1.833  10.540   3.273 -0.0326 -0.9176  1.3316
 1002MOL0     C35190   1.837  10.494   2.826  0.3921  0.8897  0.4582
 1002MOL0     C35191   1.742  10.388   2.848  0.2434 -0.1537  0.5728
 1002MOL0     C35192   1.691  10.315   2.742 -0.8044  0.6223  0.0079
 1002MOL0     C35193   1.746  10.313   2.621  0.1546 -0.0426 -0.0715
 1002MOL0     O35194   1.708  10.209   2.539 -0.1368 -0.2162  0.3272
 1002MOL0     C35195   1.737  10.205   2.402 -0.5530  0.7514 -0.2136
 1002MOL0     C35196   1.757  10.059   2.362  0.4831 -0.5451 -0.3292
 1002MOL0     C35197   1.631   9.984   2.363  0.4286 -0.1732 -0.2265
 1002MOL0     C35198   1.519  10.024   2.270  1.1286 -0.2482 -0.0892
 1002MOL0     C35199   1.436   9.903   2.231 -0.2594 -0.5944  0.0225
 1002MOL0     C35200   1.373   9.812   2.191 -0.0772  0.4716  0.4141
 1002MOL0     C35201   1.842  10.415   2.593 -0.6855  0.3731  0.4563
 1002MOL0     C35202   1.884  10.510   2.694 -0.9435  0.9830  0.1396
 1002MOL0     H35203   1.772  10.822   3.098  4.2713  0.3853 -0.5143
 1002MOL0     H35204   1.776  10.920   3.339  2.8949 -0.2816  0.1644
 1002MOL0     H35205   1.945  10.674   3.653 -1.8396  0.9425  0.3008
 1002MOL0     H35206   2.041  10.745   3.536 -0.3698 -1.1954 -0.6137
 1002MOL0     H35207   1.912  10.872   3.778  0.5451 -1.1727  1.3664
 1002MOL0     H35208   2.086  10.836   3.762 -1.3440 -1.3512  0.1139
 1002MOL0     H35209   2.117  11.009   3.607 -1.8252  0.2844 -1.8205
 1002MOL0     H35210   1.946  11.031   3.562  2.0189  0.7636 -1.7103
 1002MOL0     H35211   2.099  11.108   3.820 -2.1249  0.9120  2.9646
 1002MOL0     H35212   2.050  11.210   3.676 -4.1013  0.4732 -1.2481
 1002MOL0     H35213   1.810  11.185   3.748  0.9157 -0.7206 -2.1942
 1002MOL0     H35214   1.864  11.116   3.894 -0.4858  0.9133 -0.4666
 1002MOL0     H35215   1.972  11.318   3.979  1.5568  0.0546 -1.3636
 1002MOL0     H35216   1.990  11.382   3.815 -0.6083 -0.0959 -1.1619
 1002MOL0     H35217   1.720  11.344   3.922  1.7957  1.7740  5.1959
 1002MOL0     H35218   1.798  11.488   3.958  1.0045 -0.1042 -2.0220
 1002MOL0     H35219   1.690  11.544   3.726  0.6834  0.0010 -2.6846
 1002MOL0     H35220   1.771  11.400   3.665 -0.0763  0.9725 -2.3595
 1002MOL0     H35221   1.897  11.706   3.895  3.1219  0.5716  1.3913
 1002MOL0     H35222   2.064  11.906   3.855 -1.7051  0.4155 -0.2245
 1002MOL0     H35223   2.186  11.880   3.731 -0.0313  2.8428  1.0735
 1002MOL0     H35224   1.927  11.984   3.698  0.2068 -1.1557 -0.6740
 1002MOL0     H35225   2.043  11.957   3.557 -0.6382 -1.7768 -0.8119
 1002MOL0     H35226   2.174  12.130   3.618  0.4633 -1.9929 -0.6147
 1002MOL0     H35227   2.133  12.113   3.800 -2.7662 -0.0572  0.2183
 1002MOL0     H35228   1.916  12.211   3.763 -1.3127  2.4394 -0.3872
 1002MOL0     H35229   1.954  12.225   3.591 -0.1903  1.4143  0.2731
 1002MOL0     H35230   2.131  12.586   3.798 -0.0126  1.7426  1.4165
 1002MOL0     H35231   1.951  12.915   3.830 -3.4364 -0.1649  2.6304
 1002MOL0     H35232   2.000  12.830   3.972 -0.2677  0.1325 -0.5648
 1002MOL0     H35233   2.107  12.840   3.834 -0.0087  2.6346 -0.3832
 1002MOL0     H35234   1.411  12.661   3.874 -0.1372 -0.1253  0.8831
 1002MOL0     H35235   1.203  12.736   3.973  0.3384 -1.1755 -1.0667
 1002MOL0     H35236   0.966  12.878   3.979  1.9818 -1.0008 -1.8164
 1002MOL0     H35237   1.051  12.855   4.141 -0.4919 -0.7544 -0.7266
 1002MOL0     H35238   0.966  13.065   4.225  1.4736 -0.2098  0.5878
 1002MOL0     H35239   0.933  13.126   4.059  0.6513 -0.4412  0.5259
 1002MOL0     H35240   0.785  12.899   4.208  0.4632  0.8043  1.7000
 1002MOL0     H35241   0.742  12.958   4.045 -0.3899 -0.1423 -0.2668
 1002MOL0     H35242   0.608  13.047   4.261 -0.4513 -0.1828 -0.7678
 1002MOL0     H35243   0.740  13.146   4.296  1.8602 -4.4187  2.0571
 1002MOL0     H35244   0.581  13.133   4.031 -2.7116  1.0114  1.3356
 1002MOL0     H35245   0.716  13.245   4.055 -1.7746  1.8968 -1.2199
 1002MOL0     H35246   0.492  13.229   4.241 -1.3922  1.2257 -0.2767
 1002MOL0     H35247   0.629  13.342   4.237  2.2431 -1.6610 -2.0537
 1002MOL0     H35248   0.409  13.433   4.147 -0.9246  0.5760 -1.3416
 1002MOL0     H35249   0.408  13.306   4.018  0.0946  0.9121 -0.0489
 1002MOL0     H35250   0.583  13.447   3.905 -1.4707 -2.7085  0.6341
 1002MOL0     H35251   0.597  13.545   4.054 -3.9736  4.7448 -0.7045
 1002MOL0     H35252   1.299  13.133   3.874 -1.5285 -0.5240 -2.4112
 1002MOL0     H35253   1.538  13.051   3.817 -0.0248  1.6540  0.5046
 1002MOL0     H35254   1.643  12.560   3.752 -0.2378  0.7254  1.5035
 1002MOL0     H35255   1.783  12.371   3.686  0.8608 -0.5629 -0.3481
 1002MOL0     H35256   1.856  10.527   3.483  1.3243  0.0307 -0.0260
 1002MOL0     H35257   1.837  10.436   3.243 -0.7341 -1.1008  1.8226
 1002MOL0     H35258   1.688  10.367   2.939 -1.8550 -0.5394 -0.6905
 1002MOL0     H35259   1.621  10.237   2.767 -0.1610 -0.1904 -0.6832
 1002MOL0     H35260   1.647  10.250   2.359 -2.4156 -1.4902  1.0849
 1002MOL0     H35261   1.831  10.260   2.388 -0.7005  1.0821  0.0692
 1002MOL0     H35262   1.830  10.022   2.435 -0.6139  0.4428  1.3286
 1002MOL0     H35263   1.812  10.049   2.268  1.6209  1.2932  0.0861
 1002MOL0     H35264   1.593   9.974   2.465 -0.1964 -0.8677 -0.5182
 1002MOL0     H35265   1.654   9.887   2.319 -0.2054 -0.3387 -0.2062
 1002MOL0     H35266   1.565  10.073   2.183  2.7510 -0.9118  0.3585
 1002MOL0     H35267   1.460  10.097   2.325 -0.8313 -0.2041 -2.0623
 1002MOL0     H35268   1.321   9.719   2.181  2.1425 -1.2637  3.2910
 1002MOL0     H35269   1.892  10.420   2.497 -1.2326 -0.9748  0.0749
 1002MOL0     H35270   1.963  10.577   2.664  1.0532 -1.9467 -1.6347
 1003MOL0     O35271   9.670   9.238   1.530 -0.8125  0.3278 -0.1539
 1003MOL0     C35272   9.667   9.127   1.588 -0.2476  0.1434  0.6872
 1003MOL0     O35273   9.765   9.032   1.594  0.1041  0.1866  0.6147
 1003MOL0     C35274   9.872   9.054   1.510 -0.0248 -0.5248 -0.6420
 1003MOL0     C35275   9.881   8.985   1.390 -0.0958 -0.0908 -0.7709
 1003MOL0     C35276   9.999   8.995   1.308  0.0798  0.0135 -1.4554
 1003MOL0     C35277  10.107   9.085   1.353  0.1241 -0.0350  0.5995
 1003MOL0     O35278  10.232   9.108   1.292  0.0368  0.7453  0.0139
 1003MOL0     C35279  10.232   9.092   1.152  0.6374  0.0068  0.8964
 1003MOL0     C35280  10.154   9.210   1.078  0.0120  0.5654 -0.0232
 1003MOL0     C35281  10.152   9.217   0.924 -0.1432  0.4842  0.0078
 1003MOL0     C35282  10.103   9.096   0.842 -0.7661  0.5868  0.0426
 1003MOL0     C35283   9.954   9.097   0.838 -0.2637  0.0814 -1.0246
 1003MOL0     C35284   9.898   8.990   0.742  0.0925  0.7424  0.0083
 1003MOL0     C35285   9.743   8.975   0.745  0.5520 -0.1244  0.7401
 1003MOL0     C35286   9.690   8.931   0.882 -0.2174  0.1648 -0.2227
 1003MOL0     N35287   9.569   8.861   0.859  0.0029 -0.3439  0.1503
 1003MOL0     C35288   9.440   8.900   0.857  0.3012  0.2804 -0.2384
 1003MOL0     C35289   9.377   8.786   0.831  0.3392  0.4939  0.2132
 1003MOL0     C35290   9.229   8.765   0.822 -0.3194 -0.5482 -0.4466
 1003MOL0     C35291   9.162   8.652   0.903  0.2353  0.3653 -0.1511
 1003MOL0     C35292   9.188   8.667   1.058  0.5034  0.5610 -0.8748
 1003MOL0     C35293   9.085   8.584   1.145  0.3816 -0.5033 -0.1266
 1003MOL0     O35294   9.097   8.449   1.102  0.1471 -0.2753 -0.0302
 1003MOL0     C35295   8.972   8.386   1.123 -0.2081  0.6042  0.1511
 1003MOL0     C35296   8.937   8.332   1.243  0.7930 -0.2015  0.4671
 1003MOL0     C35297   8.811   8.270   1.270  0.5018 -0.0025  0.1051
 1003MOL0     C35298   8.787   8.205   1.408 -0.2653 -0.7787 -0.3463
 1003MOL0     C35299   8.715   8.273   1.176 -0.1032  0.1045  0.3713
 1003MOL0     C35300   8.571   8.244   1.206  0.4882  0.0922 -0.1856
 1003MOL0     O35301   8.482   8.334   1.160 -0.1744 -0.2140 -0.3130
 1003MOL0     C35302   8.352   8.307   1.183 -0.7557  0.6725  0.1587
 1003MOL0     C35303   8.275   8.205   1.118 -0.5116 -0.5091 -0.2700
 1003MOL0     C35304   8.149   8.178   1.159  0.0239 -0.9848 -0.0295
 1003MOL0     C35305   8.082   8.266   1.240  0.1021 -0.2689 -0.2337
 1003MOL0     O35306   7.952   8.237   1.268 -0.3492 -0.4138 -0.3760
 1003MOL0     C35307   7.865   8.350   1.300  0.2905  0.5669 -0.3389
 1003MOL0     C35308   7.723   8.309   1.341 -0.5730  0.5307 -0.0381
 1003MOL0     C35309   7.703   8.187   1.440  0.7006  0.0199 -1.0174
 1003MOL0     C35310   7.560   8.124   1.437 -0.6304  0.5486  0.1178
 1003MOL0     C35311   7.526   8.076   1.584 -0.0907 -0.0486 -0.8574
 1003MOL0     C35312   7.388   8.001   1.589  0.5092 -0.4394 -0.2366
 1003MOL0     C35313   7.352   7.973   1.739 -0.2745  0.8446 -0.8043
 1003MOL0     C35314   7.281   7.841   1.760  0.4363  0.0888  0.3157
 1003MOL0    Cl35315   7.298   7.793   1.924  0.3601  0.3001  0.0795
 1003MOL0     C35316   8.152   8.377   1.296  0.4886 -0.3772  0.2028
 1003MOL0     C35317   8.290   8.387   1.275  0.2394 -0.1777 -0.5495
 1003MOL0     O35318   8.537   8.138   1.256 -0.0116 -0.4353  0.5848
 1003MOL0     C35319   8.749   8.320   1.045  0.5281  0.6604 -0.3645
 1003MOL0     C35320   8.878   8.376   1.020  1.2487 -1.1647  0.0353
 1003MOL0     N35321   9.458   8.678   0.801  0.5867 -0.0598 -0.2766
 1003MOL0     N35322   9.571   8.728   0.835  0.2843  0.0160 -0.1057
 1003MOL0     C35323  10.083   9.172   1.459  1.3217 -0.4984 -0.2601
 1003MOL0     C35324   9.965   9.160   1.541  0.4834 -0.1750  1.0884
 1003MOL0     C35325   9.561   9.101   1.685 -0.4442 -0.2319 -0.1293
 1003MOL0     C35326   9.560   8.986   1.769  0.1287  0.3505 -0.1888
 1003MOL0     C35327   9.456   8.969   1.857 -0.8913  0.4534 -0.5346
 1003MOL0     C35328   9.346   9.053   1.860  0.7790  1.1239 -1.7358
 1003MOL0     O35329   9.258   9.016   1.954 -0.0901 -0.1909  0.1513
 1003MOL0     C35330   9.112   9.059   1.949  0.1607  0.7289  0.5764
 1003MOL0     C35331   9.038   9.024   1.824  0.8389  0.4900 -1.0608
 1003MOL0     C35332   8.892   9.070   1.834  0.3583  0.5190 -0.1120
 1003MOL0     C35333   8.807   9.082   1.705  0.2786  0.3657 -0.7078
 1003MOL0     C35334   8.859   9.187   1.611  0.0814  0.4606 -0.3801
 1003MOL0     C35335   8.916   9.274   1.557  0.7374 -0.3969 -0.0505
 1003MOL0     C35336   9.338   9.159   1.772 -0.4810  0.4504  0.0815
 1003MOL0     C35337   9.443   9.184   1.686  0.1656 -0.2010  0.0706
 1003MOL0     H35338   9.799   8.919   1.364 -3.3083  3.1656  0.2220
 1003MOL0     H35339  10.015   8.925   1.227  2.4906 -0.4533 -0.6387
 1003MOL0     H35340  10.334   9.091   1.113  0.2543 -1.2370 -0.1722
 1003MOL0     H35341  10.192   8.993   1.126  0.2843  0.2055  0.6657
 1003MOL0     H35342  10.047   9.208   1.102 -0.0554  0.3580 -0.3311
 1003MOL0     H35343  10.205   9.301   1.112  2.4724 -0.5256 -0.5703
 1003MOL0     H35344  10.095   9.304   0.890  0.3000 -0.2838 -2.9565
 1003MOL0     H35345  10.258   9.229   0.900  0.2107 -1.3462  0.5338
 1003MOL0     H35346  10.137   9.104   0.738 -0.5719  0.2160  0.0737
 1003MOL0     H35347  10.139   9.000   0.881 -1.4325  0.5749  0.6387
 1003MOL0     H35348   9.917   9.070   0.938  0.2669 -0.6823 -1.0225
 1003MOL0     H35349   9.919   9.196   0.809 -0.1947  0.9454  1.5271
 1003MOL0     H35350   9.921   9.020   0.640 -1.3980 -3.0751 -1.6319
 1003MOL0     H35351   9.945   8.897   0.777 -0.9908  1.1267  2.7737
 1003MOL0     H35352   9.690   9.066   0.716  0.3241 -1.4109 -3.6831
 1003MOL0     H35353   9.720   8.900   0.668  2.4530  1.6143 -1.6884
 1003MOL0     H35354   9.663   9.024   0.934 -1.2589  0.2874 -0.9549
 1003MOL0     H35355   9.743   8.858   0.944 -3.5359 -2.4660 -0.2165
 1003MOL0     H35356   9.396   8.997   0.878  0.3195  0.8983 -2.7434
 1003MOL0     H35357   9.169   8.854   0.845  0.2201 -0.7238  1.8350
 1003MOL0     H35358   9.212   8.741   0.716  2.4562  0.1737 -1.1476
 1003MOL0     H35359   9.193   8.554   0.864 -2.1702 -0.8824  0.8361
 1003MOL0     H35360   9.055   8.664   0.882 -0.5897 -0.5775  2.9188
 1003MOL0     H35361   9.197   8.772   1.087  1.2297 -0.0105  1.1583
 1003MOL0     H35362   9.282   8.625   1.093 -0.5945 -0.4117  1.0542
 1003MOL0     H35363   8.988   8.628   1.121 -0.5558 -3.0211 -1.3096
 1003MOL0     H35364   9.106   8.593   1.252 -0.5850 -2.2954  0.2484
 1003MOL0     H35365   9.017   8.345   1.315  0.9130  2.5767 -0.0532
 1003MOL0     H35366   8.882   8.185   1.458  0.0730  1.8815  0.2254
 1003MOL0     H35367   8.741   8.275   1.479 -0.5158  1.9778 -3.0283
 1003MOL0     H35368   8.724   8.117   1.396 -0.4869 -0.3124 -3.1384
 1003MOL0     H35369   8.326   8.143   1.045  1.1966  1.2098 -0.6503
 1003MOL0     H35370   8.101   8.089   1.122  1.2800 -0.6326 -2.7093
 1003MOL0     H35371   7.908   8.404   1.385  1.4097 -0.1718 -0.4088
 1003MOL0     H35372   7.863   8.422   1.218 -1.3077  1.8539  0.7661
 1003MOL0     H35373   7.675   8.393   1.391 -4.1485 -1.6220  0.5118
 1003MOL0     H35374   7.680   8.297   1.241  2.4412 -0.7053 -1.3261
 1003MOL0     H35375   7.727   8.231   1.537 -0.7513 -1.4400  0.0552
 1003MOL0     H35376   7.782   8.114   1.420  1.5453  0.4501  0.5525
 1003MOL0     H35377   7.499   8.200   1.388  1.6787  0.2653 -3.5300
 1003MOL0     H35378   7.558   8.041   1.366  0.2853 -0.6668  1.4562
 1003MOL0     H35379   7.523   8.164   1.649  2.3509  3.1159 -4.5858
 1003MOL0     H35380   7.596   8.007   1.631 -0.8639 -0.6323 -0.5356
 1003MOL0     H35381   7.311   8.063   1.543 -1.5923 -2.4566  0.4017
 1003MOL0     H35382   7.389   7.911   1.526 -2.8192  0.7570 -2.2461
 1003MOL0     H35383   7.292   8.052   1.784 -0.7683 -0.0765  0.1808
 1003MOL0     H35384   7.445   7.962   1.795  0.3782 -2.5994 -2.2745
 1003MOL0     H35385   7.323   7.763   1.695  1.8698 -0.3026  1.6533
 1003MOL0     H35386   7.175   7.846   1.736  1.0799  1.4568 -2.7196
 1003MOL0     H35387   8.093   8.433   1.368 -2.3841 -3.2768  0.3258
 1003MOL0     H35388   8.344   8.476   1.308 -1.0462 -0.0026  1.2451
 1003MOL0     H35389   8.675   8.321   0.966  0.4062  1.3378 -0.2493
 1003MOL0     H35390   8.905   8.435   0.932 -1.2013  1.4254  0.8610
 1003MOL0     H35391  10.158   9.246   1.485 -3.8985  5.5124 -0.0052
 1003MOL0     H35392   9.951   9.228   1.624 -1.3684 -1.6658  2.0562
 1003MOL0     H35393   9.647   8.921   1.778 -2.1875 -2.7466  1.4069
 1003MOL0     H35394   9.469   8.892   1.933  1.8076  0.9837 -0.3543
 1003MOL0     H35395   9.057   9.023   2.037 -0.0962 -1.5478 -0.4477
 1003MOL0     H35396   9.114   9.169   1.953 -1.7288  0.7877  0.5820
 1003MOL0     H35397   9.035   8.917   1.805 -1.8741  0.6913 -2.1464
 1003MOL0     H35398   9.080   9.070   1.734  2.1518  0.3574 -0.5423
 1003MOL0     H35399   8.882   9.172   1.872 -0.6561  0.0921  0.8345
 1003MOL0     H35400   8.843   9.005   1.907  0.0825 -1.9278 -2.3189
 1003MOL0     H35401   8.708   9.116   1.738  0.1307 -0.6878  0.0186
 1003MOL0     H35402   8.786   8.989   1.650  0.6880  0.0375 -0.3170
 1003MOL0     H35403   8.965   9.355   1.505  3.0487  0.1624  2.7261
 1003MOL0     H35404   9.248   9.220   1.765 -2.1202 -2.0076 -1.5984
 1003MOL0     H35405   9.428   9.262   1.611 -1.5410  0.9529  1.5533
 1004MOL0     O35406   0.427  11.131   4.729  0.4678 -0.9124  0.0950
 1004MOL0     C35407   0.384  11.223   4.801  0.7164  0.8488  0.2605
 1004MOL0     O35408   0.252  11.265   4.811  0.6435 -0.1367  0.8418
 1004MOL0     C35409   0.145  11.232   4.732 -1.2636  0.0168  0.0806
 1004MOL0     C35410   0.029  11.283   4.776  0.0259 -0.0430  0.3246
 1004MOL0     C35411  -0.089  11.270   4.697 -0.1698  0.3048  0.2122
 1004MOL0     C35412  -0.086  11.203   4.576 -0.4389  0.9031  0.4906
 1004MOL0     O35413  -0.190  11.166   4.501  0.4608  0.0621 -0.4067
 1004MOL0     C35414  -0.306  11.244   4.526 -0.4384 -0.3821  0.7544
 1004MOL0     C35415  -0.378  11.231   4.395  1.1639  1.0844 -0.2370
 1004MOL0     C35416  -0.514  11.300   4.405  1.3635  0.7621  0.0389
 1004MOL0     C35417  -0.635  11.235   4.475 -1.2476  0.0662 -0.2190
 1004MOL0     C35418  -0.743  11.341   4.499 -0.1319  0.7513  0.8619
 1004MOL0     C35419  -0.870  11.278   4.558 -0.1299 -0.5260  0.1649
 1004MOL0     C35420  -0.998  11.364   4.589 -0.0087 -0.1651  0.5775
 1004MOL0     C35421  -1.046  11.447   4.467 -1.1434  0.4001 -0.2442
 1004MOL0     N35422  -1.177  11.503   4.501  1.2176  0.5711 -0.8428
 1004MOL0     C35423  -1.235  11.608   4.425  0.4351  1.2569 -0.0689
 1004MOL0     C35424  -1.371  11.597   4.454  0.1353 -0.8942  0.0330
 1004MOL0     C35425  -1.478  11.683   4.395 -0.0722  0.2746  0.0281
 1004MOL0     C35426  -1.609  11.594   4.370 -0.1275 -1.0546 -0.7430
 1004MOL0     C35427  -1.725  11.677   4.342  0.8248  0.4235  0.6112
 1004MOL0     C35428  -1.859  11.606   4.306  0.5120 -0.5119  0.5925
 1004MOL0     O35429  -1.946  11.690   4.219  0.1487 -0.4839 -0.5036
 1004MOL0     C35430  -1.939  11.687   4.079  0.0652 -0.4402 -0.0482
 1004MOL0     C35431  -1.839  11.616   4.013  0.1572  0.0651  0.0727
 1004MOL0     C35432  -1.821  11.624   3.877  0.6625  0.5110 -0.0326
 1004MOL0     C35433  -1.727  11.522   3.825  0.3994 -0.8906 -0.0575
 1004MOL0     C35434  -1.924  11.694   3.801 -0.0027  0.3867  0.9818
 1004MOL0     C35435  -1.936  11.699   3.649 -0.4554  0.2972  0.6857
 1004MOL0     O35436  -2.042  11.769   3.587  0.0473 -0.4220 -0.4062
 1004MOL0     C35437  -2.058  11.759   3.449  0.2188  0.2027 -0.7566
 1004MOL0     C35438  -2.093  11.880   3.374  0.4274  0.0319 -0.3233
 1004MOL0     C35439  -2.107  11.873   3.238  1.6272  0.1993  0.2670
 1004MOL0     C35440  -2.109  11.751   3.174 -0.0670  0.4276 -0.1020
 1004MOL0     O35441  -2.147  11.727   3.047  0.9953  0.2565  0.2761
 1004MOL0     C35442  -2.136  11.830   2.944 -0.7032 -0.6022 -0.4851
 1004MOL0     C35443  -2.163  11.773   2.810 -0.3213  0.7291  0.2396
 1004MOL0     C35444  -2.307  11.740   2.781 -0.2648 -0.8883  0.0037
 1004MOL0     C35445  -2.344  11.618   2.858 -0.1220 -0.2485  0.4692
 1004MOL0     C35446  -2.464  11.557   2.785 -0.2925  0.2681  0.3353
 1004MOL0     C35447  -2.540  11.436   2.850 -1.1699 -0.6962 -1.1613
 1004MOL0     C35448  -2.667  11.400   2.770 -0.6905  0.4477  0.7090
 1004MOL0     C35449  -2.734  11.273   2.814 -0.0578  0.3117  0.4002
 1004MOL0    Cl35450  -2.915  11.301   2.771 -0.2899  0.3713 -0.3723
 1004MOL0     C35451  -2.080  11.642   3.246  0.2131 -0.0886 -1.0358
 1004MOL0     C35452  -2.059  11.640   3.383  0.1443 -0.2574 -0.4826
 1004MOL0     O35453  -1.842  11.641   3.590 -0.3431 -0.3673  0.7148
 1004MOL0     C35454  -2.022  11.764   3.868 -0.5341 -0.5340 -0.1576
 1004MOL0     C35455  -2.027  11.767   4.008  0.4286  0.6634  0.5211
 1004MOL0     N35456  -1.395  11.492   4.538 -0.2136  0.1221  0.2565
 1004MOL0     N35457  -1.284  11.429   4.551  0.6980 -0.1433 -0.3735
 1004MOL0     C35458   0.035  11.144   4.535 -0.0572  0.3116 -0.0017
 1004MOL0     C35459   0.148  11.160   4.608 -0.0907 -0.0820  0.4659
 1004MOL0     C35460   0.489  11.304   4.861  0.7657  0.0325  0.2942
 1004MOL0     C35461   0.445  11.405   4.935 -0.3295  0.1801  0.2541
 1004MOL0     C35462   0.539  11.481   5.008 -0.5275 -0.6851  0.8786
 1004MOL0     C35463   0.680  11.453   5.011 -0.2981 -0.0564 -0.4466
 1004MOL0     O35464   0.765  11.540   5.073  0.1010  0.5434  0.6429
 1004MOL0     C35465   0.881  11.502   5.150  1.5694 -0.1372 -0.1833
 1004MOL0     C35466   0.855  11.398   5.260  0.5848 -0.2696 -0.1883
 1004MOL0     C35467   0.788  11.440   5.386 -0.0588  0.4968  0.0289
 1004MOL0     C35468   0.771  11.320   5.494 -0.3206  0.1032 -0.2196
 1004MOL0     C35469   0.894  11.278   5.552  0.4476 -0.6131  0.2110
 1004MOL0     C35470   1.004  11.242   5.608  0.2188 -0.1126 -0.0324
 1004MOL0     C35471   0.720  11.344   4.936 -0.3525 -0.3505  0.5620
 1004MOL0     C35472   0.626  11.266   4.865 -0.5449 -0.1588 -0.5147
 1004MOL0     H35473   0.033  11.335   4.872  2.1456  0.0583  0.2356
 1004MOL0     H35474  -0.179  11.319   4.732 -2.7739 -3.5730 -0.3788
 1004MOL0     H35475  -0.370  11.231   4.613  0.1269  2.8170  1.8003
 1004MOL0     H35476  -0.274  11.349   4.536 -2.3420  0.0645  3.1205
 1004MOL0     H35477  -0.307  11.275   4.325  1.3776 -1.1790 -1.5403
 1004MOL0     H35478  -0.401  11.127   4.370  0.2113  1.0988  0.5150
 1004MOL0     H35479  -0.496  11.397   4.454  0.3914  0.6235  0.6966
 1004MOL0     H35480  -0.554  11.315   4.305 -0.9256 -2.1537  0.3855
 1004MOL0     H35481  -0.683  11.156   4.416  1.9200 -2.0368 -0.2477
 1004MOL0     H35482  -0.606  11.188   4.570  0.7902 -1.9096 -1.7090
 1004MOL0     H35483  -0.709  11.424   4.562 -1.1669  1.9814 -0.1420
 1004MOL0     H35484  -0.756  11.392   4.403  0.0759  0.2228  0.5469
 1004MOL0     H35485  -0.893  11.208   4.478  1.6700 -1.2319  0.2152
 1004MOL0     H35486  -0.856  11.219   4.649  0.5499  0.2486  0.5806
 1004MOL0     H35487  -1.077  11.288   4.591 -0.0932 -0.1850 -1.4257
 1004MOL0     H35488  -0.984  11.413   4.685 -5.3835 -1.6211  2.4221
 1004MOL0     H35489  -1.055  11.392   4.372 -2.0348 -0.5281  0.3637
 1004MOL0     H35490  -0.974  11.526   4.442  1.7200 -2.1665 -0.7890
 1004MOL0     H35491  -1.181  11.681   4.366  1.5380  0.1378 -0.4825
 1004MOL0     H35492  -1.506  11.759   4.469 -0.5060 -0.0449  0.1962
 1004MOL0     H35493  -1.458  11.742   4.305  0.2238 -1.9766 -1.4509
 1004MOL0     H35494  -1.629  11.521   4.449 -1.2874 -0.1589 -0.1905
 1004MOL0     H35495  -1.596  11.532   4.280  0.1395 -0.4883 -1.1010
 1004MOL0     H35496  -1.706  11.739   4.254  0.8682  1.4285  1.3159
 1004MOL0     H35497  -1.757  11.749   4.418 -3.0574  0.6356 -0.9890
 1004MOL0     H35498  -1.911  11.593   4.401  1.3091  1.3407  1.3389
 1004MOL0     H35499  -1.844  11.501   4.278 -0.9640 -0.9043  1.1879
 1004MOL0     H35500  -1.770  11.553   4.067 -0.2689 -0.9080 -0.4778
 1004MOL0     H35501  -1.636  11.567   3.785 -0.2409 -1.3073 -2.0986
 1004MOL0     H35502  -1.687  11.462   3.907 -1.2860  0.7698  2.1340
 1004MOL0     H35503  -1.775  11.456   3.752 -1.0041 -1.5959  1.4325
 1004MOL0     H35504  -2.080  11.977   3.422 -2.9295  0.5268 -0.1731
 1004MOL0     H35505  -2.134  11.957   3.175  1.3131 -0.4993 -0.5631
 1004MOL0     H35506  -2.210  11.908   2.968  1.2458  1.0103  0.5484
 1004MOL0     H35507  -2.035  11.870   2.954 -1.6690  1.6433  1.4697
 1004MOL0     H35508  -2.135  11.846   2.734 -1.4825  1.5405  0.5675
 1004MOL0     H35509  -2.110  11.681   2.784  0.4269  0.8212  1.3527
 1004MOL0     H35510  -2.318  11.724   2.674 -2.1512  0.5863 -0.0754
 1004MOL0     H35511  -2.375  11.819   2.815 -0.7930 -1.5377  0.4824
 1004MOL0     H35512  -2.269  11.540   2.868  0.9353  0.2655 -2.4742
 1004MOL0     H35513  -2.392  11.653   2.951 -0.6279 -2.0423  0.9183
 1004MOL0     H35514  -2.428  11.519   2.689 -1.3376 -0.0991  0.0739
 1004MOL0     H35515  -2.535  11.639   2.771 -0.2282  0.1752 -0.5597
 1004MOL0     H35516  -2.475  11.349   2.859  1.8446  1.4575 -0.4312
 1004MOL0     H35517  -2.562  11.472   2.952 -1.7066 -1.7354 -0.9002
 1004MOL0     H35518  -2.625  11.373   2.673  0.6840 -0.6989  1.5775
 1004MOL0     H35519  -2.729  11.490   2.777  0.2603  1.3356 -1.3585
 1004MOL0     H35520  -2.733  11.258   2.923  1.2784  1.6619  0.6042
 1004MOL0     H35521  -2.682  11.196   2.756  1.1183  1.7118 -0.4544
 1004MOL0     H35522  -2.078  11.550   3.189  0.3173 -1.7123  1.4533
 1004MOL0     H35523  -2.022  11.547   3.424  0.0769 -0.3594 -0.6509
 1004MOL0     H35524  -2.103  11.812   3.813 -0.2976  0.1529  0.0765
 1004MOL0     H35525  -2.096  11.832   4.061 -3.0635 -0.1051 -2.7004
 1004MOL0     H35526   0.032  11.071   4.454 -2.8523  0.4736 -0.1449
 1004MOL0     H35527   0.238  11.106   4.580 -0.3164 -0.6232  0.7681
 1004MOL0     H35528   0.339  11.420   4.953 -0.6712  0.2509 -1.6265
 1004MOL0     H35529   0.502  11.560   5.073  1.8740  0.1208  1.3690
 1004MOL0     H35530   0.958  11.455   5.087  1.8710 -1.9151  1.4184
 1004MOL0     H35531   0.922  11.593   5.194  0.7419 -0.2131  0.7858
 1004MOL0     H35532   0.955  11.368   5.290 -0.7116 -3.3496  1.5060
 1004MOL0     H35533   0.801  11.312   5.219  1.7061 -3.3196  4.0636
 1004MOL0     H35534   0.689  11.474   5.356 -0.6484 -1.0622  0.1179
 1004MOL0     H35535   0.850  11.526   5.414 -0.6541  1.7430 -2.2319
 1004MOL0     H35536   0.726  11.235   5.441 -0.4835 -0.5685  0.9777
 1004MOL0     H35537   0.701  11.352   5.571 -1.5474 -2.5283 -0.1247
 1004MOL0     H35538   1.095  11.210   5.654  0.2106 -0.4753 -0.2610
 1004MOL0     H35539   0.823  11.314   4.921 -0.3116 -0.4065  0.9506
 1004MOL0     H35540   0.663  11.189   4.799  3.7035  3.1667 -2.4878
 1005MOL0     O35541   7.712   2.518   5.925  0.4053  0.1139 -0.5041
 1005MOL0     C35542   7.684   2.536   5.807  0.1730  0.5209  0.1571
 1005MOL0     O35543   7.578   2.611   5.764 -0.0479  0.3881 -0.4708
 1005MOL0     C35544   7.506   2.676   5.858  0.1275  0.9352  0.0226
 1005MOL0     C35545   7.419   2.615   5.948  0.4591  0.1506  0.1142
 1005MOL0     C35546   7.334   2.686   6.039 -0.0826 -0.3329  0.5764
 1005MOL0     C35547   7.357   2.823   6.050  1.2277 -0.2110  0.1403
 1005MOL0     O35548   7.293   2.890   6.152  0.0515 -0.5020 -0.6161
 1005MOL0     C35549   7.280   3.030   6.159 -0.2478  0.4061  0.2171
 1005MOL0     C35550   7.186   3.086   6.270 -0.5320  0.4803  0.2156
 1005MOL0     C35551   7.053   3.012   6.258  0.9390 -0.3973 -0.3627
 1005MOL0     C35552   6.968   3.017   6.395 -0.2787 -0.4143 -0.1249
 1005MOL0     C35553   6.979   2.880   6.468  0.9051 -0.4675  0.4398
 1005MOL0     C35554   6.926   2.898   6.618 -0.1735  0.7581  1.1115
 1005MOL0     C35555   6.773   2.921   6.629  0.3780 -0.0072  0.2912
 1005MOL0     C35556   6.685   2.804   6.565  0.6358 -0.8278  1.3568
 1005MOL0     N35557   6.545   2.839   6.585 -0.1886  0.2190 -0.0734
 1005MOL0     C35558   6.472   2.811   6.693  0.0489 -0.7032 -0.8811
 1005MOL0     C35559   6.340   2.833   6.656  0.5825 -1.6332 -0.4031
 1005MOL0     C35560   6.217   2.812   6.746 -0.1516  0.3390  0.5694
 1005MOL0     C35561   6.100   2.764   6.653  0.0690 -0.4468 -1.0197
 1005MOL0     C35562   5.971   2.762   6.734  0.2592  0.9101 -1.0271
 1005MOL0     C35563   5.848   2.715   6.653  0.1737 -0.7625  0.3229
 1005MOL0     O35564   5.859   2.588   6.595  0.0023  0.3409 -0.2446
 1005MOL0     C35565   5.750   2.509   6.551 -0.5987  0.0465 -0.0337
 1005MOL0     C35566   5.617   2.556   6.550  0.1849 -0.0194 -1.3985
 1005MOL0     C35567   5.509   2.475   6.502  0.1327 -0.4993  0.2007
 1005MOL0     C35568   5.371   2.543   6.500 -0.2395 -0.6281 -0.9662
 1005MOL0     C35569   5.527   2.348   6.460  0.3495  0.5198 -1.1528
 1005MOL0     C35570   5.416   2.245   6.428 -0.1682 -0.4692  0.2293
 1005MOL0     O35571   5.471   2.125   6.380  0.4003 -0.2014  0.0184
 1005MOL0     C35572   5.380   2.027   6.333 -0.0039 -0.5033 -0.4814
 1005MOL0     C35573   5.293   2.045   6.230  0.1549 -1.1643 -0.4807
 1005MOL0     C35574   5.231   1.933   6.172 -1.0444 -1.0060 -0.3900
 1005MOL0     C35575   5.244   1.802   6.219 -0.9482 -1.0388 -0.1965
 1005MOL0     O35576   5.181   1.696   6.167  0.0465  0.5942 -0.6188
 1005MOL0     C35577   5.208   1.658   6.029  0.1936  0.0254  0.0675
 1005MOL0     C35578   5.263   1.513   6.002 -0.2922  0.3838  0.6805
 1005MOL0     C35579   5.165   1.410   6.041  0.7276  0.7838 -0.8398
 1005MOL0     C35580   5.148   1.388   6.190  0.5435  0.3518  0.1985
 1005MOL0     C35581   5.272   1.374   6.268  0.1055  0.9299  0.4050
 1005MOL0     C35582   5.373   1.267   6.217  0.3401 -0.0800  0.3558
 1005MOL0     C35583   5.503   1.267   6.301  0.6226 -0.9090 -0.2311
 1005MOL0     C35584   5.584   1.144   6.263 -0.3107 -0.1424  0.9355
 1005MOL0    Cl35585   5.729   1.137   6.359 -0.0006 -0.3902 -0.3608
 1005MOL0     C35586   5.342   1.784   6.309  0.3965 -0.7569 -0.0639
 1005MOL0     C35587   5.411   1.891   6.370 -0.4150 -0.0171  0.2249
 1005MOL0     O35588   5.298   2.273   6.431  0.4476 -0.9328  0.5354
 1005MOL0     C35589   5.664   2.302   6.455  0.4770 -0.6395  0.2764
 1005MOL0     C35590   5.770   2.378   6.499  0.2587 -0.2758  1.1150
 1005MOL0     N35591   6.336   2.868   6.525  0.0351  0.2404  0.2880
 1005MOL0     N35592   6.458   2.884   6.489  0.4554  0.2436 -0.6076
 1005MOL0     C35593   7.428   2.888   5.953 -0.4325 -0.1647  0.1994
 1005MOL0     C35594   7.508   2.813   5.868 -0.4789 -0.1414  0.2208
 1005MOL0     C35595   7.764   2.453   5.712  0.1412 -0.2116 -0.0231
 1005MOL0     C35596   7.710   2.416   5.594  0.3694  0.1623 -0.2419
 1005MOL0     C35597   7.775   2.321   5.514 -0.5090 -0.1776 -0.1080
 1005MOL0     C35598   7.910   2.282   5.544  0.2030 -0.8227  0.0770
 1005MOL0     O35599   7.972   2.197   5.462  0.1832 -0.3243 -0.0882
 1005MOL0     C35600   8.086   2.119   5.504  0.5524  0.3299  0.2952
 1005MOL0     C35601   8.103   1.991   5.416  0.7391  0.2179  0.9835
 1005MOL0     C35602   8.151   1.999   5.272  0.2136  0.2381 -0.2876
 1005MOL0     C35603   8.183   1.856   5.213  0.7425 -0.2660  0.1183
 1005MOL0     C35604   8.062   1.778   5.217  0.3864  0.5059 -0.5376
 1005MOL0     C35605   7.973   1.703   5.229  0.6929  0.7692  0.1875
 1005MOL0     C35606   7.965   2.341   5.659  0.8256  0.0237  1.1989
 1005MOL0     C35607   7.894   2.420   5.747 -0.4634 -1.5778 -0.2577
 1005MOL0     H35608   7.421   2.506   5.955 -0.6009  0.0898 -0.3717
 1005MOL0     H35609   7.252   2.647   6.099 -1.0012  1.6030  0.6477
 1005MOL0     H35610   7.385   3.063   6.163 -0.7528  2.2455 -0.4339
 1005MOL0     H35611   7.231   3.068   6.069 -1.0515  3.6582  1.8592
 1005MOL0     H35612   7.230   3.073   6.370 -0.8646  0.0105  0.3037
 1005MOL0     H35613   7.172   3.194   6.257 -1.2479  0.7440  2.5757
 1005MOL0     H35614   6.999   3.046   6.169  2.4007 -1.0402 -1.5444
 1005MOL0     H35615   7.074   2.905   6.242  4.5515  0.0993  0.1437
 1005MOL0     H35616   7.013   3.096   6.456  2.6340 -1.1828 -1.0838
 1005MOL0     H35617   6.862   3.027   6.369 -0.9576 -0.6785  2.2982
 1005MOL0     H35618   6.914   2.809   6.415  0.2881  0.4170 -0.0229
 1005MOL0     H35619   7.084   2.851   6.466  0.7284 -1.1954  1.2850
 1005MOL0     H35620   6.963   2.811   6.672  0.9609  1.6160  1.7467
 1005MOL0     H35621   6.970   2.979   6.676  0.0629 -1.8572  4.9034
 1005MOL0     H35622   6.751   2.938   6.735 -0.8593  1.7776 -0.1967
 1005MOL0     H35623   6.730   3.014   6.588 -0.2179 -0.4834 -0.1871
 1005MOL0     H35624   6.695   2.702   6.602 -1.6092 -1.5713  0.1548
 1005MOL0     H35625   6.699   2.817   6.457 -0.6350  0.9600  1.3582
 1005MOL0     H35626   6.503   2.776   6.791 -0.6801 -1.4307 -0.8966
 1005MOL0     H35627   6.244   2.738   6.822 -2.6415  1.6628  2.9080
 1005MOL0     H35628   6.194   2.903   6.804  1.0636 -0.1643  1.9234
 1005MOL0     H35629   6.126   2.665   6.614 -0.4460 -0.6467 -0.8658
 1005MOL0     H35630   6.084   2.835   6.572  0.2627 -0.8154 -1.3859
 1005MOL0     H35631   5.946   2.857   6.782  2.6729  0.6918  0.8091
 1005MOL0     H35632   5.980   2.687   6.813  1.8196  0.5958 -1.4698
 1005MOL0     H35633   5.838   2.780   6.566  1.7679 -0.0647  0.6179
 1005MOL0     H35634   5.758   2.727   6.714  1.7105  0.9991  2.4481
 1005MOL0     H35635   5.598   2.660   6.575 -2.2120 -1.1587  2.2913
 1005MOL0     H35636   5.346   2.538   6.394 -2.1222 -0.9701 -0.5402
 1005MOL0     H35637   5.289   2.499   6.557  1.5576 -2.3861  0.4529
 1005MOL0     H35638   5.375   2.647   6.531  0.5035 -1.0228  0.3485
 1005MOL0     H35639   5.281   2.148   6.199  0.5564  0.3282  3.7101
 1005MOL0     H35640   5.156   1.948   6.095 -0.8080  1.7358 -0.1864
 1005MOL0     H35641   5.116   1.674   5.972 -0.2116  0.6639  0.8750
 1005MOL0     H35642   5.287   1.729   6.003  1.1017  0.4697  3.4563
 1005MOL0     H35643   5.275   1.508   5.893 -1.2362  0.6117  0.5592
 1005MOL0     H35644   5.359   1.496   6.052 -1.6300 -2.2483  2.6301
 1005MOL0     H35645   5.182   1.324   5.976 -0.8289  0.3516 -0.7107
 1005MOL0     H35646   5.059   1.432   6.027 -0.4085 -1.5468  2.7954
 1005MOL0     H35647   5.089   1.471   6.229  0.3776 -0.1755  1.0825
 1005MOL0     H35648   5.093   1.298   6.218  1.4913 -0.6534 -1.0655
 1005MOL0     H35649   5.241   1.357   6.372 -0.4043  0.2286  0.1470
 1005MOL0     H35650   5.327   1.468   6.260 -0.4120  1.0994 -1.7812
 1005MOL0     H35651   5.329   1.168   6.230 -2.5219  1.1320  0.7634
 1005MOL0     H35652   5.411   1.286   6.116 -1.5525 -0.1879 -0.4161
 1005MOL0     H35653   5.485   1.265   6.408 -1.6429  0.6804 -0.5104
 1005MOL0     H35654   5.564   1.356   6.283  0.4307 -0.7460 -0.0733
 1005MOL0     H35655   5.608   1.145   6.156  3.1386  1.6190  1.5673
 1005MOL0     H35656   5.518   1.059   6.277 -1.9513  1.1621  1.4749
 1005MOL0     H35657   5.371   1.685   6.343  0.5687 -1.0769 -1.1357
 1005MOL0     H35658   5.475   1.889   6.457  2.0666  1.5100 -1.4322
 1005MOL0     H35659   5.697   2.205   6.420 -0.1624 -2.2746  3.7423
 1005MOL0     H35660   5.871   2.341   6.483  0.2242  0.3697 -0.8609
 1005MOL0     H35661   7.449   2.995   5.955  0.2021 -0.1752 -2.4860
 1005MOL0     H35662   7.576   2.860   5.798  2.4844 -2.3453  1.4288
 1005MOL0     H35663   7.604   2.429   5.579  0.0031 -0.9587  1.1132
 1005MOL0     H35664   7.726   2.269   5.432 -0.2533 -0.3771 -0.1334
 1005MOL0     H35665   8.175   2.182   5.510 -0.3965  1.8034 -0.5758
 1005MOL0     H35666   8.062   2.078   5.603 -3.2852 -0.2667 -0.7146
 1005MOL0     H35667   8.005   1.943   5.412  0.0563  1.6291 -0.1635
 1005MOL0     H35668   8.177   1.925   5.463  0.3461 -0.6348  0.4185
 1005MOL0     H35669   8.239   2.061   5.256  0.8084 -0.9593 -1.9179
 1005MOL0     H35670   8.064   2.041   5.220  0.9160  3.0864  0.6760
 1005MOL0     H35671   8.260   1.799   5.267 -0.5985 -1.8659  0.4274
 1005MOL0     H35672   8.219   1.864   5.110 -0.6814 -0.7910 -0.4474
 1005MOL0     H35673   7.899   1.629   5.252  0.9542  0.8412  1.2749
 1005MOL0     H35674   8.067   2.329   5.693 -0.2308 -1.0287  4.3032
 1005MOL0     H35675   7.949   2.450   5.836 -1.1111 -0.1204 -0.3164
 1006MOL0     O35676   7.800   6.307   2.940  0.4405  0.2832 -0.6254
 1006MOL0     C35677   7.703   6.223   2.936 -0.4683 -1.1220  0.2388
 1006MOL0     O35678   7.649   6.166   2.822  1.2035  0.2549 -0.2820
 1006MOL0     C35679   7.678   6.231   2.706  0.4399  1.0306 -0.4733
 1006MOL0     C35680   7.807   6.262   2.660 -1.2157 -0.6077  0.3867
 1006MOL0     C35681   7.815   6.333   2.544  0.2578 -0.0955 -0.0023
 1006MOL0     C35682   7.695   6.377   2.474  0.6936 -0.0722 -0.0414
 1006MOL0     O35683   7.707   6.458   2.364  0.4270  0.3026 -0.4169
 1006MOL0     C35684   7.842   6.479   2.299  0.4200 -0.0539  0.6558
 1006MOL0     C35685   7.832   6.556   2.166  1.1562 -0.2667 -0.5711
 1006MOL0     C35686   7.814   6.705   2.184 -0.6594  0.7464  0.0212
 1006MOL0     C35687   7.715   6.751   2.293 -0.1880  0.6178 -0.4132
 1006MOL0     C35688   7.682   6.903   2.293 -0.2923  1.2337  0.6173
 1006MOL0     C35689   7.595   6.932   2.410  0.7691  1.3391  0.4287
 1006MOL0     C35690   7.526   7.070   2.393 -0.4432  0.1675 -0.1484
 1006MOL0     C35691   7.483   7.136   2.526 -0.4494 -0.2314  0.3252
 1006MOL0     N35692   7.356   7.079   2.574 -0.4693  0.0752 -0.5262
 1006MOL0     C35693   7.232   7.144   2.572 -0.2599 -0.2723 -0.4009
 1006MOL0     C35694   7.157   7.063   2.647  0.2716 -0.3356 -0.3825
 1006MOL0     C35695   7.012   7.072   2.686  0.7130 -0.3138  0.3042
 1006MOL0     C35696   6.950   6.934   2.664  0.3259  0.1902  0.1625
 1006MOL0     C35697   6.801   6.928   2.676 -0.5358 -0.0415 -0.0152
 1006MOL0     C35698   6.735   6.854   2.559  0.0257 -0.2552  0.0151
 1006MOL0     O35699   6.604   6.809   2.588  0.7086 -0.5271 -0.9686
 1006MOL0     C35700   6.515   6.905   2.638  0.7447  0.3826 -0.2115
 1006MOL0     C35701   6.505   7.032   2.575 -0.1277 -1.0890 -0.2955
 1006MOL0     C35702   6.412   7.133   2.619 -0.2480 -0.7268 -0.5482
 1006MOL0     C35703   6.403   7.265   2.538  0.9382  0.1835 -0.1263
 1006MOL0     C35704   6.340   7.107   2.741  0.8207 -0.4432 -0.1341
 1006MOL0     C35705   6.241   7.203   2.803  0.3625  0.0670  0.0153
 1006MOL0     O35706   6.236   7.210   2.937 -0.0604 -0.0829  0.1129
 1006MOL0     C35707   6.139   7.284   2.989 -0.0878 -0.3946  0.6071
 1006MOL0     C35708   6.003   7.269   2.946 -1.3213  0.0561 -0.0816
 1006MOL0     C35709   5.899   7.341   3.003  0.2174 -0.3215 -0.0393
 1006MOL0     C35710   5.925   7.451   3.085 -0.5020  0.5026  0.4281
 1006MOL0     O35711   5.827   7.525   3.137 -0.4090 -0.7384 -0.5239
 1006MOL0     C35712   5.720   7.570   3.054 -0.0150  0.4428  0.2442
 1006MOL0     C35713   5.615   7.625   3.144  0.4772 -0.6872 -0.1418
 1006MOL0     C35714   5.520   7.519   3.205 -0.5892 -0.1581  0.2196
 1006MOL0     C35715   5.411   7.587   3.298  0.1811 -0.8890  0.9610
 1006MOL0     C35716   5.292   7.647   3.220  0.2770 -0.1269 -0.0159
 1006MOL0     C35717   5.182   7.686   3.310  0.0240  0.5941 -0.2802
 1006MOL0     C35718   5.062   7.749   3.238 -0.4091  0.0591 -0.4466
 1006MOL0     C35719   5.108   7.880   3.183 -0.7131 -0.5463  0.0708
 1006MOL0    Cl35720   4.975   7.976   3.121  0.6585 -0.0246  0.4621
 1006MOL0     C35721   6.052   7.475   3.123 -0.5829  0.6067  0.8803
 1006MOL0     C35722   6.162   7.390   3.082  0.1435 -0.4524 -0.4121
 1006MOL0     O35723   6.168   7.258   2.722  0.3400  0.1515  0.1032
 1006MOL0     C35724   6.353   6.982   2.811  0.1694 -0.1534 -0.0017
 1006MOL0     C35725   6.451   6.890   2.759  0.3359  0.7356 -0.3737
 1006MOL0     N35726   7.232   6.956   2.694 -0.6645 -0.2222 -0.1297
 1006MOL0     N35727   7.349   6.974   2.652  0.8297  0.3929 -0.8717
 1006MOL0     C35728   7.572   6.354   2.522 -0.2501  0.5098  0.3356
 1006MOL0     C35729   7.572   6.271   2.629 -0.5456 -0.5447  0.1702
 1006MOL0     C35730   7.633   6.182   3.060  0.8780  0.1187 -0.5115
 1006MOL0     C35731   7.693   6.175   3.181 -0.1576 -0.3138 -0.5729
 1006MOL0     C35732   7.619   6.151   3.299 -0.3581 -1.0651  0.4498
 1006MOL0     C35733   7.486   6.111   3.292 -0.4610 -0.0895  0.5239
 1006MOL0     O35734   7.443   6.043   3.398 -0.3894 -0.2697 -0.3311
 1006MOL0     C35735   7.308   5.974   3.412 -0.5527  0.1558  0.2922
 1006MOL0     C35736   7.307   5.844   3.334 -0.3535  0.6405  0.4797
 1006MOL0     C35737   7.263   5.725   3.424  0.3412  0.4491  0.3754
 1006MOL0     C35738   7.218   5.614   3.323 -0.1403  1.0244 -1.5773
 1006MOL0     C35739   7.168   5.505   3.412  0.2832  0.1127 -0.2904
 1006MOL0     C35740   7.120   5.424   3.490 -0.7580 -0.0387  0.2194
 1006MOL0     C35741   7.416   6.124   3.168 -0.1324  0.3393 -0.6097
 1006MOL0     C35742   7.492   6.161   3.052  0.2545  0.7478 -0.2102
 1006MOL0     H35743   7.898   6.234   2.712  1.3844 -1.1630 -3.9503
 1006MOL0     H35744   7.913   6.358   2.507 -0.1780  1.8073  0.0258
 1006MOL0     H35745   7.918   6.527   2.361  4.5321 -0.8595 -3.2564
 1006MOL0     H35746   7.869   6.378   2.266  1.8948 -0.0459  1.7609
 1006MOL0     H35747   7.922   6.540   2.105  1.6167  1.5700 -0.4173
 1006MOL0     H35748   7.746   6.523   2.108 -0.3900 -0.1456  1.5394
 1006MOL0     H35749   7.906   6.757   2.212 -0.4320 -1.1371  3.2100
 1006MOL0     H35750   7.771   6.736   2.088 -2.2816  3.0356  1.3887
 1006MOL0     H35751   7.621   6.697   2.282 -0.0235 -0.5675  2.8014
 1006MOL0     H35752   7.757   6.719   2.389 -0.4229  2.4552  0.3409
 1006MOL0     H35753   7.775   6.957   2.317 -0.7374  2.3583 -0.0883
 1006MOL0     H35754   7.645   6.943   2.199  1.6593  1.9236  0.0890
 1006MOL0     H35755   7.525   6.849   2.425  1.9320 -0.1436 -1.7154
 1006MOL0     H35756   7.661   6.936   2.497 -1.0731  1.2717  1.8934
 1006MOL0     H35757   7.609   7.128   2.352  2.2515 -4.6485 -2.4486
 1006MOL0     H35758   7.439   7.069   2.326  1.0023 -0.2673 -2.1379
 1006MOL0     H35759   7.460   7.243   2.518  0.2250  0.0219  1.4872
 1006MOL0     H35760   7.558   7.138   2.606  0.5222 -2.1582 -0.4855
 1006MOL0     H35761   7.209   7.238   2.523 -0.2925  0.8695  1.6928
 1006MOL0     H35762   7.003   7.113   2.787  0.5762  1.6131 -0.4290
 1006MOL0     H35763   6.966   7.140   2.612  1.6260 -0.2545 -0.2235
 1006MOL0     H35764   7.006   6.855   2.714 -1.1933 -1.0413  0.0157
 1006MOL0     H35765   6.962   6.906   2.559 -1.1258 -1.0343  0.2860
 1006MOL0     H35766   6.753   7.026   2.687 -0.5680 -0.1647  0.9828
 1006MOL0     H35767   6.791   6.882   2.774 -0.5504 -0.5536 -0.2527
 1006MOL0     H35768   6.793   6.770   2.523  1.7555  1.5007 -1.5292
 1006MOL0     H35769   6.726   6.909   2.465  0.7220 -1.6345 -0.8819
 1006MOL0     H35770   6.567   7.071   2.495  1.0346  0.0779  1.1413
 1006MOL0     H35771   6.478   7.278   2.459 -0.8077  0.1777 -1.8702
 1006MOL0     H35772   6.312   7.267   2.478  0.6120 -1.5191  0.2519
 1006MOL0     H35773   6.424   7.355   2.597  2.5114 -1.6214  2.2527
 1006MOL0     H35774   5.972   7.187   2.881  1.9039 -0.6338 -0.9172
 1006MOL0     H35775   5.793   7.326   2.985 -0.1547  0.7624  1.0807
 1006MOL0     H35776   5.756   7.646   2.985  1.2195  0.4302  0.8656
 1006MOL0     H35777   5.685   7.478   3.005  4.4532 -2.0114  1.0908
 1006MOL0     H35778   5.672   7.677   3.220 -0.7165  0.6487 -0.1280
 1006MOL0     H35779   5.551   7.701   3.098  0.6433  0.1788  1.0420
 1006MOL0     H35780   5.590   7.457   3.261  2.1907  1.3681 -1.3096
 1006MOL0     H35781   5.468   7.463   3.127  3.2239  1.2854 -3.7757
 1006MOL0     H35782   5.373   7.522   3.376 -3.1664  0.4960  0.6458
 1006MOL0     H35783   5.468   7.663   3.352  1.2214  1.2024 -2.6978
 1006MOL0     H35784   5.254   7.566   3.158 -0.3949 -1.3948  1.9547
 1006MOL0     H35785   5.321   7.735   3.162  0.7047  0.9913  1.7855
 1006MOL0     H35786   5.151   7.591   3.354 -3.3893  0.8442 -1.8007
 1006MOL0     H35787   5.227   7.755   3.381  0.7763  0.8350 -0.9781
 1006MOL0     H35788   4.985   7.768   3.314 -0.9115  2.2939 -1.4297
 1006MOL0     H35789   5.013   7.680   3.168 -0.2870 -0.6482  0.1470
 1006MOL0     H35790   5.185   7.860   3.107 -0.5430  0.6557 -0.0822
 1006MOL0     H35791   5.165   7.920   3.267  0.0382 -2.7296  0.6731
 1006MOL0     H35792   6.075   7.552   3.196  3.5918  1.7638 -1.3161
 1006MOL0     H35793   6.265   7.405   3.115  0.1407  1.2227 -1.0532
 1006MOL0     H35794   6.301   6.952   2.901  0.1775  0.1382  0.1018
 1006MOL0     H35795   6.464   6.795   2.811  0.7061  0.8085 -0.3295
 1006MOL0     H35796   7.485   6.396   2.473  0.3145  0.3581 -0.8177
 1006MOL0     H35797   7.473   6.235   2.651 -0.5970  0.4074  1.5661
 1006MOL0     H35798   7.800   6.195   3.176  0.7572 -4.3600 -0.0294
 1006MOL0     H35799   7.670   6.154   3.395  2.1308  1.7345 -0.7916
 1006MOL0     H35800   7.297   5.940   3.516  0.7701  0.1917  0.4609
 1006MOL0     H35801   7.228   6.044   3.386 -1.3919 -0.3559  1.4155
 1006MOL0     H35802   7.408   5.811   3.308 -0.6533  1.4016 -1.9482
 1006MOL0     H35803   7.254   5.853   3.238  1.6139  1.8926 -0.5719
 1006MOL0     H35804   7.192   5.755   3.502  1.4292 -0.0449  1.5939
 1006MOL0     H35805   7.346   5.692   3.487 -0.6060 -0.2685  1.2979
 1006MOL0     H35806   7.293   5.577   3.252 -1.8106 -1.9527 -1.9327
 1006MOL0     H35807   7.126   5.643   3.272 -1.9760 -2.2078 -0.4096
 1006MOL0     H35808   7.061   5.356   3.547 -0.0254 -1.7544 -0.9966
 1006MOL0     H35809   7.311   6.101   3.154  0.1723  0.7026 -4.6670
 1006MOL0     H35810   7.433   6.159   2.961 -1.4014 -3.4667  0.7029
 1007MOL0     O35811   4.290   3.249   4.132 -0.7001 -0.2896 -0.1862
 1007MOL0     C35812   4.191   3.317   4.104  0.4245  0.2342  0.7220
 1007MOL0     O35813   4.197   3.428   4.025  0.0749  0.2467  0.9012
 1007MOL0     C35814   4.311   3.482   3.948 -0.4950  0.6097 -0.6073
 1007MOL0     C35815   4.397   3.399   3.881 -0.7472  0.4380  1.0523
 1007MOL0     C35816   4.514   3.455   3.810  0.6220  0.2957 -0.3546
 1007MOL0     C35817   4.540   3.600   3.831 -0.3357  0.6963  0.3294
 1007MOL0     O35818   4.651   3.666   3.771  0.4865  0.1984 -0.8195
 1007MOL0     C35819   4.773   3.600   3.774 -0.0288 -0.1497 -0.3105
 1007MOL0     C35820   4.895   3.690   3.751 -0.5138 -0.0400 -0.3325
 1007MOL0     C35821   4.879   3.832   3.810  0.2873  0.2368 -0.0100
 1007MOL0     C35822   5.009   3.882   3.874  1.1307 -0.2411  0.4607
 1007MOL0     C35823   5.118   3.878   3.770 -0.1880  0.7335  0.7724
 1007MOL0     C35824   5.213   3.988   3.801 -0.1273  0.1434  0.5405
 1007MOL0     C35825   5.297   3.958   3.923 -1.0713  0.2110 -0.0395
 1007MOL0     C35826   5.406   4.073   3.941  0.1145  0.1149 -0.0496
 1007MOL0     N35827   5.514   4.017   4.032 -0.7653 -0.2491  0.1447
 1007MOL0     C35828   5.633   3.963   3.979  0.4515 -0.5057  0.4990
 1007MOL0     C35829   5.695   3.915   4.088 -0.3485 -1.2370 -0.6663
 1007MOL0     C35830   5.831   3.840   4.086  0.4352  0.7699 -0.6347
 1007MOL0     C35831   5.946   3.933   4.076 -0.2001 -0.1986  0.7648
 1007MOL0     C35832   6.069   3.848   4.038 -0.0870  0.8177 -0.0170
 1007MOL0     C35833   6.210   3.923   4.050 -0.3813  0.1768  0.4952
 1007MOL0     O35834   6.300   3.885   3.944 -0.3699 -0.0174 -0.2375
 1007MOL0     C35835   6.431   3.934   3.946  0.6895  0.9041  0.3937
 1007MOL0     C35836   6.525   3.887   3.858  0.4613  0.6691  0.4586
 1007MOL0     C35837   6.663   3.918   3.852  0.7486  0.5192 -0.2425
 1007MOL0     C35838   6.738   3.849   3.738 -0.6452  0.8928 -0.4075
 1007MOL0     C35839   6.706   4.024   3.935  0.3263  0.4374  0.1633
 1007MOL0     C35840   6.852   4.075   3.936 -0.0620 -0.1498 -0.7185
 1007MOL0     O35841   6.893   4.140   4.047 -0.0877  0.3080  0.8885
 1007MOL0     C35842   6.986   4.241   4.032 -0.5797 -0.6335 -0.3717
 1007MOL0     C35843   7.123   4.216   4.057  0.4594  0.9032  0.3595
 1007MOL0     C35844   7.223   4.315   4.043  0.1416  0.1727 -0.2565
 1007MOL0     C35845   7.179   4.443   3.998 -0.1968  0.4779 -0.9357
 1007MOL0     O35846   7.264   4.546   3.974 -0.4967  0.1785 -0.2016
 1007MOL0     C35847   7.371   4.549   4.060  0.4108  0.7941 -1.0658
 1007MOL0     C35848   7.454   4.666   4.020  0.4470  0.7113  0.1807
 1007MOL0     C35849   7.583   4.682   4.124  0.0549 -0.1114 -0.1027
 1007MOL0     C35850   7.684   4.573   4.131 -0.4689 -0.1046 -0.4124
 1007MOL0     C35851   7.826   4.600   4.189  0.6561 -0.9265 -0.2141
 1007MOL0     C35852   7.827   4.638   4.337  0.0377  0.3942  0.0907
 1007MOL0     C35853   7.974   4.661   4.377 -0.9308 -0.0717  0.7165
 1007MOL0     C35854   8.000   4.737   4.503  0.5072 -0.3701 -0.1343
 1007MOL0    Cl35855   8.176   4.777   4.561  0.4474  0.5187  0.3864
 1007MOL0     C35856   7.042   4.477   3.973  0.9314 -0.5701 -0.7866
 1007MOL0     C35857   6.949   4.366   3.988 -0.0118 -0.3698 -0.2654
 1007MOL0     O35858   6.923   4.055   3.838  0.1742  1.0082 -0.1316
 1007MOL0     C35859   6.612   4.059   4.032 -0.6759  0.2054 -0.4024
 1007MOL0     C35860   6.484   4.020   4.041 -1.0234 -1.0047  0.5344
 1007MOL0     N35861   5.624   3.940   4.198  0.9151 -0.1361 -0.2909
 1007MOL0     N35862   5.505   3.992   4.163  0.0361 -0.9691 -1.0188
 1007MOL0     C35863   4.434   3.680   3.888 -0.4191 -0.0166  0.6295
 1007MOL0     C35864   4.323   3.622   3.943  0.3107  0.2533  0.2063
 1007MOL0     C35865   4.050   3.285   4.160 -0.2236  0.2917 -0.0383
 1007MOL0     C35866   4.013   3.165   4.222 -1.1716  0.1176 -0.4132
 1007MOL0     C35867   3.890   3.132   4.272 -0.6227 -0.1998  0.6085
 1007MOL0     C35868   3.793   3.232   4.263  0.6361 -0.5622  1.1212
 1007MOL0     O35869   3.669   3.191   4.314  0.5107 -0.3183  0.4093
 1007MOL0     C35870   3.551   3.274   4.310 -0.1669  1.0237 -0.0461
 1007MOL0     C35871   3.427   3.188   4.283 -0.8107  0.6609  0.3294
 1007MOL0     C35872   3.424   3.120   4.144  0.0000  0.7552 -0.7549
 1007MOL0     C35873   3.476   2.976   4.155 -0.1292  0.1063 -0.6511
 1007MOL0     C35874   3.368   2.898   4.220 -0.9611  0.1312 -0.4333
 1007MOL0     C35875   3.275   2.825   4.263 -0.2057 -0.0436 -0.3923
 1007MOL0     C35876   3.824   3.364   4.219  0.7218 -0.0035  0.6203
 1007MOL0     C35877   3.948   3.383   4.161 -0.1308 -0.5816 -0.5973
 1007MOL0     H35878   4.381   3.293   3.861 -1.4006  0.7685 -0.3472
 1007MOL0     H35879   4.590   3.399   3.755  2.5561  2.0555  0.3943
 1007MOL0     H35880   4.796   3.551   3.868 -2.1106 -0.7535 -0.0594
 1007MOL0     H35881   4.762   3.519   3.701  1.3566 -1.6139  1.0366
 1007MOL0     H35882   4.980   3.644   3.803 -0.5835  1.0466  0.8098
 1007MOL0     H35883   4.921   3.710   3.647 -0.8638 -3.2501 -1.1506
 1007MOL0     H35884   4.838   3.903   3.738  0.8778  0.0465 -0.5443
 1007MOL0     H35885   4.813   3.834   3.897  0.0506 -0.3904 -0.1759
 1007MOL0     H35886   4.989   3.981   3.916  2.3571  1.3453 -2.4267
 1007MOL0     H35887   5.038   3.812   3.953 -1.3192  0.8409  2.4869
 1007MOL0     H35888   5.168   3.780   3.769 -0.8770  0.3619  1.4097
 1007MOL0     H35889   5.074   3.894   3.671  2.1948 -1.3411 -0.7647
 1007MOL0     H35890   5.269   4.006   3.708 -2.3711 -1.5604 -1.2533
 1007MOL0     H35891   5.165   4.086   3.812  0.7175  0.5222  1.0144
 1007MOL0     H35892   5.237   3.936   4.012 -0.6371 -1.8609 -0.2172
 1007MOL0     H35893   5.358   3.871   3.897  1.4669  1.2985  1.8719
 1007MOL0     H35894   5.359   4.165   3.977  2.3949  2.8706 -3.4457
 1007MOL0     H35895   5.454   4.105   3.848  0.6659  1.5464  0.7005
 1007MOL0     H35896   5.666   3.969   3.875  0.3857  1.1220  0.5484
 1007MOL0     H35897   5.837   3.771   4.171  1.7751 -0.2937 -1.5451
 1007MOL0     H35898   5.835   3.775   3.998  6.1893 -0.7672  0.3510
 1007MOL0     H35899   5.955   3.981   4.174  0.1656  1.2718  0.0417
 1007MOL0     H35900   5.931   4.010   4.000 -1.3583 -1.1402  0.0211
 1007MOL0     H35901   6.049   3.812   3.936 -0.1600 -0.9388  0.5848
 1007MOL0     H35902   6.070   3.770   4.114 -0.0848  1.5579  0.7532
 1007MOL0     H35903   6.254   3.904   4.149  0.0464 -1.0794  0.0832
 1007MOL0     H35904   6.191   4.031   4.050 -0.2794  0.2003 -0.5770
 1007MOL0     H35905   6.484   3.818   3.784  1.1444  0.3524  0.3691
 1007MOL0     H35906   6.792   3.926   3.683  0.3285  0.6992  0.2450
 1007MOL0     H35907   6.804   3.775   3.784  1.8523  3.2772  0.1190
 1007MOL0     H35908   6.671   3.797   3.669  0.5328  2.7638 -3.1548
 1007MOL0     H35909   7.154   4.122   4.102  0.4281  1.5967  1.9003
 1007MOL0     H35910   7.323   4.296   4.080  1.3865  0.7124 -3.1013
 1007MOL0     H35911   7.333   4.560   4.162  2.8831 -1.4336  0.2144
 1007MOL0     H35912   7.433   4.459   4.058 -1.0032 -0.3452  1.5229
 1007MOL0     H35913   7.492   4.655   3.918  2.7050 -1.6265  1.1526
 1007MOL0     H35914   7.386   4.752   4.015  1.7327  1.9132  2.0139
 1007MOL0     H35915   7.533   4.692   4.221 -2.0799 -2.4192 -0.8453
 1007MOL0     H35916   7.641   4.774   4.112  0.3379 -0.2259  0.3690
 1007MOL0     H35917   7.637   4.501   4.198 -2.1489  1.2574 -0.0646
 1007MOL0     H35918   7.692   4.524   4.033 -1.0841  1.6482 -1.3881
 1007MOL0     H35919   7.871   4.672   4.120 -1.8126  0.4522 -0.4793
 1007MOL0     H35920   7.878   4.504   4.180 -0.4201 -1.3450 -2.8982
 1007MOL0     H35921   7.782   4.737   4.346  0.7302  0.7242 -0.0109
 1007MOL0     H35922   7.772   4.568   4.400 -3.4900  2.2914 -0.6412
 1007MOL0     H35923   8.024   4.733   4.310  0.8298 -0.4945  1.5175
 1007MOL0     H35924   8.023   4.563   4.379 -5.8411 -2.8808  0.5730
 1007MOL0     H35925   7.951   4.685   4.586 -0.4922  0.3710 -0.2407
 1007MOL0     H35926   7.948   4.833   4.498 -0.0528 -0.6000  0.9479
 1007MOL0     H35927   7.018   4.578   3.942 -0.4182 -0.5450  0.2603
 1007MOL0     H35928   6.846   4.395   3.971  0.3592  1.8345  0.8649
 1007MOL0     H35929   6.637   4.136   4.105  1.8613 -0.8566 -0.0259
 1007MOL0     H35930   6.416   4.055   4.119  0.4016  1.1604  0.8990
 1007MOL0     H35931   4.454   3.785   3.906 -0.4341  0.0981 -0.0017
 1007MOL0     H35932   4.261   3.681   4.010 -0.9788 -1.6326  0.7457
 1007MOL0     H35933   4.095   3.094   4.228 -0.6424  0.8081  1.0914
 1007MOL0     H35934   3.875   3.028   4.301 -2.8300  0.0265  0.5084
 1007MOL0     H35935   3.545   3.325   4.406  0.2463  1.9104 -0.4838
 1007MOL0     H35936   3.555   3.351   4.233 -5.1187 -1.5342 -3.4953
 1007MOL0     H35937   3.339   3.253   4.290 -1.4436  0.1921 -2.2892
 1007MOL0     H35938   3.421   3.117   4.366 -0.7939  0.4410  0.1437
 1007MOL0     H35939   3.487   3.182   4.080  2.8895  0.3444  1.4864
 1007MOL0     H35940   3.323   3.118   4.101 -1.0506  0.2546  1.5751
 1007MOL0     H35941   3.570   2.978   4.211 -0.4683  2.5013 -0.0255
 1007MOL0     H35942   3.493   2.928   4.059 -1.7592 -1.9068 -0.0037
 1007MOL0     H35943   3.197   2.767   4.308  1.0914  0.2644  2.4975
 1007MOL0     H35944   3.748   3.442   4.222  1.6264  0.8812  2.4123
 1007MOL0     H35945   3.976   3.484   4.134  0.1973  0.4335  3.1148
 1008MOL0     O35946  10.224   2.677   0.002  0.3395 -0.3691  0.0568
 1008MOL0     C35947  10.231   2.559   0.001 -0.6662 -0.0754  1.2866
 1008MOL0     O35948  10.122   2.466  -0.011  0.2348 -0.4216  0.2088
 1008MOL0     C35949  10.005   2.518  -0.058 -0.2472  0.8883 -0.3693
 1008MOL0     C35950   9.883   2.472   0.006  0.6078 -0.5630 -0.5594
 1008MOL0     C35951   9.765   2.536  -0.012 -0.4665 -0.0350  0.1055
 1008MOL0     C35952   9.752   2.638  -0.115 -0.6314 -0.1265  0.7305
 1008MOL0     O35953   9.630   2.702  -0.141 -0.3205 -0.5113  0.2259
 1008MOL0     C35954   9.625   2.776  -0.269  0.4355 -0.3725 -0.4661
 1008MOL0     C35955   9.493   2.850  -0.296 -0.2576 -0.7037 -0.1749
 1008MOL0     C35956   9.496   2.985  -0.214 -1.3011  0.4766  0.2782
 1008MOL0     C35957   9.466   2.961  -0.067  0.7026  1.3743 -0.9835
 1008MOL0     C35958   9.454   3.086   0.003  0.3758 -0.2821 -0.4437
 1008MOL0     C35959   9.452   3.096   0.158  0.4922  0.4434  0.1604
 1008MOL0     C35960   9.426   3.238   0.212  0.5696 -0.2268 -0.1187
 1008MOL0     C35961   9.465   3.255   0.356  0.7800  0.2288  0.0691
 1008MOL0     N35962   9.372   3.187   0.457 -0.1982  0.5670  0.0776
 1008MOL0     C35963   9.260   3.234   0.516 -1.3171 -0.1480  0.2257
 1008MOL0     C35964   9.196   3.117   0.556 -0.4476 -0.0895  0.3463
 1008MOL0     C35965   9.065   3.125   0.632  0.0224  0.0221 -0.6956
 1008MOL0     C35966   8.960   3.038   0.571  0.1315 -0.5910  0.6890
 1008MOL0     C35967   8.965   2.881   0.613  0.6590 -0.8161  0.9923
 1008MOL0     C35968   8.910   2.852   0.745  0.7541  0.9188  0.0278
 1008MOL0     O35969   8.785   2.920   0.760  0.9462 -0.0889 -0.0101
 1008MOL0     C35970   8.663   2.862   0.726  0.2236  0.1154  0.2106
 1008MOL0     C35971   8.642   2.744   0.648 -0.0458  0.3403 -0.2406
 1008MOL0     C35972   8.515   2.686   0.629 -0.2753  0.2594 -0.0579
 1008MOL0     C35973   8.517   2.562   0.535  0.1513 -0.2088 -0.2274
 1008MOL0     C35974   8.402   2.745   0.682  0.0307  0.5461  0.4079
 1008MOL0     C35975   8.261   2.683   0.686  0.1023 -1.0809 -0.3854
 1008MOL0     O35976   8.211   2.635   0.569  0.5335  0.2832 -0.1200
 1008MOL0     C35977   8.081   2.585   0.559  1.5661 -0.6933  0.7334
 1008MOL0     C35978   8.030   2.599   0.436  0.3419 -0.5842  0.3747
 1008MOL0     C35979   7.902   2.553   0.410  0.2039 -1.1966 -0.0638
 1008MOL0     C35980   7.817   2.491   0.502 -0.4573 -0.2845 -0.3211
 1008MOL0     O35981   7.699   2.430   0.471  0.3745  0.4874  0.4461
 1008MOL0     C35982   7.669   2.299   0.516 -0.0549  0.1760  0.1453
 1008MOL0     C35983   7.708   2.197   0.411 -0.0250 -0.2776 -0.3398
 1008MOL0     C35984   7.587   2.107   0.377  0.2976  0.1740 -0.0070
 1008MOL0     C35985   7.502   2.199   0.277  0.0368  1.3259  0.4347
 1008MOL0     C35986   7.387   2.124   0.220  0.4605 -0.3514  0.2312
 1008MOL0     C35987   7.323   2.231   0.123 -0.0464  0.2879 -0.4866
 1008MOL0     C35988   7.215   2.159   0.044  0.3569  0.1689 -0.5978
 1008MOL0     C35989   7.149   2.258  -0.047 -0.4565  0.1820  0.2476
 1008MOL0    Cl35990   7.047   2.365   0.042  0.0828 -0.2557 -0.4054
 1008MOL0     C35991   7.871   2.485   0.637 -0.1295 -0.7534  0.7740
 1008MOL0     C35992   7.994   2.543   0.663 -1.0177  0.7552  1.0336
 1008MOL0     O35993   8.205   2.687   0.796  0.5596  0.0324 -0.5511
 1008MOL0     C35994   8.418   2.864   0.753 -0.0561 -0.2453 -0.1561
 1008MOL0     C35995   8.544   2.919   0.776  0.0362 -0.7069 -0.9138
 1008MOL0     N35996   9.269   3.001   0.522  1.1101 -0.7458 -0.4723
 1008MOL0     N35997   9.385   3.044   0.477 -0.3437  0.2712 -0.5396
 1008MOL0     C35998   9.872   2.661  -0.191  0.7452  0.4552  0.9422
 1008MOL0     C35999   9.987   2.600  -0.169 -0.2764 -0.0748  1.0914
 1008MOL0     C36000  10.359   2.496   0.028 -0.4989  0.4975 -0.6133
 1008MOL0     C36001  10.463   2.571   0.087  0.4597  0.6179 -0.0665
 1008MOL0     C36002  10.585   2.508   0.109  0.2504 -0.0437 -0.0111
 1008MOL0     C36003  10.609   2.371   0.081  0.1040 -0.0245 -0.2473
 1008MOL0     O36004  10.721   2.300   0.087  0.6899 -0.4496 -0.5161
 1008MOL0     C36005  10.797   2.309   0.208 -0.1178  0.2826  0.5265
 1008MOL0     C36006  10.942   2.338   0.201 -0.0868 -0.2261 -0.0995
 1008MOL0     C36007  10.963   2.458   0.121  0.1199 -0.6940 -0.7373
 1008MOL0     C36008  11.017   2.572   0.203  0.1208 -0.1288  0.7564
 1008MOL0     C36009  11.161   2.549   0.234  0.3431  0.1895  1.0739
 1008MOL0     C36010  11.273   2.512   0.250  0.1456  0.6983 -0.8072
 1008MOL0     C36011  10.503   2.305   0.026  0.6025  0.1839 -0.3771
 1008MOL0     C36012  10.376   2.362  -0.002 -0.5368 -0.3533  0.0715
 1008MOL0     H36013   9.889   2.400   0.087 -1.2303 -1.8564 -1.4963
 1008MOL0     H36014   9.685   2.497   0.050  1.5474 -0.0151  2.8617
 1008MOL0     H36015   9.708   2.847  -0.279 -0.6677  0.7318 -2.2154
 1008MOL0     H36016   9.640   2.712  -0.356 -2.8801  1.6946 -2.7646
 1008MOL0     H36017   9.484   2.890  -0.397 -0.7762  0.6485  0.3853
 1008MOL0     H36018   9.406   2.791  -0.269  1.1844 -2.1058  1.6980
 1008MOL0     H36019   9.586   3.047  -0.226  1.1076 -2.1439  3.1400
 1008MOL0     H36020   9.413   3.040  -0.260  0.1035  0.6829 -2.2105
 1008MOL0     H36021   9.377   2.900  -0.053  0.8957  0.7326 -2.3819
 1008MOL0     H36022   9.554   2.916  -0.020  1.8039  1.0668 -3.1971
 1008MOL0     H36023   9.544   3.140  -0.027 -0.4300  0.3219 -1.8401
 1008MOL0     H36024   9.362   3.129  -0.038  0.5963 -1.2168 -1.9607
 1008MOL0     H36025   9.386   3.025   0.209  1.4165 -0.1686  0.5361
 1008MOL0     H36026   9.552   3.064   0.188  0.4988  1.4526  1.3091
 1008MOL0     H36027   9.484   3.306   0.148  1.2474 -0.9380 -0.2740
 1008MOL0     H36028   9.323   3.270   0.197  0.1206  0.1105  3.0136
 1008MOL0     H36029   9.468   3.362   0.380 -0.7294  0.4720 -0.7233
 1008MOL0     H36030   9.566   3.214   0.353 -0.0162 -1.8722 -3.3386
 1008MOL0     H36031   9.228   3.335   0.539 -1.3137  0.3127 -1.5990
 1008MOL0     H36032   9.080   3.100   0.738  0.4952  0.0970 -0.7419
 1008MOL0     H36033   9.034   3.230   0.633  3.1186  1.0307 -0.2060
 1008MOL0     H36034   8.972   3.038   0.463 -4.4213  4.6996 -0.2703
 1008MOL0     H36035   8.862   3.084   0.584 -0.8264 -2.2810 -0.2594
 1008MOL0     H36036   9.068   2.844   0.608  0.0794 -2.3357 -0.9352
 1008MOL0     H36037   8.909   2.831   0.533  1.8526 -0.2239 -0.2597
 1008MOL0     H36038   8.981   2.876   0.824  0.7305  0.5167  0.1727
 1008MOL0     H36039   8.889   2.747   0.766 -3.4934  2.0440  2.6978
 1008MOL0     H36040   8.734   2.696   0.615  0.7772  1.9094 -0.3245
 1008MOL0     H36041   8.619   2.526   0.520  0.2860 -0.0251  0.2184
 1008MOL0     H36042   8.451   2.487   0.580 -0.1601  1.5170  2.4322
 1008MOL0     H36043   8.470   2.592   0.441 -2.6286 -2.6129  0.2439
 1008MOL0     H36044   8.092   2.638   0.357 -0.8781 -0.9538 -0.8053
 1008MOL0     H36045   7.848   2.573   0.318  1.0286 -2.2451 -0.7946
 1008MOL0     H36046   7.708   2.290   0.617 -0.2331  0.3691  0.2336
 1008MOL0     H36047   7.561   2.292   0.529 -0.2980  1.7386 -0.7674
 1008MOL0     H36048   7.767   2.238   0.329  0.7562  3.2266  1.7794
 1008MOL0     H36049   7.776   2.133   0.468  0.7771  1.5265  0.8075
 1008MOL0     H36050   7.537   2.080   0.470 -5.0726  1.5915 -2.0987
 1008MOL0     H36051   7.613   2.017   0.320 -1.8056 -0.2626 -0.3796
 1008MOL0     H36052   7.465   2.283   0.336 -0.6046 -0.3924  2.6211
 1008MOL0     H36053   7.562   2.242   0.196 -0.9105  2.4032  0.2872
 1008MOL0     H36054   7.310   2.104   0.295 -0.6386 -2.3464 -1.3099
 1008MOL0     H36055   7.411   2.036   0.160 -2.0987 -1.6230  0.8964
 1008MOL0     H36056   7.282   2.309   0.188  2.8916  1.9969 -0.4959
 1008MOL0     H36057   7.393   2.276   0.051 -0.3568 -1.2329 -1.7992
 1008MOL0     H36058   7.154   2.110   0.121  2.2095  3.2517  3.1982
 1008MOL0     H36059   7.266   2.082  -0.015  2.5443 -0.4291  1.8479
 1008MOL0     H36060   7.097   2.208  -0.129  1.3222 -2.4462  0.5765
 1008MOL0     H36061   7.225   2.305  -0.110  0.0067 -1.2202 -0.2699
 1008MOL0     H36062   7.817   2.437   0.717 -1.6320  0.7895  0.7487
 1008MOL0     H36063   8.027   2.541   0.766  1.7188  1.4182  0.2557
 1008MOL0     H36064   8.328   2.898   0.803 -1.5441 -0.8161 -2.3090
 1008MOL0     H36065   8.547   3.015   0.828  0.7415  1.2638 -4.3026
 1008MOL0     H36066   9.869   2.725  -0.279 -3.0499 -0.0980  0.5037
 1008MOL0     H36067  10.074   2.630  -0.225 -0.1398  0.7374  1.7300
 1008MOL0     H36068  10.447   2.674   0.118 -2.3500 -0.2159  1.6014
 1008MOL0     H36069  10.672   2.567   0.138  1.8754 -1.6538 -1.3802
 1008MOL0     H36070  10.753   2.387   0.270 -4.0822 -0.9880 -0.3519
 1008MOL0     H36071  10.788   2.220   0.272  0.9861  0.9665  1.6836
 1008MOL0     H36072  11.004   2.262   0.153  0.0748  1.1770 -2.2052
 1008MOL0     H36073  10.985   2.343   0.301 -0.6506 -0.0623  0.1399
 1008MOL0     H36074  10.871   2.495   0.076  0.2103 -0.8042 -1.0125
 1008MOL0     H36075  11.034   2.440   0.040  2.5144  2.4033  0.4330
 1008MOL0     H36076  10.968   2.587   0.300  2.0454  3.0089  1.3925
 1008MOL0     H36077  11.005   2.667   0.151 -1.2698 -1.0326 -0.6374
 1008MOL0     H36078  11.379   2.493   0.250  0.4293  2.1416 -1.6271
 1008MOL0     H36079  10.506   2.201  -0.005  1.6580  0.3110 -0.7250
 1008MOL0     H36080  10.303   2.296  -0.046 -0.6575  0.5821 -1.1864
 1009MOL0     O36081   5.588   1.745  10.551  0.6162 -0.5907 -0.1389
 1009MOL0     C36082   5.657   1.703  10.460  0.2138 -1.5790 -0.2432
 1009MOL0     O36083   5.628   1.599  10.377 -0.9013 -0.0215 -0.2847
 1009MOL0     C36084   5.533   1.505  10.400 -0.0719  0.1999 -0.0238
 1009MOL0     C36085   5.454   1.490  10.512  0.3344  0.7209  0.2647
 1009MOL0     C36086   5.350   1.395  10.513 -0.2253  0.1387 -0.2105
 1009MOL0     C36087   5.332   1.317  10.395  0.6506  0.0813 -0.0866
 1009MOL0     O36088   5.238   1.215  10.388 -0.0060 -1.2429 -0.2794
 1009MOL0     C36089   5.114   1.242  10.448 -0.2405  0.0809 -1.0513
 1009MOL0     C36090   5.019   1.131  10.412  0.3861 -0.1271 -0.6429
 1009MOL0     C36091   4.966   1.150  10.271  0.6572  0.0835  0.9747
 1009MOL0     C36092   4.842   1.059  10.266 -0.6513 -0.1066  0.3366
 1009MOL0     C36093   4.771   1.060  10.128  0.5927  0.0712  0.3112
 1009MOL0     C36094   4.643   0.968  10.115  0.3182 -0.4811 -0.0147
 1009MOL0     C36095   4.518   1.025  10.171  0.3982 -0.1028  0.0216
 1009MOL0     C36096   4.391   0.951  10.126  0.0620  0.1868  0.3718
 1009MOL0     N36097   4.265   1.031  10.123 -0.4010 -0.2379 -0.4213
 1009MOL0     C36098   4.237   1.124  10.219 -0.5765 -0.3347 -0.7429
 1009MOL0     C36099   4.101   1.139  10.215 -0.3224 -0.4517  0.1857
 1009MOL0     C36100   3.998   1.225  10.285  0.0291  0.7337 -0.4881
 1009MOL0     C36101   3.928   1.123  10.388 -0.5964  0.4795  0.2332
 1009MOL0     C36102   4.024   1.090  10.507 -0.1685 -0.2931  1.1098
 1009MOL0     C36103   3.952   1.025  10.621  0.3435 -0.2007 -0.2553
 1009MOL0     O36104   3.837   1.111  10.665 -0.3241  0.4332  0.3892
 1009MOL0     C36105   3.743   1.070  10.755 -0.7132  0.3153 -0.4002
 1009MOL0     C36106   3.776   0.994  10.870  0.3855 -0.2762  0.2180
 1009MOL0     C36107   3.676   0.959  10.966 -0.2352  0.4203  0.3858
 1009MOL0     C36108   3.720   0.864  11.083  0.3045 -0.1718  0.3400
 1009MOL0     C36109   3.542   1.012  10.946  0.4346 -0.0967  0.1169
 1009MOL0     C36110   3.418   0.990  11.043 -0.2546  0.3217  0.7689
 1009MOL0     O36111   3.321   1.090  11.065 -0.3005  0.3757 -0.6807
 1009MOL0     C36112   3.194   1.046  11.085 -0.4741  0.9659  0.1256
 1009MOL0     C36113   3.133   0.928  11.048 -0.9741  0.6143 -0.2741
 1009MOL0     C36114   2.997   0.915  11.057  0.2979 -1.3616  0.6363
 1009MOL0     C36115   2.913   1.014  11.115 -0.2267  0.3661 -0.1289
 1009MOL0     O36116   2.779   0.976  11.130 -0.5384  0.6368  0.0298
 1009MOL0     C36117   2.692   1.075  11.177  0.6095 -0.5253 -1.0463
 1009MOL0     C36118   2.555   1.010  11.212  0.0013 -0.1573 -0.2506
 1009MOL0     C36119   2.451   1.103  11.265 -0.1491  0.4067 -0.6055
 1009MOL0     C36120   2.317   1.029  11.291  0.2911 -0.3501  1.4652
 1009MOL0     C36121   2.210   1.101  11.387  0.5419  0.2159  0.4304
 1009MOL0     C36122   2.069   1.046  11.380 -0.4963 -0.2068  0.0939
 1009MOL0     C36123   1.986   1.130  11.466 -0.4906 -0.4216 -0.3061
 1009MOL0     C36124   1.846   1.151  11.417  0.2124 -0.7650  0.5692
 1009MOL0    Cl36125   1.826   1.258  11.275 -0.0648  0.3990 -0.1940
 1009MOL0     C36126   2.980   1.131  11.157  0.6922  0.1437 -0.0815
 1009MOL0     C36127   3.115   1.145  11.143 -0.9570  0.2297  0.0404
 1009MOL0     O36128   3.418   0.882  11.101  0.3159 -0.1162  0.1017
 1009MOL0     C36129   3.512   1.085  10.829 -0.9268 -0.2827  0.0605
 1009MOL0     C36130   3.617   1.116  10.735  0.8668 -0.1092  0.3556
 1009MOL0     N36131   4.053   1.057  10.109 -0.6013  0.0872 -0.6682
 1009MOL0     N36132   4.145   0.997  10.066 -0.4631  0.3165  0.0912
 1009MOL0     C36133   5.396   1.337  10.272 -0.3294  0.0470  0.3077
 1009MOL0     C36134   5.497   1.432  10.281 -0.3437 -0.6962  0.6074
 1009MOL0     C36135   5.781   1.782  10.446 -1.0518  0.5477  0.3212
 1009MOL0     C36136   5.851   1.784  10.326 -0.7062  0.3940  0.6670
 1009MOL0     C36137   5.982   1.848  10.326  0.1784 -0.4899 -0.6083
 1009MOL0     C36138   6.029   1.908  10.438 -0.8553  1.4882 -0.3109
 1009MOL0     O36139   6.154   1.974  10.445 -0.5466  0.4556  0.6149
 1009MOL0     C36140   6.191   2.048  10.333 -0.6546  0.9281 -0.1571
 1009MOL0     C36141   6.319   2.122  10.364 -0.2345 -0.5010 -0.0098
 1009MOL0     C36142   6.317   2.276  10.345 -0.0769  0.5126  0.5173
 1009MOL0     C36143   6.413   2.362  10.432 -0.2065 -0.3811  0.7328
 1009MOL0     C36144   6.389   2.502  10.428 -0.4065 -0.8876  0.0949
 1009MOL0     C36145   6.358   2.616  10.441  0.2691  0.1614  1.4594
 1009MOL0     C36146   5.963   1.908  10.560 -0.8733 -0.5673 -0.1291
 1009MOL0     C36147   5.835   1.844  10.555  0.0100  0.1849  0.6631
 1009MOL0     H36148   5.463   1.543  10.606  0.1950 -1.7976  1.8108
 1009MOL0     H36149   5.287   1.378  10.599  1.5620 -1.2068  0.9065
 1009MOL0     H36150   5.130   1.246  10.556  2.5025  1.6938 -1.3951
 1009MOL0     H36151   5.073   1.337  10.413  0.0426  0.1306 -1.2552
 1009MOL0     H36152   5.063   1.032  10.425  2.7053  0.4007 -3.5074
 1009MOL0     H36153   4.931   1.127  10.477 -0.0207 -0.3220 -1.2039
 1009MOL0     H36154   4.932   1.253  10.256 -0.8339 -0.6246 -0.8145
 1009MOL0     H36155   5.037   1.127  10.190 -1.5871  0.8336 -1.3360
 1009MOL0     H36156   4.877   0.958  10.290  0.2172 -0.1980 -1.2034
 1009MOL0     H36157   4.770   1.086  10.344 -1.1117 -1.2425  0.3304
 1009MOL0     H36158   4.757   1.167  10.107  1.7093  0.3439  0.8287
 1009MOL0     H36159   4.838   1.021  10.051  0.8851 -0.6616  0.9221
 1009MOL0     H36160   4.630   0.943  10.009 -4.4348 -1.5042  0.6035
 1009MOL0     H36161   4.663   0.874  10.168  1.1674  0.8217  2.1176
 1009MOL0     H36162   4.517   1.037  10.280  2.0948  0.8192 -0.0301
 1009MOL0     H36163   4.499   1.127  10.134  1.3044 -0.0936 -0.4428
 1009MOL0     H36164   4.373   0.862  10.187 -0.8188 -1.8794 -2.6196
 1009MOL0     H36165   4.403   0.898  10.031  5.3353 -0.7866  1.2702
 1009MOL0     H36166   4.294   1.169  10.299 -2.1685 -1.3510  1.0432
 1009MOL0     H36167   4.037   1.307  10.346 -2.4408  2.5172 -1.1528
 1009MOL0     H36168   3.917   1.261  10.221 -0.5401  0.3081 -0.0164
 1009MOL0     H36169   3.907   1.030  10.334  0.0089  0.2050  0.4601
 1009MOL0     H36170   3.828   1.156  10.417 -1.4298  0.3103 -2.1988
 1009MOL0     H36171   4.074   1.182  10.536 -1.5176 -0.0062  2.7226
 1009MOL0     H36172   4.098   1.014  10.482  0.4816  0.6637  0.0702
 1009MOL0     H36173   4.027   1.016  10.700  0.8961  1.8312 -0.4811
 1009MOL0     H36174   3.919   0.926  10.591  5.3450 -1.5604 -2.3699
 1009MOL0     H36175   3.877   0.960  10.891  0.5220  0.1135  0.1956
 1009MOL0     H36176   3.718   0.759  11.052 -1.4684 -0.8110  2.3498
 1009MOL0     H36177   3.822   0.893  11.110  0.0371  0.4508  0.7094
 1009MOL0     H36178   3.654   0.887  11.167  1.8835 -0.4434  1.7344
 1009MOL0     H36179   3.186   0.844  11.004 -2.5851 -1.4575  1.4915
 1009MOL0     H36180   2.943   0.838  11.003 -1.4908  1.8230 -2.5623
 1009MOL0     H36181   2.722   1.103  11.279 -1.5830 -1.5237 -0.0488
 1009MOL0     H36182   2.690   1.154  11.102  1.7400  0.4575 -0.0771
 1009MOL0     H36183   2.521   0.950  11.127  3.6772 -2.0065 -0.5749
 1009MOL0     H36184   2.576   0.948  11.299 -2.1323 -1.9813 -0.9318
 1009MOL0     H36185   2.440   1.193  11.204 -1.9013 -0.5787 -1.8495
 1009MOL0     H36186   2.483   1.140  11.363 -1.0522  3.0141 -1.2196
 1009MOL0     H36187   2.279   1.001  11.192 -0.8466  1.8977  1.1976
 1009MOL0     H36188   2.329   0.933  11.342  0.9879 -0.3795  1.2488
 1009MOL0     H36189   2.203   1.201  11.343 -0.7366 -1.2159 -2.9960
 1009MOL0     H36190   2.235   1.096  11.493  0.1808 -2.9169  0.4678
 1009MOL0     H36191   2.045   1.056  11.273 -1.2867 -1.1329  0.1795
 1009MOL0     H36192   2.076   0.941  11.408  0.7279 -0.5082 -1.2269
 1009MOL0     H36193   2.022   1.233  11.473 -2.7626  0.4154 -0.2654
 1009MOL0     H36194   1.994   1.081  11.564  0.9958 -1.5386 -0.9343
 1009MOL0     H36195   1.802   1.207  11.500  0.2470 -0.4423  0.3700
 1009MOL0     H36196   1.786   1.060  11.411 -1.8735  0.3932  2.1766
 1009MOL0     H36197   2.934   1.219  11.200 -1.3742 -1.0148  0.1764
 1009MOL0     H36198   3.156   1.241  11.173  0.6803 -1.6538  4.6102
 1009MOL0     H36199   3.409   1.117  10.814 -0.2581  2.2224  0.3971
 1009MOL0     H36200   3.593   1.173  10.645  3.1582  0.7134  0.1901
 1009MOL0     H36201   5.365   1.282  10.184  2.1811  0.5816 -1.0290
 1009MOL0     H36202   5.543   1.465  10.188  1.8835  1.0556  2.2202
 1009MOL0     H36203   5.827   1.725  10.238  3.1374 -1.2183  0.5125
 1009MOL0     H36204   6.047   1.864  10.240  0.5734  4.1813  0.3055
 1009MOL0     H36205   6.204   1.978  10.251 -2.8885  0.8373 -0.4862
 1009MOL0     H36206   6.107   2.114  10.309 -2.1083 -1.2356 -1.2856
 1009MOL0     H36207   6.398   2.085  10.298  0.8221  2.3434 -0.5204
 1009MOL0     H36208   6.362   2.094  10.461 -1.2148 -1.1908  0.2316
 1009MOL0     H36209   6.212   2.298  10.367 -0.2245  0.0874  0.2449
 1009MOL0     H36210   6.334   2.288  10.237  0.9473 -0.4802  0.5558
 1009MOL0     H36211   6.515   2.336  10.401 -0.4699 -0.9988  0.3532
 1009MOL0     H36212   6.397   2.341  10.538 -0.9024  2.5452  1.2992
 1009MOL0     H36213   6.354   2.722  10.445  3.3050  0.6278 -2.0822
 1009MOL0     H36214   6.004   1.953  10.649 -0.4152  1.1492 -1.1536
 1009MOL0     H36215   5.787   1.829  10.651  2.7642 -2.0370  1.8528
 1010MOL0     O36216   7.354  11.226  11.312  0.6127 -0.2054 -0.3310
 1010MOL0     C36217   7.361  11.259  11.197 -0.3116 -0.4269  1.1538
 1010MOL0     O36218   7.379  11.386  11.148  0.2071 -0.6393 -0.3070
 1010MOL0     C36219   7.432  11.485  11.223 -0.6535  0.2798 -0.0634
 1010MOL0     C36220   7.377  11.607  11.206 -0.5653 -0.0247  0.2282
 1010MOL0     C36221   7.454  11.722  11.240  0.3457  0.5654  0.7795
 1010MOL0     C36222   7.584  11.713  11.296  0.1040  1.1821  0.6512
 1010MOL0     O36223   7.658  11.829  11.305 -0.3204  0.7227 -0.2721
 1010MOL0     C36224   7.800  11.820  11.340  1.2326 -0.3899 -1.2844
 1010MOL0     C36225   7.847  11.961  11.380  0.1563 -0.9003 -0.0649
 1010MOL0     C36226   7.989  11.984  11.342 -0.4355 -0.3109  0.7246
 1010MOL0     C36227   8.021  12.133  11.333 -0.2401 -0.3444  0.5143
 1010MOL0     C36228   8.161  12.170  11.308 -0.4776  0.7031 -0.9071
 1010MOL0     C36229   8.188  12.311  11.307  0.2457 -0.5468 -1.0514
 1010MOL0     C36230   8.128  12.385  11.195  0.2014  0.2375  0.3049
 1010MOL0     C36231   8.139  12.540  11.211 -0.2341  0.0831  0.6424
 1010MOL0     N36232   8.025  12.584  11.283 -0.1385 -1.1320  0.0618
 1010MOL0     C36233   7.916  12.638  11.219 -0.2621 -0.0907  0.1446
 1010MOL0     C36234   7.848  12.699  11.318  0.2069 -0.4972 -0.2635
 1010MOL0     C36235   7.726  12.785  11.310 -0.5290  0.3238 -0.2588
 1010MOL0     C36236   7.609  12.697  11.290  0.5927  0.7471  0.8803
 1010MOL0     C36237   7.564  12.623  11.410 -0.2360 -0.3842  0.7298
 1010MOL0     C36238   7.458  12.695  11.499  0.8623  0.3960 -0.2728
 1010MOL0     O36239   7.413  12.595  11.597  0.3298  0.2279 -0.1631
 1010MOL0     C36240   7.288  12.613  11.650  0.2276  0.0988  0.4542
 1010MOL0     C36241   7.222  12.741  11.652 -0.0068  0.4842 -0.0909
 1010MOL0     C36242   7.089  12.748  11.702  0.5962  0.6816  0.1693
 1010MOL0     C36243   7.040  12.892  11.722 -0.7808  0.2738  0.4343
 1010MOL0     C36244   7.027  12.624  11.742 -1.0801 -0.9743  0.7476
 1010MOL0     C36245   6.888  12.616  11.799  0.1484 -0.0748  0.5393
 1010MOL0     O36246   6.798  12.727  11.774  0.0793  0.5344  0.8678
 1010MOL0     C36247   6.706  12.777  11.855  0.2686 -0.4588 -0.3382
 1010MOL0     C36248   6.617  12.704  11.937 -0.3137  0.4034  0.4294
 1010MOL0     C36249   6.504  12.766  12.002 -0.9121 -0.2497 -0.0671
 1010MOL0     C36250   6.500  12.910  12.014  0.0895 -0.4251 -0.1334
 1010MOL0     O36251   6.412  12.987  12.087 -0.1973 -0.4934 -0.9564
 1010MOL0     C36252   6.291  12.925  12.119 -0.1487  0.0878 -0.1417
 1010MOL0     C36253   6.179  13.028  12.136 -0.0193 -0.5907 -0.3061
 1010MOL0     C36254   6.041  12.963  12.155 -0.1385  0.6538  0.0915
 1010MOL0     C36255   6.015  12.879  12.293  0.3053 -0.2307 -0.4727
 1010MOL0     C36256   5.868  12.822  12.309 -0.4575  0.4598  0.7388
 1010MOL0     C36257   5.837  12.720  12.197 -0.1515 -1.1307  0.5086
 1010MOL0     C36258   5.693  12.661  12.221 -0.9097 -0.3536 -0.6967
 1010MOL0     C36259   5.650  12.597  12.092  0.7148 -0.3653 -0.1656
 1010MOL0    Cl36260   5.734  12.445  12.046 -0.2644  0.5958  0.6624
 1010MOL0     C36261   6.588  12.974  11.935 -1.2279 -0.4404 -0.0609
 1010MOL0     C36262   6.692  12.922  11.858 -0.2656  0.8433 -0.3928
 1010MOL0     O36263   6.858  12.509  11.864 -0.2421  0.7054  0.4619
 1010MOL0     C36264   7.097  12.507  11.743 -0.1153 -0.0180 -0.2025
 1010MOL0     C36265   7.229  12.501  11.698 -0.1899  0.6690  0.5702
 1010MOL0     N36266   7.913  12.667  11.444  0.0662  0.7011  0.5557
 1010MOL0     N36267   8.010  12.593  11.418  0.4188 -0.5204 -0.0926
 1010MOL0     C36268   7.636  11.579  11.303 -0.6820  0.2578  0.5041
 1010MOL0     C36269   7.557  11.471  11.274 -0.6641  0.0909  0.9861
 1010MOL0     C36270   7.347  11.153  11.084  0.7071  0.5489  0.1794
 1010MOL0     C36271   7.308  11.022  11.116 -0.6327  0.7310  0.0416
 1010MOL0     C36272   7.309  10.923  11.015  0.3774 -0.2393  0.8800
 1010MOL0     C36273   7.344  10.953  10.880  0.0427 -0.8204 -0.1703
 1010MOL0     O36274   7.354  10.868  10.775 -0.5520  0.6936 -0.3330
 1010MOL0     C36275   7.301  10.733  10.795  0.5322  0.6516  0.7864
 1010MOL0     C36276   7.421  10.649  10.854  0.1080  0.5630 -0.1239
 1010MOL0     C36277   7.558  10.677  10.788 -0.4515 -0.0759 -1.3755
 1010MOL0     C36278   7.685  10.600  10.852  0.6548  0.1897 -0.0935
 1010MOL0     C36279   7.647  10.462  10.904 -0.3765  0.1433  0.8241
 1010MOL0     C36280   7.630  10.342  10.933 -0.3002 -1.0791 -0.1203
 1010MOL0     C36281   7.385  11.088  10.851 -0.1099  0.6506  0.1576
 1010MOL0     C36282   7.377  11.181  10.948  0.4835  0.1096 -0.3093
 1010MOL0     H36283   7.280  11.610  11.158 -0.8265 -2.7548  0.3971
 1010MOL0     H36284   7.420  11.824  11.223 -2.1308 -0.2445  0.5122
 1010MOL0     H36285   7.809  11.756  11.428  0.3002 -0.4839 -1.2489
 1010MOL0     H36286   7.854  11.777  11.255  0.0442 -1.7350 -1.3921
 1010MOL0     H36287   7.782  12.029  11.324 -0.4809 -0.5206  1.0818
 1010MOL0     H36288   7.822  11.987  11.484 -2.5081  0.5287 -0.9407
 1010MOL0     H36289   8.052  11.944  11.422 -0.8024  1.8612  2.2120
 1010MOL0     H36290   8.003  11.935  11.246 -1.2291  2.2722 -0.8102
 1010MOL0     H36291   7.951  12.170  11.257  0.0376  2.8679  1.6524
 1010MOL0     H36292   7.998  12.184  11.428 -0.3498  1.6487 -0.5274
 1010MOL0     H36293   8.203  12.104  11.385 -4.2972 -2.3680 -1.1140
 1010MOL0     H36294   8.195  12.128  11.212 -3.6278 -0.3241 -1.6829
 1010MOL0     H36295   8.151  12.354  11.400 -3.7401 -0.1127 -2.6135
 1010MOL0     H36296   8.295  12.329  11.293 -0.1030  3.1756 -0.1024
 1010MOL0     H36297   8.175  12.351  11.102 -1.4372  1.7033 -1.1315
 1010MOL0     H36298   8.022  12.364  11.183  1.0168 -3.2009 -2.6108
 1010MOL0     H36299   8.145  12.580  11.109  0.6441 -1.8202 -0.1066
 1010MOL0     H36300   8.236  12.562  11.255 -0.2402  2.6298 -0.4682
 1010MOL0     H36301   7.909  12.648  11.112  0.5268  4.3111  0.3319
 1010MOL0     H36302   7.716  12.847  11.400  0.3371  1.3977 -0.8772
 1010MOL0     H36303   7.731  12.854  11.225  0.6809 -0.5237 -0.9063
 1010MOL0     H36304   7.640  12.622  11.217  0.5890 -0.3909  2.0059
 1010MOL0     H36305   7.527  12.756  11.248 -1.7651 -1.9414  1.4311
 1010MOL0     H36306   7.652  12.613  11.475  0.7634  1.7313 -0.1630
 1010MOL0     H36307   7.523  12.526  11.383 -0.9552  0.0951  0.0516
 1010MOL0     H36308   7.373  12.717  11.433  1.3555 -0.3134 -1.1750
 1010MOL0     H36309   7.488  12.791  11.541 -1.8016  0.9128  0.6288
 1010MOL0     H36310   7.273  12.829  11.614 -0.1893  0.8916  0.5831
 1010MOL0     H36311   6.987  12.894  11.818 -2.0950  1.7751 -0.2710
 1010MOL0     H36312   7.120  12.967  11.712 -2.6947  2.4067  0.3914
 1010MOL0     H36313   6.974  12.916  11.639  1.3952 -0.3926 -1.5924
 1010MOL0     H36314   6.620  12.596  11.929 -0.7326  0.3685  0.6796
 1010MOL0     H36315   6.424  12.714  12.053 -1.9287  0.0042 -1.3451
 1010MOL0     H36316   6.258  12.867  12.033  1.5800  0.1359 -0.8733
 1010MOL0     H36317   6.309  12.861  12.206  0.6337  0.4186 -0.0547
 1010MOL0     H36318   6.192  13.093  12.224  3.0406 -0.0123 -1.0857
 1010MOL0     H36319   6.178  13.098  12.052 -2.3428 -0.4928 -0.2666
 1010MOL0     H36320   6.016  12.889  12.078  0.9638 -2.7696  2.7332
 1010MOL0     H36321   5.963  13.038  12.142 -3.1051 -2.5754 -2.9534
 1010MOL0     H36322   6.083  12.794  12.303 -0.9590 -1.0932  1.3038
 1010MOL0     H36323   6.041  12.929  12.386 -1.0980 -3.2574  1.7390
 1010MOL0     H36324   5.792  12.901  12.309  0.9771  1.9021 -0.2236
 1010MOL0     H36325   5.864  12.760  12.399  0.6588  0.4204  0.7686
 1010MOL0     H36326   5.846  12.765  12.098 -2.1123 -0.3886  0.6153
 1010MOL0     H36327   5.909  12.638  12.203  1.4637  0.2995  2.5870
 1010MOL0     H36328   5.617  12.727  12.262 -1.7049 -2.1710  0.8884
 1010MOL0     H36329   5.707  12.588  12.301 -0.1339 -0.6250 -1.0633
 1010MOL0     H36330   5.642  12.670  12.011  2.3061  0.7674  0.6586
 1010MOL0     H36331   5.544  12.572  12.108  0.6490  0.4119  0.6829
 1010MOL0     H36332   6.587  13.083  11.928  1.1449 -0.1764  2.0924
 1010MOL0     H36333   6.756  12.982  11.795  0.3969  3.1291  2.2670
 1010MOL0     H36334   7.060  12.410  11.774  2.8783 -1.5882 -1.1823
 1010MOL0     H36335   7.284  12.407  11.695  2.9349  2.2488  2.6495
 1010MOL0     H36336   7.732  11.556  11.348 -0.7087  2.7659  2.0282
 1010MOL0     H36337   7.618  11.381  11.276 -0.6490  0.0754  3.6829
 1010MOL0     H36338   7.291  10.986  11.217  1.0227 -2.0798 -0.5832
 1010MOL0     H36339   7.279  10.821  11.035 -0.6265 -0.7485 -2.4959
 1010MOL0     H36340   7.219  10.717  10.864 -0.0894 -1.5434 -0.3830
 1010MOL0     H36341   7.277  10.690  10.697  2.3202  1.7835 -0.2102
 1010MOL0     H36342   7.395  10.543  10.855 -0.9391  0.8058  1.2084
 1010MOL0     H36343   7.430  10.674  10.960  2.8695 -0.2786 -0.0807
 1010MOL0     H36344   7.585  10.783  10.800 -1.3168  0.0625 -0.6051
 1010MOL0     H36345   7.540  10.653  10.683 -3.4529  1.4522 -1.3202
 1010MOL0     H36346   7.720  10.655  10.941  0.3903 -1.0841  0.8238
 1010MOL0     H36347   7.765  10.594  10.778  0.3863 -1.6588 -0.2735
 1010MOL0     H36348   7.616  10.236  10.947 -0.5783 -1.1624 -0.9649
 1010MOL0     H36349   7.418  11.115  10.751 -2.3567 -0.0484 -0.8440
 1010MOL0     H36350   7.391  11.285  10.919  0.2001  0.7932  1.7899
 1011MOL0     O36351   6.669   8.310   9.833 -0.1485 -0.6582 -0.1864
 1011MOL0     C36352   6.674   8.353   9.715 -0.3157 -0.7749  0.1286
 1011MOL0     O36353   6.576   8.356   9.626  0.0033 -0.5278 -0.3681
 1011MOL0     C36354   6.452   8.299   9.647 -0.4105 -0.7508 -0.5541
 1011MOL0     C36355   6.389   8.208   9.563  0.0650  0.0754 -0.1478
 1011MOL0     C36356   6.268   8.136   9.589 -0.2086  0.0596 -0.2978
 1011MOL0     C36357   6.200   8.158   9.708 -0.1534 -0.6850  0.0173
 1011MOL0     O36358   6.097   8.080   9.749  0.3282 -0.3682 -0.1105
 1011MOL0     C36359   5.985   8.151   9.809 -0.3123  0.9030 -1.5740
 1011MOL0     C36360   5.941   8.264   9.718  0.1379  0.3126  0.4277
 1011MOL0     C36361   5.821   8.343   9.770 -0.0554 -0.0496  0.6720
 1011MOL0     C36362   5.847   8.401   9.911  0.3460 -0.2630 -0.0556
 1011MOL0     C36363   5.719   8.485   9.931 -0.2977 -0.0664  0.6133
 1011MOL0     C36364   5.596   8.400   9.955 -0.3828  0.0511 -0.2450
 1011MOL0     C36365   5.499   8.450  10.057  0.7966 -0.6583  0.2396
 1011MOL0     C36366   5.550   8.423  10.193  0.0259  0.0320  0.0074
 1011MOL0     N36367   5.480   8.500  10.288 -0.7584 -0.7709 -0.0582
 1011MOL0     C36368   5.383   8.467  10.379  0.2141  0.4522  0.3270
 1011MOL0     C36369   5.359   8.578  10.444  0.0617  0.7797  0.1452
 1011MOL0     C36370   5.272   8.606  10.565  1.2633 -0.3949  0.6756
 1011MOL0     C36371   5.127   8.618  10.522 -0.4682 -0.0245  0.0246
 1011MOL0     C36372   5.077   8.766  10.513  0.0901 -0.2768 -0.9628
 1011MOL0     C36373   4.958   8.776  10.421  0.3171  1.2820  0.1035
 1011MOL0     O36374   4.853   8.686  10.474 -0.0055 -0.1909 -1.1388
 1011MOL0     C36375   4.735   8.684  10.400 -0.4343 -0.3625 -0.3668
 1011MOL0     C36376   4.715   8.752  10.275  0.7418  0.4072  0.6262
 1011MOL0     C36377   4.602   8.717  10.193 -0.0706  0.2149 -0.3101
 1011MOL0     C36378   4.585   8.787  10.061 -0.5789 -1.1285  0.1395
 1011MOL0     C36379   4.510   8.616  10.237 -0.4599  0.4479  0.3364
 1011MOL0     C36380   4.399   8.569  10.155  0.2845 -0.1535 -0.4819
 1011MOL0     O36381   4.272   8.580  10.205 -0.7642 -0.6569  0.6779
 1011MOL0     C36382   4.160   8.609  10.132  0.5946  0.1902 -0.4060
 1011MOL0     C36383   4.160   8.620   9.995 -0.0353 -0.6468 -0.4141
 1011MOL0     C36384   4.037   8.633   9.928 -0.2530  0.2597  0.8203
 1011MOL0     C36385   3.912   8.626  10.001 -0.0022 -0.8528  0.5502
 1011MOL0     O36386   3.798   8.621   9.927 -0.1065  0.3793 -0.9996
 1011MOL0     C36387   3.769   8.499   9.864  0.6478  0.1941  0.3380
 1011MOL0     C36388   3.620   8.449   9.907 -0.3794 -0.2175  0.2218
 1011MOL0     C36389   3.517   8.544   9.850 -1.0692  0.3297 -0.3515
 1011MOL0     C36390   3.379   8.498   9.893  0.5736 -0.8481  0.5455
 1011MOL0     C36391   3.319   8.406   9.780 -0.1596 -0.0076  0.0644
 1011MOL0     C36392   3.184   8.360   9.813 -0.5761 -0.1386  0.5216
 1011MOL0     C36393   3.184   8.286   9.949 -0.2794 -0.7563 -0.2314
 1011MOL0     C36394   3.045   8.231   9.973 -0.4072  0.7103  0.0709
 1011MOL0    Cl36395   3.017   8.153  10.137  0.2206  0.4237 -0.3892
 1011MOL0     C36396   3.909   8.609  10.141 -0.5017  0.2761 -0.8371
 1011MOL0     C36397   4.041   8.609  10.202 -0.2926  0.2179 -0.4954
 1011MOL0     O36398   4.425   8.495  10.062 -0.9156 -0.2212 -0.7424
 1011MOL0     C36399   4.538   8.559  10.364 -0.0285 -0.4415 -0.1573
 1011MOL0     C36400   4.643   8.602  10.448  0.3828  1.4401 -0.4829
 1011MOL0     N36401   5.436   8.684  10.401 -0.3920 -0.5406  0.2486
 1011MOL0     N36402   5.509   8.637  10.309  0.1062  0.7032  0.0982
 1011MOL0     C36403   6.257   8.253   9.800 -0.6660 -0.7843  0.0659
 1011MOL0     C36404   6.377   8.329   9.769 -0.1703 -0.2734 -0.3039
 1011MOL0     C36405   6.806   8.397   9.674 -0.3222  0.2773  0.0165
 1011MOL0     C36406   6.914   8.440   9.764  0.4201 -0.7005 -0.2431
 1011MOL0     C36407   7.046   8.466   9.718 -0.8572 -0.2798  0.1516
 1011MOL0     C36408   7.070   8.461   9.580 -0.4245 -0.2170 -0.9563
 1011MOL0     O36409   7.198   8.492   9.554 -0.9249 -0.5749  0.2888
 1011MOL0     C36410   7.250   8.509   9.422  0.0754  0.7327 -1.1920
 1011MOL0     C36411   7.390   8.443   9.407 -0.7539 -0.5312  0.2208
 1011MOL0     C36412   7.385   8.300   9.461  0.7636  0.3351 -1.3626
 1011MOL0     C36413   7.318   8.213   9.351 -0.1204  0.0787  0.2127
 1011MOL0     C36414   7.412   8.129   9.267  0.1332 -0.3344  1.1544
 1011MOL0     C36415   7.502   8.052   9.228 -0.4609 -0.1208 -0.2422
 1011MOL0     C36416   6.967   8.425   9.494  0.3623  0.1243 -0.6551
 1011MOL0     C36417   6.840   8.390   9.537 -0.1428  0.2798  0.4256
 1011MOL0     H36418   6.426   8.190   9.463  1.5985 -1.7897  0.7014
 1011MOL0     H36419   6.221   8.081   9.508 -1.7355  1.2388 -0.2535
 1011MOL0     H36420   5.892   8.095   9.827 -1.1289  1.7812 -2.8398
 1011MOL0     H36421   6.015   8.190   9.907  1.2299  0.3604 -1.8056
 1011MOL0     H36422   6.011   8.345   9.693  0.6538 -0.8649 -2.2929
 1011MOL0     H36423   5.905   8.225   9.622 -0.4304  2.2685 -0.2130
 1011MOL0     H36424   5.817   8.419   9.692  4.1180 -2.8945 -2.7634
 1011MOL0     H36425   5.739   8.270   9.764  0.4857 -0.5600 -1.2267
 1011MOL0     H36426   5.858   8.314   9.976 -2.0926 -0.6120 -0.0198
 1011MOL0     H36427   5.930   8.471   9.916  0.4108 -0.3072 -0.4805
 1011MOL0     H36428   5.738   8.550  10.017  1.0676 -0.6424  0.7853
 1011MOL0     H36429   5.700   8.556   9.850 -0.3412  0.3684  1.0008
 1011MOL0     H36430   5.547   8.388   9.859  0.9090  3.6288 -1.5463
 1011MOL0     H36431   5.632   8.306   9.997  0.6762  0.4771 -0.1454
 1011MOL0     H36432   5.474   8.555  10.043  0.6843 -0.8960 -1.5466
 1011MOL0     H36433   5.404   8.396  10.049  0.3184 -0.0045  1.3294
 1011MOL0     H36434   5.658   8.434  10.206  0.4551 -2.0499 -1.3361
 1011MOL0     H36435   5.543   8.317  10.219  0.8242  0.0622  0.3644
 1011MOL0     H36436   5.331   8.375  10.403 -0.9641  1.3959  1.5660
 1011MOL0     H36437   5.272   8.519  10.630 -1.5154 -1.8504 -1.0818
 1011MOL0     H36438   5.302   8.701  10.611 -0.0832  0.0568  0.6679
 1011MOL0     H36439   5.058   8.561  10.584 -1.9816 -1.0593 -2.4512
 1011MOL0     H36440   5.106   8.577  10.423 -2.6076 -1.6531  1.0780
 1011MOL0     H36441   5.147   8.834  10.464 -2.9609  4.4217  0.4757
 1011MOL0     H36442   5.044   8.794  10.614 -1.1758 -0.0567 -1.4157
 1011MOL0     H36443   4.980   8.744  10.319 -2.0436 -1.3463  0.3180
 1011MOL0     H36444   4.919   8.879  10.424  0.3213  1.3025  3.2830
 1011MOL0     H36445   4.789   8.824  10.241 -0.0978  1.0970  0.2176
 1011MOL0     H36446   4.496   8.846  10.086 -2.1512 -1.4934 -3.8134
 1011MOL0     H36447   4.672   8.852  10.048 -0.2386 -0.9104  2.9963
 1011MOL0     H36448   4.571   8.716   9.978  1.8009 -2.3852  0.7275
 1011MOL0     H36449   4.246   8.639   9.932 -0.5228  2.7378 -0.2484
 1011MOL0     H36450   4.032   8.638   9.819 -1.4375 -3.8655  0.5487
 1011MOL0     H36451   3.764   8.515   9.756 -0.3499 -0.1338  0.3249
 1011MOL0     H36452   3.845   8.427   9.895 -0.4980 -0.7616  1.0119
 1011MOL0     H36453   3.595   8.350   9.870 -0.3291 -0.7702  1.6204
 1011MOL0     H36454   3.607   8.448  10.016  0.3384 -2.3764  0.3276
 1011MOL0     H36455   3.544   8.566   9.747 -1.8319  1.6809 -0.2856
 1011MOL0     H36456   3.533   8.641   9.898 -1.2181  0.3244 -0.2883
 1011MOL0     H36457   3.380   8.456   9.994 -1.7664 -6.2092 -1.3179
 1011MOL0     H36458   3.312   8.584   9.893  0.2564 -1.0888 -0.2180
 1011MOL0     H36459   3.385   8.320   9.763  0.7337  1.1948 -3.3735
 1011MOL0     H36460   3.307   8.453   9.682 -1.5377 -0.3172  0.0634
 1011MOL0     H36461   3.111   8.441   9.822 -0.8296 -0.3719  0.6233
 1011MOL0     H36462   3.159   8.294   9.729 -2.0877  0.0584  0.7888
 1011MOL0     H36463   3.197   8.367  10.022  2.5558 -1.1553 -0.1871
 1011MOL0     H36464   3.256   8.206   9.965 -0.0989 -0.6498 -0.5001
 1011MOL0     H36465   3.026   8.152   9.900 -1.8623  1.8002 -0.7867
 1011MOL0     H36466   2.967   8.305   9.954 -0.2645  0.6470 -0.8198
 1011MOL0     H36467   3.822   8.598  10.206 -0.2162 -1.8422 -0.7245
 1011MOL0     H36468   4.043   8.598  10.310 -0.1166  1.6923 -0.3334
 1011MOL0     H36469   4.464   8.485  10.395 -0.1156 -0.7154 -0.9838
 1011MOL0     H36470   4.641   8.561  10.548  0.6740 -1.3106 -1.5154
 1011MOL0     H36471   6.213   8.288   9.893  0.5183  0.2997  0.2589
 1011MOL0     H36472   6.413   8.404   9.839 -2.3707  1.3700 -0.8368
 1011MOL0     H36473   6.904   8.446   9.872  0.8090 -0.7954 -0.2030
 1011MOL0     H36474   7.132   8.494   9.779  1.3914  0.5643 -3.1200
 1011MOL0     H36475   7.185   8.468   9.344 -1.2104  1.0079 -0.3025
 1011MOL0     H36476   7.252   8.617   9.407  0.5512  0.9766  0.4727
 1011MOL0     H36477   7.459   8.508   9.462 -2.2017  0.3036  1.1173
 1011MOL0     H36478   7.420   8.443   9.302  2.1715 -0.8977  0.9519
 1011MOL0     H36479   7.317   8.290   9.547  2.0605 -0.4980 -0.3926
 1011MOL0     H36480   7.477   8.253   9.496 -1.5071 -0.3407  5.2939
 1011MOL0     H36481   7.253   8.270   9.285 -0.3976 -0.0414  0.3818
 1011MOL0     H36482   7.253   8.141   9.402 -2.4696  2.7501  1.2299
 1011MOL0     H36483   7.579   7.980   9.211  0.3261  0.7321 -0.3613
 1011MOL0     H36484   6.991   8.425   9.389 -0.6841 -1.9034 -0.9460
 1011MOL0     H36485   6.755   8.353   9.481 -1.6806 -1.8698  3.8191
 1012MOL0     O36486   3.954  10.999   0.979  0.4396 -0.2344 -0.1612
 1012MOL0     C36487   4.034  11.094   0.975  0.5473  0.0748  0.4156
 1012MOL0     O36488   4.020  11.208   1.053  0.1795  0.3114 -0.6984
 1012MOL0     C36489   3.923  11.222   1.146  0.2574 -0.7625 -0.2105
 1012MOL0     C36490   3.950  11.287   1.257  0.3226 -0.2193  0.5529
 1012MOL0     C36491   3.857  11.323   1.351 -0.1284 -0.8041 -0.8328
 1012MOL0     C36492   3.722  11.305   1.326 -0.5082 -0.6865  0.2976
 1012MOL0     O36493   3.620  11.358   1.403 -0.2910 -0.8022 -0.0038
 1012MOL0     C36494   3.646  11.367   1.540 -0.1137 -1.2290 -0.3253
 1012MOL0     C36495   3.527  11.389   1.636  0.7206  0.5097  0.7087
 1012MOL0     C36496   3.461  11.246   1.659  0.4034 -0.8225  0.3571
 1012MOL0     C36497   3.345  11.261   1.757 -0.4928 -1.5126  0.9610
 1012MOL0     C36498   3.265  11.133   1.786  0.5432 -0.2274  0.1064
 1012MOL0     C36499   3.192  11.089   1.668 -0.0136 -0.3088  0.1093
 1012MOL0     C36500   3.084  10.986   1.697 -0.3635 -0.4187 -0.1370
 1012MOL0     C36501   3.033  10.897   1.576  0.4612  0.1057  0.4269
 1012MOL0     N36502   3.130  10.792   1.529  0.3828 -1.0509  0.7202
 1012MOL0     C36503   3.246  10.764   1.605 -0.8416 -0.0109 -0.0928
 1012MOL0     C36504   3.306  10.657   1.533 -0.8133  0.0283  0.6292
 1012MOL0     C36505   3.426  10.568   1.578 -0.2027 -0.7219  0.4397
 1012MOL0     C36506   3.458  10.442   1.487  0.5643 -0.7842 -0.0938
 1012MOL0     C36507   3.557  10.334   1.544  0.2493 -0.4442 -0.5256
 1012MOL0     C36508   3.676  10.390   1.615 -0.0832 -1.0281  0.3853
 1012MOL0     O36509   3.759  10.473   1.530 -0.8611  0.7734  0.8756
 1012MOL0     C36510   3.874  10.525   1.578 -1.2983 -0.8497 -0.1350
 1012MOL0     C36511   3.887  10.581   1.711  0.4985 -0.0999 -0.0715
 1012MOL0     C36512   4.006  10.635   1.762  0.5513 -0.4101  0.8191
 1012MOL0     C36513   4.009  10.687   1.907 -0.3221  0.2751  0.3989
 1012MOL0     C36514   4.122  10.649   1.685 -0.3251  0.3967  0.7381
 1012MOL0     C36515   4.254  10.708   1.718 -0.0430 -0.4603  0.7535
 1012MOL0     O36516   4.329  10.755   1.617  0.5299 -0.2440  0.5136
 1012MOL0     C36517   4.448  10.821   1.632  0.9000  0.8723  0.6213
 1012MOL0     C36518   4.467  10.920   1.733  0.8123  0.8162 -0.2959
 1012MOL0     C36519   4.581  10.997   1.735 -0.0898 -0.6612  0.1876
 1012MOL0     C36520   4.677  10.969   1.639 -0.4812 -1.0639  0.6231
 1012MOL0     O36521   4.776  11.060   1.647  0.5165  0.4055  0.2540
 1012MOL0     C36522   4.859  11.082   1.531  0.0882  1.2261  0.9625
 1012MOL0     C36523   4.965  11.179   1.559 -0.4104  0.9027 -0.6749
 1012MOL0     C36524   5.083  11.111   1.630 -0.5541 -0.3611 -0.7382
 1012MOL0     C36525   5.204  11.209   1.648 -0.7146  0.4702 -0.5101
 1012MOL0     C36526   5.308  11.139   1.740 -1.0057 -0.5637  0.3217
 1012MOL0     C36527   5.442  11.219   1.734  0.3415  0.3032  0.1198
 1012MOL0     C36528   5.546  11.178   1.841 -0.0885 -0.2101  0.7625
 1012MOL0     C36529   5.601  11.043   1.811  0.3095  0.1071 -0.2235
 1012MOL0    Cl36530   5.514  10.912   1.896  0.2232  0.2925  0.0981
 1012MOL0     C36531   4.654  10.881   1.537 -0.4141 -0.1846  0.4151
 1012MOL0     C36532   4.540  10.803   1.536 -0.3310 -0.4553 -0.9831
 1012MOL0     O36533   4.296  10.699   1.830 -0.0280 -0.0950 -0.4013
 1012MOL0     C36534   4.113  10.595   1.554 -1.0267  0.3032 -0.3094
 1012MOL0     C36535   3.997  10.534   1.507  0.1466  0.8384 -0.4653
 1012MOL0     N36536   3.228  10.623   1.417 -0.5263 -0.1144 -0.1514
 1012MOL0     N36537   3.129  10.709   1.417  0.1700  0.1043 -0.2160
 1012MOL0     C36538   3.691  11.241   1.207  0.5652 -0.5747  0.0743
 1012MOL0     C36539   3.789  11.188   1.118 -0.2527  0.1382  0.1314
 1012MOL0     C36540   4.144  11.091   0.873  0.2173 -1.0665 -0.5936
 1012MOL0     C36541   4.180  10.971   0.814  1.4027 -0.2844 -0.9069
 1012MOL0     C36542   4.289  10.973   0.724 -0.4438 -0.3554 -0.2949
 1012MOL0     C36543   4.366  11.090   0.700  0.0604  0.7189 -0.4924
 1012MOL0     O36544   4.473  11.099   0.616  0.2220  0.8840  0.3704
 1012MOL0     C36545   4.589  11.032   0.650 -0.1690 -0.3474 -0.2263
 1012MOL0     C36546   4.669  11.118   0.755 -0.6640  0.5350 -0.1804
 1012MOL0     C36547   4.735  11.243   0.670 -0.5680 -0.2200 -0.6635
 1012MOL0     C36548   4.767  11.360   0.766 -0.5162 -1.5763 -0.4090
 1012MOL0     C36549   4.893  11.429   0.710 -1.0691 -0.1541  0.3426
 1012MOL0     C36550   4.998  11.484   0.686 -0.5437 -0.1301 -0.3719
 1012MOL0     C36551   4.337  11.207   0.767  0.1784 -0.1126 -0.1692
 1012MOL0     C36552   4.226  11.211   0.857 -0.4641  0.5603  0.6776
 1012MOL0     H36553   4.056  11.313   1.262  0.4627 -0.1098 -1.9281
 1012MOL0     H36554   3.881  11.365   1.448 -0.2470 -1.0545 -0.6958
 1012MOL0     H36555   3.707  11.289   1.586  1.9110  1.6892  2.3331
 1012MOL0     H36556   3.711  11.454   1.553 -1.6682 -0.0455 -0.0715
 1012MOL0     H36557   3.559  11.430   1.733 -4.0201  0.4729  2.5184
 1012MOL0     H36558   3.452  11.455   1.593 -1.9892 -1.7839  1.6456
 1012MOL0     H36559   3.426  11.201   1.565  5.2070 -1.9788 -1.1342
 1012MOL0     H36560   3.540  11.177   1.690  1.6201 -0.1878 -1.2082
 1012MOL0     H36561   3.385  11.288   1.854 -0.2016 -0.2363  0.4945
 1012MOL0     H36562   3.286  11.342   1.713  2.0648  2.0571  3.6539
 1012MOL0     H36563   3.337  11.052   1.800  0.5828 -0.3657 -0.8541
 1012MOL0     H36564   3.193  11.157   1.865  2.5569  2.7661  1.2081
 1012MOL0     H36565   3.145  11.176   1.621 -2.4401  0.5538  3.7475
 1012MOL0     H36566   3.267  11.059   1.593  1.6489  1.6890  0.8765
 1012MOL0     H36567   3.114  10.919   1.778  0.9649 -1.5707 -1.5380
 1012MOL0     H36568   2.990  11.033   1.729 -0.5216 -2.0124  2.0015
 1012MOL0     H36569   3.009  10.949   1.483  1.9494 -0.6880 -0.4320
 1012MOL0     H36570   2.948  10.846   1.622  1.9372 -0.4330  2.7395
 1012MOL0     H36571   3.280  10.800   1.701 -1.1161 -1.9240  0.7833
 1012MOL0     H36572   3.511  10.635   1.563  1.0481 -2.5482 -1.0357
 1012MOL0     H36573   3.429  10.543   1.685  0.3452  0.0904  0.6261
 1012MOL0     H36574   3.484  10.470   1.384  0.3912  0.2900  0.1360
 1012MOL0     H36575   3.366  10.385   1.472  0.1919 -0.0170 -0.9023
 1012MOL0     H36576   3.591  10.268   1.463  0.5584  0.6057 -1.2844
 1012MOL0     H36577   3.497  10.275   1.614  0.0365 -1.3258 -1.4250
 1012MOL0     H36578   3.733  10.306   1.657 -5.0547 -3.5134  2.9513
 1012MOL0     H36579   3.639  10.440   1.705 -2.6095 -4.1638  1.2775
 1012MOL0     H36580   3.792  10.589   1.762  0.9350  2.0165  0.5123
 1012MOL0     H36581   4.001  10.795   1.901 -0.9569  0.2959  1.3924
 1012MOL0     H36582   3.914  10.658   1.953 -0.2642  1.6546  1.4213
 1012MOL0     H36583   4.089  10.649   1.971 -0.7313 -1.0851  0.1484
 1012MOL0     H36584   4.387  10.952   1.799  1.1304  3.4638 -1.0773
 1012MOL0     H36585   4.589  11.089   1.791 -4.1136  2.4821 -3.6823
 1012MOL0     H36586   4.912  10.994   1.493  1.3045  1.2534  2.4624
 1012MOL0     H36587   4.792  11.126   1.457  0.6369  0.8653  0.2499
 1012MOL0     H36588   5.009  11.211   1.463  1.8737  0.7700  0.2607
 1012MOL0     H36589   4.931  11.269   1.610 -1.7846 -0.2546  0.5045
 1012MOL0     H36590   5.128  11.025   1.579  0.9029  0.7128 -1.3012
 1012MOL0     H36591   5.041  11.072   1.723 -0.9045 -1.2205 -1.2390
 1012MOL0     H36592   5.243  11.229   1.548 -0.0486 -1.0539 -0.5844
 1012MOL0     H36593   5.167  11.295   1.704 -2.1928 -2.5846  3.6961
 1012MOL0     H36594   5.332  11.038   1.706 -1.2813 -1.0826  1.6139
 1012MOL0     H36595   5.275  11.140   1.844  0.7944  1.3681  0.9555
 1012MOL0     H36596   5.491  11.214   1.636  0.6513 -0.5663  0.3104
 1012MOL0     H36597   5.428  11.322   1.766  0.9143  0.0278  1.3163
 1012MOL0     H36598   5.511  11.195   1.943  0.7312  2.0499  0.7256
 1012MOL0     H36599   5.625  11.253   1.827 -0.5675  0.1071 -0.4340
 1012MOL0     H36600   5.703  11.043   1.848  0.7902 -1.6602 -1.4387
 1012MOL0     H36601   5.615  11.023   1.704 -0.0330 -2.1120  0.0950
 1012MOL0     H36602   4.726  10.870   1.457 -0.9388  3.6968 -0.8142
 1012MOL0     H36603   4.527  10.733   1.455  0.4703 -1.8532  0.0621
 1012MOL0     H36604   4.194  10.596   1.482  0.0101 -1.1990  0.7881
 1012MOL0     H36605   3.986  10.491   1.407 -0.3819  3.3688 -1.5723
 1012MOL0     H36606   3.586  11.222   1.188  0.4341  2.8914 -4.4702
 1012MOL0     H36607   3.761  11.137   1.027 -2.4662  1.7731 -0.1903
 1012MOL0     H36608   4.109  10.889   0.821  1.9545 -0.8474 -1.7168
 1012MOL0     H36609   4.323  10.892   0.660  0.4766  1.5867 -2.3972
 1012MOL0     H36610   4.562  10.931   0.682 -0.0420 -0.9553 -1.9287
 1012MOL0     H36611   4.653  11.011   0.564  0.0242 -1.2943  0.1337
 1012MOL0     H36612   4.745  11.053   0.799  1.1590  1.6373 -1.5712
 1012MOL0     H36613   4.614  11.147   0.845  0.2175 -0.2519  0.6376
 1012MOL0     H36614   4.666  11.275   0.591 -2.0487 -2.4810 -0.3691
 1012MOL0     H36615   4.833  11.214   0.632 -0.8346  0.1396 -1.6740
 1012MOL0     H36616   4.801  11.309   0.856 -1.6920 -3.2144 -0.8397
 1012MOL0     H36617   4.686  11.432   0.781  0.8886 -0.1271  0.6067
 1012MOL0     H36618   5.091  11.531   0.659 -1.1226  1.6651  0.6211
 1012MOL0     H36619   4.395  11.294   0.738  2.0977 -0.7768  1.4543
 1012MOL0     H36620   4.189  11.298   0.911  0.0510  0.0667  1.8821
 1013MOL0     O36621   0.458   2.833   1.562 -1.2745  0.8428 -0.2633
 1013MOL0     C36622   0.418   2.719   1.576  0.7593 -0.2553  0.4322
 1013MOL0     O36623   0.491   2.608   1.613 -0.0024 -0.3707  0.0586
 1013MOL0     C36624   0.627   2.619   1.630 -0.3664 -0.1682  0.4293
 1013MOL0     C36625   0.710   2.554   1.537  0.2659 -0.5293  0.9134
 1013MOL0     C36626   0.849   2.553   1.542 -1.2233 -0.0941 -1.3078
 1013MOL0     C36627   0.913   2.620   1.654 -0.4799  0.4710 -0.5900
 1013MOL0     O36628   1.047   2.611   1.670  0.5815  0.1306 -0.7875
 1013MOL0     C36629   1.109   2.605   1.802 -0.0400 -0.1677  0.9432
 1013MOL0     C36630   1.208   2.480   1.800 -0.5241 -0.7951  0.3051
 1013MOL0     C36631   1.334   2.507   1.890  0.2273  0.2723 -0.4888
 1013MOL0     C36632   1.428   2.390   1.872 -0.2180  0.9084 -0.0621
 1013MOL0     C36633   1.512   2.381   1.745  0.6121 -0.5688 -0.2137
 1013MOL0     C36634   1.633   2.296   1.771 -0.1536  0.8816 -0.3802
 1013MOL0     C36635   1.721   2.247   1.651  0.4203  0.4908  0.1995
 1013MOL0     C36636   1.872   2.218   1.676  0.7440  0.4999  0.5931
 1013MOL0     N36637   1.936   2.345   1.719  0.4156 -0.3276  0.6483
 1013MOL0     C36638   1.959   2.459   1.642  0.1708  0.1556 -1.2016
 1013MOL0     C36639   2.007   2.547   1.736 -0.2769 -0.2411  0.2875
 1013MOL0     C36640   2.032   2.687   1.689 -0.5627 -0.2140  0.0078
 1013MOL0     C36641   2.158   2.739   1.757  0.0987 -0.0964  0.8616
 1013MOL0     C36642   2.189   2.873   1.700 -0.2393 -0.4571  0.1882
 1013MOL0     C36643   2.325   2.910   1.772  0.4250  0.4706  0.1561
 1013MOL0     O36644   2.338   3.055   1.783  0.4028  0.3202  0.1518
 1013MOL0     C36645   2.394   3.131   1.684 -0.0810 -0.4400 -0.9836
 1013MOL0     C36646   2.361   3.268   1.697  0.3511  0.0080  0.1286
 1013MOL0     C36647   2.407   3.351   1.601  0.2021 -0.5670 -0.6157
 1013MOL0     C36648   2.354   3.489   1.594  0.8275 -0.4239 -0.0097
 1013MOL0     C36649   2.494   3.301   1.494 -0.2811 -0.0664 -0.8178
 1013MOL0     C36650   2.554   3.384   1.388  0.3740 -0.1072 -0.0131
 1013MOL0     O36651   2.624   3.321   1.284 -0.0856  0.1468  0.0828
 1013MOL0     C36652   2.691   3.412   1.197  0.3916 -0.6093  1.4528
 1013MOL0     C36653   2.828   3.396   1.154 -0.0048  0.3222  0.1028
 1013MOL0     C36654   2.897   3.499   1.091 -0.8219  0.3947 -0.5357
 1013MOL0     C36655   2.836   3.610   1.052  0.1217  0.3130  0.9709
 1013MOL0     O36656   2.896   3.719   0.993  0.3163 -0.1391 -0.1525
 1013MOL0     C36657   3.017   3.693   0.936 -0.1580 -0.2618  0.3525
 1013MOL0     C36658   3.082   3.808   0.864 -0.5966 -0.2445 -0.0336
 1013MOL0     C36659   3.159   3.911   0.952 -0.9902 -0.1635 -0.0542
 1013MOL0     C36660   3.083   3.954   1.077 -0.0831 -0.2370 -0.3648
 1013MOL0     C36661   3.156   4.046   1.170  0.2775  0.1737  1.0163
 1013MOL0     C36662   3.075   4.055   1.305 -0.6371  0.3140  1.4196
 1013MOL0     C36663   3.145   4.152   1.393  0.0432  0.6052 -1.0177
 1013MOL0     C36664   3.093   4.153   1.539 -0.2984 -0.0954 -0.1129
 1013MOL0    Cl36665   2.919   4.166   1.533 -0.2613  0.0381  0.2490
 1013MOL0     C36666   2.697   3.621   1.075  0.0344 -0.7370  0.3749
 1013MOL0     C36667   2.623   3.525   1.149  1.0524 -0.3428  1.2588
 1013MOL0     O36668   2.543   3.503   1.410  0.0292 -0.0360  0.1005
 1013MOL0     C36669   2.501   3.163   1.482  0.9050 -0.5359 -0.0387
 1013MOL0     C36670   2.456   3.075   1.578 -1.6696  1.2959 -0.0520
 1013MOL0     N36671   2.006   2.490   1.859  0.9702  0.7270 -0.0620
 1013MOL0     N36672   1.945   2.377   1.848  0.5930 -0.0221  0.2452
 1013MOL0     C36673   0.834   2.698   1.736  0.1436  0.1726 -0.1904
 1013MOL0     C36674   0.694   2.694   1.730 -0.1105 -0.5612 -0.4967
 1013MOL0     C36675   0.271   2.702   1.563  0.7660 -0.7436 -0.6267
 1013MOL0     C36676   0.184   2.807   1.611 -0.3473 -0.5391 -0.0038
 1013MOL0     C36677   0.045   2.777   1.611  0.1671 -0.6421  0.4210
 1013MOL0     C36678  -0.012   2.664   1.544  0.0761  1.0256 -0.4470
 1013MOL0     O36679  -0.150   2.646   1.527  0.0130 -0.0250  0.0087
 1013MOL0     C36680  -0.201   2.528   1.590 -0.3626  0.2822  0.9043
 1013MOL0     C36681  -0.312   2.566   1.686  0.2714 -0.0840 -0.0168
 1013MOL0     C36682  -0.278   2.685   1.788  0.5143 -0.7843 -0.5652
 1013MOL0     C36683  -0.347   2.673   1.917 -0.7941 -0.0166  0.2597
 1013MOL0     C36684  -0.489   2.697   1.900 -0.0273  0.5950 -0.4165
 1013MOL0     C36685  -0.606   2.690   1.877  0.4410 -0.7686  1.3773
 1013MOL0     C36686   0.083   2.572   1.503 -0.9638  0.2540 -0.3254
 1013MOL0     C36687   0.222   2.586   1.510  0.6131  0.2906 -0.1180
 1013MOL0     H36688   0.666   2.495   1.457  5.1420 -0.7831 -2.0586
 1013MOL0     H36689   0.914   2.505   1.470 -0.3976  1.1544 -1.4324
 1013MOL0     H36690   1.162   2.700   1.800  1.0472 -0.7397 -1.0429
 1013MOL0     H36691   1.040   2.597   1.886  1.0975 -1.2930  1.8335
 1013MOL0     H36692   1.150   2.394   1.835 -1.9066  0.5766  1.5398
 1013MOL0     H36693   1.232   2.460   1.695 -2.7162  1.5288 -0.7376
 1013MOL0     H36694   1.387   2.598   1.862  2.3472 -1.2365 -1.6825
 1013MOL0     H36695   1.310   2.513   1.997  2.2193  0.0141  0.0256
 1013MOL0     H36696   1.480   2.386   1.968 -1.7075  1.3443  0.7922
 1013MOL0     H36697   1.366   2.300   1.878  1.6656 -0.3998  0.9449
 1013MOL0     H36698   1.449   2.327   1.674  2.2434 -1.6548 -0.9161
 1013MOL0     H36699   1.542   2.480   1.709 -1.4451 -0.7538 -2.7087
 1013MOL0     H36700   1.700   2.363   1.827  2.4183  0.4089 -2.6842
 1013MOL0     H36701   1.609   2.207   1.830 -0.6359  1.8826  1.0087
 1013MOL0     H36702   1.670   2.158   1.613 -1.0185  1.6509 -0.6733
 1013MOL0     H36703   1.698   2.318   1.571 -1.1308 -1.9425 -1.6383
 1013MOL0     H36704   1.916   2.182   1.583 -0.9111  0.4224 -0.2084
 1013MOL0     H36705   1.875   2.138   1.750 -1.3965 -1.8668 -1.6597
 1013MOL0     H36706   1.934   2.471   1.537  0.1321 -0.4897 -1.2738
 1013MOL0     H36707   2.043   2.692   1.580  0.0093 -2.1942 -0.0475
 1013MOL0     H36708   1.952   2.758   1.711 -2.2537 -1.2360 -2.3644
 1013MOL0     H36709   2.235   2.663   1.739 -0.8926 -1.1824  1.0744
 1013MOL0     H36710   2.148   2.761   1.864 -1.6476 -0.4742  0.8027
 1013MOL0     H36711   2.112   2.945   1.727  0.0360  0.0331 -0.3179
 1013MOL0     H36712   2.193   2.876   1.591 -1.5527 -0.7100  0.1188
 1013MOL0     H36713   2.405   2.864   1.712  0.1848  1.4486 -0.9548
 1013MOL0     H36714   2.326   2.877   1.876  1.3827 -0.1755 -0.0473
 1013MOL0     H36715   2.284   3.285   1.772  1.0321  0.9298  0.6417
 1013MOL0     H36716   2.322   3.507   1.491  2.3312 -2.3948 -0.8953
 1013MOL0     H36717   2.273   3.499   1.667  0.3717 -3.9079  0.0938
 1013MOL0     H36718   2.432   3.560   1.624 -0.3333  2.2276 -2.7338
 1013MOL0     H36719   2.874   3.299   1.170 -2.3397 -1.1234 -1.4192
 1013MOL0     H36720   3.003   3.482   1.078 -1.1633 -1.9202 -0.6429
 1013MOL0     H36721   3.081   3.674   1.022  1.8927  2.3918 -0.4609
 1013MOL0     H36722   3.013   3.607   0.868 -1.8021  0.5923 -0.6994
 1013MOL0     H36723   3.151   3.762   0.792 -2.1661  2.8647 -3.8812
 1013MOL0     H36724   3.003   3.859   0.808 -1.0037 -0.3919  0.4041
 1013MOL0     H36725   3.183   4.002   0.896  2.4166  0.2579  1.7694
 1013MOL0     H36726   3.257   3.869   0.978 -0.4936  1.3136  0.5982
 1013MOL0     H36727   2.982   3.995   1.068 -0.8175 -1.7967  0.4593
 1013MOL0     H36728   3.067   3.871   1.146 -2.9668  0.6862  0.2019
 1013MOL0     H36729   3.166   4.143   1.120 -3.5367 -0.8690 -2.2205
 1013MOL0     H36730   3.256   4.014   1.201 -0.1320  0.4254  2.7304
 1013MOL0     H36731   2.976   4.087   1.273 -0.5164 -1.9824 -1.7411
 1013MOL0     H36732   3.065   3.962   1.362  0.5480 -1.8169 -1.5881
 1013MOL0     H36733   3.132   4.255   1.358  0.5312  2.0198  2.5511
 1013MOL0     H36734   3.249   4.118   1.402  0.5371  2.5739  2.4090
 1013MOL0     H36735   3.134   4.244   1.586 -1.5281  1.4268 -1.8554
 1013MOL0     H36736   3.127   4.060   1.585  0.7425  0.7789  0.9622
 1013MOL0     H36737   2.646   3.702   1.023  0.5070 -0.9237 -0.3961
 1013MOL0     H36738   2.515   3.532   1.155  1.2082  2.2652  2.1874
 1013MOL0     H36739   2.552   3.136   1.390  1.3129  1.2601 -0.3737
 1013MOL0     H36740   2.442   2.969   1.560  0.4024  0.8036  0.9588
 1013MOL0     H36741   0.873   2.764   1.813 -1.0908  1.3937 -0.5715
 1013MOL0     H36742   0.634   2.751   1.801 -1.6393  1.2429 -3.0611
 1013MOL0     H36743   0.228   2.898   1.651  0.3368 -0.6738 -0.4299
 1013MOL0     H36744  -0.022   2.853   1.650 -1.3605 -0.8652 -1.6155
 1013MOL0     H36745  -0.238   2.464   1.509 -2.7409  2.0544  0.4778
 1013MOL0     H36746  -0.121   2.468   1.635  0.0658 -1.3347 -1.7859
 1013MOL0     H36747  -0.340   2.474   1.738 -1.2786  0.9659  1.0970
 1013MOL0     H36748  -0.401   2.589   1.628  1.3004  2.2480 -0.7986
 1013MOL0     H36749  -0.291   2.781   1.736  2.9266 -1.4102 -2.5026
 1013MOL0     H36750  -0.175   2.693   1.824 -0.2768 -0.7824  1.9209
 1013MOL0     H36751  -0.324   2.737   2.003 -1.4512  2.2274 -1.1516
 1013MOL0     H36752  -0.331   2.570   1.949  3.1355  0.7444  1.2875
 1013MOL0     H36753  -0.713   2.688   1.874  0.4183 -0.7193 -2.3711
 1013MOL0     H36754   0.039   2.482   1.462 -2.3767  1.6490 -1.9974
 1013MOL0     H36755   0.288   2.507   1.476 -1.6608 -1.5985 -0.4093
 1014MOL0     O36756  10.591   0.076   9.566  0.0017 -0.2017 -0.1719
 1014MOL0     C36757  10.619   0.169   9.491 -0.6102  0.4849  0.7275
 1014MOL0     O36758  10.532   0.232   9.407 -0.4391 -0.3020  0.2131
 1014MOL0     C36759  10.400   0.218   9.410 -0.0860 -0.7003  0.9418
 1014MOL0     C36760  10.323   0.197   9.530 -0.0785 -0.3156 -0.4438
 1014MOL0     C36761  10.182   0.178   9.526  1.6341  0.9730  0.4856
 1014MOL0     C36762  10.112   0.202   9.405 -0.6418 -0.7344  0.0482
 1014MOL0     O36763   9.981   0.215   9.405  0.4227 -0.0111 -0.4522
 1014MOL0     C36764   9.897   0.103   9.453  0.2054  0.0354  0.4990
 1014MOL0     C36765   9.751   0.142   9.456  0.1746 -0.2665  0.8296
 1014MOL0     C36766   9.719   0.247   9.569 -0.2224  0.4614  0.1203
 1014MOL0     C36767   9.569   0.267   9.568 -0.1622 -0.0491  0.5936
 1014MOL0     C36768   9.485   0.150   9.606 -0.1704 -0.1346  0.1464
 1014MOL0     C36769   9.341   0.184   9.643  0.5404  0.1694 -0.3795
 1014MOL0     C36770   9.267   0.079   9.720  0.3604  0.2644  0.0071
 1014MOL0     C36771   9.128   0.122   9.774  0.0355  1.0004  1.5393
 1014MOL0     N36772   9.058   0.190   9.663  0.7309 -0.0247 -0.4758
 1014MOL0     C36773   9.031   0.140   9.536  1.0795  0.7276  0.0789
 1014MOL0     C36774   8.929   0.222   9.494  0.8537 -0.4073  0.4555
 1014MOL0     C36775   8.860   0.244   9.350 -0.7403 -0.8668 -0.0436
 1014MOL0     C36776   8.856   0.387   9.293 -0.2525  0.5404 -0.2097
 1014MOL0     C36777   8.993   0.418   9.237  0.4618 -0.4190  0.8266
 1014MOL0     C36778   9.086   0.470   9.348  0.4856  0.5616 -0.3597
 1014MOL0     O36779   9.196   0.524   9.281 -0.1341 -0.2194  0.7583
 1014MOL0     C36780   9.306   0.574   9.348  0.6418 -0.0904 -0.3092
 1014MOL0     C36781   9.318   0.573   9.496 -0.3973 -0.3000  0.2529
 1014MOL0     C36782   9.432   0.599   9.563  0.5446  0.0075  0.5862
 1014MOL0     C36783   9.416   0.590   9.710 -0.2969 -1.5064 -0.5227
 1014MOL0     C36784   9.543   0.636   9.478 -1.4516  0.3302  0.2838
 1014MOL0     C36785   9.686   0.647   9.527 -0.0374 -0.0155  0.0142
 1014MOL0     O36786   9.775   0.668   9.427 -0.9505  0.5845  0.0643
 1014MOL0     C36787   9.913   0.668   9.446 -0.2504 -0.3796 -0.3274
 1014MOL0     C36788   9.991   0.590   9.542  0.0606 -1.3804  0.8305
 1014MOL0     C36789  10.131   0.604   9.538  0.6763 -0.0498 -0.9854
 1014MOL0     C36790  10.190   0.683   9.436 -0.1197 -0.2034  0.3407
 1014MOL0     O36791  10.327   0.697   9.428  0.0162 -0.3648 -0.2625
 1014MOL0     C36792  10.396   0.713   9.550 -0.2096 -0.1270 -0.0851
 1014MOL0     C36793  10.553   0.732   9.535  1.0939 -0.0491  0.5785
 1014MOL0     C36794  10.622   0.747   9.667 -0.8184 -0.7380 -0.2391
 1014MOL0     C36795  10.757   0.827   9.650 -0.6361 -0.3385 -0.1673
 1014MOL0     C36796  10.819   0.880   9.786  0.4327 -0.6243  0.4239
 1014MOL0     C36797  10.907   1.004   9.771 -0.6257 -0.0878 -0.5949
 1014MOL0     C36798  11.022   0.985   9.667 -0.0443  0.3340 -1.1002
 1014MOL0     C36799  11.122   0.875   9.703 -1.0823 -0.5028 -0.0688
 1014MOL0    Cl36800  11.086   0.711   9.668  0.1824 -0.2573 -0.2827
 1014MOL0     C36801  10.118   0.753   9.347 -0.4967  0.0760  0.0742
 1014MOL0     C36802   9.980   0.754   9.352 -0.0425  0.2202 -0.3302
 1014MOL0     O36803   9.712   0.649   9.648  0.8793  0.0893  0.6175
 1014MOL0     C36804   9.527   0.661   9.340 -0.5935 -0.3663 -0.6030
 1014MOL0     C36805   9.412   0.620   9.276  1.4841  0.0843 -0.1542
 1014MOL0     N36806   8.909   0.324   9.585 -0.2629 -0.9064  0.6448
 1014MOL0     N36807   8.990   0.304   9.686 -0.3965  0.0587 -0.0008
 1014MOL0     C36808  10.190   0.257   9.298  0.0089  0.0995  0.7810
 1014MOL0     C36809  10.327   0.263   9.302 -0.3938 -0.5498  0.2143
 1014MOL0     C36810  10.763   0.204   9.487  0.3668 -0.3787 -0.0970
 1014MOL0     C36811  10.808   0.262   9.369 -0.0041 -0.6951 -0.7886
 1014MOL0     C36812  10.942   0.305   9.361  0.1606  0.1871  0.4885
 1014MOL0     C36813  11.037   0.283   9.460  0.1186  0.6388 -0.1698
 1014MOL0     O36814  11.166   0.320   9.428 -0.7476  0.7032 -0.2752
 1014MOL0     C36815  11.235   0.389   9.533 -0.6829 -0.1254  0.0475
 1014MOL0     C36816  11.354   0.481   9.491  0.2821  0.5591 -0.1307
 1014MOL0     C36817  11.434   0.555   9.595 -0.7010 -0.4236  0.4500
 1014MOL0     C36818  11.526   0.465   9.678 -0.7190  0.4330 -0.3403
 1014MOL0     C36819  11.582   0.549   9.789  0.3181  0.0960 -0.5112
 1014MOL0     C36820  11.609   0.642   9.861 -0.5303  0.4801  1.1177
 1014MOL0     C36821  10.993   0.200   9.572  1.3647 -0.4232  0.0693
 1014MOL0     C36822  10.857   0.173   9.593  1.2231  0.2226 -0.6492
 1014MOL0     H36823  10.372   0.190   9.627 -1.5809  0.0088  0.3676
 1014MOL0     H36824  10.126   0.168   9.618 -2.2364  0.2510 -1.7244
 1014MOL0     H36825   9.915   0.013   9.394 -0.9663 -1.0838  1.7728
 1014MOL0     H36826   9.928   0.081   9.555  1.8863  2.8660  0.7119
 1014MOL0     H36827   9.735   0.196   9.362  0.9379  2.2863  2.0685
 1014MOL0     H36828   9.684   0.057   9.468 -0.1259 -0.1634 -0.0316
 1014MOL0     H36829   9.747   0.222   9.672 -1.5766  1.6593  0.8139
 1014MOL0     H36830   9.775   0.338   9.545  1.8462  0.0176  2.7738
 1014MOL0     H36831   9.543   0.347   9.639 -1.0001 -0.4278  0.7274
 1014MOL0     H36832   9.534   0.312   9.475  0.6740 -2.9344 -1.2163
 1014MOL0     H36833   9.486   0.062   9.541  0.9943 -0.2264  0.2668
 1014MOL0     H36834   9.532   0.116   9.700 -1.0978 -0.9996  0.3111
 1014MOL0     H36835   9.347   0.269   9.712 -2.7257  1.0502 -1.0005
 1014MOL0     H36836   9.293   0.218   9.551 -0.3924  0.3784  0.1781
 1014MOL0     H36837   9.256  -0.011   9.657 -0.2354 -2.5500  3.7931
 1014MOL0     H36838   9.320   0.053   9.812 -0.9961  2.7087  1.5864
 1014MOL0     H36839   9.129   0.186   9.863  1.3739 -0.2950  2.4956
 1014MOL0     H36840   9.075   0.029   9.792  0.7587 -1.5287 -5.8553
 1014MOL0     H36841   9.073   0.055   9.484 -2.0655 -0.9347 -0.0059
 1014MOL0     H36842   8.898   0.164   9.286 -4.0839 -3.0801  0.4513
 1014MOL0     H36843   8.753   0.222   9.355 -1.0360 -0.7372 -3.4823
 1014MOL0     H36844   8.821   0.470   9.355  2.1289  2.1990 -0.9252
 1014MOL0     H36845   8.785   0.381   9.209 -0.9024 -1.2341  0.4214
 1014MOL0     H36846   8.984   0.509   9.178 -2.1562 -2.0232 -1.4674
 1014MOL0     H36847   9.022   0.337   9.169 -3.5552  0.0530 -1.7636
 1014MOL0     H36848   9.121   0.385   9.408  4.1198  0.5562 -2.2048
 1014MOL0     H36849   9.043   0.551   9.407  1.9145  2.5356 -1.8955
 1014MOL0     H36850   9.236   0.538   9.558  0.2489 -1.8870  0.2674
 1014MOL0     H36851   9.431   0.490   9.751  1.2057 -0.9136  0.4651
 1014MOL0     H36852   9.497   0.645   9.759  1.7542 -3.6746 -1.3165
 1014MOL0     H36853   9.320   0.629   9.746 -2.0142 -1.4209 -4.6701
 1014MOL0     H36854   9.951   0.524   9.618  0.9721 -2.3830  0.4685
 1014MOL0     H36855  10.193   0.549   9.608  1.2331  1.0202 -0.6351
 1014MOL0     H36856  10.361   0.800   9.607 -0.3778  1.0260 -1.8607
 1014MOL0     H36857  10.379   0.627   9.616 -0.4111  0.5442  0.7607
 1014MOL0     H36858  10.591   0.641   9.489  1.1759 -0.0375  0.6214
 1014MOL0     H36859  10.569   0.810   9.460  0.1274 -0.3021  0.0955
 1014MOL0     H36860  10.642   0.646   9.704  2.1492  0.2409  1.1642
 1014MOL0     H36861  10.555   0.798   9.736 -0.6587 -1.5643  0.5413
 1014MOL0     H36862  10.833   0.782   9.585  1.5164  1.5874  0.8880
 1014MOL0     H36863  10.728   0.914   9.590 -1.5551 -1.0950 -0.8654
 1014MOL0     H36864  10.877   0.797   9.827  2.1569  0.0643 -0.5348
 1014MOL0     H36865  10.735   0.899   9.854 -0.1448 -1.6506  0.0276
 1014MOL0     H36866  10.835   1.081   9.741 -2.8215 -1.7727  0.1235
 1014MOL0     H36867  10.944   1.019   9.873 -0.7188  0.4284 -0.6346
 1014MOL0     H36868  11.068   1.084   9.659  1.6428 -0.4809 -2.3748
 1014MOL0     H36869  10.978   0.967   9.568  3.2492 -1.8726 -2.3716
 1014MOL0     H36870  11.149   0.879   9.809 -0.3579 -1.7932 -0.1805
 1014MOL0     H36871  11.216   0.899   9.653 -0.1199 -0.2138  1.7843
 1014MOL0     H36872  10.156   0.816   9.267  0.4010 -0.2976  0.1865
 1014MOL0     H36873   9.926   0.809   9.275  1.6713 -0.2279 -1.9063
 1014MOL0     H36874   9.597   0.721   9.282 -0.5043  1.7892  1.5726
 1014MOL0     H36875   9.398   0.636   9.169  0.9214 -1.5429 -0.3646
 1014MOL0     H36876  10.135   0.292   9.211  3.0670 -0.8284 -1.7034
 1014MOL0     H36877  10.382   0.302   9.217  0.2823 -2.2628 -0.1752
 1014MOL0     H36878  10.744   0.279   9.283 -0.1782  1.1302 -0.3577
 1014MOL0     H36879  10.973   0.368   9.278 -1.0404  1.5013  0.9916
 1014MOL0     H36880  11.163   0.440   9.597 -0.9705  2.8899 -2.4473
 1014MOL0     H36881  11.278   0.308   9.592  2.0355  1.1578 -0.0067
 1014MOL0     H36882  11.293   0.548   9.430 -2.2519 -1.8739 -0.5150
 1014MOL0     H36883  11.418   0.429   9.420  2.6246  1.9455  0.8457
 1014MOL0     H36884  11.362   0.612   9.655  0.9304 -0.5212  2.6292
 1014MOL0     H36885  11.502   0.618   9.537  1.4653 -0.0506  3.2024
 1014MOL0     H36886  11.595   0.419   9.607 -0.8753 -1.8571  0.9131
 1014MOL0     H36887  11.469   0.387   9.729  0.2769 -2.3888 -3.2520
 1014MOL0     H36888  11.618   0.732   9.919  0.1939  1.0286  0.1889
 1014MOL0     H36889  11.062   0.152   9.641  1.4683  0.1305  0.3622
 1014MOL0     H36890  10.828   0.114   9.678 -0.5208 -0.1311 -1.4470
 1015MOL0     O36891   2.862   9.472   8.614 -0.4697 -0.1001  0.0001
 1015MOL0     C36892   2.871   9.589   8.651  0.1619  0.3626  0.1416
 1015MOL0     O36893   2.769   9.669   8.673  0.2496 -0.3336 -0.2362
 1015MOL0     C36894   2.644   9.609   8.699  0.0691 -0.1833 -0.6304
 1015MOL0     C36895   2.543   9.608   8.592 -0.6427  0.0655 -1.0228
 1015MOL0     C36896   2.418   9.553   8.616 -0.1157  0.4358 -0.3002
 1015MOL0     C36897   2.382   9.491   8.736 -0.9872 -0.3316 -0.4391
 1015MOL0     O36898   2.258   9.445   8.756  0.9510 -0.9087  0.5986
 1015MOL0     C36899   2.196   9.497   8.876 -0.0440 -0.5167  0.3873
 1015MOL0     C36900   2.041   9.480   8.857  0.2422 -0.1462  0.3017
 1015MOL0     C36901   1.954   9.500   8.978  0.1449 -0.7169  0.4359
 1015MOL0     C36902   1.809   9.508   8.919 -0.7498 -0.0094  0.8082
 1015MOL0     C36903   1.690   9.541   9.019 -0.2088 -0.1094 -0.0825
 1015MOL0     C36904   1.697   9.677   9.095 -0.4720 -0.6478  0.0593
 1015MOL0     C36905   1.565   9.709   9.166  0.4428 -0.4933  1.0800
 1015MOL0     C36906   1.580   9.820   9.278  0.6864  1.0208  0.0124
 1015MOL0     N36907   1.624   9.949   9.238 -0.1324  0.0275  0.3078
 1015MOL0     C36908   1.558  10.021   9.144  0.2561 -0.2365  0.3040
 1015MOL0     C36909   1.628  10.146   9.128  0.7483  0.7834  0.1529
 1015MOL0     C36910   1.599  10.257   9.030 -0.2254 -0.2251 -0.1644
 1015MOL0     C36911   1.710  10.348   9.008 -0.5546 -0.6533 -0.4260
 1015MOL0     C36912   1.704  10.416   8.867 -0.8436 -0.4461  0.5762
 1015MOL0     C36913   1.583  10.505   8.843 -0.2205  0.5376  0.8807
 1015MOL0     O36914   1.458  10.433   8.853  0.8762 -0.2646  0.0374
 1015MOL0     C36915   1.361  10.510   8.801 -0.4522 -0.2399 -0.0721
 1015MOL0     C36916   1.263  10.552   8.892  0.1993  0.1809  0.3575
 1015MOL0     C36917   1.150  10.623   8.841  0.2908 -0.1539  0.0135
 1015MOL0     C36918   1.047  10.667   8.942  0.9832 -1.2806 -0.3626
 1015MOL0     C36919   1.136  10.661   8.707 -0.0819 -0.7397 -0.8331
 1015MOL0     C36920   1.035  10.769   8.663  0.9493  0.3582  0.4051
 1015MOL0     O36921   0.992  10.759   8.533  0.9967  0.0909  0.3700
 1015MOL0     C36922   0.911  10.861   8.482 -0.4743 -0.3779  0.5452
 1015MOL0     C36923   0.934  10.999   8.489  0.7160  0.9042 -0.8488
 1015MOL0     C36924   0.849  11.090   8.424  0.1695 -0.4942 -0.8358
 1015MOL0     C36925   0.732  11.042   8.359 -0.5526 -0.1400 -0.9705
 1015MOL0     O36926   0.653  11.132   8.295  0.6149  0.2370  0.5866
 1015MOL0     C36927   0.641  11.109   8.158  0.2595  0.4975  0.9471
 1015MOL0     C36928   0.773  11.138   8.081 -0.0372 -0.2550  0.1123
 1015MOL0     C36929   0.765  11.160   7.932 -0.3582 -0.0218  0.9540
 1015MOL0     C36930   0.779  11.034   7.859  0.4396  0.5462  0.2739
 1015MOL0     C36931   0.795  11.044   7.701  0.3844  0.0952 -0.2033
 1015MOL0     C36932   0.813  10.915   7.628 -0.6550  0.4539 -0.1713
 1015MOL0     C36933   0.952  10.843   7.655  0.5535  0.8359  0.6239
 1015MOL0     C36934   1.069  10.901   7.572 -0.0945 -0.3003 -0.1071
 1015MOL0    Cl36935   1.208  10.801   7.617  0.4881 -0.2673  0.5899
 1015MOL0     C36936   0.710  10.902   8.346  0.3188 -0.1555 -0.0336
 1015MOL0     C36937   0.806  10.812   8.402  0.2974  0.0864  0.7242
 1015MOL0     O36938   1.005  10.856   8.739  0.3666  0.3512  0.6760
 1015MOL0     C36939   1.225  10.600   8.617 -0.4152 -0.3893  0.5286
 1015MOL0     C36940   1.337  10.533   8.665  0.6686  0.3215  0.1834
 1015MOL0     N36941   1.734  10.129   9.212 -0.6837 -0.8746 -0.5222
 1015MOL0     N36942   1.740  10.017   9.265 -0.7284  0.4520 -0.9311
 1015MOL0     C36943   2.487   9.493   8.840 -1.0223  0.6176 -1.1846
 1015MOL0     C36944   2.611   9.551   8.825 -0.4479 -0.4557  0.1043
 1015MOL0     C36945   3.010   9.626   8.689  0.4792 -0.5961  0.0427
 1015MOL0     C36946   3.029   9.749   8.759  0.6191 -0.4256 -0.2424
 1015MOL0     C36947   3.159   9.785   8.800 -1.0579 -0.2001  0.2187
 1015MOL0     C36948   3.268   9.709   8.753  0.0071 -0.6383  0.0494
 1015MOL0     O36949   3.393   9.750   8.789 -0.6543  0.5883  0.5704
 1015MOL0     C36950   3.430   9.890   8.798 -0.4432 -0.6394  0.5168
 1015MOL0     C36951   3.588   9.892   8.779  1.2782 -0.1432 -0.1823
 1015MOL0     C36952   3.642   9.846   8.642 -1.3742 -0.1375 -0.0174
 1015MOL0     C36953   3.788   9.888   8.613 -0.0009  0.4374 -0.3877
 1015MOL0     C36954   3.845   9.839   8.482 -0.1084 -0.6443 -0.7360
 1015MOL0     C36955   3.890   9.807   8.372 -0.1809 -0.6083 -0.2385
 1015MOL0     C36956   3.250   9.586   8.688 -0.3549 -0.3966  0.4781
 1015MOL0     C36957   3.119   9.541   8.660 -0.6977 -0.2669  0.0943
 1015MOL0     H36958   2.560   9.662   8.500 -2.6930 -0.2643 -1.6473
 1015MOL0     H36959   2.339   9.565   8.544  0.9478  1.4683 -1.3383
 1015MOL0     H36960   2.219   9.443   8.968  0.3266 -1.1304 -0.0572
 1015MOL0     H36961   2.229   9.600   8.886  1.7741 -0.9410 -0.7974
 1015MOL0     H36962   2.011   9.547   8.775  0.7883 -0.6143 -0.2997
 1015MOL0     H36963   2.024   9.386   8.803  3.9383  0.4415 -2.2523
 1015MOL0     H36964   1.971   9.419   9.049  2.6471 -1.6310 -1.0724
 1015MOL0     H36965   1.980   9.603   9.006 -3.1151  0.2964  0.1708
 1015MOL0     H36966   1.801   9.592   8.849 -0.5276  0.7509  1.6694
 1015MOL0     H36967   1.790   9.413   8.868  2.5414 -0.5825  0.4266
 1015MOL0     H36968   1.596   9.535   8.963 -0.0203  1.4544 -0.6112
 1015MOL0     H36969   1.677   9.461   9.092  3.1684 -0.4629  0.2794
 1015MOL0     H36970   1.776   9.661   9.168 -1.9354 -0.8568  1.6774
 1015MOL0     H36971   1.727   9.759   9.029 -0.5443 -0.1402  0.6364
 1015MOL0     H36972   1.490   9.725   9.088  2.0142 -1.0115 -0.6012
 1015MOL0     H36973   1.535   9.624   9.229  0.7578  0.3406  2.3805
 1015MOL0     H36974   1.658   9.793   9.349 -1.5005 -0.4726  2.0040
 1015MOL0     H36975   1.477   9.829   9.316  0.4741  3.2644 -0.9353
 1015MOL0     H36976   1.468  10.001   9.087  0.1134 -0.8469  0.7298
 1015MOL0     H36977   1.569  10.211   8.935 -0.0446 -1.3565  0.2996
 1015MOL0     H36978   1.526  10.328   9.070  0.5914  1.4544 -1.5181
 1015MOL0     H36979   1.803  10.293   9.027 -0.2731 -0.3233 -0.8136
 1015MOL0     H36980   1.716  10.423   9.088 -1.2365 -1.0234 -0.0158
 1015MOL0     H36981   1.710  10.343   8.786  0.9554  1.6492 -1.3222
 1015MOL0     H36982   1.803  10.462   8.854  0.9165 -3.7819  0.9875
 1015MOL0     H36983   1.598  10.530   8.737  1.7538  0.6683  1.1634
 1015MOL0     H36984   1.589  10.591   8.911 -0.2373  0.3442  1.1272
 1015MOL0     H36985   1.280  10.544   8.999  1.5360 -1.9165  0.0515
 1015MOL0     H36986   1.056  10.599   9.028 -2.1448  0.2469  1.3664
 1015MOL0     H36987   1.061  10.770   8.977 -1.8181 -1.1528  0.7049
 1015MOL0     H36988   0.947  10.664   8.897  1.5283  0.5639 -1.8124
 1015MOL0     H36989   1.021  11.034   8.545  1.9945  0.5258 -2.4997
 1015MOL0     H36990   0.865  11.197   8.438 -1.4290 -0.4762  1.4735
 1015MOL0     H36991   0.617  11.008   8.124  1.5624  0.7640 -0.9171
 1015MOL0     H36992   0.575  11.187   8.119 -0.1080  0.6683  1.8853
 1015MOL0     H36993   0.828  11.218   8.132  1.9459 -1.1351 -0.5285
 1015MOL0     H36994   0.833  11.050   8.105 -1.4901 -1.2706  0.1262
 1015MOL0     H36995   0.855  11.217   7.907  0.1041 -1.7239 -1.6589
 1015MOL0     H36996   0.672  11.206   7.897  0.4268  1.6474  0.9928
 1015MOL0     H36997   0.869  10.984   7.897  1.5479  0.9103 -1.7600
 1015MOL0     H36998   0.698  10.963   7.878  2.1302 -1.5913  0.0065
 1015MOL0     H36999   0.877  11.110   7.671  0.4582  0.6638  1.1719
 1015MOL0     H37000   0.706  11.093   7.660 -0.5227 -1.2336  0.1408
 1015MOL0     H37001   0.734  10.845   7.656  1.3511 -1.7984  0.2837
 1015MOL0     H37002   0.804  10.922   7.520  0.2957 -1.4261 -0.4278
 1015MOL0     H37003   0.944  10.739   7.621 -1.9587  1.3330 -0.5370
 1015MOL0     H37004   0.964  10.841   7.764 -0.7944  3.1926  0.8864
 1015MOL0     H37005   1.086  11.003   7.608  1.6794 -0.9592  1.0422
 1015MOL0     H37006   1.055  10.907   7.464  2.4377 -3.1535 -0.7337
 1015MOL0     H37007   0.627  10.866   8.287  0.1806  2.3019 -1.4514
 1015MOL0     H37008   0.788  10.706   8.391 -2.0174  0.3585  1.3216
 1015MOL0     H37009   1.212  10.618   8.511  2.3999 -1.3513 -0.0486
 1015MOL0     H37010   1.417  10.493   8.603 -1.0165 -4.2134  0.5685
 1015MOL0     H37011   2.444   9.455   8.932  1.5079  2.4156  0.8544
 1015MOL0     H37012   2.686   9.530   8.901 -0.7286 -3.3969 -0.2810
 1015MOL0     H37013   2.952   9.825   8.767  0.6684 -0.2030 -1.7300
 1015MOL0     H37014   3.190   9.876   8.850 -0.8052  0.2298 -0.6920
 1015MOL0     H37015   3.388   9.952   8.718 -0.7629 -2.0527 -0.4427
 1015MOL0     H37016   3.395   9.929   8.894 -0.2553 -0.3065  0.4527
 1015MOL0     H37017   3.635   9.830   8.857  1.8936 -0.9745 -1.1845
 1015MOL0     H37018   3.618   9.995   8.802 -1.9986  0.7790  0.3629
 1015MOL0     H37019   3.576   9.887   8.564 -0.1345  1.0044 -0.5025
 1015MOL0     H37020   3.639   9.737   8.647 -1.5726 -0.0827  1.6650
 1015MOL0     H37021   3.853   9.836   8.684 -0.2814  0.3173 -0.2154
 1015MOL0     H37022   3.798   9.996   8.625 -0.9096  0.3647  1.3672
 1015MOL0     H37023   3.937   9.795   8.276 -0.1784  1.9384 -0.6324
 1015MOL0     H37024   3.329   9.514   8.672 -0.1525 -0.1076  0.1773
 1015MOL0     H37025   3.095   9.448   8.610 -1.5579 -0.6571  1.1932
 1016MOL0     O37026  10.694  10.536   6.224 -0.1721 -0.0276 -0.1410
 1016MOL0     C37027  10.714  10.655   6.203 -0.4971 -0.4860 -0.1282
 1016MOL0     O37028  10.644  10.738   6.121 -0.0018 -0.2690 -0.4683
 1016MOL0     C37029  10.539  10.680   6.059  0.6924 -0.4552  0.3119
 1016MOL0     C37030  10.558  10.593   5.952 -0.4431 -0.1959 -0.0811
 1016MOL0     C37031  10.449  10.533   5.887 -0.1305  0.4425 -0.4429
 1016MOL0     C37032  10.318  10.564   5.928 -0.6373  0.3420  0.4564
 1016MOL0     O37033  10.216  10.503   5.869  0.7472 -0.6874  0.3698
 1016MOL0     C37034  10.204  10.366   5.912 -0.2823 -0.2806 -1.1531
 1016MOL0     C37035  10.048  10.341   5.925 -0.1557  0.1614  0.0911
 1016MOL0     C37036   9.977  10.371   5.787  0.2020 -0.2783  0.2503
 1016MOL0     C37037   9.828  10.409   5.794 -0.4230  0.6669  0.0336
 1016MOL0     C37038   9.770  10.432   5.658 -0.3115  0.3967  0.2126
 1016MOL0     C37039   9.783  10.317   5.554  0.1407  0.2743  0.8830
 1016MOL0     C37040   9.686  10.334   5.437  0.1436  0.1532 -0.1634
 1016MOL0     C37041   9.714  10.215   5.341 -0.5053 -0.8983 -0.0038
 1016MOL0     N37042   9.596  10.189   5.256  0.9060  1.5757  0.2317
 1016MOL0     C37043   9.607  10.160   5.119  0.5495 -0.1691 -0.0139
 1016MOL0     C37044   9.482  10.100   5.085 -0.3341  0.2038  1.0318
 1016MOL0     C37045   9.436  10.035   4.958 -0.5184 -0.2945 -0.4168
 1016MOL0     C37046   9.290  10.001   4.953 -0.2587 -0.4897 -0.1174
 1016MOL0     C37047   9.219  10.134   4.914 -0.4402  0.5480  0.1136
 1016MOL0     C37048   9.070  10.115   4.904  0.0380 -0.8639 -0.0885
 1016MOL0     O37049   9.025  10.182   4.786 -0.0059 -0.0901  0.1182
 1016MOL0     C37050   8.885  10.203   4.765  0.3970  0.1597  1.1324
 1016MOL0     C37051   8.850  10.267   4.642 -0.3250 -0.6807 -0.8175
 1016MOL0     C37052   8.716  10.307   4.626 -0.1983  0.7236  1.0024
 1016MOL0     C37053   8.704  10.388   4.500  0.5322  0.4013 -1.3709
 1016MOL0     C37054   8.619  10.278   4.723  1.1381 -0.3419 -0.1318
 1016MOL0     C37055   8.472  10.297   4.694 -0.1923 -0.2305  0.1940
 1016MOL0     O37056   8.399  10.326   4.802  0.0979  0.0392 -0.2341
 1016MOL0     C37057   8.259  10.318   4.799 -0.2886 -0.0161 -0.0994
 1016MOL0     C37058   8.194  10.196   4.825 -0.2270  0.3899  0.1079
 1016MOL0     C37059   8.052  10.187   4.838 -0.3537 -0.1289 -0.7797
 1016MOL0     C37060   7.974  10.301   4.822 -1.2632 -0.0229 -0.7486
 1016MOL0     O37061   7.842  10.269   4.830 -0.3896  0.6016  0.2517
 1016MOL0     C37062   7.745  10.378   4.807 -0.5608  0.2432 -0.3617
 1016MOL0     C37063   7.611  10.319   4.761 -0.5499 -0.5300  0.1568
 1016MOL0     C37064   7.620  10.286   4.614  0.8822 -0.5547  0.4291
 1016MOL0     C37065   7.483  10.257   4.552  1.6024  0.4710 -0.8158
 1016MOL0     C37066   7.403  10.377   4.502  0.3065 -1.0627  0.4972
 1016MOL0     C37067   7.265  10.332   4.443 -0.3271 -0.0836 -0.7871
 1016MOL0     C37068   7.205  10.443   4.356  0.0533 -0.4370 -0.1703
 1016MOL0     C37069   7.053  10.425   4.329  1.4467  0.6489  0.2565
 1016MOL0    Cl37070   7.006  10.290   4.214 -0.0406 -0.0937 -0.1140
 1016MOL0     C37071   8.034  10.428   4.800 -0.4938  0.2068 -0.2338
 1016MOL0     C37072   8.181  10.433   4.793 -0.0156  0.1211 -0.0277
 1016MOL0     O37073   8.429  10.290   4.583  0.2465  0.4759  0.1412
 1016MOL0     C37074   8.656  10.207   4.838 -0.2891  0.8111 -0.0753
 1016MOL0     C37075   8.790  10.174   4.863  0.6942 -0.0003  0.0687
 1016MOL0     N37076   9.404  10.112   5.196 -0.3845 -0.7228 -0.0644
 1016MOL0     N37077   9.473  10.153   5.295 -0.7986  0.3545 -0.3171
 1016MOL0     C37078  10.298  10.658   6.027 -0.3667  0.0875 -0.8966
 1016MOL0     C37079  10.412  10.717   6.090  0.1129  0.4855 -0.2425
 1016MOL0     C37080  10.843  10.711   6.257  0.0757 -0.5418  0.4332
 1016MOL0     C37081  10.877  10.850   6.229 -0.0756  0.3704 -0.0193
 1016MOL0     C37082  10.978  10.915   6.303 -0.2827  0.9291  0.2474
 1016MOL0     C37083  11.067  10.850   6.386 -0.5225  0.9507 -0.0889
 1016MOL0     O37084  11.179  10.908   6.443  0.3211 -0.4424  0.0437
 1016MOL0     C37085  11.187  11.052   6.431  0.8939 -0.1817 -0.3697
 1016MOL0     C37086  11.305  11.104   6.517  0.1986  0.0179  0.3307
 1016MOL0     C37087  11.305  11.252   6.520 -0.8246 -0.3018  0.2671
 1016MOL0     C37088  11.417  11.315   6.598 -0.5396  0.4769  0.7948
 1016MOL0     C37089  11.408  11.463   6.577  0.1893 -1.1263  0.4295
 1016MOL0     C37090  11.408  11.583   6.562  0.0374  0.0448 -0.9993
 1016MOL0     C37091  11.038  10.717   6.414 -0.0082 -0.5888  0.0999
 1016MOL0     C37092  10.931  10.659   6.351 -0.0811  1.2716  0.7883
 1016MOL0     H37093  10.661  10.565   5.932 -0.5689 -0.5998 -0.1885
 1016MOL0     H37094  10.464  10.473   5.797  1.4290  3.1693 -2.1418
 1016MOL0     H37095  10.255  10.308   5.835  0.2780 -1.2135 -0.1067
 1016MOL0     H37096  10.260  10.354   6.005 -1.9290 -0.1410 -0.0873
 1016MOL0     H37097  10.032  10.236   5.953 -0.2737  0.0847 -0.2635
 1016MOL0     H37098  10.000  10.405   6.000 -1.1471  0.5677 -0.8699
 1016MOL0     H37099  10.024  10.455   5.735  2.0170 -0.6510  1.1945
 1016MOL0     H37100   9.990  10.291   5.712  0.5868  1.5084 -1.6890
 1016MOL0     H37101   9.770  10.330   5.842  2.6001 -2.2354 -0.6991
 1016MOL0     H37102   9.805  10.501   5.849 -5.5260  0.1156 -0.6701
 1016MOL0     H37103   9.664  10.459   5.666 -0.0481  1.1706  1.1939
 1016MOL0     H37104   9.823  10.514   5.607 -1.5591 -1.0010 -3.7266
 1016MOL0     H37105   9.889  10.324   5.527 -0.3454  0.0038 -1.3762
 1016MOL0     H37106   9.762  10.220   5.600  0.2840  0.3519  1.1076
 1016MOL0     H37107   9.592  10.317   5.489  1.1514  1.3217  2.1735
 1016MOL0     H37108   9.693  10.433   5.391  0.2182  1.3641  2.2898
 1016MOL0     H37109   9.736  10.116   5.382 -1.9751 -1.8697 -1.4124
 1016MOL0     H37110   9.806  10.242   5.288 -0.5450  1.7831  1.1380
 1016MOL0     H37111   9.696  10.177   5.059 -0.5724  1.2983 -1.3862
 1016MOL0     H37112   9.466  10.098   4.873  0.3911  0.6543  0.5742
 1016MOL0     H37113   9.499   9.946   4.949 -0.9940 -0.5174 -1.7973
 1016MOL0     H37114   9.250   9.968   5.050  0.9714  1.0996  0.9951
 1016MOL0     H37115   9.275   9.927   4.874 -0.0947  0.1032 -0.7077
 1016MOL0     H37116   9.273  10.169   4.825  2.3947 -0.6857  1.2269
 1016MOL0     H37117   9.231  10.212   4.989  3.3177 -1.1589  1.5523
 1016MOL0     H37118   9.028  10.162   4.993 -0.3799 -0.0933 -0.6796
 1016MOL0     H37119   9.052  10.009   4.884 -2.9822 -0.2969 -0.8408
 1016MOL0     H37120   8.937  10.291   4.582  0.2342  0.4805  0.3878
 1016MOL0     H37121   8.714  10.491   4.535 -1.4952  0.0773  0.3992
 1016MOL0     H37122   8.772  10.356   4.420  1.0055 -1.7670 -0.1832
 1016MOL0     H37123   8.600  10.384   4.464 -0.6592  2.7539  1.4473
 1016MOL0     H37124   8.252  10.105   4.838  3.1407  2.2913 -0.2142
 1016MOL0     H37125   8.001  10.092   4.856 -0.3556  0.3848  2.5851
 1016MOL0     H37126   7.730  10.449   4.889 -2.1471  0.0038 -0.4083
 1016MOL0     H37127   7.788  10.435   4.724 -1.5708  1.0137 -0.3822
 1016MOL0     H37128   7.581  10.230   4.818 -4.1763 -0.8241 -1.9015
 1016MOL0     H37129   7.528  10.391   4.762  0.7803  1.2397 -2.9120
 1016MOL0     H37130   7.682  10.197   4.604  1.0231 -0.2175 -3.1834
 1016MOL0     H37131   7.660  10.370   4.555  0.6657 -1.6190 -1.3057
 1016MOL0     H37132   7.496  10.193   4.464 -2.7690 -1.6768 -0.1597
 1016MOL0     H37133   7.421  10.203   4.624  1.1019  0.2758 -1.3850
 1016MOL0     H37134   7.454  10.444   4.432 -0.3907 -1.0152  0.0227
 1016MOL0     H37135   7.379  10.442   4.586  3.9654 -1.5284  2.0702
 1016MOL0     H37136   7.290  10.244   4.383  4.3614 -0.6258  1.5117
 1016MOL0     H37137   7.200  10.306   4.527  0.1991  1.5991  0.1759
 1016MOL0     H37138   7.253  10.454   4.258  1.9796 -1.2668  0.6458
 1016MOL0     H37139   7.229  10.540   4.400  0.1343 -0.2248 -0.6737
 1016MOL0     H37140   7.019  10.516   4.277  0.9875 -0.3712 -1.2994
 1016MOL0     H37141   6.995  10.414   4.421 -3.6197  2.8714 -2.2713
 1016MOL0     H37142   7.965  10.512   4.792 -2.2141 -0.8076  2.5399
 1016MOL0     H37143   8.239  10.524   4.779 -0.5201  0.1205 -2.7350
 1016MOL0     H37144   8.586  10.174   4.914 -0.8356 -0.8044 -1.2098
 1016MOL0     H37145   8.797  10.128   4.962 -0.6561  3.0585  1.7160
 1016MOL0     H37146  10.197  10.687   6.055 -0.3684 -0.9236  0.2356
 1016MOL0     H37147  10.409  10.793   6.167  1.8943 -0.5719  0.9441
 1016MOL0     H37148  10.831  10.914   6.154 -1.9761 -2.8000 -1.7530
 1016MOL0     H37149  10.995  11.019   6.277  2.6638  0.4313 -0.1644
 1016MOL0     H37150  11.199  11.084   6.328  3.4821 -2.5171 -0.9391
 1016MOL0     H37151  11.095  11.099   6.467  0.1312  0.0539 -2.4904
 1016MOL0     H37152  11.406  11.081   6.482 -0.0836 -0.4301 -0.2050
 1016MOL0     H37153  11.293  11.068   6.620  1.9121  1.4377  1.0734
 1016MOL0     H37154  11.208  11.288   6.555 -1.8781 -0.2728 -2.4096
 1016MOL0     H37155  11.310  11.292   6.418  1.7791  0.6176  0.6845
 1016MOL0     H37156  11.508  11.276   6.552 -2.2978 -0.1049 -2.4735
 1016MOL0     H37157  11.419  11.301   6.707  0.3446 -2.0356  0.5209
 1016MOL0     H37158  11.397  11.690   6.559 -1.5846 -0.0388  0.4263
 1016MOL0     H37159  11.091  10.659   6.489  0.9681 -1.4310 -1.1951
 1016MOL0     H37160  10.910  10.555   6.371 -0.1743  1.8442  4.3085
 1017MOL0     O37161   6.302   7.206   8.082  0.4507  0.2074  0.4563
 1017MOL0     C37162   6.398   7.284   8.104 -0.2317 -0.2966  0.9262
 1017MOL0     O37163   6.393   7.390   8.179 -0.0289 -0.0911 -1.1495
 1017MOL0     C37164   6.282   7.407   8.269  0.4087  0.4981  0.3924
 1017MOL0     C37165   6.307   7.377   8.404  0.4885 -0.0914 -0.6321
 1017MOL0     C37166   6.203   7.424   8.494 -0.8401 -0.6870  0.3493
 1017MOL0     C37167   6.080   7.484   8.454 -0.1311 -0.9211  0.4743
 1017MOL0     O37168   5.976   7.508   8.528 -0.0604 -0.3959  0.9178
 1017MOL0     C37169   5.994   7.453   8.657  0.4436  0.0814 -0.9903
 1017MOL0     C37170   5.881   7.506   8.744  0.7543  0.5910 -0.2143
 1017MOL0     C37171   5.895   7.462   8.892  0.3592 -0.7756 -0.6360
 1017MOL0     C37172   5.777   7.499   8.980  0.4303  0.1937  0.9361
 1017MOL0     C37173   5.662   7.403   8.944 -0.5713  0.1122  0.8799
 1017MOL0     C37174   5.542   7.420   9.043  0.4893  0.3812  0.3208
 1017MOL0     C37175   5.437   7.309   9.025  0.6474  0.7521  1.2420
 1017MOL0     C37176   5.342   7.328   9.142  0.0288 -0.2571 -0.0660
 1017MOL0     N37177   5.265   7.207   9.164  0.0703 -0.1871  0.1987
 1017MOL0     C37178   5.148   7.178   9.097  0.0800 -0.9802  0.7044
 1017MOL0     C37179   5.139   7.045   9.111  0.6931  1.3878  0.5814
 1017MOL0     C37180   5.054   6.950   9.025  0.7606  0.2784 -0.0161
 1017MOL0     C37181   4.924   6.892   9.086 -0.0774  0.6668  1.0934
 1017MOL0     C37182   4.958   6.789   9.196 -0.0230 -0.8452  0.2821
 1017MOL0     C37183   4.831   6.714   9.251  0.8410 -1.1640 -0.4741
 1017MOL0     O37184   4.755   6.819   9.313  0.1071 -0.9350  0.0466
 1017MOL0     C37185   4.625   6.841   9.268  0.0287 -0.7142  0.1606
 1017MOL0     C37186   4.534   6.898   9.361 -0.3965  0.0488  0.7860
 1017MOL0     C37187   4.401   6.922   9.324  0.7412  0.2040 -0.3077
 1017MOL0     C37188   4.307   6.981   9.420  0.0407 -0.9603  0.5150
 1017MOL0     C37189   4.367   6.887   9.186  0.1519 -0.0265 -0.1445
 1017MOL0     C37190   4.224   6.877   9.142 -0.4360 -0.0757  0.2135
 1017MOL0     O37191   4.199   6.783   9.050  0.3902  0.4730 -0.6340
 1017MOL0     C37192   4.066   6.754   9.033 -0.0220  0.2440  0.3202
 1017MOL0     C37193   3.996   6.806   8.921 -0.1720 -0.3266 -0.0221
 1017MOL0     C37194   3.864   6.769   8.888  0.0077 -0.6855 -1.1858
 1017MOL0     C37195   3.797   6.679   8.967 -0.5744 -0.2154  0.5457
 1017MOL0     O37196   3.677   6.629   8.939  0.4657  0.3907  0.1272
 1017MOL0     C37197   3.566   6.702   8.974 -0.2439  1.2948  1.3020
 1017MOL0     C37198   3.444   6.648   8.902  0.3762  0.1278  0.2415
 1017MOL0     C37199   3.422   6.500   8.910  0.6738  1.0500  0.3951
 1017MOL0     C37200   3.274   6.454   8.859  0.2773 -0.1730  0.4475
 1017MOL0     C37201   3.262   6.302   8.836  0.7330  0.2410  0.0311
 1017MOL0     C37202   3.117   6.256   8.835  0.2529  0.5400  0.4799
 1017MOL0     C37203   3.109   6.108   8.792 -0.2940  0.1079  0.0638
 1017MOL0     C37204   2.984   6.072   8.714  0.0634  0.1325  0.2110
 1017MOL0    Cl37205   2.863   6.056   8.836  0.3004  0.1255  0.1091
 1017MOL0     C37206   3.869   6.621   9.077  0.4102  0.6103 -1.1379
 1017MOL0     C37207   3.993   6.663   9.115  0.1183 -0.5897  0.0553
 1017MOL0     O37208   4.139   6.955   9.183 -0.2283 -0.1097  0.8903
 1017MOL0     C37209   4.458   6.844   9.095  0.2405  0.4705  0.3821
 1017MOL0     C37210   4.589   6.809   9.135  0.0174  0.3951 -0.4807
 1017MOL0     N37211   5.226   7.009   9.207  0.3098 -0.4286 -0.1673
 1017MOL0     N37212   5.305   7.107   9.239  0.6312 -0.6595 -0.4569
 1017MOL0     C37213   6.067   7.518   8.317 -0.5132  0.5948  0.4146
 1017MOL0     C37214   6.168   7.480   8.224 -0.0286  0.2337 -0.1677
 1017MOL0     C37215   6.528   7.259   8.041  0.4808  0.1730  0.3486
 1017MOL0     C37216   6.546   7.147   7.950 -0.0518  0.1010 -0.8042
 1017MOL0     C37217   6.675   7.110   7.910  0.1803 -0.2429 -0.1272
 1017MOL0     C37218   6.790   7.173   7.964 -0.1350  0.0075 -1.7243
 1017MOL0     O37219   6.912   7.137   7.917 -0.0680  0.5356 -0.3628
 1017MOL0     C37220   7.031   7.194   7.969 -0.1111  0.0172  0.6477
 1017MOL0     C37221   7.078   7.324   7.901  0.7708 -0.9982 -0.2188
 1017MOL0     C37222   7.148   7.317   7.766  0.6472 -0.3647  0.6310
 1017MOL0     C37223   7.271   7.221   7.755 -0.5880 -0.0912 -0.2696
 1017MOL0     C37224   7.373   7.255   7.852  0.6732 -0.0016 -1.2463
 1017MOL0     C37225   7.440   7.292   7.945 -0.2477  0.1838 -0.1497
 1017MOL0     C37226   6.778   7.280   8.057 -0.0553 -0.2049  0.2394
 1017MOL0     C37227   6.642   7.319   8.097 -0.3149  0.1734 -0.1215
 1017MOL0     H37228   6.404   7.335   8.430  0.1255 -0.2331  0.5603
 1017MOL0     H37229   6.233   7.396   8.594  3.0457 -0.0342 -0.4768
 1017MOL0     H37230   6.006   7.345   8.662  3.6978  0.2733 -2.2872
 1017MOL0     H37231   6.081   7.505   8.698  2.7781 -1.1132 -4.0551
 1017MOL0     H37232   5.858   7.613   8.742 -1.4013  0.1696 -2.7301
 1017MOL0     H37233   5.790   7.454   8.714 -0.8914  2.1995  1.7397
 1017MOL0     H37234   5.920   7.356   8.903 -2.4342 -1.5896 -1.4482
 1017MOL0     H37235   5.979   7.513   8.940  1.5721 -4.1885  1.2990
 1017MOL0     H37236   5.804   7.475   9.083  4.2048  0.4955  0.1502
 1017MOL0     H37237   5.751   7.605   8.971  1.6522  0.4467  0.0535
 1017MOL0     H37238   5.631   7.430   8.843  3.1389 -0.1993 -0.4694
 1017MOL0     H37239   5.714   7.307   8.947 -2.4586 -0.9518  2.6592
 1017MOL0     H37240   5.597   7.411   9.138  2.9456  0.2704 -1.0123
 1017MOL0     H37241   5.508   7.524   9.043 -2.5592 -0.5226  0.8168
 1017MOL0     H37242   5.380   7.313   8.932  1.5294 -1.4121  0.5484
 1017MOL0     H37243   5.485   7.211   9.026 -3.1318 -1.2677  1.2087
 1017MOL0     H37244   5.273   7.407   9.111  1.0303 -0.1218 -2.1536
 1017MOL0     H37245   5.392   7.367   9.232 -0.5410  0.2170  0.0528
 1017MOL0     H37246   5.101   7.250   9.030 -1.0071 -1.7961  0.5690
 1017MOL0     H37247   5.031   7.021   8.945 -2.9238  1.9752  2.2470
 1017MOL0     H37248   5.102   6.863   8.980  0.7239 -0.0834  0.6347
 1017MOL0     H37249   4.863   6.854   9.003  1.4931  0.6203 -0.0970
 1017MOL0     H37250   4.874   6.975   9.137  0.3073  0.9322  1.0378
 1017MOL0     H37251   5.006   6.844   9.277 -2.4262  1.9072  0.0141
 1017MOL0     H37252   5.019   6.707   9.156 -4.3704 -2.3274 -4.3771
 1017MOL0     H37253   4.863   6.641   9.326  1.2940 -0.4571  0.0313
 1017MOL0     H37254   4.785   6.671   9.162 -0.9550  2.6486 -1.5799
 1017MOL0     H37255   4.567   6.914   9.463  0.7139 -6.4114  1.8782
 1017MOL0     H37256   4.218   6.918   9.426 -0.9748  0.4681  0.6674
 1017MOL0     H37257   4.344   6.984   9.523 -1.9162 -0.0934  1.2308
 1017MOL0     H37258   4.271   7.076   9.382  0.0743 -0.4098  1.8100
 1017MOL0     H37259   4.050   6.879   8.861 -1.2537  1.1767  0.8004
 1017MOL0     H37260   3.803   6.819   8.812 -1.6037 -0.9668 -0.1396
 1017MOL0     H37261   3.551   6.699   9.083 -0.4502 -0.8607  1.2564
 1017MOL0     H37262   3.582   6.801   8.930  0.7593  0.7129  0.3331
 1017MOL0     H37263   3.358   6.705   8.938 -0.3355  1.6913 -3.4839
 1017MOL0     H37264   3.445   6.668   8.794 -0.2180 -0.2253  0.1646
 1017MOL0     H37265   3.432   6.475   9.016 -3.4571  0.0384  0.7308
 1017MOL0     H37266   3.493   6.443   8.851  0.6358  0.9645  0.4316
 1017MOL0     H37267   3.203   6.499   8.928 -0.8782  1.2185 -1.5339
 1017MOL0     H37268   3.277   6.504   8.761  2.3154 -1.2592 -0.1080
 1017MOL0     H37269   3.324   6.254   8.913  1.6258  2.3517  0.6892
 1017MOL0     H37270   3.299   6.279   8.735 -0.6164 -3.8407  0.2652
 1017MOL0     H37271   3.061   6.277   8.927 -2.3868  1.0252 -1.1213
 1017MOL0     H37272   3.061   6.306   8.755  0.1932 -2.4965 -1.5229
 1017MOL0     H37273   3.102   6.043   8.880 -3.9361  0.8157  0.4522
 1017MOL0     H37274   3.191   6.085   8.724  0.0897 -0.1882  0.6120
 1017MOL0     H37275   2.988   5.978   8.659 -5.8781 -0.6480  0.4603
 1017MOL0     H37276   2.960   6.157   8.651 -0.0367  0.8428  1.1858
 1017MOL0     H37277   3.832   6.543   9.142  3.1610  3.1469  4.0975
 1017MOL0     H37278   4.034   6.597   9.191 -1.1661 -3.0129 -1.2224
 1017MOL0     H37279   4.427   6.838   8.991 -0.4470  3.6623  0.2863
 1017MOL0     H37280   4.657   6.771   9.060 -0.2400  2.0422 -1.6081
 1017MOL0     H37281   5.987   7.578   8.276 -0.5855  1.3166  1.5626
 1017MOL0     H37282   6.152   7.504   8.120 -0.4255 -0.5409 -0.2911
 1017MOL0     H37283   6.468   7.078   7.917 -0.5634 -0.1177  0.7990
 1017MOL0     H37284   6.680   7.039   7.828 -1.5200  1.4318 -1.7996
 1017MOL0     H37285   7.030   7.202   8.078 -0.1564  1.2745  0.5630
 1017MOL0     H37286   7.110   7.118   7.963 -0.1275 -0.3189  3.4073
 1017MOL0     H37287   7.156   7.364   7.967  0.8377 -1.6889  0.1238
 1017MOL0     H37288   6.998   7.398   7.898  0.5278 -1.2695 -0.5008
 1017MOL0     H37289   7.185   7.416   7.735  3.5226 -1.8379 -1.0863
 1017MOL0     H37290   7.071   7.295   7.692 -0.0729  0.3866  1.1344
 1017MOL0     H37291   7.320   7.237   7.659  0.0582  2.7365  0.4372
 1017MOL0     H37292   7.238   7.118   7.773  1.0716 -0.9044 -1.6228
 1017MOL0     H37293   7.511   7.323   8.020  0.2509 -0.5816 -0.3003
 1017MOL0     H37294   6.865   7.334   8.091 -1.0209  0.5918  1.5739
 1017MOL0     H37295   6.640   7.417   8.145 -0.2302 -0.0985  0.4461
 1018MOL0     O37296   8.481   3.029   2.865 -0.1002  0.3213 -0.7325
 1018MOL0     C37297   8.381   3.105   2.854  1.0028  0.5172 -0.1489
 1018MOL0     O37298   8.267   3.083   2.920 -0.1617  1.1329 -0.1067
 1018MOL0     C37299   8.274   3.023   3.042 -0.2953  0.2855  0.1544
 1018MOL0     C37300   8.358   3.041   3.147  0.7753 -0.8198 -0.2150
 1018MOL0     C37301   8.340   2.967   3.260 -0.4820  0.5782  0.6159
 1018MOL0     C37302   8.231   2.876   3.268 -0.8710 -0.0890 -0.2824
 1018MOL0     O37303   8.218   2.785   3.371  0.3886 -0.4882 -0.4606
 1018MOL0     C37304   8.304   2.806   3.486  0.1143  0.3187  0.5081
 1018MOL0     C37305   8.255   2.725   3.605 -0.5814 -0.3824 -0.1372
 1018MOL0     C37306   8.291   2.794   3.737 -0.5045 -0.3190 -0.6972
 1018MOL0     C37307   8.263   2.693   3.849 -0.2824  1.9011 -0.4304
 1018MOL0     C37308   8.274   2.736   3.995  0.3014  0.1956 -0.1559
 1018MOL0     C37309   8.270   2.616   4.105 -0.1750 -0.2109  0.0929
 1018MOL0     C37310   8.406   2.568   4.157 -0.2418 -0.1147 -0.5350
 1018MOL0     C37311   8.480   2.665   4.242 -0.5549 -0.1079 -0.0586
 1018MOL0     N37312   8.424   2.695   4.372  0.6338 -0.0646 -0.6935
 1018MOL0     C37313   8.406   2.610   4.478  0.1420 -0.1786 -0.1866
 1018MOL0     C37314   8.338   2.673   4.575 -0.1972 -0.8188 -0.1287
 1018MOL0     C37315   8.292   2.612   4.705  0.0017  0.3305  0.0814
 1018MOL0     C37316   8.140   2.638   4.716  0.4396 -0.2577  0.0189
 1018MOL0     C37317   8.077   2.546   4.815 -0.1722  0.7411  0.1749
 1018MOL0     C37318   7.920   2.552   4.830 -0.0846 -0.2019 -0.1826
 1018MOL0     O37319   7.880   2.688   4.850  0.4002 -0.4174  0.6091
 1018MOL0     C37320   7.751   2.706   4.898 -1.0100  0.7748  0.5666
 1018MOL0     C37321   7.725   2.815   4.969  0.6498 -0.1036 -0.0661
 1018MOL0     C37322   7.592   2.855   4.998  0.5020  0.0742 -0.1416
 1018MOL0     C37323   7.583   2.973   5.090 -0.0857  0.0646  0.9826
 1018MOL0     C37324   7.489   2.762   4.977 -0.6748 -0.9094 -0.1911
 1018MOL0     C37325   7.349   2.786   5.014 -0.2899 -0.4723  0.2577
 1018MOL0     O37326   7.265   2.679   4.993 -0.4846 -0.1081 -0.6058
 1018MOL0     C37327   7.134   2.665   5.027 -0.3754  0.1125  0.5872
 1018MOL0     C37328   7.030   2.754   5.007  0.4283  0.1844  0.9134
 1018MOL0     C37329   6.906   2.728   5.071 -0.9110  0.0172  0.3180
 1018MOL0     C37330   6.885   2.614   5.147 -0.5758  0.6322  0.8973
 1018MOL0     O37331   6.767   2.591   5.201  0.2995 -0.1542 -0.2732
 1018MOL0     C37332   6.761   2.583   5.351 -0.0578  0.2553 -0.3720
 1018MOL0     C37333   6.796   2.707   5.433 -0.7010  0.3912  0.6041
 1018MOL0     C37334   6.710   2.817   5.386 -0.0080 -1.4086 -0.3711
 1018MOL0     C37335   6.570   2.793   5.427  0.7928  0.2077  0.4356
 1018MOL0     C37336   6.477   2.906   5.393 -0.5787  0.7167 -0.1912
 1018MOL0     C37337   6.334   2.868   5.442 -0.2438 -0.7357 -0.5530
 1018MOL0     C37338   6.219   2.956   5.397 -0.5122 -0.1870 -0.4692
 1018MOL0     C37339   6.092   2.879   5.434  0.0903  0.1296  0.3282
 1018MOL0    Cl37340   6.046   2.924   5.598  0.3127  0.4695 -0.0587
 1018MOL0     C37341   6.986   2.518   5.154 -0.0685 -0.5011 -0.4317
 1018MOL0     C37342   7.116   2.544   5.097 -0.1940 -0.4739  0.2324
 1018MOL0     O37343   7.316   2.902   5.049  0.3964 -0.0371  0.7258
 1018MOL0     C37344   7.523   2.642   4.911 -0.4889 -0.5692 -0.7903
 1018MOL0     C37345   7.646   2.616   4.869 -0.5423 -0.6719  0.3266
 1018MOL0     N37346   8.316   2.805   4.532  0.3333 -0.6784  0.5350
 1018MOL0     N37347   8.374   2.815   4.414  0.0658 -0.4740  0.1411
 1018MOL0     C37348   8.140   2.867   3.171  0.3286  0.4455  0.4969
 1018MOL0     C37349   8.158   2.940   3.055 -0.3808  1.2100  0.1707
 1018MOL0     C37350   8.389   3.214   2.749  1.1048  0.0457 -0.5082
 1018MOL0     C37351   8.277   3.256   2.688  0.8158 -0.2500  0.5594
 1018MOL0     C37352   8.283   3.348   2.577 -0.2362  0.5364 -0.2324
 1018MOL0     C37353   8.405   3.411   2.542 -1.1999 -0.4648  0.2110
 1018MOL0     O37354   8.409   3.498   2.434  0.5548  0.2230  0.0781
 1018MOL0     C37355   8.465   3.624   2.468  0.5872 -0.3265 -0.3213
 1018MOL0     C37356   8.407   3.748   2.396 -0.0518 -0.9771  0.0954
 1018MOL0     C37357   8.440   3.883   2.459 -0.7058 -0.8730 -0.2338
 1018MOL0     C37358   8.591   3.894   2.507 -0.4482  0.2699  0.3376
 1018MOL0     C37359   8.684   3.861   2.402  0.7461  0.6871  0.0701
 1018MOL0     C37360   8.751   3.844   2.300 -0.7048  0.3118  0.3232
 1018MOL0     C37361   8.520   3.359   2.607 -0.5611 -0.2723  0.5509
 1018MOL0     C37362   8.509   3.266   2.711 -0.4627  0.5512  0.6790
 1018MOL0     H37363   8.443   3.107   3.138  0.0902  0.2016  0.6169
 1018MOL0     H37364   8.419   2.974   3.334 -1.7265 -0.2565  2.0914
 1018MOL0     H37365   8.402   2.762   3.468 -0.4165 -1.5917  2.0095
 1018MOL0     H37366   8.307   2.909   3.523 -1.1485  0.5768 -0.0344
 1018MOL0     H37367   8.148   2.747   3.607  0.0193  3.3391 -1.1241
 1018MOL0     H37368   8.281   2.619   3.602 -0.5313 -0.3428 -1.9521
 1018MOL0     H37369   8.396   2.823   3.741 -1.3147  2.8630  1.2159
 1018MOL0     H37370   8.232   2.884   3.761  1.1539  0.5155  0.4320
 1018MOL0     H37371   8.167   2.642   3.835  0.1486  0.0375  2.5826
 1018MOL0     H37372   8.321   2.600   3.836 -4.0083 -0.6237 -0.4433
 1018MOL0     H37373   8.370   2.788   4.006  1.0171 -0.6427 -2.0870
 1018MOL0     H37374   8.204   2.818   4.016 -2.2464 -1.6623 -1.0222
 1018MOL0     H37375   8.210   2.659   4.186 -1.6135  1.2662 -1.6625
 1018MOL0     H37376   8.211   2.535   4.063  2.8709 -2.5205 -0.0192
 1018MOL0     H37377   8.382   2.482   4.220  0.8183 -1.5850 -2.0310
 1018MOL0     H37378   8.469   2.529   4.076  2.0880 -0.6582  1.4009
 1018MOL0     H37379   8.486   2.759   4.187 -1.5491  0.9939  1.5970
 1018MOL0     H37380   8.582   2.630   4.265 -0.8377  0.1116  1.7071
 1018MOL0     H37381   8.428   2.505   4.468 -0.7850 -0.1844 -3.0225
 1018MOL0     H37382   8.312   2.505   4.716 -0.6274  0.2992  1.0245
 1018MOL0     H37383   8.346   2.656   4.789 -0.1153  1.4373 -0.4172
 1018MOL0     H37384   8.084   2.630   4.622  1.4105  0.8112 -0.6743
 1018MOL0     H37385   8.115   2.738   4.752 -2.0927 -1.8420  3.3098
 1018MOL0     H37386   8.107   2.574   4.917  2.2038 -1.1182  0.0710
 1018MOL0     H37387   8.108   2.445   4.784  0.4037  1.0444 -0.2507
 1018MOL0     H37388   7.893   2.495   4.919 -0.6734  2.2486  1.2849
 1018MOL0     H37389   7.872   2.505   4.744 -2.8423 -2.5218  2.4055
 1018MOL0     H37390   7.806   2.883   4.992 -0.4342  1.1731  0.1453
 1018MOL0     H37391   7.545   3.064   5.044 -0.1824 -0.5665 -0.2236
 1018MOL0     H37392   7.520   2.935   5.171 -1.2472 -3.1016 -1.2023
 1018MOL0     H37393   7.681   3.002   5.127  2.0003 -1.6624 -2.7132
 1018MOL0     H37394   7.047   2.846   4.953 -0.8897  0.0470  0.2024
 1018MOL0     H37395   6.824   2.797   5.056  1.6614  3.4402  0.8048
 1018MOL0     H37396   6.664   2.552   5.391  0.2884  0.6711  0.8412
 1018MOL0     H37397   6.827   2.501   5.381  0.6966  1.2391  0.7466
 1018MOL0     H37398   6.788   2.702   5.542 -1.4023  2.9453  0.7361
 1018MOL0     H37399   6.896   2.745   5.410 -0.1714 -0.6771  1.0223
 1018MOL0     H37400   6.713   2.836   5.278  2.9043  0.1286 -0.1147
 1018MOL0     H37401   6.744   2.902   5.446  1.5876 -2.5938  0.4586
 1018MOL0     H37402   6.530   2.712   5.364 -0.9772 -0.7974  2.7142
 1018MOL0     H37403   6.565   2.767   5.533  0.3879 -2.0155 -0.0643
 1018MOL0     H37404   6.465   2.928   5.286 -2.5879  1.0467  0.0501
 1018MOL0     H37405   6.517   2.993   5.446  2.3215 -0.2350 -0.6366
 1018MOL0     H37406   6.322   2.772   5.392 -1.4931  0.1990 -2.1760
 1018MOL0     H37407   6.328   2.843   5.548  0.1823 -0.9535 -0.5782
 1018MOL0     H37408   6.237   2.954   5.289  0.8519  0.6513 -0.2774
 1018MOL0     H37409   6.220   3.057   5.438  0.8302 -0.3951  0.0477
 1018MOL0     H37410   6.104   2.770   5.437 -0.5279  0.0339 -0.4066
 1018MOL0     H37411   6.024   2.917   5.357  3.5514  3.1526 -1.5219
 1018MOL0     H37412   6.962   2.431   5.214  0.2616  0.3010  0.9130
 1018MOL0     H37413   7.198   2.480   5.126  0.3847 -0.0768 -0.4797
 1018MOL0     H37414   7.455   2.558   4.903 -1.1342 -0.5593  2.8059
 1018MOL0     H37415   7.648   2.524   4.812 -3.0848 -0.8694  0.4423
 1018MOL0     H37416   8.054   2.801   3.182 -1.9262  2.7174 -1.8971
 1018MOL0     H37417   8.087   2.931   2.974 -0.0510  2.7499 -0.3424
 1018MOL0     H37418   8.176   3.228   2.715 -0.1082  2.7831  0.6180
 1018MOL0     H37419   8.199   3.365   2.510 -0.3343  1.4034  0.0926
 1018MOL0     H37420   8.463   3.634   2.577  1.1703 -2.4317 -0.0855
 1018MOL0     H37421   8.571   3.622   2.438  0.6024  2.0890 -0.6592
 1018MOL0     H37422   8.298   3.752   2.391 -0.1005  2.0286  1.3183
 1018MOL0     H37423   8.442   3.749   2.292  0.3274 -2.5079  0.1852
 1018MOL0     H37424   8.373   3.895   2.544  0.7548  0.6658  0.7582
 1018MOL0     H37425   8.412   3.968   2.396 -2.0479  1.7591  3.5615
 1018MOL0     H37426   8.608   3.829   2.594  2.3942  1.2792  0.6218
 1018MOL0     H37427   8.598   3.997   2.544  1.1214  0.5620 -0.6975
 1018MOL0     H37428   8.822   3.851   2.220 -0.6073 -0.0836  0.3685
 1018MOL0     H37429   8.618   3.392   2.572 -0.3291 -0.5515  0.9347
 1018MOL0     H37430   8.598   3.230   2.762 -0.1127  1.6021  0.8433
 1019MOL0     O37431  11.109   2.012   2.644 -0.3077 -0.3491 -0.3466
 1019MOL0     C37432  10.997   1.960   2.622 -0.0649  0.2821  0.0125
 1019MOL0     O37433  10.975   1.824   2.610  0.4363  0.5106  0.0827
 1019MOL0     C37434  11.089   1.743   2.604  0.7851  0.4182 -0.4727
 1019MOL0     C37435  11.135   1.703   2.734  0.3461  1.0346  0.7594
 1019MOL0     C37436  11.247   1.630   2.746 -0.4964  0.0085 -0.5462
 1019MOL0     C37437  11.337   1.610   2.638  0.6115 -0.3499 -0.4507
 1019MOL0     O37438  11.435   1.518   2.667 -0.6411 -0.5065  0.5907
 1019MOL0     C37439  11.565   1.556   2.611  0.1753  1.0709  0.4425
 1019MOL0     C37440  11.609   1.687   2.669  0.0571  0.9544 -0.4408
 1019MOL0     C37441  11.760   1.702   2.665  1.0017  0.5707 -0.0902
 1019MOL0     C37442  11.831   1.618   2.777 -0.8218  0.0420 -0.6467
 1019MOL0     C37443  11.986   1.637   2.762 -1.0202 -0.9816  0.0765
 1019MOL0     C37444  12.044   1.548   2.661 -0.1185  0.1710 -0.4520
 1019MOL0     C37445  12.195   1.580   2.641 -0.0770  0.9014  0.9569
 1019MOL0     C37446  12.290   1.535   2.765 -0.5020 -0.5595 -0.2211
 1019MOL0     N37447  12.426   1.591   2.763 -0.2464 -0.1674 -0.7338
 1019MOL0     C37448  12.530   1.539   2.683  0.2818  0.1462  0.3975
 1019MOL0     C37449  12.636   1.619   2.722 -0.6342  0.0917  0.0588
 1019MOL0     C37450  12.771   1.620   2.650  0.5330 -0.8956 -0.5608
 1019MOL0     C37451  12.864   1.504   2.693 -0.2626  0.4058  0.0331
 1019MOL0     C37452  12.917   1.536   2.841  0.6359  0.2808 -0.4226
 1019MOL0     C37453  12.959   1.402   2.902  0.3850  0.2967 -0.4471
 1019MOL0     O37454  13.006   1.402   3.037  0.1226  0.4917  0.2677
 1019MOL0     C37455  12.948   1.331   3.139  0.0012 -0.0028 -0.5773
 1019MOL0     C37456  12.842   1.254   3.135 -0.2892 -0.3489  0.0211
 1019MOL0     C37457  12.785   1.205   3.252  0.2109 -0.1750  0.3383
 1019MOL0     C37458  12.649   1.129   3.239  0.4510  0.1702  0.0714
 1019MOL0     C37459  12.838   1.223   3.379 -0.3304 -0.2150 -0.5587
 1019MOL0     C37460  12.774   1.188   3.513 -0.6213  0.4886  0.2449
 1019MOL0     O37461  12.639   1.188   3.517  0.0612  0.0903  0.4610
 1019MOL0     C37462  12.588   1.130   3.628  0.0295 -0.0386  0.4255
 1019MOL0     C37463  12.536   1.215   3.728  0.1831  0.4916  0.0563
 1019MOL0     C37464  12.469   1.170   3.839 -0.4151  0.1217  0.1968
 1019MOL0     C37465  12.459   1.032   3.856 -0.9272 -0.1305 -0.1787
 1019MOL0     O37466  12.383   0.991   3.965  0.1706 -0.2968 -0.1023
 1019MOL0     C37467  12.353   0.850   3.994 -0.0808  1.3994 -0.6088
 1019MOL0     C37468  12.212   0.827   4.051  0.0144  0.0555  0.6995
 1019MOL0     C37469  12.202   0.898   4.181  0.5776 -0.1520  0.1659
 1019MOL0     C37470  12.095   0.845   4.277 -0.8421  0.1265 -0.2517
 1019MOL0     C37471  11.960   0.867   4.220 -0.2171 -0.5124 -0.0868
 1019MOL0     C37472  11.855   0.794   4.310 -0.0224  0.7953 -0.2787
 1019MOL0     C37473  11.833   0.644   4.299  0.6151  0.4123 -0.8111
 1019MOL0     C37474  11.713   0.580   4.363  0.9179  0.0649  0.0485
 1019MOL0    Cl37475  11.587   0.623   4.255  0.3456 -0.0452 -0.0665
 1019MOL0     C37476  12.501   0.942   3.746  0.5017 -0.6715 -0.8535
 1019MOL0     C37477  12.562   0.997   3.642 -0.2216  0.2537 -0.2608
 1019MOL0     O37478  12.845   1.154   3.605  0.1084 -0.4627 -0.2051
 1019MOL0     C37479  12.965   1.285   3.380  0.3387 -0.9508  0.0250
 1019MOL0     C37480  13.019   1.346   3.267 -0.1913 -0.0397  0.8056
 1019MOL0     N37481  12.593   1.690   2.828 -0.1284  0.2944 -0.3413
 1019MOL0     N37482  12.469   1.689   2.849  0.4928 -0.4047  0.1691
 1019MOL0     C37483  11.295   1.654   2.513 -0.5678 -0.8610  0.4326
 1019MOL0     C37484  11.170   1.708   2.494 -0.9797 -0.3354 -0.8554
 1019MOL0     C37485  10.888   2.051   2.591  0.0850  0.0546  1.1859
 1019MOL0     C37486  10.782   2.002   2.504  0.1925 -0.8906  0.5883
 1019MOL0     C37487  10.683   2.101   2.463  0.4251  1.0677 -0.2040
 1019MOL0     C37488  10.680   2.233   2.512  0.1333  0.3184  0.8106
 1019MOL0     O37489  10.570   2.311   2.473  0.7212 -0.0624 -0.4937
 1019MOL0     C37490  10.460   2.306   2.559  0.7348  0.4951  0.2447
 1019MOL0     C37491  10.346   2.223   2.490  0.2921  0.0829 -0.6857
 1019MOL0     C37492  10.326   2.265   2.344  0.4871  0.2509  0.0785
 1019MOL0     C37493  10.345   2.420   2.313 -0.6614  0.7635  0.0472
 1019MOL0     C37494  10.302   2.438   2.173 -0.0658 -0.8621  0.1984
 1019MOL0     C37495  10.247   2.456   2.063 -0.2526 -0.0232  0.9647
 1019MOL0     C37496  10.782   2.275   2.595  0.0484 -0.1093  0.9809
 1019MOL0     C37497  10.889   2.185   2.638  0.4615  0.9300  0.3540
 1019MOL0     H37498  11.081   1.724   2.825 -0.5034 -0.4954  0.6417
 1019MOL0     H37499  11.270   1.590   2.844 -4.8871  1.8811  1.5174
 1019MOL0     H37500  11.636   1.476   2.633 -0.0267  0.2375 -1.6323
 1019MOL0     H37501  11.560   1.557   2.501 -1.2754 -0.0167  0.4749
 1019MOL0     H37502  11.562   1.772   2.619  0.9483  1.3152 -0.6892
 1019MOL0     H37503  11.576   1.701   2.772  1.1216 -0.2097  0.0871
 1019MOL0     H37504  11.795   1.666   2.567 -0.1058  1.9658 -1.0364
 1019MOL0     H37505  11.784   1.809   2.659  3.0351  0.1674 -0.1351
 1019MOL0     H37506  11.806   1.673   2.868 -1.3830  0.7653 -1.2175
 1019MOL0     H37507  11.812   1.510   2.782 -1.3323  0.2065  1.8865
 1019MOL0     H37508  12.011   1.740   2.734 -0.2886 -1.4604 -1.1255
 1019MOL0     H37509  12.037   1.622   2.857  0.7063 -2.3421 -1.0192
 1019MOL0     H37510  12.031   1.441   2.682  0.1375  0.0432 -0.9389
 1019MOL0     H37511  11.995   1.567   2.566  2.0130  1.8219 -1.3162
 1019MOL0     H37512  12.234   1.541   2.546 -0.7111  0.2202  0.9688
 1019MOL0     H37513  12.209   1.686   2.620 -4.1059  1.0391 -2.2620
 1019MOL0     H37514  12.296   1.426   2.771 -1.1185 -0.7082 -1.9208
 1019MOL0     H37515  12.243   1.565   2.860  2.2292 -3.1653  2.1897
 1019MOL0     H37516  12.530   1.480   2.591  1.6987 -0.6655  0.8930
 1019MOL0     H37517  12.758   1.621   2.541  0.5224 -0.8508 -0.5591
 1019MOL0     H37518  12.825   1.709   2.684 -2.1660 -0.2900  2.6631
 1019MOL0     H37519  12.953   1.491   2.630 -0.3502 -1.8040  0.2720
 1019MOL0     H37520  12.813   1.408   2.681  0.2209  0.2416 -0.8111
 1019MOL0     H37521  12.828   1.566   2.896  1.1955 -1.4131  1.5305
 1019MOL0     H37522  12.987   1.620   2.845 -1.3130  2.0052 -0.8105
 1019MOL0     H37523  13.041   1.362   2.840  1.9503 -0.1005  1.7497
 1019MOL0     H37524  12.875   1.336   2.881  0.9950  0.5212 -4.4751
 1019MOL0     H37525  12.787   1.245   3.042  1.4527 -0.4667 -1.0537
 1019MOL0     H37526  12.567   1.183   3.286 -0.1865  0.3767 -1.2375
 1019MOL0     H37527  12.628   1.108   3.134  1.3524  3.1260 -0.8085
 1019MOL0     H37528  12.659   1.035   3.293  2.7047  0.2694 -0.0689
 1019MOL0     H37529  12.562   1.317   3.700 -1.3565  0.4259 -1.7558
 1019MOL0     H37530  12.421   1.241   3.905  2.7848  0.6551  2.1349
 1019MOL0     H37531  12.367   0.783   3.908 -0.9728 -1.2180  1.1895
 1019MOL0     H37532  12.428   0.818   4.067  0.7163  0.5410 -1.7651
 1019MOL0     H37533  12.146   0.852   3.968  3.2035  0.4859 -1.9141
 1019MOL0     H37534  12.209   0.719   4.067 -0.4476 -0.2352 -1.1048
 1019MOL0     H37535  12.181   1.003   4.158  0.4353  0.1194  1.4735
 1019MOL0     H37536  12.293   0.893   4.242  1.6925 -4.4391 -1.4845
 1019MOL0     H37537  12.118   0.745   4.315  1.0619  0.5282 -0.2297
 1019MOL0     H37538  12.100   0.902   4.371  1.2565  0.2901 -0.4071
 1019MOL0     H37539  11.945   0.823   4.121 -2.6900 -3.6808  1.5210
 1019MOL0     H37540  11.943   0.975   4.223  0.5434 -0.4106  1.9784
 1019MOL0     H37541  11.886   0.822   4.411 -0.6453  0.0922  0.1152
 1019MOL0     H37542  11.756   0.830   4.280 -0.0325  0.0274 -1.2406
 1019MOL0     H37543  11.923   0.611   4.351  0.9295  0.6746 -1.1819
 1019MOL0     H37544  11.847   0.619   4.193  1.6985  0.9445 -0.8139
 1019MOL0     H37545  11.688   0.601   4.467 -0.5961  3.3300 -0.8705
 1019MOL0     H37546  11.731   0.472   4.357 -2.8174 -0.6520 -0.6499
 1019MOL0     H37547  12.489   0.834   3.752 -3.3775 -0.5651 -3.4486
 1019MOL0     H37548  12.597   0.926   3.567 -1.4391 -1.9229  1.1208
 1019MOL0     H37549  13.006   1.287   3.480 -0.8271 -0.7193  0.5115
 1019MOL0     H37550  13.109   1.407   3.268 -1.3074  1.6964  0.1475
 1019MOL0     H37551  11.362   1.644   2.428 -0.5026 -1.0083  0.5018
 1019MOL0     H37552  11.138   1.741   2.395 -0.7779  0.4988 -0.6549
 1019MOL0     H37553  10.774   1.900   2.468 -0.9338 -0.5373 -0.2188
 1019MOL0     H37554  10.604   2.057   2.402 -1.2664 -0.2637  2.7097
 1019MOL0     H37555  10.491   2.263   2.655  0.6783  0.7655  0.3839
 1019MOL0     H37556  10.426   2.409   2.570  1.7701  0.7964  0.7211
 1019MOL0     H37557  10.258   2.207   2.553  3.3758 -1.2822  3.8039
 1019MOL0     H37558  10.376   2.118   2.483  0.1342  0.0852 -1.4186
 1019MOL0     H37559  10.224   2.236   2.317  0.3720  2.1996 -1.8633
 1019MOL0     H37560  10.385   2.200   2.279 -1.3176 -1.1259 -0.2464
 1019MOL0     H37561  10.446   2.462   2.321 -1.5888  3.1148  0.0328
 1019MOL0     H37562  10.277   2.475   2.378 -0.6810  0.1085  0.5939
 1019MOL0     H37563  10.200   2.479   1.970 -0.6526 -0.3905  1.0761
 1019MOL0     H37564  10.779   2.381   2.618 -0.9100  0.1710 -0.3100
 1019MOL0     H37565  10.967   2.224   2.704 -0.8526  2.5311  1.0291
 1020MOL0     O37566   7.570  11.174   2.787  0.2412 -0.2431  0.6502
 1020MOL0     C37567   7.683  11.157   2.834  0.2923  0.3363 -0.3807
 1020MOL0     O37568   7.716  11.057   2.926 -0.0696 -0.0853  0.0904
 1020MOL0     C37569   7.625  10.961   2.965 -0.0567  0.3205  0.2037
 1020MOL0     C37570   7.515  10.988   3.054  0.0593  0.7785 -0.1017
 1020MOL0     C37571   7.445  10.876   3.093 -0.0543  0.4639 -0.1031
 1020MOL0     C37572   7.466  10.751   3.039 -0.3617 -0.4254 -0.6957
 1020MOL0     O37573   7.401  10.640   3.081  0.0028  0.1773 -0.4999
 1020MOL0     C37574   7.346  10.623   3.217  0.1925 -0.5574  0.3109
 1020MOL0     C37575   7.396  10.489   3.276  0.3232 -0.5874 -0.7827
 1020MOL0     C37576   7.334  10.367   3.216  0.3506 -0.1446  0.0849
 1020MOL0     C37577   7.405  10.239   3.253 -0.1097 -0.9014 -0.2743
 1020MOL0     C37578   7.418  10.222   3.415 -0.1050  0.3110  0.5283
 1020MOL0     C37579   7.472  10.084   3.456 -0.0669 -0.6389 -0.8567
 1020MOL0     C37580   7.517  10.093   3.606  1.3369 -0.4478  0.1686
 1020MOL0     C37581   7.524   9.962   3.686  0.3295  0.1515  0.2131
 1020MOL0     N37582   7.654   9.898   3.671 -0.4397  0.2172 -0.9379
 1020MOL0     C37583   7.731   9.892   3.553  0.3538 -0.6026  0.1091
 1020MOL0     C37584   7.853   9.838   3.587 -0.2909  0.4524 -0.3186
 1020MOL0     C37585   7.966   9.798   3.502  0.5520 -0.9769  0.6186
 1020MOL0     C37586   8.079   9.717   3.557  0.9112  0.2394 -0.3824
 1020MOL0     C37587   8.033   9.576   3.607 -0.4551 -0.4832 -0.9416
 1020MOL0     C37588   8.159   9.482   3.629  0.0972  0.0385 -0.1936
 1020MOL0     O37589   8.126   9.366   3.716  0.3434  0.0506  0.2566
 1020MOL0     C37590   8.237   9.318   3.783 -0.7856  0.3424  0.3719
 1020MOL0     C37591   8.331   9.234   3.711  0.8819 -0.3848 -0.0306
 1020MOL0     C37592   8.454   9.189   3.762  0.6275 -0.4082 -0.0606
 1020MOL0     C37593   8.549   9.115   3.673  0.2271 -0.9449 -1.1892
 1020MOL0     C37594   8.490   9.238   3.891  0.7452  0.7391 -0.5565
 1020MOL0     C37595   8.631   9.207   3.945  0.3842 -0.7909  0.8498
 1020MOL0     O37596   8.691   9.325   3.973  0.5838  0.4609 -0.1808
 1020MOL0     C37597   8.824   9.317   3.986  0.2845 -0.2188 -0.0865
 1020MOL0     C37598   8.878   9.371   4.102 -1.0475  0.1883 -1.0816
 1020MOL0     C37599   9.016   9.357   4.138 -0.4949  1.3491  0.2897
 1020MOL0     C37600   9.112   9.314   4.046  0.6231  0.2661 -0.3370
 1020MOL0     O37601   9.242   9.328   4.082 -0.0548  0.5464  0.0564
 1020MOL0     C37602   9.342   9.323   3.978 -0.1881 -0.4838 -0.2718
 1020MOL0     C37603   9.482   9.333   4.046  0.1706  0.4218  0.4250
 1020MOL0     C37604   9.569   9.206   4.014  0.6097  0.3893  0.8441
 1020MOL0     C37605   9.719   9.230   4.023  0.9210  0.1092  0.1328
 1020MOL0     C37606   9.800   9.095   4.028  0.7380  1.0074 -0.5478
 1020MOL0     C37607   9.797   9.015   4.153  0.1065  0.6938 -0.1942
 1020MOL0     C37608   9.900   9.062   4.258 -0.5361 -0.9290  0.1182
 1020MOL0     C37609   9.869   9.000   4.396 -0.3176 -1.1882  0.5065
 1020MOL0    Cl37610   9.966   9.111   4.504 -0.0067  0.3931 -0.4433
 1020MOL0     C37611   9.047   9.266   3.925  0.0925  0.0423  0.0715
 1020MOL0     C37612   8.910   9.265   3.893 -0.1503 -0.7742  0.6443
 1020MOL0     O37613   8.672   9.094   3.957 -0.7394  0.0604  0.4944
 1020MOL0     C37614   8.395   9.319   3.963  0.1364 -0.3449 -0.1293
 1020MOL0     C37615   8.272   9.357   3.914 -0.3453  0.6216 -0.5154
 1020MOL0     N37616   7.844   9.809   3.723 -0.2190  0.5489 -0.3937
 1020MOL0     N37617   7.728   9.839   3.765 -0.0865  0.8977 -0.2655
 1020MOL0     C37618   7.568  10.728   2.954 -0.5779  0.4917 -0.3103
 1020MOL0     C37619   7.650  10.828   2.917  0.5770 -0.7522 -0.2143
 1020MOL0     C37620   7.787  11.268   2.803 -0.4329  0.0655 -0.2592
 1020MOL0     C37621   7.775  11.376   2.709 -0.3172  0.0636  0.0320
 1020MOL0     C37622   7.872  11.470   2.684 -0.4158  1.1424 -0.5244
 1020MOL0     C37623   7.997  11.463   2.744  0.4393 -0.4470  0.1374
 1020MOL0     O37624   8.091  11.555   2.718  0.2085 -0.2137  0.2613
 1020MOL0     C37625   8.230  11.543   2.760 -0.5974  0.5587 -1.1977
 1020MOL0     C37626   8.300  11.673   2.706 -0.3416 -0.0634  0.6618
 1020MOL0     C37627   8.339  11.665   2.556 -0.6702 -0.4345 -0.5822
 1020MOL0     C37628   8.481  11.600   2.558 -0.0569  0.3375  0.1601
 1020MOL0     C37629   8.589  11.701   2.583 -0.4529  0.4928  0.1224
 1020MOL0     C37630   8.659  11.797   2.609 -1.0678  0.2818 -0.4204
 1020MOL0     C37631   8.013  11.354   2.834  0.5301 -0.6245 -0.2165
 1020MOL0     C37632   7.907  11.274   2.864  0.2865  0.4647 -0.0998
 1020MOL0     H37633   7.485  11.090   3.078 -1.5494 -0.1656  2.2841
 1020MOL0     H37634   7.357  10.895   3.153  0.1247  0.7315  0.0751
 1020MOL0     H37635   7.371  10.710   3.279  2.4321 -0.5382 -0.5197
 1020MOL0     H37636   7.237  10.622   3.219  0.1998 -0.7707  0.6748
 1020MOL0     H37637   7.501  10.484   3.246  0.1381 -2.5192 -1.2483
 1020MOL0     H37638   7.390  10.482   3.385  0.6154 -0.1308 -0.7330
 1020MOL0     H37639   7.231  10.352   3.250  0.1641 -0.0398 -0.4105
 1020MOL0     H37640   7.323  10.383   3.108 -2.1065 -0.6028  0.2072
 1020MOL0     H37641   7.348  10.156   3.209 -3.4998  0.6214  0.9377
 1020MOL0     H37642   7.504  10.238   3.206 -0.2501 -3.7890 -0.7060
 1020MOL0     H37643   7.489  10.297   3.448  0.0828  0.1648  0.4570
 1020MOL0     H37644   7.323  10.250   3.461 -0.2044  0.6675  0.1060
 1020MOL0     H37645   7.386  10.017   3.449 -0.5670 -0.2824  1.1768
 1020MOL0     H37646   7.553  10.055   3.388 -1.2123  2.8783 -4.0071
 1020MOL0     H37647   7.616  10.134   3.627  1.5119 -1.5273  1.5953
 1020MOL0     H37648   7.437  10.142   3.661 -0.5527 -5.3469  2.4093
 1020MOL0     H37649   7.441   9.893   3.672 -0.2619  0.4460  2.0229
 1020MOL0     H37650   7.513   9.979   3.793 -0.8464  0.7523  0.0107
 1020MOL0     H37651   7.709   9.929   3.453  0.1071 -1.8472 -0.3080
 1020MOL0     H37652   7.927   9.740   3.418  0.2952  1.1717 -0.8350
 1020MOL0     H37653   8.003   9.890   3.455 -1.0806  0.4695  2.0247
 1020MOL0     H37654   8.131   9.766   3.640 -0.4300  2.4421 -0.7517
 1020MOL0     H37655   8.153   9.706   3.478 -0.6559  3.4947 -2.5170
 1020MOL0     H37656   7.975   9.527   3.528  0.4804  0.8271 -2.5096
 1020MOL0     H37657   7.974   9.591   3.698 -4.2730 -0.7675 -3.1645
 1020MOL0     H37658   8.243   9.532   3.678  0.5009 -1.1575  0.3607
 1020MOL0     H37659   8.192   9.455   3.528 -1.7996 -1.6064 -0.4434
 1020MOL0     H37660   8.302   9.207   3.610  0.0799  1.1864 -0.2484
 1020MOL0     H37661   8.534   9.008   3.692 -0.6465 -0.3267  2.2111
 1020MOL0     H37662   8.534   9.143   3.568  0.1165  0.0670 -0.9113
 1020MOL0     H37663   8.652   9.139   3.700  0.0247 -1.1848 -0.1889
 1020MOL0     H37664   8.805   9.414   4.169 -1.1740 -1.0212 -0.4095
 1020MOL0     H37665   9.053   9.391   4.235  2.5765 -2.2174  0.6239
 1020MOL0     H37666   9.327   9.234   3.916  0.5080 -0.1507 -0.9311
 1020MOL0     H37667   9.321   9.406   3.910  4.1632  1.1634  0.0872
 1020MOL0     H37668   9.536   9.423   4.015  0.7074  0.2058  0.7147
 1020MOL0     H37669   9.466   9.349   4.153 -0.8948  3.0630 -0.0394
 1020MOL0     H37670   9.550   9.172   3.911  1.7680  2.2937 -0.0526
 1020MOL0     H37671   9.531   9.124   4.076 -1.0004 -0.7747 -1.5278
 1020MOL0     H37672   9.744   9.280   3.930 -0.8903  0.0841 -0.4071
 1020MOL0     H37673   9.737   9.301   4.105 -1.5253  0.8096  0.1515
 1020MOL0     H37674   9.906   9.116   4.013  1.4801 -0.9907  1.2992
 1020MOL0     H37675   9.750   9.036   3.951 -0.8827 -1.3855  2.1166
 1020MOL0     H37676   9.699   9.016   4.202  0.5679 -1.6088  0.9125
 1020MOL0     H37677   9.821   8.912   4.127 -2.0294  0.2300 -0.5048
 1020MOL0     H37678   9.892   9.171   4.268 -0.5852 -1.0213  1.2093
 1020MOL0     H37679  10.004   9.039   4.235 -0.8052 -1.1193 -0.9182
 1020MOL0     H37680   9.914   8.900   4.397  3.0820  0.1080 -1.8539
 1020MOL0     H37681   9.764   9.002   4.425 -1.5783  0.0559 -3.5819
 1020MOL0     H37682   9.110   9.251   3.838  4.4655  1.3542  2.6948
 1020MOL0     H37683   8.887   9.240   3.790 -1.8627 -1.5363  1.1740
 1020MOL0     H37684   8.412   9.361   4.062  1.2664  1.9841 -1.2315
 1020MOL0     H37685   8.205   9.413   3.977  2.3296  1.7885  1.4992
 1020MOL0     H37686   7.581  10.626   2.921 -0.0757 -0.3756  2.3481
 1020MOL0     H37687   7.740  10.802   2.863 -0.3832 -0.6183 -1.9412
 1020MOL0     H37688   7.689  11.382   2.644 -0.6774  1.4712  0.6010
 1020MOL0     H37689   7.866  11.534   2.596  0.2520  0.9994 -0.6731
 1020MOL0     H37690   8.245  11.525   2.867  1.0626 -0.9180 -1.6318
 1020MOL0     H37691   8.266  11.459   2.700 -1.6738 -1.9745  1.4716
 1020MOL0     H37692   8.382  11.705   2.771 -1.1817 -1.3502  2.4543
 1020MOL0     H37693   8.222  11.749   2.720  0.5861  1.3801 -1.4764
 1020MOL0     H37694   8.346  11.765   2.511 -3.1476  0.0367 -0.0431
 1020MOL0     H37695   8.267  11.612   2.493 -1.1922  1.5571 -1.7685
 1020MOL0     H37696   8.505  11.572   2.455  1.1301  0.2157  0.4561
 1020MOL0     H37697   8.497  11.516   2.626  0.0853 -0.6474 -1.0413
 1020MOL0     H37698   8.716  11.881   2.642 -0.0595 -1.2195  1.9198
 1020MOL0     H37699   8.108  11.333   2.881  0.4678 -2.9332 -1.0057
 1020MOL0     H37700   7.936  11.192   2.928 -1.2015 -0.6650 -0.8095
 1021MOL0     O37701  11.240   9.299   9.463  0.2544  0.2453 -0.4665
 1021MOL0     C37702  11.118   9.281   9.496  0.1105 -1.1172  0.7280
 1021MOL0     O37703  11.056   9.160   9.522 -0.0500  0.7391  0.1057
 1021MOL0     C37704  11.119   9.035   9.524  0.0919  0.5535  0.6911
 1021MOL0     C37705  11.031   8.924   9.526 -1.1005  1.0825 -0.6452
 1021MOL0     C37706  11.086   8.789   9.519  0.0935 -0.2958  0.5161
 1021MOL0     C37707  11.224   8.771   9.526 -0.0513 -0.2464 -1.0389
 1021MOL0     O37708  11.289   8.645   9.528  0.1410  0.4085 -0.4159
 1021MOL0     C37709  11.225   8.539   9.598  1.6760  0.3681 -0.7497
 1021MOL0     C37710  11.329   8.435   9.634 -0.0736  0.2064  0.4677
 1021MOL0     C37711  11.283   8.295   9.649 -0.2040  0.3987  0.1443
 1021MOL0     C37712  11.181   8.274   9.757  0.1367 -0.2413 -0.2575
 1021MOL0     C37713  11.042   8.314   9.718 -0.4140 -1.2308 -0.3885
 1021MOL0     C37714  10.955   8.241   9.822  0.2583  0.9913  0.7213
 1021MOL0     C37715  10.814   8.287   9.779 -0.2879  0.4692  0.3213
 1021MOL0     C37716  10.712   8.234   9.877 -0.2848  0.4902 -0.5359
 1021MOL0     N37717  10.592   8.318   9.883  0.3704 -0.2148  0.1958
 1021MOL0     C37718  10.557   8.410   9.975  0.3261 -0.9011 -0.4261
 1021MOL0     C37719  10.434   8.455   9.936 -0.2597 -0.4596 -0.3745
 1021MOL0     C37720  10.354   8.543  10.022 -0.9605 -0.0891  0.9969
 1021MOL0     C37721  10.200   8.554   9.995  0.1525  0.4229  0.6302
 1021MOL0     C37722  10.174   8.632   9.863  0.3041  0.9584  0.4095
 1021MOL0     C37723  10.033   8.629   9.829  0.7846 -1.0866 -0.2806
 1021MOL0     O37724   9.945   8.675   9.934 -0.6117  0.0021 -0.1240
 1021MOL0     C37725   9.809   8.701   9.917 -0.2010 -0.4953 -0.0023
 1021MOL0     C37726   9.709   8.602   9.928 -0.5571 -0.3872 -0.3756
 1021MOL0     C37727   9.573   8.617   9.931  0.1719  0.6379 -0.1904
 1021MOL0     C37728   9.478   8.500   9.965 -0.0923  0.0145  0.4944
 1021MOL0     C37729   9.532   8.758   9.920  0.4456 -0.5975  0.9179
 1021MOL0     C37730   9.393   8.802   9.905  0.8119  0.6876 -0.1725
 1021MOL0     O37731   9.362   8.925   9.943 -0.5549 -0.2791  0.4213
 1021MOL0     C37732   9.234   8.968   9.970 -0.4976 -0.8842  0.7797
 1021MOL0     C37733   9.196   9.094   9.925 -0.2508  0.0396 -0.1832
 1021MOL0     C37734   9.071   9.145   9.947 -0.8332 -0.5303  0.3916
 1021MOL0     C37735   8.974   9.060  10.017 -0.0777  0.6056  0.3636
 1021MOL0     O37736   8.839   9.084  10.029 -0.3032  0.3805 -0.8044
 1021MOL0     C37737   8.796   9.209   9.962 -0.7008  0.2744  0.0794
 1021MOL0     C37738   8.657   9.256  10.005 -0.6198 -0.6523  0.1919
 1021MOL0     C37739   8.553   9.178   9.950  0.1417  0.8580 -0.4740
 1021MOL0     C37740   8.425   9.205  10.026  0.7954 -0.3505 -0.2314
 1021MOL0     C37741   8.309   9.116   9.983  0.1692  0.0679  0.3112
 1021MOL0     C37742   8.186   9.127  10.073 -0.1092  0.8197  0.0042
 1021MOL0     C37743   8.118   9.266  10.070 -0.0681 -0.1574 -0.0601
 1021MOL0     C37744   8.054   9.300   9.932  0.3035 -0.3656  0.3909
 1021MOL0    Cl37745   7.934   9.428   9.944  0.2650 -0.0245  0.0860
 1021MOL0     C37746   9.012   8.935  10.056  0.4661  0.4187  0.2967
 1021MOL0     C37747   9.141   8.893  10.039 -1.1381 -0.1326  0.3162
 1021MOL0     O37748   9.302   8.716   9.894 -0.2962 -0.1621  0.6439
 1021MOL0     C37749   9.629   8.861   9.886  0.1031 -0.9281 -0.4678
 1021MOL0     C37750   9.763   8.834   9.890 -1.3268  0.4036 -0.0076
 1021MOL0     N37751  10.395   8.392   9.818  1.0561 -0.3052  0.2524
 1021MOL0     N37752  10.498   8.315   9.788  0.5127  0.8810 -0.2601
 1021MOL0     C37753  11.306   8.885   9.530  0.6949 -1.1171 -0.3086
 1021MOL0     C37754  11.261   9.013   9.523 -0.0739 -1.2416  0.2910
 1021MOL0     C37755  11.036   9.403   9.522 -0.0838  0.5573 -0.2460
 1021MOL0     C37756  10.904   9.388   9.579 -0.3712 -0.7264 -0.0770
 1021MOL0     C37757  10.827   9.497   9.582  0.2903  0.0191  0.0080
 1021MOL0     C37758  10.866   9.633   9.554  0.5390  0.4251 -1.2946
 1021MOL0     O37759  10.770   9.729   9.569  0.0726  0.7254  0.0518
 1021MOL0     C37760  10.789   9.841   9.499  0.0455 -0.1006  0.4910
 1021MOL0     C37761  10.646   9.899   9.462  1.1872 -0.5988  0.5521
 1021MOL0     C37762  10.562   9.936   9.588 -0.3712  0.1253  0.4577
 1021MOL0     C37763  10.459  10.045   9.559  1.1370  0.3402 -0.4551
 1021MOL0     C37764  10.410  10.058   9.693  0.7218  0.3005 -0.7464
 1021MOL0     C37765  10.368  10.062   9.810  0.4902  0.7167  0.2658
 1021MOL0     C37766  11.003   9.651   9.522  0.6767  0.3105 -0.0976
 1021MOL0     C37767  11.080   9.533   9.486 -0.2755 -0.8596 -0.4956
 1021MOL0     H37768  10.924   8.942   9.531 -0.9423  1.7523  2.6979
 1021MOL0     H37769  11.017   8.704   9.517  1.1017 -1.1360  0.4783
 1021MOL0     H37770  11.200   8.564   9.702  2.9406 -0.8445 -0.1175
 1021MOL0     H37771  11.143   8.504   9.536 -0.5901 -0.3862  2.3999
 1021MOL0     H37772  11.406   8.435   9.557 -1.2342  0.8255 -0.7408
 1021MOL0     H37773  11.374   8.458   9.731  3.6251  2.5646 -1.5686
 1021MOL0     H37774  11.250   8.269   9.548  1.2713 -3.0427  0.4214
 1021MOL0     H37775  11.375   8.238   9.668  0.5940  0.2066 -3.5339
 1021MOL0     H37776  11.190   8.167   9.779  2.9587  0.1326  0.6631
 1021MOL0     H37777  11.211   8.322   9.850 -0.6292  0.6808 -0.4660
 1021MOL0     H37778  11.042   8.424   9.724  1.3226 -0.7508 -5.0784
 1021MOL0     H37779  11.016   8.289   9.615  0.6491 -3.4737 -0.1608
 1021MOL0     H37780  10.953   8.132   9.817  0.5018  1.0237 -0.1021
 1021MOL0     H37781  10.993   8.265   9.922  0.8561  0.5987  0.5958
 1021MOL0     H37782  10.815   8.396   9.789 -1.5680  0.5563 -0.2740
 1021MOL0     H37783  10.786   8.250   9.680  1.1541  3.0406 -1.1702
 1021MOL0     H37784  10.767   8.221   9.970 -0.3621  1.9261 -0.2635
 1021MOL0     H37785  10.681   8.135   9.841 -0.4200 -0.2907  1.5647
 1021MOL0     H37786  10.608   8.423  10.070 -1.5082 -1.6173  0.7234
 1021MOL0     H37787  10.363   8.515  10.127  0.1121  0.3359  1.0243
 1021MOL0     H37788  10.396   8.644  10.026 -1.6590  0.3674 -1.5811
 1021MOL0     H37789  10.146   8.587  10.084 -1.6545 -0.3129 -0.1486
 1021MOL0     H37790  10.175   8.450   9.972  1.5995  0.3554 -0.7871
 1021MOL0     H37791  10.240   8.604   9.780  1.7543  0.2046  1.7689
 1021MOL0     H37792  10.203   8.732   9.898  0.1983  0.1737  2.9028
 1021MOL0     H37793   9.997   8.535   9.786 -4.8318  0.8316 -0.6131
 1021MOL0     H37794  10.022   8.709   9.755 -1.3529 -0.6992  0.3851
 1021MOL0     H37795   9.739   8.499   9.945  1.3432  0.3589  1.1577
 1021MOL0     H37796   9.392   8.530  10.025 -1.1647 -3.4574  0.9288
 1021MOL0     H37797   9.438   8.442   9.881  1.2279 -1.8293  1.0846
 1021MOL0     H37798   9.527   8.436  10.039  1.0119 -0.0344 -0.2577
 1021MOL0     H37799   9.265   9.158   9.870 -1.9002 -0.9095 -3.6465
 1021MOL0     H37800   9.046   9.242   9.906  1.1414  0.8105  2.1529
 1021MOL0     H37801   8.856   9.295   9.993 -2.0633  0.5862  2.0381
 1021MOL0     H37802   8.791   9.196   9.854  0.9132 -1.3518  0.1529
 1021MOL0     H37803   8.653   9.252  10.114  2.9103 -1.0160  0.4235
 1021MOL0     H37804   8.638   9.356   9.964  0.5891 -1.2825 -2.0753
 1021MOL0     H37805   8.570   9.071   9.968  1.1743  1.3794  2.1414
 1021MOL0     H37806   8.544   9.199   9.843 -1.2738 -0.0467 -0.5638
 1021MOL0     H37807   8.442   9.187  10.133  2.7329 -1.6164 -0.6904
 1021MOL0     H37808   8.401   9.309  10.002 -0.7740 -1.1003 -2.1151
 1021MOL0     H37809   8.338   9.011   9.999 -3.3610 -0.9430  1.0015
 1021MOL0     H37810   8.284   9.135   9.878  1.3311 -0.7974 -0.1429
 1021MOL0     H37811   8.114   9.050  10.044  1.2261 -0.1723 -0.7825
 1021MOL0     H37812   8.216   9.091  10.172 -0.4301  1.2306  0.2540
 1021MOL0     H37813   8.186   9.346  10.100 -0.9239  0.4107  0.4276
 1021MOL0     H37814   8.038   9.273  10.144 -0.3811 -2.4963 -0.1122
 1021MOL0     H37815   8.026   9.208   9.879  1.1109 -0.6938  0.5109
 1021MOL0     H37816   8.137   9.338   9.870 -1.5538 -0.3689 -2.2768
 1021MOL0     H37817   8.931   8.879  10.102 -0.9802 -0.0085 -2.5347
 1021MOL0     H37818   9.165   8.788  10.055 -0.2489  0.1583  0.9908
 1021MOL0     H37819   9.601   8.962   9.861  1.8053 -0.5987 -1.2066
 1021MOL0     H37820   9.852   8.894   9.879  1.0617 -1.9511  3.9369
 1021MOL0     H37821  11.415   8.881   9.536  0.5748 -3.1200  1.4167
 1021MOL0     H37822  11.332   9.095   9.522 -0.3711 -0.9728  0.7753
 1021MOL0     H37823  10.860   9.290   9.598 -0.8889 -0.4653  0.0912
 1021MOL0     H37824  10.725   9.471   9.604  0.9485 -2.3043  0.5501
 1021MOL0     H37825  10.843   9.922   9.548 -1.6384  0.3347  1.7054
 1021MOL0     H37826  10.836   9.819   9.403 -1.8064  0.0106 -0.4840
 1021MOL0     H37827  10.599   9.838   9.385 -2.2089  3.0296 -0.5571
 1021MOL0     H37828  10.661   9.991   9.405 -4.0992 -0.2567 -0.7875
 1021MOL0     H37829  10.641   9.974   9.653  1.7168 -0.8559 -1.3963
 1021MOL0     H37830  10.520   9.842   9.624 -0.3050  0.2602  0.8997
 1021MOL0     H37831  10.371  10.024   9.496 -1.5175  2.6853  2.1701
 1021MOL0     H37832  10.510  10.133   9.519 -0.3236  1.2292 -0.4339
 1021MOL0     H37833  10.341  10.063   9.913  0.0878 -1.6008  0.2258
 1021MOL0     H37834  11.049   9.750   9.529 -0.5679  0.9134 -0.0909
 1021MOL0     H37835  11.176   9.557   9.440 -1.5188  2.9986 -1.4878
 1022MOL0     O37836   6.644   3.087   8.146  0.1571 -0.6874 -0.2360
 1022MOL0     C37837   6.644   2.987   8.212 -0.3531  0.2872  0.2084
 1022MOL0     O37838   6.564   2.960   8.308  0.9122 -0.2041 -0.4115
 1022MOL0     C37839   6.469   3.036   8.370 -0.0858 -0.5504  0.5194
 1022MOL0     C37840   6.379   2.972   8.456  0.0960  0.3031 -0.1474
 1022MOL0     C37841   6.268   3.031   8.503  0.3762  1.1042 -0.0840
 1022MOL0     C37842   6.241   3.165   8.475  0.4336 -0.2207  0.7168
 1022MOL0     O37843   6.121   3.218   8.528  0.0317  0.7747 -0.8326
 1022MOL0     C37844   6.061   3.303   8.437  1.1206  0.2792 -0.1356
 1022MOL0     C37845   5.935   3.355   8.504  0.8308 -0.0143 -1.0992
 1022MOL0     C37846   5.835   3.268   8.587 -0.4264  0.9248  0.7167
 1022MOL0     C37847   5.708   3.343   8.640 -0.4363  0.2388 -0.8055
 1022MOL0     C37848   5.622   3.249   8.726 -0.7021 -0.6843 -0.7745
 1022MOL0     C37849   5.498   3.314   8.801  0.6332  0.6747  0.1725
 1022MOL0     C37850   5.429   3.215   8.902  0.2552 -1.3564  0.0960
 1022MOL0     C37851   5.356   3.108   8.836  0.8665  0.5677  0.1588
 1022MOL0     N37852   5.218   3.140   8.784  0.0417  0.3981 -0.5530
 1022MOL0     C37853   5.109   3.153   8.866  0.2150 -0.2356 -0.2672
 1022MOL0     C37854   5.017   3.211   8.779 -0.2012  0.3530 -0.1463
 1022MOL0     C37855   4.877   3.244   8.811  0.0772 -0.2975  0.1821
 1022MOL0     C37856   4.790   3.281   8.688  0.1433 -0.5301 -0.5201
 1022MOL0     C37857   4.650   3.335   8.736 -0.2539  0.3424 -0.6720
 1022MOL0     C37858   4.572   3.384   8.619 -0.5197 -0.1529  0.7880
 1022MOL0     O37859   4.586   3.290   8.503 -0.9498  0.0373 -0.4079
 1022MOL0     C37860   4.466   3.253   8.440 -0.4458 -0.3473  0.1706
 1022MOL0     C37861   4.360   3.341   8.417  0.7643  0.4482  0.4766
 1022MOL0     C37862   4.247   3.319   8.337  0.4898  0.4517 -0.6765
 1022MOL0     C37863   4.148   3.435   8.346  0.6749 -0.1181  0.5226
 1022MOL0     C37864   4.243   3.200   8.256  0.3956  0.1006 -0.0015
 1022MOL0     C37865   4.138   3.157   8.163  0.4041 -0.0827 -1.3890
 1022MOL0     O37866   4.183   3.078   8.059  0.0706 -0.3775  0.2825
 1022MOL0     C37867   4.109   3.056   7.950 -0.4378  0.9078  0.3574
 1022MOL0     C37868   4.030   2.937   7.927 -0.3358 -0.3798 -0.1808
 1022MOL0     C37869   3.959   2.917   7.806 -0.4403 -0.1797 -0.7684
 1022MOL0     C37870   3.961   3.022   7.711  0.8045 -0.3073  0.4316
 1022MOL0     O37871   3.871   3.008   7.607  0.0763  0.6223  0.5627
 1022MOL0     C37872   3.908   3.085   7.489 -0.0563  1.4299  0.2409
 1022MOL0     C37873   3.838   3.038   7.361  0.3405  0.9415  0.3603
 1022MOL0     C37874   3.690   3.057   7.367 -0.4623 -0.4726 -1.2976
 1022MOL0     C37875   3.636   3.195   7.370 -0.4098 -0.9066  0.2980
 1022MOL0     C37876   3.624   3.267   7.234  0.1399  0.8361 -0.5355
 1022MOL0     C37877   3.522   3.191   7.145 -0.4759  0.2142  0.6692
 1022MOL0     C37878   3.522   3.232   6.995 -0.4350 -0.4030  0.1954
 1022MOL0     C37879   3.419   3.146   6.924  0.6191 -0.2853 -0.6105
 1022MOL0    Cl37880   3.255   3.217   6.961  0.0854  0.4607 -0.2442
 1022MOL0     C37881   4.039   3.134   7.728  0.2269  0.1437  0.2175
 1022MOL0     C37882   4.115   3.144   7.842  0.0917  0.3638  0.5244
 1022MOL0     O37883   4.019   3.193   8.169  0.3225 -0.3456 -0.2808
 1022MOL0     C37884   4.352   3.110   8.276  0.9780 -0.2776 -0.3441
 1022MOL0     C37885   4.453   3.133   8.374  0.3542  0.0373  0.3653
 1022MOL0     N37886   5.081   3.229   8.653 -0.2219  0.3636  0.7908
 1022MOL0     N37887   5.203   3.195   8.661 -0.2936  0.2040 -0.3841
 1022MOL0     C37888   6.342   3.235   8.423  0.0176 -0.3291  0.4777
 1022MOL0     C37889   6.459   3.173   8.363  0.8621  0.3118  0.0652
 1022MOL0     C37890   6.747   2.888   8.168 -0.1789 -0.1061  0.2923
 1022MOL0     C37891   6.820   2.910   8.049  0.2090  0.0032  0.8757
 1022MOL0     C37892   6.918   2.815   8.011 -0.2522 -0.0262 -0.4071
 1022MOL0     C37893   6.946   2.697   8.082 -0.3095  0.8600  0.0552
 1022MOL0     O37894   7.031   2.594   8.056  0.3812 -0.3780 -0.3051
 1022MOL0     C37895   7.123   2.622   7.945  0.4133 -0.4129 -0.2613
 1022MOL0     C37896   7.249   2.534   7.963  0.1067  0.3170 -0.3454
 1022MOL0     C37897   7.332   2.580   8.087 -1.0514  0.6248 -0.2964
 1022MOL0     C37898   7.484   2.532   8.101 -0.7246 -0.0726 -0.1695
 1022MOL0     C37899   7.521   2.408   8.038  0.2709  1.4582 -0.1344
 1022MOL0     C37900   7.551   2.305   7.983 -0.3424  0.5280  0.0427
 1022MOL0     C37901   6.875   2.685   8.201  0.8009  0.4726 -0.3524
 1022MOL0     C37902   6.763   2.772   8.229 -0.7343  0.5676  0.0521
 1022MOL0     H37903   6.392   2.869   8.487  3.0222 -0.5953 -3.6476
 1022MOL0     H37904   6.191   2.965   8.543  0.9548  0.0491 -0.6707
 1022MOL0     H37905   6.124   3.386   8.402 -0.6821  1.6653 -0.2819
 1022MOL0     H37906   6.035   3.243   8.350 -1.2232  0.8952  0.0816
 1022MOL0     H37907   5.973   3.425   8.579  1.3580  0.1744 -1.5326
 1022MOL0     H37908   5.878   3.397   8.420  0.9238 -2.1947 -2.3097
 1022MOL0     H37909   5.801   3.182   8.530  0.2616 -1.3851  3.5562
 1022MOL0     H37910   5.885   3.218   8.670 -0.6755  0.0375  0.3417
 1022MOL0     H37911   5.730   3.431   8.701  0.8894 -0.2983 -0.4858
 1022MOL0     H37912   5.645   3.377   8.556  1.7188  1.0091 -2.2004
 1022MOL0     H37913   5.586   3.187   8.643 -0.5810  2.1685 -3.1390
 1022MOL0     H37914   5.683   3.206   8.805 -2.6696 -0.1352  1.1202
 1022MOL0     H37915   5.528   3.402   8.858 -1.3589  2.2488 -1.0771
 1022MOL0     H37916   5.421   3.351   8.733 -2.8035  2.2256  4.4292
 1022MOL0     H37917   5.510   3.178   8.967  0.5389 -0.6245  0.1723
 1022MOL0     H37918   5.365   3.279   8.964  0.3012 -2.1468  0.9891
 1022MOL0     H37919   5.338   3.043   8.922  1.4657  0.9260  0.5632
 1022MOL0     H37920   5.428   3.071   8.763  2.5986  1.7191  1.2287
 1022MOL0     H37921   5.081   3.135   8.969 -3.7873 -1.0815 -1.3074
 1022MOL0     H37922   4.831   3.159   8.861 -0.4094 -0.7696 -1.0268
 1022MOL0     H37923   4.873   3.340   8.863 -0.3260  0.6556 -1.5027
 1022MOL0     H37924   4.777   3.188   8.632  0.9758 -1.8466  1.3473
 1022MOL0     H37925   4.843   3.358   8.631 -0.2620  0.1237 -0.0265
 1022MOL0     H37926   4.657   3.410   8.816 -0.6774 -0.0946 -0.2103
 1022MOL0     H37927   4.589   3.250   8.771  2.8759 -1.6788  0.2972
 1022MOL0     H37928   4.614   3.479   8.583  0.0792  0.1971  2.3365
 1022MOL0     H37929   4.471   3.397   8.658 -0.1976  1.1913  1.2269
 1022MOL0     H37930   4.374   3.440   8.459  2.5287  0.1186  0.7173
 1022MOL0     H37931   4.194   3.527   8.384  1.4972 -1.0350  1.8547
 1022MOL0     H37932   4.116   3.451   8.243 -1.1853 -2.0413  0.7493
 1022MOL0     H37933   4.060   3.410   8.406 -0.3894  2.1273 -0.0119
 1022MOL0     H37934   4.028   2.864   8.008  2.2484 -0.5492 -0.2083
 1022MOL0     H37935   3.914   2.820   7.788 -0.7144 -0.1633 -0.1797
 1022MOL0     H37936   3.885   3.191   7.504 -1.5652  1.0534  0.7635
 1022MOL0     H37937   4.014   3.065   7.474 -0.4731 -1.6099  0.6450
 1022MOL0     H37938   3.878   3.076   7.267  1.9337  0.4764  0.8092
 1022MOL0     H37939   3.843   2.929   7.355 -0.7053  0.9538 -1.4555
 1022MOL0     H37940   3.659   3.003   7.457 -2.8035  1.1064 -1.0536
 1022MOL0     H37941   3.646   2.990   7.291 -0.0085 -0.8614 -1.2190
 1022MOL0     H37942   3.537   3.200   7.417  0.7654  0.2620  2.8106
 1022MOL0     H37943   3.703   3.247   7.439 -0.3108  0.6449 -0.9109
 1022MOL0     H37944   3.713   3.251   7.173 -0.6658 -0.2281 -1.4811
 1022MOL0     H37945   3.594   3.371   7.248 -1.8667  0.1104  1.0010
 1022MOL0     H37946   3.556   3.087   7.153  0.8912  0.6267  0.5195
 1022MOL0     H37947   3.419   3.205   7.177 -0.6115  2.8503 -0.6830
 1022MOL0     H37948   3.617   3.195   6.956  0.5224 -0.1065  2.1144
 1022MOL0     H37949   3.521   3.339   6.972 -1.1745  0.6173  4.2060
 1022MOL0     H37950   3.418   3.041   6.956  0.8122  0.4468  1.9673
 1022MOL0     H37951   3.434   3.156   6.816 -1.1441  2.7839 -0.6837
 1022MOL0     H37952   4.044   3.217   7.658 -0.2377 -0.4749 -0.5747
 1022MOL0     H37953   4.175   3.234   7.847 -1.9138  1.7547  0.7821
 1022MOL0     H37954   4.347   3.019   8.217  0.6164  0.2435 -1.1271
 1022MOL0     H37955   4.532   3.059   8.374 -1.7545 -2.4965 -2.7337
 1022MOL0     H37956   6.335   3.344   8.424 -2.7669 -0.4096  2.6151
 1022MOL0     H37957   6.526   3.240   8.310 -2.7719  1.6615 -3.3979
 1022MOL0     H37958   6.806   3.001   7.991  1.9006 -0.7889 -0.8966
 1022MOL0     H37959   6.975   2.837   7.921  1.2217 -2.3488 -0.1226
 1022MOL0     H37960   7.089   2.576   7.852  0.1916  0.0063 -0.3917
 1022MOL0     H37961   7.153   2.727   7.935  0.0776 -0.2497  0.3768
 1022MOL0     H37962   7.304   2.547   7.869  1.4791 -1.4446  0.1485
 1022MOL0     H37963   7.223   2.428   7.968  0.5325  0.2683  1.5866
 1022MOL0     H37964   7.286   2.522   8.167 -1.2961  1.0503 -0.1250
 1022MOL0     H37965   7.322   2.687   8.106  1.4776  0.3144  3.9342
 1022MOL0     H37966   7.511   2.539   8.207  0.9919  2.0820 -0.6826
 1022MOL0     H37967   7.546   2.607   8.052  2.1392 -1.0902  1.6378
 1022MOL0     H37968   7.581   2.223   7.921 -0.7335  0.5001 -0.1107
 1022MOL0     H37969   6.897   2.596   8.259  1.2089  0.5793 -0.3407
 1022MOL0     H37970   6.704   2.746   8.315 -1.8114  1.6316 -0.3436
 1023MOL0     O37971   2.375   3.164   3.550 -0.0108  0.0509  0.3306
 1023MOL0     C37972   2.437   3.100   3.636  0.0935 -0.2980 -0.0079
 1023MOL0     O37973   2.389   3.045   3.742  0.0639  0.3042 -0.1842
 1023MOL0     C37974   2.255   3.061   3.791 -1.0024 -0.2231 -0.0595
 1023MOL0     C37975   2.182   3.173   3.764 -0.6728 -0.5001 -0.0830
 1023MOL0     C37976   2.047   3.184   3.808 -0.8538 -0.2004 -0.5478
 1023MOL0     C37977   1.987   3.091   3.887 -1.1256 -0.2611 -0.4841
 1023MOL0     O37978   1.854   3.111   3.906 -0.5810  0.2696 -0.0567
 1023MOL0     C37979   1.791   3.014   3.995 -0.3341 -0.2137  0.4042
 1023MOL0     C37980   1.658   3.067   4.042  0.6478 -0.4120  1.1155
 1023MOL0     C37981   1.586   2.959   4.116  1.1097 -0.9338  0.5669
 1023MOL0     C37982   1.465   3.019   4.179  0.1764  0.8703  0.9765
 1023MOL0     C37983   1.375   2.931   4.265 -0.0156 -0.6885  0.4250
 1023MOL0     C37984   1.433   2.890   4.407 -0.7421  0.3281 -0.2155
 1023MOL0     C37985   1.322   2.839   4.502 -0.5447 -0.1195 -0.5669
 1023MOL0     C37986   1.255   2.714   4.468  0.3613  0.4323 -0.2647
 1023MOL0     N37987   1.193   2.656   4.582  0.1463  0.6747 -0.5994
 1023MOL0     C37988   1.056   2.629   4.591 -0.2640 -0.3341  0.0743
 1023MOL0     C37989   1.046   2.558   4.705  0.3765 -0.1538 -0.8573
 1023MOL0     C37990   0.917   2.499   4.751  0.5771 -1.1194 -0.2893
 1023MOL0     C37991   0.889   2.348   4.728  0.0918 -0.9804  0.4246
 1023MOL0     C37992   0.926   2.303   4.586 -0.7207 -0.2862  0.6451
 1023MOL0     C37993   0.832   2.375   4.484  0.2507  0.4589  1.3756
 1023MOL0     O37994   0.697   2.335   4.507 -0.3337 -0.0452 -0.3682
 1023MOL0     C37995   0.604   2.409   4.447 -0.2608 -0.0404 -0.2730
 1023MOL0     C37996   0.561   2.525   4.497  0.0856 -1.7884 -0.9587
 1023MOL0     C37997   0.453   2.599   4.448 -0.1700  0.4242 -0.0057
 1023MOL0     C37998   0.411   2.719   4.527  0.5321  0.6487  0.5416
 1023MOL0     C37999   0.386   2.546   4.331  0.7811 -0.0348 -0.7970
 1023MOL0     C38000   0.265   2.615   4.279 -0.9634  1.0177  0.0010
 1023MOL0     O38001   0.197   2.540   4.181  0.1523 -0.1324  0.0590
 1023MOL0     C38002   0.071   2.573   4.135  0.6571  0.7056 -0.2175
 1023MOL0     C38003   0.057   2.568   3.997  0.0044  0.6845  0.4555
 1023MOL0     C38004  -0.059   2.598   3.935 -0.4597  0.6622  0.4426
 1023MOL0     C38005  -0.171   2.620   4.010  0.7756  0.1466  0.7533
 1023MOL0     O38006  -0.294   2.642   3.953  0.2951  1.2933 -0.3255
 1023MOL0     C38007  -0.298   2.634   3.813 -0.7639  0.0139 -0.4767
 1023MOL0     C38008  -0.444   2.652   3.773  0.4441  0.4318  0.0152
 1023MOL0     C38009  -0.460   2.662   3.617 -0.0596  0.6742 -0.1612
 1023MOL0     C38010  -0.602   2.625   3.574 -0.3256  0.1148  0.5787
 1023MOL0     C38011  -0.636   2.635   3.423 -0.6510  0.4834 -0.3948
 1023MOL0     C38012  -0.575   2.537   3.321 -0.7130  0.4908  0.2526
 1023MOL0     C38013  -0.588   2.592   3.180 -0.7484  0.2295  0.7100
 1023MOL0     C38014  -0.502   2.505   3.078 -0.3397  0.2651  0.0215
 1023MOL0    Cl38015  -0.616   2.377   3.020 -0.2698 -0.1967 -0.0352
 1023MOL0     C38016  -0.160   2.629   4.144 -0.2186  0.3111 -0.6348
 1023MOL0     C38017  -0.031   2.612   4.215 -0.4309 -0.6205 -0.1437
 1023MOL0     O38018   0.228   2.726   4.319 -0.0372  0.1513 -0.4234
 1023MOL0     C38019   0.438   2.430   4.277 -0.7987 -0.0892  0.4243
 1023MOL0     C38020   0.533   2.352   4.338  0.0121  0.1339  0.2503
 1023MOL0     N38021   1.168   2.544   4.771  0.5184  0.2061  0.0868
 1023MOL0     N38022   1.254   2.612   4.706  0.0247 -0.2444 -0.5919
 1023MOL0     C38023   2.065   2.980   3.926  0.1676 -0.3809  0.1812
 1023MOL0     C38024   2.196   2.961   3.880 -0.2276 -0.7844  0.9490
 1023MOL0     C38025   2.586   3.083   3.618  0.7180 -0.6474  0.1679
 1023MOL0     C38026   2.660   3.190   3.564 -0.5423 -0.1962 -0.5154
 1023MOL0     C38027   2.799   3.171   3.533 -0.0367 -0.1277  0.4466
 1023MOL0     C38028   2.862   3.044   3.548 -0.5160  0.0789 -0.9422
 1023MOL0     O38029   3.000   3.031   3.519  1.2642 -0.5428  0.4619
 1023MOL0     C38030   3.067   2.907   3.551  0.2772 -0.1667  0.8906
 1023MOL0     C38031   3.034   2.802   3.438 -0.5889 -0.7386 -0.9558
 1023MOL0     C38032   3.128   2.842   3.324 -0.3499 -0.1777  0.8061
 1023MOL0     C38033   3.115   2.736   3.208  0.4745  0.2023 -0.3044
 1023MOL0     C38034   3.138   2.598   3.258  0.1167 -0.7111 -0.9573
 1023MOL0     C38035   3.165   2.491   3.317  0.6588  0.0657 -0.0633
 1023MOL0     C38036   2.779   2.950   3.594  0.5236  0.3904 -0.2619
 1023MOL0     C38037   2.643   2.959   3.634  0.7473  0.2101  0.1480
 1023MOL0     H38038   2.224   3.257   3.710  3.3258 -0.2889  2.9068
 1023MOL0     H38039   1.993   3.273   3.779  0.4847  1.9132  2.8312
 1023MOL0     H38040   1.774   2.914   3.955 -2.7346  1.1167 -2.2402
 1023MOL0     H38041   1.852   3.009   4.086 -0.9234 -1.3217  0.7651
 1023MOL0     H38042   1.671   3.152   4.109 -0.2822 -0.7561  1.7597
 1023MOL0     H38043   1.589   3.090   3.960 -0.5158 -0.5625  2.0227
 1023MOL0     H38044   1.566   2.881   4.042 -0.7824  1.5637 -1.7674
 1023MOL0     H38045   1.657   2.922   4.190  2.2416  1.0003  0.5022
 1023MOL0     H38046   1.501   3.100   4.243  4.2366 -0.1637  0.2831
 1023MOL0     H38047   1.400   3.062   4.103 -1.0551 -1.2848  0.7280
 1023MOL0     H38048   1.283   2.986   4.289  0.1793 -0.5553  0.8680
 1023MOL0     H38049   1.348   2.838   4.215  0.2982 -1.5551  1.8313
 1023MOL0     H38050   1.513   2.818   4.386 -0.8815  0.6912 -2.2153
 1023MOL0     H38051   1.476   2.983   4.446 -1.1705  0.4176  0.0431
 1023MOL0     H38052   1.371   2.821   4.598  0.5411 -1.4339 -1.3431
 1023MOL0     H38053   1.239   2.911   4.512  2.0967  3.3257 -1.5033
 1023MOL0     H38054   1.338   2.652   4.431  1.1925  0.3621  1.6093
 1023MOL0     H38055   1.190   2.731   4.382 -0.8508  2.3113  0.9391
 1023MOL0     H38056   0.974   2.661   4.527  0.7151 -0.9431 -1.5424
 1023MOL0     H38057   0.900   2.520   4.857  3.3111  2.7891 -0.4221
 1023MOL0     H38058   0.841   2.559   4.700  3.2842  1.0670 -1.9945
 1023MOL0     H38059   0.787   2.317   4.751  0.2917 -1.6652  0.4098
 1023MOL0     H38060   0.948   2.298   4.805 -0.6651  1.2829  2.6314
 1023MOL0     H38061   0.926   2.195   4.570  3.0301  0.0154 -2.6360
 1023MOL0     H38062   1.026   2.327   4.551 -1.2132 -1.6116 -1.8298
 1023MOL0     H38063   0.855   2.335   4.385 -1.3985  0.6330  0.8905
 1023MOL0     H38064   0.840   2.484   4.488 -1.6131  0.6654  0.6957
 1023MOL0     H38065   0.615   2.557   4.585 -0.4720  2.2737 -1.9174
 1023MOL0     H38066   0.307   2.701   4.556  0.4348 -2.2289 -1.1628
 1023MOL0     H38067   0.478   2.734   4.612 -0.8931  1.8229  1.5049
 1023MOL0     H38068   0.409   2.814   4.472 -0.3682  2.0103  2.7850
 1023MOL0     H38069   0.148   2.544   3.943  0.7404  1.3672  1.3509
 1023MOL0     H38070  -0.058   2.604   3.826 -1.1630  2.2284  0.5028
 1023MOL0     H38071  -0.233   2.713   3.774  2.1910 -1.6017  0.8389
 1023MOL0     H38072  -0.263   2.535   3.785  0.5470 -0.1101  1.4173
 1023MOL0     H38073  -0.508   2.573   3.812 -2.5393  1.5639 -2.1812
 1023MOL0     H38074  -0.485   2.748   3.805  0.2206  0.5482 -0.5929
 1023MOL0     H38075  -0.391   2.589   3.573 -0.2317  0.7742 -0.6005
 1023MOL0     H38076  -0.429   2.757   3.574  1.1065  0.4851  0.2157
 1023MOL0     H38077  -0.626   2.522   3.599  0.7679 -0.5140 -0.7918
 1023MOL0     H38078  -0.660   2.702   3.625  0.4582  0.5167  0.8791
 1023MOL0     H38079  -0.601   2.737   3.403 -0.1319  0.5182  0.6390
 1023MOL0     H38080  -0.745   2.632   3.412 -1.0046  1.5726  2.0487
 1023MOL0     H38081  -0.471   2.524   3.353 -0.5654  1.3446  0.1597
 1023MOL0     H38082  -0.627   2.441   3.316 -0.3261  0.3228 -0.8417
 1023MOL0     H38083  -0.549   2.693   3.169 -1.1116  0.3688  0.7267
 1023MOL0     H38084  -0.692   2.587   3.147 -1.1838 -3.5189  2.1075
 1023MOL0     H38085  -0.415   2.469   3.134 -1.3325 -0.0757  1.3728
 1023MOL0     H38086  -0.466   2.558   2.989 -1.3852 -0.8125 -1.0987
 1023MOL0     H38087  -0.249   2.665   4.196  0.8839  2.2927 -0.0363
 1023MOL0     H38088  -0.010   2.628   4.321 -0.4407  0.9592 -0.3536
 1023MOL0     H38089   0.403   2.398   4.179  0.1217  1.7199 -0.5600
 1023MOL0     H38090   0.564   2.255   4.300 -1.3484 -0.1201 -0.2603
 1023MOL0     H38091   2.017   2.895   3.973  3.6192 -3.0154 -0.6797
 1023MOL0     H38092   2.248   2.884   3.935 -1.5426 -1.0364  1.9024
 1023MOL0     H38093   2.605   3.282   3.545 -0.3585 -0.0956 -0.5671
 1023MOL0     H38094   2.849   3.256   3.490 -2.3256  1.5328  0.9150
 1023MOL0     H38095   3.173   2.928   3.562  0.4925 -0.5492 -0.3109
 1023MOL0     H38096   3.036   2.866   3.648  0.9888 -0.8970  0.8211
 1023MOL0     H38097   2.930   2.810   3.404 -0.5134  3.4425 -0.7570
 1023MOL0     H38098   3.064   2.708   3.486 -0.1008  0.1702  0.6193
 1023MOL0     H38099   3.233   2.844   3.354  0.7683 -0.7970 -2.6495
 1023MOL0     H38100   3.097   2.934   3.273  0.0582  0.2267  1.2664
 1023MOL0     H38101   3.185   2.757   3.126  2.8958 -0.3235  1.4989
 1023MOL0     H38102   3.008   2.742   3.186 -0.4371  2.1195  3.7504
 1023MOL0     H38103   3.187   2.406   3.378  3.1400  1.1151  0.6591
 1023MOL0     H38104   2.814   2.852   3.623 -0.7974  0.3817  1.5283
 1023MOL0     H38105   2.593   2.867   3.661  1.9606 -1.7165 -3.5496
 1024MOL0     O38106  10.680   4.526   1.389 -0.3689 -0.7078 -0.3850
 1024MOL0     C38107  10.647   4.514   1.506 -0.1424 -0.6796 -0.6216
 1024MOL0     O38108  10.570   4.604   1.576 -1.0001 -0.0574  0.6939
 1024MOL0     C38109  10.569   4.738   1.539  1.0752 -0.1346  0.1661
 1024MOL0     C38110  10.678   4.810   1.487 -0.2827 -0.3127 -0.1618
 1024MOL0     C38111  10.662   4.939   1.458  1.0041 -0.1827 -0.1661
 1024MOL0     C38112  10.540   5.003   1.486 -0.5352 -0.3927 -0.8576
 1024MOL0     O38113  10.517   5.140   1.458 -0.3272  0.1770  0.9381
 1024MOL0     C38114  10.625   5.213   1.399 -0.4291 -0.5901 -0.3954
 1024MOL0     C38115  10.579   5.365   1.417  0.3110  0.5663  0.6769
 1024MOL0     C38116  10.701   5.455   1.388  0.7759 -0.8992  0.1222
 1024MOL0     C38117  10.661   5.601   1.448 -0.6108 -0.0178 -0.2652
 1024MOL0     C38118  10.781   5.708   1.427  0.0975  0.8147  0.1293
 1024MOL0     C38119  10.827   5.730   1.281  0.3761  0.2029 -0.1013
 1024MOL0     C38120  10.961   5.804   1.262  0.4777  0.0786  0.2865
 1024MOL0     C38121  10.996   5.802   1.104  0.2448 -0.5768 -0.6626
 1024MOL0     N38122  11.121   5.865   1.074 -0.0391  0.1088  0.2692
 1024MOL0     C38123  11.243   5.848   1.143  0.8662 -0.4272  0.0916
 1024MOL0     C38124  11.321   5.951   1.098  0.7948 -0.0790  0.4782
 1024MOL0     C38125  11.464   5.972   1.147  0.2754 -0.8818  0.2437
 1024MOL0     C38126  11.526   6.113   1.121 -0.6942 -0.3430  0.1551
 1024MOL0     C38127  11.443   6.229   1.178 -0.8811 -0.3120 -0.3732
 1024MOL0     C38128  11.498   6.373   1.187  0.3439  0.3078 -0.3994
 1024MOL0     O38129  11.501   6.422   1.048 -0.3758  0.1640 -0.0194
 1024MOL0     C38130  11.397   6.502   1.009  0.7300  0.9748 -0.0122
 1024MOL0     C38131  11.286   6.436   0.948  0.4173 -0.5102  0.0709
 1024MOL0     C38132  11.161   6.503   0.939  0.1198  0.5680 -0.8392
 1024MOL0     C38133  11.043   6.425   0.882 -0.2972  0.4491 -0.0563
 1024MOL0     C38134  11.161   6.643   0.966  0.6969  0.3455  0.3725
 1024MOL0     C38135  11.040   6.727   0.942 -1.1032  0.0017 -0.4519
 1024MOL0     O38136  11.007   6.815   1.044  0.0793  0.4118 -0.3375
 1024MOL0     C38137  10.870   6.863   1.031  1.3616 -0.7039 -1.0817
 1024MOL0     C38138  10.770   6.790   1.093 -0.4162  0.4441 -0.6895
 1024MOL0     C38139  10.645   6.847   1.114  0.7405 -0.5905 -0.4065
 1024MOL0     C38140  10.612   6.975   1.053 -0.8512 -0.0357  0.8386
 1024MOL0     O38141  10.482   7.031   1.045  0.4849  0.0145 -0.5116
 1024MOL0     C38142  10.413   7.034   1.169 -0.6670 -0.4595  0.0158
 1024MOL0     C38143  10.340   7.165   1.195 -0.0126 -0.0968  1.0867
 1024MOL0     C38144  10.272   7.184   1.335 -0.2273 -0.6989  0.5560
 1024MOL0     C38145  10.173   7.069   1.369  0.2849  0.7051  0.4792
 1024MOL0     C38146  10.136   7.061   1.523  0.5478 -0.2690 -0.2305
 1024MOL0     C38147  10.003   6.990   1.558 -1.2845  0.1515  0.1655
 1024MOL0     C38148   9.872   7.061   1.522  0.7364  0.2141  0.5891
 1024MOL0     C38149   9.754   6.986   1.583 -0.0870 -0.4193  0.4090
 1024MOL0    Cl38150   9.738   6.985   1.760  0.2641 -0.1508  0.1128
 1024MOL0     C38151  10.715   7.041   0.984 -0.5120 -0.5376 -0.3532
 1024MOL0     C38152  10.836   6.980   0.963 -0.6893  0.2248 -0.3464
 1024MOL0     O38153  10.983   6.710   0.833 -0.0259  0.6354 -0.5743
 1024MOL0     C38154  11.268   6.708   1.040  0.5861 -0.5621  0.2801
 1024MOL0     C38155  11.385   6.627   1.064  0.2274 -0.3666  1.1261
 1024MOL0     N38156  11.247   6.036   1.020 -0.2822  0.2483  0.6152
 1024MOL0     N38157  11.130   5.986   1.008 -0.2595 -0.2274  0.8043
 1024MOL0     C38158  10.433   4.930   1.534 -0.2295  0.2963 -0.7545
 1024MOL0     C38159  10.444   4.792   1.566  0.8690  0.2563 -0.6734
 1024MOL0     C38160  10.681   4.391   1.576  0.0346 -0.0276  0.2241
 1024MOL0     C38161  10.713   4.270   1.504  0.7579  0.6618 -0.1653
 1024MOL0     C38162  10.740   4.148   1.567 -0.2958  0.5640 -0.3342
 1024MOL0     C38163  10.754   4.141   1.709 -0.0678  0.6232  0.0483
 1024MOL0     O38164  10.775   4.034   1.789 -0.8383  0.1371  0.0415
 1024MOL0     C38165  10.774   3.899   1.734 -0.7652 -0.6548 -0.2312
 1024MOL0     C38166  10.791   3.791   1.850  0.0174  0.0483 -0.3154
 1024MOL0     C38167  10.750   3.658   1.798  0.3207 -0.0363  1.6148
 1024MOL0     C38168  10.836   3.560   1.897  1.2784 -0.0471 -0.2037
 1024MOL0     C38169  10.822   3.418   1.870  0.4118  0.1445  0.0078
 1024MOL0     C38170  10.801   3.301   1.844  0.3030  0.1436 -0.2062
 1024MOL0     C38171  10.724   4.261   1.783 -1.0042 -0.0323  0.4865
 1024MOL0     C38172  10.701   4.383   1.711  0.2154  0.4143 -0.9240
 1024MOL0     H38173  10.768   4.755   1.461  1.4010  1.8508  0.7586
 1024MOL0     H38174  10.743   5.003   1.426 -0.1262  1.4015  0.0331
 1024MOL0     H38175  10.711   5.210   1.466 -1.7007  1.3716  1.4296
 1024MOL0     H38176  10.644   5.190   1.293 -0.8065  2.3529 -1.1940
 1024MOL0     H38177  10.501   5.384   1.343 -0.6269 -1.7366  0.9578
 1024MOL0     H38178  10.542   5.388   1.517  3.5197  0.8792  1.9140
 1024MOL0     H38179  10.789   5.427   1.447 -0.6775  0.6731  3.2832
 1024MOL0     H38180  10.729   5.454   1.283  3.1786 -0.9955  0.7056
 1024MOL0     H38181  10.578   5.638   1.388  0.6549  1.4622 -1.1754
 1024MOL0     H38182  10.633   5.598   1.554  1.0143  0.9993  0.2245
 1024MOL0     H38183  10.751   5.806   1.466 -0.5837 -0.1614  2.1804
 1024MOL0     H38184  10.866   5.669   1.483 -0.8008 -0.6793  0.5040
 1024MOL0     H38185  10.837   5.635   1.228  1.5949  0.3109 -0.1043
 1024MOL0     H38186  10.745   5.780   1.229 -1.1730  0.7838  2.7409
 1024MOL0     H38187  10.958   5.900   1.313  1.9493  1.3722 -1.8972
 1024MOL0     H38188  11.030   5.743   1.321  1.4599  0.7081 -0.1811
 1024MOL0     H38189  10.914   5.844   1.046  1.0963  1.3438 -0.5535
 1024MOL0     H38190  11.008   5.696   1.078  1.5681 -0.0422 -2.4511
 1024MOL0     H38191  11.272   5.776   1.219 -2.0037 -1.8942 -0.0731
 1024MOL0     H38192  11.463   5.969   1.256  0.7419  0.8307  0.3200
 1024MOL0     H38193  11.526   5.889   1.111 -0.4960 -1.4312  0.1656
 1024MOL0     H38194  11.517   6.127   1.012 -0.9682 -1.5789  0.0030
 1024MOL0     H38195  11.631   6.114   1.149 -0.8633  0.0294  0.7919
 1024MOL0     H38196  11.414   6.208   1.282 -0.2155  0.5237 -0.0027
 1024MOL0     H38197  11.349   6.245   1.125 -0.7035 -0.6562 -0.7974
 1024MOL0     H38198  11.601   6.366   1.222 -0.0938  0.9374  1.0657
 1024MOL0     H38199  11.434   6.434   1.251 -0.2825 -1.4161  0.6905
 1024MOL0     H38200  11.294   6.333   0.915  2.0353 -0.6356  0.7406
 1024MOL0     H38201  11.058   6.316   0.880 -1.2217  0.2748  1.1631
 1024MOL0     H38202  10.951   6.434   0.940 -0.2458 -0.5932  0.2066
 1024MOL0     H38203  11.023   6.459   0.780 -2.0617 -0.3252 -0.0180
 1024MOL0     H38204  10.787   6.698   1.148 -0.2777  1.0495  0.3055
 1024MOL0     H38205  10.564   6.797   1.167 -0.7510  1.9747 -0.1319
 1024MOL0     H38206  10.343   6.950   1.169  2.2717 -3.3071 -4.0352
 1024MOL0     H38207  10.466   7.015   1.263 -0.5758  0.1892  0.0959
 1024MOL0     H38208  10.403   7.252   1.174 -0.2251  0.6179  3.1457
 1024MOL0     H38209  10.261   7.170   1.120  0.5100 -1.8078  0.3794
 1024MOL0     H38210  10.226   7.283   1.330  1.9777  0.3476 -0.3199
 1024MOL0     H38211  10.345   7.182   1.416 -1.1406 -0.3095  1.4170
 1024MOL0     H38212  10.088   7.092   1.303 -0.4703 -1.5903  0.5888
 1024MOL0     H38213  10.217   6.971   1.350  0.2467  0.5049  1.3898
 1024MOL0     H38214  10.121   7.161   1.565 -1.3856 -0.5809 -0.1219
 1024MOL0     H38215  10.220   7.013   1.574 -1.2833 -2.5051  0.8508
 1024MOL0     H38216  10.003   6.887   1.522  2.2122  0.1674 -0.1572
 1024MOL0     H38217  10.009   6.977   1.666  1.7527 -0.4534  0.0024
 1024MOL0     H38218   9.856   7.054   1.414  0.8270 -0.2020  0.5988
 1024MOL0     H38219   9.865   7.168   1.541  0.9450  0.7208 -1.8282
 1024MOL0     H38220   9.752   6.883   1.546  2.1899  0.1837 -1.6807
 1024MOL0     H38221   9.663   7.034   1.545  0.5241 -0.0706 -0.6306
 1024MOL0     H38222  10.703   7.134   0.929  1.6523  2.9215  4.3190
 1024MOL0     H38223  10.907   7.039   0.906 -1.9762  0.0832 -2.2056
 1024MOL0     H38224  11.262   6.806   1.086 -0.4273  0.8884 -2.6693
 1024MOL0     H38225  11.464   6.651   1.135 -0.8372 -0.0241  2.2248
 1024MOL0     H38226  10.344   4.989   1.553 -0.2580  0.2151 -0.6282
 1024MOL0     H38227  10.355   4.740   1.601 -0.6664  3.4821  0.5790
 1024MOL0     H38228  10.717   4.281   1.397  1.3770  0.1560 -0.2023
 1024MOL0     H38229  10.741   4.058   1.506  2.7618 -1.5459  2.4923
 1024MOL0     H38230  10.673   3.894   1.690 -1.9632  0.7308  2.1548
 1024MOL0     H38231  10.854   3.886   1.660  0.7172  1.0469  0.9794
 1024MOL0     H38232  10.736   3.818   1.941 -0.8055  1.0698 -1.0914
 1024MOL0     H38233  10.893   3.770   1.882 -0.8250 -3.8860  0.3450
 1024MOL0     H38234  10.782   3.651   1.694 -1.0017  0.8735  1.1184
 1024MOL0     H38235  10.642   3.641   1.805 -0.8495  4.9604 -0.1714
 1024MOL0     H38236  10.805   3.575   2.001 -0.1617 -0.4640 -0.5513
 1024MOL0     H38237  10.942   3.584   1.889  0.7704  2.3070 -0.8592
 1024MOL0     H38238  10.796   3.199   1.810  0.2651 -0.9869  2.9015
 1024MOL0     H38239  10.732   4.266   1.891 -0.6456 -1.4153  0.5436
 1024MOL0     H38240  10.678   4.465   1.777 -3.3287 -3.2206  2.9793
  11.41058  11.41058  11.41058
